<event>
 9    2  0.4883225E-005  0.1077466E+03  0.7546771E-02  0.1267215E+00
         21   -1    0    0  501  502  0.00000000000E+00  0.00000000000E+00  0.13261226758E+03  0.13261226758E+03  0.00000000000E+00 0. -1.
          2   -1    0    0  502    0 -0.00000000000E+00 -0.00000000000E+00 -0.20414757054E+03  0.20414757054E+03  0.00000000000E+00 0. -1.
         24    2    1    2    0    0  0.65595603471E+01  0.67242763298E+02 -0.84610000033E+02  0.13523748613E+03  0.81029059614E+02 0.  0.
         23    2    1    2    0    0 -0.29679672272E+02 -0.53266814805E+02 -0.61008090670E+02  0.12266725607E+03  0.87218301287E+02 0.  0.
        -11    1    3    3    0    0 -0.28460222494E+02  0.98618823874E+01 -0.41720132106E+01  0.30408003599E+02  0.00000000000E+00 0.  1.
         12    1    3    3    0    0  0.35019782841E+02  0.57380880910E+02 -0.80437986822E+02  0.10482948253E+03  0.00000000000E+00 0. -1.
        -11    1    4    4    0    0  0.31129469421E+00 -0.44693468677E+02  0.93881540425E+01  0.45669907851E+02  0.00000000000E+00 0.  1.
         11    1    4    4    0    0 -0.29990966966E+02 -0.85733461280E+01 -0.70396244713E+02  0.76997348221E+02  0.00000000000E+00 0. -1.
          1    1    1    2  501    0  0.23120111925E+02 -0.13975948492E+02  0.74082787742E+02  0.78855095912E+02  0.00000000000E+00 0. -1.
<scales pt_clust_5="13000.00000" pt_clust_6="13000.00000" pt_clust_7="13000.00000" pt_clust_8="13000.00000" pt_clust_9="27.01605"></scales>
<clustering>
<clus scale="   27.016">  1  9  2 -1</clus>
<clus scale="   81.029">  5  6 -1 -1</clus>
<clus scale="   87.218">  7  8 -1 -1</clus>
<clus scale="  102.801">  2  5  1 -1</clus>
<clus scale="   27.016">  1  5  2 -1</clus>
</clustering>
</event>
<event>
 9    2  0.4883225E-005  0.1905150E+03  0.7546771E-02  0.1159574E+00
          2   -1    0    0  502    0 -0.00000000000E+00  0.00000000000E+00  0.26965393607E+03  0.26965393607E+03  0.00000000000E+00 0. -1.
         21   -1    0    0  501  502  0.00000000000E+00 -0.00000000000E+00 -0.19352291399E+03  0.19352291399E+03  0.00000000000E+00 0.  1.
         24    2    1    2    0    0 -0.78248310347E+02 -0.15466609725E+03  0.13781452791E+03  0.23562547219E+03  0.80511609928E+02 0.  0.
         23    2    1    2    0    0  0.92521322368E+02  0.11418973461E+03 -0.58144567954E+02  0.18448655596E+03  0.95157805581E+02 0.  0.
        -11    1    3    3    0    0 -0.45069208994E+02 -0.50832812335E+02  0.11707768370E+02  0.68936784443E+02  0.00000000000E+00 0.  1.
         12    1    3    3    0    0 -0.33179101353E+02 -0.10383328492E+03  0.12610675954E+03  0.16668868775E+03  0.00000000000E+00 0. -1.
        -13    1    4    4    0    0  0.80138645173E+02  0.58711476296E+02  0.50699847090E+01  0.99473336346E+02  0.00000000000E+00 0.  1.
         13    1    4    4    0    0  0.12382677195E+02  0.55478258314E+02 -0.63214552663E+02  0.85013219610E+02  0.00000000000E+00 0. -1.
          1    1    1    2  501    0 -0.14273012021E+02  0.40476362643E+02 -0.35389378748E+01  0.43064821911E+02  0.00000000000E+00 0. -1.
<scales pt_clust_5="13000.00000" pt_clust_6="13000.00000" pt_clust_7="13000.00000" pt_clust_8="13000.00000" pt_clust_9="42.91917"></scales>
<clustering>
<clus scale="   42.919">  2  9  1 -1</clus>
<clus scale="   80.512">  5  6 -1 -1</clus>
<clus scale="   95.158">  7  8 -1 -1</clus>
<clus scale="  183.638">  1  5  2 -1</clus>
<clus scale="   42.919">  2  5  1 -1</clus>
</clustering>
</event>
<event>
 9    2  0.4883225E-005  0.1218976E+03  0.7546771E-02  0.1243005E+00
          2   -1    0    0  502    0 -0.00000000000E+00  0.00000000000E+00  0.37602743222E+03  0.37602743222E+03  0.00000000000E+00 0. -1.
         21   -1    0    0  501  502  0.00000000000E+00 -0.00000000000E+00 -0.53298868994E+02  0.53298868994E+02  0.00000000000E+00 0. -1.
         23    2    1    2    0    0 -0.86696770342E+02 -0.14422331606E+02  0.20541567123E+03  0.24140567956E+03  0.91415373442E+02 0.  0.
         24    2    1    2    0    0  0.68966792415E+02  0.23785426750E+02  0.12528172557E+03  0.16634466336E+03  0.81565135232E+02 0.  0.
        -13    1    4    4    0    0  0.86744165214E+02  0.12251906570E+02  0.93330075220E+02  0.12800454036E+03  0.00000000000E+00 0.  1.
         14    1    4    4    0    0 -0.17777372799E+02  0.11533520180E+02  0.31951650346E+02  0.38340122994E+02  0.00000000000E+00 0. -1.
        -11    1    3    3    0    0 -0.57615875854E+02 -0.50589592444E+02  0.98284965187E+02  0.12465484506E+03  0.00000000000E+00 0.  1.
         11    1    3    3    0    0 -0.29080894488E+02  0.36167260838E+02  0.10713070604E+03  0.11675083451E+03  0.00000000000E+00 0. -1.
          1    1    1    2  501    0  0.17729977927E+02 -0.93630951438E+01 -0.79688335665E+01  0.21575958295E+02  0.00000000000E+00 0. -1.
<scales pt_clust_5="13000.00000" pt_clust_6="13000.00000" pt_clust_7="13000.00000" pt_clust_8="13000.00000" pt_clust_9="20.05043"></scales>
<clustering>
<clus scale="   20.050">  2  9  1 -1</clus>
<clus scale="   81.565">  5  6 -1 -1</clus>
<clus scale="   91.415">  7  8 -1 -1</clus>
<clus scale="  114.696">  2  5  1 -1</clus>
<clus scale="   20.050">  2  5  1 -1</clus>
</clustering>
</event>
<event>
 9    2  0.4883225E-005  0.1166412E+03  0.7546771E-02  0.1262639E+00
          2   -1    0    0  502    0 -0.00000000000E+00  0.00000000000E+00  0.10388709539E+04  0.10388709539E+04  0.00000000000E+00 0. -1.
         21   -1    0    0  501  502  0.00000000000E+00 -0.00000000000E+00 -0.22310398109E+02  0.22310398109E+02  0.00000000000E+00 0. -1.
         24    2    1    2    0    0 -0.13423348517E+02 -0.36925477858E+02  0.46648768466E+03  0.47482558395E+03  0.79403388038E+02 0.  0.
         23    2    1    2    0    0  0.32682655616E+02 -0.49982490014E+02  0.24253792398E+03  0.26619696449E+03  0.92031375326E+02 0.  0.
        -13    1    3    3    0    0 -0.35991238540E+02 -0.20288994791E+02  0.11455601449E+03  0.12177886934E+03  0.00000000000E+00 0.  1.
         14    1    3    3    0    0  0.22567890023E+02 -0.16636483067E+02  0.35193167017E+03  0.35304671461E+03  0.00000000000E+00 0. -1.
        -13    1    4    4    0    0 -0.30602780971E+02 -0.27535900283E+01  0.70071564833E+02  0.76512330113E+02  0.00000000000E+00 0.  1.
         13    1    4    4    0    0  0.63285436587E+02 -0.47228899985E+02  0.17246635915E+03  0.18968463437E+03  0.00000000000E+00 0. -1.
          1    1    1    2  501    0 -0.19259307099E+02  0.86907967872E+02  0.30753494710E+03  0.32015880353E+03  0.00000000000E+00 0. -1.
<scales pt_clust_5="13000.00000" pt_clust_6="13000.00000" pt_clust_7="13000.00000" pt_clust_8="13000.00000" pt_clust_9="71.66176"></scales>
<clustering>
<clus scale="   79.403">  5  6 -1 -1</clus>
<clus scale="   88.592">  1  5  2 -1</clus>
<clus scale="   71.662">  2  9  1 -1</clus>
<clus scale="   92.031">  7  8 -1 -1</clus>
<clus scale="   71.662">  2  5  1 -1</clus>
</clustering>
</event>
<event>
 9    2  0.4883225E-005  0.1248953E+03  0.7546771E-02  0.1240081E+00
          2   -1    0    0  502    0 -0.00000000000E+00  0.00000000000E+00  0.13551047258E+04  0.13551047258E+04  0.00000000000E+00 0. -1.
         21   -1    0    0  501  502  0.00000000000E+00 -0.00000000000E+00 -0.16936950197E+02  0.16936950197E+02  0.00000000000E+00 0.  1.
         24    2    1    2    0    0 -0.39545166999E+01  0.82708707549E+02  0.74202721690E+03  0.75024106815E+03  0.73490824021E+02 0.  0.
         23    2    1    2    0    0  0.40279761536E+02 -0.90895583708E+02  0.39555652130E+03  0.41778956791E+03  0.90546646463E+02 0.  0.
        -11    1    3    3    0    0 -0.23514690079E+02  0.51509028329E+02  0.22909218410E+03  0.23598590946E+03  0.00000000000E+00 0.  1.
         12    1    3    3    0    0  0.19560173379E+02  0.31199679220E+02  0.51293503280E+03  0.51425515869E+03  0.00000000000E+00 0. -1.
        -13    1    4    4    0    0  0.10351507594E+02 -0.18686994264E+02  0.86186439760E+01  0.23035591767E+02  0.00000000000E+00 0.  1.
         13    1    4    4    0    0  0.29928253942E+02 -0.72208589444E+02  0.38693787733E+03  0.39475397615E+03  0.00000000000E+00 0. -1.
          1    1    1    2  501    0 -0.36325244836E+02  0.81868761589E+01  0.20058403740E+03  0.20401103993E+03  0.00000000000E+00 0. -1.
<scales pt_clust_5="13000.00000" pt_clust_6="13000.00000" pt_clust_7="13000.00000" pt_clust_8="13000.00000" pt_clust_9="37.23640"></scales>
<clustering>
<clus scale="   37.236">  2  9  1 -1</clus>
<clus scale="   73.491">  5  6 -1 -1</clus>
<clus scale="   90.547">  7  8 -1 -1</clus>
<clus scale="  113.142">  1  5  2 -1</clus>
<clus scale="   37.236">  2  5  1 -1</clus>
</clustering>
</event>
<event>
 9    2  0.4883225E-005  0.1355113E+03  0.7546771E-02  0.1222352E+00
         21   -1    0    0  501  502  0.00000000000E+00  0.00000000000E+00  0.12593976355E+03  0.12593976355E+03  0.00000000000E+00 0. -1.
          2   -1    0    0  502    0 -0.00000000000E+00 -0.00000000000E+00 -0.95032435031E+03  0.95032435031E+03  0.00000000000E+00 0. -1.
         24    2    1    2    0    0 -0.10056850720E+03 -0.16123680204E+02 -0.78834165927E+03  0.79906709567E+03  0.81557672502E+02 0.  0.
         23    2    1    2    0    0  0.81743136445E+02 -0.60157725985E+02 -0.10445915679E+03  0.17301435195E+03  0.93388212263E+02 0.  0.
        -13    1    3    3    0    0 -0.19783943828E+02  0.14585583394E+02 -0.50318085103E+02  0.56000476469E+02  0.00000000000E+00 0.  1.
         14    1    3    3    0    0 -0.80784563373E+02 -0.30709263598E+02 -0.73802357416E+03  0.74306661920E+03  0.00000000000E+00 0. -1.
        -11    1    4    4    0    0  0.33269826699E+02 -0.58061086781E+02 -0.10497866743E+03  0.12449293868E+03  0.00000000000E+00 0. -1.
         11    1    4    4    0    0  0.48473309746E+02 -0.20966392042E+01  0.51951063653E+00  0.48521413262E+02  0.00000000000E+00 0.  1.
          1    1    1    2  501    0  0.18825370756E+02  0.76281406189E+02  0.68416229304E+02  0.10418266625E+03  0.00000000000E+00 0. -1.
<scales pt_clust_5="13000.00000" pt_clust_6="13000.00000" pt_clust_7="13000.00000" pt_clust_8="13000.00000" pt_clust_9="78.57002"></scales>
<clustering>
<clus scale="   78.570">  1  9  2 -1</clus>
<clus scale="   81.558">  5  6 -1 -1</clus>
<clus scale="   93.388">  7  8 -1 -1</clus>
<clus scale="  127.646">  2  5  1 -1</clus>
<clus scale="   78.570">  1  5  2 -1</clus>
</clustering>
</event>
<event>
 9    2  0.1347914E-004  0.1445145E+03  0.7546771E-02  0.1218826E+00
          2   -1    0    0  502    0 -0.00000000000E+00  0.00000000000E+00  0.64659611286E+03  0.64659611286E+03  0.00000000000E+00 0. -1.
         21   -1    0    0  501  502  0.00000000000E+00 -0.00000000000E+00 -0.15202822177E+03  0.15202822177E+03  0.00000000000E+00 0.  1.
         24    2    1    2    0    0 -0.70237871319E+02  0.28154418490E+02  0.58091769622E+03  0.59179695316E+03  0.83858417182E+02 0.  0.
         23    2    1    2    0    0  0.88930342805E+02 -0.10387782217E+02 -0.45688071359E+02  0.15867721586E+03  0.12277844713E+03 0.  0.
        -13    1    3    3    0    0 -0.15979358705E+02 -0.25020495862E+02  0.83704497182E+02  0.88813332143E+02  0.00000000000E+00 0.  1.
         14    1    3    3    0    0 -0.54258512615E+02  0.53174914352E+02  0.49721319904E+03  0.50298362101E+03  0.00000000000E+00 0. -1.
        -13    1    4    4    0    0  0.62640916417E+02 -0.59889482846E+01 -0.88292329699E+02  0.10842180313E+03  0.00000000000E+00 0.  1.
         13    1    4    4    0    0  0.26289426388E+02 -0.43988339327E+01  0.42604258341E+02  0.50255412729E+02  0.00000000000E+00 0. -1.
          1    1    1    2  501    0 -0.18692471486E+02 -0.17766636272E+02 -0.40661733770E+02  0.48150165606E+02  0.00000000000E+00 0. -1.
<scales pt_clust_5="13000.00000" pt_clust_6="13000.00000" pt_clust_7="13000.00000" pt_clust_8="13000.00000" pt_clust_9="25.78879"></scales>
<clustering>
<clus scale="   25.789">  2  9  1 -1</clus>
<clus scale="   83.858">  5  6 -1 -1</clus>
<clus scale="  113.323">  1  5  2 -1</clus>
<clus scale="  122.778">  7  8 -1 -1</clus>
<clus scale="   25.789">  2  5  1 -1</clus>
</clustering>
</event>
<event>
 9    2  0.4883225E-005  0.8943565E+02  0.7546771E-02  0.1306066E+00
         21   -1    0    0  501  502  0.00000000000E+00  0.00000000000E+00  0.25518717470E+03  0.25518717470E+03  0.00000000000E+00 0. -1.
          2   -1    0    0  502    0 -0.00000000000E+00 -0.00000000000E+00 -0.25234984985E+03  0.25234984985E+03  0.00000000000E+00 0. -1.
         24    2    1    2    0    0  0.52768935607E+01 -0.58489856892E+01 -0.21904945567E+03  0.23543141977E+03  0.85925742050E+02 0.  0.
         23    2    1    2    0    0 -0.29691444656E+02  0.13710363466E+02  0.69285039176E+02  0.11736335771E+03  0.88905484232E+02 0.  0.
        -11    1    3    3    0    0  0.50111005343E+01  0.30567892315E+02 -0.30766184256E+02  0.43658507336E+02  0.00000000000E+00 0.  1.
         12    1    3    3    0    0  0.26579302647E+00 -0.36416878004E+02 -0.18828327142E+03  0.19177291244E+03  0.00000000000E+00 0. -1.
        -11    1    4    4    0    0  0.19246344509E+02  0.35876327889E+02  0.34469734091E+02  0.53345058329E+02  0.00000000000E+00 0.  1.
         11    1    4    4    0    0 -0.48937789165E+02 -0.22165964422E+02  0.34815305085E+02  0.64018299378E+02  0.00000000000E+00 0. -1.
          1    1    1    2  501    0  0.24414551096E+02 -0.78613777772E+01  0.15260174135E+03  0.15474224707E+03  0.00000000000E+00 0. -1.
<scales pt_clust_5="13000.00000" pt_clust_6="13000.00000" pt_clust_7="13000.00000" pt_clust_8="13000.00000" pt_clust_9="25.64901"></scales>
<clustering>
<clus scale="   25.649">  1  9  2 -1</clus>
<clus scale="   85.926">  5  6 -1 -1</clus>
<clus scale="   86.474">  2  5  1 -1</clus>
<clus scale="   88.905">  7  8 -1 -1</clus>
<clus scale="   25.649">  1  5  2 -1</clus>
</clustering>
</event>
<event>
 9    2  0.4883225E-005  0.2432347E+03  0.7546771E-02  0.1117657E+00
          2   -1    0    0  502    0 -0.00000000000E+00  0.00000000000E+00  0.10769141302E+04  0.10769141302E+04  0.00000000000E+00 0. -1.
         21   -1    0    0  501  502  0.00000000000E+00 -0.00000000000E+00 -0.39431743510E+02  0.39431743510E+02  0.00000000000E+00 0.  1.
         24    2    1    2    0    0 -0.29248803726E+02 -0.72426310092E+02  0.29750401426E+03  0.31787672699E+03  0.80224136945E+02 0.  0.
         23    2    1    2    0    0 -0.65864491984E+02 -0.64239214313E+02  0.25816690205E+03  0.28869831823E+03  0.90729056410E+02 0.  0.
        -13    1    3    3    0    0 -0.59018656874E+01 -0.76786908146E+02  0.27339044356E+03  0.28403062495E+03  0.00000000000E+00 0.  1.
         14    1    3    3    0    0 -0.23346938038E+02  0.43605980536E+01  0.24113570694E+02  0.33846102032E+02  0.00000000000E+00 0. -1.
        -11    1    4    4    0    0  0.21921194508E+02 -0.10096329467E+02  0.31620239997E+02  0.39778313373E+02  0.00000000000E+00 0.  1.
         11    1    4    4    0    0 -0.87785686492E+02 -0.54142884846E+02  0.22654666205E+03  0.24892000486E+03  0.00000000000E+00 0. -1.
          1    1    1    2  501    0  0.95113295710E+02  0.13666552441E+03  0.48181147034E+03  0.50977082845E+03  0.00000000000E+00 0. -1.
<scales pt_clust_5="13000.00000" pt_clust_6="13000.00000" pt_clust_7="13000.00000" pt_clust_8="13000.00000" pt_clust_9="166.50535"></scales>
<clustering>
<clus scale="   80.224">  5  6 -1 -1</clus>
<clus scale="   90.729">  7  8 -1 -1</clus>
<clus scale="  100.454">  5  7 -1 -1</clus>
<clus scale="  166.505">  2  9  1 -1</clus>
<clus scale="  166.505">  2  5  1 -1</clus>
</clustering>
</event>
<event>
 9    2  0.4883225E-005  0.9788613E+02  0.7546771E-02  0.1290776E+00
          2   -1    0    0  502    0 -0.00000000000E+00  0.00000000000E+00  0.57112261782E+03  0.57112261782E+03  0.00000000000E+00 0. -1.
         21   -1    0    0  501  502  0.00000000000E+00 -0.00000000000E+00 -0.35583598123E+02  0.35583598123E+02  0.00000000000E+00 0. -1.
         24    2    1    2    0    0  0.27609386026E+01  0.31956389642E+02  0.13303712780E+03  0.15865598873E+03  0.80274602241E+02 0.  0.
         23    2    1    2    0    0 -0.64844047873E+02 -0.31246568984E+01  0.15552242994E+03  0.19176047732E+03  0.91489564566E+02 0.  0.
        -11    1    3    3    0    0 -0.36622095253E+02  0.25822108744E+02  0.86228568526E+02  0.97176772897E+02  0.00000000000E+00 0.  1.
         12    1    3    3    0    0  0.39383033856E+02  0.61342808982E+01  0.46808559278E+02  0.61479215834E+02  0.00000000000E+00 0. -1.
        -11    1    4    4    0    0  0.20959354462E+02  0.39890959301E+01  0.12232861415E+02  0.24593704971E+02  0.00000000000E+00 0.  1.
         11    1    4    4    0    0 -0.85803402335E+02 -0.71137528285E+01  0.14328956852E+03  0.16716677235E+03  0.00000000000E+00 0. -1.
          1    1    1    2  501    0  0.62083109270E+02 -0.28831732744E+02  0.24697946196E+03  0.25628974989E+03  0.00000000000E+00 0. -1.
<scales pt_clust_5="13000.00000" pt_clust_6="13000.00000" pt_clust_7="13000.00000" pt_clust_8="13000.00000" pt_clust_9="68.45134"></scales>
<clustering>
<clus scale="   68.451">  2  9  1 -1</clus>
<clus scale="   80.275">  5  6 -1 -1</clus>
<clus scale="   87.495">  1  5  2 -1</clus>
<clus scale="   91.490">  7  8 -1 -1</clus>
<clus scale="   68.451">  2  5  1 -1</clus>
</clustering>
</event>
<event>
 9    2  0.4883225E-005  0.9982563E+02  0.7546771E-02  0.1289160E+00
         21   -1    0    0  501  502  0.00000000000E+00  0.00000000000E+00  0.36401999312E+02  0.36401999312E+02  0.00000000000E+00 0.  1.
          2   -1    0    0  502    0 -0.00000000000E+00 -0.00000000000E+00 -0.10475453611E+04  0.10475453611E+04  0.00000000000E+00 0. -1.
         24    2    1    2    0    0  0.28679769232E+02 -0.41256922890E+01 -0.67473512858E+03  0.67998362003E+03  0.79187620734E+02 0.  0.
         23    2    1    2    0    0 -0.58272869205E+02 -0.32065612613E+02 -0.74168117258E+02  0.13758911597E+03  0.94899549088E+02 0.  0.
        -11    1    3    3    0    0 -0.14467225341E+01  0.29233188151E+02 -0.12358599939E+03  0.12700461228E+03  0.00000000000E+00 0.  1.
         12    1    3    3    0    0  0.30126491766E+02 -0.33358880440E+02 -0.55114912919E+03  0.55297900775E+03  0.00000000000E+00 0. -1.
        -13    1    4    4    0    0 -0.13340727574E+02 -0.30497345605E+02  0.15925042082E+02  0.36900813900E+02  0.00000000000E+00 0.  1.
         13    1    4    4    0    0 -0.44932141631E+02 -0.15682670076E+01 -0.90093159341E+02  0.10068830207E+03  0.00000000000E+00 0. -1.
          1    1    1    2  501    0  0.29593099972E+02  0.36191304902E+02 -0.26224011594E+03  0.26637462440E+03  0.00000000000E+00 0. -1.
<scales pt_clust_5="13000.00000" pt_clust_6="13000.00000" pt_clust_7="13000.00000" pt_clust_8="13000.00000" pt_clust_9="46.75002"></scales>
<clustering>
<clus scale="   46.750">  1  9  2 -1</clus>
<clus scale="   79.188">  5  6 -1 -1</clus>
<clus scale="   85.029">  2  5  1 -1</clus>
<clus scale="   94.900">  7  8 -1 -1</clus>
<clus scale="   46.750">  1  5  2 -1</clus>
</clustering>
</event>
<event>
 9    2  0.6236659E-005  0.3692371E+03  0.7546771E-02  0.1054985E+00
          2   -1    0    0  502    0 -0.00000000000E+00  0.00000000000E+00  0.13693850341E+04  0.13693850341E+04  0.00000000000E+00 0. -1.
         21   -1    0    0  501  502  0.00000000000E+00 -0.00000000000E+00 -0.11919984558E+03  0.11919984558E+03  0.00000000000E+00 0. -1.
         24    2    1    2    0    0  0.98647823945E+02 -0.65467833248E+02  0.54176628307E+03  0.56059924406E+03  0.82118065091E+02 0.  0.
         23    2    1    2    0    0  0.41841861544E+02 -0.19489698696E+03  0.55099860284E+03  0.59286126617E+03  0.90274269224E+02 0.  0.
        -11    1    3    3    0    0 -0.60365004628E+01 -0.34190734279E+02  0.12149994771E+03  0.12636329745E+03  0.00000000000E+00 0.  1.
         12    1    3    3    0    0  0.10468432441E+03 -0.31277098969E+02  0.42026633535E+03  0.43423594661E+03  0.00000000000E+00 0. -1.
        -13    1    4    4    0    0  0.56771127385E+01 -0.24313483570E+02  0.14807112962E+02  0.29028015547E+02  0.00000000000E+00 0. -1.
         13    1    4    4    0    0  0.36164748806E+02 -0.17058350339E+03  0.53619148988E+03  0.56383325062E+03  0.00000000000E+00 0.  1.
          1    1    1    2  501    0 -0.14048968549E+03  0.26036482021E+03  0.15742030262E+03  0.33512436947E+03  0.00000000000E+00 0. -1.
<scales pt_clust_5="13000.00000" pt_clust_6="13000.00000" pt_clust_7="13000.00000" pt_clust_8="13000.00000" pt_clust_9="295.84995"></scales>
<clustering>
<clus scale="   82.118">  5  6 -1 -1</clus>
<clus scale="   90.274">  7  8 -1 -1</clus>
<clus scale="  139.354">  5  7 -1 -1</clus>
<clus scale="  295.850">  2  9  1 -1</clus>
<clus scale="  295.850">  2  5  1 -1</clus>
</clustering>
</event>
<event>
 9    2  0.4883225E-005  0.1034237E+03  0.7546771E-02  0.1280011E+00
         21   -1    0    0  501  502  0.00000000000E+00  0.00000000000E+00  0.42368519513E+02  0.42368519513E+02  0.00000000000E+00 0. -1.
          2   -1    0    0  502    0 -0.00000000000E+00 -0.00000000000E+00 -0.59704804879E+03  0.59704804879E+03  0.00000000000E+00 0. -1.
         23    2    1    2    0    0 -0.23116472927E+02  0.47821263564E+02 -0.46331837208E+03  0.47519158071E+03  0.91224338303E+02 0.  0.
         24    2    1    2    0    0 -0.73568769641E+00 -0.40581908968E+02 -0.10466574383E+03  0.13596997306E+03  0.76716902114E+02 0.  0.
        -11    1    4    4    0    0  0.32083549460E+02 -0.30622036317E+02 -0.86384354073E+02  0.97104685174E+02  0.00000000000E+00 0.  1.
         12    1    4    4    0    0 -0.32819237156E+02 -0.99598726513E+01 -0.18281389753E+02  0.38865287881E+02  0.00000000000E+00 0. -1.
        -13    1    3    3    0    0  0.16847589161E+02  0.60373324484E+02 -0.24499577865E+03  0.25288675553E+03  0.00000000000E+00 0.  1.
         13    1    3    3    0    0 -0.39964062088E+02 -0.12552060920E+02 -0.21832259344E+03  0.22230482518E+03  0.00000000000E+00 0. -1.
          1    1    1    2  501    0  0.23852160624E+02 -0.72393545956E+01  0.13304586629E+02  0.28255014542E+02  0.00000000000E+00 0. -1.
<scales pt_clust_5="13000.00000" pt_clust_6="13000.00000" pt_clust_7="13000.00000" pt_clust_8="13000.00000" pt_clust_9="24.92657"></scales>
<clustering>
<clus scale="   24.927">  1  9  2 -1</clus>
<clus scale="   76.717">  5  6 -1 -1</clus>
<clus scale="   90.885">  1  5  2 -1</clus>
<clus scale="   91.224">  7  8 -1 -1</clus>
<clus scale="   24.927">  1  5  2 -1</clus>
</clustering>
</event>
<event>
 9    2  0.4883225E-005  0.1359074E+03  0.7546771E-02  0.1240359E+00
         21   -1    0    0  501  502  0.00000000000E+00  0.00000000000E+00  0.44230453489E+02  0.44230453489E+02  0.00000000000E+00 0. -1.
          2   -1    0    0  502    0 -0.00000000000E+00 -0.00000000000E+00 -0.72250894492E+03  0.72250894492E+03  0.00000000000E+00 0. -1.
         24    2    1    2    0    0 -0.57532752569E+01 -0.35217367524E+02 -0.20879014509E+03  0.22631131738E+03  0.79687668643E+02 0.  0.
         23    2    1    2    0    0  0.87783249105E+02 -0.29138510755E+02 -0.38470712148E+03  0.40604634206E+03  0.91209160491E+02 0.  0.
        -13    1    3    3    0    0  0.74242921466E+01 -0.53050686513E+02 -0.18948481943E+03  0.19691112779E+03  0.00000000000E+00 0.  1.
         14    1    3    3    0    0 -0.13177567403E+02  0.17833318989E+02 -0.19305325666E+02  0.29400189590E+02  0.00000000000E+00 0. -1.
        -13    1    4    4    0    0  0.44183109248E+02 -0.61395787259E+02 -0.22784355727E+03  0.24007139860E+03  0.00000000000E+00 0. -1.
         13    1    4    4    0    0  0.43600139857E+02  0.32257276504E+02 -0.15686356421E+03  0.16597494347E+03  0.00000000000E+00 0.  1.
          1    1    1    2  501    0 -0.82029973848E+02  0.64355878279E+02 -0.84781224866E+02  0.13438173897E+03  0.00000000000E+00 0. -1.
<scales pt_clust_5="13000.00000" pt_clust_6="13000.00000" pt_clust_7="13000.00000" pt_clust_8="13000.00000" pt_clust_9="100.75569"></scales>
<clustering>
<clus scale="   79.688">  5  6 -1 -1</clus>
<clus scale="   87.313">  2  5  1 -1</clus>
<clus scale="   91.209">  7  8 -1 -1</clus>
<clus scale="  100.756">  1  9  2 -1</clus>
<clus scale="  100.756">  1  5  2 -1</clus>
</clustering>
</event>
<event>
 9    2  0.4883225E-005  0.1025447E+03  0.7546771E-02  0.1278209E+00
          2   -1    0    0  502    0 -0.00000000000E+00  0.00000000000E+00  0.66415272745E+03  0.66415272745E+03  0.00000000000E+00 0. -1.
         21   -1    0    0  501  502  0.00000000000E+00 -0.00000000000E+00 -0.53219015694E+02  0.53219015694E+02  0.00000000000E+00 0. -1.
         24    2    1    2    0    0 -0.43229380191E+02  0.20103352111E+02  0.35603285458E+03  0.36822688693E+03  0.80985940998E+02 0.  0.
         23    2    1    2    0    0  0.68500402272E+02  0.19878347325E+02  0.27523294530E+03  0.29766131852E+03  0.88100128033E+02 0.  0.
        -13    1    3    3    0    0 -0.53815665218E+02  0.42822301860E+02  0.25184872702E+03  0.26107021404E+03  0.00000000000E+00 0.  1.
         14    1    3    3    0    0  0.10586285027E+02 -0.22718949749E+02  0.10418412756E+03  0.10715667289E+03  0.00000000000E+00 0. -1.
        -11    1    4    4    0    0  0.10479773298E+01  0.38749610740E+02  0.61053725142E+02  0.72320038321E+02  0.00000000000E+00 0.  1.
         11    1    4    4    0    0  0.67452424942E+02 -0.18871263415E+02  0.21417922016E+03  0.22534128020E+03  0.00000000000E+00 0. -1.
          1    1    1    2  501    0 -0.25271022081E+02 -0.39981699436E+02 -0.20332088121E+02  0.51483537701E+02  0.00000000000E+00 0. -1.
<scales pt_clust_5="13000.00000" pt_clust_6="13000.00000" pt_clust_7="13000.00000" pt_clust_8="13000.00000" pt_clust_9="47.29863"></scales>
<clustering>
<clus scale="   47.299">  2  9  1 -1</clus>
<clus scale="   80.986">  5  6 -1 -1</clus>
<clus scale="   88.100">  7  8 -1 -1</clus>
<clus scale="   96.501">  1  5  2 -1</clus>
<clus scale="   47.299">  2  5  1 -1</clus>
</clustering>
</event>
<event>
 9    2  0.4883225E-005  0.2391164E+03  0.7546771E-02  0.1121070E+00
         21   -1    0    0  501  502  0.00000000000E+00  0.00000000000E+00  0.72487259874E+02  0.72487259874E+02  0.00000000000E+00 0. -1.
          2   -1    0    0  502    0 -0.00000000000E+00 -0.00000000000E+00 -0.10849346654E+04  0.10849346654E+04  0.00000000000E+00 0. -1.
         24    2    1    2    0    0 -0.21202894579E+03 -0.10578218841E+03 -0.63090734938E+03  0.67866395246E+03  0.79965815384E+02 0.  0.
         23    2    1    2    0    0  0.14965935947E+03  0.13042665717E+03 -0.25704851155E+03  0.33735266947E+03  0.91235133200E+02 0.  0.
        -13    1    3    3    0    0 -0.36758924405E+02  0.11633377219E+02 -0.11492029476E+03  0.12121562662E+03  0.00000000000E+00 0.  1.
         14    1    3    3    0    0 -0.17527002138E+03 -0.11741556563E+03 -0.51598705462E+03  0.55744832584E+03  0.00000000000E+00 0. -1.
        -11    1    4    4    0    0  0.65352169955E+02  0.63376097753E+02 -0.49762721207E+02  0.10374856291E+03  0.00000000000E+00 0.  1.
         11    1    4    4    0    0  0.84307189518E+02  0.67050559415E+02 -0.20728579035E+03  0.23360410656E+03  0.00000000000E+00 0. -1.
          1    1    1    2  501    0  0.62369586314E+02 -0.24644468761E+02 -0.12449154456E+03  0.14140530331E+03  0.00000000000E+00 0. -1.
<scales pt_clust_5="13000.00000" pt_clust_6="13000.00000" pt_clust_7="13000.00000" pt_clust_8="13000.00000" pt_clust_9="67.06206"></scales>
<clustering>
<clus scale="   67.062">  1  9  2 -1</clus>
<clus scale="   79.966">  5  6 -1 -1</clus>
<clus scale="   91.235">  7  8 -1 -1</clus>
<clus scale="  235.048">  2  5  1 -1</clus>
<clus scale="   67.062">  1  5  2 -1</clus>
</clustering>
</event>
<event>
 9    2  0.4883225E-005  0.9170689E+02  0.7546771E-02  0.1311592E+00
         -1   -1    0    0    0  501 -0.00000000000E+00  0.00000000000E+00  0.28435444005E+03  0.28435444005E+03  0.00000000000E+00 0.  1.
         21   -1    0    0  501  502  0.00000000000E+00 -0.00000000000E+00 -0.46315183225E+02  0.46315183225E+02  0.00000000000E+00 0.  1.
         23    2    1    2    0    0  0.11085471965E+02  0.11698487420E+02  0.14869355417E+03  0.17447538927E+03  0.89845122922E+02 0.  0.
         24    2    1    2    0    0  0.24188219296E+01 -0.29794374805E+02  0.14012160781E+02  0.77549656155E+02  0.70171597178E+02 0.  0.
        -13    1    4    4    0    0  0.34083639421E+02 -0.28442527020E+02  0.54915784099E+01  0.44730629918E+02  0.00000000000E+00 0.  1.
         14    1    4    4    0    0 -0.31664817491E+02 -0.13518477846E+01  0.85205823713E+01  0.32819026237E+02  0.00000000000E+00 0. -1.
        -11    1    3    3    0    0  0.13956650061E+02  0.48765716832E+02  0.61720884243E+02  0.79889616164E+02  0.00000000000E+00 0.  1.
         11    1    3    3    0    0 -0.28711780965E+01 -0.37067229412E+02  0.86972669926E+02  0.94585773106E+02  0.00000000000E+00 0. -1.
         -2    1    1    2    0  502 -0.13504293894E+02  0.18095887385E+02  0.75333541877E+02  0.78644577853E+02  0.00000000000E+00 0.  1.
<scales pt_clust_5="13000.00000" pt_clust_6="13000.00000" pt_clust_7="13000.00000" pt_clust_8="13000.00000" pt_clust_9="22.57936"></scales>
<clustering>
<clus scale="   22.579">  2  9  1 -1</clus>
<clus scale="   70.172">  5  6 -1 -1</clus>
<clus scale="   72.540">  2  5  1 -1</clus>
<clus scale="   89.845">  7  8 -1 -1</clus>
<clus scale="   22.579">  2  5  1 -1</clus>
</clustering>
</event>
<event>
 9    2  0.4883225E-005  0.9645472E+02  0.7546771E-02  0.1293950E+00
         -1   -1    0    0    0  501 -0.00000000000E+00  0.00000000000E+00  0.17919269789E+03  0.17919269789E+03  0.00000000000E+00 0.  1.
         21   -1    0    0  501  502  0.00000000000E+00 -0.00000000000E+00 -0.16274165660E+03  0.16274165660E+03  0.00000000000E+00 0. -1.
         24    2    1    2    0    0  0.24149272185E+01 -0.26173138455E+02  0.13662557473E+03  0.16124023263E+03  0.81492330299E+02 0.  0.
         23    2    1    2    0    0 -0.20834007779E+02  0.39229111404E+02 -0.65573415651E+02  0.12160941130E+03  0.92282159784E+02 0.  0.
        -13    1    3    3    0    0  0.39299024890E+02 -0.27528582759E+02  0.66613675515E+02  0.82095176421E+02  0.00000000000E+00 0.  1.
         14    1    3    3    0    0 -0.36884097671E+02  0.13554443039E+01  0.70011899216E+02  0.79145056208E+02  0.00000000000E+00 0. -1.
        -13    1    4    4    0    0 -0.42011079889E+02  0.33736323381E+02 -0.79233200872E+02  0.95817380830E+02  0.00000000000E+00 0. -1.
         13    1    4    4    0    0  0.21177072109E+02  0.54927880233E+01  0.13659785220E+02  0.25792030468E+02  0.00000000000E+00 0.  1.
         -2    1    1    2    0  502  0.18419080561E+02 -0.13055972949E+02 -0.54601117790E+02  0.59084710563E+02  0.00000000000E+00 0.  1.
<scales pt_clust_5="13000.00000" pt_clust_6="13000.00000" pt_clust_7="13000.00000" pt_clust_8="13000.00000" pt_clust_9="22.57700"></scales>
<clustering>
<clus scale="   22.577">  2  9  1 -1</clus>
<clus scale="   81.492">  5  6 -1 -1</clus>
<clus scale="   86.189">  1  5  2 -1</clus>
<clus scale="   92.282">  7  8 -1 -1</clus>
<clus scale="   22.577">  2  5  1 -1</clus>
</clustering>
</event>
<event>
 9    2  0.4883225E-005  0.3965944E+03  0.7546771E-02  0.1045299E+00
          4   -1    0    0  502    0 -0.00000000000E+00  0.00000000000E+00  0.23328160934E+04  0.23328160934E+04  0.00000000000E+00 0. -1.
         21   -1    0    0  501  502  0.00000000000E+00 -0.00000000000E+00 -0.84214377975E+02  0.84214377975E+02  0.00000000000E+00 0. -1.
         23    2    1    2    0    0 -0.34606243477E+03 -0.19312731410E+03  0.15751226624E+04  0.16271128747E+04  0.97095505335E+02 0.  0.
         24    2    1    2    0    0  0.31993941163E+03  0.16458162540E+03  0.56379292804E+03  0.67360631308E+03  0.80216337341E+02 0.  0.
        -11    1    4    4    0    0  0.46677637388E+02  0.34432027223E+02  0.15085132098E+03  0.16161833860E+03  0.00000000000E+00 0.  1.
         12    1    4    4    0    0  0.27326177424E+03  0.13014959818E+03  0.41294160706E+03  0.51198797448E+03  0.00000000000E+00 0. -1.
        -11    1    3    3    0    0 -0.25686227679E+03 -0.18381646242E+03  0.11468860128E+04  0.11895857462E+04  0.00000000000E+00 0. -1.
         11    1    3    3    0    0 -0.89200157977E+02 -0.93108516794E+01  0.42823664960E+03  0.43752712853E+03  0.00000000000E+00 0.  1.
          3    1    1    2  501    0  0.26123023138E+02  0.28545688702E+02  0.10968612498E+03  0.11631128360E+03  0.00000000000E+00 0. -1.
<scales pt_clust_5="13000.00000" pt_clust_6="13000.00000" pt_clust_7="13000.00000" pt_clust_8="13000.00000" pt_clust_9="38.69458"></scales>
<clustering>
<clus scale="   38.695">  2  9  1 -1</clus>
<clus scale="   80.216">  5  6 -1 -1</clus>
<clus scale="   97.096">  7  8 -1 -1</clus>
<clus scale="  392.803">  2  5  1 -1</clus>
<clus scale="   38.695">  2  5  1 -1</clus>
</clustering>
</event>
<event>
 9    2  0.4883225E-005  0.1060079E+03  0.7546771E-02  0.1273492E+00
         21   -1    0    0  501  502  0.00000000000E+00  0.00000000000E+00  0.27622370790E+02  0.27622370790E+02  0.00000000000E+00 0.  1.
          2   -1    0    0  502    0 -0.00000000000E+00 -0.00000000000E+00 -0.63792101590E+03  0.63792101590E+03  0.00000000000E+00 0. -1.
         24    2    1    2    0    0  0.39774395624E+02  0.12374150651E+02 -0.30624625638E+03  0.31895656455E+03  0.78812425224E+02 0.  0.
         23    2    1    2    0    0 -0.79513792498E+02 -0.26044693154E+02 -0.23927195178E+03  0.26936889412E+03  0.91146941657E+02 0.  0.
        -13    1    3    3    0    0 -0.22644017756E+02  0.14077003442E+02 -0.95993425180E+02  0.99627562671E+02  0.00000000000E+00 0.  1.
         14    1    3    3    0    0  0.62418413380E+02 -0.17028527903E+01 -0.21025283120E+03  0.21932900188E+03  0.00000000000E+00 0. -1.
        -13    1    4    4    0    0 -0.96094333928E+02 -0.90170901207E+01 -0.16249451161E+03  0.18899707730E+03  0.00000000000E+00 0.  1.
         13    1    4    4    0    0  0.16580541430E+02 -0.17027603033E+02 -0.76777440171E+02  0.80371816817E+02  0.00000000000E+00 0. -1.
          1    1    1    2  501    0  0.39739396874E+02  0.13670542503E+02 -0.64780436951E+02  0.77217928021E+02  0.00000000000E+00 0. -1.
<scales pt_clust_5="13000.00000" pt_clust_6="13000.00000" pt_clust_7="13000.00000" pt_clust_8="13000.00000" pt_clust_9="42.02503"></scales>
<clustering>
<clus scale="   42.025">  1  9  2 -1</clus>
<clus scale="   78.812">  5  6 -1 -1</clus>
<clus scale="   91.147">  7  8 -1 -1</clus>
<clus scale="   95.610">  2  5  1 -1</clus>
<clus scale="   42.025">  1  5  2 -1</clus>
</clustering>
</event>
<event>
 9    2  0.4883225E-005  0.1513675E+03  0.7546771E-02  0.1222703E+00
         21   -1    0    0  501  502  0.00000000000E+00  0.00000000000E+00  0.10644630335E+03  0.10644630335E+03  0.00000000000E+00 0.  1.
          2   -1    0    0  502    0 -0.00000000000E+00 -0.00000000000E+00 -0.89439510576E+03  0.89439510576E+03  0.00000000000E+00 0. -1.
         23    2    1    2    0    0  0.60290483549E+01  0.50795135128E+01 -0.12764291992E+02  0.91808330663E+02  0.90574232249E+02 0.  0.
         24    2    1    2    0    0 -0.24077667653E+02  0.12592699466E+03 -0.32233877558E+02  0.15440462635E+03  0.79777338345E+02 0.  0.
        -13    1    4    4    0    0 -0.10585011729E+02  0.74717665328E+02  0.21998659146E+02  0.78604789865E+02  0.00000000000E+00 0.  1.
         14    1    4    4    0    0 -0.13492655924E+02  0.51209329333E+02 -0.54232536704E+02  0.75799836490E+02  0.00000000000E+00 0. -1.
        -11    1    3    3    0    0  0.38127721549E+02  0.25293238823E+02 -0.24759222311E+02  0.52023938433E+02  0.00000000000E+00 0. -1.
         11    1    3    3    0    0 -0.32098673194E+02 -0.20213725310E+02  0.11994930319E+02  0.39784392230E+02  0.00000000000E+00 0.  1.
          1    1    1    2  501    0  0.18048619298E+02 -0.13100650817E+03 -0.74295063286E+03  0.75462845209E+03  0.00000000000E+00 0. -1.
<scales pt_clust_5="13000.00000" pt_clust_6="13000.00000" pt_clust_7="13000.00000" pt_clust_8="13000.00000" pt_clust_9="128.63792"></scales>
<clustering>
<clus scale="   79.777">  5  6 -1 -1</clus>
<clus scale="   90.574">  7  8 -1 -1</clus>
<clus scale="   90.917">  2  7  1 -1</clus>
<clus scale="  128.638">  1  9  2 -1</clus>
<clus scale="  128.638">  1  5  2 -1</clus>
</clustering>
</event>
<event>
 9    2  0.5001104E-005  0.1798621E+03  0.7546771E-02  0.1201943E+00
         21   -1    0    0  501  502  0.00000000000E+00  0.00000000000E+00  0.62150531105E+02  0.62150531105E+02  0.00000000000E+00 0.  1.
          2   -1    0    0  502    0 -0.00000000000E+00 -0.00000000000E+00 -0.10504228722E+04  0.10504228722E+04  0.00000000000E+00 0. -1.
         24    2    1    2    0    0  0.22500138838E+02  0.33778247654E+01 -0.12588583296E+03  0.15149165444E+03  0.81146857456E+02 0.  0.
         23    2    1    2    0    0 -0.42525014613E+02 -0.15304551632E+03 -0.15801046827E+03  0.24070197467E+03  0.87970595051E+02 0.  0.
        -11    1    3    3    0    0  0.34522549848E+02 -0.31499238874E+02 -0.60898952324E+02  0.76763864493E+02  0.00000000000E+00 0.  1.
         12    1    3    3    0    0 -0.12022411010E+02  0.34877063639E+02 -0.64986880639E+02  0.74727789943E+02  0.00000000000E+00 0. -1.
        -13    1    4    4    0    0 -0.60420623079E+02 -0.10184523742E+03 -0.70706604416E+02  0.13792218091E+03  0.00000000000E+00 0.  1.
         13    1    4    4    0    0  0.17895608466E+02 -0.51200278902E+02 -0.87303863858E+02  0.10277979377E+03  0.00000000000E+00 0. -1.
          1    1    1    2  501    0  0.20024875775E+02  0.14966769156E+03 -0.70437603989E+03  0.72037977423E+03  0.00000000000E+00 0. -1.
<scales pt_clust_5="13000.00000" pt_clust_6="13000.00000" pt_clust_7="13000.00000" pt_clust_8="13000.00000" pt_clust_9="156.88078"></scales>
<clustering>
<clus scale="   81.147">  5  6 -1 -1</clus>
<clus scale="   84.276">  2  5  1 -1</clus>
<clus scale="   87.971">  7  8 -1 -1</clus>
<clus scale="  156.881">  1  9  2 -1</clus>
<clus scale="  156.881">  1  5  2 -1</clus>
</clustering>
</event>
<event>
 9    2  0.4883225E-005  0.9377864E+02  0.7546771E-02  0.1296845E+00
         21   -1    0    0  501  502  0.00000000000E+00  0.00000000000E+00  0.19732833366E+03  0.19732833366E+03  0.00000000000E+00 0.  1.
         -1   -1    0    0    0  501 -0.00000000000E+00 -0.00000000000E+00 -0.13268535420E+03  0.13268535420E+03  0.00000000000E+00 0.  1.
         23    2    1    2    0    0 -0.32919231093E+02  0.22902070194E+02 -0.41203155992E+02  0.94579334737E+02  0.75095738233E+02 0.  0.
         24    2    1    2    0    0  0.99316636901E+02  0.14450463797E+02  0.91141962285E+02  0.15784543637E+03  0.80843764297E+02 0.  0.
        -11    1    4    4    0    0  0.10993255951E+03  0.21782975856E+01  0.89036240796E+02  0.14148273674E+03  0.00000000000E+00 0.  1.
         12    1    4    4    0    0 -0.10615922607E+02  0.12272166212E+02  0.21057214895E+01  0.16362699634E+02  0.00000000000E+00 0. -1.
        -11    1    3    3    0    0  0.21777128354E+02 -0.19955659798E+01 -0.27581234458E+00  0.21870109176E+02  0.00000000000E+00 0.  1.
         11    1    3    3    0    0 -0.54696359446E+02  0.24897636173E+02 -0.40927343648E+02  0.72709225562E+02  0.00000000000E+00 0. -1.
         -2    1    1    2    0  502 -0.66397405808E+02 -0.37352533991E+02  0.14704173164E+02  0.77588916748E+02  0.00000000000E+00 0.  1.
<scales pt_clust_5="13000.00000" pt_clust_6="13000.00000" pt_clust_7="13000.00000" pt_clust_8="13000.00000" pt_clust_9="76.18289"></scales>
<clustering>
<clus scale="   75.096">  7  8 -1 -1</clus>
<clus scale="   76.183">  1  9  2 -1</clus>
<clus scale="   80.844">  5  6 -1 -1</clus>
<clus scale="   88.871">  2  7  1 -1</clus>
<clus scale="   76.183">  1  5  2 -1</clus>
</clustering>
</event>
<event>
 9    2  0.4883225E-005  0.1040666E+03  0.7546771E-02  0.1276120E+00
         21   -1    0    0  501  502  0.00000000000E+00  0.00000000000E+00  0.49296051508E+02  0.49296051508E+02  0.00000000000E+00 0.  1.
          4   -1    0    0  502    0 -0.00000000000E+00 -0.00000000000E+00 -0.43393351710E+03  0.43393351710E+03  0.00000000000E+00 0. -1.
         24    2    1    2    0    0  0.26589123156E+02  0.38321301864E+02 -0.18632890702E+03  0.20844941973E+03  0.80976511084E+02 0.  0.
         23    2    1    2    0    0  0.26240839160E+02 -0.74087067155E+02 -0.16180715215E+03  0.20127812472E+03  0.90298692366E+02 0.  0.
        -13    1    3    3    0    0  0.55438049915E+02  0.24280714275E+02 -0.10795855071E+03  0.12376582378E+03  0.00000000000E+00 0.  1.
         14    1    3    3    0    0 -0.28848926759E+02  0.14040587589E+02 -0.78370356313E+02  0.84683595953E+02  0.00000000000E+00 0. -1.
        -13    1    4    4    0    0 -0.16463453784E+01 -0.47955647786E+02 -0.16054564920E+02  0.50598455139E+02  0.00000000000E+00 0.  1.
         13    1    4    4    0    0  0.27887184538E+02 -0.26131419369E+02 -0.14575258723E+03  0.15067966958E+03  0.00000000000E+00 0. -1.
          3    1    1    2  501    0 -0.52829962316E+02  0.35765765291E+02 -0.36501406420E+02  0.73502024161E+02  0.00000000000E+00 0. -1.
<scales pt_clust_5="13000.00000" pt_clust_6="13000.00000" pt_clust_7="13000.00000" pt_clust_8="13000.00000" pt_clust_9="63.79808"></scales>
<clustering>
<clus scale="   63.798">  1  9  2 -1</clus>
<clus scale="   80.977">  5  6 -1 -1</clus>
<clus scale="   90.299">  7  8 -1 -1</clus>
<clus scale="   96.090">  2  5  1 -1</clus>
<clus scale="   63.798">  1  5  2 -1</clus>
</clustering>
</event>
<event>
 9    2  0.4883225E-005  0.1051899E+03  0.7546771E-02  0.1275046E+00
         -1   -1    0    0    0  501 -0.00000000000E+00  0.00000000000E+00  0.38116227915E+02  0.38116227915E+02  0.00000000000E+00 0.  1.
         21   -1    0    0  501  502  0.00000000000E+00 -0.00000000000E+00 -0.39019205986E+03  0.39019205986E+03  0.00000000000E+00 0. -1.
         23    2    1    2    0    0  0.47721576512E+02  0.13567488979E+02 -0.81766163198E+02  0.13290782852E+03  0.92289543372E+02 0.  0.
         24    2    1    2    0    0 -0.43325241972E+02 -0.33461991011E+02 -0.20384365759E+03  0.22588175956E+03  0.80458381333E+02 0.  0.
        -11    1    4    4    0    0 -0.21502898168E+02  0.15145176687E+02 -0.16360198981E+02  0.30974297687E+02  0.00000000000E+00 0.  1.
         12    1    4    4    0    0 -0.21822343804E+02 -0.48607167698E+02 -0.18748345861E+03  0.19490746187E+03  0.00000000000E+00 0. -1.
        -13    1    3    3    0    0  0.24231571881E+02  0.53313470565E+02 -0.43690794409E+02  0.73064223363E+02  0.00000000000E+00 0. -1.
         13    1    3    3    0    0  0.23490004631E+02 -0.39745981586E+02 -0.38075368789E+02  0.59843605157E+02  0.00000000000E+00 0.  1.
         -2    1    1    2    0  502 -0.43963345405E+01  0.19894502031E+02 -0.66466011158E+02  0.69518699698E+02  0.00000000000E+00 0.  1.
<scales pt_clust_5="13000.00000" pt_clust_6="13000.00000" pt_clust_7="13000.00000" pt_clust_8="13000.00000" pt_clust_9="20.37447"></scales>
<clustering>
<clus scale="   20.374">  2  9  1 -1</clus>
<clus scale="   80.458">  5  6 -1 -1</clus>
<clus scale="   92.290">  7  8 -1 -1</clus>
<clus scale="   94.979">  2  5  1 -1</clus>
<clus scale="   20.374">  2  5  1 -1</clus>
</clustering>
</event>
<event>
 9    2  0.4883225E-005  0.1027154E+03  0.7546771E-02  0.1280286E+00
         21   -1    0    0  501  502  0.00000000000E+00  0.00000000000E+00  0.12791878736E+03  0.12791878736E+03  0.00000000000E+00 0. -1.
         -1   -1    0    0    0  501 -0.00000000000E+00 -0.00000000000E+00 -0.37284303143E+03  0.37284303143E+03  0.00000000000E+00 0.  1.
         24    2    1    2    0    0  0.34530731311E+01 -0.47273768787E+02 -0.28873339631E+03  0.30286958804E+03  0.78206651161E+02 0.  0.
         23    2    1    2    0    0 -0.26872440044E+02  0.55462356595E+02 -0.35398796117E+02  0.11488970790E+03  0.90268317707E+02 0.  0.
        -11    1    3    3    0    0  0.14385691982E+02 -0.48681510729E+02 -0.28730442592E+03  0.29175447002E+03  0.00000000000E+00 0.  1.
         12    1    3    3    0    0 -0.10932618851E+02  0.14077419411E+01 -0.14289703887E+01  0.11115118024E+02  0.00000000000E+00 0. -1.
        -11    1    4    4    0    0  0.70759977817E+01 -0.20735171946E+02 -0.20787776304E+02  0.30201800342E+02  0.00000000000E+00 0.  1.
         11    1    4    4    0    0 -0.33948437826E+02  0.76197528540E+02 -0.14611019813E+02  0.84687907557E+02  0.00000000000E+00 0. -1.
         -2    1    1    2    0  502  0.23419366913E+02 -0.81885878071E+01  0.79207948352E+02  0.83002522847E+02  0.00000000000E+00 0.  1.
<scales pt_clust_5="13000.00000" pt_clust_6="13000.00000" pt_clust_7="13000.00000" pt_clust_8="13000.00000" pt_clust_9="24.80967"></scales>
<clustering>
<clus scale="   24.810">  1  9  2 -1</clus>
<clus scale="   78.207">  5  6 -1 -1</clus>
<clus scale="   90.268">  7  8 -1 -1</clus>
<clus scale="   92.295">  2  5  1 -1</clus>
<clus scale="   24.810">  1  5  2 -1</clus>
</clustering>
</event>
<event>
 9    2  0.4883225E-005  0.1418513E+03  0.7546771E-02  0.1226624E+00
          4   -1    0    0  502    0 -0.00000000000E+00  0.00000000000E+00  0.40472779104E+02  0.40472779104E+02  0.00000000000E+00 0. -1.
         21   -1    0    0  501  502  0.00000000000E+00 -0.00000000000E+00 -0.11086207172E+04  0.11086207172E+04  0.00000000000E+00 0. -1.
         24    2    1    2    0    0 -0.35985143171E+02  0.50155536633E+02 -0.13497529451E+03  0.16906350033E+03  0.80954484952E+02 0.  0.
         23    2    1    2    0    0  0.23366417906E+02  0.67726554040E+02 -0.15970882162E+03  0.19753290114E+03  0.91539410750E+02 0.  0.
        -13    1    3    3    0    0 -0.39554741379E+02  0.40718234767E+02 -0.14446127357E+03  0.15521472794E+03  0.00000000000E+00 0.  1.
         14    1    3    3    0    0  0.35695982084E+01  0.94373018660E+01  0.94859790662E+01  0.13848772390E+02  0.00000000000E+00 0. -1.
        -11    1    4    4    0    0  0.35390886453E+01 -0.21387746855E+02 -0.14746501152E+02  0.26218698675E+02  0.00000000000E+00 0.  1.
         11    1    4    4    0    0  0.19827329261E+02  0.89114300895E+02 -0.14496232047E+03  0.17131420246E+03  0.00000000000E+00 0. -1.
          3    1    1    2  501    0  0.12618725265E+02 -0.11788209067E+03 -0.77346382196E+03  0.78249709482E+03  0.00000000000E+00 0. -1.
<scales pt_clust_5="13000.00000" pt_clust_6="13000.00000" pt_clust_7="13000.00000" pt_clust_8="13000.00000" pt_clust_9="108.36203"></scales>
<clustering>
<clus scale="   80.954">  5  6 -1 -1</clus>
<clus scale="   91.539">  7  8 -1 -1</clus>
<clus scale="  101.804">  1  5  2 -1</clus>
<clus scale="  108.362">  2  9  1 -1</clus>
<clus scale="  108.362">  2  5  1 -1</clus>
</clustering>
</event>
<event>
 9    2  0.4883225E-005  0.2679003E+03  0.7546771E-02  0.1150110E+00
         21   -1    0    0  501  502  0.00000000000E+00  0.00000000000E+00  0.33219692333E+03  0.33219692333E+03  0.00000000000E+00 0. -1.
          2   -1    0    0  502    0 -0.00000000000E+00 -0.00000000000E+00 -0.28743394435E+03  0.28743394435E+03  0.00000000000E+00 0. -1.
         24    2    1    2    0    0  0.12648826884E+02 -0.14461533907E+02  0.24045564759E+02  0.85918748514E+02  0.80216665208E+02 0.  0.
         23    2    1    2    0    0  0.71774936386E+02  0.24825371998E+03 -0.42848667435E+02  0.27714476971E+03  0.90507812375E+02 0.  0.
        -13    1    3    3    0    0 -0.24159736361E+02  0.14627108435E+02  0.26784687568E+02  0.38923831393E+02  0.00000000000E+00 0.  1.
         14    1    3    3    0    0  0.36808563245E+02 -0.29088642342E+02 -0.27391228090E+01  0.46994917121E+02  0.00000000000E+00 0. -1.
        -13    1    4    4    0    0  0.58648222881E+01  0.60121852441E+02  0.26662579615E+02  0.66029739005E+02  0.00000000000E+00 0.  1.
         13    1    4    4    0    0  0.65910114098E+02  0.18813186754E+03 -0.69511247049E+02  0.21111503070E+03  0.00000000000E+00 0. -1.
          1    1    1    2  501    0 -0.84423763270E+02 -0.23379218607E+03  0.63566081657E+02  0.25656734946E+03  0.00000000000E+00 0. -1.
<scales pt_clust_5="13000.00000" pt_clust_6="13000.00000" pt_clust_7="13000.00000" pt_clust_8="13000.00000" pt_clust_9="252.14861"></scales>
<clustering>
<clus scale="   80.217">  5  6 -1 -1</clus>
<clus scale="   82.485">  2  5  1 -1</clus>
<clus scale="   90.508">  7  8 -1 -1</clus>
<clus scale="  252.149">  1  9  2 -1</clus>
<clus scale="  252.149">  1  5  2 -1</clus>
</clustering>
</event>
<event>
 9    2  0.4883225E-005  0.1136164E+03  0.7546771E-02  0.1256351E+00
          2   -1    0    0  502    0 -0.00000000000E+00  0.00000000000E+00  0.24880967071E+03  0.24880967071E+03  0.00000000000E+00 0. -1.
         21   -1    0    0  501  502  0.00000000000E+00 -0.00000000000E+00 -0.11164438148E+03  0.11164438148E+03  0.00000000000E+00 0. -1.
         24    2    1    2    0    0 -0.71611403056E+02  0.28442064755E+02  0.15968667699E+03  0.19429735697E+03  0.79463727713E+02 0.  0.
         23    2    1    2    0    0  0.69287057457E+02  0.65206229109E+00  0.22046822568E+02  0.11288197155E+03  0.86343242924E+02 0.  0.
        -11    1    3    3    0    0 -0.17400867747E+02  0.27642361049E+02  0.85984229788E+01  0.33776074379E+02  0.00000000000E+00 0.  1.
         12    1    3    3    0    0 -0.54210535309E+02  0.79970370599E+00  0.15108825401E+03  0.16052128259E+03  0.00000000000E+00 0. -1.
        -11    1    4    4    0    0  0.89360020996E+02 -0.15468520123E+01  0.24152537504E+02  0.92579431687E+02  0.00000000000E+00 0.  1.
         11    1    4    4    0    0 -0.20072963539E+02  0.21989143034E+01 -0.21057149363E+01  0.20302539860E+02  0.00000000000E+00 0. -1.
          1    1    1    2  501    0  0.23243455992E+01 -0.29094127046E+02 -0.44568210328E+02  0.53274723677E+02  0.00000000000E+00 0. -1.
<scales pt_clust_5="13000.00000" pt_clust_6="13000.00000" pt_clust_7="13000.00000" pt_clust_8="13000.00000" pt_clust_9="29.18683"></scales>
<clustering>
<clus scale="   29.187">  2  9  1 -1</clus>
<clus scale="   79.464">  5  6 -1 -1</clus>
<clus scale="   86.343">  7  8 -1 -1</clus>
<clus scale="  108.480">  1  5  2 -1</clus>
<clus scale="   29.187">  2  5  1 -1</clus>
</clustering>
</event>
<event>
 9    2  0.4883225E-005  0.3022567E+03  0.7546771E-02  0.1084528E+00
         21   -1    0    0  501  502  0.00000000000E+00  0.00000000000E+00  0.35830221517E+03  0.35830221517E+03  0.00000000000E+00 0. -1.
          2   -1    0    0  502    0 -0.00000000000E+00 -0.00000000000E+00 -0.88866921891E+03  0.88866921891E+03  0.00000000000E+00 0. -1.
         24    2    1    2    0    0 -0.96248044309E+02  0.28546628499E+03 -0.76348304732E+03  0.82465937750E+03  0.80012745521E+02 0.  0.
         23    2    1    2    0    0  0.13110252555E+02 -0.21444554851E+03  0.11156402254E+03  0.25881670116E+03  0.91546609307E+02 0.  0.
        -11    1    3    3    0    0 -0.73534994666E+02  0.96352683751E+02 -0.29240141726E+03  0.31652776169E+03  0.00000000000E+00 0.  1.
         12    1    3    3    0    0 -0.22713049643E+02  0.18911360124E+03 -0.47108163007E+03  0.50813161581E+03  0.00000000000E+00 0. -1.
        -11    1    4    4    0    0  0.16009727526E+02 -0.58516807428E+02 -0.94737605563E+01  0.61402607975E+02  0.00000000000E+00 0.  1.
         11    1    4    4    0    0 -0.28994749713E+01 -0.15592874108E+03  0.12103778310E+03  0.19741409318E+03  0.00000000000E+00 0. -1.
          1    1    1    2  501    0  0.83137791754E+02 -0.71020736481E+02  0.12155202104E+03  0.16349535543E+03  0.00000000000E+00 0. -1.
<scales pt_clust_5="13000.00000" pt_clust_6="13000.00000" pt_clust_7="13000.00000" pt_clust_8="13000.00000" pt_clust_9="109.34275"></scales>
<clustering>
<clus scale="   80.013">  5  6 -1 -1</clus>
<clus scale="   91.547">  7  8 -1 -1</clus>
<clus scale="  109.343">  1  9  2 -1</clus>
<clus scale="  298.965">  2  5  1 -1</clus>
<clus scale="  109.343">  1  5  2 -1</clus>
</clustering>
</event>
<event>
 9    2  0.4883225E-005  0.1234842E+03  0.7546771E-02  0.1239678E+00
         21   -1    0    0  501  502  0.00000000000E+00  0.00000000000E+00  0.18591872623E+02  0.18591872623E+02  0.00000000000E+00 0.  1.
          2   -1    0    0  502    0 -0.00000000000E+00 -0.00000000000E+00 -0.12682566138E+04  0.12682566138E+04  0.00000000000E+00 0. -1.
         24    2    1    2    0    0  0.92909181976E+02 -0.10252930924E+02 -0.86270814395E+03  0.87147529287E+03  0.80415208437E+02 0.  0.
         23    2    1    2    0    0 -0.71157915139E+02 -0.17777147853E+02 -0.31244198624E+03  0.33284301619E+03  0.88232662825E+02 0.  0.
        -13    1    3    3    0    0  0.16695409929E+02 -0.37568477020E+02 -0.23520062105E+03  0.23876653727E+03  0.00000000000E+00 0.  1.
         14    1    3    3    0    0  0.76213772047E+02  0.27315546096E+02 -0.62750752290E+03  0.63270875560E+03  0.00000000000E+00 0. -1.
        -13    1    4    4    0    0 -0.90288760274E+02 -0.25932619156E+02 -0.25627828120E+03  0.27295259365E+03  0.00000000000E+00 0.  1.
         13    1    4    4    0    0  0.19130845136E+02  0.81554713030E+01 -0.56163705043E+02  0.59890422539E+02  0.00000000000E+00 0. -1.
          1    1    1    2  501    0 -0.21751266838E+02  0.28030078777E+02 -0.74514610963E+02  0.82530177343E+02  0.00000000000E+00 0. -1.
<scales pt_clust_5="13000.00000" pt_clust_6="13000.00000" pt_clust_7="13000.00000" pt_clust_8="13000.00000" pt_clust_9="35.47961"></scales>
<clustering>
<clus scale="   35.480">  1  9  2 -1</clus>
<clus scale="   80.415">  5  6 -1 -1</clus>
<clus scale="   88.233">  7  8 -1 -1</clus>
<clus scale="  118.025">  2  5  1 -1</clus>
<clus scale="   35.480">  1  5  2 -1</clus>
</clustering>
</event>
<event>
 9    2  0.4883225E-005  0.1015919E+03  0.7546771E-02  0.1282140E+00
          2   -1    0    0  502    0 -0.00000000000E+00  0.00000000000E+00  0.42316586229E+03  0.42316586229E+03  0.00000000000E+00 0. -1.
         21   -1    0    0  501  502  0.00000000000E+00 -0.00000000000E+00 -0.48625470364E+02  0.48625470364E+02  0.00000000000E+00 0.  1.
         24    2    1    2    0    0 -0.99742181378E+01 -0.53827348859E+02  0.21232590962E+03  0.23376657062E+03  0.81041033606E+02 0.  0.
         23    2    1    2    0    0 -0.42495664852E+02  0.16345592831E+02  0.64665881647E+02  0.12109016431E+03  0.91695647155E+02 0.  0.
        -11    1    3    3    0    0 -0.45416000672E+02 -0.23505859316E+02  0.11325360372E+03  0.12426390181E+03  0.00000000000E+00 0.  1.
         12    1    3    3    0    0  0.35441782534E+02 -0.30321489543E+02  0.99072305907E+02  0.10950266880E+03  0.00000000000E+00 0. -1.
        -13    1    4    4    0    0 -0.66402395749E+02 -0.89791960131E+01  0.36522832342E+02  0.76313965986E+02  0.00000000000E+00 0.  1.
         13    1    4    4    0    0  0.23906730897E+02  0.25324788844E+02  0.28143049304E+02  0.44776198324E+02  0.00000000000E+00 0. -1.
          1    1    1    2  501    0  0.52469882990E+02  0.37481756028E+02  0.97548600655E+02  0.11693459773E+03  0.00000000000E+00 0. -1.
<scales pt_clust_5="13000.00000" pt_clust_6="13000.00000" pt_clust_7="13000.00000" pt_clust_8="13000.00000" pt_clust_9="64.48236"></scales>
<clustering>
<clus scale="   64.482">  2  9  1 -1</clus>
<clus scale="   81.041">  5  6 -1 -1</clus>
<clus scale="   91.696">  7  8 -1 -1</clus>
<clus scale="   92.090">  1  5  2 -1</clus>
<clus scale="   64.482">  2  5  1 -1</clus>
</clustering>
</event>
<event>
 9    2  0.4883225E-005  0.1157998E+03  0.7546771E-02  0.1251301E+00
         21   -1    0    0  501  502  0.00000000000E+00  0.00000000000E+00  0.16145987639E+03  0.16145987639E+03  0.00000000000E+00 0.  1.
          4   -1    0    0  502    0 -0.00000000000E+00 -0.00000000000E+00 -0.30379274723E+03  0.30379274723E+03  0.00000000000E+00 0. -1.
         24    2    1    2    0    0 -0.84533887839E+02  0.25490966733E+02 -0.22423947591E+03  0.25410724157E+03  0.80569101297E+02 0.  0.
         23    2    1    2    0    0  0.46768158247E+02 -0.33247464898E+02 -0.18604957874E+02  0.10349322053E+03  0.84095467716E+02 0.  0.
        -13    1    3    3    0    0 -0.93068350143E+02  0.73831693731E+01 -0.20914205060E+03  0.22903411605E+03  0.00000000000E+00 0.  1.
         14    1    3    3    0    0  0.85344623044E+01  0.18107797360E+02 -0.15097425311E+02  0.25073125515E+02  0.00000000000E+00 0. -1.
        -11    1    4    4    0    0 -0.10425848001E+02 -0.42498355858E+02 -0.56125384707E+01  0.44116993838E+02  0.00000000000E+00 0.  1.
         11    1    4    4    0    0  0.57194006249E+02  0.92508909608E+01 -0.12992419403E+02  0.59376226693E+02  0.00000000000E+00 0. -1.
          3    1    1    2  501    0  0.37765729592E+02  0.77564981642E+01  0.10051156294E+03  0.10765216152E+03  0.00000000000E+00 0. -1.
<scales pt_clust_5="13000.00000" pt_clust_6="13000.00000" pt_clust_7="13000.00000" pt_clust_8="13000.00000" pt_clust_9="38.55403"></scales>
<clustering>
<clus scale="   38.554">  1  9  2 -1</clus>
<clus scale="   80.569">  5  6 -1 -1</clus>
<clus scale="   84.095">  7  8 -1 -1</clus>
<clus scale="  113.265">  2  5  1 -1</clus>
<clus scale="   38.554">  1  5  2 -1</clus>
</clustering>
</event>
<event>
 9    2  0.4883225E-005  0.1849833E+03  0.7546771E-02  0.1186263E+00
         21   -1    0    0  501  502  0.00000000000E+00  0.00000000000E+00  0.58546296862E+02  0.58546296862E+02  0.00000000000E+00 0. -1.
          2   -1    0    0  502    0 -0.00000000000E+00 -0.00000000000E+00 -0.10448624756E+04  0.10448624756E+04  0.00000000000E+00 0. -1.
         24    2    1    2    0    0 -0.66113636567E+02 -0.27241994847E+02 -0.21161513561E+03  0.23816610021E+03  0.82637681769E+02 0.  0.
         23    2    1    2    0    0 -0.47721624702E+02 -0.10561637954E+03 -0.59829399231E+03  0.61678893023E+03  0.95082648919E+02 0.  0.
        -13    1    3    3    0    0 -0.33183152795E+02 -0.52319226674E+02 -0.16264952531E+03  0.17404968025E+03  0.00000000000E+00 0.  1.
         14    1    3    3    0    0 -0.32930483772E+02  0.25077231827E+02 -0.48965610291E+02  0.64116419962E+02  0.00000000000E+00 0. -1.
        -13    1    4    4    0    0 -0.24401929793E+02  0.13684964839E+02 -0.95880381875E+02  0.99878826930E+02  0.00000000000E+00 0.  1.
         13    1    4    4    0    0 -0.23319694908E+02 -0.11930134438E+03 -0.50241361043E+03  0.51691010330E+03  0.00000000000E+00 0. -1.
          1    1    1    2  501    0  0.11383526127E+03  0.13285837439E+03 -0.17640705087E+03  0.24845374207E+03  0.00000000000E+00 0. -1.
<scales pt_clust_5="13000.00000" pt_clust_6="13000.00000" pt_clust_7="13000.00000" pt_clust_8="13000.00000" pt_clust_9="158.67613"></scales>
<clustering>
<clus scale="   82.638">  5  6 -1 -1</clus>
<clus scale="   95.083">  7  8 -1 -1</clus>
<clus scale="  109.280">  2  5  1 -1</clus>
<clus scale="  158.676">  1  9  2 -1</clus>
<clus scale="  158.676">  1  5  2 -1</clus>
</clustering>
</event>
<event>
 9    2  0.4883225E-005  0.1346049E+03  0.7546771E-02  0.1234608E+00
          2   -1    0    0  502    0 -0.00000000000E+00  0.00000000000E+00  0.59109394261E+03  0.59109394261E+03  0.00000000000E+00 0. -1.
         21   -1    0    0  501  502  0.00000000000E+00 -0.00000000000E+00 -0.62439165252E+02  0.62439165252E+02  0.00000000000E+00 0.  1.
         24    2    1    2    0    0 -0.59007978177E+02  0.17468601858E+02  0.42057654846E+02  0.10945889409E+03  0.80158029079E+02 0.  0.
         23    2    1    2    0    0 -0.42246286344E+02 -0.76498966231E+02  0.25047234323E+03  0.28046100964E+03  0.91022759014E+02 0.  0.
        -11    1    3    3    0    0 -0.11172914707E+02  0.38743061422E+02 -0.29354426213E+01  0.40428648936E+02  0.00000000000E+00 0.  1.
         12    1    3    3    0    0 -0.47835063469E+02 -0.21274459565E+02  0.44993097467E+02  0.69030245158E+02  0.00000000000E+00 0. -1.
        -11    1    4    4    0    0  0.21827136303E+02  0.51061772981E+01  0.46015520281E+02  0.51185203257E+02  0.00000000000E+00 0. -1.
         11    1    4    4    0    0 -0.64073422647E+02 -0.81605143529E+02  0.20445682295E+03  0.22927580638E+03  0.00000000000E+00 0.  1.
          1    1    1    2  501    0  0.10125426452E+03  0.59030364373E+02  0.23612477928E+03  0.26361320413E+03  0.00000000000E+00 0. -1.
<scales pt_clust_5="13000.00000" pt_clust_6="13000.00000" pt_clust_7="13000.00000" pt_clust_8="13000.00000" pt_clust_9="99.16323"></scales>
<clustering>
<clus scale="   80.158">  5  6 -1 -1</clus>
<clus scale="   91.023">  7  8 -1 -1</clus>
<clus scale="  101.056">  1  5  2 -1</clus>
<clus scale="   99.163">  2  9  1 -1</clus>
<clus scale="   99.163">  2  5  1 -1</clus>
</clustering>
</event>
<event>
 9    2  0.4883225E-005  0.1139167E+03  0.7546771E-02  0.1255566E+00
         21   -1    0    0  501  502  0.00000000000E+00  0.00000000000E+00  0.21188178208E+02  0.21188178208E+02  0.00000000000E+00 0. -1.
          2   -1    0    0  502    0 -0.00000000000E+00 -0.00000000000E+00 -0.15718153848E+04  0.15718153848E+04  0.00000000000E+00 0. -1.
         24    2    1    2    0    0  0.61109547959E+02 -0.12104211751E+02 -0.10548226089E+04  0.10599727506E+04  0.83729368008E+02 0.  0.
         23    2    1    2    0    0 -0.96616962013E+02  0.23593912438E+02 -0.46719579281E+03  0.48600684624E+03  0.89661785149E+02 0.  0.
        -11    1    3    3    0    0  0.20044654240E+02  0.29245498581E+02 -0.19642714351E+03  0.19960137790E+03  0.00000000000E+00 0.  1.
         12    1    3    3    0    0  0.41064893718E+02 -0.41349710332E+02 -0.85839546535E+03  0.86037137271E+03  0.00000000000E+00 0. -1.
        -13    1    4    4    0    0 -0.83078282577E+02 -0.15957946123E+01 -0.43533472154E+03  0.44319393878E+03  0.00000000000E+00 0.  1.
         13    1    4    4    0    0 -0.13538679437E+02  0.25189707050E+02 -0.31861071276E+02  0.42812907458E+02  0.00000000000E+00 0. -1.
          1    1    1    2  501    0  0.35507414055E+02 -0.11489700687E+02 -0.28608804913E+02  0.47023966158E+02  0.00000000000E+00 0. -1.
<scales pt_clust_5="13000.00000" pt_clust_6="13000.00000" pt_clust_7="13000.00000" pt_clust_8="13000.00000" pt_clust_9="37.32010"></scales>
<clustering>
<clus scale="   37.320">  1  9  2 -1</clus>
<clus scale="   83.729">  5  6 -1 -1</clus>
<clus scale="   89.662">  7  8 -1 -1</clus>
<clus scale="  109.309">  2  5  1 -1</clus>
<clus scale="   37.320">  1  5  2 -1</clus>
</clustering>
</event>
<event>
 9    2  0.4883225E-005  0.1486204E+03  0.7546771E-02  0.1210541E+00
         21   -1    0    0  501  502  0.00000000000E+00  0.00000000000E+00  0.13023530944E+04  0.13023530944E+04  0.00000000000E+00 0. -1.
          4   -1    0    0  502    0 -0.00000000000E+00 -0.00000000000E+00 -0.46610086783E+02  0.46610086783E+02  0.00000000000E+00 0. -1.
         23    2    1    2    0    0  0.17146153437E+02  0.82203917914E+02  0.15244406706E+03  0.19662043538E+03  0.91481841535E+02 0.  0.
         24    2    1    2    0    0  0.11268654131E+03 -0.64568266942E+02  0.88201370706E+03  0.89517606954E+03  0.80775604945E+02 0.  0.
        -11    1    4    4    0    0  0.33424682774E+02 -0.65654948792E+02  0.42698005122E+03  0.43328944813E+03  0.00000000000E+00 0.  1.
         12    1    4    4    0    0  0.79261858532E+02  0.10866818496E+01  0.45503365584E+03  0.46188662142E+03  0.00000000000E+00 0. -1.
        -13    1    3    3    0    0  0.41171518555E+02  0.68573965688E+02  0.59581780907E+02  0.99737010815E+02  0.00000000000E+00 0.  1.
         13    1    3    3    0    0 -0.24025365118E+02  0.13629952226E+02  0.92862286148E+02  0.96883424565E+02  0.00000000000E+00 0. -1.
          3    1    1    2  501    0 -0.12983269474E+03 -0.17635650972E+02  0.22128523345E+03  0.25716667621E+03  0.00000000000E+00 0. -1.
<scales pt_clust_5="13000.00000" pt_clust_6="13000.00000" pt_clust_7="13000.00000" pt_clust_8="13000.00000" pt_clust_9="124.75310"></scales>
<clustering>
<clus scale="   80.776">  5  6 -1 -1</clus>
<clus scale="   91.482">  7  8 -1 -1</clus>
<clus scale="  124.179">  2  7  1 -1</clus>
<clus scale="  124.753">  1  9  2 -1</clus>
<clus scale="  124.753">  1  5  2 -1</clus>
</clustering>
</event>
<event>
 9    2  0.4883225E-005  0.2256195E+03  0.7546771E-02  0.1150294E+00
         -1   -1    0    0    0  501 -0.00000000000E+00  0.00000000000E+00  0.97734973942E+02  0.97734973942E+02  0.00000000000E+00 0.  1.
         21   -1    0    0  501  502  0.00000000000E+00 -0.00000000000E+00 -0.10273221070E+04  0.10273221070E+04  0.00000000000E+00 0.  1.
         24    2    1    2    0    0  0.72143103400E+02  0.84808473390E+02 -0.67318643741E+02  0.15308802361E+03  0.80666217538E+02 0.  0.
         23    2    1    2    0    0 -0.10796882345E+03  0.15280152811E+03 -0.39794391085E+03  0.44915043753E+03  0.91494183020E+02 0.  0.
        -13    1    3    3    0    0  0.32822338130E+02  0.26504026630E+02  0.15041698836E+02  0.44788637084E+02  0.00000000000E+00 0.  1.
         14    1    3    3    0    0  0.39320765270E+02  0.58304446760E+02 -0.82360342577E+02  0.10829938653E+03  0.00000000000E+00 0. -1.
        -11    1    4    4    0    0 -0.67252602708E+02  0.33892930933E+02 -0.95438855573E+02  0.12157392192E+03  0.00000000000E+00 0.  1.
         11    1    4    4    0    0 -0.40716220739E+02  0.11890859718E+03 -0.30250505528E+03  0.32757651561E+03  0.00000000000E+00 0. -1.
         -2    1    1    2    0  502  0.35825720047E+02 -0.23761000150E+03 -0.46432457844E+03  0.52281861976E+03  0.00000000000E+00 0.  1.
<scales pt_clust_5="13000.00000" pt_clust_6="13000.00000" pt_clust_7="13000.00000" pt_clust_8="13000.00000" pt_clust_9="206.23537"></scales>
<clustering>
<clus scale="   80.666">  5  6 -1 -1</clus>
<clus scale="   91.494">  7  8 -1 -1</clus>
<clus scale="  137.492">  1  5  2 -1</clus>
<clus scale="  206.235">  2  9  1 -1</clus>
<clus scale="  206.235">  2  5  1 -1</clus>
</clustering>
</event>
<event>
 9    2  0.4883225E-005  0.1123670E+03  0.7546771E-02  0.1259863E+00
          2   -1    0    0  502    0 -0.00000000000E+00  0.00000000000E+00  0.73278845739E+03  0.73278845739E+03  0.00000000000E+00 0. -1.
         21   -1    0    0  501  502  0.00000000000E+00 -0.00000000000E+00 -0.14267842279E+03  0.14267842279E+03  0.00000000000E+00 0.  1.
         24    2    1    2    0    0 -0.66746944559E+02  0.22683208017E+01  0.68208793495E+03  0.69017429904E+03  0.81463563432E+02 0.  0.
         23    2    1    2    0    0  0.32037695961E+02  0.17330753666E+02 -0.10461851339E+03  0.14347582905E+03  0.91178457934E+02 0.  0.
        -13    1    3    3    0    0 -0.32877563144E+02  0.21528403223E+02  0.11086692421E+03  0.11762602258E+03  0.00000000000E+00 0.  1.
         14    1    3    3    0    0 -0.33869381415E+02 -0.19260082422E+02  0.57122101073E+03  0.57254827646E+03  0.00000000000E+00 0. -1.
        -11    1    4    4    0    0  0.98081816467E+01  0.31405815572E+02 -0.11152220546E+03  0.11627436514E+03  0.00000000000E+00 0.  1.
         11    1    4    4    0    0  0.22229514315E+02 -0.14075061906E+02  0.69036920674E+01  0.27201463903E+02  0.00000000000E+00 0. -1.
          1    1    1    2  501    0  0.34709248598E+02 -0.19599074468E+02  0.12640613046E+02  0.41816752102E+02  0.00000000000E+00 0. -1.
<scales pt_clust_5="13000.00000" pt_clust_6="13000.00000" pt_clust_7="13000.00000" pt_clust_8="13000.00000" pt_clust_9="39.86045"></scales>
<clustering>
<clus scale="   39.860">  2  9  1 -1</clus>
<clus scale="   81.464">  5  6 -1 -1</clus>
<clus scale="   91.178">  7  8 -1 -1</clus>
<clus scale="  104.638">  1  5  2 -1</clus>
<clus scale="   39.860">  2  5  1 -1</clus>
</clustering>
</event>
<event>
 9    2  0.4883225E-005  0.1274161E+03  0.7546771E-02  0.1234622E+00
         21   -1    0    0  501  502  0.00000000000E+00  0.00000000000E+00  0.37777697252E+02  0.37777697252E+02  0.00000000000E+00 0. -1.
          2   -1    0    0  502    0 -0.00000000000E+00 -0.00000000000E+00 -0.12669973248E+04  0.12669973248E+04  0.00000000000E+00 0. -1.
         24    2    1    2    0    0  0.80724771529E+02 -0.57184812190E+02 -0.38614521339E+03  0.40642767731E+03  0.79301573614E+02 0.  0.
         23    2    1    2    0    0 -0.10061619505E+03 -0.65899647152E+02 -0.24804324273E+03  0.29039377099E+03  0.91305584523E+02 0.  0.
        -11    1    3    3    0    0  0.13507648679E+02  0.20159073051E+02 -0.78605348747E+02  0.82265701546E+02  0.00000000000E+00 0.  1.
         12    1    3    3    0    0  0.67217122850E+02 -0.77343885241E+02 -0.30753986464E+03  0.32416197576E+03  0.00000000000E+00 0. -1.
        -11    1    4    4    0    0 -0.88181429087E+02 -0.35386178122E+02 -0.23749470617E+03  0.25579656272E+03  0.00000000000E+00 0.  1.
         11    1    4    4    0    0 -0.12434765967E+02 -0.30513469030E+02 -0.10548536556E+02  0.34597208274E+02  0.00000000000E+00 0. -1.
          1    1    1    2  501    0  0.19891423525E+02  0.12308445934E+03 -0.59503117139E+03  0.60795357371E+03  0.00000000000E+00 0. -1.
<scales pt_clust_5="13000.00000" pt_clust_6="13000.00000" pt_clust_7="13000.00000" pt_clust_8="13000.00000" pt_clust_9="124.68147"></scales>
<clustering>
<clus scale="   79.302">  5  6 -1 -1</clus>
<clus scale="   91.306">  7  8 -1 -1</clus>
<clus scale="  124.681">  1  9  2 -1</clus>
<clus scale="  119.109">  2  5  1 -1</clus>
<clus scale="  124.681">  1  5  2 -1</clus>
</clustering>
</event>
<event>
 9    2  0.4883225E-005  0.1037750E+03  0.7546771E-02  0.1279987E+00
         -3   -1    0    0    0  501 -0.00000000000E+00  0.00000000000E+00  0.22862363491E+02  0.22862363491E+02  0.00000000000E+00 0.  1.
         21   -1    0    0  501  502  0.00000000000E+00 -0.00000000000E+00 -0.68992487461E+03  0.68992487461E+03  0.00000000000E+00 0. -1.
         24    2    1    2    0    0  0.16079739694E+02  0.39967104059E+01 -0.14444694250E+03  0.16924504773E+03  0.86628143584E+02 0.  0.
         23    2    1    2    0    0 -0.29993966230E+02 -0.38442575284E+02 -0.38019896458E+03  0.39635994819E+03  0.10085874408E+03 0.  0.
        -13    1    3    3    0    0  0.39240689114E+02  0.10304634737E+02 -0.25543047043E+02  0.47942303152E+02  0.00000000000E+00 0.  1.
         14    1    3    3    0    0 -0.23160949421E+02 -0.63079243313E+01 -0.11890389545E+03  0.12130274457E+03  0.00000000000E+00 0. -1.
        -11    1    4    4    0    0 -0.65581669707E+02 -0.11886257594E+02 -0.25305737227E+03  0.26168735579E+03  0.00000000000E+00 0.  1.
         11    1    4    4    0    0  0.35587703477E+02 -0.26556317690E+02 -0.12714159232E+03  0.13467259240E+03  0.00000000000E+00 0. -1.
         -4    1    1    2    0  502  0.13914226536E+02  0.34445864878E+02 -0.14241660404E+03  0.14718224218E+03  0.00000000000E+00 0.  1.
<scales pt_clust_5="13000.00000" pt_clust_6="13000.00000" pt_clust_7="13000.00000" pt_clust_8="13000.00000" pt_clust_9="37.15001"></scales>
<clustering>
<clus scale="   37.150">  2  9  1 -1</clus>
<clus scale="   86.628">  5  6 -1 -1</clus>
<clus scale="   90.007">  1  5  2 -1</clus>
<clus scale="  100.859">  7  8 -1 -1</clus>
<clus scale="   37.150">  2  5  1 -1</clus>
</clustering>
</event>
<event>
 9    2  0.4883225E-005  0.1085584E+03  0.7546771E-02  0.1269488E+00
         21   -1    0    0  501  502  0.00000000000E+00  0.00000000000E+00  0.85168263977E+02  0.85168263977E+02  0.00000000000E+00 0. -1.
          2   -1    0    0  502    0 -0.00000000000E+00 -0.00000000000E+00 -0.33774249850E+03  0.33774249850E+03  0.00000000000E+00 0. -1.
         23    2    1    2    0    0 -0.66454398459E+02 -0.15977613095E+02 -0.18872862672E+03  0.22221039471E+03  0.95328347192E+02 0.  0.
         24    2    1    2    0    0 -0.44488536569E+01  0.56850723165E+01  0.26420732821E+02  0.85456193053E+02  0.80948091158E+02 0.  0.
        -11    1    4    4    0    0  0.33031918685E+02 -0.13809534833E+02  0.33438777507E+00  0.35803948379E+02  0.00000000000E+00 0.  1.
         12    1    4    4    0    0 -0.37480772342E+02  0.19494607149E+02  0.26086345046E+02  0.49652244674E+02  0.00000000000E+00 0. -1.
        -13    1    3    3    0    0 -0.65922481992E+02 -0.44563611578E+02 -0.17089887157E+03  0.18851555218E+03  0.00000000000E+00 0. -1.
         13    1    3    3    0    0 -0.53191646673E+00  0.28585998483E+02 -0.17829755145E+02  0.33694842527E+02  0.00000000000E+00 0.  1.
          1    1    1    2  501    0  0.70903252116E+02  0.10292540779E+02 -0.90266340630E+02  0.11524417472E+03  0.00000000000E+00 0. -1.
<scales pt_clust_5="13000.00000" pt_clust_6="13000.00000" pt_clust_7="13000.00000" pt_clust_8="13000.00000" pt_clust_9="71.64644"></scales>
<clustering>
<clus scale="   71.646">  1  9  2 -1</clus>
<clus scale="   80.948">  5  6 -1 -1</clus>
<clus scale="   95.328">  7  8 -1 -1</clus>
<clus scale="   96.177">  1  5  2 -1</clus>
<clus scale="   71.646">  1  5  2 -1</clus>
</clustering>
</event>
<event>
 9    2  0.4883225E-005  0.9647525E+02  0.7546771E-02  0.1296016E+00
          2   -1    0    0  502    0 -0.00000000000E+00  0.00000000000E+00  0.90931551603E+02  0.90931551603E+02  0.00000000000E+00 0. -1.
         21   -1    0    0  501  502  0.00000000000E+00 -0.00000000000E+00 -0.17542447919E+03  0.17542447919E+03  0.00000000000E+00 0. -1.
         23    2    1    2    0    0  0.59652125390E+01  0.37094793357E+02  0.35133828154E+02  0.10443968955E+03  0.90893648946E+02 0.  0.
         24    2    1    2    0    0 -0.19848109769E+02 -0.14233152862E+02 -0.74261439832E+02  0.10925324857E+03  0.76321561670E+02 0.  0.
        -11    1    4    4    0    0 -0.29030805018E+02 -0.22624897320E+02 -0.30152035309E+01  0.36929189959E+02  0.00000000000E+00 0.  1.
         12    1    4    4    0    0  0.91826952490E+01  0.83917444580E+01 -0.71246236301E+02  0.72324058612E+02  0.00000000000E+00 0. -1.
        -11    1    3    3    0    0 -0.12182520971E+02 -0.27710985932E+02  0.17099353180E+02  0.34766369349E+02  0.00000000000E+00 0.  1.
         11    1    3    3    0    0  0.18147733510E+02  0.64805779290E+02  0.18034474973E+02  0.69673320206E+02  0.00000000000E+00 0. -1.
          1    1    1    2  501    0  0.13882897230E+02 -0.22861640495E+02 -0.45365315907E+02  0.52663092664E+02  0.00000000000E+00 0. -1.
<scales pt_clust_5="13000.00000" pt_clust_6="13000.00000" pt_clust_7="13000.00000" pt_clust_8="13000.00000" pt_clust_9="26.74677"></scales>
<clustering>
<clus scale="   26.747">  2  9  1 -1</clus>
<clus scale="   76.322">  5  6 -1 -1</clus>
<clus scale="   82.890">  2  5  1 -1</clus>
<clus scale="   90.894">  7  8 -1 -1</clus>
<clus scale="   26.747">  2  5  1 -1</clus>
</clustering>
</event>
<event>
 9    2  0.4883225E-005  0.1181125E+03  0.7546771E-02  0.1253669E+00
         21   -1    0    0  501  502  0.00000000000E+00  0.00000000000E+00  0.47904900307E+03  0.47904900307E+03  0.00000000000E+00 0. -1.
          4   -1    0    0  502    0 -0.00000000000E+00 -0.00000000000E+00 -0.41173248517E+02  0.41173248517E+02  0.00000000000E+00 0. -1.
         24    2    1    2    0    0 -0.69135729559E+02  0.25633994435E+02  0.14069038108E+03  0.17819100991E+03  0.80755197415E+02 0.  0.
         23    2    1    2    0    0  0.26062287650E+02 -0.42812700900E+02  0.25774517585E+03  0.28115465717E+03  0.10051465256E+03 0.  0.
        -13    1    3    3    0    0 -0.34110986463E+02 -0.42615903539E+01  0.47990380766E+01  0.34709527745E+02  0.00000000000E+00 0.  1.
         14    1    3    3    0    0 -0.35024743096E+02  0.29895584789E+02  0.13589134301E+03  0.14348148216E+03  0.00000000000E+00 0. -1.
        -13    1    4    4    0    0  0.52557961254E+02 -0.18204426793E+01  0.72360997308E+02  0.89452597694E+02  0.00000000000E+00 0.  1.
         13    1    4    4    0    0 -0.26495673604E+02 -0.40992258221E+02  0.18538417854E+03  0.19170205947E+03  0.00000000000E+00 0. -1.
          3    1    1    2  501    0  0.43073441909E+02  0.17178706465E+02  0.39440197628E+02  0.60876584519E+02  0.00000000000E+00 0. -1.
<scales pt_clust_5="13000.00000" pt_clust_6="13000.00000" pt_clust_7="13000.00000" pt_clust_8="13000.00000" pt_clust_9="46.37275"></scales>
<clustering>
<clus scale="   46.373">  1  9  2 -1</clus>
<clus scale="   80.755">  5  6 -1 -1</clus>
<clus scale="  100.515">  7  8 -1 -1</clus>
<clus scale="  101.827">  2  5  1 -1</clus>
<clus scale="   46.373">  1  5  2 -1</clus>
</clustering>
</event>
<event>
 9    2  0.4883225E-005  0.1057214E+03  0.7546771E-02  0.1271881E+00
         21   -1    0    0  501  502  0.00000000000E+00  0.00000000000E+00  0.91301976416E+02  0.91301976416E+02  0.00000000000E+00 0.  1.
         -3   -1    0    0    0  501 -0.00000000000E+00 -0.00000000000E+00 -0.15776594475E+03  0.15776594475E+03  0.00000000000E+00 0.  1.
         23    2    1    2    0    0  0.33210932346E+02  0.64024205287E+02 -0.50104344683E+02  0.12423599086E+03  0.87875316093E+02 0.  0.
         24    2    1    2    0    0 -0.30894303552E+02 -0.34513921659E+02 -0.20760147233E+02  0.94905550368E+02  0.80189843479E+02 0.  0.
        -13    1    4    4    0    0 -0.15885366807E+02  0.25880378009E+02 -0.61860183207E+01  0.30990412504E+02  0.00000000000E+00 0.  1.
         14    1    4    4    0    0 -0.15008936745E+02 -0.60394299668E+02 -0.14574128912E+02  0.63915137864E+02  0.00000000000E+00 0. -1.
        -13    1    3    3    0    0 -0.67160100449E+01  0.71030496612E+02 -0.42332488361E+02  0.82960688346E+02  0.00000000000E+00 0.  1.
         13    1    3    3    0    0  0.39926942391E+02 -0.70062913255E+01 -0.77718563214E+01  0.41275302512E+02  0.00000000000E+00 0. -1.
         -4    1    1    2    0  502 -0.23166287936E+01 -0.29510283627E+02  0.44005235787E+01  0.29926379943E+02  0.00000000000E+00 0.  1.
<scales pt_clust_5="13000.00000" pt_clust_6="13000.00000" pt_clust_7="13000.00000" pt_clust_8="13000.00000" pt_clust_9="29.60107"></scales>
<clustering>
<clus scale="   29.601">  1  9  2 -1</clus>
<clus scale="   80.190">  5  6 -1 -1</clus>
<clus scale="   87.875">  7  8 -1 -1</clus>
<clus scale="   99.425">  1  5  2 -1</clus>
<clus scale="   29.601">  1  5  2 -1</clus>
</clustering>
</event>
<event>
 9    2  0.4883225E-005  0.1019724E+03  0.7546771E-02  0.1282319E+00
          2   -1    0    0  502    0 -0.00000000000E+00  0.00000000000E+00  0.10542925536E+03  0.10542925536E+03  0.00000000000E+00 0. -1.
         21   -1    0    0  501  502  0.00000000000E+00 -0.00000000000E+00 -0.17547899073E+03  0.17547899073E+03  0.00000000000E+00 0.  1.
         24    2    1    2    0    0  0.13722580165E+02  0.46024271127E+02  0.12551372994E+01  0.92247130450E+02  0.78749063280E+02 0.  0.
         23    2    1    2    0    0 -0.56879730131E+02 -0.13878465299E+02 -0.79020966460E+02  0.13429724410E+03  0.91452288837E+02 0.  0.
        -11    1    3    3    0    0 -0.28518680741E+02  0.99276892309E+00 -0.84170736822E+01  0.29751434767E+02  0.00000000000E+00 0.  1.
         12    1    3    3    0    0  0.42241260906E+02  0.45031502204E+02  0.96722109816E+01  0.62495695683E+02  0.00000000000E+00 0. -1.
        -13    1    4    4    0    0 -0.18424265205E+02 -0.26319992890E+02 -0.87313980762E+02  0.93037233464E+02  0.00000000000E+00 0.  1.
         13    1    4    4    0    0 -0.38455464926E+02  0.12441527591E+02  0.82930143016E+01  0.41260010635E+02  0.00000000000E+00 0. -1.
          1    1    1    2  501    0  0.43157149966E+02 -0.32145805828E+02  0.77160937891E+01  0.54363871541E+02  0.00000000000E+00 0. -1.
<scales pt_clust_5="13000.00000" pt_clust_6="13000.00000" pt_clust_7="13000.00000" pt_clust_8="13000.00000" pt_clust_9="53.81352"></scales>
<clustering>
<clus scale="   53.814">  2  9  1 -1</clus>
<clus scale="   78.749">  5  6 -1 -1</clus>
<clus scale="   90.754">  1  5  2 -1</clus>
<clus scale="   91.452">  7  8 -1 -1</clus>
<clus scale="   53.814">  2  5  1 -1</clus>
</clustering>
</event>
<event>
 9    2  0.4883225E-005  0.9943728E+02  0.7546771E-02  0.1288015E+00
         21   -1    0    0  501  502  0.00000000000E+00  0.00000000000E+00  0.15368920809E+03  0.15368920809E+03  0.00000000000E+00 0.  1.
         -1   -1    0    0    0  501 -0.00000000000E+00 -0.00000000000E+00 -0.17737451022E+03  0.17737451022E+03  0.00000000000E+00 0.  1.
         23    2    1    2    0    0  0.42654709341E+02 -0.22507307011E+02 -0.10211643593E+03  0.14604417804E+03  0.92602010540E+02 0.  0.
         24    2    1    2    0    0 -0.15108880749E+02  0.10235736874E+02 -0.17913172306E+02  0.84066138028E+02  0.80082365312E+02 0.  0.
        -13    1    4    4    0    0  0.17947955172E+02 -0.20946310548E+02 -0.26003424395E+02  0.37908509608E+02  0.00000000000E+00 0.  1.
         14    1    4    4    0    0 -0.33056835921E+02  0.31182047421E+02  0.80902520891E+01  0.46157628420E+02  0.00000000000E+00 0. -1.
        -13    1    3    3    0    0 -0.90278157132E+01 -0.22038089028E+02 -0.89810792270E+02  0.92914784790E+02  0.00000000000E+00 0.  1.
         13    1    3    3    0    0  0.51682525054E+02 -0.46921798342E+00 -0.12305643656E+02  0.53129393252E+02  0.00000000000E+00 0. -1.
         -2    1    1    2    0  502 -0.27545828592E+02  0.12271570137E+02  0.96344306099E+02  0.10095340224E+03  0.00000000000E+00 0.  1.
<scales pt_clust_5="13000.00000" pt_clust_6="13000.00000" pt_clust_7="13000.00000" pt_clust_8="13000.00000" pt_clust_9="30.15566"></scales>
<clustering>
<clus scale="   30.156">  1  9  2 -1</clus>
<clus scale="   80.082">  5  6 -1 -1</clus>
<clus scale="   87.897">  1  5  2 -1</clus>
<clus scale="   92.602">  7  8 -1 -1</clus>
<clus scale="   30.156">  1  5  2 -1</clus>
</clustering>
</event>
<event>
 9    2  0.4883225E-005  0.1116737E+03  0.7546771E-02  0.1258811E+00
          2   -1    0    0  502    0 -0.00000000000E+00  0.00000000000E+00  0.60820786432E+03  0.60820786432E+03  0.00000000000E+00 0. -1.
         21   -1    0    0  501  502  0.00000000000E+00 -0.00000000000E+00 -0.28094672150E+03  0.28094672150E+03  0.00000000000E+00 0. -1.
         24    2    1    2    0    0 -0.48516564117E+02 -0.43046772675E+02  0.52678151510E+03  0.53784718581E+03  0.87028437869E+02 0.  0.
         23    2    1    2    0    0  0.72644443889E+02  0.21405555403E+02  0.28130952779E+02  0.12136040031E+03  0.90562592885E+02 0.  0.
        -13    1    3    3    0    0  0.17080303491E+02 -0.32071857809E+02  0.11144088744E+03  0.11721523888E+03  0.00000000000E+00 0.  1.
         14    1    3    3    0    0 -0.65596867609E+02 -0.10974914866E+02  0.41534062766E+03  0.42063194693E+03  0.00000000000E+00 0. -1.
        -13    1    4    4    0    0  0.79658988340E+02 -0.85581058643E+01  0.38498488036E+02  0.88887171068E+02  0.00000000000E+00 0.  1.
         13    1    4    4    0    0 -0.70145444510E+01  0.29963661267E+02 -0.10367535257E+02  0.32473229247E+02  0.00000000000E+00 0. -1.
          1    1    1    2  501    0 -0.24127879772E+02  0.21641217272E+02 -0.22765132506E+03  0.22994699969E+03  0.00000000000E+00 0. -1.
<scales pt_clust_5="13000.00000" pt_clust_6="13000.00000" pt_clust_7="13000.00000" pt_clust_8="13000.00000" pt_clust_9="32.41137"></scales>
<clustering>
<clus scale="   32.411">  2  9  1 -1</clus>
<clus scale="   87.028">  5  6 -1 -1</clus>
<clus scale="   90.563">  7  8 -1 -1</clus>
<clus scale="  108.827">  1  5  2 -1</clus>
<clus scale="   32.411">  2  5  1 -1</clus>
</clustering>
</event>
<event>
 9    2  0.4883225E-005  0.9870640E+02  0.7546771E-02  0.1286326E+00
          2   -1    0    0  502    0 -0.00000000000E+00  0.00000000000E+00  0.14031099447E+03  0.14031099447E+03  0.00000000000E+00 0. -1.
         21   -1    0    0  501  502  0.00000000000E+00 -0.00000000000E+00 -0.15946994678E+03  0.15946994678E+03  0.00000000000E+00 0. -1.
         24    2    1    2    0    0  0.48713007004E+02 -0.35311173216E+01  0.81533719967E+02  0.12450583832E+03  0.80427174785E+02 0.  0.
         23    2    1    2    0    0 -0.34798418814E+02 -0.36194381632E+02 -0.62665697008E+02  0.11854960707E+03  0.87212708599E+02 0.  0.
        -11    1    3    3    0    0 -0.11684157751E+02 -0.25501696508E+02  0.36479884462E+02  0.46017801311E+02  0.00000000000E+00 0.  1.
         12    1    3    3    0    0  0.60397164755E+02  0.21970579186E+02  0.45053835505E+02  0.78488037012E+02  0.00000000000E+00 0. -1.
        -13    1    4    4    0    0 -0.45859296884E+02  0.52804243727E+01 -0.59779297031E+02  0.75528288382E+02  0.00000000000E+00 0. -1.
         13    1    4    4    0    0  0.11060878071E+02 -0.41474806005E+02 -0.28863999764E+01  0.43021318688E+02  0.00000000000E+00 0.  1.
          1    1    1    2  501    0 -0.13914588190E+02  0.39725498953E+02 -0.38026975276E+02  0.56725495857E+02  0.00000000000E+00 0. -1.
<scales pt_clust_5="13000.00000" pt_clust_6="13000.00000" pt_clust_7="13000.00000" pt_clust_8="13000.00000" pt_clust_9="42.09194"></scales>
<clustering>
<clus scale="   42.092">  2  9  1 -1</clus>
<clus scale="   80.427">  5  6 -1 -1</clus>
<clus scale="   87.213">  7  8 -1 -1</clus>
<clus scale="   92.765">  1  5  2 -1</clus>
<clus scale="   42.092">  2  5  1 -1</clus>
</clustering>
</event>
<event>
 9    2  0.4883225E-005  0.1196479E+03  0.7546771E-02  0.1245329E+00
         21   -1    0    0  501  502  0.00000000000E+00  0.00000000000E+00  0.11721617325E+03  0.11721617325E+03  0.00000000000E+00 0. -1.
         -3   -1    0    0    0  501 -0.00000000000E+00 -0.00000000000E+00 -0.25040687385E+03  0.25040687385E+03  0.00000000000E+00 0.  1.
         24    2    1    2    0    0  0.68118872552E+02  0.47341171462E+02 -0.18354416687E+03  0.21838947535E+03  0.84404587775E+02 0.  0.
         23    2    1    2    0    0 -0.38840121483E+02 -0.52189905439E+02  0.39659096783E+02  0.11768796946E+03  0.89695445426E+02 0.  0.
        -11    1    3    3    0    0  0.37895801457E+02  0.34808963120E+02 -0.17789446681E+03  0.18518692450E+03  0.00000000000E+00 0.  1.
         12    1    3    3    0    0  0.30223071095E+02  0.12532208342E+02 -0.56497000576E+01  0.33202550852E+02  0.00000000000E+00 0. -1.
        -11    1    4    4    0    0 -0.61894978304E+01 -0.20574906121E+02 -0.28545559784E+02  0.35727939048E+02  0.00000000000E+00 0.  1.
         11    1    4    4    0    0 -0.32650623653E+02 -0.31614999318E+02  0.68204656567E+02  0.81960030407E+02  0.00000000000E+00 0. -1.
         -4    1    1    2    0  502 -0.29278751069E+02  0.48487339772E+01  0.10694369488E+02  0.31545602294E+02  0.00000000000E+00 0.  1.
<scales pt_clust_5="13000.00000" pt_clust_6="13000.00000" pt_clust_7="13000.00000" pt_clust_8="13000.00000" pt_clust_9="29.67752"></scales>
<clustering>
<clus scale="   29.678">  1  9  2 -1</clus>
<clus scale="   84.405">  5  6 -1 -1</clus>
<clus scale="   89.695">  7  8 -1 -1</clus>
<clus scale="  115.735">  2  5  1 -1</clus>
<clus scale="   29.678">  1  5  2 -1</clus>
</clustering>
</event>
<event>
 9    2  0.4883225E-005  0.1027958E+03  0.7546771E-02  0.1280980E+00
          4   -1    0    0  502    0 -0.00000000000E+00  0.00000000000E+00  0.17435666962E+03  0.17435666962E+03  0.00000000000E+00 0. -1.
         21   -1    0    0  501  502  0.00000000000E+00 -0.00000000000E+00 -0.25759394057E+03  0.25759394057E+03  0.00000000000E+00 0. -1.
         24    2    1    2    0    0  0.16759579082E+02  0.51352239536E+02  0.77344069785E+02  0.12388114076E+03  0.80290073540E+02 0.  0.
         23    2    1    2    0    0 -0.18462881145E+02 -0.21096360056E+02  0.39749233306E+02  0.10545984879E+03  0.93572665718E+02 0.  0.
        -11    1    3    3    0    0  0.39853185964E+02  0.43912037114E+02  0.21645318338E+02  0.63127357310E+02  0.00000000000E+00 0.  1.
         12    1    3    3    0    0 -0.23093606882E+02  0.74402024217E+01  0.55698751447E+02  0.60753783451E+02  0.00000000000E+00 0. -1.
        -11    1    4    4    0    0  0.26771633015E+02  0.13684407264E+02  0.37889491061E+02  0.48369379460E+02  0.00000000000E+00 0. -1.
         11    1    4    4    0    0 -0.45234514160E+02 -0.34780767321E+02  0.18597422456E+01  0.57090469326E+02  0.00000000000E+00 0.  1.
          3    1    1    2  501    0  0.17033020626E+01 -0.30255879480E+02 -0.20033057404E+03  0.20260962064E+03  0.00000000000E+00 0. -1.
<scales pt_clust_5="13000.00000" pt_clust_6="13000.00000" pt_clust_7="13000.00000" pt_clust_8="13000.00000" pt_clust_9="30.30379"></scales>
<clustering>
<clus scale="   30.304">  2  9  1 -1</clus>
<clus scale="   80.290">  5  6 -1 -1</clus>
<clus scale="   90.872">  1  5  2 -1</clus>
<clus scale="   93.573">  7  8 -1 -1</clus>
<clus scale="   30.304">  2  5  1 -1</clus>
</clustering>
</event>
<event>
 9    2  0.4883225E-005  0.9100402E+02  0.7546771E-02  0.1305275E+00
          2   -1    0    0  502    0 -0.00000000000E+00  0.00000000000E+00  0.76617024475E+03  0.76617024475E+03  0.00000000000E+00 0. -1.
         21   -1    0    0  501  502  0.00000000000E+00 -0.00000000000E+00 -0.14338279288E+02  0.14338279288E+02  0.00000000000E+00 0. -1.
         23    2    1    2    0    0  0.17235892927E+02  0.28353273132E+02  0.34569181252E+03  0.35812438407E+03  0.87460054422E+02 0.  0.
         24    2    1    2    0    0  0.49554549116E+01 -0.19150160796E+02  0.22035843409E+03  0.23505555097E+03  0.79385057638E+02 0.  0.
        -11    1    4    4    0    0 -0.17921355558E+02 -0.31238291745E+02  0.44234463522E+02  0.57041157240E+02  0.00000000000E+00 0.  1.
         12    1    4    4    0    0  0.22876810470E+02  0.12088130949E+02  0.17612397057E+03  0.17801439373E+03  0.00000000000E+00 0. -1.
        -13    1    3    3    0    0  0.80893987695E+01 -0.31218950263E+02  0.14682703494E+03  0.15032710806E+03  0.00000000000E+00 0.  1.
         13    1    3    3    0    0  0.91464941580E+01  0.59572223395E+02  0.19886477758E+03  0.20779727601E+03  0.00000000000E+00 0. -1.
          1    1    1    2  501    0 -0.22191347839E+02 -0.92031123364E+01  0.18578171885E+03  0.18732858899E+03  0.00000000000E+00 0. -1.
<scales pt_clust_5="13000.00000" pt_clust_6="13000.00000" pt_clust_7="13000.00000" pt_clust_8="13000.00000" pt_clust_9="24.02402"></scales>
<clustering>
<clus scale="   24.024">  2  9  1 -1</clus>
<clus scale="   79.385">  5  6 -1 -1</clus>
<clus scale="   83.273">  2  5  1 -1</clus>
<clus scale="   87.460">  7  8 -1 -1</clus>
<clus scale="   24.024">  2  5  1 -1</clus>
</clustering>
</event>
<event>
 9    2  0.4883225E-005  0.2066866E+03  0.7546771E-02  0.1145063E+00
         21   -1    0    0  501  502  0.00000000000E+00  0.00000000000E+00  0.14892293382E+03  0.14892293382E+03  0.00000000000E+00 0. -1.
          2   -1    0    0  502    0 -0.00000000000E+00 -0.00000000000E+00 -0.42075588579E+03  0.42075588579E+03  0.00000000000E+00 0. -1.
         24    2    1    2    0    0  0.10273461271E+02  0.18561387112E+03 -0.23324370067E+03  0.30906686951E+03  0.81004029350E+02 0.  0.
         23    2    1    2    0    0 -0.54232032147E+02 -0.18078795226E+03 -0.13846945782E+02  0.20993821796E+03  0.90867598512E+02 0.  0.
        -11    1    3    3    0    0  0.43043831043E+01  0.23963742894E+02  0.10346675318E+01  0.24369226994E+02  0.00000000000E+00 0.  1.
         12    1    3    3    0    0  0.59690781662E+01  0.16165012822E+03 -0.23427836820E+03  0.28469764252E+03  0.00000000000E+00 0. -1.
        -13    1    4    4    0    0 -0.25595263371E+02 -0.14686047542E+02  0.22989665738E+02  0.37407515691E+02  0.00000000000E+00 0.  1.
         13    1    4    4    0    0 -0.28636768776E+02 -0.16610190472E+03 -0.36836611520E+02  0.17253070227E+03  0.00000000000E+00 0. -1.
          1    1    1    2  501    0  0.43958570877E+02 -0.48259188521E+01 -0.24742305525E+02  0.50673732140E+02  0.00000000000E+00 0. -1.
<scales pt_clust_5="13000.00000" pt_clust_6="13000.00000" pt_clust_7="13000.00000" pt_clust_8="13000.00000" pt_clust_9="44.22270"></scales>
<clustering>
<clus scale="   44.223">  1  9  2 -1</clus>
<clus scale="   81.004">  5  6 -1 -1</clus>
<clus scale="   90.868">  7  8 -1 -1</clus>
<clus scale="  202.544">  2  5  1 -1</clus>
<clus scale="   44.223">  1  5  2 -1</clus>
</clustering>
</event>
<event>
 9    2  0.4883225E-005  0.1010308E+03  0.7546771E-02  0.1280071E+00
         -1   -1    0    0    0  501 -0.00000000000E+00  0.00000000000E+00  0.14690705821E+03  0.14690705821E+03  0.00000000000E+00 0.  1.
         21   -1    0    0  501  502  0.00000000000E+00 -0.00000000000E+00 -0.28431702878E+03  0.28431702878E+03  0.00000000000E+00 0.  1.
         24    2    1    2    0    0 -0.17196419883E+02 -0.35168771496E+02  0.74173767793E+02  0.12132137244E+03  0.87661669139E+02 0.  0.
         23    2    1    2    0    0 -0.37832238292E+02  0.66274431612E+02 -0.38053562422E+02  0.12521801764E+03  0.91694600654E+02 0.  0.
        -13    1    3    3    0    0 -0.29799601527E+02 -0.47942518883E+02  0.13488061945E+02  0.58038170053E+02  0.00000000000E+00 0.  1.
         14    1    3    3    0    0  0.12603181644E+02  0.12773747387E+02  0.60685705848E+02  0.63283202385E+02  0.00000000000E+00 0. -1.
        -13    1    4    4    0    0 -0.29154335981E+02  0.29493045030E+02 -0.66186144119E+02  0.78105189872E+02  0.00000000000E+00 0.  1.
         13    1    4    4    0    0 -0.86779023111E+01  0.36781386582E+02  0.28132581696E+02  0.47112827769E+02  0.00000000000E+00 0. -1.
         -2    1    1    2    0  502  0.55028658174E+02 -0.31105660116E+02 -0.17353017594E+03  0.18468469691E+03  0.00000000000E+00 0.  1.
<scales pt_clust_5="13000.00000" pt_clust_6="13000.00000" pt_clust_7="13000.00000" pt_clust_8="13000.00000" pt_clust_9="63.21167"></scales>
<clustering>
<clus scale="   63.212">  2  9  1 -1</clus>
<clus scale="   87.662">  5  6 -1 -1</clus>
<clus scale="   91.695">  7  8 -1 -1</clus>
<clus scale="   97.385">  1  5  2 -1</clus>
<clus scale="   63.212">  2  5  1 -1</clus>
</clustering>
</event>
<event>
 9    2  0.4883225E-005  0.9734780E+02  0.7546771E-02  0.1294989E+00
          4   -1    0    0  502    0 -0.00000000000E+00  0.00000000000E+00  0.13300136591E+03  0.13300136591E+03  0.00000000000E+00 0. -1.
         21   -1    0    0  501  502  0.00000000000E+00 -0.00000000000E+00 -0.14707603244E+03  0.14707603244E+03  0.00000000000E+00 0.  1.
         23    2    1    2    0    0 -0.98440770627E+01  0.82306583258E+01  0.81990794646E+02  0.12711198799E+03  0.96282487992E+02 0.  0.
         24    2    1    2    0    0 -0.96609455678E+01 -0.32598583777E+02 -0.70203474345E+02  0.11243043705E+03  0.80969585842E+02 0.  0.
        -11    1    4    4    0    0  0.17500393240E+02 -0.23122113884E+02 -0.77504226477E+02  0.82751441291E+02  0.00000000000E+00 0.  1.
         12    1    4    4    0    0 -0.27161338808E+02 -0.94764698926E+01  0.73007521322E+01  0.29678995757E+02  0.00000000000E+00 0. -1.
        -11    1    3    3    0    0 -0.39164178743E+02  0.38241275560E+02  0.52355222197E+02  0.75744949300E+02  0.00000000000E+00 0. -1.
         11    1    3    3    0    0  0.29320101680E+02 -0.30010617234E+02  0.29635572448E+02  0.51367038689E+02  0.00000000000E+00 0.  1.
          3    1    1    2  501    0  0.19505022631E+02  0.24367925451E+02 -0.25861986829E+02  0.40534973311E+02  0.00000000000E+00 0. -1.
<scales pt_clust_5="13000.00000" pt_clust_6="13000.00000" pt_clust_7="13000.00000" pt_clust_8="13000.00000" pt_clust_9="31.21285"></scales>
<clustering>
<clus scale="   31.213">  2  9  1 -1</clus>
<clus scale="   80.970">  5  6 -1 -1</clus>
<clus scale="   82.234">  2  5  1 -1</clus>
<clus scale="   96.282">  7  8 -1 -1</clus>
<clus scale="   31.213">  2  5  1 -1</clus>
</clustering>
</event>
<event>
 9    2  0.4883225E-005  0.1004526E+03  0.7546771E-02  0.1288790E+00
          2   -1    0    0  502    0 -0.00000000000E+00  0.00000000000E+00  0.82379316427E+03  0.82379316427E+03  0.00000000000E+00 0. -1.
         21   -1    0    0  501  502  0.00000000000E+00 -0.00000000000E+00 -0.62140075727E+02  0.62140075727E+02  0.00000000000E+00 0. -1.
         24    2    1    2    0    0  0.26985555317E+02 -0.31088617904E+02  0.43490641614E+03  0.44355864360E+03  0.76850225459E+02 0.  0.
         23    2    1    2    0    0 -0.42405143512E+02 -0.28187844504E+02  0.35789898245E+03  0.37365830200E+03  0.94530916837E+02 0.  0.
        -11    1    3    3    0    0  0.18214334135E+02  0.23413540655E+02  0.10690757220E+03  0.11094676582E+03  0.00000000000E+00 0.  1.
         12    1    3    3    0    0  0.87712211817E+01 -0.54502158559E+02  0.32799884394E+03  0.33261187777E+03  0.00000000000E+00 0. -1.
        -11    1    4    4    0    0  0.20652749248E+02  0.15870051283E+02  0.14425474380E+03  0.14658726305E+03  0.00000000000E+00 0. -1.
         11    1    4    4    0    0 -0.63057892760E+02 -0.44057895788E+02  0.21364423865E+03  0.22707103895E+03  0.00000000000E+00 0.  1.
          1    1    1    2  501    0  0.15419588195E+02  0.59276462408E+02 -0.31152310044E+02  0.68716294405E+02  0.00000000000E+00 0. -1.
<scales pt_clust_5="13000.00000" pt_clust_6="13000.00000" pt_clust_7="13000.00000" pt_clust_8="13000.00000" pt_clust_9="61.24919"></scales>
<clustering>
<clus scale="   61.249">  2  9  1 -1</clus>
<clus scale="   76.850">  5  6 -1 -1</clus>
<clus scale="   84.027">  1  5  2 -1</clus>
<clus scale="   94.531">  7  8 -1 -1</clus>
<clus scale="   61.249">  2  5  1 -1</clus>
</clustering>
</event>
<event>
 9    2  0.4883225E-005  0.1835966E+03  0.7546771E-02  0.1166135E+00
          2   -1    0    0  502    0 -0.00000000000E+00  0.00000000000E+00  0.91577023168E+03  0.91577023168E+03  0.00000000000E+00 0. -1.
         21   -1    0    0  501  502  0.00000000000E+00 -0.00000000000E+00 -0.12699985147E+03  0.12699985147E+03  0.00000000000E+00 0.  1.
         23    2    1    2    0    0  0.12891033379E+03  0.11365739508E+03  0.77387555319E+03  0.79817814240E+03  0.93107988707E+02 0.  0.
         24    2    1    2    0    0 -0.11102899745E+03 -0.32100643230E+02  0.57753672132E+02  0.15074032080E+03  0.77648361866E+02 0.  0.
        -13    1    4    4    0    0 -0.11468208682E+03 -0.24859022797E+02  0.29015488337E+02  0.12087948799E+03  0.00000000000E+00 0.  1.
         14    1    4    4    0    0  0.36530893765E+01 -0.72416204334E+01  0.28738183795E+02  0.29860832814E+02  0.00000000000E+00 0. -1.
        -11    1    3    3    0    0  0.43117311971E+02  0.29620798804E+02  0.92214338758E+02  0.10601876525E+03  0.00000000000E+00 0.  1.
         11    1    3    3    0    0  0.85793021817E+02  0.84036596281E+02  0.68166121443E+03  0.69215937714E+03  0.00000000000E+00 0. -1.
          1    1    1    2  501    0 -0.17881336340E+02 -0.81556751854E+02 -0.42858845115E+02  0.93851619948E+02  0.00000000000E+00 0. -1.
<scales pt_clust_5="13000.00000" pt_clust_6="13000.00000" pt_clust_7="13000.00000" pt_clust_8="13000.00000" pt_clust_9="83.49399"></scales>
<clustering>
<clus scale="   77.648">  5  6 -1 -1</clus>
<clus scale="   83.494">  2  9  1 -1</clus>
<clus scale="   93.108">  7  8 -1 -1</clus>
<clus scale="  176.261">  2  5  1 -1</clus>
<clus scale="   83.494">  2  5  1 -1</clus>
</clustering>
</event>
<event>
 9    2  0.4883225E-005  0.1291170E+03  0.7546771E-02  0.1232149E+00
         -3   -1    0    0    0  501 -0.00000000000E+00  0.00000000000E+00  0.38974572708E+03  0.38974572708E+03  0.00000000000E+00 0.  1.
         21   -1    0    0  501  502  0.00000000000E+00 -0.00000000000E+00 -0.66415656794E+02  0.66415656794E+02  0.00000000000E+00 0. -1.
         24    2    1    2    0    0  0.11188215228E+03  0.38939393547E+01  0.20781627030E+03  0.24957339091E+03  0.81033921829E+02 0.  0.
         23    2    1    2    0    0 -0.62927432195E+02  0.36451103471E+01  0.10867914610E+03  0.15658684914E+03  0.93461949342E+02 0.  0.
        -11    1    3    3    0    0  0.68835707506E+02 -0.26117910255E+02  0.16887821973E+03  0.18422907741E+03  0.00000000000E+00 0.  1.
         12    1    3    3    0    0  0.43046444778E+02  0.30011849610E+02  0.38938050569E+02  0.65344313503E+02  0.00000000000E+00 0. -1.
        -13    1    4    4    0    0 -0.49337556614E+02 -0.31483414768E+02  0.22800414612E+02  0.62811295199E+02  0.00000000000E+00 0. -1.
         13    1    4    4    0    0 -0.13589875581E+02  0.35128525115E+02  0.85878731489E+02  0.93775553942E+02  0.00000000000E+00 0.  1.
         -4    1    1    2    0  502 -0.48954720090E+02 -0.75390497018E+01  0.68346538848E+01  0.50001143819E+02  0.00000000000E+00 0.  1.
<scales pt_clust_5="13000.00000" pt_clust_6="13000.00000" pt_clust_7="13000.00000" pt_clust_8="13000.00000" pt_clust_9="49.53183"></scales>
<clustering>
<clus scale="   49.532">  2  9  1 -1</clus>
<clus scale="   81.034">  5  6 -1 -1</clus>
<clus scale="   93.462">  7  8 -1 -1</clus>
<clus scale="  120.427">  1  5  2 -1</clus>
<clus scale="   49.532">  2  5  1 -1</clus>
</clustering>
</event>
<event>
 9    2  0.4883225E-005  0.1313719E+03  0.7546771E-02  0.1227837E+00
          4   -1    0    0  502    0 -0.00000000000E+00  0.00000000000E+00  0.81710380893E+02  0.81710380893E+02  0.00000000000E+00 0. -1.
         21   -1    0    0  501  502  0.00000000000E+00 -0.00000000000E+00 -0.35663736719E+03  0.35663736719E+03  0.00000000000E+00 0.  1.
         24    2    1    2    0    0  0.40683463853E+02 -0.70361776292E+02 -0.10836648516E+03  0.15894880294E+03  0.83159503705E+02 0.  0.
         23    2    1    2    0    0 -0.79299874688E+02  0.81848171282E+02 -0.18410929897E+03  0.23545438051E+03  0.92492908207E+02 0.  0.
        -11    1    3    3    0    0  0.65139084117E+02 -0.54024724380E+02 -0.65741661971E+02  0.10716220062E+03  0.00000000000E+00 0.  1.
         12    1    3    3    0    0 -0.24455620264E+02 -0.16337051912E+02 -0.42624823186E+02  0.51786602315E+02  0.00000000000E+00 0. -1.
        -11    1    4    4    0    0 -0.17605349391E+02  0.64217648952E+02 -0.14688736301E+03  0.16127539234E+03  0.00000000000E+00 0.  1.
         11    1    4    4    0    0 -0.61694525297E+02  0.17630522331E+02 -0.37221935960E+02  0.74178988170E+02  0.00000000000E+00 0. -1.
          3    1    1    2  501    0  0.38616410835E+02 -0.11486394990E+02  0.17548797826E+02  0.43944564633E+02  0.00000000000E+00 0. -1.
<scales pt_clust_5="13000.00000" pt_clust_6="13000.00000" pt_clust_7="13000.00000" pt_clust_8="13000.00000" pt_clust_9="40.28854"></scales>
<clustering>
<clus scale="   40.289">  2  9  1 -1</clus>
<clus scale="   83.160">  5  6 -1 -1</clus>
<clus scale="   92.493">  7  8 -1 -1</clus>
<clus scale="  124.977">  1  5  2 -1</clus>
<clus scale="   40.289">  2  5  1 -1</clus>
</clustering>
</event>
<event>
 9    2  0.4883225E-005  0.1194670E+03  0.7546771E-02  0.1245356E+00
         21   -1    0    0  501  502  0.00000000000E+00  0.00000000000E+00  0.17303909171E+03  0.17303909171E+03  0.00000000000E+00 0. -1.
          2   -1    0    0  502    0 -0.00000000000E+00 -0.00000000000E+00 -0.31743087935E+03  0.31743087935E+03  0.00000000000E+00 0. -1.
         24    2    1    2    0    0 -0.22435483784E+02 -0.78662049425E+02 -0.22292615109E+03  0.25290120107E+03  0.87016548498E+02 0.  0.
         23    2    1    2    0    0  0.87541332819E+02  0.24579184642E+02  0.11110839185E+02  0.12935759004E+03  0.91336269268E+02 0.  0.
        -11    1    3    3    0    0  0.22571401573E+02  0.43476685783E+00 -0.18694234221E+02  0.29310946493E+02  0.00000000000E+00 0.  1.
         12    1    3    3    0    0 -0.45006885358E+02 -0.79096816283E+02 -0.20423191687E+03  0.22359025458E+03  0.00000000000E+00 0. -1.
        -13    1    4    4    0    0  0.55595310559E+02  0.11937144029E+02  0.51230949619E+02  0.76537207701E+02  0.00000000000E+00 0.  1.
         13    1    4    4    0    0  0.31946022260E+02  0.12642040613E+02 -0.40120110434E+02  0.52820382338E+02  0.00000000000E+00 0. -1.
          1    1    1    2  501    0 -0.65105849035E+02  0.54082864783E+02  0.67423524264E+02  0.10821117995E+03  0.00000000000E+00 0. -1.
<scales pt_clust_5="13000.00000" pt_clust_6="13000.00000" pt_clust_7="13000.00000" pt_clust_8="13000.00000" pt_clust_9="84.63881"></scales>
<clustering>
<clus scale="   84.639">  1  9  2 -1</clus>
<clus scale="   87.017">  5  6 -1 -1</clus>
<clus scale="   91.336">  7  8 -1 -1</clus>
<clus scale="  116.198">  2  5  1 -1</clus>
<clus scale="   84.639">  1  5  2 -1</clus>
</clustering>
</event>
<event>
 9    2  0.4883225E-005  0.9722936E+02  0.7546771E-02  0.1287515E+00
          2   -1    0    0  502    0 -0.00000000000E+00  0.00000000000E+00  0.21669225081E+03  0.21669225081E+03  0.00000000000E+00 0. -1.
         21   -1    0    0  501  502  0.00000000000E+00 -0.00000000000E+00 -0.56663469707E+02  0.56663469707E+02  0.00000000000E+00 0. -1.
         24    2    1    2    0    0 -0.27956323370E+02 -0.36722832235E+02  0.93855976377E+02  0.13646778980E+03  0.87660657806E+02 0.  0.
         23    2    1    2    0    0  0.46121611774E+01  0.39412590946E+02  0.40969881829E+02  0.10242966563E+03  0.85080437400E+02 0.  0.
        -13    1    3    3    0    0 -0.23558463662E+02  0.16294007646E+02  0.70263231370E-01  0.28644385701E+02  0.00000000000E+00 0.  1.
         14    1    3    3    0    0 -0.43978597080E+01 -0.53016839880E+02  0.93785713146E+02  0.10782340410E+03  0.00000000000E+00 0. -1.
        -11    1    4    4    0    0  0.69328322984E+01 -0.26584012735E+02  0.79689554771E+01  0.28605561491E+02  0.00000000000E+00 0.  1.
         11    1    4    4    0    0 -0.23206711210E+01  0.65996603681E+02  0.33000926351E+02  0.73824104139E+02  0.00000000000E+00 0. -1.
          1    1    1    2  501    0  0.23344162192E+02 -0.26897587113E+01  0.25202922901E+02  0.34458265092E+02  0.00000000000E+00 0. -1.
<scales pt_clust_5="13000.00000" pt_clust_6="13000.00000" pt_clust_7="13000.00000" pt_clust_8="13000.00000" pt_clust_9="23.49862"></scales>
<clustering>
<clus scale="   23.499">  2  9  1 -1</clus>
<clus scale="   85.080">  7  8 -1 -1</clus>
<clus scale="   87.661">  5  6 -1 -1</clus>
<clus scale="   94.910">  2  7  1 -1</clus>
<clus scale="   23.499">  2  5  1 -1</clus>
</clustering>
</event>
<event>
 9    2  0.4883225E-005  0.1684815E+03  0.7546771E-02  0.1181298E+00
         21   -1    0    0  501  502  0.00000000000E+00  0.00000000000E+00  0.14743081324E+03  0.14743081324E+03  0.00000000000E+00 0.  1.
          2   -1    0    0  502    0 -0.00000000000E+00 -0.00000000000E+00 -0.25699649693E+03  0.25699649693E+03  0.00000000000E+00 0. -1.
         23    2    1    2    0    0  0.19674107965E+02 -0.15035243180E+03 -0.60536571985E+02  0.18735974467E+03  0.91902519564E+02 0.  0.
         24    2    1    2    0    0 -0.21452104436E+02  0.12602118788E+03  0.12804768733E+02  0.15059501875E+03  0.78570764222E+02 0.  0.
        -13    1    4    4    0    0  0.10874281813E+02  0.31528243439E+02  0.34939897488E+02  0.48301931388E+02  0.00000000000E+00 0.  1.
         14    1    4    4    0    0 -0.32326386249E+02  0.94492944442E+02 -0.22135128754E+02  0.10229308736E+03  0.00000000000E+00 0. -1.
        -13    1    3    3    0    0  0.19890694244E+02  0.61143257775E+01 -0.83014434078E+01  0.22403987588E+02  0.00000000000E+00 0. -1.
         13    1    3    3    0    0 -0.21658627808E+00 -0.15646675758E+03 -0.52235128577E+02  0.16495575708E+03  0.00000000000E+00 0.  1.
          1    1    1    2  501    0  0.17779964710E+01  0.24331243918E+02 -0.61833880439E+02  0.66472546756E+02  0.00000000000E+00 0. -1.
<scales pt_clust_5="13000.00000" pt_clust_6="13000.00000" pt_clust_7="13000.00000" pt_clust_8="13000.00000" pt_clust_9="24.39613"></scales>
<clustering>
<clus scale="   24.396">  1  9  2 -1</clus>
<clus scale="   78.571">  5  6 -1 -1</clus>
<clus scale="   91.903">  7  8 -1 -1</clus>
<clus scale="  161.596">  1  5  2 -1</clus>
<clus scale="   24.396">  1  5  2 -1</clus>
</clustering>
</event>
<event>
 9    2  0.4883225E-005  0.1025892E+03  0.7546771E-02  0.1281590E+00
         21   -1    0    0  501  502  0.00000000000E+00  0.00000000000E+00  0.55460245303E+02  0.55460245303E+02  0.00000000000E+00 0.  1.
          2   -1    0    0  502    0 -0.00000000000E+00 -0.00000000000E+00 -0.15945954799E+04  0.15945954799E+04  0.00000000000E+00 0. -1.
         24    2    1    2    0    0 -0.41888448355E+02 -0.64144713332E+01 -0.15056490141E+04  0.15083996161E+04  0.80589457591E+02 0.  0.
         23    2    1    2    0    0  0.14211730585E+01  0.14544613854E+02 -0.31649113696E+02  0.10033935042E+03  0.94089071199E+02 0.  0.
        -11    1    3    3    0    0 -0.16458558869E+02 -0.18883578842E+02 -0.12631285269E+03  0.12877270854E+03  0.00000000000E+00 0.  1.
         12    1    3    3    0    0 -0.25429889487E+02  0.12469107508E+02 -0.13793361614E+04  0.13796269076E+04  0.00000000000E+00 0. -1.
        -13    1    4    4    0    0  0.30324363526E+02 -0.29019880364E+02 -0.21207061552E+02  0.47026162285E+02  0.00000000000E+00 0. -1.
         13    1    4    4    0    0 -0.28903190467E+02  0.43564494218E+02 -0.10442052144E+02  0.53313188130E+02  0.00000000000E+00 0.  1.
          1    1    1    2  501    0  0.40467275297E+02 -0.81301425203E+01 -0.18371068173E+01  0.41316758692E+02  0.00000000000E+00 0. -1.
<scales pt_clust_5="13000.00000" pt_clust_6="13000.00000" pt_clust_7="13000.00000" pt_clust_8="13000.00000" pt_clust_9="41.27590"></scales>
<clustering>
<clus scale="   41.276">  1  9  2 -1</clus>
<clus scale="   80.589">  5  6 -1 -1</clus>
<clus scale="   90.368">  2  5  1 -1</clus>
<clus scale="   94.089">  7  8 -1 -1</clus>
<clus scale="   41.276">  1  5  2 -1</clus>
</clustering>
</event>
<event>
 9    2  0.4883225E-005  0.1208891E+03  0.7546771E-02  0.1246495E+00
          2   -1    0    0  502    0 -0.00000000000E+00  0.00000000000E+00  0.74466860370E+03  0.74466860370E+03  0.00000000000E+00 0. -1.
         21   -1    0    0  501  502  0.00000000000E+00 -0.00000000000E+00 -0.10791475493E+03  0.10791475493E+03  0.00000000000E+00 0. -1.
         24    2    1    2    0    0 -0.75992869789E+02  0.30278264098E+02  0.64971677844E+03  0.65979707079E+03  0.80675850766E+02 0.  0.
         23    2    1    2    0    0  0.25489977131E+02  0.27935646284E+02  0.26746205253E+02  0.10609016956E+03  0.95444357162E+02 0.  0.
        -13    1    3    3    0    0 -0.22643293338E+02  0.37708561198E+02  0.12880903261E+03  0.13611179670E+03  0.00000000000E+00 0.  1.
         14    1    3    3    0    0 -0.53349576451E+02 -0.74302971000E+01  0.52090774583E+03  0.52368527408E+03  0.00000000000E+00 0. -1.
        -11    1    4    4    0    0 -0.27229813775E+02 -0.69573306496E+01 -0.13466000652E+02  0.31164088010E+02  0.00000000000E+00 0.  1.
         11    1    4    4    0    0  0.52719790906E+02  0.34892976934E+02  0.40212205905E+02  0.74926081549E+02  0.00000000000E+00 0. -1.
          1    1    1    2  501    0  0.50502892658E+02 -0.58213910382E+02 -0.39709134922E+02  0.86696118281E+02  0.00000000000E+00 0. -1.
<scales pt_clust_5="13000.00000" pt_clust_6="13000.00000" pt_clust_7="13000.00000" pt_clust_8="13000.00000" pt_clust_9="77.06751"></scales>
<clustering>
<clus scale="   77.068">  2  9  1 -1</clus>
<clus scale="   80.676">  5  6 -1 -1</clus>
<clus scale="   95.444">  7  8 -1 -1</clus>
<clus scale="  109.604">  1  5  2 -1</clus>
<clus scale="   77.068">  2  5  1 -1</clus>
</clustering>
</event>
<event>
 9    2  0.4883225E-005  0.1295876E+03  0.7546771E-02  0.1231660E+00
          2   -1    0    0  502    0 -0.00000000000E+00  0.00000000000E+00  0.35863841978E+03  0.35863841978E+03  0.00000000000E+00 0. -1.
         21   -1    0    0  501  502  0.00000000000E+00 -0.00000000000E+00 -0.69924270774E+02  0.69924270774E+02  0.00000000000E+00 0.  1.
         23    2    1    2    0    0  0.44303736757E+02  0.85654171333E+02  0.25606897625E+03  0.28880312559E+03  0.92393000804E+02 0.  0.
         24    2    1    2    0    0 -0.31473213336E+02 -0.67338327498E+02  0.11511856540E+02  0.10899091987E+03  0.78876385976E+02 0.  0.
        -11    1    4    4    0    0 -0.28715910262E+02 -0.91235102998E+01 -0.25903320188E+02  0.39734417564E+02  0.00000000000E+00 0.  1.
         12    1    4    4    0    0 -0.27573030745E+01 -0.58214817198E+02  0.37415176729E+02  0.69256502304E+02  0.00000000000E+00 0. -1.
        -11    1    3    3    0    0  0.51951462824E+02  0.84797615857E+01  0.13637244218E+03  0.14617901297E+03  0.00000000000E+00 0.  1.
         11    1    3    3    0    0 -0.76477260676E+01  0.77174409747E+02  0.11969653407E+03  0.14262411263E+03  0.00000000000E+00 0. -1.
          1    1    1    2  501    0 -0.12830523420E+02 -0.18315843835E+02  0.21133316214E+02  0.30768645093E+02  0.00000000000E+00 0. -1.
<scales pt_clust_5="13000.00000" pt_clust_6="13000.00000" pt_clust_7="13000.00000" pt_clust_8="13000.00000" pt_clust_9="22.36276"></scales>
<clustering>
<clus scale="   22.363">  2  9  1 -1</clus>
<clus scale="   78.876">  5  6 -1 -1</clus>
<clus scale="   92.393">  7  8 -1 -1</clus>
<clus scale="  120.324">  2  5  1 -1</clus>
<clus scale="   22.363">  2  5  1 -1</clus>
</clustering>
</event>
<event>
 9    2  0.4883225E-005  0.2032962E+03  0.7546771E-02  0.1186113E+00
         -3   -1    0    0    0  501 -0.00000000000E+00  0.00000000000E+00  0.20676619752E+03  0.20676619752E+03  0.00000000000E+00 0.  1.
         21   -1    0    0  501  502  0.00000000000E+00 -0.00000000000E+00 -0.44555738627E+03  0.44555738627E+03  0.00000000000E+00 0.  1.
         24    2    1    2    0    0  0.82649887201E+01  0.31083483638E+02  0.10574713024E+03  0.13418511257E+03  0.76083479733E+02 0.  0.
         23    2    1    2    0    0 -0.18291188577E+03  0.17275531467E+02 -0.16853655434E+03  0.26551868943E+03  0.91325803287E+02 0.  0.
        -13    1    3    3    0    0  0.38984541175E+02  0.33431354448E+02  0.59277770856E+02  0.78430249448E+02  0.00000000000E+00 0.  1.
         14    1    3    3    0    0 -0.30719552455E+02 -0.23478708092E+01  0.46469359381E+02  0.55754863121E+02  0.00000000000E+00 0. -1.
        -11    1    4    4    0    0 -0.78854039289E+02  0.25308069079E+02 -0.13025315002E+03  0.15435135556E+03  0.00000000000E+00 0.  1.
         11    1    4    4    0    0 -0.10405784648E+03 -0.80325376114E+01 -0.38283404323E+02  0.11116733388E+03  0.00000000000E+00 0. -1.
         -4    1    1    2    0  502  0.17464689705E+03 -0.48359015106E+02 -0.17600176464E+03  0.25261978178E+03  0.00000000000E+00 0.  1.
<scales pt_clust_5="13000.00000" pt_clust_6="13000.00000" pt_clust_7="13000.00000" pt_clust_8="13000.00000" pt_clust_9="181.62856"></scales>
<clustering>
<clus scale="   76.083">  5  6 -1 -1</clus>
<clus scale="   82.603">  1  5  2 -1</clus>
<clus scale="   91.326">  7  8 -1 -1</clus>
<clus scale="  181.629">  2  9  1 -1</clus>
<clus scale="  181.629">  2  5  1 -1</clus>
</clustering>
</event>
<event>
 9    2  0.4883225E-005  0.8907301E+02  0.7546771E-02  0.1308562E+00
         21   -1    0    0  501  502  0.00000000000E+00  0.00000000000E+00  0.27144122246E+02  0.27144122246E+02  0.00000000000E+00 0. -1.
          2   -1    0    0  502    0 -0.00000000000E+00 -0.00000000000E+00 -0.59208828132E+03  0.59208828132E+03  0.00000000000E+00 0. -1.
         24    2    1    2    0    0  0.71213871130E+01  0.73018975789E+00 -0.21897244896E+03  0.23369491567E+03  0.81321171137E+02 0.  0.
         23    2    1    2    0    0 -0.37255175118E+01  0.58177507842E+02 -0.16685950382E+03  0.19695638807E+03  0.86897772630E+02 0.  0.
        -13    1    3    3    0    0  0.35462894548E+02 -0.17352688710E+02 -0.64641390088E+02  0.75744584016E+02  0.00000000000E+00 0.  1.
         14    1    3    3    0    0 -0.28341507435E+02  0.18082878468E+02 -0.15433105887E+03  0.15795033166E+03  0.00000000000E+00 0. -1.
        -11    1    4    4    0    0 -0.19592296571E+02  0.31373127148E+02 -0.16108510109E+03  0.16527716414E+03  0.00000000000E+00 0.  1.
         11    1    4    4    0    0  0.15866779059E+02  0.26804380694E+02 -0.57744027267E+01  0.31679223932E+02  0.00000000000E+00 0. -1.
          1    1    1    2  501    0 -0.33958696011E+01 -0.58907697599E+02 -0.17911220630E+03  0.18858109983E+03  0.00000000000E+00 0. -1.
<scales pt_clust_5="13000.00000" pt_clust_6="13000.00000" pt_clust_7="13000.00000" pt_clust_8="13000.00000" pt_clust_9="59.00553"></scales>
<clustering>
<clus scale="   59.006">  1  9  2 -1</clus>
<clus scale="   81.321">  5  6 -1 -1</clus>
<clus scale="   83.642">  2  5  1 -1</clus>
<clus scale="   86.898">  7  8 -1 -1</clus>
<clus scale="   59.006">  1  5  2 -1</clus>
</clustering>
</event>
<event>
 9    2  0.4883225E-005  0.1052485E+03  0.7546771E-02  0.1271975E+00
         21   -1    0    0  501  502  0.00000000000E+00  0.00000000000E+00  0.39682257524E+02  0.39682257524E+02  0.00000000000E+00 0.  1.
          2   -1    0    0  502    0 -0.00000000000E+00 -0.00000000000E+00 -0.83983710045E+03  0.83983710045E+03  0.00000000000E+00 0. -1.
         24    2    1    2    0    0  0.48398639073E+02 -0.32787364202E+02 -0.51578250690E+03  0.52632167117E+03  0.86979696497E+02 0.  0.
         23    2    1    2    0    0 -0.12053006816E+02  0.43339516932E+02 -0.29623675347E+03  0.31353514386E+03  0.92328130206E+02 0.  0.
        -11    1    3    3    0    0  0.54516360854E+02  0.14765131806E+02 -0.25666814250E+03  0.26280901448E+03  0.00000000000E+00 0.  1.
         12    1    3    3    0    0 -0.61177217808E+01 -0.47552496009E+02 -0.25911436440E+03  0.26351265669E+03  0.00000000000E+00 0. -1.
        -11    1    4    4    0    0  0.38713008807E+02  0.91560254010E+01 -0.89795261921E+02  0.98212620959E+02  0.00000000000E+00 0.  1.
         11    1    4    4    0    0 -0.50766015623E+02  0.34183491531E+02 -0.20644149155E+03  0.21532252290E+03  0.00000000000E+00 0. -1.
          1    1    1    2  501    0 -0.36345632256E+02 -0.10552152729E+02  0.11864417447E+02  0.39662542943E+02  0.00000000000E+00 0. -1.
<scales pt_clust_5="13000.00000" pt_clust_6="13000.00000" pt_clust_7="13000.00000" pt_clust_8="13000.00000" pt_clust_9="37.84644"></scales>
<clustering>
<clus scale="   37.846">  1  9  2 -1</clus>
<clus scale="   86.980">  5  6 -1 -1</clus>
<clus scale="   92.328">  7  8 -1 -1</clus>
<clus scale="  100.589">  2  5  1 -1</clus>
<clus scale="   37.846">  1  5  2 -1</clus>
</clustering>
</event>
<event>
 9    2  0.4883225E-005  0.2113565E+03  0.7546771E-02  0.1141259E+00
          2   -1    0    0  502    0 -0.00000000000E+00  0.00000000000E+00  0.17223309060E+04  0.17223309060E+04  0.00000000000E+00 0. -1.
         21   -1    0    0  501  502  0.00000000000E+00 -0.00000000000E+00 -0.81494747424E+02  0.81494747424E+02  0.00000000000E+00 0. -1.
         24    2    1    2    0    0 -0.15895420735E+03 -0.73193187802E+02  0.95322674857E+03  0.97244782043E+03  0.79936515390E+02 0.  0.
         23    2    1    2    0    0  0.25132774614E+03  0.16006258641E+03  0.33749806332E+03  0.45901091964E+03  0.89445033697E+02 0.  0.
        -11    1    3    3    0    0 -0.18444090728E+02 -0.40076270340E+02  0.15006017126E+03  0.15641082739E+03  0.00000000000E+00 0.  1.
         12    1    3    3    0    0 -0.14051011662E+03 -0.33116917461E+02  0.80316657731E+03  0.81603699303E+03  0.00000000000E+00 0. -1.
        -13    1    4    4    0    0  0.10355090851E+03  0.52031571635E+02  0.19578787032E+03  0.22751475834E+03  0.00000000000E+00 0.  1.
         13    1    4    4    0    0  0.14777683763E+03  0.10803101478E+03  0.14171019300E+03  0.23149616129E+03  0.00000000000E+00 0. -1.
          1    1    1    2  501    0 -0.92373538792E+02 -0.86869398610E+02  0.35011134666E+03  0.37236691333E+03  0.00000000000E+00 0. -1.
<scales pt_clust_5="13000.00000" pt_clust_6="13000.00000" pt_clust_7="13000.00000" pt_clust_8="13000.00000" pt_clust_9="126.80370"></scales>
<clustering>
<clus scale="   79.937">  5  6 -1 -1</clus>
<clus scale="   89.445">  7  8 -1 -1</clus>
<clus scale="  126.804">  2  9  1 -1</clus>
<clus scale="  207.511">  1  5  2 -1</clus>
<clus scale="  126.804">  2  5  1 -1</clus>
</clustering>
</event>
<event>
 9    2  0.4883225E-005  0.1849347E+03  0.7546771E-02  0.1181018E+00
          2   -1    0    0  502    0 -0.00000000000E+00  0.00000000000E+00  0.10968410336E+04  0.10968410336E+04  0.00000000000E+00 0. -1.
         21   -1    0    0  501  502  0.00000000000E+00 -0.00000000000E+00 -0.81141813155E+02  0.81141813155E+02  0.00000000000E+00 0.  1.
         24    2    1    2    0    0 -0.92142156427E+02 -0.72443626047E+01  0.60899460311E+03  0.62128376225E+03  0.81095183841E+02 0.  0.
         23    2    1    2    0    0  0.13986948890E+03  0.12483873094E+03  0.11184870764E+03  0.23569076497E+03  0.88835919661E+02 0.  0.
        -11    1    3    3    0    0 -0.44317558536E+02  0.32228319851E+02  0.19066366322E+03  0.19838181133E+03  0.00000000000E+00 0.  1.
         12    1    3    3    0    0 -0.47824597891E+02 -0.39472682456E+02  0.41833093989E+03  0.42290195092E+03  0.00000000000E+00 0. -1.
        -11    1    4    4    0    0  0.45506369820E+02  0.11149308805E+01  0.26537300074E+01  0.45597314044E+02  0.00000000000E+00 0. -1.
         11    1    4    4    0    0  0.94363119080E+02  0.12372380006E+03  0.10919497763E+03  0.19009345092E+03  0.00000000000E+00 0.  1.
          1    1    1    2  501    0 -0.47727332472E+02 -0.11759436833E+03  0.29485590971E+03  0.32100831955E+03  0.00000000000E+00 0. -1.
<scales pt_clust_5="13000.00000" pt_clust_6="13000.00000" pt_clust_7="13000.00000" pt_clust_8="13000.00000" pt_clust_9="162.20059"></scales>
<clustering>
<clus scale="   81.095">  5  6 -1 -1</clus>
<clus scale="   88.836">  7  8 -1 -1</clus>
<clus scale="  122.960">  1  5  2 -1</clus>
<clus scale="  162.201">  2  9  1 -1</clus>
<clus scale="  162.201">  2  5  1 -1</clus>
</clustering>
</event>
<event>
 9    2  0.4883225E-005  0.1605808E+03  0.7546771E-02  0.1189514E+00
          2   -1    0    0  502    0 -0.00000000000E+00  0.00000000000E+00  0.39993953158E+03  0.39993953158E+03  0.00000000000E+00 0. -1.
         21   -1    0    0  501  502  0.00000000000E+00 -0.00000000000E+00 -0.21902222756E+03  0.21902222756E+03  0.00000000000E+00 0. -1.
         24    2    1    2    0    0 -0.60594243607E+02 -0.12313714981E+03  0.28352900039E+03  0.32552338723E+03  0.82111884328E+02 0.  0.
         23    2    1    2    0    0  0.24465348907E+02  0.82416154670E+02 -0.16712703609E+03  0.20902435923E+03  0.91480930864E+02 0.  0.
        -13    1    3    3    0    0 -0.25642472685E+02  0.55429279671E+01  0.39033108756E+02  0.47030245959E+02  0.00000000000E+00 0.  1.
         14    1    3    3    0    0 -0.34951770923E+02 -0.12868007778E+03  0.24449589163E+03  0.27849314127E+03  0.00000000000E+00 0. -1.
        -11    1    4    4    0    0  0.13321103695E+02  0.35556927241E+02 -0.15468505112E+03  0.15927715442E+03  0.00000000000E+00 0. -1.
         11    1    4    4    0    0  0.11144245212E+02  0.46859227429E+02 -0.12441984964E+02  0.49747204810E+02  0.00000000000E+00 0.  1.
          1    1    1    2  501    0  0.36128894700E+02  0.40720995139E+02  0.64515339719E+02  0.84414012678E+02  0.00000000000E+00 0. -1.
<scales pt_clust_5="13000.00000" pt_clust_6="13000.00000" pt_clust_7="13000.00000" pt_clust_8="13000.00000" pt_clust_9="54.43803"></scales>
<clustering>
<clus scale="   54.438">  2  9  1 -1</clus>
<clus scale="   82.112">  5  6 -1 -1</clus>
<clus scale="   91.481">  7  8 -1 -1</clus>
<clus scale="  155.434">  1  5  2 -1</clus>
<clus scale="   54.438">  2  5  1 -1</clus>
</clustering>
</event>
<event>
 9    2  0.4883225E-005  0.9361760E+02  0.7546771E-02  0.1299116E+00
         21   -1    0    0  501  502  0.00000000000E+00  0.00000000000E+00  0.22856472363E+03  0.22856472363E+03  0.00000000000E+00 0. -1.
         -3   -1    0    0    0  501 -0.00000000000E+00 -0.00000000000E+00 -0.72151053108E+02  0.72151053108E+02  0.00000000000E+00 0.  1.
         24    2    1    2    0    0 -0.16738296923E+02  0.25099417635E+02 -0.21959071486E+02  0.89223406696E+02  0.81046061795E+02 0.  0.
         23    2    1    2    0    0  0.20766634532E+02 -0.42544199215E+01  0.15220257698E+03  0.17779342390E+03  0.89417693682E+02 0.  0.
        -13    1    3    3    0    0 -0.34673584080E+02  0.21252956558E+02 -0.44419194823E+02  0.60224666576E+02  0.00000000000E+00 0.  1.
         14    1    3    3    0    0  0.17935287157E+02  0.38464610768E+01  0.22460123337E+02  0.28998740120E+02  0.00000000000E+00 0. -1.
        -13    1    4    4    0    0  0.45392426391E+02  0.24771442676E+02  0.10591391864E+03  0.11786371327E+03  0.00000000000E+00 0.  1.
         13    1    4    4    0    0 -0.24625791858E+02 -0.29025862597E+02  0.46288658340E+02  0.59929710621E+02  0.00000000000E+00 0. -1.
         -4    1    1    2    0  502 -0.40283376092E+01 -0.20844997714E+02  0.26170165026E+02  0.33698946141E+02  0.00000000000E+00 0.  1.
<scales pt_clust_5="13000.00000" pt_clust_6="13000.00000" pt_clust_7="13000.00000" pt_clust_8="13000.00000" pt_clust_9="21.23067"></scales>
<clustering>
<clus scale="   21.231">  1  9  2 -1</clus>
<clus scale="   81.046">  5  6 -1 -1</clus>
<clus scale="   85.657">  2  5  1 -1</clus>
<clus scale="   89.418">  7  8 -1 -1</clus>
<clus scale="   21.231">  1  5  2 -1</clus>
</clustering>
</event>
<event>
 9    2  0.4883225E-005  0.1032055E+03  0.7546771E-02  0.1277268E+00
         21   -1    0    0  501  502  0.00000000000E+00  0.00000000000E+00  0.29479580400E+03  0.29479580400E+03  0.00000000000E+00 0.  1.
          2   -1    0    0  502    0 -0.00000000000E+00 -0.00000000000E+00 -0.37027234701E+03  0.37027234701E+03  0.00000000000E+00 0. -1.
         24    2    1    2    0    0  0.24517639139E+02 -0.37095635025E+02 -0.34277747899E+03  0.35613453517E+03  0.85779987563E+02 0.  0.
         23    2    1    2    0    0 -0.37622803063E+02  0.14893560041E+02  0.11130849628E+03  0.15082504967E+03  0.93388012199E+02 0.  0.
        -11    1    3    3    0    0 -0.18516967329E+02  0.11411887536E+02 -0.32189192122E+02  0.38849109972E+02  0.00000000000E+00 0.  1.
         12    1    3    3    0    0  0.43034606467E+02 -0.48507522561E+02 -0.31058828687E+03  0.31728542519E+03  0.00000000000E+00 0. -1.
        -13    1    4    4    0    0 -0.31590641294E+02  0.46832735207E+02  0.10268221282E+03  0.11719603463E+03  0.00000000000E+00 0.  1.
         13    1    4    4    0    0 -0.60321617688E+01 -0.31939175166E+02  0.86262834605E+01  0.33629015035E+02  0.00000000000E+00 0. -1.
          1    1    1    2  501    0  0.13105163925E+02  0.22202074984E+02  0.15599243970E+03  0.15810856618E+03  0.00000000000E+00 0. -1.
<scales pt_clust_5="13000.00000" pt_clust_6="13000.00000" pt_clust_7="13000.00000" pt_clust_8="13000.00000" pt_clust_9="25.78134"></scales>
<clustering>
<clus scale="   25.781">  1  9  2 -1</clus>
<clus scale="   85.780">  5  6 -1 -1</clus>
<clus scale="   93.388">  7  8 -1 -1</clus>
<clus scale="   96.376">  2  5  1 -1</clus>
<clus scale="   25.781">  1  5  2 -1</clus>
</clustering>
</event>
<event>
 9    2  0.4883225E-005  0.1056039E+03  0.7546771E-02  0.1277562E+00
         21   -1    0    0  501  502  0.00000000000E+00  0.00000000000E+00  0.17000357735E+03  0.17000357735E+03  0.00000000000E+00 0. -1.
          2   -1    0    0  502    0 -0.00000000000E+00 -0.00000000000E+00 -0.17977860473E+03  0.17977860473E+03  0.00000000000E+00 0. -1.
         24    2    1    2    0    0 -0.17294526077E+02 -0.37835352137E+02 -0.13234494405E+03  0.16010364616E+03  0.79921078526E+02 0.  0.
         23    2    1    2    0    0  0.30536187346E+02  0.19866693379E+02  0.53645144698E+02  0.11722966786E+03  0.97661912911E+02 0.  0.
        -13    1    3    3    0    0 -0.35051042206E+02  0.11680535511E+02 -0.46042491713E+02  0.59033223804E+02  0.00000000000E+00 0.  1.
         14    1    3    3    0    0  0.17756516130E+02 -0.49515887648E+02 -0.86302452341E+02  0.10107042235E+03  0.00000000000E+00 0. -1.
        -11    1    4    4    0    0  0.11328762647E+02  0.54117506588E+02  0.54932271474E+02  0.77939719217E+02  0.00000000000E+00 0.  1.
         11    1    4    4    0    0  0.19207424699E+02 -0.34250813208E+02 -0.12871267758E+01  0.39289948643E+02  0.00000000000E+00 0. -1.
          1    1    1    2  501    0 -0.13241661270E+02  0.17968658758E+02  0.68924771978E+02  0.72448868058E+02  0.00000000000E+00 0. -1.
<scales pt_clust_5="13000.00000" pt_clust_6="13000.00000" pt_clust_7="13000.00000" pt_clust_8="13000.00000" pt_clust_9="22.32071"></scales>
<clustering>
<clus scale="   22.321">  1  9  2 -1</clus>
<clus scale="   79.921">  5  6 -1 -1</clus>
<clus scale="   89.452">  2  5  1 -1</clus>
<clus scale="   97.662">  7  8 -1 -1</clus>
<clus scale="   22.321">  1  5  2 -1</clus>
</clustering>
</event>
<event>
 9    2  0.4883225E-005  0.9092963E+02  0.7546771E-02  0.1301115E+00
         21   -1    0    0  501  502  0.00000000000E+00  0.00000000000E+00  0.13253543294E+03  0.13253543294E+03  0.00000000000E+00 0. -1.
          4   -1    0    0  502    0 -0.00000000000E+00 -0.00000000000E+00 -0.21525778031E+03  0.21525778031E+03  0.00000000000E+00 0. -1.
         24    2    1    2    0    0 -0.15158692299E+02  0.10594166283E+02 -0.49896622103E+02  0.10404252701E+03  0.89404430644E+02 0.  0.
         23    2    1    2    0    0 -0.21550268197E+02  0.71373833816E+02  0.44507025028E+02  0.12523210082E+03  0.90241706462E+02 0.  0.
        -13    1    3    3    0    0 -0.90639789060E+01  0.47413880430E+02 -0.97853474556E+01  0.49254287081E+02  0.00000000000E+00 0.  1.
         14    1    3    3    0    0 -0.60947133931E+01 -0.36819714147E+02 -0.40111274647E+02  0.54788239933E+02  0.00000000000E+00 0. -1.
        -11    1    4    4    0    0 -0.38667806216E+02  0.26419997502E+01 -0.46188077923E+01  0.39032201906E+02  0.00000000000E+00 0.  1.
         11    1    4    4    0    0  0.17117538019E+02  0.68731834066E+02  0.49125832820E+02  0.86199898910E+02  0.00000000000E+00 0. -1.
          3    1    1    2  501    0  0.36708960496E+02 -0.81968000099E+02 -0.77332750303E+02  0.11851858542E+03  0.00000000000E+00 0. -1.
<scales pt_clust_5="13000.00000" pt_clust_6="13000.00000" pt_clust_7="13000.00000" pt_clust_8="13000.00000" pt_clust_9="89.81263"></scales>
<clustering>
<clus scale="   89.404">  5  6 -1 -1</clus>
<clus scale="   89.813">  1  9  2 -1</clus>
<clus scale="   90.099">  2  5  1 -1</clus>
<clus scale="   90.242">  7  8 -1 -1</clus>
<clus scale="   89.813">  1  5  2 -1</clus>
</clustering>
</event>
<event>
 9    2  0.4883225E-005  0.9616847E+02  0.7546771E-02  0.1293664E+00
         21   -1    0    0  501  502  0.00000000000E+00  0.00000000000E+00  0.80646035130E+02  0.80646035130E+02  0.00000000000E+00 0. -1.
          2   -1    0    0  502    0 -0.00000000000E+00 -0.00000000000E+00 -0.64261087427E+03  0.64261087427E+03  0.00000000000E+00 0. -1.
         24    2    1    2    0    0 -0.54073818898E+02 -0.13012639275E+02 -0.35101715964E+03  0.36467570220E+03  0.81743591441E+02 0.  0.
         23    2    1    2    0    0  0.12516008245E+01  0.80665233848E+01 -0.26651636799E+03  0.28175328308E+03  0.91034624266E+02 0.  0.
        -13    1    3    3    0    0 -0.56048180550E+01 -0.40653199015E+02 -0.11344860771E+03  0.12064279161E+03  0.00000000000E+00 0.  1.
         14    1    3    3    0    0 -0.48469000843E+02  0.27640559741E+02 -0.23756855193E+03  0.24403291059E+03  0.00000000000E+00 0. -1.
        -13    1    4    4    0    0  0.41930405012E+02  0.23011269055E+02 -0.14983274497E+03  0.15728168626E+03  0.00000000000E+00 0.  1.
         13    1    4    4    0    0 -0.40678804188E+02 -0.14944745670E+02 -0.11668362302E+03  0.12447159682E+03  0.00000000000E+00 0. -1.
          1    1    1    2  501    0  0.52822218073E+02  0.49461158900E+01  0.55568688489E+02  0.76827924122E+02  0.00000000000E+00 0. -1.
<scales pt_clust_5="13000.00000" pt_clust_6="13000.00000" pt_clust_7="13000.00000" pt_clust_8="13000.00000" pt_clust_9="53.05328"></scales>
<clustering>
<clus scale="   53.053">  1  9  2 -1</clus>
<clus scale="   81.744">  5  6 -1 -1</clus>
<clus scale="   87.425">  2  5  1 -1</clus>
<clus scale="   91.035">  7  8 -1 -1</clus>
<clus scale="   53.053">  1  5  2 -1</clus>
</clustering>
</event>
<event>
 9    2  0.4883225E-005  0.1263982E+03  0.7546771E-02  0.1250451E+00
         21   -1    0    0  501  502  0.00000000000E+00  0.00000000000E+00  0.12991232985E+03  0.12991232985E+03  0.00000000000E+00 0.  1.
         -1   -1    0    0    0  501 -0.00000000000E+00 -0.00000000000E+00 -0.27252871812E+03  0.27252871812E+03  0.00000000000E+00 0.  1.
         24    2    1    2    0    0  0.37038122028E+02  0.99763044050E+01 -0.10288163112E+03  0.13576439371E+03  0.79849805536E+02 0.  0.
         23    2    1    2    0    0  0.41535990047E+02 -0.58001064224E+02 -0.10322052093E+03  0.15482536528E+03  0.90703119412E+02 0.  0.
        -11    1    3    3    0    0  0.33004309490E+02  0.65792737829E+01 -0.11644566262E+03  0.12121123558E+03  0.00000000000E+00 0.  1.
         12    1    3    3    0    0  0.40338125379E+01  0.33970306221E+01  0.13564031505E+02  0.14553158122E+02  0.00000000000E+00 0. -1.
        -11    1    4    4    0    0 -0.16409264594E+02 -0.37463409805E+02 -0.82966735064E+01  0.41732551205E+02  0.00000000000E+00 0.  1.
         11    1    4    4    0    0  0.57945254642E+02 -0.20537654419E+02 -0.94923847426E+02  0.11309281407E+03  0.00000000000E+00 0. -1.
         -2    1    1    2    0  502 -0.78574112075E+02  0.48024759819E+02  0.63485763782E+02  0.11185128898E+03  0.00000000000E+00 0.  1.
<scales pt_clust_5="13000.00000" pt_clust_6="13000.00000" pt_clust_7="13000.00000" pt_clust_8="13000.00000" pt_clust_9="88.03093"></scales>
<clustering>
<clus scale="   79.850">  5  6 -1 -1</clus>
<clus scale="   88.585">  2  5  1 -1</clus>
<clus scale="   88.031">  1  9  2 -1</clus>
<clus scale="   90.703">  7  8 -1 -1</clus>
<clus scale="   88.031">  1  5  2 -1</clus>
</clustering>
</event>
<event>
 9    2  0.4883225E-005  0.1938228E+03  0.7546771E-02  0.1179592E+00
          2   -1    0    0  502    0 -0.00000000000E+00  0.00000000000E+00  0.17169846019E+03  0.17169846019E+03  0.00000000000E+00 0. -1.
         21   -1    0    0  501  502  0.00000000000E+00 -0.00000000000E+00 -0.50474473162E+03  0.50474473162E+03  0.00000000000E+00 0.  1.
         24    2    1    2    0    0  0.65077352992E+02 -0.39367717676E+02 -0.20816721586E+03  0.23557670072E+03  0.79861837553E+02 0.  0.
         23    2    1    2    0    0 -0.66523157295E+02 -0.15392653338E+03 -0.15501855339E+03  0.24523125098E+03  0.89380682619E+02 0.  0.
        -13    1    3    3    0    0  0.75058714961E+02 -0.58265306630E+01 -0.14321943876E+03  0.16180100986E+03  0.00000000000E+00 0.  1.
         14    1    3    3    0    0 -0.99813619685E+01 -0.33541187013E+02 -0.64947777093E+02  0.73775690863E+02  0.00000000000E+00 0. -1.
        -13    1    4    4    0    0 -0.31719338272E+02 -0.32794375635E+01 -0.10449619325E+02  0.33556902050E+02  0.00000000000E+00 0. -1.
         13    1    4    4    0    0 -0.34803819023E+02 -0.15064709582E+03 -0.14456893406E+03  0.21167434893E+03  0.00000000000E+00 0.  1.
          1    1    1    2  501    0  0.14458043031E+01  0.19329425106E+03  0.30139497812E+02  0.19563524011E+03  0.00000000000E+00 0. -1.
<scales pt_clust_5="13000.00000" pt_clust_6="13000.00000" pt_clust_7="13000.00000" pt_clust_8="13000.00000" pt_clust_9="171.98370"></scales>
<clustering>
<clus scale="   79.862">  5  6 -1 -1</clus>
<clus scale="   89.381">  7  8 -1 -1</clus>
<clus scale="  110.285">  1  5  2 -1</clus>
<clus scale="  171.984">  2  9  1 -1</clus>
<clus scale="  171.984">  2  5  1 -1</clus>
</clustering>
</event>
<event>
 9    2  0.4883225E-005  0.1275812E+03  0.7546771E-02  0.1234825E+00
          2   -1    0    0  502    0 -0.00000000000E+00  0.00000000000E+00  0.24567937344E+03  0.24567937344E+03  0.00000000000E+00 0. -1.
         21   -1    0    0  501  502  0.00000000000E+00 -0.00000000000E+00 -0.12613459824E+03  0.12613459824E+03  0.00000000000E+00 0.  1.
         23    2    1    2    0    0 -0.61797172715E+02  0.53030631089E+02  0.16066123291E+03  0.20297917993E+03  0.93580859876E+02 0.  0.
         24    2    1    2    0    0  0.73453907746E+02 -0.76994385541E+02 -0.19876276467E+02  0.13475714075E+03  0.80254648761E+02 0.  0.
        -11    1    4    4    0    0  0.43542126722E+02 -0.85384292585E+02 -0.32526028865E+02  0.10121431111E+03  0.00000000000E+00 0.  1.
         12    1    4    4    0    0  0.29911781025E+02  0.83899070441E+01  0.12649752398E+02  0.33542829636E+02  0.00000000000E+00 0. -1.
        -13    1    3    3    0    0 -0.24575348582E+02  0.11026211211E+02 -0.55907350154E+01  0.27509660296E+02  0.00000000000E+00 0.  1.
         13    1    3    3    0    0 -0.37221824134E+02  0.42004419878E+02  0.16625196793E+03  0.17546951963E+03  0.00000000000E+00 0. -1.
          1    1    1    2  501    0 -0.11656735031E+02  0.23963754452E+02 -0.21240181246E+02  0.34077651010E+02  0.00000000000E+00 0. -1.
<scales pt_clust_5="13000.00000" pt_clust_6="13000.00000" pt_clust_7="13000.00000" pt_clust_8="13000.00000" pt_clust_9="26.64847"></scales>
<clustering>
<clus scale="   26.648">  2  9  1 -1</clus>
<clus scale="   80.255">  5  6 -1 -1</clus>
<clus scale="   93.581">  7  8 -1 -1</clus>
<clus scale="  118.154">  2  5  1 -1</clus>
<clus scale="   26.648">  2  5  1 -1</clus>
</clustering>
</event>
<event>
 9    2  0.4883225E-005  0.9447637E+02  0.7546771E-02  0.1298802E+00
         -1   -1    0    0    0  501 -0.00000000000E+00  0.00000000000E+00  0.24964879464E+03  0.24964879464E+03  0.00000000000E+00 0.  1.
         21   -1    0    0  501  502  0.00000000000E+00 -0.00000000000E+00 -0.76712349158E+02  0.76712349158E+02  0.00000000000E+00 0.  1.
         23    2    1    2    0    0 -0.11171981501E+02  0.11514964995E+02  0.15652314895E+03  0.18231897192E+03  0.92104852062E+02 0.  0.
         24    2    1    2    0    0  0.46453082151E+02  0.14988299300E+02  0.27380845554E+02  0.98572773239E+02  0.81143964431E+02 0.  0.
        -11    1    4    4    0    0  0.47403216687E+02  0.27608042153E+02  0.48978629436E+02  0.73540295656E+02  0.00000000000E+00 0.  1.
         12    1    4    4    0    0 -0.95013453592E+00 -0.12619742853E+02 -0.21597783883E+02  0.25032477583E+02  0.00000000000E+00 0. -1.
        -11    1    3    3    0    0 -0.38965896936E+02  0.38355876309E+02  0.86141152468E+02  0.10202848877E+03  0.00000000000E+00 0. -1.
         11    1    3    3    0    0  0.27793915435E+02 -0.26840911314E+02  0.70381996486E+02  0.80290483152E+02  0.00000000000E+00 0.  1.
         -2    1    1    2    0  502 -0.35281100650E+02 -0.26503264295E+02 -0.10967549024E+02  0.45469398643E+02  0.00000000000E+00 0.  1.
<scales pt_clust_5="13000.00000" pt_clust_6="13000.00000" pt_clust_7="13000.00000" pt_clust_8="13000.00000" pt_clust_9="44.12685"></scales>
<clustering>
<clus scale="   44.127">  2  9  1 -1</clus>
<clus scale="   81.144">  5  6 -1 -1</clus>
<clus scale="   83.826">  2  5  1 -1</clus>
<clus scale="   92.105">  7  8 -1 -1</clus>
<clus scale="   44.127">  2  5  1 -1</clus>
</clustering>
</event>
<event>
 9    2  0.4883225E-005  0.1312958E+03  0.7546771E-02  0.1229012E+00
          2   -1    0    0  502    0 -0.00000000000E+00  0.00000000000E+00  0.97738705979E+03  0.97738705979E+03  0.00000000000E+00 0. -1.
         21   -1    0    0  501  502  0.00000000000E+00 -0.00000000000E+00 -0.71154841409E+02  0.71154841409E+02  0.00000000000E+00 0. -1.
         24    2    1    2    0    0  0.60943868936E+02  0.65656746462E+02  0.74351761700E+03  0.75280641664E+03  0.76642616290E+02 0.  0.
         23    2    1    2    0    0 -0.11418091259E+03 -0.76383819455E+02  0.17488429638E+03  0.24008160430E+03  0.90459333024E+02 0.  0.
        -11    1    3    3    0    0  0.25648769104E+02 -0.14956832123E+02  0.16908708734E+03  0.17167413692E+03  0.00000000000E+00 0.  1.
         12    1    3    3    0    0  0.35295099832E+02  0.80613578585E+02  0.57443052966E+03  0.58113227972E+03  0.00000000000E+00 0. -1.
        -11    1    4    4    0    0 -0.28756172970E+02 -0.52801764997E+02  0.23276296375E+02  0.64472706191E+02  0.00000000000E+00 0.  1.
         11    1    4    4    0    0 -0.85424739617E+02 -0.23582054458E+02  0.15160800000E+03  0.17560889811E+03  0.00000000000E+00 0. -1.
          1    1    1    2  501    0  0.53237043651E+02  0.10727072992E+02 -0.12169694993E+02  0.55653880259E+02  0.00000000000E+00 0. -1.
<scales pt_clust_5="13000.00000" pt_clust_6="13000.00000" pt_clust_7="13000.00000" pt_clust_8="13000.00000" pt_clust_9="54.30702"></scales>
<clustering>
<clus scale="   54.307">  2  9  1 -1</clus>
<clus scale="   76.643">  5  6 -1 -1</clus>
<clus scale="   90.459">  7  8 -1 -1</clus>
<clus scale="  122.187">  1  5  2 -1</clus>
<clus scale="   54.307">  2  5  1 -1</clus>
</clustering>
</event>
<event>
 9    2  0.4883225E-005  0.1251817E+03  0.7546771E-02  0.1237722E+00
          2   -1    0    0  502    0 -0.00000000000E+00  0.00000000000E+00  0.19591030924E+03  0.19591030924E+03  0.00000000000E+00 0. -1.
         21   -1    0    0  501  502  0.00000000000E+00 -0.00000000000E+00 -0.16702280618E+03  0.16702280618E+03  0.00000000000E+00 0.  1.
         24    2    1    2    0    0 -0.70966783685E+02 -0.15654725355E+02 -0.19014431399E+02  0.11041461983E+03  0.80922709159E+02 0.  0.
         23    2    1    2    0    0  0.10327350454E+03  0.23107349459E+02 -0.50593525742E+02  0.14859245699E+03  0.91217581022E+02 0.  0.
        -13    1    3    3    0    0 -0.35764907890E+02 -0.42936798050E+02  0.10672092250E+02  0.56891043373E+02  0.00000000000E+00 0.  1.
         14    1    3    3    0    0 -0.35201875796E+02  0.27282072695E+02 -0.29686523648E+02  0.53523576454E+02  0.00000000000E+00 0. -1.
        -13    1    4    4    0    0  0.49482220241E+02  0.28139960008E+01  0.23466040556E+02  0.54836700784E+02  0.00000000000E+00 0.  1.
         13    1    4    4    0    0  0.53791284304E+02  0.20293353458E+02 -0.74059566298E+02  0.93755756207E+02  0.00000000000E+00 0. -1.
          1    1    1    2  501    0 -0.32306720860E+02 -0.74526241044E+01  0.98495460198E+02  0.10392603860E+03  0.00000000000E+00 0. -1.
<scales pt_clust_5="13000.00000" pt_clust_6="13000.00000" pt_clust_7="13000.00000" pt_clust_8="13000.00000" pt_clust_9="33.15519"></scales>
<clustering>
<clus scale="   33.155">  2  9  1 -1</clus>
<clus scale="   80.923">  5  6 -1 -1</clus>
<clus scale="   91.218">  7  8 -1 -1</clus>
<clus scale="  117.891">  1  5  2 -1</clus>
<clus scale="   33.155">  2  5  1 -1</clus>
</clustering>
</event>
<event>
 9    2  0.4883225E-005  0.9857887E+02  0.7546771E-02  0.1288725E+00
         21   -1    0    0  501  502  0.00000000000E+00  0.00000000000E+00  0.34468993138E+03  0.34468993138E+03  0.00000000000E+00 0.  1.
          2   -1    0    0  502    0 -0.00000000000E+00 -0.00000000000E+00 -0.50027393545E+02  0.50027393545E+02  0.00000000000E+00 0. -1.
         24    2    1    2    0    0  0.10658160683E+01 -0.50111134957E+02  0.96140752015E+02  0.13473958505E+03  0.79996560993E+02 0.  0.
         23    2    1    2    0    0  0.49250208213E+02  0.10865884162E+02  0.13180600770E+03  0.16765825623E+03  0.90514179940E+02 0.  0.
        -11    1    3    3    0    0  0.22052099491E+02  0.14099775805E+02  0.19927026040E+02  0.32896582444E+02  0.00000000000E+00 0.  1.
         12    1    3    3    0    0 -0.20986283423E+02 -0.64210910762E+02  0.76213725974E+02  0.10184300260E+03  0.00000000000E+00 0. -1.
        -11    1    4    4    0    0  0.25213001898E+02 -0.21334602318E+02  0.12186863442E+03  0.12626489922E+03  0.00000000000E+00 0.  1.
         11    1    4    4    0    0  0.24037206315E+02  0.32200486479E+02  0.99373732803E+01  0.41393357011E+02  0.00000000000E+00 0. -1.
          1    1    1    2  501    0 -0.50316024282E+02  0.39245250795E+02  0.66715778123E+02  0.92319483643E+02  0.00000000000E+00 0. -1.
<scales pt_clust_5="13000.00000" pt_clust_6="13000.00000" pt_clust_7="13000.00000" pt_clust_8="13000.00000" pt_clust_9="63.81141"></scales>
<clustering>
<clus scale="   63.811">  1  9  2 -1</clus>
<clus scale="   79.997">  5  6 -1 -1</clus>
<clus scale="   89.019">  2  5  1 -1</clus>
<clus scale="   90.514">  7  8 -1 -1</clus>
<clus scale="   63.811">  1  5  2 -1</clus>
</clustering>
</event>
<event>
 9    2  0.4883225E-005  0.1218257E+03  0.7546771E-02  0.1247761E+00
          2   -1    0    0  502    0 -0.00000000000E+00  0.00000000000E+00  0.13809243738E+04  0.13809243738E+04  0.00000000000E+00 0. -1.
         21   -1    0    0  501  502  0.00000000000E+00 -0.00000000000E+00 -0.32788554623E+02  0.32788554623E+02  0.00000000000E+00 0. -1.
         23    2    1    2    0    0 -0.31268127922E+01 -0.55129504426E+02  0.18931836798E+03  0.21620047778E+03  0.88612430960E+02 0.  0.
         24    2    1    2    0    0  0.83126734374E+02 -0.31088219108E+02  0.20972275340E+03  0.24115779431E+03  0.79353116688E+02 0.  0.
        -13    1    4    4    0    0  0.14728990210E+02 -0.40363431645E+02  0.43353267479E+02  0.61038148463E+02  0.00000000000E+00 0.  1.
         14    1    4    4    0    0  0.68397744164E+02  0.92752125367E+01  0.16636948592E+03  0.18011964585E+03  0.00000000000E+00 0. -1.
        -13    1    3    3    0    0 -0.31759185634E+02 -0.58792200631E+02  0.85904744596E+02  0.10883379012E+03  0.00000000000E+00 0. -1.
         13    1    3    3    0    0  0.28632372842E+02  0.36626962048E+01  0.10341362338E+03  0.10736668766E+03  0.00000000000E+00 0.  1.
          1    1    1    2  501    0 -0.79999921581E+02  0.86217723535E+02  0.94909469776E+03  0.95635465630E+03  0.00000000000E+00 0. -1.
<scales pt_clust_5="13000.00000" pt_clust_6="13000.00000" pt_clust_7="13000.00000" pt_clust_8="13000.00000" pt_clust_9="92.43702"></scales>
<clustering>
<clus scale="   79.353">  5  6 -1 -1</clus>
<clus scale="   88.612">  7  8 -1 -1</clus>
<clus scale="  104.409">  1  7  2 -1</clus>
<clus scale="   92.437">  2  9  1 -1</clus>
<clus scale="   92.437">  2  5  1 -1</clus>
</clustering>
</event>
<event>
 9    2  0.4883225E-005  0.2767482E+03  0.7546771E-02  0.1098004E+00
         21   -1    0    0  501  502  0.00000000000E+00  0.00000000000E+00  0.12199013535E+03  0.12199013535E+03  0.00000000000E+00 0. -1.
          2   -1    0    0  502    0 -0.00000000000E+00 -0.00000000000E+00 -0.23021578765E+04  0.23021578765E+04  0.00000000000E+00 0. -1.
         23    2    1    2    0    0  0.28265038045E+03 -0.78230202614E+02 -0.88842082437E+03  0.94025895321E+03  0.93723720223E+02 0.  0.
         24    2    1    2    0    0 -0.18969266148E+03 -0.17737835304E+03 -0.15146076517E+03  0.31161375873E+03  0.81953555746E+02 0.  0.
        -13    1    4    4    0    0 -0.30371546453E+02  0.54449407455E+00 -0.33565270894E+02  0.45269799182E+02  0.00000000000E+00 0.  1.
         14    1    4    4    0    0 -0.15932111503E+03 -0.17792284712E+03 -0.11789549427E+03  0.26634395955E+03  0.00000000000E+00 0. -1.
        -11    1    3    3    0    0  0.82313697409E+02  0.18036544456E+02 -0.28538846775E+03  0.29756921756E+03  0.00000000000E+00 0.  1.
         11    1    3    3    0    0  0.20033668305E+03 -0.96266747070E+02 -0.60303235662E+03  0.64268973564E+03  0.00000000000E+00 0. -1.
          1    1    1    2  501    0 -0.92957718975E+02  0.25560855566E+03 -0.11402861516E+04  0.11722752999E+04  0.00000000000E+00 0. -1.
<scales pt_clust_5="13000.00000" pt_clust_6="13000.00000" pt_clust_7="13000.00000" pt_clust_8="13000.00000" pt_clust_9="271.98703"></scales>
<clustering>
<clus scale="   81.954">  5  6 -1 -1</clus>
<clus scale="   93.724">  7  8 -1 -1</clus>
<clus scale="  271.987">  1  9  2 -1</clus>
<clus scale="  272.987">  1  5  2 -1</clus>
<clus scale="  271.987">  1  5  2 -1</clus>
</clustering>
</event>
<event>
 9    2  0.4883225E-005  0.1380326E+03  0.7546771E-02  0.1218575E+00
         21   -1    0    0  501  502  0.00000000000E+00  0.00000000000E+00  0.11775405208E+03  0.11775405208E+03  0.00000000000E+00 0. -1.
          2   -1    0    0  502    0 -0.00000000000E+00 -0.00000000000E+00 -0.52099495026E+03  0.52099495026E+03  0.00000000000E+00 0. -1.
         24    2    1    2    0    0  0.91078472100E+02 -0.48794542219E+02 -0.38308310852E+03  0.40457466722E+03  0.79068311581E+02 0.  0.
         23    2    1    2    0    0 -0.80910006534E+02  0.74253565932E+02 -0.83566792012E+02  0.16509278071E+03  0.90621169187E+02 0.  0.
        -13    1    3    3    0    0  0.62200866722E+02 -0.19528613940E+02 -0.10589979710E+03  0.12435868128E+03  0.00000000000E+00 0.  1.
         14    1    3    3    0    0  0.28877605377E+02 -0.29265928279E+02 -0.27718331142E+03  0.28021598594E+03  0.00000000000E+00 0. -1.
        -11    1    4    4    0    0 -0.84506993790E+02  0.42300877609E+02 -0.24160154413E+02  0.97542346225E+02  0.00000000000E+00 0.  1.
         11    1    4    4    0    0  0.35969872557E+01  0.31952688323E+02 -0.59406637599E+02  0.67550434486E+02  0.00000000000E+00 0. -1.
          1    1    1    2  501    0 -0.10168465566E+02 -0.25459023713E+02  0.63409002350E+02  0.69081554408E+02  0.00000000000E+00 0. -1.
<scales pt_clust_5="13000.00000" pt_clust_6="13000.00000" pt_clust_7="13000.00000" pt_clust_8="13000.00000" pt_clust_9="27.41459"></scales>
<clustering>
<clus scale="   27.415">  1  9  2 -1</clus>
<clus scale="   79.068">  5  6 -1 -1</clus>
<clus scale="   90.621">  7  8 -1 -1</clus>
<clus scale="  130.739">  2  5  1 -1</clus>
<clus scale="   27.415">  1  5  2 -1</clus>
</clustering>
</event>
<event>
 9    2  0.4883225E-005  0.9322882E+02  0.7546771E-02  0.1298688E+00
         21   -1    0    0  501  502  0.00000000000E+00  0.00000000000E+00  0.20306518434E+03  0.20306518434E+03  0.00000000000E+00 0.  1.
         -1   -1    0    0    0  501 -0.00000000000E+00 -0.00000000000E+00 -0.12085262793E+03  0.12085262793E+03  0.00000000000E+00 0.  1.
         24    2    1    2    0    0 -0.42342870474E+01 -0.19982591756E+02 -0.63483590765E+02  0.10705541437E+03  0.83746416574E+02 0.  0.
         23    2    1    2    0    0  0.95110923302E+01  0.58447735943E+02  0.14160228133E+03  0.17782175589E+03  0.89792940006E+02 0.  0.
        -11    1    3    3    0    0 -0.41214517100E+02  0.42594490434E+01 -0.24691327963E+02  0.48233193990E+02  0.00000000000E+00 0.  1.
         12    1    3    3    0    0  0.36980230052E+02 -0.24242040800E+02 -0.38792262802E+02  0.58822220378E+02  0.00000000000E+00 0. -1.
        -13    1    4    4    0    0  0.21903940291E+02 -0.11331698885E+02  0.68925818406E+01  0.25606594547E+02  0.00000000000E+00 0. -1.
         13    1    4    4    0    0 -0.12392847961E+02  0.69779434827E+02  0.13470969949E+03  0.15221516134E+03  0.00000000000E+00 0.  1.
         -2    1    1    2    0  502 -0.52768052828E+01 -0.38465144186E+02  0.40938658423E+01  0.39040642013E+02  0.00000000000E+00 0.  1.
<scales pt_clust_5="13000.00000" pt_clust_6="13000.00000" pt_clust_7="13000.00000" pt_clust_8="13000.00000" pt_clust_9="38.82542"></scales>
<clustering>
<clus scale="   38.825">  1  9  2 -1</clus>
<clus scale="   83.746">  5  6 -1 -1</clus>
<clus scale="   87.420">  2  5  1 -1</clus>
<clus scale="   89.793">  7  8 -1 -1</clus>
<clus scale="   38.825">  1  5  2 -1</clus>
</clustering>
</event>
<event>
 9    2  0.6550945E-005  0.2866823E+03  0.7546771E-02  0.1104383E+00
         21   -1    0    0  501  502  0.00000000000E+00  0.00000000000E+00  0.10537569198E+03  0.10537569198E+03  0.00000000000E+00 0. -1.
          2   -1    0    0  502    0 -0.00000000000E+00 -0.00000000000E+00 -0.19959119049E+04  0.19959119049E+04  0.00000000000E+00 0. -1.
         24    2    1    2    0    0  0.13733162340E+03  0.13623370319E+03 -0.27016441689E+03  0.34107457342E+03  0.76963990331E+02 0.  0.
         23    2    1    2    0    0 -0.31422912005E+03 -0.28097172271E+03 -0.12757866408E+04  0.13467148399E+04  0.91237373267E+02 0.  0.
        -13    1    3    3    0    0  0.63384259383E+02  0.51768167663E+02 -0.17768820519E+03  0.19562874478E+03  0.00000000000E+00 0.  1.
         14    1    3    3    0    0  0.73947364022E+02  0.84465535527E+02 -0.92476211696E+02  0.14544582863E+03  0.00000000000E+00 0. -1.
        -11    1    4    4    0    0 -0.29838806081E+03 -0.26258739169E+03 -0.12482736416E+04  0.13100284949E+04  0.00000000000E+00 0. -1.
         11    1    4    4    0    0 -0.15841059239E+02 -0.18384331023E+02 -0.27512999238E+02  0.36686345035E+02  0.00000000000E+00 0.  1.
          1    1    1    2  501    0  0.17689749665E+03  0.14473801952E+03 -0.34458515524E+03  0.41349818358E+03  0.00000000000E+00 0. -1.
<scales pt_clust_5="13000.00000" pt_clust_6="13000.00000" pt_clust_7="13000.00000" pt_clust_8="13000.00000" pt_clust_9="271.77653"></scales>
<clustering>
<clus scale="   76.964">  5  6 -1 -1</clus>
<clus scale="   91.237">  7  8 -1 -1</clus>
<clus scale="  208.190">  2  5  1 -1</clus>
<clus scale="  271.777">  1  9  2 -1</clus>
<clus scale="  271.777">  1  5  2 -1</clus>
</clustering>
</event>
<event>
 9    2  0.4883225E-005  0.9581944E+02  0.7546771E-02  0.1294472E+00
          2   -1    0    0  502    0 -0.00000000000E+00  0.00000000000E+00  0.93813591399E+03  0.93813591399E+03  0.00000000000E+00 0. -1.
         21   -1    0    0  501  502  0.00000000000E+00 -0.00000000000E+00 -0.31559794578E+02  0.31559794578E+02  0.00000000000E+00 0.  1.
         24    2    1    2    0    0 -0.61106057565E+01 -0.40282317230E+02  0.41023243671E+03  0.41955549828E+03  0.77949723697E+02 0.  0.
         23    2    1    2    0    0 -0.51830374230E+02  0.30053100143E+02  0.88857816648E+02  0.13842850888E+03  0.87619426895E+02 0.  0.
        -13    1    3    3    0    0  0.30936237405E+01 -0.60979623748E+02  0.34828507824E+03  0.35359663566E+03  0.00000000000E+00 0.  1.
         14    1    3    3    0    0 -0.92042294970E+01  0.20697306518E+02  0.61947358466E+02  0.65958862624E+02  0.00000000000E+00 0. -1.
        -11    1    4    4    0    0 -0.30892182960E+02  0.49045382004E+02  0.15779253459E+02  0.60072966496E+02  0.00000000000E+00 0.  1.
         11    1    4    4    0    0 -0.20938191270E+02 -0.18992281862E+02  0.73078563189E+02  0.78355542380E+02  0.00000000000E+00 0. -1.
          1    1    1    2  501    0  0.57940979986E+02  0.10229217087E+02  0.40748586606E+03  0.41171170141E+03  0.00000000000E+00 0. -1.
<scales pt_clust_5="13000.00000" pt_clust_6="13000.00000" pt_clust_7="13000.00000" pt_clust_8="13000.00000" pt_clust_9="58.83704"></scales>
<clustering>
<clus scale="   58.837">  2  9  1 -1</clus>
<clus scale="   77.950">  5  6 -1 -1</clus>
<clus scale="   87.065">  1  5  2 -1</clus>
<clus scale="   87.619">  7  8 -1 -1</clus>
<clus scale="   58.837">  2  5  1 -1</clus>
</clustering>
</event>
<event>
 9    2  0.4883225E-005  0.9396112E+02  0.7546771E-02  0.1300751E+00
         21   -1    0    0  501  502  0.00000000000E+00  0.00000000000E+00  0.18499429610E+03  0.18499429610E+03  0.00000000000E+00 0.  1.
          2   -1    0    0  502    0 -0.00000000000E+00 -0.00000000000E+00 -0.87658731716E+02  0.87658731716E+02  0.00000000000E+00 0. -1.
         24    2    1    2    0    0 -0.14080927979E+01 -0.24329113915E+02 -0.28651254937E+02  0.88726479533E+02  0.80359226300E+02 0.  0.
         23    2    1    2    0    0  0.81867765381E+01 -0.12629979035E+02  0.10591315343E+03  0.14132517310E+03  0.92350792105E+02 0.  0.
        -13    1    3    3    0    0 -0.39199637743E+02 -0.37092341765E+01 -0.52404788004E+01  0.39721941486E+02  0.00000000000E+00 0.  1.
         14    1    3    3    0    0  0.37791544945E+02 -0.20619879739E+02 -0.23410776137E+02  0.49004538046E+02  0.00000000000E+00 0. -1.
        -11    1    4    4    0    0 -0.24674247056E+02 -0.53718295551E+01  0.10464446587E+03  0.10764821995E+03  0.00000000000E+00 0.  1.
         11    1    4    4    0    0  0.32861023594E+02 -0.72581494799E+01  0.12686875579E+01  0.33676953153E+02  0.00000000000E+00 0. -1.
          1    1    1    2  501    0 -0.67786837402E+01  0.36959092950E+02  0.20073665888E+02  0.42601375179E+02  0.00000000000E+00 0. -1.
<scales pt_clust_5="13000.00000" pt_clust_6="13000.00000" pt_clust_7="13000.00000" pt_clust_8="13000.00000" pt_clust_9="37.57559"></scales>
<clustering>
<clus scale="   37.576">  1  9  2 -1</clus>
<clus scale="   80.359">  5  6 -1 -1</clus>
<clus scale="   82.205">  2  5  1 -1</clus>
<clus scale="   92.351">  7  8 -1 -1</clus>
<clus scale="   37.576">  1  5  2 -1</clus>
</clustering>
</event>
<event>
 9    2  0.4883225E-005  0.9289910E+02  0.7546771E-02  0.1305692E+00
          2   -1    0    0  502    0 -0.00000000000E+00  0.00000000000E+00  0.21554954542E+03  0.21554954542E+03  0.00000000000E+00 0. -1.
         21   -1    0    0  501  502  0.00000000000E+00 -0.00000000000E+00 -0.76416765399E+02  0.76416765399E+02  0.00000000000E+00 0.  1.
         24    2    1    2    0    0 -0.16213368886E+02 -0.13197984437E+01  0.21885858021E+02  0.81971781806E+02  0.77303085531E+02 0.  0.
         23    2    1    2    0    0 -0.55768316915E+01  0.22285360703E+01  0.20958545492E+01  0.92796376380E+02  0.92578115331E+02 0.  0.
        -11    1    3    3    0    0  0.23139094157E+02  0.19228148218E+02 -0.43598198801E+01  0.30399792626E+02  0.00000000000E+00 0.  1.
         12    1    3    3    0    0 -0.39352463043E+02 -0.20547946662E+02  0.26245677901E+02  0.51571989181E+02  0.00000000000E+00 0. -1.
        -11    1    4    4    0    0 -0.34793825621E+02  0.12626759125E+02  0.32580028807E+02  0.49310279095E+02  0.00000000000E+00 0. -1.
         11    1    4    4    0    0  0.29216993930E+02 -0.10398223055E+02 -0.30484174257E+02  0.43486097286E+02  0.00000000000E+00 0.  1.
          1    1    1    2  501    0  0.21790200578E+02 -0.90873762659E+00  0.11515106745E+03  0.11719815264E+03  0.00000000000E+00 0. -1.
<scales pt_clust_5="13000.00000" pt_clust_6="13000.00000" pt_clust_7="13000.00000" pt_clust_8="13000.00000" pt_clust_9="21.80915"></scales>
<clustering>
<clus scale="   21.809">  2  9  1 -1</clus>
<clus scale="   77.303">  5  6 -1 -1</clus>
<clus scale="   77.687">  1  5  2 -1</clus>
<clus scale="   92.578">  7  8 -1 -1</clus>
<clus scale="   21.809">  2  5  1 -1</clus>
</clustering>
</event>
<event>
 9    2  0.4883225E-005  0.1619954E+03  0.7546771E-02  0.1194868E+00
          2   -1    0    0  502    0 -0.00000000000E+00  0.00000000000E+00  0.90191300881E+03  0.90191300881E+03  0.00000000000E+00 0. -1.
         21   -1    0    0  501  502  0.00000000000E+00 -0.00000000000E+00 -0.31397482925E+02  0.31397482925E+02  0.00000000000E+00 0.  1.
         24    2    1    2    0    0  0.42519409101E+02 -0.11253359286E+03  0.41980030760E+03  0.44358933119E+03  0.77894074318E+02 0.  0.
         23    2    1    2    0    0 -0.23165020876E+02  0.91105628009E+02  0.29941808465E+03  0.33569332972E+03  0.11917201247E+03 0.  0.
        -11    1    3    3    0    0  0.19146956672E+02 -0.12937638516E+02  0.18932007708E+02  0.29873221387E+02  0.00000000000E+00 0.  1.
         12    1    3    3    0    0  0.23372452429E+02 -0.99595954349E+02  0.40086829989E+03  0.41371610981E+03  0.00000000000E+00 0. -1.
        -13    1    4    4    0    0  0.43522086827E+02  0.65938631092E+02  0.18077026311E+03  0.19728143131E+03  0.00000000000E+00 0. -1.
         13    1    4    4    0    0 -0.66687107702E+02  0.25166996917E+02  0.11864782154E+03  0.13841189842E+03  0.00000000000E+00 0.  1.
          1    1    1    2  501    0 -0.19354388225E+02  0.21427964855E+02  0.15129713363E+03  0.15402783082E+03  0.00000000000E+00 0. -1.
<scales pt_clust_5="13000.00000" pt_clust_6="13000.00000" pt_clust_7="13000.00000" pt_clust_8="13000.00000" pt_clust_9="28.87474"></scales>
<clustering>
<clus scale="   28.875">  2  9  1 -1</clus>
<clus scale="   77.894">  5  6 -1 -1</clus>
<clus scale="  119.172">  7  8 -1 -1</clus>
<clus scale="  134.566">  1  5  2 -1</clus>
<clus scale="   28.875">  2  5  1 -1</clus>
</clustering>
</event>
<event>
 9    2  0.4883225E-005  0.3044631E+03  0.7546771E-02  0.1083518E+00
          2   -1    0    0  502    0 -0.00000000000E+00  0.00000000000E+00  0.18556733296E+04  0.18556733296E+04  0.00000000000E+00 0. -1.
         21   -1    0    0  501  502  0.00000000000E+00 -0.00000000000E+00 -0.76776368959E+02  0.76776368959E+02  0.00000000000E+00 0. -1.
         23    2    1    2    0    0  0.24551046943E+03 -0.11889704317E+03  0.85987659031E+03  0.90672954297E+03  0.91426560968E+02 0.  0.
         24    2    1    2    0    0 -0.32190016362E+03  0.78920263473E+02  0.55012211936E+03  0.64688054855E+03  0.77278551726E+02 0.  0.
        -13    1    4    4    0    0 -0.35205754135E+02  0.91666682604E+01  0.11916142768E+03  0.12459100601E+03  0.00000000000E+00 0.  1.
         14    1    4    4    0    0 -0.28669440949E+03  0.69753595212E+02  0.43096069168E+03  0.52228954254E+03  0.00000000000E+00 0. -1.
        -13    1    3    3    0    0  0.27567559504E+02 -0.21936235165E+02  0.42218220332E+02  0.54986788215E+02  0.00000000000E+00 0.  1.
         13    1    3    3    0    0  0.21794290993E+03 -0.96960808005E+02  0.81765836998E+03  0.85174275476E+03  0.00000000000E+00 0. -1.
          1    1    1    2  501    0  0.76389694188E+02  0.39976779697E+02  0.36889825096E+03  0.37883960703E+03  0.00000000000E+00 0. -1.
<scales pt_clust_5="13000.00000" pt_clust_6="13000.00000" pt_clust_7="13000.00000" pt_clust_8="13000.00000" pt_clust_9="86.21795"></scales>
<clustering>
<clus scale="   77.279">  5  6 -1 -1</clus>
<clus scale="   86.218">  2  9  1 -1</clus>
<clus scale="   91.427">  7  8 -1 -1</clus>
<clus scale="  300.518">  2  5  1 -1</clus>
<clus scale="   86.218">  2  5  1 -1</clus>
</clustering>
</event>
<event>
 9    2  0.4883225E-005  0.1046555E+03  0.7546771E-02  0.1277101E+00
          2   -1    0    0  502    0 -0.00000000000E+00  0.00000000000E+00  0.23799472041E+03  0.23799472041E+03  0.00000000000E+00 0. -1.
         21   -1    0    0  501  502  0.00000000000E+00 -0.00000000000E+00 -0.17938302733E+03  0.17938302733E+03  0.00000000000E+00 0.  1.
         24    2    1    2    0    0  0.31750799973E+02 -0.25239427599E+02  0.19790563637E+03  0.21826645656E+03  0.82634515494E+02 0.  0.
         23    2    1    2    0    0 -0.40761642504E+02  0.49897755203E+02 -0.11993467024E+03  0.16649212724E+03  0.95833218841E+02 0.  0.
        -13    1    3    3    0    0  0.33218177686E+02  0.22904692155E+02  0.61022261338E+02  0.73155919995E+02  0.00000000000E+00 0.  1.
         14    1    3    3    0    0 -0.14673777129E+01 -0.48144119754E+02  0.13688337503E+03  0.14511053657E+03  0.00000000000E+00 0. -1.
        -11    1    4    4    0    0 -0.71456563514E+02  0.44060247076E+02 -0.92469417535E+02  0.12489170918E+03  0.00000000000E+00 0.  1.
         11    1    4    4    0    0  0.30694921010E+02  0.58375081267E+01 -0.27465252700E+02  0.41600418061E+02  0.00000000000E+00 0. -1.
          1    1    1    2  501    0  0.90108425316E+01 -0.24658327604E+02 -0.19359273047E+02  0.32619163942E+02  0.00000000000E+00 0. -1.
<scales pt_clust_5="13000.00000" pt_clust_6="13000.00000" pt_clust_7="13000.00000" pt_clust_8="13000.00000" pt_clust_9="26.25316"></scales>
<clustering>
<clus scale="   26.253">  2  9  1 -1</clus>
<clus scale="   82.635">  5  6 -1 -1</clus>
<clus scale="   92.721">  1  5  2 -1</clus>
<clus scale="   95.833">  7  8 -1 -1</clus>
<clus scale="   26.253">  2  5  1 -1</clus>
</clustering>
</event>
<event>
 9    2  0.4883225E-005  0.1323298E+03  0.7546771E-02  0.1234062E+00
          2   -1    0    0  502    0 -0.00000000000E+00  0.00000000000E+00  0.44887722352E+03  0.44887722352E+03  0.00000000000E+00 0. -1.
         21   -1    0    0  501  502  0.00000000000E+00 -0.00000000000E+00 -0.98207962471E+02  0.98207962471E+02  0.00000000000E+00 0.  1.
         24    2    1    2    0    0  0.97611205206E+01  0.70330627811E+02 -0.14888515388E+02  0.10858085719E+03  0.80786496241E+02 0.  0.
         23    2    1    2    0    0 -0.75245453168E+02  0.30672311798E+02  0.18211256976E+03  0.21909162296E+03  0.90738537863E+02 0.  0.
        -13    1    3    3    0    0 -0.31141757408E+02  0.48311706948E+02 -0.22081031894E+02  0.61574361971E+02  0.00000000000E+00 0.  1.
         14    1    3    3    0    0  0.40902877928E+02  0.22018920863E+02  0.71925165053E+01  0.47006495216E+02  0.00000000000E+00 0. -1.
        -13    1    4    4    0    0 -0.73097382479E+02  0.58027532211E+02  0.12791171693E+03  0.15834086380E+03  0.00000000000E+00 0. -1.
         13    1    4    4    0    0 -0.21480706885E+01 -0.27355220413E+02  0.54200852835E+02  0.60750759168E+02  0.00000000000E+00 0.  1.
          1    1    1    2  501    0  0.65484332647E+02 -0.10100293961E+03  0.18344520667E+03  0.21941270584E+03  0.00000000000E+00 0. -1.
<scales pt_clust_5="13000.00000" pt_clust_6="13000.00000" pt_clust_7="13000.00000" pt_clust_8="13000.00000" pt_clust_9="96.32090"></scales>
<clustering>
<clus scale="   80.786">  5  6 -1 -1</clus>
<clus scale="   90.739">  7  8 -1 -1</clus>
<clus scale="  107.555">  1  5  2 -1</clus>
<clus scale="   96.321">  2  9  1 -1</clus>
<clus scale="   96.321">  2  5  1 -1</clus>
</clustering>
</event>
<event>
 9    2  0.4883225E-005  0.2065766E+03  0.7546771E-02  0.1144306E+00
         21   -1    0    0  501  502  0.00000000000E+00  0.00000000000E+00  0.48730540549E+02  0.48730540549E+02  0.00000000000E+00 0. -1.
          2   -1    0    0  502    0 -0.00000000000E+00 -0.00000000000E+00 -0.52916886476E+03  0.52916886476E+03  0.00000000000E+00 0. -1.
         24    2    1    2    0    0  0.11638722098E+02 -0.52987561962E+02 -0.14159498632E+03  0.17144921877E+03  0.80015953995E+02 0.  0.
         23    2    1    2    0    0 -0.19047328526E+02 -0.61360226597E+02 -0.16790967385E+03  0.20066237907E+03  0.89128298924E+02 0.  0.
        -11    1    3    3    0    0  0.29957868401E+02 -0.57110742075E+02 -0.13800707645E+03  0.15233208424E+03  0.00000000000E+00 0.  1.
         12    1    3    3    0    0 -0.18319146302E+02  0.41231801129E+01 -0.35879098659E+01  0.19117134531E+02  0.00000000000E+00 0. -1.
        -13    1    4    4    0    0  0.31510073239E+00 -0.48028265980E+02 -0.17038405079E+03  0.17702411809E+03  0.00000000000E+00 0. -1.
         13    1    4    4    0    0 -0.19362429258E+02 -0.13331960617E+02  0.24743769448E+01  0.23638260975E+02  0.00000000000E+00 0.  1.
          1    1    1    2  501    0  0.74086064276E+01  0.11434778856E+03 -0.17093366404E+03  0.20578780746E+03  0.00000000000E+00 0. -1.
<scales pt_clust_5="13000.00000" pt_clust_6="13000.00000" pt_clust_7="13000.00000" pt_clust_8="13000.00000" pt_clust_9="114.58754"></scales>
<clustering>
<clus scale="   80.016">  5  6 -1 -1</clus>
<clus scale="   89.128">  7  8 -1 -1</clus>
<clus scale="   93.407">  5  7 -1 -1</clus>
<clus scale="  114.588">  1  9  2 -1</clus>
<clus scale="  114.588">  1  5  2 -1</clus>
</clustering>
</event>
<event>
 9    2  0.4883225E-005  0.1578695E+03  0.7546771E-02  0.1193214E+00
         21   -1    0    0  501  502  0.00000000000E+00  0.00000000000E+00  0.39266868532E+03  0.39266868532E+03  0.00000000000E+00 0.  1.
         -1   -1    0    0    0  501 -0.00000000000E+00 -0.00000000000E+00 -0.93488804936E+03  0.93488804936E+03  0.00000000000E+00 0.  1.
         24    2    1    2    0    0 -0.12566852909E+03  0.33511591175E+02 -0.65913285023E+03  0.67559850419E+03  0.71145053778E+02 0.  0.
         23    2    1    2    0    0  0.14710955608E+03  0.53439880159E+01 -0.23897582980E+03  0.29331261305E+03  0.85164910880E+02 0.  0.
        -11    1    3    3    0    0 -0.89863915080E+02 -0.11545013383E+02 -0.41472922959E+03  0.42451047625E+03  0.00000000000E+00 0.  1.
         12    1    3    3    0    0 -0.35804614009E+02  0.45056604558E+02 -0.24440362064E+03  0.25108802795E+03  0.00000000000E+00 0. -1.
        -11    1    4    4    0    0  0.72703267712E+02  0.34308280532E+02 -0.16898831196E+03  0.18713597417E+03  0.00000000000E+00 0.  1.
         11    1    4    4    0    0  0.74406288373E+02 -0.28964292516E+02 -0.69987517843E+02  0.10617663888E+03  0.00000000000E+00 0. -1.
         -2    1    1    2    0  502 -0.21441026997E+02 -0.38855579191E+02  0.35588931599E+03  0.35864561744E+03  0.00000000000E+00 0.  1.
<scales pt_clust_5="13000.00000" pt_clust_6="13000.00000" pt_clust_7="13000.00000" pt_clust_8="13000.00000" pt_clust_9="44.37875"></scales>
<clustering>
<clus scale="   44.379">  1  9  2 -1</clus>
<clus scale="   71.145">  5  6 -1 -1</clus>
<clus scale="   85.165">  7  8 -1 -1</clus>
<clus scale="  150.769">  2  5  1 -1</clus>
<clus scale="   44.379">  1  5  2 -1</clus>
</clustering>
</event>
<event>
 9    2  0.4883225E-005  0.1948183E+03  0.7546771E-02  0.1176963E+00
          2   -1    0    0  502    0 -0.00000000000E+00  0.00000000000E+00  0.30144012636E+03  0.30144012636E+03  0.00000000000E+00 0. -1.
         21   -1    0    0  501  502  0.00000000000E+00 -0.00000000000E+00 -0.21214732008E+03  0.21214732008E+03  0.00000000000E+00 0.  1.
         24    2    1    2    0    0 -0.13993839137E+02 -0.83221070938E+02  0.62144187184E+02  0.13092427399E+03  0.78470958563E+02 0.  0.
         23    2    1    2    0    0  0.17991609019E+03  0.47426356139E+02 -0.19052387214E+02  0.20674845451E+03  0.88107157567E+02 0.  0.
        -11    1    3    3    0    0 -0.28345864211E+02  0.13338320504E+01  0.79409409580E+01  0.29467366172E+02  0.00000000000E+00 0.  1.
         12    1    3    3    0    0  0.14352025074E+02 -0.84554902989E+02  0.54203246227E+02  0.10145690782E+03  0.00000000000E+00 0. -1.
        -13    1    4    4    0    0  0.17457697939E+03  0.18741380162E+02 -0.87238054807E+01  0.17579666051E+03  0.00000000000E+00 0.  1.
         13    1    4    4    0    0  0.53391108019E+01  0.28684975977E+02 -0.10328581734E+02  0.30951793996E+02  0.00000000000E+00 0. -1.
          1    1    1    2  501    0 -0.16592225106E+03  0.35794714799E+02  0.46201006314E+02  0.17591471794E+03  0.00000000000E+00 0. -1.
<scales pt_clust_5="13000.00000" pt_clust_6="13000.00000" pt_clust_7="13000.00000" pt_clust_8="13000.00000" pt_clust_9="173.75655"></scales>
<clustering>
<clus scale="   78.471">  5  6 -1 -1</clus>
<clus scale="   88.107">  7  8 -1 -1</clus>
<clus scale="  115.236">  1  5  2 -1</clus>
<clus scale="  173.757">  2  9  1 -1</clus>
<clus scale="  173.757">  2  5  1 -1</clus>
</clustering>
</event>
<event>
 9    2  0.4883225E-005  0.1147491E+03  0.7546771E-02  0.1255310E+00
          2   -1    0    0  502    0 -0.00000000000E+00  0.00000000000E+00  0.97052309283E+03  0.97052309283E+03  0.00000000000E+00 0. -1.
         21   -1    0    0  501  502  0.00000000000E+00 -0.00000000000E+00 -0.83231940813E+02  0.83231940813E+02  0.00000000000E+00 0. -1.
         24    2    1    2    0    0 -0.42702319177E+02 -0.57349452017E+02  0.90801243720E+03  0.91450158765E+03  0.81939733924E+02 0.  0.
         23    2    1    2    0    0  0.22269529418E+02  0.34380924121E+02  0.35461220660E+01  0.10008765447E+03  0.91252307977E+02 0.  0.
        -13    1    3    3    0    0 -0.19753397195E+02 -0.23126291643E+02  0.81945340546E+02  0.87407441921E+02  0.00000000000E+00 0.  1.
         14    1    3    3    0    0 -0.22948921982E+02 -0.34223160373E+02  0.82606709665E+03  0.82709414573E+03  0.00000000000E+00 0. -1.
        -11    1    4    4    0    0 -0.19226176455E+02 -0.22422341511E+02  0.34900901346E+01  0.29742023957E+02  0.00000000000E+00 0.  1.
         11    1    4    4    0    0  0.41495705873E+02  0.56803265632E+02  0.56031931380E-01  0.70345630511E+02  0.00000000000E+00 0. -1.
          1    1    1    2  501    0  0.20432789759E+02  0.22968527896E+02 -0.24267407250E+02  0.39165791524E+02  0.00000000000E+00 0. -1.
<scales pt_clust_5="13000.00000" pt_clust_6="13000.00000" pt_clust_7="13000.00000" pt_clust_8="13000.00000" pt_clust_9="30.74170"></scales>
<clustering>
<clus scale="   30.742">  2  9  1 -1</clus>
<clus scale="   81.940">  5  6 -1 -1</clus>
<clus scale="   91.252">  7  8 -1 -1</clus>
<clus scale="  107.492">  1  5  2 -1</clus>
<clus scale="   30.742">  2  5  1 -1</clus>
</clustering>
</event>
<event>
 9    2  0.4883225E-005  0.9019885E+02  0.7546771E-02  0.1306134E+00
         21   -1    0    0  501  502  0.00000000000E+00  0.00000000000E+00  0.12106447129E+03  0.12106447129E+03  0.00000000000E+00 0. -1.
          2   -1    0    0  502    0 -0.00000000000E+00 -0.00000000000E+00 -0.21957393515E+03  0.21957393515E+03  0.00000000000E+00 0. -1.
         24    2    1    2    0    0  0.42109247002E+02  0.13695378566E+02 -0.97925374701E+02  0.13506593040E+03  0.81808767660E+02 0.  0.
         23    2    1    2    0    0  0.25724677665E+02  0.44784339757E+02 -0.37513679262E+02  0.10869568101E+03  0.87977717688E+02 0.  0.
        -11    1    3    3    0    0  0.34818188562E+02 -0.31652811444E+02 -0.51480898877E+02  0.69745893615E+02  0.00000000000E+00 0.  1.
         12    1    3    3    0    0  0.72910584404E+01  0.45348190010E+02 -0.46444475824E+02  0.65320036780E+02  0.00000000000E+00 0. -1.
        -13    1    4    4    0    0 -0.18255186735E+01  0.49137371315E+02  0.13116854970E+02  0.50890722755E+02  0.00000000000E+00 0.  1.
         13    1    4    4    0    0  0.27550196338E+02 -0.43530315585E+01 -0.50630534232E+02  0.57804958253E+02  0.00000000000E+00 0. -1.
          1    1    1    2  501    0 -0.67833924667E+02 -0.58479718323E+02  0.36929590110E+02  0.96876795036E+02  0.00000000000E+00 0. -1.
<scales pt_clust_5="13000.00000" pt_clust_6="13000.00000" pt_clust_7="13000.00000" pt_clust_8="13000.00000" pt_clust_9="89.56182"></scales>
<clustering>
<clus scale="   81.809">  5  6 -1 -1</clus>
<clus scale="   87.978">  7  8 -1 -1</clus>
<clus scale="   89.562">  1  9  2 -1</clus>
<clus scale="   84.193">  2  5  1 -1</clus>
<clus scale="   89.562">  1  5  2 -1</clus>
</clustering>
</event>
<event>
 9    2  0.4883225E-005  0.9706404E+02  0.7546771E-02  0.1288849E+00
          2   -1    0    0  502    0 -0.00000000000E+00  0.00000000000E+00  0.25962504198E+03  0.25962504198E+03  0.00000000000E+00 0. -1.
         21   -1    0    0  501  502  0.00000000000E+00 -0.00000000000E+00 -0.18500204292E+03  0.18500204292E+03  0.00000000000E+00 0. -1.
         24    2    1    2    0    0  0.21546361615E+02 -0.11891204196E+02  0.12658555345E+03  0.15473155614E+03  0.85512020716E+02 0.  0.
         23    2    1    2    0    0 -0.56567014764E+02  0.14742812209E+02  0.92264402011E+02  0.14145027702E+03  0.89879270799E+02 0.  0.
        -11    1    3    3    0    0  0.53597110555E+01 -0.47965022284E+02  0.56917053249E+02  0.74625202284E+02  0.00000000000E+00 0.  1.
         12    1    3    3    0    0  0.16186650559E+02  0.36073818088E+02  0.69668500198E+02  0.80106353854E+02  0.00000000000E+00 0. -1.
        -13    1    4    4    0    0 -0.71878759236E+02 -0.13406328142E+02  0.50738698993E+02  0.88998321552E+02  0.00000000000E+00 0.  1.
         13    1    4    4    0    0  0.15311744472E+02  0.28149140351E+02  0.41525703019E+02  0.52451955468E+02  0.00000000000E+00 0. -1.
          1    1    1    2  501    0  0.35020653149E+02 -0.28516080134E+01 -0.14422695640E+03  0.14844525175E+03  0.00000000000E+00 0. -1.
<scales pt_clust_5="13000.00000" pt_clust_6="13000.00000" pt_clust_7="13000.00000" pt_clust_8="13000.00000" pt_clust_9="35.13656"></scales>
<clustering>
<clus scale="   35.137">  2  9  1 -1</clus>
<clus scale="   85.512">  5  6 -1 -1</clus>
<clus scale="   89.879">  7  8 -1 -1</clus>
<clus scale="   93.035">  1  5  2 -1</clus>
<clus scale="   35.137">  2  5  1 -1</clus>
</clustering>
</event>
<event>
 9    2  0.4883225E-005  0.9205874E+02  0.7546771E-02  0.1304828E+00
          2   -1    0    0  502    0 -0.00000000000E+00  0.00000000000E+00  0.67974197750E+03  0.67974197750E+03  0.00000000000E+00 0. -1.
         21   -1    0    0  501  502  0.00000000000E+00 -0.00000000000E+00 -0.47378550559E+02  0.47378550559E+02  0.00000000000E+00 0. -1.
         24    2    1    2    0    0 -0.15936246183E+02  0.19299747762E+02  0.36654898048E+03  0.37601373922E+03  0.80010829169E+02 0.  0.
         23    2    1    2    0    0  0.49122573187E+01  0.12239811528E+02  0.29357596763E+03  0.30766747267E+03  0.91096002722E+02 0.  0.
        -11    1    3    3    0    0 -0.11148884171E+02  0.50672193489E+02  0.24025385875E+03  0.24579236249E+03  0.00000000000E+00 0.  1.
         12    1    3    3    0    0 -0.47873620124E+01 -0.31372445727E+02  0.12629512173E+03  0.13022137674E+03  0.00000000000E+00 0. -1.
        -13    1    4    4    0    0 -0.67641701936E+01 -0.34237928298E+02  0.19454865422E+03  0.19765416411E+03  0.00000000000E+00 0. -1.
         13    1    4    4    0    0  0.11676427512E+02  0.46477739826E+02  0.99027313417E+02  0.11001330856E+03  0.00000000000E+00 0.  1.
          1    1    1    2  501    0  0.11023988865E+02 -0.31539559290E+02 -0.27761521175E+02  0.43439316162E+02  0.00000000000E+00 0. -1.
<scales pt_clust_5="13000.00000" pt_clust_6="13000.00000" pt_clust_7="13000.00000" pt_clust_8="13000.00000" pt_clust_9="33.41066"></scales>
<clustering>
<clus scale="   33.411">  2  9  1 -1</clus>
<clus scale="   80.011">  5  6 -1 -1</clus>
<clus scale="   81.105">  1  5  2 -1</clus>
<clus scale="   91.096">  7  8 -1 -1</clus>
<clus scale="   33.411">  2  5  1 -1</clus>
</clustering>
</event>
<event>
 9    2  0.4883225E-005  0.1058463E+03  0.7546771E-02  0.1269533E+00
         21   -1    0    0  501  502  0.00000000000E+00  0.00000000000E+00  0.50802103054E+02  0.50802103054E+02  0.00000000000E+00 0. -1.
         -3   -1    0    0    0  501 -0.00000000000E+00 -0.00000000000E+00 -0.48901133507E+03  0.48901133507E+03  0.00000000000E+00 0.  1.
         23    2    1    2    0    0  0.69784662436E+01 -0.33574997674E+02 -0.12398732722E+03  0.15938708207E+03  0.94103162326E+02 0.  0.
         24    2    1    2    0    0  0.32267913253E+02  0.59044539550E+02 -0.81653777449E+02  0.14319880764E+03  0.96493954540E+02 0.  0.
        -13    1    4    4    0    0  0.44942752031E+02  0.43614130618E+02 -0.98734722878E+02  0.11692129341E+03  0.00000000000E+00 0.  1.
         14    1    4    4    0    0 -0.12674838778E+02  0.15430408931E+02  0.17080945429E+02  0.26277514239E+02  0.00000000000E+00 0. -1.
        -11    1    3    3    0    0  0.31038441405E+02  0.84669271698E+01 -0.10055692132E+03  0.10557825594E+03  0.00000000000E+00 0. -1.
         11    1    3    3    0    0 -0.24059975162E+02 -0.42041924844E+02 -0.23430405896E+02  0.53808826133E+02  0.00000000000E+00 0.  1.
         -4    1    1    2    0  502 -0.39246379497E+02 -0.25469541876E+02 -0.23256812735E+03  0.23722754841E+03  0.00000000000E+00 0.  1.
<scales pt_clust_5="13000.00000" pt_clust_6="13000.00000" pt_clust_7="13000.00000" pt_clust_8="13000.00000" pt_clust_9="46.78652"></scales>
<clustering>
<clus scale="   46.787">  1  9  2 -1</clus>
<clus scale="   94.103">  7  8 -1 -1</clus>
<clus scale="   96.494">  5  6 -1 -1</clus>
<clus scale="  103.671">  2  7  1 -1</clus>
<clus scale="   46.787">  1  5  2 -1</clus>
</clustering>
</event>
<event>
 9    2  0.4883225E-005  0.1308018E+03  0.7546771E-02  0.1229182E+00
         21   -1    0    0  501  502  0.00000000000E+00  0.00000000000E+00  0.48056263455E+03  0.48056263455E+03  0.00000000000E+00 0.  1.
          2   -1    0    0  502    0 -0.00000000000E+00 -0.00000000000E+00 -0.23026709250E+03  0.23026709250E+03  0.00000000000E+00 0. -1.
         24    2    1    2    0    0 -0.51174045420E+02 -0.79081455460E+02 -0.18783476070E+03  0.22509539077E+03  0.80705502276E+02 0.  0.
         23    2    1    2    0    0 -0.19570927701E+02  0.97190140641E+02  0.31089285513E+03  0.33903006307E+03  0.91967775044E+02 0.  0.
        -11    1    3    3    0    0  0.15064455926E+02 -0.40795107314E+02 -0.97211970491E+02  0.10649575494E+03  0.00000000000E+00 0.  1.
         12    1    3    3    0    0 -0.66238501346E+02 -0.38286348145E+02 -0.90622790212E+02  0.11859963584E+03  0.00000000000E+00 0. -1.
        -11    1    4    4    0    0  0.21641289881E+02 -0.68800372392E+01  0.41465887794E+02  0.47276846243E+02  0.00000000000E+00 0. -1.
         11    1    4    4    0    0 -0.41212217582E+02  0.10407017788E+03  0.26942696733E+03  0.29175321682E+03  0.00000000000E+00 0.  1.
          1    1    1    2  501    0  0.70744973120E+02 -0.18108685182E+02  0.12723744763E+03  0.14670427321E+03  0.00000000000E+00 0. -1.
<scales pt_clust_5="13000.00000" pt_clust_6="13000.00000" pt_clust_7="13000.00000" pt_clust_8="13000.00000" pt_clust_9="73.02586"></scales>
<clustering>
<clus scale="   73.026">  1  9  2 -1</clus>
<clus scale="   80.706">  5  6 -1 -1</clus>
<clus scale="   91.968">  7  8 -1 -1</clus>
<clus scale="  123.144">  2  5  1 -1</clus>
<clus scale="   73.026">  1  5  2 -1</clus>
</clustering>
</event>
<event>
 9    2  0.4883225E-005  0.1443558E+03  0.7546771E-02  0.1231987E+00
         21   -1    0    0  501  502  0.00000000000E+00  0.00000000000E+00  0.13217102378E+03  0.13217102378E+03  0.00000000000E+00 0. -1.
          2   -1    0    0  502    0 -0.00000000000E+00 -0.00000000000E+00 -0.38567763220E+03  0.38567763220E+03  0.00000000000E+00 0. -1.
         24    2    1    2    0    0 -0.34502203879E+02  0.10185685916E+01 -0.37646845849E+02  0.94301609096E+02  0.79272119445E+02 0.  0.
         23    2    1    2    0    0  0.53024988439E+02 -0.99445522114E+02  0.37328675831E+02  0.15126898300E+03  0.93743340630E+02 0.  0.
        -13    1    3    3    0    0 -0.19794335986E+02  0.37572744654E+02 -0.43049075376E+01  0.42685584298E+02  0.00000000000E+00 0.  1.
         14    1    3    3    0    0 -0.14707867892E+02 -0.36554176063E+02 -0.33341938311E+02  0.51616024798E+02  0.00000000000E+00 0. -1.
        -11    1    4    4    0    0  0.20584192045E+02  0.50258656041E+01  0.36112628667E+02  0.41869920426E+02  0.00000000000E+00 0.  1.
         11    1    4    4    0    0  0.32440796393E+02 -0.10447138772E+03  0.12160471645E+01  0.10939906258E+03  0.00000000000E+00 0. -1.
          1    1    1    2  501    0 -0.18522784560E+02  0.98426953522E+02 -0.25318843840E+03  0.27227806387E+03  0.00000000000E+00 0. -1.
<scales pt_clust_5="13000.00000" pt_clust_6="13000.00000" pt_clust_7="13000.00000" pt_clust_8="13000.00000" pt_clust_9="109.77610"></scales>
<clustering>
<clus scale="   79.272">  5  6 -1 -1</clus>
<clus scale="   86.461">  2  5  1 -1</clus>
<clus scale="   93.743">  7  8 -1 -1</clus>
<clus scale="  109.776">  1  9  2 -1</clus>
<clus scale="  109.776">  1  5  2 -1</clus>
</clustering>
</event>
<event>
 9    2  0.4883225E-005  0.1023433E+03  0.7546771E-02  0.1283048E+00
          2   -1    0    0  502    0 -0.00000000000E+00  0.00000000000E+00  0.63516821932E+03  0.63516821932E+03  0.00000000000E+00 0. -1.
         21   -1    0    0  501  502  0.00000000000E+00 -0.00000000000E+00 -0.46392652911E+02  0.46392652911E+02  0.00000000000E+00 0. -1.
         24    2    1    2    0    0  0.11480106056E+02 -0.19133445091E+02  0.19776401892E+03  0.21234928162E+03  0.74052202317E+02 0.  0.
         23    2    1    2    0    0 -0.20932496599E+02  0.80974827776E+02  0.38752142161E+03  0.40655470529E+03  0.90104295364E+02 0.  0.
        -13    1    3    3    0    0  0.13508587215E+02 -0.42218118657E+02  0.72633233087E+02  0.85090763425E+02  0.00000000000E+00 0.  1.
         14    1    3    3    0    0 -0.20284811589E+01  0.23084673566E+02  0.12513078584E+03  0.12725851820E+03  0.00000000000E+00 0. -1.
        -11    1    4    4    0    0  0.21711812713E+02  0.45726951950E+02  0.29041314779E+03  0.29479171181E+03  0.00000000000E+00 0. -1.
         11    1    4    4    0    0 -0.42644309313E+02  0.35247875826E+02  0.97108273820E+02  0.11176299348E+03  0.00000000000E+00 0.  1.
          1    1    1    2  501    0  0.94523905429E+01 -0.61841382685E+02  0.34901258788E+01  0.62656885320E+02  0.00000000000E+00 0. -1.
<scales pt_clust_5="13000.00000" pt_clust_6="13000.00000" pt_clust_7="13000.00000" pt_clust_8="13000.00000" pt_clust_9="62.55961"></scales>
<clustering>
<clus scale="   62.560">  2  9  1 -1</clus>
<clus scale="   74.052">  5  6 -1 -1</clus>
<clus scale="   88.539">  1  5  2 -1</clus>
<clus scale="   90.104">  7  8 -1 -1</clus>
<clus scale="   62.560">  2  5  1 -1</clus>
</clustering>
</event>
<event>
 9    2  0.4883225E-005  0.1012387E+03  0.7546771E-02  0.1282937E+00
         21   -1    0    0  501  502  0.00000000000E+00  0.00000000000E+00  0.60443043016E+02  0.60443043016E+02  0.00000000000E+00 0. -1.
          2   -1    0    0  502    0 -0.00000000000E+00 -0.00000000000E+00 -0.32076275677E+03  0.32076275677E+03  0.00000000000E+00 0. -1.
         24    2    1    2    0    0 -0.41260415240E+02  0.13024627652E+02 -0.16890319473E+03  0.19236901059E+03  0.81274130277E+02 0.  0.
         23    2    1    2    0    0  0.31234197039E+02 -0.30977166410E+02 -0.11755034617E+03  0.15558328382E+03  0.91939732521E+02 0.  0.
        -11    1    3    3    0    0 -0.54444614869E+02  0.18778593480E+02 -0.62464823660E+02  0.84962967558E+02  0.00000000000E+00 0.  1.
         12    1    3    3    0    0  0.13184199629E+02 -0.57539658288E+01 -0.10643837107E+03  0.10740604303E+03  0.00000000000E+00 0. -1.
        -13    1    4    4    0    0  0.82803202577E+00  0.29800554874E+02 -0.17296277670E+02  0.34466214313E+02  0.00000000000E+00 0. -1.
         13    1    4    4    0    0  0.30406165013E+02 -0.60777721284E+02 -0.10025406850E+03  0.12111706950E+03  0.00000000000E+00 0.  1.
          1    1    1    2  501    0  0.10026218201E+02  0.17952538758E+02  0.26133827142E+02  0.33253505385E+02  0.00000000000E+00 0. -1.
<scales pt_clust_5="13000.00000" pt_clust_6="13000.00000" pt_clust_7="13000.00000" pt_clust_8="13000.00000" pt_clust_9="20.56256"></scales>
<clustering>
<clus scale="   20.563">  1  9  2 -1</clus>
<clus scale="   81.274">  5  6 -1 -1</clus>
<clus scale="   91.662">  2  5  1 -1</clus>
<clus scale="   91.940">  7  8 -1 -1</clus>
<clus scale="   20.563">  1  5  2 -1</clus>
</clustering>
</event>
<event>
 9    2  0.4883225E-005  0.9590370E+02  0.7546771E-02  0.1295461E+00
         -1   -1    0    0    0  501 -0.00000000000E+00  0.00000000000E+00  0.34870185585E+03  0.34870185585E+03  0.00000000000E+00 0.  1.
         21   -1    0    0  501  502  0.00000000000E+00 -0.00000000000E+00 -0.49511228489E+02  0.49511228489E+02  0.00000000000E+00 0. -1.
         23    2    1    2    0    0  0.17065114950E+02 -0.31331878687E+02  0.24103516001E+03  0.25998868197E+03  0.90682201238E+02 0.  0.
         24    2    1    2    0    0 -0.23346559330E+02  0.11384138554E+02  0.74338258216E+02  0.11178103647E+03  0.79335761393E+02 0.  0.
        -11    1    4    4    0    0  0.28864151673E+02 -0.33162998346E+01  0.29521972204E+02  0.41420815289E+02  0.00000000000E+00 0.  1.
         12    1    4    4    0    0 -0.52210711003E+02  0.14700438388E+02  0.44816286011E+02  0.70360221177E+02  0.00000000000E+00 0. -1.
        -13    1    3    3    0    0  0.52522777353E+02 -0.16520792827E+02  0.17640263403E+03  0.18479574679E+03  0.00000000000E+00 0.  1.
         13    1    3    3    0    0 -0.35457662403E+02 -0.14811085860E+02  0.64632525979E+02  0.75192935186E+02  0.00000000000E+00 0. -1.
         -2    1    1    2    0  502  0.62814443800E+01  0.19947740133E+02 -0.16182790867E+02  0.26443365901E+02  0.00000000000E+00 0.  1.
<scales pt_clust_5="13000.00000" pt_clust_6="13000.00000" pt_clust_7="13000.00000" pt_clust_8="13000.00000" pt_clust_9="20.91337"></scales>
<clustering>
<clus scale="   20.913">  2  9  1 -1</clus>
<clus scale="   79.336">  5  6 -1 -1</clus>
<clus scale="   85.255">  2  5  1 -1</clus>
<clus scale="   90.682">  7  8 -1 -1</clus>
<clus scale="   20.913">  2  5  1 -1</clus>
</clustering>
</event>
<event>
 9    2  0.4883225E-005  0.1049863E+03  0.7546771E-02  0.1276314E+00
         -3   -1    0    0    0  501 -0.00000000000E+00  0.00000000000E+00  0.35388400792E+02  0.35388400792E+02  0.00000000000E+00 0.  1.
         21   -1    0    0  501  502  0.00000000000E+00 -0.00000000000E+00 -0.49498110671E+03  0.49498110671E+03  0.00000000000E+00 0. -1.
         23    2    1    2    0    0  0.55463387591E+02 -0.53868272698E+02 -0.18118266075E+03  0.21814811093E+03  0.93720134343E+02 0.  0.
         24    2    1    2    0    0 -0.13563869475E+02  0.13651639659E+02 -0.17768598998E+03  0.19595324751E+03  0.80343128860E+02 0.  0.
        -13    1    4    4    0    0 -0.41642585364E+02  0.91036767868E+01 -0.52749119912E+02  0.67819256102E+02  0.00000000000E+00 0.  1.
         14    1    4    4    0    0  0.28078715889E+02  0.45479628726E+01 -0.12493687007E+03  0.12813399141E+03  0.00000000000E+00 0. -1.
        -11    1    3    3    0    0  0.54979985116E+02 -0.15914620042E+02 -0.34937317501E+02  0.67057363866E+02  0.00000000000E+00 0.  1.
         11    1    3    3    0    0  0.48340247431E+00 -0.37953652656E+02 -0.14624534324E+03  0.15109074706E+03  0.00000000000E+00 0. -1.
         -4    1    1    2    0  502 -0.41899518116E+02  0.40216633039E+02 -0.10072405519E+03  0.11626814906E+03  0.00000000000E+00 0.  1.
<scales pt_clust_5="13000.00000" pt_clust_6="13000.00000" pt_clust_7="13000.00000" pt_clust_8="13000.00000" pt_clust_9="58.07711"></scales>
<clustering>
<clus scale="   58.077">  2  9  1 -1</clus>
<clus scale="   80.343">  5  6 -1 -1</clus>
<clus scale="   93.240">  2  5  1 -1</clus>
<clus scale="   93.720">  7  8 -1 -1</clus>
<clus scale="   58.077">  2  5  1 -1</clus>
</clustering>
</event>
<event>
 9    2  0.4883225E-005  0.1208021E+03  0.7546771E-02  0.1245985E+00
          2   -1    0    0  502    0 -0.00000000000E+00  0.00000000000E+00  0.52119954201E+03  0.52119954201E+03  0.00000000000E+00 0. -1.
         21   -1    0    0  501  502  0.00000000000E+00 -0.00000000000E+00 -0.70985751269E+02  0.70985751269E+02  0.00000000000E+00 0. -1.
         24    2    1    2    0    0  0.91950539021E+01 -0.74325846440E+02  0.37034727188E+03  0.38624239805E+03  0.80107476512E+02 0.  0.
         23    2    1    2    0    0 -0.32579260459E+02  0.79651590693E+02  0.10965109992E+03  0.16770278623E+03  0.93247395051E+02 0.  0.
        -11    1    3    3    0    0 -0.96757200516E+01 -0.85927965956E+02  0.27125459727E+03  0.28470386620E+03  0.00000000000E+00 0.  1.
         12    1    3    3    0    0  0.18870773954E+02  0.11602119515E+02  0.99092674614E+02  0.10153853184E+03  0.00000000000E+00 0. -1.
        -13    1    4    4    0    0 -0.25624198833E+02  0.70023500332E+00 -0.70928959619E+01  0.26596974791E+02  0.00000000000E+00 0.  1.
         13    1    4    4    0    0 -0.69550616261E+01  0.78951355690E+02  0.11674399588E+03  0.14110581144E+03  0.00000000000E+00 0. -1.
          1    1    1    2  501    0  0.23384206557E+02 -0.53257442528E+01 -0.29784581056E+02  0.38240109007E+02  0.00000000000E+00 0. -1.
<scales pt_clust_5="13000.00000" pt_clust_6="13000.00000" pt_clust_7="13000.00000" pt_clust_8="13000.00000" pt_clust_9="23.98301"></scales>
<clustering>
<clus scale="   23.983">  2  9  1 -1</clus>
<clus scale="   80.107">  5  6 -1 -1</clus>
<clus scale="   93.247">  7  8 -1 -1</clus>
<clus scale="  110.974">  1  5  2 -1</clus>
<clus scale="   23.983">  2  5  1 -1</clus>
</clustering>
</event>
<event>
 9    2  0.4883225E-005  0.1191825E+03  0.7546771E-02  0.1250122E+00
          2   -1    0    0  502    0 -0.00000000000E+00  0.00000000000E+00  0.47753128573E+03  0.47753128573E+03  0.00000000000E+00 0. -1.
         21   -1    0    0  501  502  0.00000000000E+00 -0.00000000000E+00 -0.66732253833E+02  0.66732253833E+02  0.00000000000E+00 0. -1.
         24    2    1    2    0    0  0.32822302698E+02 -0.67559815696E+02  0.38463733228E+03  0.39966237653E+03  0.78374138470E+02 0.  0.
         23    2    1    2    0    0 -0.12124844814E+02  0.55283698659E+02  0.39039406436E+02  0.11730788281E+03  0.95046119940E+02 0.  0.
        -13    1    3    3    0    0 -0.25770811425E+01 -0.27577252790E+02  0.29240683405E+02  0.40276094456E+02  0.00000000000E+00 0.  1.
         14    1    3    3    0    0  0.35399383840E+02 -0.39982562905E+02  0.35539664888E+03  0.35938628208E+03  0.00000000000E+00 0. -1.
        -11    1    4    4    0    0 -0.53105995981E+02  0.27035787238E+02  0.12453738994E+02  0.60879193619E+02  0.00000000000E+00 0.  1.
         11    1    4    4    0    0  0.40981151167E+02  0.28247911421E+02  0.26585667441E+02  0.56428689192E+02  0.00000000000E+00 0. -1.
          1    1    1    2  501    0 -0.20697457884E+02  0.12276117036E+02 -0.12877706817E+02  0.27293280221E+02  0.00000000000E+00 0. -1.
<scales pt_clust_5="13000.00000" pt_clust_6="13000.00000" pt_clust_7="13000.00000" pt_clust_8="13000.00000" pt_clust_9="24.06424"></scales>
<clustering>
<clus scale="   24.064">  2  9  1 -1</clus>
<clus scale="   78.374">  5  6 -1 -1</clus>
<clus scale="   95.046">  7  8 -1 -1</clus>
<clus scale="  106.364">  1  5  2 -1</clus>
<clus scale="   24.064">  2  5  1 -1</clus>
</clustering>
</event>
<event>
 9    2  0.4883225E-005  0.1033330E+03  0.7546771E-02  0.1283539E+00
         -1   -1    0    0    0  501 -0.00000000000E+00  0.00000000000E+00  0.31215012909E+03  0.31215012909E+03  0.00000000000E+00 0.  1.
         21   -1    0    0  501  502  0.00000000000E+00 -0.00000000000E+00 -0.69949848154E+02  0.69949848154E+02  0.00000000000E+00 0. -1.
         24    2    1    2    0    0  0.30104210986E+02  0.38864575383E+02  0.24546046766E+03  0.26000891825E+03  0.70264341236E+02 0.  0.
         23    2    1    2    0    0 -0.10577977627E+02 -0.43642974763E+02 -0.47334299609E+01  0.10193473652E+03  0.91387539053E+02 0.  0.
        -13    1    3    3    0    0  0.53032660327E+02  0.28211819767E+02  0.18377993813E+03  0.19334796481E+03  0.00000000000E+00 0.  1.
         14    1    3    3    0    0 -0.22928449342E+02  0.10652755616E+02  0.61680529526E+02  0.66660953444E+02  0.00000000000E+00 0. -1.
        -13    1    4    4    0    0 -0.48481604258E+02 -0.86878370656E+01 -0.94718889446E+01  0.50156366939E+02  0.00000000000E+00 0. -1.
         13    1    4    4    0    0  0.37903626632E+02 -0.34955137697E+02  0.47384589837E+01  0.51778369584E+02  0.00000000000E+00 0.  1.
         -2    1    1    2    0  502 -0.19526233359E+02  0.47783993797E+01  0.14732432405E+01  0.20156322469E+02  0.00000000000E+00 0.  1.
<scales pt_clust_5="13000.00000" pt_clust_6="13000.00000" pt_clust_7="13000.00000" pt_clust_8="13000.00000" pt_clust_9="20.10241"></scales>
<clustering>
<clus scale="   20.102">  2  9  1 -1</clus>
<clus scale="   70.264">  5  6 -1 -1</clus>
<clus scale="   85.224">  1  5  2 -1</clus>
<clus scale="   91.388">  7  8 -1 -1</clus>
<clus scale="   20.102">  2  5  1 -1</clus>
</clustering>
</event>
<event>
 9    2  0.4883225E-005  0.2263440E+03  0.7546771E-02  0.1129240E+00
         21   -1    0    0  501  502  0.00000000000E+00  0.00000000000E+00  0.68517998183E+02  0.68517998183E+02  0.00000000000E+00 0. -1.
          2   -1    0    0  502    0 -0.00000000000E+00 -0.00000000000E+00 -0.49244803959E+03  0.49244803959E+03  0.00000000000E+00 0. -1.
         24    2    1    2    0    0 -0.21378526666E+02 -0.91625892395E+02 -0.15153020985E+03  0.19261370585E+03  0.72706874673E+02 0.  0.
         23    2    1    2    0    0  0.22880309204E+02 -0.48380557666E+02 -0.13039752071E+03  0.16893137591E+03  0.93113422508E+02 0.  0.
        -13    1    3    3    0    0  0.19530015919E+02 -0.51398969479E+01 -0.12186587367E+02  0.23587135775E+02  0.00000000000E+00 0.  1.
         14    1    3    3    0    0 -0.40908542584E+02 -0.86485995447E+02 -0.13934362248E+03  0.16902657007E+03  0.00000000000E+00 0. -1.
        -11    1    4    4    0    0 -0.34625948268E+02 -0.44227809091E+01 -0.46018023005E+02  0.57759637514E+02  0.00000000000E+00 0.  1.
         11    1    4    4    0    0  0.57506257472E+02 -0.43957776757E+02 -0.84379497707E+02  0.11117173840E+03  0.00000000000E+00 0. -1.
          1    1    1    2  501    0 -0.15017825385E+01  0.14000645006E+03 -0.14200231085E+03  0.19942095601E+03  0.00000000000E+00 0. -1.
<scales pt_clust_5="13000.00000" pt_clust_6="13000.00000" pt_clust_7="13000.00000" pt_clust_8="13000.00000" pt_clust_9="140.01450"></scales>
<clustering>
<clus scale="   72.707">  5  6 -1 -1</clus>
<clus scale="   93.113">  7  8 -1 -1</clus>
<clus scale="   99.564">  5  7 -1 -1</clus>
<clus scale="  140.015">  1  9  2 -1</clus>
<clus scale="  140.015">  1  5  2 -1</clus>
</clustering>
</event>
<event>
 9    2  0.4883225E-005  0.2831523E+03  0.7546771E-02  0.1129285E+00
         21   -1    0    0  501  502  0.00000000000E+00  0.00000000000E+00  0.42245406419E+02  0.42245406419E+02  0.00000000000E+00 0.  1.
          2   -1    0    0  502    0 -0.00000000000E+00 -0.00000000000E+00 -0.28457851272E+04  0.28457851272E+04  0.00000000000E+00 0. -1.
         23    2    1    2    0    0 -0.69947986767E+02  0.20559895817E+02 -0.31679354116E+03  0.33718707779E+03  0.89563092513E+02 0.  0.
         24    2    1    2    0    0  0.81463323440E+02  0.25859319969E+03 -0.10520412564E+04  0.10891877951E+04  0.77669375684E+02 0.  0.
        -13    1    4    4    0    0  0.21179484669E+02  0.16082584005E+03 -0.71297265388E+03  0.73119322110E+03  0.00000000000E+00 0.  1.
         14    1    4    4    0    0  0.60283838771E+02  0.97767359638E+02 -0.33906860253E+03  0.35799457405E+03  0.00000000000E+00 0. -1.
        -11    1    3    3    0    0 -0.58780721689E+02  0.48261802869E+02 -0.27806744385E+03  0.28828090153E+03  0.00000000000E+00 0. -1.
         11    1    3    3    0    0 -0.11167265078E+02 -0.27701907052E+02 -0.38726097313E+02  0.48906176263E+02  0.00000000000E+00 0.  1.
          1    1    1    2  501    0 -0.11515336673E+02 -0.27915309551E+03 -0.14347049232E+04  0.14616556607E+04  0.00000000000E+00 0. -1.
<scales pt_clust_5="13000.00000" pt_clust_6="13000.00000" pt_clust_7="13000.00000" pt_clust_8="13000.00000" pt_clust_9="272.29169"></scales>
<clustering>
<clus scale="   77.669">  5  6 -1 -1</clus>
<clus scale="   89.563">  7  8 -1 -1</clus>
<clus scale="  115.486">  2  7  1 -1</clus>
<clus scale="  272.292">  1  9  2 -1</clus>
<clus scale="  272.292">  1  5  2 -1</clus>
</clustering>
</event>
<event>
 9    2  0.4883225E-005  0.1315836E+03  0.7546771E-02  0.1228300E+00
          2   -1    0    0  502    0 -0.00000000000E+00  0.00000000000E+00  0.11925475464E+04  0.11925475464E+04  0.00000000000E+00 0. -1.
         21   -1    0    0  501  502  0.00000000000E+00 -0.00000000000E+00 -0.65099250612E+02  0.65099250612E+02  0.00000000000E+00 0. -1.
         24    2    1    2    0    0 -0.82860949214E+02  0.37298106540E+02  0.57090284708E+03  0.58324217326E+03  0.77358168337E+02 0.  0.
         23    2    1    2    0    0  0.14452528627E+03 -0.23024144525E+02  0.72999154917E+02  0.18673336697E+03  0.90126600496E+02 0.  0.
        -11    1    3    3    0    0 -0.68991230810E+00  0.30372052927E+02  0.82271388027E+02  0.87701304813E+02  0.00000000000E+00 0.  1.
         12    1    3    3    0    0 -0.82171036906E+02  0.69260536130E+01  0.48863145905E+03  0.49554086844E+03  0.00000000000E+00 0. -1.
        -11    1    4    4    0    0  0.71166649498E+02 -0.35964781456E+02  0.78686182423E+02  0.11202532218E+03  0.00000000000E+00 0.  1.
         11    1    4    4    0    0  0.73358636773E+02  0.12940636931E+02 -0.56870275065E+01  0.74708044783E+02  0.00000000000E+00 0. -1.
          1    1    1    2  501    0 -0.61664337057E+02 -0.14273962015E+02  0.48354629384E+03  0.48767125683E+03  0.00000000000E+00 0. -1.
<scales pt_clust_5="13000.00000" pt_clust_6="13000.00000" pt_clust_7="13000.00000" pt_clust_8="13000.00000" pt_clust_9="63.29487"></scales>
<clustering>
<clus scale="   63.295">  2  9  1 -1</clus>
<clus scale="   77.358">  5  6 -1 -1</clus>
<clus scale="   90.127">  7  8 -1 -1</clus>
<clus scale="  123.190">  1  5  2 -1</clus>
<clus scale="   63.295">  2  5  1 -1</clus>
</clustering>
</event>
<event>
 9    2  0.4883225E-005  0.9625541E+02  0.7546771E-02  0.1294220E+00
         21   -1    0    0  501  502  0.00000000000E+00  0.00000000000E+00  0.37643648724E+02  0.37643648724E+02  0.00000000000E+00 0. -1.
          2   -1    0    0  502    0 -0.00000000000E+00 -0.00000000000E+00 -0.28821704864E+03  0.28821704864E+03  0.00000000000E+00 0. -1.
         24    2    1    2    0    0 -0.21772060160E+02 -0.15647825281E+02 -0.92696896003E+02  0.12528366143E+03  0.79902467128E+02 0.  0.
         23    2    1    2    0    0  0.41356462087E+02  0.39381470156E+01 -0.11629426180E+03  0.15314552507E+03  0.90572239469E+02 0.  0.
        -11    1    3    3    0    0  0.20589554998E+02  0.20080520328E+02 -0.28758465421E+02  0.40671936332E+02  0.00000000000E+00 0.  1.
         12    1    3    3    0    0 -0.42361615159E+02 -0.35728345608E+02 -0.63938430583E+02  0.84611725098E+02  0.00000000000E+00 0. -1.
        -13    1    4    4    0    0  0.91500219641E+01 -0.29705375375E+02 -0.98500160153E+02  0.10328801372E+03  0.00000000000E+00 0.  1.
         13    1    4    4    0    0  0.32206440123E+02  0.33643522391E+02 -0.17794101646E+02  0.49857511347E+02  0.00000000000E+00 0. -1.
          1    1    1    2  501    0 -0.19584401927E+02  0.11709678265E+02 -0.41582242109E+02  0.47431510863E+02  0.00000000000E+00 0. -1.
<scales pt_clust_5="13000.00000" pt_clust_6="13000.00000" pt_clust_7="13000.00000" pt_clust_8="13000.00000" pt_clust_9="22.81810"></scales>
<clustering>
<clus scale="   22.818">  1  9  2 -1</clus>
<clus scale="   79.902">  5  6 -1 -1</clus>
<clus scale="   86.291">  2  5  1 -1</clus>
<clus scale="   90.572">  7  8 -1 -1</clus>
<clus scale="   22.818">  1  5  2 -1</clus>
</clustering>
</event>
<event>
 9    2  0.4883225E-005  0.3456236E+03  0.7546771E-02  0.1110576E+00
         21   -1    0    0  501  502  0.00000000000E+00  0.00000000000E+00  0.12364264850E+03  0.12364264850E+03  0.00000000000E+00 0. -1.
          2   -1    0    0  502    0 -0.00000000000E+00 -0.00000000000E+00 -0.18621623648E+04  0.18621623648E+04  0.00000000000E+00 0. -1.
         24    2    1    2    0    0 -0.49256872876E+01  0.47338860658E+02 -0.32802889384E+03  0.34334313909E+03  0.89533936813E+02 0.  0.
         23    2    1    2    0    0  0.24874365921E+03 -0.23329714408E+03 -0.22634134093E+03  0.41925392738E+03  0.90788146691E+02 0.  0.
        -13    1    3    3    0    0 -0.22327231134E+02 -0.17046720665E+02 -0.16202405403E+03  0.16444114454E+03  0.00000000000E+00 0.  1.
         14    1    3    3    0    0  0.17401543847E+02  0.64385581323E+02 -0.16600483982E+03  0.17890199455E+03  0.00000000000E+00 0. -1.
        -13    1    4    4    0    0  0.13736058516E+03 -0.17493951481E+03 -0.11082611697E+03  0.24850390822E+03  0.00000000000E+00 0. -1.
         13    1    4    4    0    0  0.11138307404E+03 -0.58357629272E+02 -0.11551522396E+03  0.17075001916E+03  0.00000000000E+00 0.  1.
          1    1    1    2  501    0 -0.24381797192E+03  0.18595828342E+03 -0.11841494815E+04  0.12232079468E+04  0.00000000000E+00 0. -1.
<scales pt_clust_5="13000.00000" pt_clust_6="13000.00000" pt_clust_7="13000.00000" pt_clust_8="13000.00000" pt_clust_9="333.48661"></scales>
<clustering>
<clus scale="   89.534">  5  6 -1 -1</clus>
<clus scale="   90.788">  7  8 -1 -1</clus>
<clus scale="  101.398">  2  5  1 -1</clus>
<clus scale="  333.487">  1  9  2 -1</clus>
<clus scale="  333.487">  1  5  2 -1</clus>
</clustering>
</event>
<event>
 9    2  0.4883225E-005  0.1027706E+03  0.7546771E-02  0.1278830E+00
         21   -1    0    0  501  502  0.00000000000E+00  0.00000000000E+00  0.33111250451E+03  0.33111250451E+03  0.00000000000E+00 0. -1.
          2   -1    0    0  502    0 -0.00000000000E+00 -0.00000000000E+00 -0.88260233284E+02  0.88260233284E+02  0.00000000000E+00 0. -1.
         23    2    1    2    0    0  0.20030247096E+02  0.28084070229E+02  0.66322339294E+02  0.11702946851E+03  0.90040646433E+02 0.  0.
         24    2    1    2    0    0 -0.13451147755E+02 -0.89207837148E+02  0.20223511225E+03  0.23570877577E+03  0.80750323636E+02 0.  0.
        -13    1    4    4    0    0 -0.33379672155E+02 -0.59550962691E+02  0.18258729332E+03  0.19493239688E+03  0.00000000000E+00 0.  1.
         14    1    4    4    0    0  0.19928524400E+02 -0.29656874457E+02  0.19647818925E+02  0.40776378895E+02  0.00000000000E+00 0. -1.
        -13    1    3    3    0    0  0.46249925270E+02  0.65847451995E+01  0.50337398435E+01  0.46986732102E+02  0.00000000000E+00 0.  1.
         13    1    3    3    0    0 -0.26219678174E+02  0.21499325030E+02  0.61288599451E+02  0.70042736404E+02  0.00000000000E+00 0. -1.
          1    1    1    2  501    0 -0.65790993406E+01  0.61123766919E+02 -0.25705180316E+02  0.66634493512E+02  0.00000000000E+00 0. -1.
<scales pt_clust_5="13000.00000" pt_clust_6="13000.00000" pt_clust_7="13000.00000" pt_clust_8="13000.00000" pt_clust_9="61.47685"></scales>
<clustering>
<clus scale="   61.477">  1  9  2 -1</clus>
<clus scale="   80.750">  5  6 -1 -1</clus>
<clus scale="   90.041">  7  8 -1 -1</clus>
<clus scale="   94.737">  1  5  2 -1</clus>
<clus scale="   61.477">  1  5  2 -1</clus>
</clustering>
</event>
<event>
 9    2  0.4883225E-005  0.1393845E+03  0.7546771E-02  0.1216526E+00
          2   -1    0    0  502    0 -0.00000000000E+00  0.00000000000E+00  0.44139406261E+03  0.44139406261E+03  0.00000000000E+00 0. -1.
         21   -1    0    0  501  502  0.00000000000E+00 -0.00000000000E+00 -0.30540868499E+03  0.30540868499E+03  0.00000000000E+00 0. -1.
         24    2    1    2    0    0  0.21435179483E+02  0.10164168096E+03  0.33628389585E+03  0.36100140032E+03  0.80278603628E+02 0.  0.
         23    2    1    2    0    0  0.70485595115E+01 -0.11658539065E+03  0.31795040567E+02  0.15148946563E+03  0.91084016644E+02 0.  0.
        -11    1    3    3    0    0 -0.74827157234E+01  0.19391411406E+02  0.96209300065E+01  0.22903715094E+02  0.00000000000E+00 0.  1.
         12    1    3    3    0    0  0.28917895207E+02  0.82250269558E+02  0.32666296584E+03  0.33809768523E+03  0.00000000000E+00 0. -1.
        -11    1    4    4    0    0  0.39101361544E+02 -0.24036674699E+02  0.27386812925E+02  0.53448252800E+02  0.00000000000E+00 0. -1.
         11    1    4    4    0    0 -0.32052802032E+02 -0.92548715951E+02  0.44082276423E+01  0.98041212831E+02  0.00000000000E+00 0.  1.
          1    1    1    2  501    0 -0.28483738995E+02  0.14943709687E+02 -0.23209355880E+03  0.23431188165E+03  0.00000000000E+00 0. -1.
<scales pt_clust_5="13000.00000" pt_clust_6="13000.00000" pt_clust_7="13000.00000" pt_clust_8="13000.00000" pt_clust_9="32.16579"></scales>
<clustering>
<clus scale="   32.166">  2  9  1 -1</clus>
<clus scale="   80.279">  5  6 -1 -1</clus>
<clus scale="   91.084">  7  8 -1 -1</clus>
<clus scale="  132.576">  1  5  2 -1</clus>
<clus scale="   32.166">  2  5  1 -1</clus>
</clustering>
</event>
<event>
 9    2  0.4883225E-005  0.9882768E+02  0.7546771E-02  0.1289910E+00
          2   -1    0    0  502    0 -0.00000000000E+00  0.00000000000E+00  0.32932048335E+03  0.32932048335E+03  0.00000000000E+00 0. -1.
         21   -1    0    0  501  502  0.00000000000E+00 -0.00000000000E+00 -0.14890703701E+03  0.14890703701E+03  0.00000000000E+00 0. -1.
         23    2    1    2    0    0 -0.25342370378E+02 -0.25101603386E+01  0.23708777387E+03  0.25584447868E+03  0.92721346582E+02 0.  0.
         24    2    1    2    0    0  0.63684480043E+02  0.28897055614E+02  0.41590402257E+02  0.11365244463E+03  0.79349630043E+02 0.  0.
        -11    1    4    4    0    0  0.54097030421E+01  0.37269096461E+02  0.39740991651E+02  0.54750313747E+02  0.00000000000E+00 0.  1.
         12    1    4    4    0    0  0.58274777001E+02 -0.83720408468E+01  0.18494106065E+01  0.58902130879E+02  0.00000000000E+00 0. -1.
        -13    1    3    3    0    0 -0.34364212786E+02  0.39088561860E+02  0.10733110617E+03  0.11928445473E+03  0.00000000000E+00 0.  1.
         13    1    3    3    0    0  0.90218424082E+01 -0.41598722198E+02  0.12975666770E+03  0.13656002395E+03  0.00000000000E+00 0. -1.
          1    1    1    2  501    0 -0.38342109665E+02 -0.26386895275E+02 -0.98264729783E+02  0.10873059705E+03  0.00000000000E+00 0. -1.
<scales pt_clust_5="13000.00000" pt_clust_6="13000.00000" pt_clust_7="13000.00000" pt_clust_8="13000.00000" pt_clust_9="46.54445"></scales>
<clustering>
<clus scale="   46.544">  2  9  1 -1</clus>
<clus scale="   79.350">  5  6 -1 -1</clus>
<clus scale="   86.406">  2  5  1 -1</clus>
<clus scale="   92.721">  7  8 -1 -1</clus>
<clus scale="   46.544">  2  5  1 -1</clus>
</clustering>
</event>
<event>
 9    2  0.4883225E-005  0.1228767E+03  0.7546771E-02  0.1243035E+00
         21   -1    0    0  501  502  0.00000000000E+00  0.00000000000E+00  0.22839149087E+02  0.22839149087E+02  0.00000000000E+00 0. -1.
          2   -1    0    0  502    0 -0.00000000000E+00 -0.00000000000E+00 -0.11905763126E+04  0.11905763126E+04  0.00000000000E+00 0. -1.
         24    2    1    2    0    0  0.11815232657E+02  0.95666961322E+02 -0.78371378756E+03  0.79326835453E+03  0.75997462246E+02 0.  0.
         23    2    1    2    0    0 -0.29124505776E+02 -0.37355036506E+02 -0.18113703734E+03  0.20833880253E+03  0.91382683025E+02 0.  0.
        -13    1    3    3    0    0  0.34260305027E+02  0.46741871691E+02 -0.24005754833E+03  0.24695383694E+03  0.00000000000E+00 0.  1.
         14    1    3    3    0    0 -0.22445072370E+02  0.48925089631E+02 -0.54365623924E+03  0.54631451759E+03  0.00000000000E+00 0. -1.
        -11    1    4    4    0    0 -0.15583682955E+02  0.27893440217E+02 -0.33157377064E+02  0.46046789632E+02  0.00000000000E+00 0.  1.
         11    1    4    4    0    0 -0.13540822821E+02 -0.65248476723E+02 -0.14797966027E+03  0.16229201290E+03  0.00000000000E+00 0. -1.
          1    1    1    2  501    0  0.17309273119E+02 -0.58311924816E+02 -0.20288633857E+03  0.21180830458E+03  0.00000000000E+00 0. -1.
<scales pt_clust_5="13000.00000" pt_clust_6="13000.00000" pt_clust_7="13000.00000" pt_clust_8="13000.00000" pt_clust_9="60.82673"></scales>
<clustering>
<clus scale="   60.827">  1  9  2 -1</clus>
<clus scale="   75.997">  5  6 -1 -1</clus>
<clus scale="   91.383">  7  8 -1 -1</clus>
<clus scale="  111.908">  2  5  1 -1</clus>
<clus scale="   60.827">  1  5  2 -1</clus>
</clustering>
</event>
<event>
 9    2  0.4883225E-005  0.1134282E+03  0.7546771E-02  0.1258430E+00
         21   -1    0    0  501  502  0.00000000000E+00  0.00000000000E+00  0.34535091401E+03  0.34535091401E+03  0.00000000000E+00 0.  1.
          2   -1    0    0  502    0 -0.00000000000E+00 -0.00000000000E+00 -0.12072088055E+03  0.12072088055E+03  0.00000000000E+00 0. -1.
         23    2    1    2    0    0 -0.58780977432E+02 -0.18320703966E+02 -0.57844597743E+02  0.12509010991E+03  0.92253382638E+02 0.  0.
         24    2    1    2    0    0  0.10457231197E+03 -0.13034891855E+02  0.22273091470E+03  0.25943825222E+03  0.81202644777E+02 0.  0.
        -11    1    4    4    0    0  0.28657803513E+02 -0.31319363976E+02  0.13723093219E+03  0.14364714063E+03  0.00000000000E+00 0.  1.
         12    1    4    4    0    0  0.75914508460E+02  0.18284472121E+02  0.85499982510E+02  0.11579111160E+03  0.00000000000E+00 0. -1.
        -13    1    3    3    0    0 -0.20531974603E+02  0.36199567968E+02 -0.35920777312E+02  0.54975202999E+02  0.00000000000E+00 0.  1.
         13    1    3    3    0    0 -0.38249002829E+02 -0.54520271933E+02 -0.21923820432E+02  0.70114906913E+02  0.00000000000E+00 0. -1.
          1    1    1    2  501    0 -0.45791334541E+02  0.31355595821E+02  0.59743716515E+02  0.81543432423E+02  0.00000000000E+00 0. -1.
<scales pt_clust_5="13000.00000" pt_clust_6="13000.00000" pt_clust_7="13000.00000" pt_clust_8="13000.00000" pt_clust_9="55.49793"></scales>
<clustering>
<clus scale="   55.498">  1  9  2 -1</clus>
<clus scale="   81.203">  5  6 -1 -1</clus>
<clus scale="   92.253">  7  8 -1 -1</clus>
<clus scale="  104.638">  1  5  2 -1</clus>
<clus scale="   55.498">  1  5  2 -1</clus>
</clustering>
</event>
<event>
 9    2  0.4883225E-005  0.1020140E+03  0.7546771E-02  0.1282460E+00
          2   -1    0    0  502    0 -0.00000000000E+00  0.00000000000E+00  0.15283436614E+03  0.15283436614E+03  0.00000000000E+00 0. -1.
         21   -1    0    0  501  502  0.00000000000E+00 -0.00000000000E+00 -0.93052782497E+02  0.93052782497E+02  0.00000000000E+00 0. -1.
         24    2    1    2    0    0  0.20542408963E+02  0.27885152148E+02  0.54033727691E+02  0.10330310500E+03  0.80946374212E+02 0.  0.
         23    2    1    2    0    0 -0.56600560974E+01 -0.56870126569E+02  0.21993858376E+01  0.10980897981E+03  0.93738611134E+02 0.  0.
        -11    1    3    3    0    0  0.49257129011E+02  0.19712402914E+01  0.28239289071E+02  0.56812040924E+02  0.00000000000E+00 0.  1.
         12    1    3    3    0    0 -0.28714720048E+02  0.25913911856E+02  0.25794438621E+02  0.46491064076E+02  0.00000000000E+00 0. -1.
        -13    1    4    4    0    0 -0.26743350938E+02 -0.65848564449E+02 -0.23987945438E+02  0.75011077753E+02  0.00000000000E+00 0. -1.
         13    1    4    4    0    0  0.21083294840E+02  0.89784378796E+01  0.26187331275E+02  0.34797902055E+02  0.00000000000E+00 0.  1.
          1    1    1    2  501    0 -0.14882352865E+02  0.28984974422E+02  0.35484701160E+01  0.32775063832E+02  0.00000000000E+00 0. -1.
<scales pt_clust_5="13000.00000" pt_clust_6="13000.00000" pt_clust_7="13000.00000" pt_clust_8="13000.00000" pt_clust_9="32.58241"></scales>
<clustering>
<clus scale="   32.582">  2  9  1 -1</clus>
<clus scale="   80.946">  5  6 -1 -1</clus>
<clus scale="   90.400">  1  5  2 -1</clus>
<clus scale="   93.739">  7  8 -1 -1</clus>
<clus scale="   32.582">  2  5  1 -1</clus>
</clustering>
</event>
<event>
 9    2  0.4883225E-005  0.1031695E+03  0.7546771E-02  0.1278943E+00
          4   -1    0    0  502    0 -0.00000000000E+00  0.00000000000E+00  0.53147737683E+02  0.53147737683E+02  0.00000000000E+00 0. -1.
         21   -1    0    0  501  502  0.00000000000E+00 -0.00000000000E+00 -0.24336892778E+03  0.24336892778E+03  0.00000000000E+00 0. -1.
         23    2    1    2    0    0  0.52454335010E+02  0.41474345511E+01 -0.66613406963E+02  0.12537735595E+03  0.92268504509E+02 0.  0.
         24    2    1    2    0    0 -0.37317414999E+02  0.14332401277E+02 -0.11352059673E+03  0.14520897960E+03  0.81244782504E+02 0.  0.
        -11    1    4    4    0    0 -0.34195323344E+02  0.14896671759E+02 -0.61635111474E+01  0.37805023975E+02  0.00000000000E+00 0.  1.
         12    1    4    4    0    0 -0.31220916550E+01 -0.56427048171E+00 -0.10735708559E+03  0.10740395562E+03  0.00000000000E+00 0. -1.
        -13    1    3    3    0    0  0.27015857621E+02  0.19764782030E+02  0.16316543283E+02  0.37238860836E+02  0.00000000000E+00 0. -1.
         13    1    3    3    0    0  0.25438477389E+02 -0.15617347478E+02 -0.82929950245E+02  0.88138495119E+02  0.00000000000E+00 0.  1.
          3    1    1    2  501    0 -0.15136920011E+02 -0.18479835828E+02 -0.10087186396E+02  0.25930329906E+02  0.00000000000E+00 0. -1.
<scales pt_clust_5="13000.00000" pt_clust_6="13000.00000" pt_clust_7="13000.00000" pt_clust_8="13000.00000" pt_clust_9="23.88789"></scales>
<clustering>
<clus scale="   23.888">  2  9  1 -1</clus>
<clus scale="   81.245">  5  6 -1 -1</clus>
<clus scale="   92.269">  7  8 -1 -1</clus>
<clus scale="   93.441">  2  5  1 -1</clus>
<clus scale="   23.888">  2  5  1 -1</clus>
</clustering>
</event>
<event>
 9    2  0.4883225E-005  0.1672335E+03  0.7546771E-02  0.1182114E+00
         21   -1    0    0  501  502  0.00000000000E+00  0.00000000000E+00  0.18206381432E+03  0.18206381432E+03  0.00000000000E+00 0.  1.
         -1   -1    0    0    0  501 -0.00000000000E+00 -0.00000000000E+00 -0.24246745997E+03  0.24246745997E+03  0.00000000000E+00 0.  1.
         24    2    1    2    0    0 -0.11505913676E+03 -0.87578203784E+02 -0.12379946602E+03  0.20650119677E+03  0.80049295746E+02 0.  0.
         23    2    1    2    0    0  0.84748077423E+02  0.10228868924E+03  0.81450825966E+02  0.17980519130E+03  0.89724340030E+02 0.  0.
        -11    1    3    3    0    0 -0.11751460478E+03 -0.98937973973E+02 -0.11618625115E+03  0.19260750242E+03  0.00000000000E+00 0.  1.
         12    1    3    3    0    0  0.24554680252E+01  0.11359770189E+02 -0.76132148634E+01  0.13893694344E+02  0.00000000000E+00 0. -1.
        -11    1    4    4    0    0  0.22189624578E+02 -0.15399792338E+02  0.14339772897E+02  0.30580420692E+02  0.00000000000E+00 0. -1.
         11    1    4    4    0    0  0.62558452846E+02  0.11768848158E+03  0.67111053070E+02  0.14922477061E+03  0.00000000000E+00 0.  1.
         -2    1    1    2    0  502  0.30311059336E+02 -0.14710485454E+02 -0.18055005598E+02  0.38224886233E+02  0.00000000000E+00 0.  1.
<scales pt_clust_5="13000.00000" pt_clust_6="13000.00000" pt_clust_7="13000.00000" pt_clust_8="13000.00000" pt_clust_9="33.69213"></scales>
<clustering>
<clus scale="   33.692">  1  9  2 -1</clus>
<clus scale="   80.049">  5  6 -1 -1</clus>
<clus scale="   89.724">  7  8 -1 -1</clus>
<clus scale="  162.248">  2  5  1 -1</clus>
<clus scale="   33.692">  1  5  2 -1</clus>
</clustering>
</event>
<event>
 9    2  0.4883225E-005  0.1030780E+03  0.7546771E-02  0.1279492E+00
         21   -1    0    0  501  502  0.00000000000E+00  0.00000000000E+00  0.20373329360E+02  0.20373329360E+02  0.00000000000E+00 0. -1.
          2   -1    0    0  502    0 -0.00000000000E+00 -0.00000000000E+00 -0.92455883063E+03  0.92455883063E+03  0.00000000000E+00 0. -1.
         24    2    1    2    0    0  0.29392283817E+02 -0.53465776050E+02 -0.54110679073E+03  0.55044766311E+03  0.80458531497E+02 0.  0.
         23    2    1    2    0    0  0.16780888366E+02  0.20025866345E+02 -0.20121093985E+03  0.22287049810E+03  0.92210536650E+02 0.  0.
        -13    1    3    3    0    0  0.33592941163E+02  0.84461125726E+01 -0.12388424078E+03  0.12863563902E+03  0.00000000000E+00 0.  1.
         14    1    3    3    0    0 -0.42006573460E+01 -0.61911888623E+02 -0.41722254995E+03  0.42181202408E+03  0.00000000000E+00 0. -1.
        -13    1    4    4    0    0  0.17286068327E+02 -0.35640680414E+02 -0.71986382425E+02  0.82165111289E+02  0.00000000000E+00 0. -1.
         13    1    4    4    0    0 -0.50517996124E+00  0.55666546759E+02 -0.12922455743E+03  0.14070538681E+03  0.00000000000E+00 0.  1.
          1    1    1    2  501    0 -0.46173172183E+02  0.33439909706E+02 -0.16186777069E+03  0.17161399878E+03  0.00000000000E+00 0. -1.
<scales pt_clust_5="13000.00000" pt_clust_6="13000.00000" pt_clust_7="13000.00000" pt_clust_8="13000.00000" pt_clust_9="57.01043"></scales>
<clustering>
<clus scale="   57.010">  1  9  2 -1</clus>
<clus scale="   80.459">  5  6 -1 -1</clus>
<clus scale="   92.211">  7  8 -1 -1</clus>
<clus scale="   92.714">  2  5  1 -1</clus>
<clus scale="   57.010">  1  5  2 -1</clus>
</clustering>
</event>
<event>
 9    2  0.5138428E-005  0.2822188E+03  0.7546771E-02  0.1094483E+00
         21   -1    0    0  501  502  0.00000000000E+00  0.00000000000E+00  0.27357168761E+03  0.27357168761E+03  0.00000000000E+00 0. -1.
          2   -1    0    0  502    0 -0.00000000000E+00 -0.00000000000E+00 -0.56471484476E+03  0.56471484476E+03  0.00000000000E+00 0. -1.
         24    2    1    2    0    0  0.11090318555E+03  0.26237611662E+02 -0.20838243702E+03  0.25064597986E+03  0.80076453053E+02 0.  0.
         23    2    1    2    0    0  0.84468968953E+02 -0.33842583088E+02 -0.27777570453E+03  0.31149030629E+03  0.10764079961E+03 0.  0.
        -13    1    3    3    0    0  0.10856355839E+02 -0.23979067201E+02 -0.28671502514E+02  0.38921859954E+02  0.00000000000E+00 0.  1.
         14    1    3    3    0    0  0.10004682971E+03  0.50216678862E+02 -0.17971093450E+03  0.21172411991E+03  0.00000000000E+00 0. -1.
        -13    1    4    4    0    0  0.35213103693E+02  0.36505919050E+02 -0.68131793556E+02  0.84938719619E+02  0.00000000000E+00 0.  1.
         13    1    4    4    0    0  0.49255865260E+02 -0.70348502139E+02 -0.20964391097E+03  0.22655158667E+03  0.00000000000E+00 0. -1.
          1    1    1    2  501    0 -0.19537215450E+03  0.76049714266E+01  0.19501498440E+03  0.27615024622E+03  0.00000000000E+00 0. -1.
<scales pt_clust_5="13000.00000" pt_clust_6="13000.00000" pt_clust_7="13000.00000" pt_clust_8="13000.00000" pt_clust_9="195.52011"></scales>
<clustering>
<clus scale="   80.076">  5  6 -1 -1</clus>
<clus scale="  107.641">  7  8 -1 -1</clus>
<clus scale="  128.145">  5  7 -1 -1</clus>
<clus scale="  195.520">  1  9  2 -1</clus>
<clus scale="  195.520">  1  5  2 -1</clus>
</clustering>
</event>
<event>
 9    2  0.4883225E-005  0.1305169E+03  0.7546771E-02  0.1242376E+00
         -3   -1    0    0    0  501 -0.00000000000E+00  0.00000000000E+00  0.16521254417E+03  0.16521254417E+03  0.00000000000E+00 0.  1.
         21   -1    0    0  501  502  0.00000000000E+00 -0.00000000000E+00 -0.40153783047E+03  0.40153783047E+03  0.00000000000E+00 0.  1.
         23    2    1    2    0    0  0.22101681934E+02  0.59064989485E+01 -0.22278773376E+03  0.24205408009E+03  0.91828276146E+02 0.  0.
         24    2    1    2    0    0  0.87348930437E+02 -0.72380644619E+01  0.11003506557E+03  0.15961630920E+03  0.75415020275E+02 0.  0.
        -13    1    4    4    0    0  0.86125231093E+02 -0.26706613452E+02  0.66908885263E+02  0.11228355873E+03  0.00000000000E+00 0.  1.
         14    1    4    4    0    0  0.12236993431E+01  0.19468548990E+02  0.43126180310E+02  0.47332750480E+02  0.00000000000E+00 0. -1.
        -11    1    3    3    0    0  0.54180499998E+02 -0.11650966991E+01 -0.88226241343E+02  0.10354107249E+03  0.00000000000E+00 0.  1.
         11    1    3    3    0    0 -0.32078818064E+02  0.70715956476E+01 -0.13456149242E+03  0.13851300760E+03  0.00000000000E+00 0. -1.
         -4    1    1    2    0  502 -0.10945061237E+03  0.13315655134E+01 -0.12357261811E+03  0.16507998535E+03  0.00000000000E+00 0.  1.
<scales pt_clust_5="13000.00000" pt_clust_6="13000.00000" pt_clust_7="13000.00000" pt_clust_8="13000.00000" pt_clust_9="106.52342"></scales>
<clustering>
<clus scale="   75.415">  5  6 -1 -1</clus>
<clus scale="   91.828">  7  8 -1 -1</clus>
<clus scale="   94.635">  1  7  2 -1</clus>
<clus scale="  106.523">  2  9  1 -1</clus>
<clus scale="  106.523">  2  5  1 -1</clus>
</clustering>
</event>
<event>
 9    2  0.4883225E-005  0.1021018E+03  0.7546771E-02  0.1280481E+00
          2   -1    0    0  502    0 -0.00000000000E+00  0.00000000000E+00  0.35054654449E+03  0.35054654449E+03  0.00000000000E+00 0. -1.
         21   -1    0    0  501  502  0.00000000000E+00 -0.00000000000E+00 -0.52870736595E+02  0.52870736595E+02  0.00000000000E+00 0.  1.
         24    2    1    2    0    0  0.40920293923E+02  0.32258855074E+02  0.18587717234E+03  0.20791986740E+03  0.77234991280E+02 0.  0.
         23    2    1    2    0    0 -0.88377706739E+01 -0.66842101857E+02  0.94465824864E+02  0.14524091577E+03  0.87322155128E+02 0.  0.
        -13    1    3    3    0    0 -0.20008555102E+02  0.51708316661E-01  0.19975654794E+02  0.28273162813E+02  0.00000000000E+00 0.  1.
         14    1    3    3    0    0  0.60928849025E+02  0.32207146757E+02  0.16590151754E+03  0.17964670459E+03  0.00000000000E+00 0. -1.
        -13    1    4    4    0    0  0.26625631360E+02 -0.28680631939E+02  0.20928095290E+01  0.39190339951E+02  0.00000000000E+00 0.  1.
         13    1    4    4    0    0 -0.35463402034E+02 -0.38161469917E+02  0.92373015335E+02  0.10605057582E+03  0.00000000000E+00 0. -1.
          1    1    1    2  501    0 -0.32082523250E+02  0.34583246783E+02  0.17332810698E+02  0.50256497916E+02  0.00000000000E+00 0. -1.
<scales pt_clust_5="13000.00000" pt_clust_6="13000.00000" pt_clust_7="13000.00000" pt_clust_8="13000.00000" pt_clust_9="47.17297"></scales>
<clustering>
<clus scale="   47.173">  2  9  1 -1</clus>
<clus scale="   77.235">  5  6 -1 -1</clus>
<clus scale="   87.322">  7  8 -1 -1</clus>
<clus scale="   93.621">  1  5  2 -1</clus>
<clus scale="   47.173">  2  5  1 -1</clus>
</clustering>
</event>
<event>
 9    2  0.4883225E-005  0.1173232E+03  0.7546771E-02  0.1250868E+00
         21   -1    0    0  501  502  0.00000000000E+00  0.00000000000E+00  0.64264581506E+02  0.64264581506E+02  0.00000000000E+00 0.  1.
          2   -1    0    0  502    0 -0.00000000000E+00 -0.00000000000E+00 -0.72400056159E+03  0.72400056159E+03  0.00000000000E+00 0. -1.
         24    2    1    2    0    0  0.56061045668E+02  0.21257736861E+02 -0.36565885620E+03  0.37934761866E+03  0.81261826474E+02 0.  0.
         23    2    1    2    0    0 -0.14904617580E+03 -0.53053409194E+02 -0.16048676564E+03  0.24307548206E+03  0.91105769767E+02 0.  0.
        -13    1    3    3    0    0 -0.95884386251E+01 -0.20879114413E+02 -0.84173013380E+02  0.87252345271E+02  0.00000000000E+00 0.  1.
         14    1    3    3    0    0  0.65649484294E+02  0.42136851274E+02 -0.28148584283E+03  0.29209527339E+03  0.00000000000E+00 0. -1.
        -13    1    4    4    0    0 -0.53595168662E+02 -0.48522741968E+02 -0.23438545622E+02  0.76001736907E+02  0.00000000000E+00 0.  1.
         13    1    4    4    0    0 -0.95451007142E+02 -0.45306672261E+01 -0.13704822002E+03  0.16707374515E+03  0.00000000000E+00 0. -1.
          1    1    1    2  501    0  0.92985130135E+02  0.31795672333E+02 -0.13359035824E+03  0.16584204238E+03  0.00000000000E+00 0. -1.
<scales pt_clust_5="13000.00000" pt_clust_6="13000.00000" pt_clust_7="13000.00000" pt_clust_8="13000.00000" pt_clust_9="98.27105"></scales>
<clustering>
<clus scale="   81.262">  5  6 -1 -1</clus>
<clus scale="   91.106">  7  8 -1 -1</clus>
<clus scale="   98.271">  1  9  2 -1</clus>
<clus scale="  109.854">  2  5  1 -1</clus>
<clus scale="   98.271">  1  5  2 -1</clus>
</clustering>
</event>
<event>
 9    2  0.4883225E-005  0.1145166E+03  0.7546771E-02  0.1258251E+00
         21   -1    0    0  501  502  0.00000000000E+00  0.00000000000E+00  0.24192975556E+02  0.24192975556E+02  0.00000000000E+00 0.  1.
          2   -1    0    0  502    0 -0.00000000000E+00 -0.00000000000E+00 -0.83401951699E+03  0.83401951699E+03  0.00000000000E+00 0. -1.
         23    2    1    2    0    0  0.13981649656E+01 -0.48220416611E+02 -0.40488695410E+03  0.41898680322E+03  0.96381181900E+02 0.  0.
         24    2    1    2    0    0 -0.78552467970E+01  0.89661722313E+02 -0.23779262762E+03  0.26689698637E+03  0.81164882987E+02 0.  0.
        -11    1    4    4    0    0 -0.69083789037E+01  0.47934382124E+02 -0.21281504740E+03  0.21825598523E+03  0.00000000000E+00 0.  1.
         12    1    4    4    0    0 -0.94686789325E+00  0.41727340189E+02 -0.24977580224E+02  0.48641001140E+02  0.00000000000E+00 0. -1.
        -11    1    3    3    0    0  0.44781480860E+02 -0.38941504092E+02 -0.17304326141E+03  0.18293657942E+03  0.00000000000E+00 0. -1.
         11    1    3    3    0    0 -0.43383315894E+02 -0.92789125184E+01 -0.23184369269E+03  0.23605022380E+03  0.00000000000E+00 0.  1.
          1    1    1    2  501    0  0.64570818313E+01 -0.41441305703E+02 -0.16714695972E+03  0.17232870297E+03  0.00000000000E+00 0. -1.
<scales pt_clust_5="13000.00000" pt_clust_6="13000.00000" pt_clust_7="13000.00000" pt_clust_8="13000.00000" pt_clust_9="41.94136"></scales>
<clustering>
<clus scale="   41.941">  1  9  2 -1</clus>
<clus scale="   81.165">  5  6 -1 -1</clus>
<clus scale="   96.381">  7  8 -1 -1</clus>
<clus scale="  102.041">  1  5  2 -1</clus>
<clus scale="   41.941">  1  5  2 -1</clus>
</clustering>
</event>
<event>
 9    2  0.4883225E-005  0.9864340E+02  0.7546771E-02  0.1286461E+00
         21   -1    0    0  501  502  0.00000000000E+00  0.00000000000E+00  0.43868719157E+02  0.43868719157E+02  0.00000000000E+00 0.  1.
         -1   -1    0    0    0  501 -0.00000000000E+00 -0.00000000000E+00 -0.42808941494E+03  0.42808941494E+03  0.00000000000E+00 0.  1.
         24    2    1    2    0    0  0.17544196771E+02 -0.33162380436E+01 -0.10154418179E+03  0.13299505369E+03  0.84009923089E+02 0.  0.
         23    2    1    2    0    0 -0.14447301764E+02  0.73017080340E+02 -0.17190347197E+03  0.20804912005E+03  0.90517479684E+02 0.  0.
        -13    1    3    3    0    0  0.16677811352E+02 -0.42486453878E+02 -0.44140506416E+02  0.63495137305E+02  0.00000000000E+00 0.  1.
         14    1    3    3    0    0  0.86638541942E+00  0.39170215835E+02 -0.57403675369E+02  0.69499916389E+02  0.00000000000E+00 0. -1.
        -13    1    4    4    0    0  0.15887702130E+02  0.67345616707E+02 -0.58776583811E+02  0.90788424224E+02  0.00000000000E+00 0.  1.
         13    1    4    4    0    0 -0.30335003894E+02  0.56714636327E+01 -0.11312688815E+03  0.11726069582E+03  0.00000000000E+00 0. -1.
         -2    1    1    2    0  502 -0.30968950068E+01 -0.69700842296E+02 -0.11077304203E+03  0.13091396036E+03  0.00000000000E+00 0.  1.
<scales pt_clust_5="13000.00000" pt_clust_6="13000.00000" pt_clust_7="13000.00000" pt_clust_8="13000.00000" pt_clust_9="69.76964"></scales>
<clustering>
<clus scale="   69.770">  1  9  2 -1</clus>
<clus scale="   84.010">  5  6 -1 -1</clus>
<clus scale="   90.517">  7  8 -1 -1</clus>
<clus scale="   92.708">  2  5  1 -1</clus>
<clus scale="   69.770">  1  5  2 -1</clus>
</clustering>
</event>
<event>
 9    2  0.4883225E-005  0.3002499E+03  0.7546771E-02  0.1129763E+00
          2   -1    0    0  502    0 -0.00000000000E+00  0.00000000000E+00  0.12259108178E+04  0.12259108178E+04  0.00000000000E+00 0. -1.
         21   -1    0    0  501  502  0.00000000000E+00 -0.00000000000E+00 -0.39576838599E+03  0.39576838599E+03  0.00000000000E+00 0. -1.
         24    2    1    2    0    0 -0.50912587695E+02 -0.94361309647E+01  0.97946045803E+03  0.98412751079E+03  0.80517305460E+02 0.  0.
         23    2    1    2    0    0 -0.21677815727E+03  0.16528778766E+03 -0.15577222120E+03  0.32772959811E+03  0.93962132587E+02 0.  0.
        -11    1    3    3    0    0 -0.20007579167E+02  0.54811101212E+01  0.51338669785E+02  0.55371516211E+02  0.00000000000E+00 0.  1.
         12    1    3    3    0    0 -0.30905008528E+02 -0.14917241086E+02  0.92812178825E+03  0.92875599457E+03  0.00000000000E+00 0. -1.
        -11    1    4    4    0    0 -0.15932045202E+03  0.16705259431E+03 -0.12347384169E+03  0.26179259974E+03  0.00000000000E+00 0. -1.
         11    1    4    4    0    0 -0.57457705253E+02 -0.17648066452E+01 -0.32298379506E+02  0.65936998371E+02  0.00000000000E+00 0.  1.
          1    1    1    2  501    0  0.26769074496E+03 -0.15585165670E+03  0.64541949415E+01  0.30982209487E+03  0.00000000000E+00 0. -1.
<scales pt_clust_5="13000.00000" pt_clust_6="13000.00000" pt_clust_7="13000.00000" pt_clust_8="13000.00000" pt_clust_9="285.16870"></scales>
<clustering>
<clus scale="   80.517">  5  6 -1 -1</clus>
<clus scale="   93.962">  7  8 -1 -1</clus>
<clus scale="   95.730">  1  5  2 -1</clus>
<clus scale="  285.169">  2  9  1 -1</clus>
<clus scale="  285.169">  2  5  1 -1</clus>
</clustering>
</event>
<event>
 9    2  0.4883225E-005  0.2049545E+03  0.7546771E-02  0.1168873E+00
          2   -1    0    0  502    0 -0.00000000000E+00  0.00000000000E+00  0.12590584695E+04  0.12590584695E+04  0.00000000000E+00 0. -1.
         21   -1    0    0  501  502  0.00000000000E+00 -0.00000000000E+00 -0.74750793123E+02  0.74750793123E+02  0.00000000000E+00 0. -1.
         24    2    1    2    0    0 -0.73936630094E+02 -0.42468457558E+02  0.59599212863E+03  0.60775141254E+03  0.82975700665E+02 0.  0.
         23    2    1    2    0    0 -0.11539598984E+03 -0.22525741780E+02  0.46615826527E+03  0.49155094488E+03  0.10244588627E+03 0.  0.
        -13    1    3    3    0    0  0.38393662933E+00 -0.44432646025E+02  0.20638096708E+03  0.21111018690E+03  0.00000000000E+00 0.  1.
         14    1    3    3    0    0 -0.74320566723E+02  0.19641884668E+01  0.38961116155E+03  0.39664122564E+03  0.00000000000E+00 0. -1.
        -13    1    4    4    0    0 -0.28737492299E+02  0.71657335914E+01  0.19186672365E+02  0.35289086103E+02  0.00000000000E+00 0.  1.
         13    1    4    4    0    0 -0.86658497539E+02 -0.29691475372E+02  0.44697159291E+03  0.45626185877E+03  0.00000000000E+00 0. -1.
          1    1    1    2  501    0  0.18933261993E+03  0.64994199339E+02  0.12215728244E+03  0.23450690517E+03  0.00000000000E+00 0. -1.
<scales pt_clust_5="13000.00000" pt_clust_6="13000.00000" pt_clust_7="13000.00000" pt_clust_8="13000.00000" pt_clust_9="177.51390"></scales>
<clustering>
<clus scale="   82.976">  5  6 -1 -1</clus>
<clus scale="  102.446">  7  8 -1 -1</clus>
<clus scale="  118.975">  1  5  2 -1</clus>
<clus scale="  177.514">  2  9  1 -1</clus>
<clus scale="  177.514">  2  5  1 -1</clus>
</clustering>
</event>
<event>
 9    2  0.4883225E-005  0.9396772E+02  0.7546771E-02  0.1301716E+00
          2   -1    0    0  502    0 -0.00000000000E+00  0.00000000000E+00  0.76013231713E+02  0.76013231713E+02  0.00000000000E+00 0. -1.
         21   -1    0    0  501  502  0.00000000000E+00 -0.00000000000E+00 -0.37147916166E+03  0.37147916166E+03  0.00000000000E+00 0.  1.
         23    2    1    2    0    0  0.23145095183E+02  0.18827749104E+02  0.33847280337E+02  0.10078081594E+03  0.90116340957E+02 0.  0.
         24    2    1    2    0    0  0.64777271363E+01 -0.14752210558E+02 -0.22022469355E+03  0.23359912852E+03  0.76223674340E+02 0.  0.
        -13    1    4    4    0    0  0.29184104357E+02 -0.31336101584E+02 -0.81617826880E+02  0.92169045098E+02  0.00000000000E+00 0.  1.
         14    1    4    4    0    0 -0.22706377221E+02  0.16583891027E+02 -0.13860686667E+03  0.14143008342E+03  0.00000000000E+00 0. -1.
        -11    1    3    3    0    0 -0.34187037397E+02  0.99235764734E+01  0.48769704130E+01  0.35930707430E+02  0.00000000000E+00 0.  1.
         11    1    3    3    0    0  0.57332132580E+02  0.89041726306E+01  0.28970309924E+02  0.64850108508E+02  0.00000000000E+00 0. -1.
          1    1    1    2  501    0 -0.29622822319E+02 -0.40755385462E+01 -0.10908851673E+03  0.11311244892E+03  0.00000000000E+00 0. -1.
<scales pt_clust_5="13000.00000" pt_clust_6="13000.00000" pt_clust_7="13000.00000" pt_clust_8="13000.00000" pt_clust_9="29.90187"></scales>
<clustering>
<clus scale="   29.902">  2  9  1 -1</clus>
<clus scale="   76.224">  5  6 -1 -1</clus>
<clus scale="   80.740">  2  5  1 -1</clus>
<clus scale="   90.116">  7  8 -1 -1</clus>
<clus scale="   29.902">  2  5  1 -1</clus>
</clustering>
</event>
<event>
 9    2  0.4883225E-005  0.9599509E+02  0.7546771E-02  0.1294672E+00
         21   -1    0    0  501  502  0.00000000000E+00  0.00000000000E+00  0.29694716491E+03  0.29694716491E+03  0.00000000000E+00 0.  1.
          2   -1    0    0  502    0 -0.00000000000E+00 -0.00000000000E+00 -0.10230104579E+03  0.10230104579E+03  0.00000000000E+00 0. -1.
         24    2    1    2    0    0 -0.78548737754E+01 -0.31035274308E+02 -0.36956058023E+02  0.94403374969E+02  0.80754935995E+02 0.  0.
         23    2    1    2    0    0  0.50321102412E+02  0.29642641183E+01  0.48574004170E+02  0.11486937866E+03  0.91074365561E+02 0.  0.
        -13    1    3    3    0    0  0.30677315077E+01 -0.22206344861E+02  0.23417476163E+02  0.32417756223E+02  0.00000000000E+00 0.  1.
         14    1    3    3    0    0 -0.10922605283E+02 -0.88289294476E+01 -0.60373534186E+02  0.61985618747E+02  0.00000000000E+00 0. -1.
        -13    1    4    4    0    0  0.26539900240E+02 -0.43836683493E+02  0.28720031242E+02  0.58744032199E+02  0.00000000000E+00 0.  1.
         13    1    4    4    0    0  0.23781202172E+02  0.46800947611E+02  0.19853972928E+02  0.56125346458E+02  0.00000000000E+00 0. -1.
          1    1    1    2  501    0 -0.42466228636E+02  0.28071010190E+02  0.18302817297E+03  0.18997545707E+03  0.00000000000E+00 0. -1.
<scales pt_clust_5="13000.00000" pt_clust_6="13000.00000" pt_clust_7="13000.00000" pt_clust_8="13000.00000" pt_clust_9="50.90542"></scales>
<clustering>
<clus scale="   50.905">  1  9  2 -1</clus>
<clus scale="   80.755">  5  6 -1 -1</clus>
<clus scale="   86.266">  2  5  1 -1</clus>
<clus scale="   91.074">  7  8 -1 -1</clus>
<clus scale="   50.905">  1  5  2 -1</clus>
</clustering>
</event>
<event>
 9    2  0.4883225E-005  0.9064348E+02  0.7546771E-02  0.1305558E+00
          2   -1    0    0  502    0 -0.00000000000E+00  0.00000000000E+00  0.91761558029E+02  0.91761558029E+02  0.00000000000E+00 0. -1.
         21   -1    0    0  501  502  0.00000000000E+00 -0.00000000000E+00 -0.37968901904E+03  0.37968901904E+03  0.00000000000E+00 0.  1.
         23    2    1    2    0    0  0.58591923620E+01 -0.41772455493E+02  0.59233228435E+02  0.10318368494E+03  0.73205391285E+02 0.  0.
         24    2    1    2    0    0  0.19273694362E+02  0.24977049038E+02 -0.29942663524E+03  0.31176655936E+03  0.80911985312E+02 0.  0.
        -13    1    4    4    0    0  0.45083486702E+02 -0.34393053829E+01 -0.20311075588E+03  0.20808250466E+03  0.00000000000E+00 0.  1.
         14    1    4    4    0    0 -0.25809792341E+02  0.28416354421E+02 -0.96315879367E+02  0.10368405469E+03  0.00000000000E+00 0. -1.
        -13    1    3    3    0    0 -0.22679656184E+02 -0.43165113623E+02  0.56270332169E+02  0.74457666638E+02  0.00000000000E+00 0. -1.
         13    1    3    3    0    0  0.28538848546E+02  0.13926581294E+01  0.29628962658E+01  0.28726018299E+02  0.00000000000E+00 0.  1.
          1    1    1    2  501    0 -0.25132886723E+02  0.16795406455E+02 -0.47734054203E+02  0.56500332775E+02  0.00000000000E+00 0. -1.
<scales pt_clust_5="13000.00000" pt_clust_6="13000.00000" pt_clust_7="13000.00000" pt_clust_8="13000.00000" pt_clust_9="30.22826"></scales>
<clustering>
<clus scale="   30.228">  2  9  1 -1</clus>
<clus scale="   73.205">  7  8 -1 -1</clus>
<clus scale="   80.912">  5  6 -1 -1</clus>
<clus scale="   83.836">  1  7  2 -1</clus>
<clus scale="   30.228">  2  5  1 -1</clus>
</clustering>
</event>
<event>
 9    2  0.4883225E-005  0.1118110E+03  0.7546771E-02  0.1262249E+00
         21   -1    0    0  501  502  0.00000000000E+00  0.00000000000E+00  0.13629050059E+03  0.13629050059E+03  0.00000000000E+00 0. -1.
          2   -1    0    0  502    0 -0.00000000000E+00 -0.00000000000E+00 -0.29723964187E+03  0.29723964187E+03  0.00000000000E+00 0. -1.
         24    2    1    2    0    0  0.41527258698E+02  0.49155695931E+02 -0.23961129989E+03  0.26057576123E+03  0.79657746945E+02 0.  0.
         23    2    1    2    0    0 -0.12715064341E+02 -0.55873365015E+02  0.25084885351E+02  0.11175149051E+03  0.92604742740E+02 0.  0.
        -11    1    3    3    0    0 -0.14468791320E+01  0.33301694293E+02 -0.26460557220E+02  0.42558869703E+02  0.00000000000E+00 0.  1.
         12    1    3    3    0    0  0.42974137830E+02  0.15854001638E+02 -0.21315074267E+03  0.21801689153E+03  0.00000000000E+00 0. -1.
        -13    1    4    4    0    0  0.21232369657E+02 -0.23781277555E+02 -0.27006106061E+02  0.41781484511E+02  0.00000000000E+00 0. -1.
         13    1    4    4    0    0 -0.33947433998E+02 -0.32092087460E+02  0.52090991413E+02  0.69970005995E+02  0.00000000000E+00 0.  1.
          1    1    1    2  501    0 -0.28812194357E+02  0.67176690835E+01  0.53577273264E+02  0.61202890716E+02  0.00000000000E+00 0. -1.
<scales pt_clust_5="13000.00000" pt_clust_6="13000.00000" pt_clust_7="13000.00000" pt_clust_8="13000.00000" pt_clust_9="29.58496"></scales>
<clustering>
<clus scale="   29.585">  1  9  2 -1</clus>
<clus scale="   79.658">  5  6 -1 -1</clus>
<clus scale="   92.605">  7  8 -1 -1</clus>
<clus scale="  101.348">  2  5  1 -1</clus>
<clus scale="   29.585">  1  5  2 -1</clus>
</clustering>
</event>
<event>
 9    2  0.4883225E-005  0.9870333E+02  0.7546771E-02  0.1295913E+00
         21   -1    0    0  501  502  0.00000000000E+00  0.00000000000E+00  0.84620245610E+02  0.84620245610E+02  0.00000000000E+00 0. -1.
          2   -1    0    0  502    0 -0.00000000000E+00 -0.00000000000E+00 -0.13795821164E+03  0.13795821164E+03  0.00000000000E+00 0. -1.
         24    2    1    2    0    0 -0.17029457186E+02 -0.79265196570E+01 -0.41247044372E+02  0.85879852477E+02  0.72946543895E+02 0.  0.
         23    2    1    2    0    0  0.41531115931E+02  0.17293081341E+02  0.50705386758E+01  0.10535248093E+03  0.95129126049E+02 0.  0.
        -13    1    3    3    0    0  0.57565698203E+01  0.24367811432E+02 -0.38931769720E+02  0.46288346521E+02  0.00000000000E+00 0.  1.
         14    1    3    3    0    0 -0.22786027006E+02 -0.32294331089E+02 -0.23152746515E+01  0.39591505957E+02  0.00000000000E+00 0. -1.
        -13    1    4    4    0    0 -0.28604701367E+02  0.20100221958E+02 -0.22070324983E+00  0.34961358282E+02  0.00000000000E+00 0.  1.
         13    1    4    4    0    0  0.70135817298E+02 -0.28071406166E+01  0.52912419256E+01  0.70391122647E+02  0.00000000000E+00 0. -1.
          1    1    1    2  501    0 -0.24501658745E+02 -0.93665616841E+01 -0.17161460330E+02  0.31346123838E+02  0.00000000000E+00 0. -1.
<scales pt_clust_5="13000.00000" pt_clust_6="13000.00000" pt_clust_7="13000.00000" pt_clust_8="13000.00000" pt_clust_9="26.23098"></scales>
<clustering>
<clus scale="   26.231">  1  9  2 -1</clus>
<clus scale="   72.947">  5  6 -1 -1</clus>
<clus scale="   77.550">  2  5  1 -1</clus>
<clus scale="   95.129">  7  8 -1 -1</clus>
<clus scale="   26.231">  1  5  2 -1</clus>
</clustering>
</event>
<event>
 9    2  0.4883225E-005  0.9864264E+02  0.7546771E-02  0.1289243E+00
         21   -1    0    0  501  502  0.00000000000E+00  0.00000000000E+00  0.18547575323E+03  0.18547575323E+03  0.00000000000E+00 0. -1.
          2   -1    0    0  502    0 -0.00000000000E+00 -0.00000000000E+00 -0.66203426231E+03  0.66203426231E+03  0.00000000000E+00 0. -1.
         24    2    1    2    0    0 -0.14381055168E+01  0.36398311912E+02 -0.61712701858E+03  0.62335893489E+03  0.80023117871E+02 0.  0.
         23    2    1    2    0    0  0.40110971445E+02 -0.42802622947E+02  0.14857645346E+03  0.18414192013E+03  0.91609659223E+02 0.  0.
        -13    1    3    3    0    0  0.22460398333E+02  0.10247770518E+02 -0.57049215521E+02  0.62161879681E+02  0.00000000000E+00 0.  1.
         14    1    3    3    0    0 -0.23898503850E+02  0.26150541394E+02 -0.56007780306E+03  0.56119705521E+03  0.00000000000E+00 0. -1.
        -11    1    4    4    0    0  0.64927789333E+02 -0.43355238356E+02  0.13473603678E+03  0.15572120641E+03  0.00000000000E+00 0. -1.
         11    1    4    4    0    0 -0.24816817889E+02  0.55261540944E+00  0.13840416687E+02  0.28420713713E+02  0.00000000000E+00 0.  1.
          1    1    1    2  501    0 -0.38672865928E+02  0.64043110353E+01 -0.80079439645E+01  0.40009160519E+02  0.00000000000E+00 0. -1.
<scales pt_clust_5="13000.00000" pt_clust_6="13000.00000" pt_clust_7="13000.00000" pt_clust_8="13000.00000" pt_clust_9="39.19956"></scales>
<clustering>
<clus scale="   39.200">  1  9  2 -1</clus>
<clus scale="   80.023">  5  6 -1 -1</clus>
<clus scale="   87.987">  2  5  1 -1</clus>
<clus scale="   91.610">  7  8 -1 -1</clus>
<clus scale="   39.200">  1  5  2 -1</clus>
</clustering>
</event>
<event>
 9    2  0.4883225E-005  0.5154779E+03  0.7546771E-02  0.1052457E+00
         21   -1    0    0  501  502  0.00000000000E+00  0.00000000000E+00  0.28038397082E+03  0.28038397082E+03  0.00000000000E+00 0. -1.
          2   -1    0    0  502    0 -0.00000000000E+00 -0.00000000000E+00 -0.12446330284E+04  0.12446330284E+04  0.00000000000E+00 0. -1.
         23    2    1    2    0    0 -0.10963830198E+03 -0.33288045577E+02 -0.77135976557E+02  0.16492817214E+03  0.90125977643E+02 0.  0.
         24    2    1    2    0    0  0.50372746544E+03  0.25168102363E+03 -0.39623651238E+03  0.69378441671E+03  0.85139567988E+02 0.  0.
        -11    1    4    4    0    0  0.40925426549E+03  0.22974802048E+03 -0.29920791480E+03  0.55659552910E+03  0.00000000000E+00 0.  1.
         12    1    4    4    0    0  0.94473199948E+02  0.21933003153E+02 -0.97028597585E+02  0.13718888762E+03  0.00000000000E+00 0. -1.
        -11    1    3    3    0    0 -0.61949350368E+02 -0.45869236267E+02 -0.85264356924E+02  0.11494224379E+03  0.00000000000E+00 0. -1.
         11    1    3    3    0    0 -0.47688951613E+02  0.12581190690E+02  0.81283803668E+01  0.49985928345E+02  0.00000000000E+00 0.  1.
          1    1    1    2  501    0 -0.39408916346E+03 -0.21839297805E+03 -0.49087656862E+03  0.66630441034E+03  0.00000000000E+00 0. -1.
<scales pt_clust_5="13000.00000" pt_clust_6="13000.00000" pt_clust_7="13000.00000" pt_clust_8="13000.00000" pt_clust_9="508.39847"></scales>
<clustering>
<clus scale="   85.140">  5  6 -1 -1</clus>
<clus scale="   90.126">  7  8 -1 -1</clus>
<clus scale="  145.778">  2  7  1 -1</clus>
<clus scale="  508.398">  1  9  2 -1</clus>
<clus scale="  508.398">  1  5  2 -1</clus>
</clustering>
</event>
<event>
 9    2  0.4883225E-005  0.1474152E+03  0.7546771E-02  0.1205893E+00
         -1   -1    0    0    0  501 -0.00000000000E+00  0.00000000000E+00  0.76395615607E+02  0.76395615607E+02  0.00000000000E+00 0.  1.
         21   -1    0    0  501  502  0.00000000000E+00 -0.00000000000E+00 -0.49001340458E+03  0.49001340458E+03  0.00000000000E+00 0. -1.
         24    2    1    2    0    0 -0.10791769386E+03 -0.37187624307E+01 -0.11084170233E+03  0.17400039489E+03  0.79562532675E+02 0.  0.
         23    2    1    2    0    0  0.11449662640E+03  0.68601396666E+02 -0.12894415971E+03  0.20674608895E+03  0.91113774450E+02 0.  0.
        -11    1    3    3    0    0 -0.10254750191E+03 -0.14831395655E+02 -0.55984511031E+02  0.11777192331E+03  0.00000000000E+00 0.  1.
         12    1    3    3    0    0 -0.53701919443E+01  0.11112633224E+02 -0.54857191302E+02  0.56228471580E+02  0.00000000000E+00 0. -1.
        -11    1    4    4    0    0  0.82433369196E+02  0.54626542493E+02 -0.13878374594E+03  0.17041199382E+03  0.00000000000E+00 0. -1.
         11    1    4    4    0    0  0.32063257201E+02  0.13974854174E+02  0.98395862364E+01  0.36334095129E+02  0.00000000000E+00 0.  1.
         -2    1    1    2    0  502 -0.65789325405E+01 -0.64882634236E+02 -0.17383192694E+03  0.18566253635E+03  0.00000000000E+00 0.  1.
<scales pt_clust_5="13000.00000" pt_clust_6="13000.00000" pt_clust_7="13000.00000" pt_clust_8="13000.00000" pt_clust_9="65.21532"></scales>
<clustering>
<clus scale="   65.215">  2  9  1 -1</clus>
<clus scale="   79.563">  5  6 -1 -1</clus>
<clus scale="   91.114">  7  8 -1 -1</clus>
<clus scale="  140.569">  1  5  2 -1</clus>
<clus scale="   65.215">  2  5  1 -1</clus>
</clustering>
</event>
<event>
 9    2  0.4883225E-005  0.2033913E+03  0.7546771E-02  0.1147945E+00
          2   -1    0    0  502    0 -0.00000000000E+00  0.00000000000E+00  0.70770953979E+03  0.70770953979E+03  0.00000000000E+00 0. -1.
         21   -1    0    0  501  502  0.00000000000E+00 -0.00000000000E+00 -0.11980569865E+03  0.11980569865E+03  0.00000000000E+00 0. -1.
         24    2    1    2    0    0 -0.51090840210E+02 -0.19043662184E+03  0.43645825634E+03  0.48578401110E+03  0.81325980004E+02 0.  0.
         23    2    1    2    0    0  0.23600143769E+02  0.12168954988E+03 -0.18918857689E+02  0.15597347769E+03  0.92760386097E+02 0.  0.
        -13    1    3    3    0    0  0.10790704481E+02 -0.50753930915E+02  0.17939824759E+03  0.18675152488E+03  0.00000000000E+00 0.  1.
         14    1    3    3    0    0 -0.61881544691E+02 -0.13968269092E+03  0.25706000874E+03  0.29903248621E+03  0.00000000000E+00 0. -1.
        -11    1    4    4    0    0  0.23245196632E+02  0.48664869102E+01  0.21819257005E+02  0.32250609879E+02  0.00000000000E+00 0.  1.
         11    1    4    4    0    0  0.35494713666E+00  0.11682306297E+03 -0.40738114694E+02  0.12372286781E+03  0.00000000000E+00 0. -1.
          1    1    1    2  501    0  0.27490696441E+02  0.68747071955E+02  0.17036444249E+03  0.18575774966E+03  0.00000000000E+00 0. -1.
<scales pt_clust_5="13000.00000" pt_clust_6="13000.00000" pt_clust_7="13000.00000" pt_clust_8="13000.00000" pt_clust_9="74.03988"></scales>
<clustering>
<clus scale="   74.040">  2  9  1 -1</clus>
<clus scale="   81.326">  5  6 -1 -1</clus>
<clus scale="   92.760">  7  8 -1 -1</clus>
<clus scale="  198.437">  1  5  2 -1</clus>
<clus scale="   74.040">  2  5  1 -1</clus>
</clustering>
</event>
<event>
 9    2  0.4883225E-005  0.1069749E+03  0.7546771E-02  0.1271816E+00
         21   -1    0    0  501  502  0.00000000000E+00  0.00000000000E+00  0.19273706034E+03  0.19273706034E+03  0.00000000000E+00 0. -1.
          2   -1    0    0  502    0 -0.00000000000E+00 -0.00000000000E+00 -0.36464570971E+03  0.36464570971E+03  0.00000000000E+00 0. -1.
         24    2    1    2    0    0  0.29226537971E+00 -0.51790480490E+02 -0.27726363897E+03  0.29326247367E+03  0.80283333748E+02 0.  0.
         23    2    1    2    0    0  0.27116848358E+02  0.56900415925E+02 -0.37578713626E+02  0.11849263941E+03  0.93034214556E+02 0.  0.
        -11    1    3    3    0    0  0.36746829025E+02 -0.45598603967E+02 -0.17019413264E+03  0.17998779101E+03  0.00000000000E+00 0.  1.
         12    1    3    3    0    0 -0.36454563645E+02 -0.61918765223E+01 -0.10706950634E+03  0.11327468266E+03  0.00000000000E+00 0. -1.
        -11    1    4    4    0    0  0.30476817367E+02  0.68301395653E+01  0.23758727825E+02  0.39242379530E+02  0.00000000000E+00 0.  1.
         11    1    4    4    0    0 -0.33599690086E+01  0.50070276360E+02 -0.61337441451E+02  0.79250259875E+02  0.00000000000E+00 0. -1.
          1    1    1    2  501    0 -0.27409113738E+02 -0.51099354358E+01  0.14293370323E+03  0.14562765697E+03  0.00000000000E+00 0. -1.
<scales pt_clust_5="13000.00000" pt_clust_6="13000.00000" pt_clust_7="13000.00000" pt_clust_8="13000.00000" pt_clust_9="27.88137"></scales>
<clustering>
<clus scale="   27.881">  1  9  2 -1</clus>
<clus scale="   80.283">  5  6 -1 -1</clus>
<clus scale="   93.034">  7  8 -1 -1</clus>
<clus scale="   96.092">  2  5  1 -1</clus>
<clus scale="   27.881">  1  5  2 -1</clus>
</clustering>
</event>
<event>
 9    2  0.4883225E-005  0.1224235E+03  0.7546771E-02  0.1242537E+00
         21   -1    0    0  501  502  0.00000000000E+00  0.00000000000E+00  0.91112043273E+02  0.91112043273E+02  0.00000000000E+00 0. -1.
          2   -1    0    0  502    0 -0.00000000000E+00 -0.00000000000E+00 -0.37986520676E+03  0.37986520676E+03  0.00000000000E+00 0. -1.
         23    2    1    2    0    0  0.89215047917E+02  0.48329984699E+01 -0.28141935014E+03  0.30963537921E+03  0.93244489255E+02 0.  0.
         24    2    1    2    0    0 -0.55901676788E+02 -0.10845238485E+02 -0.45839672199E+02  0.11007171487E+03  0.82291495318E+02 0.  0.
        -13    1    4    4    0    0 -0.57945637439E+02 -0.37224588611E+02 -0.47336493840E+02  0.83570991046E+02  0.00000000000E+00 0.  1.
         14    1    4    4    0    0  0.20439606509E+01  0.26379350125E+02  0.14968216404E+01  0.26500723824E+02  0.00000000000E+00 0. -1.
        -13    1    3    3    0    0  0.77455798336E+02  0.34549380460E+02 -0.13245345529E+03  0.15727993580E+03  0.00000000000E+00 0.  1.
         13    1    3    3    0    0  0.11759249581E+02 -0.29716381990E+02 -0.14896589485E+03  0.15235544341E+03  0.00000000000E+00 0. -1.
          1    1    1    2  501    0 -0.33313371130E+02  0.60122400153E+01  0.38505858849E+02  0.51270155955E+02  0.00000000000E+00 0. -1.
<scales pt_clust_5="13000.00000" pt_clust_6="13000.00000" pt_clust_7="13000.00000" pt_clust_8="13000.00000" pt_clust_9="33.85155"></scales>
<clustering>
<clus scale="   33.852">  1  9  2 -1</clus>
<clus scale="   82.291">  5  6 -1 -1</clus>
<clus scale="   93.244">  7  8 -1 -1</clus>
<clus scale="  114.302">  1  5  2 -1</clus>
<clus scale="   33.852">  1  5  2 -1</clus>
</clustering>
</event>
<event>
 9    2  0.4883225E-005  0.9657121E+02  0.7546771E-02  0.1295805E+00
          2   -1    0    0  502    0 -0.00000000000E+00  0.00000000000E+00  0.15173139364E+03  0.15173139364E+03  0.00000000000E+00 0. -1.
         21   -1    0    0  501  502  0.00000000000E+00 -0.00000000000E+00 -0.94395564034E+02  0.94395564034E+02  0.00000000000E+00 0.  1.
         24    2    1    2    0    0  0.20015766965E+02 -0.94245539686E+01  0.69881042250E+02  0.10874068085E+03  0.80322614885E+02 0.  0.
         23    2    1    2    0    0 -0.49470641720E+01  0.22577376762E+02 -0.38641774549E+02  0.10450629667E+03  0.94308896282E+02 0.  0.
        -13    1    3    3    0    0 -0.27010342990E+02  0.13993999531E+02  0.20845713541E+02  0.36877288733E+02  0.00000000000E+00 0.  1.
         14    1    3    3    0    0  0.47026109955E+02 -0.23418553499E+02  0.49035328709E+02  0.71863392120E+02  0.00000000000E+00 0. -1.
        -13    1    4    4    0    0  0.21495123485E+02  0.20719977847E+02  0.22816085216E+02  0.37575677774E+02  0.00000000000E+00 0. -1.
         13    1    4    4    0    0 -0.26442187657E+02  0.18573989145E+01 -0.61457859765E+02  0.66930618895E+02  0.00000000000E+00 0.  1.
          1    1    1    2  501    0 -0.15068702793E+02 -0.13152822793E+02  0.26096561903E+02  0.32879980147E+02  0.00000000000E+00 0. -1.
<scales pt_clust_5="13000.00000" pt_clust_6="13000.00000" pt_clust_7="13000.00000" pt_clust_8="13000.00000" pt_clust_9="20.00157"></scales>
<clustering>
<clus scale="   20.002">  2  9  1 -1</clus>
<clus scale="   80.323">  5  6 -1 -1</clus>
<clus scale="   82.967">  1  5  2 -1</clus>
<clus scale="   94.309">  7  8 -1 -1</clus>
<clus scale="   20.002">  2  5  1 -1</clus>
</clustering>
</event>
<event>
 9    2  0.4883225E-005  0.1049568E+03  0.7546771E-02  0.1275757E+00
         21   -1    0    0  501  502  0.00000000000E+00  0.00000000000E+00  0.19092747590E+03  0.19092747590E+03  0.00000000000E+00 0.  1.
          2   -1    0    0  502    0 -0.00000000000E+00 -0.00000000000E+00 -0.15525292083E+03  0.15525292083E+03  0.00000000000E+00 0. -1.
         23    2    1    2    0    0 -0.15773233753E+01 -0.46570264699E+02 -0.11099372557E+03  0.15214487796E+03  0.93043964180E+02 0.  0.
         24    2    1    2    0    0 -0.15123443716E+02  0.60441173269E+02  0.10164949125E+03  0.14405543150E+03  0.80854772874E+02 0.  0.
        -13    1    4    4    0    0  0.32813018913E+02  0.34321052599E+02  0.47660299282E+02  0.67276541152E+02  0.00000000000E+00 0.  1.
         14    1    4    4    0    0 -0.47936462630E+02  0.26120120670E+02  0.53989191968E+02  0.76778890345E+02  0.00000000000E+00 0. -1.
        -11    1    3    3    0    0  0.28615988839E+02 -0.16780191056E+02  0.15988605648E+00  0.33173410928E+02  0.00000000000E+00 0.  1.
         11    1    3    3    0    0 -0.30193312214E+02 -0.29790073643E+02 -0.11115361162E+03  0.11897146703E+03  0.00000000000E+00 0. -1.
          1    1    1    2  501    0  0.16700767092E+02 -0.13870908571E+02  0.45018789393E+02  0.49980087279E+02  0.00000000000E+00 0. -1.
<scales pt_clust_5="13000.00000" pt_clust_6="13000.00000" pt_clust_7="13000.00000" pt_clust_8="13000.00000" pt_clust_9="21.70985"></scales>
<clustering>
<clus scale="   21.710">  1  9  2 -1</clus>
<clus scale="   80.855">  5  6 -1 -1</clus>
<clus scale="   93.044">  7  8 -1 -1</clus>
<clus scale="   94.320">  1  5  2 -1</clus>
<clus scale="   21.710">  1  5  2 -1</clus>
</clustering>
</event>
<event>
 9    2  0.4883225E-005  0.9381372E+02  0.7546771E-02  0.1300629E+00
         21   -1    0    0  501  502  0.00000000000E+00  0.00000000000E+00  0.42236822265E+02  0.42236822265E+02  0.00000000000E+00 0.  1.
          4   -1    0    0  502    0 -0.00000000000E+00 -0.00000000000E+00 -0.28055951917E+03  0.28055951917E+03  0.00000000000E+00 0. -1.
         23    2    1    2    0    0  0.18979799462E+02  0.88919764367E+01 -0.16303128573E+03  0.18800629530E+03  0.91257147177E+02 0.  0.
         24    2    1    2    0    0 -0.96335886111E+01 -0.27279961353E+02 -0.39957637235E+02  0.93876170409E+02  0.79869395116E+02 0.  0.
        -11    1    4    4    0    0  0.20638912980E+01 -0.54582933509E+02 -0.20373689907E+02  0.58297886052E+02  0.00000000000E+00 0.  1.
         12    1    4    4    0    0 -0.11697479909E+02  0.27302972156E+02 -0.19583947328E+02  0.35578284356E+02  0.00000000000E+00 0. -1.
        -11    1    3    3    0    0 -0.29209036389E+02 -0.18408093949E+01 -0.16979005008E+02  0.33835528621E+02  0.00000000000E+00 0.  1.
         11    1    3    3    0    0  0.48188835852E+02  0.10732785832E+02 -0.14605228072E+03  0.15417076667E+03  0.00000000000E+00 0. -1.
          3    1    1    2  501    0 -0.93462108513E+01  0.18387984916E+02 -0.35333773936E+02  0.40913875728E+02  0.00000000000E+00 0. -1.
<scales pt_clust_5="13000.00000" pt_clust_6="13000.00000" pt_clust_7="13000.00000" pt_clust_8="13000.00000" pt_clust_9="20.62693"></scales>
<clustering>
<clus scale="   20.627">  1  9  2 -1</clus>
<clus scale="   79.869">  5  6 -1 -1</clus>
<clus scale="   82.778">  1  5  2 -1</clus>
<clus scale="   91.257">  7  8 -1 -1</clus>
<clus scale="   20.627">  1  5  2 -1</clus>
</clustering>
</event>
<event>
 9    2  0.4883225E-005  0.1607124E+03  0.7546771E-02  0.1208686E+00
          2   -1    0    0  502    0 -0.00000000000E+00  0.00000000000E+00  0.19808948117E+04  0.19808948117E+04  0.00000000000E+00 0. -1.
         21   -1    0    0  501  502  0.00000000000E+00 -0.00000000000E+00 -0.25527944277E+02  0.25527944277E+02  0.00000000000E+00 0. -1.
         23    2    1    2    0    0  0.50544195995E+02 -0.62170840809E+01  0.19710553997E+03  0.22201415894E+03  0.88579484079E+02 0.  0.
         24    2    1    2    0    0  0.94895808472E+02 -0.58456671733E+02  0.10111200858E+04  0.10205005367E+04  0.81456250036E+02 0.  0.
        -11    1    4    4    0    0  0.96296100734E+01 -0.26306869322E+02  0.76846851407E+02  0.81793760977E+02  0.00000000000E+00 0.  1.
         12    1    4    4    0    0  0.85266198399E+02 -0.32149802411E+02  0.93427323435E+03  0.93870677573E+03  0.00000000000E+00 0. -1.
        -11    1    3    3    0    0  0.47189795596E+02  0.27022995148E+02  0.60344757049E+02  0.81231821219E+02  0.00000000000E+00 0.  1.
         11    1    3    3    0    0  0.33544003992E+01 -0.33240079229E+02  0.13676078292E+03  0.14078233772E+03  0.00000000000E+00 0. -1.
          1    1    1    2  501    0 -0.14544000447E+03  0.64673755814E+02  0.74714124173E+03  0.76390806036E+03  0.00000000000E+00 0. -1.
<scales pt_clust_5="13000.00000" pt_clust_6="13000.00000" pt_clust_7="13000.00000" pt_clust_8="13000.00000" pt_clust_9="138.54005"></scales>
<clustering>
<clus scale="   81.456">  5  6 -1 -1</clus>
<clus scale="   88.579">  7  8 -1 -1</clus>
<clus scale="  102.175">  1  7  2 -1</clus>
<clus scale="  138.540">  2  9  1 -1</clus>
<clus scale="  138.540">  2  5  1 -1</clus>
</clustering>
</event>
<event>
 9    2  0.4883225E-005  0.1003462E+03  0.7546771E-02  0.1287591E+00
          2   -1    0    0  502    0 -0.00000000000E+00  0.00000000000E+00  0.40629822452E+03  0.40629822452E+03  0.00000000000E+00 0. -1.
         21   -1    0    0  501  502  0.00000000000E+00 -0.00000000000E+00 -0.41158669177E+02  0.41158669177E+02  0.00000000000E+00 0.  1.
         23    2    1    2    0    0 -0.18052926618E+02  0.32174353142E+02  0.28673596581E+03  0.30424685299E+03  0.94802617581E+02 0.  0.
         24    2    1    2    0    0  0.33709388512E+02 -0.32520679740E+01  0.61691832255E+02  0.10631957840E+03  0.79693611819E+02 0.  0.
        -13    1    4    4    0    0 -0.35923127660E+01  0.33288266234E+02  0.16808974483E+02  0.37464049474E+02  0.00000000000E+00 0.  1.
         14    1    4    4    0    0  0.37301701278E+02 -0.36540334208E+02  0.44882857772E+02  0.68855528928E+02  0.00000000000E+00 0. -1.
        -13    1    3    3    0    0 -0.52109670669E+01 -0.28907298011E+02  0.16337102577E+03  0.16599059648E+03  0.00000000000E+00 0.  1.
         13    1    3    3    0    0 -0.12841959551E+02  0.61081651153E+02  0.12336494004E+03  0.13825625651E+03  0.00000000000E+00 0. -1.
          1    1    1    2  501    0 -0.15656461894E+02 -0.28922285168E+02  0.16711757278E+02  0.36890462314E+02  0.00000000000E+00 0. -1.
<scales pt_clust_5="13000.00000" pt_clust_6="13000.00000" pt_clust_7="13000.00000" pt_clust_8="13000.00000" pt_clust_9="32.88804"></scales>
<clustering>
<clus scale="   32.888">  2  9  1 -1</clus>
<clus scale="   79.694">  5  6 -1 -1</clus>
<clus scale="   86.214">  2  5  1 -1</clus>
<clus scale="   94.803">  7  8 -1 -1</clus>
<clus scale="   32.888">  2  5  1 -1</clus>
</clustering>
</event>
<event>
 9    2  0.4883225E-005  0.9868217E+02  0.7546771E-02  0.1288629E+00
         21   -1    0    0  501  502  0.00000000000E+00  0.00000000000E+00  0.18329217081E+03  0.18329217081E+03  0.00000000000E+00 0. -1.
          2   -1    0    0  502    0 -0.00000000000E+00 -0.00000000000E+00 -0.12133364456E+03  0.12133364456E+03  0.00000000000E+00 0. -1.
         24    2    1    2    0    0  0.49122538597E+02 -0.16278125297E+02 -0.48967187528E+02  0.10735291519E+03  0.80304805491E+02 0.  0.
         23    2    1    2    0    0  0.17270738511E+02  0.15660934065E+02  0.82548602603E+02  0.12506688513E+03  0.91015991447E+02 0.  0.
        -11    1    3    3    0    0  0.73290429294E+01 -0.31518531883E+02  0.96490460746E+01  0.33767392741E+02  0.00000000000E+00 0.  1.
         12    1    3    3    0    0  0.41793495667E+02  0.15240406586E+02 -0.58616233602E+02  0.73585522453E+02  0.00000000000E+00 0. -1.
        -13    1    4    4    0    0  0.32191614291E+02 -0.13345319294E+02  0.85485900596E+02  0.92315961667E+02  0.00000000000E+00 0. -1.
         13    1    4    4    0    0 -0.14920875781E+02  0.29006253359E+02 -0.29372979926E+01  0.32750923460E+02  0.00000000000E+00 0.  1.
          1    1    1    2  501    0 -0.66393277107E+02  0.61719123227E+00  0.28377111182E+02  0.72206015048E+02  0.00000000000E+00 0. -1.
<scales pt_clust_5="13000.00000" pt_clust_6="13000.00000" pt_clust_7="13000.00000" pt_clust_8="13000.00000" pt_clust_9="66.39615"></scales>
<clustering>
<clus scale="   66.396">  1  9  2 -1</clus>
<clus scale="   80.305">  5  6 -1 -1</clus>
<clus scale="   88.900">  2  5  1 -1</clus>
<clus scale="   91.016">  7  8 -1 -1</clus>
<clus scale="   66.396">  1  5  2 -1</clus>
</clustering>
</event>
<event>
 9    2  0.4883225E-005  0.1258978E+03  0.7546771E-02  0.1254560E+00
         21   -1    0    0  501  502  0.00000000000E+00  0.00000000000E+00  0.82487020624E+02  0.82487020624E+02  0.00000000000E+00 0. -1.
          2   -1    0    0  502    0 -0.00000000000E+00 -0.00000000000E+00 -0.29011883753E+03  0.29011883753E+03  0.00000000000E+00 0. -1.
         24    2    1    2    0    0 -0.10198623165E+02  0.36113356754E+00 -0.13451651725E+02  0.83695225835E+02  0.81974395768E+02 0.  0.
         23    2    1    2    0    0 -0.81667938254E+02 -0.38368921429E+01 -0.10905583263E+03  0.16362017778E+03  0.90520793570E+02 0.  0.
        -11    1    3    3    0    0 -0.19822505807E+02 -0.37194602877E+02 -0.15411944503E+02  0.44876477725E+02  0.00000000000E+00 0.  1.
         12    1    3    3    0    0  0.96238826418E+01  0.37555736445E+02  0.19602927782E+01  0.38818748109E+02  0.00000000000E+00 0. -1.
        -13    1    4    4    0    0 -0.94227616206E+02  0.18210735945E+02 -0.92704868885E+02  0.13343413085E+03  0.00000000000E+00 0. -1.
         13    1    4    4    0    0  0.12559677952E+02 -0.22047628088E+02 -0.16350963740E+02  0.30186046939E+02  0.00000000000E+00 0.  1.
          1    1    1    2  501    0  0.91866561419E+02  0.34757585754E+01 -0.85124332555E+02  0.12529045453E+03  0.00000000000E+00 0. -1.
<scales pt_clust_5="13000.00000" pt_clust_6="13000.00000" pt_clust_7="13000.00000" pt_clust_8="13000.00000" pt_clust_9="87.49995"></scales>
<clustering>
<clus scale="   81.974">  5  6 -1 -1</clus>
<clus scale="   82.607">  2  5  1 -1</clus>
<clus scale="   87.500">  1  9  2 -1</clus>
<clus scale="   90.521">  7  8 -1 -1</clus>
<clus scale="   87.500">  1  5  2 -1</clus>
</clustering>
</event>
<event>
 9    2  0.4883225E-005  0.2306246E+03  0.7546771E-02  0.1126534E+00
          2   -1    0    0  502    0 -0.00000000000E+00  0.00000000000E+00  0.63843940922E+03  0.63843940922E+03  0.00000000000E+00 0. -1.
         21   -1    0    0  501  502  0.00000000000E+00 -0.00000000000E+00 -0.99700618876E+02  0.99700618876E+02  0.00000000000E+00 0. -1.
         23    2    1    2    0    0  0.12462647657E+03  0.18208379563E+03  0.38023738954E+03  0.44802170745E+03  0.86352247540E+02 0.  0.
         24    2    1    2    0    0 -0.12682411675E+03 -0.15745453847E+03  0.13708218862E+03  0.25740421694E+03  0.81173371166E+02 0.  0.
        -13    1    4    4    0    0 -0.43554178729E+02 -0.59554214116E+01  0.38256543749E+02  0.58275180554E+02  0.00000000000E+00 0.  1.
         14    1    4    4    0    0 -0.83269938026E+02 -0.15149911706E+03  0.98825644871E+02  0.19912903639E+03  0.00000000000E+00 0. -1.
        -11    1    3    3    0    0  0.11026148419E+03  0.16376438361E+03  0.37554101686E+03  0.42427281739E+03  0.00000000000E+00 0. -1.
         11    1    3    3    0    0  0.14364992382E+02  0.18319412018E+02  0.46963726777E+01  0.23748890061E+02  0.00000000000E+00 0.  1.
          1    1    1    2  501    0  0.21976401822E+01 -0.24629257159E+02  0.21419212191E+02  0.32714103708E+02  0.00000000000E+00 0. -1.
<scales pt_clust_5="13000.00000" pt_clust_6="13000.00000" pt_clust_7="13000.00000" pt_clust_8="13000.00000" pt_clust_9="24.72711"></scales>
<clustering>
<clus scale="   24.727">  2  9  1 -1</clus>
<clus scale="   81.173">  5  6 -1 -1</clus>
<clus scale="   86.352">  7  8 -1 -1</clus>
<clus scale="  228.736">  2  5  1 -1</clus>
<clus scale="   24.727">  2  5  1 -1</clus>
</clustering>
</event>
<event>
 9    2  0.4883225E-005  0.3363740E+03  0.7546771E-02  0.1068351E+00
          2   -1    0    0  502    0 -0.00000000000E+00  0.00000000000E+00  0.10896110887E+04  0.10896110887E+04  0.00000000000E+00 0. -1.
         21   -1    0    0  501  502  0.00000000000E+00 -0.00000000000E+00 -0.86925808173E+02  0.86925808173E+02  0.00000000000E+00 0. -1.
         24    2    1    2    0    0 -0.92900567913E+02 -0.28555522365E+02  0.31718733249E+03  0.34126970815E+03  0.80070446698E+02 0.  0.
         23    2    1    2    0    0 -0.16393829758E+03 -0.71793040180E+02  0.29468148936E+03  0.35696441724E+03  0.92500859274E+02 0.  0.
        -11    1    3    3    0    0 -0.48799332123E+02 -0.11225251836E+02  0.53182520620E+02  0.73046297606E+02  0.00000000000E+00 0.  1.
         12    1    3    3    0    0 -0.44101235789E+02 -0.17330270529E+02  0.26400481187E+03  0.26822341055E+03  0.00000000000E+00 0. -1.
        -11    1    4    4    0    0 -0.11306088721E+03 -0.69044959272E+02  0.26912269279E+03  0.29996165487E+03  0.00000000000E+00 0. -1.
         11    1    4    4    0    0 -0.50877410377E+02 -0.27480809079E+01  0.25558796575E+02  0.57002762369E+02  0.00000000000E+00 0.  1.
          1    1    1    2  501    0  0.25683886550E+03  0.10034856254E+03  0.39081645864E+03  0.47830277145E+03  0.00000000000E+00 0. -1.
<scales pt_clust_5="13000.00000" pt_clust_6="13000.00000" pt_clust_7="13000.00000" pt_clust_8="13000.00000" pt_clust_9="275.74633"></scales>
<clustering>
<clus scale="   80.070">  5  6 -1 -1</clus>
<clus scale="   92.501">  7  8 -1 -1</clus>
<clus scale="  110.330">  5  7 -1 -1</clus>
<clus scale="  275.746">  2  9  1 -1</clus>
<clus scale="  275.746">  2  5  1 -1</clus>
</clustering>
</event>
<event>
 9    2  0.4883225E-005  0.9298351E+02  0.7546771E-02  0.1304137E+00
         21   -1    0    0  501  502  0.00000000000E+00  0.00000000000E+00  0.39429325696E+03  0.39429325696E+03  0.00000000000E+00 0. -1.
          4   -1    0    0  502    0 -0.00000000000E+00 -0.00000000000E+00 -0.47508231713E+03  0.47508231713E+03  0.00000000000E+00 0. -1.
         24    2    1    2    0    0  0.85112418091E+01  0.62756489707E+01 -0.43919435952E+03  0.44639472542E+03  0.79150113374E+02 0.  0.
         23    2    1    2    0    0  0.61521513959E+02 -0.26832294667E+02  0.91876928079E+02  0.14663951037E+03  0.92503553284E+02 0.  0.
        -13    1    3    3    0    0 -0.12835512421E+02  0.35820593901E+02 -0.14337874055E+03  0.14834193125E+03  0.00000000000E+00 0.  1.
         14    1    3    3    0    0  0.21346754230E+02 -0.29544944931E+02 -0.29581561897E+03  0.29805279417E+03  0.00000000000E+00 0. -1.
        -11    1    4    4    0    0  0.63507533054E+02 -0.56194116122E+02  0.70253383543E+02  0.11012049464E+03  0.00000000000E+00 0. -1.
         11    1    4    4    0    0 -0.19860190953E+01  0.29361821455E+02  0.21623544536E+02  0.36519015722E+02  0.00000000000E+00 0.  1.
          3    1    1    2  501    0 -0.70032755768E+02  0.20556645696E+02  0.26652837127E+03  0.27634133830E+03  0.00000000000E+00 0. -1.
<scales pt_clust_5="13000.00000" pt_clust_6="13000.00000" pt_clust_7="13000.00000" pt_clust_8="13000.00000" pt_clust_9="72.98741"></scales>
<clustering>
<clus scale="   72.987">  1  9  2 -1</clus>
<clus scale="   79.150">  5  6 -1 -1</clus>
<clus scale="   79.711">  2  5  1 -1</clus>
<clus scale="   92.504">  7  8 -1 -1</clus>
<clus scale="   72.987">  1  5  2 -1</clus>
</clustering>
</event>
<event>
 9    2  0.4883225E-005  0.1997846E+03  0.7546771E-02  0.1164769E+00
         21   -1    0    0  501  502  0.00000000000E+00  0.00000000000E+00  0.57830130060E+03  0.57830130060E+03  0.00000000000E+00 0. -1.
          4   -1    0    0  502    0 -0.00000000000E+00 -0.00000000000E+00 -0.14286805910E+03  0.14286805910E+03  0.00000000000E+00 0. -1.
         24    2    1    2    0    0 -0.43303681825E+02  0.10807669027E+03  0.15739502032E+03  0.21142808075E+03  0.79830201476E+02 0.  0.
         23    2    1    2    0    0  0.19363570452E+03 -0.13785799669E+03  0.10759113634E+03  0.28052772789E+03  0.10305503473E+03 0.  0.
        -13    1    3    3    0    0 -0.21158970345E+02  0.49780688442E+02  0.13454886318E+03  0.14501453566E+03  0.00000000000E+00 0.  1.
         14    1    3    3    0    0 -0.22144711480E+02  0.58296001829E+02  0.22846157140E+02  0.66413545093E+02  0.00000000000E+00 0. -1.
        -11    1    4    4    0    0  0.47590879771E+02 -0.94739482406E+02  0.33538190778E+02  0.11119924282E+03  0.00000000000E+00 0.  1.
         11    1    4    4    0    0  0.14604482475E+03 -0.43118514285E+02  0.74052945558E+02  0.16932848507E+03  0.00000000000E+00 0. -1.
          3    1    1    2  501    0 -0.15033202270E+03  0.29781306419E+02  0.17044708484E+03  0.22921355106E+03  0.00000000000E+00 0. -1.
<scales pt_clust_5="13000.00000" pt_clust_6="13000.00000" pt_clust_7="13000.00000" pt_clust_8="13000.00000" pt_clust_9="171.15357"></scales>
<clustering>
<clus scale="   79.830">  5  6 -1 -1</clus>
<clus scale="  103.055">  7  8 -1 -1</clus>
<clus scale="  141.169">  2  5  1 -1</clus>
<clus scale="  171.154">  1  9  2 -1</clus>
<clus scale="  171.154">  1  5  2 -1</clus>
</clustering>
</event>
<event>
 9    2  0.4883225E-005  0.1196921E+03  0.7546771E-02  0.1251788E+00
          2   -1    0    0  502    0 -0.00000000000E+00  0.00000000000E+00  0.66440959583E+02  0.66440959583E+02  0.00000000000E+00 0. -1.
         21   -1    0    0  501  502  0.00000000000E+00 -0.00000000000E+00 -0.37821249022E+03  0.37821249022E+03  0.00000000000E+00 0. -1.
         24    2    1    2    0    0  0.74692011183E+02  0.47762330184E+02 -0.44298568079E+02  0.12245085807E+03  0.71914621519E+02 0.  0.
         23    2    1    2    0    0 -0.40469029489E+01 -0.46098608178E+02 -0.18662109663E+03  0.21482231649E+03  0.95810932858E+02 0.  0.
        -11    1    3    3    0    0  0.17666365530E+02 -0.16829661080E+02  0.22765275274E+01  0.24505520616E+02  0.00000000000E+00 0.  1.
         12    1    3    3    0    0  0.57025645653E+02  0.64591991264E+02 -0.46575095606E+02  0.97945337451E+02  0.00000000000E+00 0. -1.
        -13    1    4    4    0    0  0.17223039871E+02 -0.70630502134E+02 -0.11309420811E+03  0.13444553113E+03  0.00000000000E+00 0. -1.
         13    1    4    4    0    0 -0.21269942820E+02  0.24531893955E+02 -0.73526888519E+02  0.80376785354E+02  0.00000000000E+00 0.  1.
          1    1    1    2  501    0 -0.70645108234E+02 -0.16637220055E+01 -0.80851865935E+02  0.10738027525E+03  0.00000000000E+00 0. -1.
<scales pt_clust_5="13000.00000" pt_clust_6="13000.00000" pt_clust_7="13000.00000" pt_clust_8="13000.00000" pt_clust_9="70.66470"></scales>
<clustering>
<clus scale="   70.665">  2  9  1 -1</clus>
<clus scale="   71.915">  5  6 -1 -1</clus>
<clus scale="   95.811">  7  8 -1 -1</clus>
<clus scale="  101.578">  1  5  2 -1</clus>
<clus scale="   70.665">  2  5  1 -1</clus>
</clustering>
</event>
<event>
 9    2  0.4883225E-005  0.1187425E+03  0.7546771E-02  0.1249209E+00
          2   -1    0    0  502    0 -0.00000000000E+00  0.00000000000E+00  0.51089918275E+02  0.51089918275E+02  0.00000000000E+00 0. -1.
         21   -1    0    0  501  502  0.00000000000E+00 -0.00000000000E+00 -0.69290364206E+03  0.69290364206E+03  0.00000000000E+00 0.  1.
         24    2    1    2    0    0  0.98707303553E+01  0.85822889905E+02 -0.56786970496E+02  0.13106647806E+03  0.80564644246E+02 0.  0.
         23    2    1    2    0    0  0.42884109261E+02 -0.34759259509E+02 -0.30863318743E+03  0.32694811329E+03  0.92700439348E+02 0.  0.
        -13    1    3    3    0    0  0.41551490004E+02  0.41040173878E+02 -0.47820653918E+02  0.75482694273E+02  0.00000000000E+00 0.  1.
         14    1    3    3    0    0 -0.31680759649E+02  0.44782716027E+02 -0.89663165775E+01  0.55583783783E+02  0.00000000000E+00 0. -1.
        -11    1    4    4    0    0  0.30892301620E+02  0.24964946366E+02 -0.18382880340E+03  0.18807076276E+03  0.00000000000E+00 0.  1.
         11    1    4    4    0    0  0.11991807641E+02 -0.59724205875E+02 -0.12480438403E+03  0.13887735053E+03  0.00000000000E+00 0. -1.
          1    1    1    2  501    0 -0.52754839616E+02 -0.51063630396E+02 -0.27639356586E+03  0.28597896898E+03  0.00000000000E+00 0. -1.
<scales pt_clust_5="13000.00000" pt_clust_6="13000.00000" pt_clust_7="13000.00000" pt_clust_8="13000.00000" pt_clust_9="73.42048"></scales>
<clustering>
<clus scale="   73.420">  2  9  1 -1</clus>
<clus scale="   80.565">  5  6 -1 -1</clus>
<clus scale="   92.700">  7  8 -1 -1</clus>
<clus scale="  109.531">  1  5  2 -1</clus>
<clus scale="   73.420">  2  5  1 -1</clus>
</clustering>
</event>
<event>
 9    2  0.4883225E-005  0.1520434E+03  0.7546771E-02  0.1201704E+00
          2   -1    0    0  502    0 -0.00000000000E+00  0.00000000000E+00  0.11015898507E+04  0.11015898507E+04  0.00000000000E+00 0. -1.
         21   -1    0    0  501  502  0.00000000000E+00 -0.00000000000E+00 -0.60853499672E+02  0.60853499672E+02  0.00000000000E+00 0.  1.
         24    2    1    2    0    0 -0.33579298943E+02  0.11489860509E+03  0.70703813363E+03  0.72172099491E+03  0.81541482227E+02 0.  0.
         23    2    1    2    0    0 -0.22810691791E+02 -0.84492385769E+02  0.38580194502E+02  0.13873060612E+03  0.10049108793E+03 0.  0.
        -11    1    3    3    0    0 -0.19763720845E+02  0.48727540133E+02  0.12279009569E+03  0.13357539231E+03  0.00000000000E+00 0.  1.
         12    1    3    3    0    0 -0.13815578098E+02  0.66171064954E+02  0.58424803793E+03  0.58814560261E+03  0.00000000000E+00 0. -1.
        -11    1    4    4    0    0 -0.60361992722E+02 -0.67834879611E+02  0.17191187993E+02  0.92415788704E+02  0.00000000000E+00 0.  1.
         11    1    4    4    0    0  0.37551300931E+02 -0.16657506158E+02  0.21389006509E+02  0.46314817418E+02  0.00000000000E+00 0. -1.
          1    1    1    2  501    0  0.56389990734E+02 -0.30406219319E+02  0.29511802287E+03  0.30199174931E+03  0.00000000000E+00 0. -1.
<scales pt_clust_5="13000.00000" pt_clust_6="13000.00000" pt_clust_7="13000.00000" pt_clust_8="13000.00000" pt_clust_9="64.06538"></scales>
<clustering>
<clus scale="   64.065">  2  9  1 -1</clus>
<clus scale="   81.541">  5  6 -1 -1</clus>
<clus scale="  100.491">  7  8 -1 -1</clus>
<clus scale="  140.242">  1  5  2 -1</clus>
<clus scale="   64.065">  2  5  1 -1</clus>
</clustering>
</event>
<event>
 9    2  0.4883225E-005  0.1034255E+03  0.7546771E-02  0.1278947E+00
          2   -1    0    0  502    0 -0.00000000000E+00  0.00000000000E+00  0.18710375610E+03  0.18710375610E+03  0.00000000000E+00 0. -1.
         21   -1    0    0  501  502  0.00000000000E+00 -0.00000000000E+00 -0.48922333680E+03  0.48922333680E+03  0.00000000000E+00 0.  1.
         24    2    1    2    0    0  0.14067263398E+02 -0.45054722065E+02  0.15612029319E+03  0.18128636404E+03  0.79141543823E+02 0.  0.
         23    2    1    2    0    0 -0.53448716063E+02  0.53011717228E+02 -0.19057597555E+03  0.22437825444E+03  0.91429706316E+02 0.  0.
        -11    1    3    3    0    0  0.31733123444E+02  0.15739509477E+01  0.23257124200E+02  0.39374639950E+02  0.00000000000E+00 0.  1.
         12    1    3    3    0    0 -0.17665860046E+02 -0.46628673013E+02  0.13286316899E+03  0.14191172409E+03  0.00000000000E+00 0. -1.
        -13    1    4    4    0    0  0.18687482326E+02  0.41118700917E+02 -0.67222110045E+02  0.80986305260E+02  0.00000000000E+00 0. -1.
         13    1    4    4    0    0 -0.72136198389E+02  0.11893016312E+02 -0.12335386550E+03  0.14339194918E+03  0.00000000000E+00 0.  1.
          1    1    1    2  501    0  0.39381452665E+02 -0.79569951631E+01 -0.26766389835E+03  0.27066247443E+03  0.00000000000E+00 0. -1.
<scales pt_clust_5="13000.00000" pt_clust_6="13000.00000" pt_clust_7="13000.00000" pt_clust_8="13000.00000" pt_clust_9="40.17726"></scales>
<clustering>
<clus scale="   40.177">  2  9  1 -1</clus>
<clus scale="   79.142">  5  6 -1 -1</clus>
<clus scale="   91.430">  7  8 -1 -1</clus>
<clus scale="   92.741">  1  5  2 -1</clus>
<clus scale="   40.177">  2  5  1 -1</clus>
</clustering>
</event>
<event>
 9    2  0.4883225E-005  0.9446695E+02  0.7546771E-02  0.1303176E+00
         -1   -1    0    0    0  501 -0.00000000000E+00  0.00000000000E+00  0.84687964504E+02  0.84687964504E+02  0.00000000000E+00 0.  1.
         21   -1    0    0  501  502  0.00000000000E+00 -0.00000000000E+00 -0.22683750260E+03  0.22683750260E+03  0.00000000000E+00 0.  1.
         23    2    1    2    0    0  0.12275024867E+02 -0.17235593015E+00  0.30157893290E+02  0.98318420956E+02  0.92770186102E+02 0.  0.
         24    2    1    2    0    0 -0.30950037433E+02  0.11310312112E+02 -0.68023038261E+02  0.10667984393E+03  0.75283646233E+02 0.  0.
        -11    1    4    4    0    0  0.23205715183E+01 -0.20244691869E+02  0.45076447488E+01  0.20869869722E+02  0.00000000000E+00 0.  1.
         12    1    4    4    0    0 -0.33270608951E+02  0.31555003981E+02 -0.72530683010E+02  0.85809974211E+02  0.00000000000E+00 0. -1.
        -13    1    3    3    0    0  0.37383693288E+02  0.60970009033E+01 -0.19290708452E+02  0.42507003851E+02  0.00000000000E+00 0. -1.
         13    1    3    3    0    0 -0.25108668421E+02 -0.62693568335E+01  0.49448601742E+02  0.55811417104E+02  0.00000000000E+00 0.  1.
         -2    1    1    2    0  502  0.18675012566E+02 -0.11137956182E+02 -0.10428439312E+03  0.10652720221E+03  0.00000000000E+00 0.  1.
<scales pt_clust_5="13000.00000" pt_clust_6="13000.00000" pt_clust_7="13000.00000" pt_clust_8="13000.00000" pt_clust_9="21.74420"></scales>
<clustering>
<clus scale="   21.744">  2  9  1 -1</clus>
<clus scale="   75.284">  5  6 -1 -1</clus>
<clus scale="   77.365">  2  5  1 -1</clus>
<clus scale="   92.770">  7  8 -1 -1</clus>
<clus scale="   21.744">  2  5  1 -1</clus>
</clustering>
</event>
<event>
 9    2  0.4883225E-005  0.2678757E+03  0.7546771E-02  0.1102734E+00
          2   -1    0    0  502    0 -0.00000000000E+00  0.00000000000E+00  0.66761894697E+03  0.66761894697E+03  0.00000000000E+00 0. -1.
         21   -1    0    0  501  502  0.00000000000E+00 -0.00000000000E+00 -0.27048990224E+03  0.27048990224E+03  0.00000000000E+00 0. -1.
         24    2    1    2    0    0  0.23321554901E+03  0.95960523128E+02  0.41713769822E+03  0.49442069452E+03  0.82765026385E+02 0.  0.
         23    2    1    2    0    0 -0.27842729125E+03  0.10699663780E+02 -0.93217175939E+02  0.30664806981E+03  0.87791557172E+02 0.  0.
        -11    1    3    3    0    0  0.28521780657E+02  0.18149725152E+02  0.15998449841E+02  0.37401268591E+02  0.00000000000E+00 0.  1.
         12    1    3    3    0    0  0.20469376835E+03  0.77810797976E+02  0.40113924838E+03  0.45701942592E+03  0.00000000000E+00 0. -1.
        -11    1    4    4    0    0 -0.84050333275E+02  0.42252618511E+02 -0.42940158355E+02  0.10340986169E+03  0.00000000000E+00 0. -1.
         11    1    4    4    0    0 -0.19437695797E+03 -0.31552954731E+02 -0.50277017584E+02  0.20323820812E+03  0.00000000000E+00 0.  1.
          1    1    1    2  501    0  0.45211742236E+02 -0.10666018691E+03  0.73208522446E+02  0.13704008489E+03  0.00000000000E+00 0. -1.
<scales pt_clust_5="13000.00000" pt_clust_6="13000.00000" pt_clust_7="13000.00000" pt_clust_8="13000.00000" pt_clust_9="115.84693"></scales>
<clustering>
<clus scale="   82.765">  5  6 -1 -1</clus>
<clus scale="   87.792">  7  8 -1 -1</clus>
<clus scale="  115.847">  2  9  1 -1</clus>
<clus scale="  266.271">  1  5  2 -1</clus>
<clus scale="  115.847">  2  5  1 -1</clus>
</clustering>
</event>
<event>
 9    2  0.4883225E-005  0.9169779E+02  0.7546771E-02  0.1305376E+00
         21   -1    0    0  501  502  0.00000000000E+00  0.00000000000E+00  0.28847895361E+02  0.28847895361E+02  0.00000000000E+00 0. -1.
          2   -1    0    0  502    0 -0.00000000000E+00 -0.00000000000E+00 -0.68640543019E+03  0.68640543019E+03  0.00000000000E+00 0. -1.
         24    2    1    2    0    0  0.13930595567E+02  0.17395294311E+02 -0.21227354483E+03  0.22827471276E+03  0.80948310002E+02 0.  0.
         23    2    1    2    0    0  0.36481820551E+02  0.17090410022E+02 -0.12065906754E+03  0.15665753296E+03  0.91432853549E+02 0.  0.
        -13    1    3    3    0    0 -0.18112622522E+02 -0.18539595706E+02 -0.13318668924E+03  0.13568521620E+03  0.00000000000E+00 0.  1.
         14    1    3    3    0    0  0.32043218089E+02  0.35934890017E+02 -0.79086855591E+02  0.92589496561E+02  0.00000000000E+00 0. -1.
        -13    1    4    4    0    0 -0.21395717238E+02  0.33449299992E+02 -0.50718440886E+02  0.64412674467E+02  0.00000000000E+00 0.  1.
         13    1    4    4    0    0  0.57877537790E+02 -0.16358889970E+02 -0.69940626658E+02  0.92244858496E+02  0.00000000000E+00 0. -1.
          1    1    1    2  501    0 -0.50412416118E+02 -0.34485704333E+02 -0.32462492245E+03  0.33032107982E+03  0.00000000000E+00 0. -1.
<scales pt_clust_5="13000.00000" pt_clust_6="13000.00000" pt_clust_7="13000.00000" pt_clust_8="13000.00000" pt_clust_9="61.07929"></scales>
<clustering>
<clus scale="   61.079">  1  9  2 -1</clus>
<clus scale="   80.948">  5  6 -1 -1</clus>
<clus scale="   81.247">  2  5  1 -1</clus>
<clus scale="   91.433">  7  8 -1 -1</clus>
<clus scale="   61.079">  1  5  2 -1</clus>
</clustering>
</event>
<event>
 9    2  0.4883225E-005  0.9276425E+02  0.7546771E-02  0.1302026E+00
         -1   -1    0    0    0  501 -0.00000000000E+00  0.00000000000E+00  0.18116142981E+03  0.18116142981E+03  0.00000000000E+00 0.  1.
         21   -1    0    0  501  502  0.00000000000E+00 -0.00000000000E+00 -0.10865495180E+03  0.10865495180E+03  0.00000000000E+00 0. -1.
         23    2    1    2    0    0  0.37517298069E+02 -0.16178024990E+02  0.37093171012E+02  0.10691760144E+03  0.91576165099E+02 0.  0.
         24    2    1    2    0    0  0.42048005447E+02  0.11065501214E+02 -0.58803227967E+01  0.93110477565E+02  0.82124921656E+02 0.  0.
        -11    1    4    4    0    0 -0.21422245450E+02  0.19410473318E+02 -0.18214843079E+01  0.28965442852E+02  0.00000000000E+00 0.  1.
         12    1    4    4    0    0  0.63470250897E+02 -0.83449721036E+01 -0.40588384887E+01  0.64145034712E+02  0.00000000000E+00 0. -1.
        -13    1    3    3    0    0  0.65650318953E+02 -0.18824776658E+02  0.38909436062E+02  0.78602040746E+02  0.00000000000E+00 0.  1.
         13    1    3    3    0    0 -0.28133020884E+02  0.26467516680E+01 -0.18162650502E+01  0.28315560690E+02  0.00000000000E+00 0. -1.
         -2    1    1    2    0  502 -0.79565303516E+02  0.51125237760E+01  0.41293629791E+02  0.89788302603E+02  0.00000000000E+00 0.  1.
<scales pt_clust_5="13000.00000" pt_clust_6="13000.00000" pt_clust_7="13000.00000" pt_clust_8="13000.00000" pt_clust_9="79.72943"></scales>
<clustering>
<clus scale="   79.729">  2  9  1 -1</clus>
<clus scale="   82.125">  5  6 -1 -1</clus>
<clus scale="   83.448">  2  5  1 -1</clus>
<clus scale="   91.576">  7  8 -1 -1</clus>
<clus scale="   79.729">  2  5  1 -1</clus>
</clustering>
</event>
<event>
 9    2  0.4883225E-005  0.1827456E+03  0.7546771E-02  0.1201414E+00
          2   -1    0    0  502    0 -0.00000000000E+00  0.00000000000E+00  0.12403630966E+04  0.12403630966E+04  0.00000000000E+00 0. -1.
         21   -1    0    0  501  502  0.00000000000E+00 -0.00000000000E+00 -0.42915466435E+02  0.42915466435E+02  0.00000000000E+00 0. -1.
         24    2    1    2    0    0  0.26476650536E+01  0.13323348784E+02  0.24462466603E+03  0.25777328072E+03  0.80133109707E+02 0.  0.
         23    2    1    2    0    0  0.14737608771E+03 -0.64854632637E+02  0.28400934274E+03  0.33813765159E+03  0.88033687041E+02 0.  0.
        -13    1    3    3    0    0  0.16024682868E+02 -0.26187295674E+02  0.16552874035E+03  0.16835180069E+03  0.00000000000E+00 0.  1.
         14    1    3    3    0    0 -0.13377017815E+02  0.39510644458E+02  0.79095925684E+02  0.89421480031E+02  0.00000000000E+00 0. -1.
        -13    1    4    4    0    0  0.25562174621E+02  0.80845234965E+01  0.83808280095E+01  0.28089545558E+02  0.00000000000E+00 0.  1.
         13    1    4    4    0    0  0.12181391309E+03 -0.72939156134E+02  0.27562851474E+03  0.31004810603E+03  0.00000000000E+00 0. -1.
          1    1    1    2  501    0 -0.15002375276E+03  0.51531283853E+02  0.66881362140E+03  0.68736763073E+03  0.00000000000E+00 0. -1.
<scales pt_clust_5="13000.00000" pt_clust_6="13000.00000" pt_clust_7="13000.00000" pt_clust_8="13000.00000" pt_clust_9="160.14387"></scales>
<clustering>
<clus scale="   80.133">  5  6 -1 -1</clus>
<clus scale="   81.276">  1  5  2 -1</clus>
<clus scale="   88.034">  7  8 -1 -1</clus>
<clus scale="  160.144">  2  9  1 -1</clus>
<clus scale="  160.144">  2  5  1 -1</clus>
</clustering>
</event>
<event>
 9    2  0.4883225E-005  0.1384581E+03  0.7546771E-02  0.1216744E+00
         -1   -1    0    0    0  501 -0.00000000000E+00  0.00000000000E+00  0.19904301689E+03  0.19904301689E+03  0.00000000000E+00 0.  1.
         21   -1    0    0  501  502  0.00000000000E+00 -0.00000000000E+00 -0.11320406229E+03  0.11320406229E+03  0.00000000000E+00 0. -1.
         23    2    1    2    0    0  0.10523980118E+03 -0.32745833515E+02  0.60179761434E+02  0.15177183699E+03  0.85237206977E+02 0.  0.
         24    2    1    2    0    0 -0.85573399319E+02  0.47535344223E+02  0.20334202225E+02  0.13529881437E+03  0.91158509035E+02 0.  0.
        -11    1    4    4    0    0 -0.73579267298E+02  0.52946944909E+02  0.49513192496E+02  0.10329009528E+03  0.00000000000E+00 0.  1.
         12    1    4    4    0    0 -0.11994132021E+02 -0.54116006864E+01 -0.29178990271E+02  0.32008719096E+02  0.00000000000E+00 0. -1.
        -13    1    3    3    0    0  0.39349412323E+02  0.28906475672E+02  0.25664044599E+02  0.55159802131E+02  0.00000000000E+00 0.  1.
         13    1    3    3    0    0  0.65890388853E+02 -0.61652309186E+02  0.34515716835E+02  0.96612034861E+02  0.00000000000E+00 0. -1.
         -2    1    1    2    0  502 -0.19666401858E+02 -0.14789510708E+02  0.53249909344E+01  0.25176427814E+02  0.00000000000E+00 0.  1.
<scales pt_clust_5="13000.00000" pt_clust_6="13000.00000" pt_clust_7="13000.00000" pt_clust_8="13000.00000" pt_clust_9="24.60685"></scales>
<clustering>
<clus scale="   24.607">  2  9  1 -1</clus>
<clus scale="   85.237">  7  8 -1 -1</clus>
<clus scale="   91.159">  5  6 -1 -1</clus>
<clus scale="  134.633">  1  7  2 -1</clus>
<clus scale="   24.607">  2  5  1 -1</clus>
</clustering>
</event>
<event>
 9    2  0.4883225E-005  0.9693814E+02  0.7546771E-02  0.1293588E+00
          2   -1    0    0  502    0 -0.00000000000E+00  0.00000000000E+00  0.91522528008E+03  0.91522528008E+03  0.00000000000E+00 0. -1.
         21   -1    0    0  501  502  0.00000000000E+00 -0.00000000000E+00 -0.53816327710E+02  0.53816327710E+02  0.00000000000E+00 0. -1.
         24    2    1    2    0    0 -0.27885274245E+02  0.47452426504E+02  0.66645641506E+03  0.67316061461E+03  0.77147511874E+02 0.  0.
         23    2    1    2    0    0 -0.25286824481E+02  0.10615118076E+02  0.19584785601E+03  0.21714146427E+03  0.89676800674E+02 0.  0.
        -13    1    3    3    0    0  0.56225779141E+01  0.21825541227E+02  0.45531357354E+02  0.50804253117E+02  0.00000000000E+00 0.  1.
         14    1    3    3    0    0 -0.33507852159E+02  0.25626885277E+02  0.62092505770E+03  0.62235636149E+03  0.00000000000E+00 0. -1.
        -13    1    4    4    0    0  0.30763699447E+02  0.12984793299E+02  0.10676960173E+03  0.11186937881E+03  0.00000000000E+00 0.  1.
         13    1    4    4    0    0 -0.56050523928E+02 -0.23696752229E+01  0.89078254278E+02  0.10527208547E+03  0.00000000000E+00 0. -1.
          1    1    1    2  501    0  0.53172098727E+02 -0.58067544581E+02 -0.89531870008E+00  0.78739528905E+02  0.00000000000E+00 0. -1.
<scales pt_clust_5="13000.00000" pt_clust_6="13000.00000" pt_clust_7="13000.00000" pt_clust_8="13000.00000" pt_clust_9="78.73444"></scales>
<clustering>
<clus scale="   77.148">  5  6 -1 -1</clus>
<clus scale="   78.734">  2  9  1 -1</clus>
<clus scale="   85.480">  1  5  2 -1</clus>
<clus scale="   89.677">  7  8 -1 -1</clus>
<clus scale="   78.734">  2  5  1 -1</clus>
</clustering>
</event>
<event>
 9    2  0.4883225E-005  0.9200990E+02  0.7546771E-02  0.1305025E+00
          2   -1    0    0  502    0 -0.00000000000E+00  0.00000000000E+00  0.20692432592E+03  0.20692432592E+03  0.00000000000E+00 0. -1.
         21   -1    0    0  501  502  0.00000000000E+00 -0.00000000000E+00 -0.69284717837E+02  0.69284717837E+02  0.00000000000E+00 0.  1.
         24    2    1    2    0    0  0.28654903568E+01 -0.90352826431E+01  0.12651239862E+03  0.15030646588E+03  0.80602725223E+02 0.  0.
         23    2    1    2    0    0  0.16847391941E+02  0.13948948259E+01  0.29585387565E+02  0.97836983402E+02  0.91711503188E+02 0.  0.
        -13    1    3    3    0    0 -0.24543204976E+02 -0.21776223155E+02  0.11213338682E+03  0.11683522262E+03  0.00000000000E+00 0.  1.
         14    1    3    3    0    0  0.27408695333E+02  0.12740940512E+02  0.14379011802E+02  0.33471243260E+02  0.00000000000E+00 0. -1.
        -11    1    4    4    0    0  0.73882329231E+01 -0.26333003330E+02 -0.24245995364E+02  0.36549710550E+02  0.00000000000E+00 0.  1.
         11    1    4    4    0    0  0.94591590177E+01  0.27727898156E+02  0.53831382930E+02  0.61287272852E+02  0.00000000000E+00 0. -1.
          1    1    1    2  501    0 -0.19712882298E+02  0.76403878173E+01 -0.18458178101E+02  0.28065594476E+02  0.00000000000E+00 0. -1.
<scales pt_clust_5="13000.00000" pt_clust_6="13000.00000" pt_clust_7="13000.00000" pt_clust_8="13000.00000" pt_clust_9="21.14174"></scales>
<clustering>
<clus scale="   21.142">  2  9  1 -1</clus>
<clus scale="   80.603">  5  6 -1 -1</clus>
<clus scale="   80.942">  1  5  2 -1</clus>
<clus scale="   91.712">  7  8 -1 -1</clus>
<clus scale="   21.142">  2  5  1 -1</clus>
</clustering>
</event>
<event>
 9    2  0.4883225E-005  0.9994757E+02  0.7546771E-02  0.1285624E+00
         21   -1    0    0  501  502  0.00000000000E+00  0.00000000000E+00  0.16633892545E+03  0.16633892545E+03  0.00000000000E+00 0. -1.
          2   -1    0    0  502    0 -0.00000000000E+00 -0.00000000000E+00 -0.68656850126E+03  0.68656850126E+03  0.00000000000E+00 0. -1.
         24    2    1    2    0    0  0.39848216784E+02  0.12230098847E+02 -0.61522595388E+03  0.62178975455E+03  0.79887851636E+02 0.  0.
         23    2    1    2    0    0 -0.58559468690E+02  0.48140057097E+01 -0.23157864827E+02  0.11028291903E+03  0.90408238017E+02 0.  0.
        -13    1    3    3    0    0 -0.38845048745E+01 -0.21529335951E+02 -0.60765514258E+02  0.64583662080E+02  0.00000000000E+00 0.  1.
         14    1    3    3    0    0  0.43732721659E+02  0.33759434798E+02 -0.55446043962E+03  0.55720609247E+03  0.00000000000E+00 0. -1.
        -13    1    4    4    0    0 -0.36435928183E+02 -0.23760766201E+02 -0.49250323540E+02  0.65709552135E+02  0.00000000000E+00 0. -1.
         13    1    4    4    0    0 -0.22123540507E+02  0.28574771910E+02  0.26092458713E+02  0.44573366891E+02  0.00000000000E+00 0.  1.
          1    1    1    2  501    0  0.18711251906E+02 -0.17044104557E+02  0.11815424290E+03  0.12083475313E+03  0.00000000000E+00 0. -1.
<scales pt_clust_5="13000.00000" pt_clust_6="13000.00000" pt_clust_7="13000.00000" pt_clust_8="13000.00000" pt_clust_9="25.31032"></scales>
<clustering>
<clus scale="   25.310">  1  9  2 -1</clus>
<clus scale="   79.888">  5  6 -1 -1</clus>
<clus scale="   90.408">  7  8 -1 -1</clus>
<clus scale="   90.542">  2  5  1 -1</clus>
<clus scale="   25.310">  1  5  2 -1</clus>
</clustering>
</event>
<event>
 9    2  0.4883225E-005  0.4575266E+03  0.7546771E-02  0.1066093E+00
          2   -1    0    0  502    0 -0.00000000000E+00  0.00000000000E+00  0.21006454449E+03  0.21006454449E+03  0.00000000000E+00 0. -1.
         21   -1    0    0  501  502  0.00000000000E+00 -0.00000000000E+00 -0.15813877107E+04  0.15813877107E+04  0.00000000000E+00 0. -1.
         24    2    1    2    0    0  0.40462359526E+02 -0.10979072168E+03 -0.11235687880E+03  0.18128321421E+03  0.80921755028E+02 0.  0.
         23    2    1    2    0    0 -0.17252722923E+03 -0.38612893885E+03 -0.85057056254E+03  0.95429976468E+03  0.91414204379E+02 0.  0.
        -11    1    3    3    0    0  0.22131183597E+01 -0.20998392475E+02 -0.74535117078E+02  0.77468148663E+02  0.00000000000E+00 0.  1.
         12    1    3    3    0    0  0.38249241167E+02 -0.88792329207E+02 -0.37821761720E+02  0.10381506555E+03  0.00000000000E+00 0. -1.
        -11    1    4    4    0    0 -0.13025136491E+03 -0.21775385065E+03 -0.42957503588E+03  0.49891569326E+03  0.00000000000E+00 0. -1.
         11    1    4    4    0    0 -0.42275864321E+02 -0.16837508821E+03 -0.42099552666E+03  0.45538407141E+03  0.00000000000E+00 0.  1.
          1    1    1    2  501    0  0.13206486971E+03  0.49591966054E+03 -0.40839572492E+03  0.65586927634E+03  0.00000000000E+00 0. -1.
<scales pt_clust_5="13000.00000" pt_clust_6="13000.00000" pt_clust_7="13000.00000" pt_clust_8="13000.00000" pt_clust_9="448.30148"></scales>
<clustering>
<clus scale="   80.922">  5  6 -1 -1</clus>
<clus scale="   91.414">  7  8 -1 -1</clus>
<clus scale="  142.266">  1  5  2 -1</clus>
<clus scale="  448.301">  2  9  1 -1</clus>
<clus scale="  448.301">  2  5  1 -1</clus>
</clustering>
</event>
<event>
 9    2  0.4883225E-005  0.1828377E+03  0.7546771E-02  0.1165643E+00
         21   -1    0    0  501  502  0.00000000000E+00  0.00000000000E+00  0.81925526934E+02  0.81925526934E+02  0.00000000000E+00 0. -1.
          2   -1    0    0  502    0 -0.00000000000E+00 -0.00000000000E+00 -0.92960609663E+03  0.92960609663E+03  0.00000000000E+00 0. -1.
         24    2    1    2    0    0 -0.42154172152E+02  0.14271440686E+03 -0.46235985314E+03  0.49203748911E+03  0.78612217469E+02 0.  0.
         23    2    1    2    0    0  0.12530458759E+03 -0.15310629389E+03 -0.37872690325E+03  0.43543783620E+03  0.83840712348E+02 0.  0.
        -11    1    3    3    0    0 -0.13543434600E+02  0.13096183057E+03 -0.41574400943E+03  0.43609346139E+03  0.00000000000E+00 0.  1.
         12    1    3    3    0    0 -0.28610737552E+02  0.11752576288E+02 -0.46615843709E+02  0.55944027719E+02  0.00000000000E+00 0. -1.
        -13    1    4    4    0    0  0.21814498770E+02 -0.43955499576E+00 -0.11898432365E+02  0.24852329024E+02  0.00000000000E+00 0.  1.
         13    1    4    4    0    0  0.10349008882E+03 -0.15266673889E+03 -0.36682847089E+03  0.41058550717E+03  0.00000000000E+00 0. -1.
          1    1    1    2  501    0 -0.83150415434E+02  0.10391887029E+02 -0.65938133023E+01  0.84056298258E+02  0.00000000000E+00 0. -1.
<scales pt_clust_5="13000.00000" pt_clust_6="13000.00000" pt_clust_7="13000.00000" pt_clust_8="13000.00000" pt_clust_9="83.79727"></scales>
<clustering>
<clus scale="   78.612">  5  6 -1 -1</clus>
<clus scale="   83.797">  1  9  2 -1</clus>
<clus scale="   83.841">  7  8 -1 -1</clus>
<clus scale="  180.500">  2  5  1 -1</clus>
<clus scale="   83.797">  1  5  2 -1</clus>
</clustering>
</event>
<event>
 9    2  0.4883225E-005  0.1724812E+03  0.7546771E-02  0.1176844E+00
          2   -1    0    0  502    0 -0.00000000000E+00  0.00000000000E+00  0.49947835334E+03  0.49947835334E+03  0.00000000000E+00 0. -1.
         21   -1    0    0  501  502  0.00000000000E+00 -0.00000000000E+00 -0.67859262806E+02  0.67859262806E+02  0.00000000000E+00 0.  1.
         24    2    1    2    0    0  0.14581362743E+03 -0.44857374060E+02  0.26443090559E+03  0.31549328354E+03  0.79614761061E+02 0.  0.
         23    2    1    2    0    0 -0.13546971589E+03  0.24213735746E+02  0.14568753353E+03  0.22029382833E+03  0.91466739595E+02 0.  0.
        -13    1    3    3    0    0  0.41597466079E+02  0.18396442330E+02  0.42328283470E+02  0.62132615075E+02  0.00000000000E+00 0.  1.
         14    1    3    3    0    0  0.10421616135E+03 -0.63253816390E+02  0.22210262212E+03  0.25336066847E+03  0.00000000000E+00 0. -1.
        -13    1    4    4    0    0 -0.10003892703E+03  0.23052557043E+02  0.42364092185E+02  0.11105819922E+03  0.00000000000E+00 0.  1.
         13    1    4    4    0    0 -0.35430788859E+02  0.11611787028E+01  0.10332344135E+03  0.10923562911E+03  0.00000000000E+00 0. -1.
          1    1    1    2  501    0 -0.10343911537E+02  0.20643638315E+02  0.21500651410E+02  0.31550504272E+02  0.00000000000E+00 0. -1.
<scales pt_clust_5="13000.00000" pt_clust_6="13000.00000" pt_clust_7="13000.00000" pt_clust_8="13000.00000" pt_clust_9="23.09018"></scales>
<clustering>
<clus scale="   23.090">  2  9  1 -1</clus>
<clus scale="   79.615">  5  6 -1 -1</clus>
<clus scale="   91.467">  7  8 -1 -1</clus>
<clus scale="  166.500">  1  5  2 -1</clus>
<clus scale="   23.090">  2  5  1 -1</clus>
</clustering>
</event>
<event>
 9    2  0.4883225E-005  0.1804720E+03  0.7546771E-02  0.1185189E+00
         21   -1    0    0  501  502  0.00000000000E+00  0.00000000000E+00  0.23698814734E+03  0.23698814734E+03  0.00000000000E+00 0.  1.
          2   -1    0    0  502    0 -0.00000000000E+00 -0.00000000000E+00 -0.43818687923E+03  0.43818687923E+03  0.00000000000E+00 0. -1.
         23    2    1    2    0    0 -0.78554871572E+02  0.18422542448E+02  0.12031488616E+03  0.17030121276E+03  0.89535318834E+02 0.  0.
         24    2    1    2    0    0 -0.18207829071E+01 -0.16631431437E+03 -0.58832734611E+02  0.19289069157E+03  0.77985651371E+02 0.  0.
        -11    1    4    4    0    0  0.31227612336E+02 -0.37865400302E+02 -0.35851989622E+01  0.49211847799E+02  0.00000000000E+00 0.  1.
         12    1    4    4    0    0 -0.33048395243E+02 -0.12844891407E+03 -0.55247535649E+02  0.14367884377E+03  0.00000000000E+00 0. -1.
        -11    1    3    3    0    0 -0.22474090796E+02  0.13386406488E+02  0.10998758628E+03  0.11305551633E+03  0.00000000000E+00 0.  1.
         11    1    3    3    0    0 -0.56080780776E+02  0.50361359602E+01  0.10327299881E+02  0.57245696438E+02  0.00000000000E+00 0. -1.
          1    1    1    2  501    0  0.80375654479E+02  0.14789177192E+03 -0.26268088344E+03  0.31198312223E+03  0.00000000000E+00 0. -1.
<scales pt_clust_5="13000.00000" pt_clust_6="13000.00000" pt_clust_7="13000.00000" pt_clust_8="13000.00000" pt_clust_9="162.75256"></scales>
<clustering>
<clus scale="   77.986">  5  6 -1 -1</clus>
<clus scale="   89.535">  7  8 -1 -1</clus>
<clus scale="  120.527">  2  7  1 -1</clus>
<clus scale="  162.753">  1  9  2 -1</clus>
<clus scale="  162.753">  1  5  2 -1</clus>
</clustering>
</event>
<event>
 9    2  0.4883225E-005  0.1171139E+03  0.7546771E-02  0.1255668E+00
          2   -1    0    0  502    0 -0.00000000000E+00  0.00000000000E+00  0.11966638737E+04  0.11966638737E+04  0.00000000000E+00 0. -1.
         21   -1    0    0  501  502  0.00000000000E+00 -0.00000000000E+00 -0.43124587656E+02  0.43124587656E+02  0.00000000000E+00 0.  1.
         24    2    1    2    0    0 -0.40106338077E+02  0.45487036146E+02  0.18790030465E+03  0.21303951810E+03  0.80010767857E+02 0.  0.
         23    2    1    2    0    0  0.16508450260E+02  0.69253930264E+02  0.95873575763E+02  0.14913045524E+03  0.89328127500E+02 0.  0.
        -13    1    3    3    0    0  0.11185433669E+02  0.27373128888E+02  0.13109905859E+03  0.13439257894E+03  0.00000000000E+00 0.  1.
         14    1    3    3    0    0 -0.51291771746E+02  0.18113907258E+02  0.56801246064E+02  0.78646939161E+02  0.00000000000E+00 0. -1.
        -13    1    4    4    0    0  0.32632575017E+02 -0.90739405442E+01  0.23041105307E+02  0.40964788331E+02  0.00000000000E+00 0. -1.
         13    1    4    4    0    0 -0.16124124757E+02  0.78327870808E+02  0.72832470456E+02  0.10816566691E+03  0.00000000000E+00 0.  1.
          1    1    1    2  501    0  0.23597887817E+02 -0.11474096641E+03  0.86976540567E+03  0.87761848806E+03  0.00000000000E+00 0. -1.
<scales pt_clust_5="13000.00000" pt_clust_6="13000.00000" pt_clust_7="13000.00000" pt_clust_8="13000.00000" pt_clust_9="75.73749"></scales>
<clustering>
<clus scale="   80.011">  5  6 -1 -1</clus>
<clus scale="   89.328">  7  8 -1 -1</clus>
<clus scale="  100.396">  1  5  2 -1</clus>
<clus scale="   75.737">  2  9  1 -1</clus>
<clus scale="   75.737">  2  5  1 -1</clus>
</clustering>
</event>
<event>
 9    2  0.4883225E-005  0.9523007E+02  0.7546771E-02  0.1290683E+00
         -3   -1    0    0    0  501 -0.00000000000E+00  0.00000000000E+00  0.59979273984E+03  0.59979273984E+03  0.00000000000E+00 0.  1.
         21   -1    0    0  501  502  0.00000000000E+00 -0.00000000000E+00 -0.10578369452E+03  0.10578369452E+03  0.00000000000E+00 0. -1.
         24    2    1    2    0    0  0.22583467894E+02  0.21456810635E+02  0.54865466002E+03  0.55692940435E+03  0.90432393124E+02 0.  0.
         23    2    1    2    0    0  0.14087974229E+01  0.12898343944E+01 -0.67785556195E+02  0.11307039838E+03  0.90478643769E+02 0.  0.
        -11    1    3    3    0    0 -0.10140944072E+02  0.50727643505E+02  0.29259530561E+03  0.29713321159E+03  0.00000000000E+00 0.  1.
         12    1    3    3    0    0  0.32724411965E+02 -0.29270832869E+02  0.25605935441E+03  0.25979619277E+03  0.00000000000E+00 0. -1.
        -13    1    4    4    0    0  0.19384821161E+02  0.10868872061E+02  0.15652031718E+02  0.27182526892E+02  0.00000000000E+00 0.  1.
         13    1    4    4    0    0 -0.17976023738E+02 -0.95790376670E+01 -0.83437587913E+02  0.85887871488E+02  0.00000000000E+00 0. -1.
         -4    1    1    2    0  502 -0.23992265317E+02 -0.22746645030E+02  0.13139941502E+02  0.35576631626E+02  0.00000000000E+00 0.  1.
<scales pt_clust_5="13000.00000" pt_clust_6="13000.00000" pt_clust_7="13000.00000" pt_clust_8="13000.00000" pt_clust_9="33.06114"></scales>
<clustering>
<clus scale="   33.061">  2  9  1 -1</clus>
<clus scale="   90.432">  5  6 -1 -1</clus>
<clus scale="   90.479">  7  8 -1 -1</clus>
<clus scale="   95.186">  1  5  2 -1</clus>
<clus scale="   33.061">  2  5  1 -1</clus>
</clustering>
</event>
<event>
 9    2  0.4883225E-005  0.1252064E+03  0.7546771E-02  0.1237921E+00
          2   -1    0    0  502    0 -0.00000000000E+00  0.00000000000E+00  0.11553158847E+03  0.11553158847E+03  0.00000000000E+00 0. -1.
         21   -1    0    0  501  502  0.00000000000E+00 -0.00000000000E+00 -0.16297366040E+03  0.16297366040E+03  0.00000000000E+00 0.  1.
         23    2    1    2    0    0  0.41972238088E+02  0.76015949153E+02 -0.23223160318E+02  0.12925278217E+03  0.92880962677E+02 0.  0.
         24    2    1    2    0    0 -0.15301685182E+02 -0.81840727955E+02 -0.31474262079E+02  0.12100558102E+03  0.81973624676E+02 0.  0.
        -13    1    4    4    0    0  0.29034432880E+02 -0.59620728549E+02 -0.25525273452E+02  0.71057505939E+02  0.00000000000E+00 0.  1.
         14    1    4    4    0    0 -0.44336118062E+02 -0.22219999405E+02 -0.59489886277E+01  0.49948075079E+02  0.00000000000E+00 0. -1.
        -11    1    3    3    0    0  0.44389448406E+02  0.45639102359E+02 -0.55790648936E+02  0.84651918481E+02  0.00000000000E+00 0.  1.
         11    1    3    3    0    0 -0.24172103175E+01  0.30376846794E+02  0.32567488618E+02  0.44600863688E+02  0.00000000000E+00 0. -1.
          1    1    1    2  501    0 -0.26670552906E+02  0.58247788020E+01  0.72553504689E+01  0.28246885684E+02  0.00000000000E+00 0. -1.
<scales pt_clust_5="13000.00000" pt_clust_6="13000.00000" pt_clust_7="13000.00000" pt_clust_8="13000.00000" pt_clust_9="27.29922"></scales>
<clustering>
<clus scale="   27.299">  2  9  1 -1</clus>
<clus scale="   81.974">  5  6 -1 -1</clus>
<clus scale="   92.881">  7  8 -1 -1</clus>
<clus scale="  117.343">  2  5  1 -1</clus>
<clus scale="   27.299">  2  5  1 -1</clus>
</clustering>
</event>
<event>
 9    2  0.4883225E-005  0.1185280E+03  0.7546771E-02  0.1263803E+00
          2   -1    0    0  502    0 -0.00000000000E+00  0.00000000000E+00  0.28680340159E+03  0.28680340159E+03  0.00000000000E+00 0. -1.
         21   -1    0    0  501  502  0.00000000000E+00 -0.00000000000E+00 -0.20743231070E+03  0.20743231070E+03  0.00000000000E+00 0. -1.
         24    2    1    2    0    0  0.31376053996E+01 -0.12955948199E+02  0.22727334372E+03  0.24182889977E+03  0.81549634217E+02 0.  0.
         23    2    1    2    0    0  0.47467553690E+02  0.89992309280E+01 -0.40562439932E+02  0.13367024203E+03  0.11784849282E+03 0.  0.
        -13    1    3    3    0    0 -0.11801016399E+02  0.31088565570E+02  0.12722154910E+03  0.13149557199E+03  0.00000000000E+00 0.  1.
         14    1    3    3    0    0  0.14938621799E+02 -0.44044513769E+02  0.10005179461E+03  0.11033332778E+03  0.00000000000E+00 0. -1.
        -11    1    4    4    0    0 -0.14126836017E+02 -0.22844114043E+02  0.26123390312E+02  0.37468020547E+02  0.00000000000E+00 0.  1.
         11    1    4    4    0    0  0.61594389707E+02  0.31843344971E+02 -0.66685830245E+02  0.96202221480E+02  0.00000000000E+00 0. -1.
          1    1    1    2  501    0 -0.50605159089E+02  0.39567172706E+01 -0.10733981290E+03  0.11873657049E+03  0.00000000000E+00 0. -1.
<scales pt_clust_5="13000.00000" pt_clust_6="13000.00000" pt_clust_7="13000.00000" pt_clust_8="13000.00000" pt_clust_9="50.75961"></scales>
<clustering>
<clus scale="   50.760">  2  9  1 -1</clus>
<clus scale="   81.550">  5  6 -1 -1</clus>
<clus scale="   82.529">  1  5  2 -1</clus>
<clus scale="  117.848">  7  8 -1 -1</clus>
<clus scale="   50.760">  2  5  1 -1</clus>
</clustering>
</event>
<event>
 9    2  0.4883225E-005  0.9698214E+02  0.7546771E-02  0.1292227E+00
         21   -1    0    0  501  502  0.00000000000E+00  0.00000000000E+00  0.10801967945E+03  0.10801967945E+03  0.00000000000E+00 0. -1.
          2   -1    0    0  502    0 -0.00000000000E+00 -0.00000000000E+00 -0.61251623812E+03  0.61251623812E+03  0.00000000000E+00 0. -1.
         24    2    1    2    0    0  0.26981831186E+02  0.17182549201E+02 -0.54783023944E+03  0.55489364966E+03  0.82254069647E+02 0.  0.
         23    2    1    2    0    0 -0.15806144996E+02  0.93721989298E+01 -0.19933128811E+02  0.96124357959E+02  0.92221961790E+02 0.  0.
        -13    1    3    3    0    0 -0.76410326872E+01 -0.26158059967E+02 -0.10021037063E+03  0.10384964066E+03  0.00000000000E+00 0.  1.
         14    1    3    3    0    0  0.34622863873E+02  0.43340609168E+02 -0.44761986881E+03  0.45104400900E+03  0.00000000000E+00 0. -1.
        -11    1    4    4    0    0 -0.28185072317E+02  0.46112509520E+02 -0.39465153857E+01  0.54187976705E+02  0.00000000000E+00 0.  1.
         11    1    4    4    0    0  0.12378927321E+02 -0.36740310590E+02 -0.15986613425E+02  0.41936381254E+02  0.00000000000E+00 0. -1.
          1    1    1    2  501    0 -0.11175686189E+02 -0.26554748131E+02  0.63266809585E+02  0.69517909960E+02  0.00000000000E+00 0. -1.
<scales pt_clust_5="13000.00000" pt_clust_6="13000.00000" pt_clust_7="13000.00000" pt_clust_8="13000.00000" pt_clust_9="28.81060"></scales>
<clustering>
<clus scale="   28.811">  1  9  2 -1</clus>
<clus scale="   82.254">  5  6 -1 -1</clus>
<clus scale="   87.558">  2  5  1 -1</clus>
<clus scale="   92.222">  7  8 -1 -1</clus>
<clus scale="   28.811">  1  5  2 -1</clus>
</clustering>
</event>
<event>
 9    2  0.4883225E-005  0.1139606E+03  0.7546771E-02  0.1256917E+00
          2   -1    0    0  502    0 -0.00000000000E+00  0.00000000000E+00  0.43706616713E+03  0.43706616713E+03  0.00000000000E+00 0. -1.
         21   -1    0    0  501  502  0.00000000000E+00 -0.00000000000E+00 -0.44907796303E+02  0.44907796303E+02  0.00000000000E+00 0.  1.
         24    2    1    2    0    0 -0.69515047132E+02 -0.24672871177E+02  0.30900873015E+03  0.32814849940E+03  0.82182419045E+02 0.  0.
         23    2    1    2    0    0  0.47477065626E+02  0.13816652424E+02  0.72504313513E+02  0.12705135144E+03  0.91870554479E+02 0.  0.
        -11    1    3    3    0    0 -0.11489333581E+02  0.28460187252E+02  0.67567426591E+02  0.74211482809E+02  0.00000000000E+00 0.  1.
         12    1    3    3    0    0 -0.58025713551E+02 -0.53133058429E+02  0.24144130356E+03  0.25393701659E+03  0.00000000000E+00 0. -1.
        -11    1    4    4    0    0  0.35263811285E+02  0.45586882395E+02  0.13910838624E+02  0.59289220471E+02  0.00000000000E+00 0.  1.
         11    1    4    4    0    0  0.12213254341E+02 -0.31770229971E+02  0.58593474888E+02  0.67762130970E+02  0.00000000000E+00 0. -1.
          1    1    1    2  501    0  0.22037981506E+02  0.10856218753E+02  0.10645327160E+02  0.26774112587E+02  0.00000000000E+00 0. -1.
<scales pt_clust_5="13000.00000" pt_clust_6="13000.00000" pt_clust_7="13000.00000" pt_clust_8="13000.00000" pt_clust_9="24.56685"></scales>
<clustering>
<clus scale="   24.567">  2  9  1 -1</clus>
<clus scale="   82.182">  5  6 -1 -1</clus>
<clus scale="   91.871">  7  8 -1 -1</clus>
<clus scale="  106.305">  1  5  2 -1</clus>
<clus scale="   24.567">  2  5  1 -1</clus>
</clustering>
</event>
<event>
 9    2  0.4883225E-005  0.1264850E+03  0.7546771E-02  0.1240108E+00
          2   -1    0    0  502    0 -0.00000000000E+00  0.00000000000E+00  0.15141422433E+04  0.15141422433E+04  0.00000000000E+00 0. -1.
         21   -1    0    0  501  502  0.00000000000E+00 -0.00000000000E+00 -0.14646966462E+02  0.14646966462E+02  0.00000000000E+00 0. -1.
         24    2    1    2    0    0 -0.51298863072E+02  0.52143400751E+02  0.45624001220E+03  0.46660361427E+03  0.64911297356E+02 0.  0.
         23    2    1    2    0    0  0.48454929491E+02 -0.10124393765E+03  0.65372465692E+03  0.66956230908E+03  0.91430539615E+02 0.  0.
        -13    1    3    3    0    0 -0.43750171387E+02 -0.12851164642E+01  0.21298230205E+03  0.21743318516E+03  0.00000000000E+00 0.  1.
         14    1    3    3    0    0 -0.75486916856E+01  0.53428517216E+02  0.24325771015E+03  0.24917042911E+03  0.00000000000E+00 0. -1.
        -13    1    4    4    0    0  0.26289905255E+02  0.12170968451E+02  0.14701928634E+03  0.14984646191E+03  0.00000000000E+00 0.  1.
         13    1    4    4    0    0  0.22165024235E+02 -0.11341490610E+03  0.50670537058E+03  0.51971584717E+03  0.00000000000E+00 0. -1.
          1    1    1    2  501    0  0.28439335815E+01  0.49100536897E+02  0.38953060776E+03  0.39262328645E+03  0.00000000000E+00 0. -1.
<scales pt_clust_5="13000.00000" pt_clust_6="13000.00000" pt_clust_7="13000.00000" pt_clust_8="13000.00000" pt_clust_9="49.18285"></scales>
<clustering>
<clus scale="   49.183">  2  9  1 -1</clus>
<clus scale="   64.911">  5  6 -1 -1</clus>
<clus scale="   91.431">  7  8 -1 -1</clus>
<clus scale="  108.869">  1  5  2 -1</clus>
<clus scale="   49.183">  2  5  1 -1</clus>
</clustering>
</event>
<event>
 9    2  0.4883225E-005  0.2123152E+03  0.7546771E-02  0.1139746E+00
         21   -1    0    0  501  502  0.00000000000E+00  0.00000000000E+00  0.86726584305E+02  0.86726584305E+02  0.00000000000E+00 0. -1.
          2   -1    0    0  502    0 -0.00000000000E+00 -0.00000000000E+00 -0.34387718436E+03  0.34387718436E+03  0.00000000000E+00 0. -1.
         24    2    1    2    0    0  0.27215014902E+02 -0.51429250980E+02 -0.72491894156E+02  0.12161377042E+03  0.78416895790E+02 0.  0.
         23    2    1    2    0    0  0.15621212132E+02 -0.69288303006E+02 -0.51651614760E+02  0.12433205371E+03  0.88009539651E+02 0.  0.
        -13    1    3    3    0    0  0.53393895260E+02 -0.20689062704E+02 -0.43256164571E+02  0.71763787107E+02  0.00000000000E+00 0.  1.
         14    1    3    3    0    0 -0.26178880358E+02 -0.30740188277E+02 -0.29235729586E+02  0.49849983315E+02  0.00000000000E+00 0. -1.
        -11    1    4    4    0    0  0.11575845858E+02  0.19770455744E+02 -0.17638287908E+02  0.28913324403E+02  0.00000000000E+00 0.  1.
         11    1    4    4    0    0  0.40453662743E+01 -0.89058758750E+02 -0.34013326852E+02  0.95418729304E+02  0.00000000000E+00 0. -1.
          1    1    1    2  501    0 -0.42836227034E+02  0.12071755399E+03 -0.13300709114E+03  0.18465794453E+03  0.00000000000E+00 0. -1.
<scales pt_clust_5="13000.00000" pt_clust_6="13000.00000" pt_clust_7="13000.00000" pt_clust_8="13000.00000" pt_clust_9="128.09249"></scales>
<clustering>
<clus scale="   78.417">  5  6 -1 -1</clus>
<clus scale="   88.010">  7  8 -1 -1</clus>
<clus scale="   92.128">  5  7 -1 -1</clus>
<clus scale="  128.092">  1  9  2 -1</clus>
<clus scale="  128.092">  1  5  2 -1</clus>
</clustering>
</event>
<event>
 9    2  0.4883225E-005  0.1542955E+03  0.7546771E-02  0.1225089E+00
         21   -1    0    0  501  502  0.00000000000E+00  0.00000000000E+00  0.30489984010E+03  0.30489984010E+03  0.00000000000E+00 0. -1.
          4   -1    0    0  502    0 -0.00000000000E+00 -0.00000000000E+00 -0.12018505475E+03  0.12018505475E+03  0.00000000000E+00 0. -1.
         24    2    1    2    0    0  0.11449502359E+02 -0.74082100898E+01 -0.97044509113E+01  0.82245878338E+02  0.80524750575E+02 0.  0.
         23    2    1    2    0    0  0.42549183124E+02 -0.11403206019E+03  0.10276093523E+03  0.18139292201E+03  0.86774642671E+02 0.  0.
        -13    1    3    3    0    0  0.30581238516E+02  0.25199411138E+02 -0.18028577164E+02  0.43534492824E+02  0.00000000000E+00 0.  1.
         14    1    3    3    0    0 -0.19131736158E+02 -0.32607621228E+02  0.83241262527E+01  0.38711385514E+02  0.00000000000E+00 0. -1.
        -13    1    4    4    0    0  0.66908506041E+02 -0.63344145922E+02  0.52951919031E+02  0.10626916172E+03  0.00000000000E+00 0.  1.
         13    1    4    4    0    0 -0.24359322916E+02 -0.50687914268E+02  0.49809016202E+02  0.75123760295E+02  0.00000000000E+00 0. -1.
          3    1    1    2  501    0 -0.53998685483E+02  0.12144027028E+03  0.91658301027E+02  0.16144609449E+03  0.00000000000E+00 0. -1.
<scales pt_clust_5="13000.00000" pt_clust_6="13000.00000" pt_clust_7="13000.00000" pt_clust_8="13000.00000" pt_clust_9="127.58240"></scales>
<clustering>
<clus scale="   80.525">  5  6 -1 -1</clus>
<clus scale="   81.671">  2  5  1 -1</clus>
<clus scale="   86.775">  7  8 -1 -1</clus>
<clus scale="  127.582">  1  9  2 -1</clus>
<clus scale="  127.582">  1  5  2 -1</clus>
</clustering>
</event>
<event>
 9    2  0.4883225E-005  0.1515407E+03  0.7546771E-02  0.1199800E+00
          2   -1    0    0  502    0 -0.00000000000E+00  0.00000000000E+00  0.11453087476E+04  0.11453087476E+04  0.00000000000E+00 0. -1.
         21   -1    0    0  501  502  0.00000000000E+00 -0.00000000000E+00 -0.38562918965E+02  0.38562918965E+02  0.00000000000E+00 0. -1.
         23    2    1    2    0    0  0.47108794026E+02 -0.90975296869E+02  0.39103449561E+03  0.41346810255E+03  0.86903118194E+02 0.  0.
         24    2    1    2    0    0  0.10662262342E+02  0.16925016028E+03  0.48928197274E+03  0.52395944379E+03  0.79858307611E+02 0.  0.
        -13    1    4    4    0    0  0.29442488570E+02  0.93447954735E+02  0.35838933380E+03  0.37154043516E+03  0.00000000000E+00 0.  1.
         14    1    4    4    0    0 -0.18780226228E+02  0.75802205549E+02  0.13089263894E+03  0.15241900863E+03  0.00000000000E+00 0. -1.
        -13    1    3    3    0    0  0.16057194399E+02 -0.26822551787E+02  0.23559081443E+02  0.39144770976E+02  0.00000000000E+00 0.  1.
         13    1    3    3    0    0  0.31051599627E+02 -0.64152745082E+02  0.36747541417E+03  0.37432333157E+03  0.00000000000E+00 0. -1.
          1    1    1    2  501    0 -0.57771056368E+02 -0.78274863415E+02  0.22642936030E+03  0.24644412025E+03  0.00000000000E+00 0. -1.
<scales pt_clust_5="13000.00000" pt_clust_6="13000.00000" pt_clust_7="13000.00000" pt_clust_8="13000.00000" pt_clust_9="97.28540"></scales>
<clustering>
<clus scale="   79.858">  5  6 -1 -1</clus>
<clus scale="   86.903">  7  8 -1 -1</clus>
<clus scale="   97.285">  2  9  1 -1</clus>
<clus scale="  147.614">  2  5  1 -1</clus>
<clus scale="   97.285">  2  5  1 -1</clus>
</clustering>
</event>
<event>
 9    2  0.4883225E-005  0.1325733E+03  0.7546771E-02  0.1224443E+00
          2   -1    0    0  502    0 -0.00000000000E+00  0.00000000000E+00  0.13414679562E+04  0.13414679562E+04  0.00000000000E+00 0. -1.
         21   -1    0    0  501  502  0.00000000000E+00 -0.00000000000E+00 -0.46633222675E+02  0.46633222675E+02  0.00000000000E+00 0. -1.
         24    2    1    2    0    0 -0.70786517784E+02 -0.71300239282E+02  0.10763539544E+04  0.10846269207E+04  0.88222824145E+02 0.  0.
         23    2    1    2    0    0  0.49534754139E+02  0.64720780664E+02  0.24195433264E+03  0.27113334826E+03  0.91262928594E+02 0.  0.
        -11    1    3    3    0    0 -0.29922742705E+02  0.30413714249E+01  0.95806491649E+02  0.10041665357E+03  0.00000000000E+00 0.  1.
         12    1    3    3    0    0 -0.40863775079E+02 -0.74341610707E+02  0.98054746279E+03  0.98421026716E+03  0.00000000000E+00 0. -1.
        -13    1    4    4    0    0 -0.18163797274E+02  0.47426571200E+02  0.12460643438E+03  0.13455841362E+03  0.00000000000E+00 0. -1.
         13    1    4    4    0    0  0.67698551414E+02  0.17294209464E+02  0.11734789826E+03  0.13657493463E+03  0.00000000000E+00 0.  1.
          1    1    1    2  501    0  0.21251763645E+02  0.65794586188E+01 -0.23473553579E+02  0.32340909872E+02  0.00000000000E+00 0. -1.
<scales pt_clust_5="13000.00000" pt_clust_6="13000.00000" pt_clust_7="13000.00000" pt_clust_8="13000.00000" pt_clust_9="22.24695"></scales>
<clustering>
<clus scale="   22.247">  2  9  1 -1</clus>
<clus scale="   88.223">  5  6 -1 -1</clus>
<clus scale="   91.263">  7  8 -1 -1</clus>
<clus scale="  130.499">  1  5  2 -1</clus>
<clus scale="   22.247">  2  5  1 -1</clus>
</clustering>
</event>
<event>
 9    2  0.4958934E-005  0.1060331E+03  0.7546771E-02  0.1278865E+00
         -1   -1    0    0    0  501 -0.00000000000E+00  0.00000000000E+00  0.66492587995E+02  0.66492587995E+02  0.00000000000E+00 0.  1.
         21   -1    0    0  501  502  0.00000000000E+00 -0.00000000000E+00 -0.36485409472E+03  0.36485409472E+03  0.00000000000E+00 0. -1.
         23    2    1    2    0    0  0.60801883320E+01 -0.23202057561E+02 -0.45244444626E+00  0.10591244946E+03  0.10315976968E+03 0.  0.
         24    2    1    2    0    0  0.20881432043E+02  0.31053661572E+02 -0.27375039299E+03  0.28839077283E+03  0.82641370300E+02 0.  0.
        -13    1    4    4    0    0 -0.33499860929E+01 -0.24102322418E+02 -0.38471240251E+02  0.45521211311E+02  0.00000000000E+00 0.  1.
         14    1    4    4    0    0  0.24231418136E+02  0.55155983989E+02 -0.23527915274E+03  0.24286956151E+03  0.00000000000E+00 0. -1.
        -11    1    3    3    0    0 -0.15430235659E+01 -0.62753683465E+02 -0.12215980594E+02  0.63950261079E+02  0.00000000000E+00 0.  1.
         11    1    3    3    0    0  0.76232118978E+01  0.39551625904E+02  0.11763536148E+02  0.41962188384E+02  0.00000000000E+00 0. -1.
         -2    1    1    2    0  502 -0.26961620375E+02 -0.78516040105E+01 -0.24158669283E+02  0.37043460426E+02  0.00000000000E+00 0.  1.
<scales pt_clust_5="13000.00000" pt_clust_6="13000.00000" pt_clust_7="13000.00000" pt_clust_8="13000.00000" pt_clust_9="28.08162"></scales>
<clustering>
<clus scale="   28.082">  2  9  1 -1</clus>
<clus scale="   82.641">  5  6 -1 -1</clus>
<clus scale="   86.201">  2  5  1 -1</clus>
<clus scale="  103.160">  7  8 -1 -1</clus>
<clus scale="   28.082">  2  5  1 -1</clus>
</clustering>
</event>
<event>
 9    2  0.4883225E-005  0.1085632E+03  0.7546771E-02  0.1267581E+00
         21   -1    0    0  501  502  0.00000000000E+00  0.00000000000E+00  0.18206977921E+03  0.18206977921E+03  0.00000000000E+00 0. -1.
          2   -1    0    0  502    0 -0.00000000000E+00 -0.00000000000E+00 -0.14075929942E+03  0.14075929942E+03  0.00000000000E+00 0. -1.
         23    2    1    2    0    0  0.36659874662E+00  0.44229056944E+02 -0.38503265127E+02  0.10885843770E+03  0.91713216929E+02 0.  0.
         24    2    1    2    0    0  0.28186499668E+02 -0.10040786053E+03  0.71984402626E+02  0.15046760161E+03  0.81132778170E+02 0.  0.
        -11    1    4    4    0    0  0.47165645656E+02 -0.73338132428E+02  0.20977211153E+02  0.89683461050E+02  0.00000000000E+00 0.  1.
         12    1    4    4    0    0 -0.18979145988E+02 -0.27069728105E+02  0.51007191473E+02  0.60784140564E+02  0.00000000000E+00 0. -1.
        -13    1    3    3    0    0 -0.26729827079E+02  0.52281343701E+02  0.28268281303E+01  0.58786167694E+02  0.00000000000E+00 0.  1.
         13    1    3    3    0    0  0.27096425826E+02 -0.80522867567E+01 -0.41330093258E+02  0.50072270003E+02  0.00000000000E+00 0. -1.
          1    1    1    2  501    0 -0.28553098415E+02  0.56178803589E+02  0.78293422866E+01  0.63503039316E+02  0.00000000000E+00 0. -1.
<scales pt_clust_5="13000.00000" pt_clust_6="13000.00000" pt_clust_7="13000.00000" pt_clust_8="13000.00000" pt_clust_9="63.01858"></scales>
<clustering>
<clus scale="   63.019">  1  9  2 -1</clus>
<clus scale="   81.133">  5  6 -1 -1</clus>
<clus scale="   91.713">  7  8 -1 -1</clus>
<clus scale="   99.786">  1  5  2 -1</clus>
<clus scale="   63.019">  1  5  2 -1</clus>
</clustering>
</event>
<event>
 9    2  0.4883225E-005  0.1196810E+03  0.7546771E-02  0.1246799E+00
         21   -1    0    0  501  502  0.00000000000E+00  0.00000000000E+00  0.61209654841E+02  0.61209654841E+02  0.00000000000E+00 0.  1.
          2   -1    0    0  502    0 -0.00000000000E+00 -0.00000000000E+00 -0.48514632621E+03  0.48514632621E+03  0.00000000000E+00 0. -1.
         24    2    1    2    0    0 -0.83346828388E+02 -0.16003046946E+02 -0.35145039631E+03  0.37019329003E+03  0.79516662398E+02 0.  0.
         23    2    1    2    0    0  0.56081326174E+02 -0.16559329636E+02 -0.20444983965E+02  0.10899117952E+03  0.89675823386E+02 0.  0.
        -13    1    3    3    0    0 -0.33676161453E+01 -0.27117796771E+02 -0.39980958081E+02  0.48427190186E+02  0.00000000000E+00 0.  1.
         14    1    3    3    0    0 -0.79979212243E+02  0.11114749826E+02 -0.31146943823E+03  0.32176609984E+03  0.00000000000E+00 0. -1.
        -11    1    4    4    0    0 -0.14279299267E+02 -0.31827596236E+02 -0.95995337925E+01  0.36180731319E+02  0.00000000000E+00 0. -1.
         11    1    4    4    0    0  0.70360625442E+02  0.15268266599E+02 -0.10845450173E+02  0.72810448199E+02  0.00000000000E+00 0.  1.
          1    1    1    2  501    0  0.27265502214E+02  0.32562376582E+02 -0.52041291094E+02  0.67171511509E+02  0.00000000000E+00 0. -1.
<scales pt_clust_5="13000.00000" pt_clust_6="13000.00000" pt_clust_7="13000.00000" pt_clust_8="13000.00000" pt_clust_9="42.47018"></scales>
<clustering>
<clus scale="   42.470">  1  9  2 -1</clus>
<clus scale="   79.517">  5  6 -1 -1</clus>
<clus scale="   89.676">  7  8 -1 -1</clus>
<clus scale="  112.271">  2  5  1 -1</clus>
<clus scale="   42.470">  1  5  2 -1</clus>
</clustering>
</event>
<event>
 9    2  0.4883225E-005  0.1513210E+03  0.7546771E-02  0.1200916E+00
          2   -1    0    0  502    0 -0.00000000000E+00  0.00000000000E+00  0.36562521065E+03  0.36562521065E+03  0.00000000000E+00 0. -1.
         21   -1    0    0  501  502  0.00000000000E+00 -0.00000000000E+00 -0.10279848471E+03  0.10279848471E+03  0.00000000000E+00 0. -1.
         24    2    1    2    0    0  0.35149178856E+02 -0.14120874622E+03  0.20956492061E+03  0.26755243948E+03  0.80569703609E+02 0.  0.
         23    2    1    2    0    0  0.24350049007E+01  0.80686959512E+02  0.30422840174E+02  0.12605764841E+03  0.91916629795E+02 0.  0.
        -13    1    3    3    0    0  0.23236136163E+02  0.67704468283E+00  0.38618196391E+02  0.45074843381E+02  0.00000000000E+00 0.  1.
         14    1    3    3    0    0  0.11913042693E+02 -0.14188579090E+03  0.17094672421E+03  0.22247759610E+03  0.00000000000E+00 0. -1.
        -13    1    4    4    0    0  0.47159349351E+02  0.43537994509E+02  0.15280912912E+02  0.65977780324E+02  0.00000000000E+00 0. -1.
         13    1    4    4    0    0 -0.44724344451E+02  0.37148965004E+02  0.15141927262E+02  0.60079868081E+02  0.00000000000E+00 0.  1.
          1    1    1    2  501    0 -0.37584183757E+02  0.60521786704E+02  0.22838965160E+02  0.74813607480E+02  0.00000000000E+00 0. -1.
<scales pt_clust_5="13000.00000" pt_clust_6="13000.00000" pt_clust_7="13000.00000" pt_clust_8="13000.00000" pt_clust_9="71.24225"></scales>
<clustering>
<clus scale="   71.242">  2  9  1 -1</clus>
<clus scale="   80.570">  5  6 -1 -1</clus>
<clus scale="   91.917">  7  8 -1 -1</clus>
<clus scale="  144.710">  1  5  2 -1</clus>
<clus scale="   71.242">  2  5  1 -1</clus>
</clustering>
</event>
<event>
 9    2  0.4883225E-005  0.9522835E+02  0.7546771E-02  0.1293607E+00
         21   -1    0    0  501  502  0.00000000000E+00  0.00000000000E+00  0.45467379939E+02  0.45467379939E+02  0.00000000000E+00 0.  1.
          2   -1    0    0  502    0 -0.00000000000E+00 -0.00000000000E+00 -0.55127736318E+03  0.55127736318E+03  0.00000000000E+00 0. -1.
         24    2    1    2    0    0  0.29741805771E+02 -0.11097677842E+02 -0.46541381057E+03  0.47420528385E+03  0.85163975388E+02 0.  0.
         23    2    1    2    0    0 -0.16726748597E+02 -0.81046434887E+01 -0.33948148353E+02  0.98462543443E+02  0.90536878232E+02 0.  0.
        -11    1    3    3    0    0 -0.14085100056E+02  0.26253996563E+02 -0.10216937355E+03  0.10642482450E+03  0.00000000000E+00 0.  1.
         12    1    3    3    0    0  0.43826905827E+02 -0.37351674405E+02 -0.36324443702E+03  0.36778045935E+03  0.00000000000E+00 0. -1.
        -11    1    4    4    0    0 -0.44920264970E+02  0.14017429367E+02 -0.40435971843E+02  0.62043423100E+02  0.00000000000E+00 0. -1.
         11    1    4    4    0    0  0.28193516373E+02 -0.22122072856E+02  0.64878234902E+01  0.36419120343E+02  0.00000000000E+00 0.  1.
          1    1    1    2  501    0 -0.13015057174E+02  0.19202321331E+02 -0.64480243170E+01  0.24076915819E+02  0.00000000000E+00 0. -1.
<scales pt_clust_5="13000.00000" pt_clust_6="13000.00000" pt_clust_7="13000.00000" pt_clust_8="13000.00000" pt_clust_9="23.19743"></scales>
<clustering>
<clus scale="   23.197">  1  9  2 -1</clus>
<clus scale="   85.164">  5  6 -1 -1</clus>
<clus scale="   90.136">  2  5  1 -1</clus>
<clus scale="   90.537">  7  8 -1 -1</clus>
<clus scale="   23.197">  1  5  2 -1</clus>
</clustering>
</event>
<event>
 9    2  0.4883225E-005  0.1048934E+03  0.7546771E-02  0.1274786E+00
         21   -1    0    0  501  502  0.00000000000E+00  0.00000000000E+00  0.11728374344E+03  0.11728374344E+03  0.00000000000E+00 0. -1.
          2   -1    0    0  502    0 -0.00000000000E+00 -0.00000000000E+00 -0.20214319931E+03  0.20214319931E+03  0.00000000000E+00 0. -1.
         23    2    1    2    0    0  0.80617529901E+01 -0.32949186702E+02 -0.78230633238E+02  0.12487321081E+03  0.91228537399E+02 0.  0.
         24    2    1    2    0    0 -0.39428910431E+02  0.91176581150E+02 -0.58312245354E+01  0.12841021985E+03  0.81162635821E+02 0.  0.
        -11    1    4    4    0    0 -0.52526068100E+02  0.36788305507E+02 -0.25640203941E+02  0.69063646806E+02  0.00000000000E+00 0.  1.
         12    1    4    4    0    0  0.13097157669E+02  0.54388275643E+02  0.19808979406E+02  0.59346573039E+02  0.00000000000E+00 0. -1.
        -11    1    3    3    0    0 -0.40440584836E+02 -0.10378288910E+02 -0.21742247040E+02  0.47073082424E+02  0.00000000000E+00 0. -1.
         11    1    3    3    0    0  0.48502337826E+02 -0.22570897792E+02 -0.56488386198E+02  0.77800128387E+02  0.00000000000E+00 0.  1.
          1    1    1    2  501    0  0.31367157441E+02 -0.58227394448E+02 -0.79759810032E+00  0.66143512099E+02  0.00000000000E+00 0. -1.
<scales pt_clust_5="13000.00000" pt_clust_6="13000.00000" pt_clust_7="13000.00000" pt_clust_8="13000.00000" pt_clust_9="66.13870"></scales>
<clustering>
<clus scale="   66.139">  1  9  2 -1</clus>
<clus scale="   81.163">  5  6 -1 -1</clus>
<clus scale="   91.229">  7  8 -1 -1</clus>
<clus scale="   96.267">  1  5  2 -1</clus>
<clus scale="   66.139">  1  5  2 -1</clus>
</clustering>
</event>
<event>
 9    2  0.4883225E-005  0.1028063E+03  0.7546771E-02  0.1281831E+00
          2   -1    0    0  502    0 -0.00000000000E+00  0.00000000000E+00  0.30764811153E+02  0.30764811153E+02  0.00000000000E+00 0. -1.
         21   -1    0    0  501  502  0.00000000000E+00 -0.00000000000E+00 -0.45323674593E+03  0.45323674593E+03  0.00000000000E+00 0.  1.
         23    2    1    2    0    0  0.10453827732E+02  0.11144259614E+01 -0.94366233973E+02  0.13037759465E+03  0.89346553454E+02 0.  0.
         24    2    1    2    0    0  0.14859301771E+02  0.54807116986E+01 -0.23636088917E+03  0.25822290988E+03  0.10277044423E+03 0.  0.
        -11    1    4    4    0    0 -0.30444732315E+02  0.34414732598E+02 -0.14623013015E+03  0.15327917833E+03  0.00000000000E+00 0.  1.
         12    1    4    4    0    0  0.45304034086E+02 -0.28934020900E+02 -0.90130759021E+02  0.10494373155E+03  0.00000000000E+00 0. -1.
        -11    1    3    3    0    0  0.33986513434E+02  0.61083832597E+01 -0.16274528913E+01  0.34569409083E+02  0.00000000000E+00 0. -1.
         11    1    3    3    0    0 -0.23532685702E+02 -0.49939572983E+01 -0.92738781081E+02  0.95808185571E+02  0.00000000000E+00 0.  1.
          1    1    1    2  501    0 -0.25313129503E+02 -0.65951376599E+01 -0.91744811629E+02  0.95401052546E+02  0.00000000000E+00 0. -1.
<scales pt_clust_5="13000.00000" pt_clust_6="13000.00000" pt_clust_7="13000.00000" pt_clust_8="13000.00000" pt_clust_9="26.15818"></scales>
<clustering>
<clus scale="   26.158">  2  9  1 -1</clus>
<clus scale="   89.347">  7  8 -1 -1</clus>
<clus scale="   89.388">  1  7  2 -1</clus>
<clus scale="  102.770">  5  6 -1 -1</clus>
<clus scale="   26.158">  2  5  1 -1</clus>
</clustering>
</event>
<event>
 9    2  0.4883225E-005  0.1250631E+03  0.7546771E-02  0.1251793E+00
          2   -1    0    0  502    0 -0.00000000000E+00  0.00000000000E+00  0.75394350525E+03  0.75394350525E+03  0.00000000000E+00 0. -1.
         21   -1    0    0  501  502  0.00000000000E+00 -0.00000000000E+00 -0.31338305591E+02  0.31338305591E+02  0.00000000000E+00 0. -1.
         24    2    1    2    0    0  0.37143182725E+02 -0.14057112268E+02  0.25479274883E+03  0.26990173313E+03  0.79689285749E+02 0.  0.
         23    2    1    2    0    0  0.61162624851E+02 -0.18970522931E+02  0.28060592514E+03  0.30136806928E+03  0.89343609400E+02 0.  0.
        -11    1    3    3    0    0 -0.55571313536E+00  0.29335695555E+02  0.59756298177E+02  0.66571067459E+02  0.00000000000E+00 0.  1.
         12    1    3    3    0    0  0.37698895860E+02 -0.43392807823E+02  0.19503645066E+03  0.20333066568E+03  0.00000000000E+00 0. -1.
        -11    1    4    4    0    0  0.21563124053E+02 -0.53241301788E+02  0.14001569470E+03  0.15134067298E+03  0.00000000000E+00 0.  1.
         11    1    4    4    0    0  0.39599500798E+02  0.34270778857E+02  0.14059023044E+03  0.15002739630E+03  0.00000000000E+00 0. -1.
          1    1    1    2  501    0 -0.98305807576E+02  0.33027635198E+02  0.18720652569E+03  0.21401200843E+03  0.00000000000E+00 0. -1.
<scales pt_clust_5="13000.00000" pt_clust_6="13000.00000" pt_clust_7="13000.00000" pt_clust_8="13000.00000" pt_clust_9="87.51279"></scales>
<clustering>
<clus scale="   79.689">  5  6 -1 -1</clus>
<clus scale="   89.037">  1  5  2 -1</clus>
<clus scale="   87.513">  2  9  1 -1</clus>
<clus scale="   89.344">  7  8 -1 -1</clus>
<clus scale="   87.513">  2  5  1 -1</clus>
</clustering>
</event>
<event>
 9    2  0.4883225E-005  0.1693431E+03  0.7546771E-02  0.1180959E+00
         -3   -1    0    0    0  501 -0.00000000000E+00  0.00000000000E+00  0.10980026466E+03  0.10980026466E+03  0.00000000000E+00 0.  1.
         21   -1    0    0  501  502  0.00000000000E+00 -0.00000000000E+00 -0.34563101955E+03  0.34563101955E+03  0.00000000000E+00 0. -1.
         23    2    1    2    0    0 -0.24911621591E+02 -0.15060280120E+03 -0.73127698135E+02  0.19544605604E+03  0.97722607249E+02 0.  0.
         24    2    1    2    0    0 -0.16453071261E+02  0.12537281952E+03 -0.98945659524E+02  0.17990654504E+03  0.81160790898E+02 0.  0.
        -11    1    4    4    0    0  0.30407614374E+02  0.72773928262E+02 -0.62243319696E+02  0.10047337206E+03  0.00000000000E+00 0.  1.
         12    1    4    4    0    0 -0.46860685635E+02  0.52598891262E+02 -0.36702339828E+02  0.79433172975E+02  0.00000000000E+00 0. -1.
        -11    1    3    3    0    0  0.18469302374E+02 -0.75472263808E+02 -0.75938048049E+02  0.10864513278E+03  0.00000000000E+00 0. -1.
         11    1    3    3    0    0 -0.43380923965E+02 -0.75130537387E+02  0.28103499146E+01  0.86800923260E+02  0.00000000000E+00 0.  1.
         -4    1    1    2    0  502  0.41364692851E+02  0.25229981672E+02 -0.63757397232E+02  0.80078683129E+02  0.00000000000E+00 0.  1.
<scales pt_clust_5="13000.00000" pt_clust_6="13000.00000" pt_clust_7="13000.00000" pt_clust_8="13000.00000" pt_clust_9="48.45193"></scales>
<clustering>
<clus scale="   48.452">  2  9  1 -1</clus>
<clus scale="   81.161">  5  6 -1 -1</clus>
<clus scale="   97.723">  7  8 -1 -1</clus>
<clus scale="  160.357">  2  5  1 -1</clus>
<clus scale="   48.452">  2  5  1 -1</clus>
</clustering>
</event>
<event>
 9    2  0.4883225E-005  0.1412430E+03  0.7546771E-02  0.1214270E+00
          2   -1    0    0  502    0 -0.00000000000E+00  0.00000000000E+00  0.71811297631E+03  0.71811297631E+03  0.00000000000E+00 0. -1.
         21   -1    0    0  501  502  0.00000000000E+00 -0.00000000000E+00 -0.10772944243E+03  0.10772944243E+03  0.00000000000E+00 0.  1.
         23    2    1    2    0    0 -0.17448990794E+02  0.12245887262E+03  0.55806158243E+03  0.57854917340E+03  0.89363155180E+02 0.  0.
         24    2    1    2    0    0  0.44936218256E+02 -0.69689844267E+02  0.11474723129E+03  0.16105500794E+03  0.76784441067E+02 0.  0.
        -13    1    4    4    0    0  0.40606519651E+02 -0.63982797950E+02  0.39480631870E+02  0.85448277716E+02  0.00000000000E+00 0.  1.
         14    1    4    4    0    0  0.43296986051E+01 -0.57070463172E+01  0.75266599418E+02  0.75606730227E+02  0.00000000000E+00 0. -1.
        -13    1    3    3    0    0  0.16202459293E+02  0.11730426484E+03  0.44338292937E+03  0.45892399402E+03  0.00000000000E+00 0.  1.
         13    1    3    3    0    0 -0.33651450087E+02  0.51546077794E+01  0.11467865306E+03  0.11962517938E+03  0.00000000000E+00 0. -1.
          1    1    1    2  501    0 -0.27487227462E+02 -0.52769028350E+02 -0.62425279828E+02  0.86238237390E+02  0.00000000000E+00 0. -1.
<scales pt_clust_5="13000.00000" pt_clust_6="13000.00000" pt_clust_7="13000.00000" pt_clust_8="13000.00000" pt_clust_9="59.49889"></scales>
<clustering>
<clus scale="   59.499">  2  9  1 -1</clus>
<clus scale="   76.784">  5  6 -1 -1</clus>
<clus scale="   89.363">  7  8 -1 -1</clus>
<clus scale="  133.640">  2  5  1 -1</clus>
<clus scale="   59.499">  2  5  1 -1</clus>
</clustering>
</event>
<event>
 9    2  0.4883225E-005  0.1196903E+03  0.7546771E-02  0.1246706E+00
         21   -1    0    0  501  502  0.00000000000E+00  0.00000000000E+00  0.46820223326E+03  0.46820223326E+03  0.00000000000E+00 0.  1.
         -3   -1    0    0    0  501 -0.00000000000E+00 -0.00000000000E+00 -0.68934611029E+02  0.68934611029E+02  0.00000000000E+00 0.  1.
         24    2    1    2    0    0 -0.48586514273E+02  0.37730692279E+02  0.85374558166E+02  0.13279980834E+03  0.81010612904E+02 0.  0.
         23    2    1    2    0    0  0.12956760818E+03  0.13917011370E+02  0.19486379570E+03  0.25138805887E+03  0.90788815254E+02 0.  0.
        -13    1    3    3    0    0 -0.43233282934E+02  0.33155539658E+02  0.79551457081E+01  0.55060792825E+02  0.00000000000E+00 0.  1.
         14    1    3    3    0    0 -0.53532313393E+01  0.45751526202E+01  0.77419412458E+02  0.77739015511E+02  0.00000000000E+00 0. -1.
        -11    1    4    4    0    0  0.48850465704E+02  0.12716491586E+02  0.12570409125E+02  0.52020114795E+02  0.00000000000E+00 0.  1.
         11    1    4    4    0    0  0.80717142473E+02  0.12005197848E+01  0.18229338658E+03  0.19936794408E+03  0.00000000000E+00 0. -1.
         -4    1    1    2    0  502 -0.80981093903E+02 -0.51647703649E+02  0.11902926836E+03  0.15294897708E+03  0.00000000000E+00 0.  1.
<scales pt_clust_5="13000.00000" pt_clust_6="13000.00000" pt_clust_7="13000.00000" pt_clust_8="13000.00000" pt_clust_9="96.04906"></scales>
<clustering>
<clus scale="   81.011">  5  6 -1 -1</clus>
<clus scale="   90.789">  7  8 -1 -1</clus>
<clus scale="   96.049">  1  9  2 -1</clus>
<clus scale="  112.454">  2  5  1 -1</clus>
<clus scale="   96.049">  1  5  2 -1</clus>
</clustering>
</event>
<event>
 9    2  0.4883225E-005  0.9599181E+02  0.7546771E-02  0.1293657E+00
         -1   -1    0    0    0  501 -0.00000000000E+00  0.00000000000E+00  0.14186093703E+03  0.14186093703E+03  0.00000000000E+00 0.  1.
         21   -1    0    0  501  502  0.00000000000E+00 -0.00000000000E+00 -0.87391975268E+02  0.87391975268E+02  0.00000000000E+00 0.  1.
         23    2    1    2    0    0  0.27653968081E+02  0.66294921903E+01  0.53730694988E+02  0.10798021353E+03  0.89241508347E+02 0.  0.
         24    2    1    2    0    0 -0.49557429063E+02  0.61607851202E+01 -0.63362621937E+01  0.94940175975E+02  0.80495930003E+02 0.  0.
        -11    1    4    4    0    0 -0.45974729514E+02 -0.10565254099E+02  0.29215515233E+02  0.55487356023E+02  0.00000000000E+00 0.  1.
         12    1    4    4    0    0 -0.35826995492E+01  0.16726039219E+02 -0.35551777427E+02  0.39452819953E+02  0.00000000000E+00 0. -1.
        -11    1    3    3    0    0  0.34161188776E+01 -0.40248997805E+02  0.28830475357E+02  0.49627089395E+02  0.00000000000E+00 0. -1.
         11    1    3    3    0    0  0.24237849203E+02  0.46878489995E+02  0.24900219631E+02  0.58353124132E+02  0.00000000000E+00 0.  1.
         -2    1    1    2    0  502  0.21903460982E+02 -0.12790277311E+02  0.70745289665E+01  0.26332522795E+02  0.00000000000E+00 0.  1.
<scales pt_clust_5="13000.00000" pt_clust_6="13000.00000" pt_clust_7="13000.00000" pt_clust_8="13000.00000" pt_clust_9="25.36441"></scales>
<clustering>
<clus scale="   25.364">  2  9  1 -1</clus>
<clus scale="   80.496">  5  6 -1 -1</clus>
<clus scale="   87.920">  2  5  1 -1</clus>
<clus scale="   89.242">  7  8 -1 -1</clus>
<clus scale="   25.364">  2  5  1 -1</clus>
</clustering>
</event>
<event>
 9    2  0.4883225E-005  0.9353836E+02  0.7546771E-02  0.1300404E+00
         21   -1    0    0  501  502  0.00000000000E+00  0.00000000000E+00  0.74333290365E+02  0.74333290365E+02  0.00000000000E+00 0. -1.
          2   -1    0    0  502    0 -0.00000000000E+00 -0.00000000000E+00 -0.24521088882E+03  0.24521088882E+03  0.00000000000E+00 0. -1.
         23    2    1    2    0    0 -0.17890095709E+02 -0.20431515084E+01 -0.16345282107E+03  0.18779604660E+03  0.90698954832E+02 0.  0.
         24    2    1    2    0    0  0.31830032403E+02  0.16666359386E+02 -0.37144883383E+02  0.95811455725E+02  0.80679453324E+02 0.  0.
        -11    1    4    4    0    0  0.81942432409E+01 -0.22881668169E+02  0.13125158173E+02  0.27622203706E+02  0.00000000000E+00 0.  1.
         12    1    4    4    0    0  0.23635789162E+02  0.39548027556E+02 -0.50270041556E+02  0.68189252019E+02  0.00000000000E+00 0. -1.
        -11    1    3    3    0    0 -0.29580544645E+02 -0.38273335386E+02 -0.57100040200E+02  0.74834961174E+02  0.00000000000E+00 0.  1.
         11    1    3    3    0    0  0.11690448936E+02  0.36230183878E+02 -0.10635278087E+03  0.11296108542E+03  0.00000000000E+00 0. -1.
          1    1    1    2  501    0 -0.13939936694E+02 -0.14623207878E+02  0.29720105998E+02  0.35936676866E+02  0.00000000000E+00 0. -1.
<scales pt_clust_5="13000.00000" pt_clust_6="13000.00000" pt_clust_7="13000.00000" pt_clust_8="13000.00000" pt_clust_9="20.20297"></scales>
<clustering>
<clus scale="   20.203">  1  9  2 -1</clus>
<clus scale="   80.679">  5  6 -1 -1</clus>
<clus scale="   83.859">  1  5  2 -1</clus>
<clus scale="   90.699">  7  8 -1 -1</clus>
<clus scale="   20.203">  1  5  2 -1</clus>
</clustering>
</event>
<event>
 9    2  0.4883225E-005  0.8850430E+02  0.7546771E-02  0.1311356E+00
         -3   -1    0    0    0  501 -0.00000000000E+00  0.00000000000E+00  0.79100402241E+02  0.79100402241E+02  0.00000000000E+00 0.  1.
         21   -1    0    0  501  502  0.00000000000E+00 -0.00000000000E+00 -0.24894179740E+03  0.24894179740E+03  0.00000000000E+00 0.  1.
         24    2    1    2    0    0  0.89780482135E+01  0.20505574347E+02  0.12319113271E+01  0.83226514432E+02  0.80150178852E+02 0.  0.
         23    2    1    2    0    0 -0.17842310500E+02  0.37947019238E+02 -0.48265556884E+02  0.10851812762E+03  0.87682927230E+02 0.  0.
        -13    1    3    3    0    0  0.38368708117E+02  0.33558259485E+02  0.25868227965E+01  0.51039261304E+02  0.00000000000E+00 0.  1.
         14    1    3    3    0    0 -0.29390659903E+02 -0.13052685138E+02 -0.13549114694E+01  0.32187253128E+02  0.00000000000E+00 0. -1.
        -13    1    4    4    0    0 -0.45682864629E+02  0.44741458252E+02 -0.17122082031E+02  0.66195829931E+02  0.00000000000E+00 0.  1.
         13    1    4    4    0    0  0.27840554128E+02 -0.67944390142E+01 -0.31143474853E+02  0.42322297688E+02  0.00000000000E+00 0. -1.
         -4    1    1    2    0  502  0.88642622867E+01 -0.58452593585E+02 -0.12280774961E+03  0.13629755759E+03  0.00000000000E+00 0.  1.
<scales pt_clust_5="13000.00000" pt_clust_6="13000.00000" pt_clust_7="13000.00000" pt_clust_8="13000.00000" pt_clust_9="59.12090"></scales>
<clustering>
<clus scale="   59.121">  2  9  1 -1</clus>
<clus scale="   80.150">  5  6 -1 -1</clus>
<clus scale="   81.048">  1  5  2 -1</clus>
<clus scale="   87.683">  7  8 -1 -1</clus>
<clus scale="   59.121">  2  5  1 -1</clus>
</clustering>
</event>
<event>
 9    2  0.4883225E-005  0.1315254E+03  0.7546771E-02  0.1250601E+00
         21   -1    0    0  501  502  0.00000000000E+00  0.00000000000E+00  0.23343848163E+03  0.23343848163E+03  0.00000000000E+00 0. -1.
         -1   -1    0    0    0  501 -0.00000000000E+00 -0.00000000000E+00 -0.13803973052E+03  0.13803973052E+03  0.00000000000E+00 0.  1.
         24    2    1    2    0    0 -0.10194175320E+02 -0.18514091106E+02  0.64070089287E+02  0.10124066264E+03  0.75485115429E+02 0.  0.
         23    2    1    2    0    0  0.36698298952E+02  0.94112732467E+02  0.96651023800E+02  0.16687104565E+03  0.91107375747E+02 0.  0.
        -11    1    3    3    0    0 -0.26708786136E+02 -0.12309221924E+02 -0.51074875143E+01  0.29848997135E+02  0.00000000000E+00 0.  1.
         12    1    3    3    0    0  0.16514610816E+02 -0.62048691818E+01  0.69177576802E+02  0.71391665509E+02  0.00000000000E+00 0. -1.
        -13    1    4    4    0    0  0.38879619811E+02  0.11493964847E+02  0.11304959520E+01  0.40558773227E+02  0.00000000000E+00 0.  1.
         13    1    4    4    0    0 -0.21813208588E+01  0.82618767620E+02  0.95520527848E+02  0.12631227242E+03  0.00000000000E+00 0. -1.
         -2    1    1    2    0  502 -0.26504123633E+02 -0.75598641361E+02 -0.65322361985E+02  0.10336650386E+03  0.00000000000E+00 0.  1.
<scales pt_clust_5="13000.00000" pt_clust_6="13000.00000" pt_clust_7="13000.00000" pt_clust_8="13000.00000" pt_clust_9="94.85987"></scales>
<clustering>
<clus scale="   75.485">  5  6 -1 -1</clus>
<clus scale="   78.388">  2  5  1 -1</clus>
<clus scale="   91.107">  7  8 -1 -1</clus>
<clus scale="   94.860">  1  9  2 -1</clus>
<clus scale="   94.860">  1  5  2 -1</clus>
</clustering>
</event>
<event>
 9    2  0.4883225E-005  0.2404478E+03  0.7546771E-02  0.1119495E+00
         21   -1    0    0  501  502  0.00000000000E+00  0.00000000000E+00  0.12380679873E+03  0.12380679873E+03  0.00000000000E+00 0.  1.
         -1   -1    0    0    0  501 -0.00000000000E+00 -0.00000000000E+00 -0.35120169639E+03  0.35120169639E+03  0.00000000000E+00 0.  1.
         24    2    1    2    0    0  0.10786033250E+03 -0.71587974080E+01 -0.22682326142E+02  0.13705939034E+03  0.81152257232E+02 0.  0.
         23    2    1    2    0    0  0.47943099604E+02 -0.65841789955E+00 -0.40713614189E+02  0.11160539199E+03  0.92191056111E+02 0.  0.
        -13    1    3    3    0    0  0.69364220136E+02 -0.36559154533E+02 -0.36785478977E+02  0.86609111985E+02  0.00000000000E+00 0.  1.
         14    1    3    3    0    0  0.38496112366E+02  0.29400357125E+02  0.14103152835E+02  0.50450278356E+02  0.00000000000E+00 0. -1.
        -13    1    4    4    0    0  0.59052826934E+02  0.18682254804E+02  0.35505270357E+01  0.62039255763E+02  0.00000000000E+00 0.  1.
         13    1    4    4    0    0 -0.11109727330E+02 -0.19340672704E+02 -0.44264141225E+02  0.49566136225E+02  0.00000000000E+00 0. -1.
         -2    1    1    2    0  502 -0.15580343211E+03  0.78172153076E+01 -0.16399895734E+03  0.22634371279E+03  0.00000000000E+00 0.  1.
<scales pt_clust_5="13000.00000" pt_clust_6="13000.00000" pt_clust_7="13000.00000" pt_clust_8="13000.00000" pt_clust_9="155.99950"></scales>
<clustering>
<clus scale="   81.152">  5  6 -1 -1</clus>
<clus scale="   92.191">  7  8 -1 -1</clus>
<clus scale="   92.472">  5  7 -1 -1</clus>
<clus scale="  155.999">  1  9  2 -1</clus>
<clus scale="  155.999">  1  5  2 -1</clus>
</clustering>
</event>
<event>
 9    2  0.4883225E-005  0.9035167E+02  0.7546771E-02  0.1313428E+00
         21   -1    0    0  501  502  0.00000000000E+00  0.00000000000E+00  0.22592949135E+02  0.22592949135E+02  0.00000000000E+00 0. -1.
          2   -1    0    0  502    0 -0.00000000000E+00 -0.00000000000E+00 -0.69390729583E+03  0.69390729583E+03  0.00000000000E+00 0. -1.
         23    2    1    2    0    0 -0.88141357663E+01  0.41964071924E+02 -0.44680991068E+03  0.45735568995E+03  0.87729462139E+02 0.  0.
         24    2    1    2    0    0 -0.41870464608E+00  0.14667909260E+02 -0.13488713024E+03  0.15273173563E+03  0.70122195405E+02 0.  0.
        -11    1    4    4    0    0  0.73168018839E+01  0.41087690116E+02 -0.99497457624E+02  0.10789568083E+03  0.00000000000E+00 0.  1.
         12    1    4    4    0    0 -0.77355065300E+01 -0.26419780856E+02 -0.35389672613E+02  0.44836054793E+02  0.00000000000E+00 0. -1.
        -13    1    3    3    0    0  0.13785979136E+02 -0.22909962070E+02 -0.85878560605E+02  0.89944687194E+02  0.00000000000E+00 0.  1.
         13    1    3    3    0    0 -0.22600114902E+02  0.64874033995E+02 -0.36093135008E+03  0.36741100276E+03  0.00000000000E+00 0. -1.
          1    1    1    2  501    0  0.92328404124E+01 -0.56631981185E+02 -0.89617305772E+02  0.10641281938E+03  0.00000000000E+00 0. -1.
<scales pt_clust_5="13000.00000" pt_clust_6="13000.00000" pt_clust_7="13000.00000" pt_clust_8="13000.00000" pt_clust_9="57.37967"></scales>
<clustering>
<clus scale="   57.380">  1  9  2 -1</clus>
<clus scale="   70.122">  5  6 -1 -1</clus>
<clus scale="   73.376">  1  5  2 -1</clus>
<clus scale="   87.729">  7  8 -1 -1</clus>
<clus scale="   57.380">  1  5  2 -1</clus>
</clustering>
</event>
<event>
 9    2  0.4883225E-005  0.1193730E+03  0.7546771E-02  0.1249414E+00
         21   -1    0    0  501  502  0.00000000000E+00  0.00000000000E+00  0.25585451789E+03  0.25585451789E+03  0.00000000000E+00 0. -1.
          2   -1    0    0  502    0 -0.00000000000E+00 -0.00000000000E+00 -0.33727244031E+03  0.33727244031E+03  0.00000000000E+00 0. -1.
         23    2    1    2    0    0 -0.73877862024E+02  0.16892786725E+02 -0.30511560233E+03  0.32832682667E+03  0.94655531215E+02 0.  0.
         24    2    1    2    0    0  0.44402470350E+02  0.98949011402E+01  0.10217194363E+03  0.13691391837E+03  0.78973581268E+02 0.  0.
        -13    1    4    4    0    0 -0.37161223570E+01 -0.26444445037E+02  0.52062507535E+02  0.58511733263E+02  0.00000000000E+00 0.  1.
         14    1    4    4    0    0  0.48118592707E+02  0.36339346177E+02  0.50109436092E+02  0.78402185111E+02  0.00000000000E+00 0. -1.
        -11    1    3    3    0    0 -0.53876365137E+02  0.54497135036E+02 -0.16595707972E+03  0.18279593201E+03  0.00000000000E+00 0.  1.
         11    1    3    3    0    0 -0.20001496887E+02 -0.37604348311E+02 -0.13915852260E+03  0.14553089467E+03  0.00000000000E+00 0. -1.
          1    1    1    2  501    0  0.29475391674E+02 -0.26787687866E+02  0.12152573628E+03  0.12788621315E+03  0.00000000000E+00 0. -1.
<scales pt_clust_5="13000.00000" pt_clust_6="13000.00000" pt_clust_7="13000.00000" pt_clust_8="13000.00000" pt_clust_9="39.82937"></scales>
<clustering>
<clus scale="   39.829">  1  9  2 -1</clus>
<clus scale="   78.974">  5  6 -1 -1</clus>
<clus scale="   94.656">  7  8 -1 -1</clus>
<clus scale="  107.364">  1  5  2 -1</clus>
<clus scale="   39.829">  1  5  2 -1</clus>
</clustering>
</event>
<event>
 9    2  0.4883225E-005  0.3287755E+03  0.7546771E-02  0.1106171E+00
          2   -1    0    0  502    0 -0.00000000000E+00  0.00000000000E+00  0.38800566655E+03  0.38800566655E+03  0.00000000000E+00 0. -1.
         21   -1    0    0  501  502  0.00000000000E+00 -0.00000000000E+00 -0.43009064869E+03  0.43009064869E+03  0.00000000000E+00 0. -1.
         24    2    1    2    0    0  0.50085030982E+02 -0.92640177517E+02 -0.33808593496E+02  0.13609687309E+03  0.79300851513E+02 0.  0.
         23    2    1    2    0    0  0.26436604892E+03 -0.46322849242E+02  0.12941951189E+03  0.31166126497E+03  0.91368046059E+02 0.  0.
        -13    1    3    3    0    0  0.16873133392E+01 -0.55078252743E+02  0.15735671894E+02  0.57306826133E+02  0.00000000000E+00 0.  1.
         14    1    3    3    0    0  0.48397717643E+02 -0.37561924774E+02 -0.49544265390E+02  0.78790046952E+02  0.00000000000E+00 0. -1.
        -13    1    4    4    0    0  0.10115704098E+03  0.26309805749E+02  0.55347765589E+02  0.11827226206E+03  0.00000000000E+00 0.  1.
         13    1    4    4    0    0  0.16320900794E+03 -0.72632654992E+02  0.74071746301E+02  0.19338900291E+03  0.00000000000E+00 0. -1.
          1    1    1    2  501    0 -0.31445107990E+03  0.13896302676E+03 -0.13769590053E+03  0.37033817719E+03  0.00000000000E+00 0. -1.
<scales pt_clust_5="13000.00000" pt_clust_6="13000.00000" pt_clust_7="13000.00000" pt_clust_8="13000.00000" pt_clust_9="315.82465"></scales>
<clustering>
<clus scale="   79.301">  5  6 -1 -1</clus>
<clus scale="   91.368">  7  8 -1 -1</clus>
<clus scale="  131.831">  1  5  2 -1</clus>
<clus scale="  315.825">  2  9  1 -1</clus>
<clus scale="  315.825">  2  5  1 -1</clus>
</clustering>
</event>
<event>
 9    2  0.4883225E-005  0.9340594E+02  0.7546771E-02  0.1299722E+00
         21   -1    0    0  501  502  0.00000000000E+00  0.00000000000E+00  0.74605498802E+02  0.74605498802E+02  0.00000000000E+00 0.  1.
          2   -1    0    0  502    0 -0.00000000000E+00 -0.00000000000E+00 -0.24476932121E+03  0.24476932121E+03  0.00000000000E+00 0. -1.
         24    2    1    2    0    0  0.13461695315E+02 -0.18333543100E+02 -0.17420275410E+03  0.19398256980E+03  0.82251454742E+02 0.  0.
         23    2    1    2    0    0 -0.29810663785E+02  0.21752397678E+01 -0.13606858837E+02  0.96413750256E+02  0.90647985569E+02 0.  0.
        -11    1    3    3    0    0  0.75191307565E+01  0.25781814415E+02 -0.20004027046E+02  0.33487316702E+02  0.00000000000E+00 0.  1.
         12    1    3    3    0    0  0.59425645588E+01 -0.44115357515E+02 -0.15419872705E+03  0.16049525310E+03  0.00000000000E+00 0. -1.
        -13    1    4    4    0    0  0.26509018551E+02 -0.10781986009E+02 -0.24419025817E+02  0.37620049292E+02  0.00000000000E+00 0. -1.
         13    1    4    4    0    0 -0.56319682336E+02  0.12957225777E+02  0.10812166980E+02  0.58793700964E+02  0.00000000000E+00 0.  1.
          1    1    1    2  501    0  0.16348968469E+02  0.16158303333E+02  0.17645790525E+02  0.28978499959E+02  0.00000000000E+00 0. -1.
<scales pt_clust_5="13000.00000" pt_clust_6="13000.00000" pt_clust_7="13000.00000" pt_clust_8="13000.00000" pt_clust_9="22.98651"></scales>
<clustering>
<clus scale="   22.987">  1  9  2 -1</clus>
<clus scale="   82.251">  5  6 -1 -1</clus>
<clus scale="   85.281">  2  5  1 -1</clus>
<clus scale="   90.648">  7  8 -1 -1</clus>
<clus scale="   22.987">  1  5  2 -1</clus>
</clustering>
</event>
<event>
 9    2  0.4883225E-005  0.1203752E+03  0.7546771E-02  0.1246498E+00
          2   -1    0    0  502    0 -0.00000000000E+00  0.00000000000E+00  0.61742743630E+03  0.61742743630E+03  0.00000000000E+00 0. -1.
         21   -1    0    0  501  502  0.00000000000E+00 -0.00000000000E+00 -0.13392850434E+03  0.13392850434E+03  0.00000000000E+00 0.  1.
         23    2    1    2    0    0 -0.79756588602E+02 -0.75280424900E+01  0.53662606632E+03  0.55042699028E+03  0.92652856040E+02 0.  0.
         24    2    1    2    0    0  0.34059787199E+02 -0.51012978253E+02 -0.72427449730E+02  0.12419726888E+03  0.80105137595E+02 0.  0.
        -11    1    4    4    0    0  0.47979903953E+02 -0.23099207877E+02 -0.76002445863E+02  0.92800950238E+02  0.00000000000E+00 0.  1.
         12    1    4    4    0    0 -0.13920116754E+02 -0.27913770377E+02  0.35749961327E+01  0.31396318645E+02  0.00000000000E+00 0. -1.
        -13    1    3    3    0    0 -0.99961541782E+02 -0.13751918411E+02  0.42474054340E+03  0.43656151262E+03  0.00000000000E+00 0. -1.
         13    1    3    3    0    0  0.20204953181E+02  0.62238759208E+01  0.11188552292E+03  0.11386547766E+03  0.00000000000E+00 0.  1.
          1    1    1    2  501    0  0.45696801402E+02  0.58541020743E+02  0.19300315378E+02  0.76731681474E+02  0.00000000000E+00 0. -1.
<scales pt_clust_5="13000.00000" pt_clust_6="13000.00000" pt_clust_7="13000.00000" pt_clust_8="13000.00000" pt_clust_9="74.26472"></scales>
<clustering>
<clus scale="   74.265">  2  9  1 -1</clus>
<clus scale="   80.105">  5  6 -1 -1</clus>
<clus scale="   92.653">  7  8 -1 -1</clus>
<clus scale="  111.007">  2  5  1 -1</clus>
<clus scale="   74.265">  2  5  1 -1</clus>
</clustering>
</event>
<event>
 9    2  0.4883225E-005  0.9724762E+02  0.7546771E-02  0.1294126E+00
         21   -1    0    0  501  502  0.00000000000E+00  0.00000000000E+00  0.16672649182E+03  0.16672649182E+03  0.00000000000E+00 0. -1.
         -1   -1    0    0    0  501 -0.00000000000E+00 -0.00000000000E+00 -0.25802806608E+03  0.25802806608E+03  0.00000000000E+00 0.  1.
         24    2    1    2    0    0  0.17033255664E+01 -0.82846775087E+01 -0.13956953866E+03  0.16158146364E+03  0.80977626977E+02 0.  0.
         23    2    1    2    0    0 -0.38438645172E+02  0.47536358889E+02 -0.70346776368E+02  0.13294393116E+03  0.94806038978E+02 0.  0.
        -11    1    3    3    0    0  0.38907636398E+02 -0.18040136267E+02 -0.76908621360E+02  0.88057860104E+02  0.00000000000E+00 0.  1.
         12    1    3    3    0    0 -0.37204310831E+02  0.97554587582E+01 -0.62660917299E+02  0.73523603535E+02  0.00000000000E+00 0. -1.
        -13    1    4    4    0    0 -0.57780099012E+02  0.24625224025E+02 -0.74284481341E+01  0.63246528298E+02  0.00000000000E+00 0. -1.
         13    1    4    4    0    0  0.19341453840E+02  0.22911134864E+02 -0.62918328233E+02  0.69697402858E+02  0.00000000000E+00 0.  1.
         -2    1    1    2    0  502  0.36735319606E+02 -0.39251681380E+02  0.11861474077E+03  0.13022916311E+03  0.00000000000E+00 0.  1.
<scales pt_clust_5="13000.00000" pt_clust_6="13000.00000" pt_clust_7="13000.00000" pt_clust_8="13000.00000" pt_clust_9="53.76038"></scales>
<clustering>
<clus scale="   53.760">  1  9  2 -1</clus>
<clus scale="   80.978">  5  6 -1 -1</clus>
<clus scale="   83.823">  2  5  1 -1</clus>
<clus scale="   94.806">  7  8 -1 -1</clus>
<clus scale="   53.760">  1  5  2 -1</clus>
</clustering>
</event>
<event>
 9    2  0.4883225E-005  0.1174969E+03  0.7546771E-02  0.1251575E+00
          4   -1    0    0  502    0 -0.00000000000E+00  0.00000000000E+00  0.15228939575E+03  0.15228939575E+03  0.00000000000E+00 0. -1.
         21   -1    0    0  501  502  0.00000000000E+00 -0.00000000000E+00 -0.14725195951E+03  0.14725195951E+03  0.00000000000E+00 0. -1.
         24    2    1    2    0    0 -0.69577392148E+02 -0.48611544067E+02  0.47020642759E+02  0.12615623408E+03  0.80624802863E+02 0.  0.
         23    2    1    2    0    0  0.55504788647E+02  0.14046717531E+02  0.95514728708E+01  0.10975660097E+03  0.93151430409E+02 0.  0.
        -11    1    3    3    0    0 -0.53135135406E+02 -0.27817994916E+02 -0.12261534723E+02  0.61217062079E+02  0.00000000000E+00 0.  1.
         12    1    3    3    0    0 -0.16442256742E+02 -0.20793549151E+02  0.59282177482E+02  0.64939172000E+02  0.00000000000E+00 0. -1.
        -11    1    4    4    0    0  0.73458039696E+02 -0.10216920684E+02  0.21616388377E+02  0.77251131452E+02  0.00000000000E+00 0.  1.
         11    1    4    4    0    0 -0.17953251049E+02  0.24263638215E+02 -0.12064915506E+02  0.32505469522E+02  0.00000000000E+00 0. -1.
          3    1    1    2  501    0  0.14072603501E+02  0.34564826536E+02 -0.51534679390E+02  0.63628520198E+02  0.00000000000E+00 0. -1.
<scales pt_clust_5="13000.00000" pt_clust_6="13000.00000" pt_clust_7="13000.00000" pt_clust_8="13000.00000" pt_clust_9="37.31977"></scales>
<clustering>
<clus scale="   37.320">  2  9  1 -1</clus>
<clus scale="   80.625">  5  6 -1 -1</clus>
<clus scale="   93.151">  7  8 -1 -1</clus>
<clus scale="  107.836">  1  5  2 -1</clus>
<clus scale="   37.320">  2  5  1 -1</clus>
</clustering>
</event>
<event>
 9    2  0.4883225E-005  0.1017372E+03  0.7546771E-02  0.1281582E+00
         21   -1    0    0  501  502  0.00000000000E+00  0.00000000000E+00  0.32868933199E+03  0.32868933199E+03  0.00000000000E+00 0. -1.
          2   -1    0    0  502    0 -0.00000000000E+00 -0.00000000000E+00 -0.13123588744E+03  0.13123588744E+03  0.00000000000E+00 0. -1.
         23    2    1    2    0    0  0.94988271762E+01 -0.27857618237E+02 -0.26207795516E+02  0.97054299309E+02  0.88692806118E+02 0.  0.
         24    2    1    2    0    0 -0.34089523722E+02  0.67012884663E+02 -0.23897655779E+02  0.11103120095E+03  0.78128146613E+02 0.  0.
        -11    1    4    4    0    0  0.16889322761E+02  0.31733033796E+02 -0.32475253773E+02  0.48444574153E+02  0.00000000000E+00 0.  1.
         12    1    4    4    0    0 -0.50978846483E+02  0.35279850867E+02  0.85775979942E+01  0.62586626792E+02  0.00000000000E+00 0. -1.
        -11    1    3    3    0    0 -0.20281871022E+02 -0.41130611838E+02  0.11425729304E+02  0.47261282382E+02  0.00000000000E+00 0.  1.
         11    1    3    3    0    0  0.29780698198E+02  0.13272993601E+02 -0.37633524819E+02  0.49793016927E+02  0.00000000000E+00 0. -1.
          1    1    1    2  501    0  0.24590696546E+02 -0.39155266426E+02  0.24755889584E+03  0.25183971917E+03  0.00000000000E+00 0. -1.
<scales pt_clust_5="13000.00000" pt_clust_6="13000.00000" pt_clust_7="13000.00000" pt_clust_8="13000.00000" pt_clust_9="46.23675"></scales>
<clustering>
<clus scale="   46.237">  1  9  2 -1</clus>
<clus scale="   78.128">  5  6 -1 -1</clus>
<clus scale="   88.693">  7  8 -1 -1</clus>
<clus scale="   92.672">  1  5  2 -1</clus>
<clus scale="   46.237">  1  5  2 -1</clus>
</clustering>
</event>
<event>
 9    2  0.4883225E-005  0.9469646E+02  0.7546771E-02  0.1296507E+00
         -3   -1    0    0    0  501 -0.00000000000E+00  0.00000000000E+00  0.19841857812E+03  0.19841857812E+03  0.00000000000E+00 0.  1.
         21   -1    0    0  501  502  0.00000000000E+00 -0.00000000000E+00 -0.71716898405E+02  0.71716898405E+02  0.00000000000E+00 0.  1.
         23    2    1    2    0    0  0.22619840598E+02  0.11152361728E+02  0.72709136137E+02  0.11921216191E+03  0.91043334233E+02 0.  0.
         24    2    1    2    0    0  0.31765660368E+01 -0.42038503238E+02  0.13685619207E+02  0.93966695292E+02  0.82856003553E+02 0.  0.
        -11    1    4    4    0    0 -0.28512407997E+02 -0.26744657598E+02 -0.21154827484E+02  0.44449531445E+02  0.00000000000E+00 0.  1.
         12    1    4    4    0    0  0.31688974034E+02 -0.15293845640E+02  0.34840446692E+02  0.49517163847E+02  0.00000000000E+00 0. -1.
        -11    1    3    3    0    0 -0.33398907411E+01 -0.36458613069E+02  0.45917758663E+02  0.58726705150E+02  0.00000000000E+00 0. -1.
         11    1    3    3    0    0  0.25959731340E+02  0.47610974797E+02  0.26791377474E+02  0.60485456759E+02  0.00000000000E+00 0.  1.
         -4    1    1    2    0  502 -0.25796406635E+02  0.30886141510E+02  0.40306924370E+02  0.56956619324E+02  0.00000000000E+00 0.  1.
<scales pt_clust_5="13000.00000" pt_clust_6="13000.00000" pt_clust_7="13000.00000" pt_clust_8="13000.00000" pt_clust_9="40.24189"></scales>
<clustering>
<clus scale="   40.242">  2  9  1 -1</clus>
<clus scale="   82.856">  5  6 -1 -1</clus>
<clus scale="   86.854">  2  5  1 -1</clus>
<clus scale="   91.043">  7  8 -1 -1</clus>
<clus scale="   40.242">  2  5  1 -1</clus>
</clustering>
</event>
<event>
 9    2  0.4883225E-005  0.1043372E+03  0.7546771E-02  0.1277038E+00
          4   -1    0    0  502    0 -0.00000000000E+00  0.00000000000E+00  0.59835899861E+03  0.59835899861E+03  0.00000000000E+00 0. -1.
         21   -1    0    0  501  502  0.00000000000E+00 -0.00000000000E+00 -0.68810722460E+02  0.68810722460E+02  0.00000000000E+00 0. -1.
         24    2    1    2    0    0 -0.51133150707E+02 -0.41927164099E+01  0.28868334249E+03  0.30419318739E+03  0.81013857163E+02 0.  0.
         23    2    1    2    0    0  0.35385985995E+02 -0.41963921777E+02  0.28019456681E+03  0.30032488974E+03  0.93128434926E+02 0.  0.
        -13    1    3    3    0    0 -0.34995108307E+02  0.37349396929E+02  0.14597909155E+03  0.15469172643E+03  0.00000000000E+00 0.  1.
         14    1    3    3    0    0 -0.16138042400E+02 -0.41542113339E+02  0.14270425093E+03  0.14950146095E+03  0.00000000000E+00 0. -1.
        -13    1    4    4    0    0  0.26005718772E+02  0.26868284225E+02  0.77338462549E+02  0.85903666368E+02  0.00000000000E+00 0.  1.
         13    1    4    4    0    0  0.93802672237E+01 -0.68832206003E+02  0.20285610426E+03  0.21442122337E+03  0.00000000000E+00 0. -1.
          3    1    1    2  501    0  0.15747164711E+02  0.46156638187E+02 -0.39329633146E+02  0.62651643942E+02  0.00000000000E+00 0. -1.
<scales pt_clust_5="13000.00000" pt_clust_6="13000.00000" pt_clust_7="13000.00000" pt_clust_8="13000.00000" pt_clust_9="48.76893"></scales>
<clustering>
<clus scale="   48.769">  2  9  1 -1</clus>
<clus scale="   81.014">  5  6 -1 -1</clus>
<clus scale="   93.128">  7  8 -1 -1</clus>
<clus scale="   93.684">  1  5  2 -1</clus>
<clus scale="   48.769">  2  5  1 -1</clus>
</clustering>
</event>
<event>
 9    2  0.4883225E-005  0.1803623E+03  0.7546771E-02  0.1192266E+00
          2   -1    0    0  502    0 -0.00000000000E+00  0.00000000000E+00  0.38113576839E+03  0.38113576839E+03  0.00000000000E+00 0. -1.
         21   -1    0    0  501  502  0.00000000000E+00 -0.00000000000E+00 -0.18203435597E+03  0.18203435597E+03  0.00000000000E+00 0. -1.
         23    2    1    2    0    0  0.65340465684E+01  0.49717165643E+02  0.72875671947E+02  0.12636521703E+03  0.90237543131E+02 0.  0.
         24    2    1    2    0    0  0.14730495067E+03  0.12650152458E+02  0.19453863229E+03  0.25729788622E+03  0.80611090743E+02 0.  0.
        -11    1    4    4    0    0  0.11207076945E+02  0.16838925998E+02  0.47792446529E+00  0.20233052519E+02  0.00000000000E+00 0.  1.
         12    1    4    4    0    0  0.13609787372E+03 -0.41887735407E+01  0.19406070783E+03  0.23706483370E+03  0.00000000000E+00 0. -1.
        -13    1    3    3    0    0  0.22769887045E+02  0.22010316331E+01  0.72634003182E+02  0.76151235804E+02  0.00000000000E+00 0.  1.
         13    1    3    3    0    0 -0.16235840476E+02  0.47516134009E+02  0.24166876484E+00  0.50213981230E+02  0.00000000000E+00 0. -1.
          1    1    1    2  501    0 -0.15383899723E+03 -0.62367318100E+02 -0.68312891819E+02  0.17950702110E+03  0.00000000000E+00 0. -1.
<scales pt_clust_5="13000.00000" pt_clust_6="13000.00000" pt_clust_7="13000.00000" pt_clust_8="13000.00000" pt_clust_9="161.34565"></scales>
<clustering>
<clus scale="   80.611">  5  6 -1 -1</clus>
<clus scale="   90.238">  7  8 -1 -1</clus>
<clus scale="  103.234">  1  7  2 -1</clus>
<clus scale="  161.346">  2  9  1 -1</clus>
<clus scale="  161.346">  2  5  1 -1</clus>
</clustering>
</event>
<event>
 9    2  0.4883225E-005  0.2499271E+03  0.7546771E-02  0.1114160E+00
          2   -1    0    0  502    0 -0.00000000000E+00  0.00000000000E+00  0.80047989866E+03  0.80047989866E+03  0.00000000000E+00 0. -1.
         21   -1    0    0  501  502  0.00000000000E+00 -0.00000000000E+00 -0.15354679626E+03  0.15354679626E+03  0.00000000000E+00 0. -1.
         24    2    1    2    0    0 -0.21986006373E+03 -0.42346585026E+02  0.52471417921E+03  0.57634228005E+03  0.81937616644E+02 0.  0.
         23    2    1    2    0    0  0.24858251695E+03  0.91091254154E+02  0.50135852814E+02  0.28604931722E+03  0.96019392976E+02 0.  0.
        -13    1    3    3    0    0 -0.61690000183E+02 -0.11615476849E+02  0.70508487182E+02  0.94403507295E+02  0.00000000000E+00 0.  1.
         14    1    3    3    0    0 -0.15817006354E+03 -0.30731108177E+02  0.45420569203E+03  0.48193877275E+03  0.00000000000E+00 0. -1.
        -13    1    4    4    0    0  0.30205253025E+02 -0.17093204099E+02  0.21107156253E+02  0.40620770324E+02  0.00000000000E+00 0.  1.
         13    1    4    4    0    0  0.21837726392E+03  0.10818445825E+03  0.29028696561E+02  0.24542854689E+03  0.00000000000E+00 0. -1.
          1    1    1    2  501    0 -0.28722453221E+02 -0.48744669129E+02  0.72083070377E+02  0.91635097656E+02  0.00000000000E+00 0. -1.
<scales pt_clust_5="13000.00000" pt_clust_6="13000.00000" pt_clust_7="13000.00000" pt_clust_8="13000.00000" pt_clust_9="56.57760"></scales>
<clustering>
<clus scale="   56.578">  2  9  1 -1</clus>
<clus scale="   81.938">  5  6 -1 -1</clus>
<clus scale="   96.019">  7  8 -1 -1</clus>
<clus scale="  244.862">  1  5  2 -1</clus>
<clus scale="   56.578">  2  5  1 -1</clus>
</clustering>
</event>
<event>
 9    2  0.4883225E-005  0.1152153E+03  0.7546771E-02  0.1255850E+00
          2   -1    0    0  502    0 -0.00000000000E+00  0.00000000000E+00  0.91908014595E+02  0.91908014595E+02  0.00000000000E+00 0. -1.
         21   -1    0    0  501  502  0.00000000000E+00 -0.00000000000E+00 -0.32993097727E+03  0.32993097727E+03  0.00000000000E+00 0.  1.
         23    2    1    2    0    0 -0.67704226355E+02 -0.19217257451E+02 -0.17952567664E+01  0.11637575333E+03  0.92665677393E+02 0.  0.
         24    2    1    2    0    0  0.70273638783E+02 -0.52928493422E+02 -0.12110672284E+03  0.16957927336E+03  0.79689910976E+02 0.  0.
        -11    1    4    4    0    0  0.68615207639E+02 -0.70474293768E+02 -0.11402219940E+03  0.15058464317E+03  0.00000000000E+00 0.  1.
         12    1    4    4    0    0  0.16584311439E+01  0.17545800347E+02 -0.70845234379E+01  0.18994630189E+02  0.00000000000E+00 0. -1.
        -11    1    3    3    0    0 -0.38228378803E+02  0.35993025640E+02  0.77195062600E+01  0.53070685105E+02  0.00000000000E+00 0.  1.
         11    1    3    3    0    0 -0.29475847551E+02 -0.55210283091E+02 -0.95147630264E+01  0.63305068228E+02  0.00000000000E+00 0. -1.
          1    1    1    2  501    0 -0.25694124280E+01  0.72145750872E+02 -0.11512098307E+03  0.13588396518E+03  0.00000000000E+00 0. -1.
<scales pt_clust_5="13000.00000" pt_clust_6="13000.00000" pt_clust_7="13000.00000" pt_clust_8="13000.00000" pt_clust_9="72.19149"></scales>
<clustering>
<clus scale="   72.191">  2  9  1 -1</clus>
<clus scale="   79.690">  5  6 -1 -1</clus>
<clus scale="   92.666">  7  8 -1 -1</clus>
<clus scale="  105.062">  2  5  1 -1</clus>
<clus scale="   72.191">  2  5  1 -1</clus>
</clustering>
</event>
<event>
 9    2  0.4883225E-005  0.1209172E+03  0.7546771E-02  0.1244319E+00
         21   -1    0    0  501  502  0.00000000000E+00  0.00000000000E+00  0.95151510838E+02  0.95151510838E+02  0.00000000000E+00 0. -1.
          2   -1    0    0  502    0 -0.00000000000E+00 -0.00000000000E+00 -0.56045092566E+03  0.56045092566E+03  0.00000000000E+00 0. -1.
         24    2    1    2    0    0  0.87523642115E+02 -0.11795455542E+02 -0.39050082398E+03  0.40865868067E+03  0.81923763673E+02 0.  0.
         23    2    1    2    0    0 -0.88493177376E+01  0.76539975847E+02  0.24498806939E+01  0.11908121800E+03  0.90761535016E+02 0.  0.
        -13    1    3    3    0    0 -0.92740320732E+01 -0.19126138694E+02 -0.10426598422E+03  0.10641058367E+03  0.00000000000E+00 0.  1.
         14    1    3    3    0    0  0.96797674189E+02  0.73306831516E+01 -0.28623483976E+03  0.30224809700E+03  0.00000000000E+00 0. -1.
        -11    1    4    4    0    0 -0.13704501243E+02 -0.18960076869E+02  0.16813390983E+01  0.23454738762E+02  0.00000000000E+00 0.  1.
         11    1    4    4    0    0  0.48551835058E+01  0.95500052717E+02  0.76854159562E+00  0.95626479241E+02  0.00000000000E+00 0. -1.
          1    1    1    2  501    0 -0.78674324378E+02 -0.64744520305E+02 -0.77248471538E+02  0.12786253783E+03  0.00000000000E+00 0. -1.
<scales pt_clust_5="13000.00000" pt_clust_6="13000.00000" pt_clust_7="13000.00000" pt_clust_8="13000.00000" pt_clust_9="101.88966"></scales>
<clustering>
<clus scale="   81.924">  5  6 -1 -1</clus>
<clus scale="   90.762">  7  8 -1 -1</clus>
<clus scale="  101.890">  1  9  2 -1</clus>
<clus scale="  114.433">  2  5  1 -1</clus>
<clus scale="  101.890">  1  5  2 -1</clus>
</clustering>
</event>
<event>
 9    2  0.5935880E-005  0.1674600E+03  0.7546771E-02  0.1182046E+00
         -1   -1    0    0    0  501 -0.00000000000E+00  0.00000000000E+00  0.35235117841E+03  0.35235117841E+03  0.00000000000E+00 0.  1.
         21   -1    0    0  501  502  0.00000000000E+00 -0.00000000000E+00 -0.25805966018E+03  0.25805966018E+03  0.00000000000E+00 0.  1.
         23    2    1    2    0    0 -0.33470287804E+02  0.13334341167E+03  0.13557719376E+03  0.21348942419E+03  0.91081464467E+02 0.  0.
         24    2    1    2    0    0  0.64234095685E+02 -0.14585496058E+03 -0.18048983244E+03  0.25381045035E+03  0.80271268328E+02 0.  0.
        -13    1    4    4    0    0  0.61429108899E+02 -0.15539478875E+03 -0.16155994993E+03  0.23242782366E+03  0.00000000000E+00 0.  1.
         14    1    4    4    0    0  0.28049867866E+01  0.95398281688E+01 -0.18929882508E+02  0.21382626689E+02  0.00000000000E+00 0. -1.
        -11    1    3    3    0    0 -0.59030890722E+02  0.76309057109E+02  0.10902734221E+03  0.14558392633E+03  0.00000000000E+00 0. -1.
         11    1    3    3    0    0  0.25560602917E+02  0.57034354565E+02  0.26549851553E+02  0.67905497860E+02  0.00000000000E+00 0.  1.
         -2    1    1    2    0  502 -0.30763807881E+02  0.12511548904E+02  0.13920415691E+03  0.14311096406E+03  0.00000000000E+00 0.  1.
<scales pt_clust_5="13000.00000" pt_clust_6="13000.00000" pt_clust_7="13000.00000" pt_clust_8="13000.00000" pt_clust_9="33.21072"></scales>
<clustering>
<clus scale="   33.211">  2  9  1 -1</clus>
<clus scale="   80.271">  5  6 -1 -1</clus>
<clus scale="   91.081">  7  8 -1 -1</clus>
<clus scale="  161.835">  2  5  1 -1</clus>
<clus scale="   33.211">  2  5  1 -1</clus>
</clustering>
</event>
<event>
 9    2  0.4883225E-005  0.1735687E+03  0.7546771E-02  0.1205564E+00
         21   -1    0    0  501  502  0.00000000000E+00  0.00000000000E+00  0.24330402962E+03  0.24330402962E+03  0.00000000000E+00 0.  1.
         -3   -1    0    0    0  501 -0.00000000000E+00 -0.00000000000E+00 -0.24208921304E+03  0.24208921304E+03  0.00000000000E+00 0.  1.
         24    2    1    2    0    0 -0.22677383533E+02  0.22862051363E+02 -0.89196430874E+02  0.12441210624E+03  0.80532178557E+02 0.  0.
         23    2    1    2    0    0  0.12380011557E+03  0.83410660435E+02  0.11887655164E+03  0.21154897874E+03  0.91310070561E+02 0.  0.
        -11    1    3    3    0    0 -0.27735383560E+01  0.51203970890E+02 -0.44702920910E+02  0.68028599043E+02  0.00000000000E+00 0.  1.
         12    1    3    3    0    0 -0.19903845177E+02 -0.28341919527E+02 -0.44493509965E+02  0.56383507201E+02  0.00000000000E+00 0. -1.
        -13    1    4    4    0    0  0.13362776581E+02 -0.17179243399E+02  0.32129086563E+02  0.38806808747E+02  0.00000000000E+00 0. -1.
         13    1    4    4    0    0  0.11043733899E+03  0.10058990383E+03  0.86747465081E+02  0.17274216999E+03  0.00000000000E+00 0.  1.
         -4    1    1    2    0  502 -0.10112273204E+03 -0.10627271180E+03 -0.28465304190E+02  0.14943215768E+03  0.00000000000E+00 0.  1.
<scales pt_clust_5="13000.00000" pt_clust_6="13000.00000" pt_clust_7="13000.00000" pt_clust_8="13000.00000" pt_clust_9="147.60962"></scales>
<clustering>
<clus scale="   80.532">  5  6 -1 -1</clus>
<clus scale="   86.732">  2  5  1 -1</clus>
<clus scale="   91.310">  7  8 -1 -1</clus>
<clus scale="  147.610">  1  9  2 -1</clus>
<clus scale="  147.610">  1  5  2 -1</clus>
</clustering>
</event>
<event>
 9    2  0.4883225E-005  0.2643937E+03  0.7546771E-02  0.1104821E+00
         21   -1    0    0  501  502  0.00000000000E+00  0.00000000000E+00  0.45933530289E+02  0.45933530289E+02  0.00000000000E+00 0. -1.
          2   -1    0    0  502    0 -0.00000000000E+00 -0.00000000000E+00 -0.17251181238E+04  0.17251181238E+04  0.00000000000E+00 0. -1.
         23    2    1    2    0    0 -0.12019119094E+03 -0.21862786836E+03 -0.86579292238E+03  0.90545331098E+03  0.89466455909E+02 0.  0.
         24    2    1    2    0    0  0.14110799169E+03  0.19922303430E+03 -0.67012954554E+03  0.71952268884E+03  0.95068445011E+02 0.  0.
        -11    1    4    4    0    0  0.40574085604E+02  0.17310896771E+02 -0.21067001220E+03  0.21523888499E+03  0.00000000000E+00 0.  1.
         12    1    4    4    0    0  0.10053390609E+03  0.18191213753E+03 -0.45945953334E+03  0.50428380385E+03  0.00000000000E+00 0. -1.
        -13    1    3    3    0    0 -0.11798436297E+03 -0.16685626390E+03 -0.57872120382E+03  0.61374225409E+03  0.00000000000E+00 0. -1.
         13    1    3    3    0    0 -0.22068279718E+01 -0.51771604456E+02 -0.28707171856E+03  0.29171105689E+03  0.00000000000E+00 0.  1.
          1    1    1    2  501    0 -0.20916800755E+02  0.19404834056E+02 -0.14326212560E+03  0.14607565427E+03  0.00000000000E+00 0. -1.
<scales pt_clust_5="13000.00000" pt_clust_6="13000.00000" pt_clust_7="13000.00000" pt_clust_8="13000.00000" pt_clust_9="28.53175"></scales>
<clustering>
<clus scale="   28.532">  1  9  2 -1</clus>
<clus scale="   89.466">  7  8 -1 -1</clus>
<clus scale="   95.068">  5  6 -1 -1</clus>
<clus scale="  262.431">  2  7  1 -1</clus>
<clus scale="   28.532">  1  5  2 -1</clus>
</clustering>
</event>
<event>
 9    2  0.4883225E-005  0.8217818E+02  0.7546771E-02  0.1327660E+00
         -1   -1    0    0    0  501 -0.00000000000E+00  0.00000000000E+00  0.46077197726E+02  0.46077197726E+02  0.00000000000E+00 0.  1.
         21   -1    0    0  501  502  0.00000000000E+00 -0.00000000000E+00 -0.28426599100E+03  0.28426599100E+03  0.00000000000E+00 0.  1.
         23    2    1    2    0    0 -0.42646419610E+01  0.27064358465E+01 -0.18195169723E+02  0.77798576365E+02  0.75472129407E+02 0.  0.
         24    2    1    2    0    0  0.19298804634E+01  0.18501198247E+02 -0.99994191736E+02  0.13066320077E+03  0.82024477320E+02 0.  0.
        -11    1    4    4    0    0  0.38090909335E+02  0.28419940049E+01 -0.24144311254E+02  0.45187853123E+02  0.00000000000E+00 0.  1.
         12    1    4    4    0    0 -0.36161028872E+02  0.15659204242E+02 -0.75849880481E+02  0.85475347648E+02  0.00000000000E+00 0. -1.
        -11    1    3    3    0    0  0.26656963105E+02  0.25698579219E+02 -0.10714886604E+02  0.38546328630E+02  0.00000000000E+00 0.  1.
         11    1    3    3    0    0 -0.30921605066E+02 -0.22992143373E+02 -0.74802831187E+01  0.39252247736E+02  0.00000000000E+00 0. -1.
         -2    1    1    2    0  502  0.23347614976E+01 -0.21207634094E+02 -0.11999943182E+03  0.12188141159E+03  0.00000000000E+00 0.  1.
<scales pt_clust_5="13000.00000" pt_clust_6="13000.00000" pt_clust_7="13000.00000" pt_clust_8="13000.00000" pt_clust_9="21.33576"></scales>
<clustering>
<clus scale="   21.336">  2  9  1 -1</clus>
<clus scale="   75.472">  7  8 -1 -1</clus>
<clus scale="   75.639">  1  7  2 -1</clus>
<clus scale="   82.024">  5  6 -1 -1</clus>
<clus scale="   21.336">  2  5  1 -1</clus>
</clustering>
</event>
<event>
 9    2  0.4883225E-005  0.1114722E+03  0.7546771E-02  0.1263987E+00
         21   -1    0    0  501  502  0.00000000000E+00  0.00000000000E+00  0.32508796405E+02  0.32508796405E+02  0.00000000000E+00 0.  1.
          4   -1    0    0  502    0 -0.00000000000E+00 -0.00000000000E+00 -0.82872974270E+03  0.82872974270E+03  0.00000000000E+00 0. -1.
         24    2    1    2    0    0  0.42072411064E+02  0.30269660909E+02 -0.59944108660E+03  0.60710696058E+03  0.81011759285E+02 0.  0.
         23    2    1    2    0    0 -0.69726488573E+02 -0.47561575660E+02 -0.16343661973E+03  0.20748900173E+03  0.96001408744E+02 0.  0.
        -13    1    3    3    0    0  0.61525787319E+02  0.29868721036E+02 -0.33268962738E+03  0.33964680356E+03  0.00000000000E+00 0.  1.
         14    1    3    3    0    0 -0.19453376255E+02  0.40093987301E+00 -0.26675145922E+03  0.26746015702E+03  0.00000000000E+00 0. -1.
        -11    1    4    4    0    0  0.21269105000E+02 -0.84194406011E+01 -0.10252792580E+02  0.25067540031E+02  0.00000000000E+00 0.  1.
         11    1    4    4    0    0 -0.90995593573E+02 -0.39142135059E+02 -0.15318382715E+03  0.18242146170E+03  0.00000000000E+00 0. -1.
          3    1    1    2  501    0  0.27654077509E+02  0.17291914751E+02 -0.33343239970E+02  0.46642576797E+02  0.00000000000E+00 0. -1.
<scales pt_clust_5="13000.00000" pt_clust_6="13000.00000" pt_clust_7="13000.00000" pt_clust_8="13000.00000" pt_clust_9="32.61531"></scales>
<clustering>
<clus scale="   32.615">  1  9  2 -1</clus>
<clus scale="   81.012">  5  6 -1 -1</clus>
<clus scale="   96.001">  7  8 -1 -1</clus>
<clus scale="   98.857">  2  5  1 -1</clus>
<clus scale="   32.615">  1  5  2 -1</clus>
</clustering>
</event>
<event>
 9    2  0.4883225E-005  0.9749931E+02  0.7546771E-02  0.1293810E+00
         21   -1    0    0  501  502  0.00000000000E+00  0.00000000000E+00  0.29725720121E+02  0.29725720121E+02  0.00000000000E+00 0. -1.
          2   -1    0    0  502    0 -0.00000000000E+00 -0.00000000000E+00 -0.40000091215E+03  0.40000091215E+03  0.00000000000E+00 0. -1.
         24    2    1    2    0    0  0.33648527254E+02  0.13452014515E+02 -0.22292535781E+03  0.23896614409E+03  0.78076390715E+02 0.  0.
         23    2    1    2    0    0 -0.20411511552E+02  0.86593757123E+01 -0.11740677341E+03  0.15125455124E+03  0.92746828720E+02 0.  0.
        -11    1    3    3    0    0 -0.12762354385E+02  0.29207456581E+02 -0.13065087514E+03  0.13448272894E+03  0.00000000000E+00 0.  1.
         12    1    3    3    0    0  0.46410881639E+02 -0.15755442066E+02 -0.92274482668E+02  0.10448341515E+03  0.00000000000E+00 0. -1.
        -13    1    4    4    0    0  0.35916594671E+02 -0.28389068591E+01 -0.31334060753E+02  0.47748136384E+02  0.00000000000E+00 0.  1.
         13    1    4    4    0    0 -0.56328106223E+02  0.11498282571E+02 -0.86072712653E+02  0.10350641486E+03  0.00000000000E+00 0. -1.
          1    1    1    2  501    0 -0.13237015702E+02 -0.22111390227E+02 -0.29943060812E+02  0.39505936937E+02  0.00000000000E+00 0. -1.
<scales pt_clust_5="13000.00000" pt_clust_6="13000.00000" pt_clust_7="13000.00000" pt_clust_8="13000.00000" pt_clust_9="25.77076"></scales>
<clustering>
<clus scale="   25.771">  1  9  2 -1</clus>
<clus scale="   78.076">  5  6 -1 -1</clus>
<clus scale="   83.666">  2  5  1 -1</clus>
<clus scale="   92.747">  7  8 -1 -1</clus>
<clus scale="   25.771">  1  5  2 -1</clus>
</clustering>
</event>
<event>
 9    2  0.4883225E-005  0.2226639E+03  0.7546771E-02  0.1160408E+00
          2   -1    0    0  502    0 -0.00000000000E+00  0.00000000000E+00  0.84651818026E+03  0.84651818026E+03  0.00000000000E+00 0. -1.
         21   -1    0    0  501  502  0.00000000000E+00 -0.00000000000E+00 -0.16238370830E+03  0.16238370830E+03  0.00000000000E+00 0.  1.
         24    2    1    2    0    0  0.62787865562E+02 -0.55313599677E+02  0.31753192497E+03  0.33697732737E+03  0.75665615796E+02 0.  0.
         23    2    1    2    0    0  0.79539425542E+02 -0.17154085056E+03 -0.10414945452E+02  0.20947219717E+03  0.89539637447E+02 0.  0.
        -11    1    3    3    0    0  0.42752379492E+02 -0.66445197281E+02  0.29273428015E+03  0.30320964525E+03  0.00000000000E+00 0.  1.
         12    1    3    3    0    0  0.20035486071E+02  0.11131597604E+02  0.24797644812E+02  0.33767682117E+02  0.00000000000E+00 0. -1.
        -11    1    4    4    0    0  0.64015288595E+02 -0.78764246336E+02  0.31806771707E+02  0.10636462947E+03  0.00000000000E+00 0. -1.
         11    1    4    4    0    0  0.15524136947E+02 -0.92776604222E+02 -0.42221717159E+02  0.10310756771E+03  0.00000000000E+00 0.  1.
          1    1    1    2  501    0 -0.14232729110E+03  0.22685445024E+03  0.37701749244E+03  0.46245236402E+03  0.00000000000E+00 0. -1.
<scales pt_clust_5="13000.00000" pt_clust_6="13000.00000" pt_clust_7="13000.00000" pt_clust_8="13000.00000" pt_clust_9="203.86741"></scales>
<clustering>
<clus scale="   75.666">  5  6 -1 -1</clus>
<clus scale="   89.540">  7  8 -1 -1</clus>
<clus scale="  112.815">  1  5  2 -1</clus>
<clus scale="  203.867">  2  9  1 -1</clus>
<clus scale="  203.867">  2  5  1 -1</clus>
</clustering>
</event>
<event>
 9    2  0.4883225E-005  0.9409896E+02  0.7546771E-02  0.1299931E+00
         -3   -1    0    0    0  501 -0.00000000000E+00  0.00000000000E+00  0.14717726785E+03  0.14717726785E+03  0.00000000000E+00 0.  1.
         21   -1    0    0  501  502  0.00000000000E+00 -0.00000000000E+00 -0.12582799985E+03  0.12582799985E+03  0.00000000000E+00 0. -1.
         24    2    1    2    0    0 -0.14430530740E+02  0.19541397546E+02  0.93024712985E+02  0.12428727203E+03  0.78763077181E+02 0.  0.
         23    2    1    2    0    0  0.22624090603E+01 -0.41383801330E+02 -0.37121222185E+02  0.10606652324E+03  0.90301631812E+02 0.  0.
        -13    1    3    3    0    0 -0.14101469031E+00  0.30181629024E+02  0.10052410556E+03  0.10495735522E+03  0.00000000000E+00 0.  1.
         14    1    3    3    0    0 -0.14289516050E+02 -0.10640231478E+02 -0.74993925765E+01  0.19329916809E+02  0.00000000000E+00 0. -1.
        -11    1    4    4    0    0 -0.38567774552E+02  0.21415699231E+01 -0.22193826268E+02  0.44549135570E+02  0.00000000000E+00 0.  1.
         11    1    4    4    0    0  0.40830183612E+02 -0.43525371253E+02 -0.14927395917E+02  0.61517387667E+02  0.00000000000E+00 0. -1.
         -4    1    1    2    0  502  0.12168121680E+02  0.21842403784E+02 -0.34554222800E+02  0.42651472443E+02  0.00000000000E+00 0.  1.
<scales pt_clust_5="13000.00000" pt_clust_6="13000.00000" pt_clust_7="13000.00000" pt_clust_8="13000.00000" pt_clust_9="25.00308"></scales>
<clustering>
<clus scale="   25.003">  2  9  1 -1</clus>
<clus scale="   78.763">  5  6 -1 -1</clus>
<clus scale="   83.089">  1  5  2 -1</clus>
<clus scale="   90.302">  7  8 -1 -1</clus>
<clus scale="   25.003">  2  5  1 -1</clus>
</clustering>
</event>
<event>
 9    2  0.4883225E-005  0.2199947E+03  0.7546771E-02  0.1144338E+00
          2   -1    0    0  502    0 -0.00000000000E+00  0.00000000000E+00  0.76251562332E+03  0.76251562332E+03  0.00000000000E+00 0. -1.
         21   -1    0    0  501  502  0.00000000000E+00 -0.00000000000E+00 -0.16519097180E+03  0.16519097180E+03  0.00000000000E+00 0. -1.
         24    2    1    2    0    0 -0.14777987252E+03  0.26920930597E+02  0.40950875835E+03  0.44374028297E+03  0.81513117625E+02 0.  0.
         23    2    1    2    0    0 -0.20761346141E+02  0.15879964794E+03  0.13218205247E+03  0.22707450630E+03  0.91882396226E+02 0.  0.
        -11    1    3    3    0    0 -0.71118399531E+02 -0.20916409101E+02  0.12611190516E+03  0.14628580089E+03  0.00000000000E+00 0.  1.
         12    1    3    3    0    0 -0.76661472988E+02  0.47837339698E+02  0.28339685319E+03  0.29745448208E+03  0.00000000000E+00 0. -1.
        -11    1    4    4    0    0 -0.11878615463E+02  0.31651944038E+02 -0.10837391717E+02  0.35502058052E+02  0.00000000000E+00 0.  1.
         11    1    4    4    0    0 -0.88827306781E+01  0.12714770391E+03  0.14301944419E+03  0.19157244825E+03  0.00000000000E+00 0. -1.
          1    1    1    2  501    0  0.16854121866E+03 -0.18572057854E+03  0.55633840709E+02  0.25689180585E+03  0.00000000000E+00 0. -1.
<scales pt_clust_5="13000.00000" pt_clust_6="13000.00000" pt_clust_7="13000.00000" pt_clust_8="13000.00000" pt_clust_9="199.88824"></scales>
<clustering>
<clus scale="   81.513">  5  6 -1 -1</clus>
<clus scale="   91.882">  7  8 -1 -1</clus>
<clus scale="  170.904">  1  5  2 -1</clus>
<clus scale="  199.888">  2  9  1 -1</clus>
<clus scale="  199.888">  2  5  1 -1</clus>
</clustering>
</event>
<event>
 9    2  0.4883225E-005  0.1150004E+03  0.7546771E-02  0.1255387E+00
         -1   -1    0    0    0  501 -0.00000000000E+00  0.00000000000E+00  0.11127102936E+03  0.11127102936E+03  0.00000000000E+00 0.  1.
         21   -1    0    0  501  502  0.00000000000E+00 -0.00000000000E+00 -0.31795382305E+03  0.31795382305E+03  0.00000000000E+00 0.  1.
         24    2    1    2    0    0  0.88333076005E+02 -0.10574816269E+02  0.30346933591E+02  0.12395876657E+03  0.80810150207E+02 0.  0.
         23    2    1    2    0    0 -0.10759921776E+02 -0.39048973640E+02 -0.12934829179E+03  0.16357837877E+03  0.91576782832E+02 0.  0.
        -11    1    3    3    0    0  0.10292364349E+03 -0.40646962526E+01  0.32090215915E+02  0.10788688568E+03  0.00000000000E+00 0.  1.
         12    1    3    3    0    0 -0.14590567484E+02 -0.65101200159E+01 -0.17432823240E+01  0.16071880891E+02  0.00000000000E+00 0. -1.
        -11    1    4    4    0    0 -0.46948259358E+02 -0.35315328912E+02 -0.53506460522E+02  0.79462273001E+02  0.00000000000E+00 0.  1.
         11    1    4    4    0    0  0.36188337582E+02 -0.37336447275E+01 -0.75841831271E+02  0.84116105773E+02  0.00000000000E+00 0. -1.
         -2    1    1    2    0  502 -0.77573154229E+02  0.49623789908E+02 -0.10768143549E+03  0.14168770705E+03  0.00000000000E+00 0.  1.
<scales pt_clust_5="13000.00000" pt_clust_6="13000.00000" pt_clust_7="13000.00000" pt_clust_8="13000.00000" pt_clust_9="92.08754"></scales>
<clustering>
<clus scale="   80.810">  5  6 -1 -1</clus>
<clus scale="   91.577">  7  8 -1 -1</clus>
<clus scale="   92.088">  2  9  1 -1</clus>
<clus scale="  106.626">  1  5  2 -1</clus>
<clus scale="   92.088">  2  5  1 -1</clus>
</clustering>
</event>
<event>
 9    2  0.4883225E-005  0.1017104E+03  0.7546771E-02  0.1280180E+00
         21   -1    0    0  501  502  0.00000000000E+00  0.00000000000E+00  0.10331110691E+03  0.10331110691E+03  0.00000000000E+00 0. -1.
          2   -1    0    0  502    0 -0.00000000000E+00 -0.00000000000E+00 -0.48667329746E+03  0.48667329746E+03  0.00000000000E+00 0. -1.
         24    2    1    2    0    0 -0.20040795854E+02  0.56774024661E+02 -0.43609631763E+03  0.44796646656E+03  0.82879632867E+02 0.  0.
         23    2    1    2    0    0  0.46909920243E+02 -0.30806214005E+02  0.29703077007E+02  0.98123675055E+02  0.74809219914E+02 0.  0.
        -13    1    3    3    0    0  0.21128826928E+02 -0.19780227099E+00 -0.36001734902E+02  0.41744357332E+02  0.00000000000E+00 0.  1.
         14    1    3    3    0    0 -0.41169622782E+02  0.56971826932E+02 -0.40009458272E+03  0.40622210923E+03  0.00000000000E+00 0. -1.
        -13    1    4    4    0    0  0.27169431524E+02  0.16277080795E+02 -0.10255939774E+02  0.33291225108E+02  0.00000000000E+00 0. -1.
         13    1    4    4    0    0  0.19740488720E+02 -0.47083294800E+02  0.39959016781E+02  0.64832449947E+02  0.00000000000E+00 0.  1.
          1    1    1    2  501    0 -0.26869124389E+02 -0.25967810656E+02  0.23031050068E+02  0.43894262756E+02  0.00000000000E+00 0. -1.
<scales pt_clust_5="13000.00000" pt_clust_6="13000.00000" pt_clust_7="13000.00000" pt_clust_8="13000.00000" pt_clust_9="37.36679"></scales>
<clustering>
<clus scale="   37.367">  1  9  2 -1</clus>
<clus scale="   74.809">  7  8 -1 -1</clus>
<clus scale="   82.880">  5  6 -1 -1</clus>
<clus scale="   95.249">  1  7  2 -1</clus>
<clus scale="   37.367">  1  5  2 -1</clus>
</clustering>
</event>
<event>
 9    2  0.4883225E-005  0.1505897E+03  0.7546771E-02  0.1201016E+00
         21   -1    0    0  501  502  0.00000000000E+00  0.00000000000E+00  0.96461387202E+02  0.96461387202E+02  0.00000000000E+00 0.  1.
         -1   -1    0    0    0  501 -0.00000000000E+00 -0.00000000000E+00 -0.55474456970E+03  0.55474456970E+03  0.00000000000E+00 0.  1.
         24    2    1    2    0    0 -0.78526783421E+02  0.95778180142E+02 -0.35892163009E+03  0.38877028101E+03  0.83532504709E+02 0.  0.
         23    2    1    2    0    0  0.11504498498E+03 -0.36242577137E+02 -0.12979797327E+02  0.15135068734E+03  0.90496864328E+02 0.  0.
        -11    1    3    3    0    0 -0.94192860726E+02  0.94199032079E+02 -0.31103715838E+03  0.33836351243E+03  0.00000000000E+00 0.  1.
         12    1    3    3    0    0  0.15666077305E+02  0.15791480637E+01 -0.47884471716E+02  0.50406768576E+02  0.00000000000E+00 0. -1.
        -13    1    4    4    0    0  0.40962063124E+02 -0.16173149613E+02 -0.49582421651E+02  0.66316498103E+02  0.00000000000E+00 0. -1.
         13    1    4    4    0    0  0.74082921858E+02 -0.20069427524E+02  0.36602624324E+02  0.85034189240E+02  0.00000000000E+00 0.  1.
         -2    1    1    2    0  502 -0.36518201561E+02 -0.59535603005E+02 -0.86381755080E+02  0.11108498855E+03  0.00000000000E+00 0.  1.
<scales pt_clust_5="13000.00000" pt_clust_6="13000.00000" pt_clust_7="13000.00000" pt_clust_8="13000.00000" pt_clust_9="69.84320"></scales>
<clustering>
<clus scale="   69.843">  1  9  2 -1</clus>
<clus scale="   83.533">  5  6 -1 -1</clus>
<clus scale="   90.497">  7  8 -1 -1</clus>
<clus scale="  146.510">  2  5  1 -1</clus>
<clus scale="   69.843">  1  5  2 -1</clus>
</clustering>
</event>
<event>
 9    2  0.4883225E-005  0.1593532E+03  0.7546771E-02  0.1192342E+00
         21   -1    0    0  501  502  0.00000000000E+00  0.00000000000E+00  0.65237053368E+03  0.65237053368E+03  0.00000000000E+00 0.  1.
          2   -1    0    0  502    0 -0.00000000000E+00 -0.00000000000E+00 -0.45211906690E+02  0.45211906690E+02  0.00000000000E+00 0. -1.
         24    2    1    2    0    0  0.11971814070E+03 -0.73198580421E+01  0.20389081669E+03  0.25002640817E+03  0.80967438627E+02 0.  0.
         23    2    1    2    0    0 -0.13222147870E+03  0.30757300751E+02  0.34354123695E+03  0.38218852692E+03  0.98076284850E+02 0.  0.
        -11    1    3    3    0    0  0.78755023532E+02  0.19273835327E+02  0.68654359142E+02  0.10624149608E+03  0.00000000000E+00 0.  1.
         12    1    3    3    0    0  0.40963117166E+02 -0.26593693369E+02  0.13523645755E+03  0.14378491209E+03  0.00000000000E+00 0. -1.
        -13    1    4    4    0    0 -0.12001482010E+03  0.41581473719E+01  0.32748222835E+03  0.34880575844E+03  0.00000000000E+00 0.  1.
         13    1    4    4    0    0 -0.12206658594E+02  0.26599153379E+02  0.16059008592E+02  0.33382768481E+02  0.00000000000E+00 0. -1.
          1    1    1    2  501    0  0.12503338000E+02 -0.23437442708E+02  0.59726573355E+02  0.65367505281E+02  0.00000000000E+00 0. -1.
<scales pt_clust_5="13000.00000" pt_clust_6="13000.00000" pt_clust_7="13000.00000" pt_clust_8="13000.00000" pt_clust_9="26.56402"></scales>
<clustering>
<clus scale="   26.564">  1  9  2 -1</clus>
<clus scale="   80.967">  5  6 -1 -1</clus>
<clus scale="   98.076">  7  8 -1 -1</clus>
<clus scale="  149.433">  2  5  1 -1</clus>
<clus scale="   26.564">  1  5  2 -1</clus>
</clustering>
</event>
<event>
 9    2  0.4883225E-005  0.1240327E+03  0.7546771E-02  0.1251334E+00
         -3   -1    0    0    0  501 -0.00000000000E+00  0.00000000000E+00  0.89356308690E+02  0.89356308690E+02  0.00000000000E+00 0.  1.
         21   -1    0    0  501  502  0.00000000000E+00 -0.00000000000E+00 -0.44151430532E+03  0.44151430532E+03  0.00000000000E+00 0. -1.
         23    2    1    2    0    0  0.85171359708E+01 -0.29302117396E+02  0.31528794846E+01  0.12036212772E+03  0.11638705018E+03 0.  0.
         24    2    1    2    0    0  0.24098352968E+02  0.97875251263E+02 -0.22100983361E+03  0.25622687746E+03  0.81526503386E+02 0.  0.
        -13    1    4    4    0    0 -0.60349821515E+01  0.96731007871E+02 -0.14454075021E+03  0.17402682944E+03  0.00000000000E+00 0.  1.
         14    1    4    4    0    0  0.30133335120E+02  0.11442433912E+01 -0.76469083397E+02  0.82200048017E+02  0.00000000000E+00 0. -1.
        -13    1    3    3    0    0  0.43404426575E+02 -0.11098372689E+02 -0.41342976957E+02  0.60961954252E+02  0.00000000000E+00 0. -1.
         13    1    3    3    0    0 -0.34887290604E+02 -0.18203744708E+02  0.44495856441E+02  0.59400173464E+02  0.00000000000E+00 0.  1.
         -4    1    1    2    0  502 -0.32615488939E+02 -0.68573133866E+02 -0.13430104251E+03  0.15428160884E+03  0.00000000000E+00 0.  1.
<scales pt_clust_5="13000.00000" pt_clust_6="13000.00000" pt_clust_7="13000.00000" pt_clust_8="13000.00000" pt_clust_9="75.93448"></scales>
<clustering>
<clus scale="   75.934">  2  9  1 -1</clus>
<clus scale="   81.527">  5  6 -1 -1</clus>
<clus scale="   92.113">  2  5  1 -1</clus>
<clus scale="  116.387">  7  8 -1 -1</clus>
<clus scale="   75.934">  2  5  1 -1</clus>
</clustering>
</event>
<event>
 9    2  0.4883225E-005  0.9708496E+02  0.7546771E-02  0.1292224E+00
         21   -1    0    0  501  502  0.00000000000E+00  0.00000000000E+00  0.16570053956E+02  0.16570053956E+02  0.00000000000E+00 0.  1.
          2   -1    0    0  502    0 -0.00000000000E+00 -0.00000000000E+00 -0.95908430366E+03  0.95908430366E+03  0.00000000000E+00 0. -1.
         24    2    1    2    0    0  0.85531137713E+01 -0.29155311754E+02 -0.68682541436E+03  0.69226590963E+03  0.81115669725E+02 0.  0.
         23    2    1    2    0    0 -0.28754453677E+02  0.31744917586E+02 -0.22342004698E+03  0.24522989855E+03  0.91578531057E+02 0.  0.
        -11    1    3    3    0    0 -0.29419048959E+02  0.40860701092E+00 -0.12644422101E+03  0.12982214152E+03  0.00000000000E+00 0.  1.
         12    1    3    3    0    0  0.37972162731E+02 -0.29563918765E+02 -0.56038119335E+03  0.56244376811E+03  0.00000000000E+00 0. -1.
        -13    1    4    4    0    0 -0.15622453927E+02  0.55366958375E+02 -0.75814250285E+02  0.95170172284E+02  0.00000000000E+00 0.  1.
         13    1    4    4    0    0 -0.13131999751E+02 -0.23622040788E+02 -0.14760579669E+03  0.15005972626E+03  0.00000000000E+00 0. -1.
          1    1    1    2  501    0  0.20201339906E+02 -0.25896058318E+01 -0.32268788368E+02  0.38158549437E+02  0.00000000000E+00 0. -1.
<scales pt_clust_5="13000.00000" pt_clust_6="13000.00000" pt_clust_7="13000.00000" pt_clust_8="13000.00000" pt_clust_9="20.36664"></scales>
<clustering>
<clus scale="   20.367">  1  9  2 -1</clus>
<clus scale="   81.116">  5  6 -1 -1</clus>
<clus scale="   87.285">  2  5  1 -1</clus>
<clus scale="   91.579">  7  8 -1 -1</clus>
<clus scale="   20.367">  1  5  2 -1</clus>
</clustering>
</event>
<event>
 9    2  0.4883225E-005  0.1014400E+03  0.7546771E-02  0.1283528E+00
         21   -1    0    0  501  502  0.00000000000E+00  0.00000000000E+00  0.42493727824E+03  0.42493727824E+03  0.00000000000E+00 0. -1.
          4   -1    0    0  502    0 -0.00000000000E+00 -0.00000000000E+00 -0.50569385964E+02  0.50569385964E+02  0.00000000000E+00 0. -1.
         23    2    1    2    0    0 -0.37087830227E+02  0.43843488666E+02  0.44286301914E+02  0.11695759648E+03  0.91760798757E+02 0.  0.
         24    2    1    2    0    0  0.27373007058E+01  0.11643992004E+01  0.23419699934E+03  0.24719591939E+03  0.79048968497E+02 0.  0.
        -13    1    4    4    0    0  0.36317894398E+02 -0.10020270312E+02  0.72883769316E+02  0.82045347828E+02  0.00000000000E+00 0.  1.
         14    1    4    4    0    0 -0.33580593692E+02  0.11184669512E+02  0.16131323003E+03  0.16515057156E+03  0.00000000000E+00 0. -1.
        -13    1    3    3    0    0 -0.67882230933E+02  0.30083274175E+02  0.26581387300E+02  0.78864255606E+02  0.00000000000E+00 0. -1.
         13    1    3    3    0    0  0.30794400706E+02  0.13760214491E+02  0.17704914614E+02  0.38093340877E+02  0.00000000000E+00 0.  1.
          3    1    1    2  501    0  0.34350529521E+02 -0.45007887867E+02  0.95884591021E+02  0.11135314833E+03  0.00000000000E+00 0. -1.
<scales pt_clust_5="13000.00000" pt_clust_6="13000.00000" pt_clust_7="13000.00000" pt_clust_8="13000.00000" pt_clust_9="56.61863"></scales>
<clustering>
<clus scale="   56.619">  1  9  2 -1</clus>
<clus scale="   79.049">  5  6 -1 -1</clus>
<clus scale="   90.104">  1  5  2 -1</clus>
<clus scale="   91.761">  7  8 -1 -1</clus>
<clus scale="   56.619">  1  5  2 -1</clus>
</clustering>
</event>
<event>
 9    2  0.4883225E-005  0.1208290E+03  0.7546771E-02  0.1244941E+00
         -1   -1    0    0    0  501 -0.00000000000E+00  0.00000000000E+00  0.21932933913E+03  0.21932933913E+03  0.00000000000E+00 0.  1.
         21   -1    0    0  501  502  0.00000000000E+00 -0.00000000000E+00 -0.16416314430E+03  0.16416314430E+03  0.00000000000E+00 0.  1.
         24    2    1    2    0    0 -0.10406414673E+03  0.12706040961E+01  0.12493559456E+02  0.13220966888E+03  0.80575098186E+02 0.  0.
         23    2    1    2    0    0  0.39740134602E+02  0.25696678782E+02 -0.66179111549E+02  0.12200205151E+03  0.90913300287E+02 0.  0.
        -11    1    3    3    0    0 -0.98850900175E+02  0.24272379103E+02  0.25967035293E+02  0.10504730256E+03  0.00000000000E+00 0.  1.
         12    1    3    3    0    0 -0.52132465580E+01 -0.23001775007E+02 -0.13473475837E+02  0.27162366323E+02  0.00000000000E+00 0. -1.
        -11    1    4    4    0    0  0.57624620644E+02 -0.67707017804E+01 -0.17081365525E+02  0.60483157615E+02  0.00000000000E+00 0. -1.
         11    1    4    4    0    0 -0.17884486042E+02  0.32467380562E+02 -0.49097746024E+02  0.61518893896E+02  0.00000000000E+00 0.  1.
         -2    1    1    2    0  502  0.64324012132E+02 -0.26967282878E+02  0.10885174692E+03  0.12928076303E+03  0.00000000000E+00 0.  1.
<scales pt_clust_5="13000.00000" pt_clust_6="13000.00000" pt_clust_7="13000.00000" pt_clust_8="13000.00000" pt_clust_9="69.74825"></scales>
<clustering>
<clus scale="   69.748">  2  9  1 -1</clus>
<clus scale="   80.575">  5  6 -1 -1</clus>
<clus scale="   90.913">  7  8 -1 -1</clus>
<clus scale="  113.255">  1  5  2 -1</clus>
<clus scale="   69.748">  2  5  1 -1</clus>
</clustering>
</event>
<event>
 9    2  0.4883225E-005  0.1368073E+03  0.7546771E-02  0.1220270E+00
          2   -1    0    0  502    0 -0.00000000000E+00  0.00000000000E+00  0.61983240141E+03  0.61983240141E+03  0.00000000000E+00 0. -1.
         21   -1    0    0  501  502  0.00000000000E+00 -0.00000000000E+00 -0.83038810520E+02  0.83038810520E+02  0.00000000000E+00 0.  1.
         24    2    1    2    0    0 -0.36444373146E+02  0.98740462198E+02  0.22217906686E+03  0.25881916509E+03  0.80907053207E+02 0.  0.
         23    2    1    2    0    0  0.94895725122E+02 -0.52583559881E+02  0.24291657833E+02  0.14432819591E+03  0.92034309242E+02 0.  0.
        -11    1    3    3    0    0 -0.18708463376E+02 -0.10924468092E+02  0.36485247802E+02  0.42432580786E+02  0.00000000000E+00 0.  1.
         12    1    3    3    0    0 -0.17735909771E+02  0.10966493029E+03  0.18569381905E+03  0.21638658430E+03  0.00000000000E+00 0. -1.
        -11    1    4    4    0    0  0.54902791033E+02  0.10080895091E+02 -0.18186987188E+02  0.58708665561E+02  0.00000000000E+00 0. -1.
         11    1    4    4    0    0  0.39992934089E+02 -0.62664454971E+02  0.42478645021E+02  0.85619530347E+02  0.00000000000E+00 0.  1.
          1    1    1    2  501    0 -0.58451351975E+02 -0.46156902318E+02  0.29032286620E+03  0.29972385094E+03  0.00000000000E+00 0. -1.
<scales pt_clust_5="13000.00000" pt_clust_6="13000.00000" pt_clust_7="13000.00000" pt_clust_8="13000.00000" pt_clust_9="74.47836"></scales>
<clustering>
<clus scale="   74.478">  2  9  1 -1</clus>
<clus scale="   80.907">  5  6 -1 -1</clus>
<clus scale="   92.034">  7  8 -1 -1</clus>
<clus scale="  129.584">  1  5  2 -1</clus>
<clus scale="   74.478">  2  5  1 -1</clus>
</clustering>
</event>
<event>
 9    2  0.4883225E-005  0.1497477E+03  0.7546771E-02  0.1217927E+00
          2   -1    0    0  502    0 -0.00000000000E+00  0.00000000000E+00  0.12629317961E+04  0.12629317961E+04  0.00000000000E+00 0. -1.
         21   -1    0    0  501  502  0.00000000000E+00 -0.00000000000E+00 -0.53497296975E+02  0.53497296975E+02  0.00000000000E+00 0. -1.
         24    2    1    2    0    0 -0.63814443938E+02  0.19575522273E+02  0.84876291720E+03  0.85508653343E+03  0.79492173937E+02 0.  0.
         23    2    1    2    0    0  0.90763131911E+02  0.94381823058E+02  0.26634100145E+03  0.31097379043E+03  0.92850926971E+02 0.  0.
        -11    1    3    3    0    0 -0.19929702059E+02 -0.22674339467E+02  0.11841189320E+03  0.12219940731E+03  0.00000000000E+00 0.  1.
         12    1    3    3    0    0 -0.43884741879E+02  0.42249861740E+02  0.73035102400E+03  0.73288712612E+03  0.00000000000E+00 0. -1.
        -11    1    4    4    0    0  0.75328701334E+02  0.10803056288E+03  0.25606799697E+03  0.28795109799E+03  0.00000000000E+00 0. -1.
         11    1    4    4    0    0  0.15434430577E+02 -0.13648739823E+02  0.10273004484E+02  0.23022692439E+02  0.00000000000E+00 0.  1.
          1    1    1    2  501    0 -0.26948687972E+02 -0.11395734533E+03  0.94330580433E+02  0.15036876917E+03  0.00000000000E+00 0. -1.
<scales pt_clust_5="13000.00000" pt_clust_6="13000.00000" pt_clust_7="13000.00000" pt_clust_8="13000.00000" pt_clust_9="117.48644"></scales>
<clustering>
<clus scale="   79.492">  5  6 -1 -1</clus>
<clus scale="   92.851">  7  8 -1 -1</clus>
<clus scale="  103.800">  1  5  2 -1</clus>
<clus scale="  117.486">  2  9  1 -1</clus>
<clus scale="  117.486">  2  5  1 -1</clus>
</clustering>
</event>
<event>
 9    2  0.4883225E-005  0.1940841E+03  0.7546771E-02  0.1180223E+00
         21   -1    0    0  501  502  0.00000000000E+00  0.00000000000E+00  0.98098797302E+03  0.98098797302E+03  0.00000000000E+00 0. -1.
          2   -1    0    0  502    0 -0.00000000000E+00 -0.00000000000E+00 -0.64749596121E+02  0.64749596121E+02  0.00000000000E+00 0. -1.
         23    2    1    2    0    0  0.54842469322E+02  0.24648641553E+02  0.26675936539E+03  0.28790260308E+03  0.90067185265E+02 0.  0.
         24    2    1    2    0    0 -0.20049582183E+01 -0.18878877861E+03  0.25830904109E+03  0.33034492767E+03  0.82213063081E+02 0.  0.
        -13    1    4    4    0    0  0.24742826261E+02 -0.40982296894E+02  0.10659657121E+03  0.11685283524E+03  0.00000000000E+00 0.  1.
         14    1    4    4    0    0 -0.26747784479E+02 -0.14780648172E+03  0.15171246987E+03  0.21349209242E+03  0.00000000000E+00 0. -1.
        -11    1    3    3    0    0 -0.23114438380E+02  0.19324827154E+02  0.71439508160E+02  0.77532764250E+02  0.00000000000E+00 0.  1.
         11    1    3    3    0    0  0.77956907702E+02  0.53238143988E+01  0.19531985723E+03  0.21036983883E+03  0.00000000000E+00 0. -1.
          1    1    1    2  501    0 -0.52837511104E+02  0.16414013706E+03  0.39116997042E+03  0.42749003840E+03  0.00000000000E+00 0. -1.
<scales pt_clust_5="13000.00000" pt_clust_6="13000.00000" pt_clust_7="13000.00000" pt_clust_8="13000.00000" pt_clust_9="175.81137"></scales>
<clustering>
<clus scale="   82.213">  5  6 -1 -1</clus>
<clus scale="   90.067">  7  8 -1 -1</clus>
<clus scale="  108.293">  2  7  1 -1</clus>
<clus scale="  175.811">  1  9  2 -1</clus>
<clus scale="  175.811">  1  5  2 -1</clus>
</clustering>
</event>
<event>
 9    2  0.4883225E-005  0.9400787E+02  0.7546771E-02  0.1299892E+00
         21   -1    0    0  501  502  0.00000000000E+00  0.00000000000E+00  0.82328955636E+01  0.82328955636E+01  0.00000000000E+00 0.  1.
          2   -1    0    0  502    0 -0.00000000000E+00 -0.00000000000E+00 -0.15021012532E+04  0.15021012532E+04  0.00000000000E+00 0. -1.
         24    2    1    2    0    0 -0.25702283410E+02 -0.16257663892E+02 -0.90046497995E+03  0.90454974449E+03  0.80300318436E+02 0.  0.
         23    2    1    2    0    0  0.30051143355E+01 -0.35099052011E+00 -0.39645122542E+03  0.40683426186E+03  0.91276440409E+02 0.  0.
        -11    1    3    3    0    0 -0.51510308622E+01 -0.31933518066E+02 -0.14171495604E+03  0.14535959363E+03  0.00000000000E+00 0.  1.
         12    1    3    3    0    0 -0.20551252547E+02  0.15675854174E+02 -0.75875002391E+03  0.75919015086E+03  0.00000000000E+00 0. -1.
        -13    1    4    4    0    0  0.10743792340E+02 -0.44413571132E+02 -0.22869075227E+03  0.23321118015E+03  0.00000000000E+00 0.  1.
         13    1    4    4    0    0 -0.77386780046E+01  0.44062580612E+02 -0.16776047316E+03  0.17362308171E+03  0.00000000000E+00 0. -1.
          1    1    1    2  501    0  0.22697169074E+02  0.16608654412E+02 -0.19695215229E+03  0.19895014244E+03  0.00000000000E+00 0. -1.
<scales pt_clust_5="13000.00000" pt_clust_6="13000.00000" pt_clust_7="13000.00000" pt_clust_8="13000.00000" pt_clust_9="28.12489"></scales>
<clustering>
<clus scale="   28.125">  1  9  2 -1</clus>
<clus scale="   80.300">  5  6 -1 -1</clus>
<clus scale="   83.392">  2  5  1 -1</clus>
<clus scale="   91.276">  7  8 -1 -1</clus>
<clus scale="   28.125">  1  5  2 -1</clus>
</clustering>
</event>
<event>
 9    2  0.4883225E-005  0.2038242E+03  0.7546771E-02  0.1186749E+00
         21   -1    0    0  501  502  0.00000000000E+00  0.00000000000E+00  0.38323898625E+02  0.38323898625E+02  0.00000000000E+00 0. -1.
          2   -1    0    0  502    0 -0.00000000000E+00 -0.00000000000E+00 -0.14529707188E+04  0.14529707188E+04  0.00000000000E+00 0. -1.
         24    2    1    2    0    0  0.59596784698E+01 -0.15453454070E+01 -0.33427914673E+03  0.34390872951E+03  0.80577667098E+02 0.  0.
         23    2    1    2    0    0  0.17238608364E+03 -0.48738670163E+02 -0.58149510037E+03  0.61521153937E+03  0.90864000650E+02 0.  0.
        -13    1    3    3    0    0 -0.23805700112E+02  0.11939539462E+02 -0.41491788479E+02  0.49303473220E+02  0.00000000000E+00 0.  1.
         14    1    3    3    0    0  0.29765378582E+02 -0.13484884869E+02 -0.29278735825E+03  0.29460525629E+03  0.00000000000E+00 0. -1.
        -13    1    4    4    0    0  0.55097708094E+02 -0.55567055813E+02 -0.16766172268E+03  0.18502407514E+03  0.00000000000E+00 0. -1.
         13    1    4    4    0    0  0.11728837555E+03  0.68283856504E+01 -0.41383337769E+03  0.43018746423E+03  0.00000000000E+00 0.  1.
          1    1    1    2  501    0 -0.17834576211E+03  0.50284015570E+02 -0.49887257308E+03  0.53217434855E+03  0.00000000000E+00 0. -1.
<scales pt_clust_5="13000.00000" pt_clust_6="13000.00000" pt_clust_7="13000.00000" pt_clust_8="13000.00000" pt_clust_9="182.45010"></scales>
<clustering>
<clus scale="   80.578">  5  6 -1 -1</clus>
<clus scale="   80.813">  2  5  1 -1</clus>
<clus scale="   90.864">  7  8 -1 -1</clus>
<clus scale="  182.450">  1  9  2 -1</clus>
<clus scale="  182.450">  1  5  2 -1</clus>
</clustering>
</event>
<event>
 9    2  0.4883225E-005  0.1361693E+03  0.7546771E-02  0.1221742E+00
          2   -1    0    0  502    0 -0.00000000000E+00  0.00000000000E+00  0.13167664155E+03  0.13167664155E+03  0.00000000000E+00 0. -1.
         21   -1    0    0  501  502  0.00000000000E+00 -0.00000000000E+00 -0.29289353712E+03  0.29289353712E+03  0.00000000000E+00 0.  1.
         24    2    1    2    0    0  0.94131893083E+02 -0.41496652046E+02  0.45851124629E+02  0.13802369174E+03  0.79783635075E+02 0.  0.
         23    2    1    2    0    0 -0.96712589386E+02 -0.16941589983E+02 -0.17004846273E+03  0.21732123316E+03  0.93121943092E+02 0.  0.
        -13    1    3    3    0    0 -0.75040406778E+01 -0.19208501165E+02  0.24108280656E+02  0.31725168867E+02  0.00000000000E+00 0.  1.
         14    1    3    3    0    0  0.10163593376E+03 -0.22288150881E+02  0.21742843973E+02  0.10629852287E+03  0.00000000000E+00 0. -1.
        -13    1    4    4    0    0 -0.89239016372E+02 -0.36977353262E+02 -0.17046634624E+03  0.19593290152E+03  0.00000000000E+00 0.  1.
         13    1    4    4    0    0 -0.74735730142E+01  0.20035763279E+02  0.41788350140E+00  0.21388331641E+02  0.00000000000E+00 0. -1.
          1    1    1    2  501    0  0.25806963033E+01  0.58438242029E+02 -0.37019557467E+02  0.69225253773E+02  0.00000000000E+00 0. -1.
<scales pt_clust_5="13000.00000" pt_clust_6="13000.00000" pt_clust_7="13000.00000" pt_clust_8="13000.00000" pt_clust_9="58.49520"></scales>
<clustering>
<clus scale="   58.495">  2  9  1 -1</clus>
<clus scale="   79.784">  5  6 -1 -1</clus>
<clus scale="   93.122">  7  8 -1 -1</clus>
<clus scale="  127.420">  1  5  2 -1</clus>
<clus scale="   58.495">  2  5  1 -1</clus>
</clustering>
</event>
<event>
 9    2  0.4883225E-005  0.1210340E+03  0.7546771E-02  0.1244263E+00
         21   -1    0    0  501  502  0.00000000000E+00  0.00000000000E+00  0.61971966496E+02  0.61971966496E+02  0.00000000000E+00 0.  1.
         -1   -1    0    0    0  501 -0.00000000000E+00 -0.00000000000E+00 -0.38731417438E+03  0.38731417438E+03  0.00000000000E+00 0.  1.
         23    2    1    2    0    0 -0.72886392267E+02  0.10183686832E+02 -0.21653899297E+03  0.24594856237E+03  0.90473345227E+02 0.  0.
         24    2    1    2    0    0  0.98154429115E+02 -0.23923092349E+02 -0.51919716902E+02  0.13959609048E+03  0.81146812463E+02 0.  0.
        -11    1    4    4    0    0  0.70783968040E+02 -0.38227442408E+02 -0.67492243173E+02  0.10500909662E+03  0.00000000000E+00 0.  1.
         12    1    4    4    0    0  0.27370461075E+02  0.14304350059E+02  0.15572526271E+02  0.34586993864E+02  0.00000000000E+00 0. -1.
        -13    1    3    3    0    0  0.37246588620E+01 -0.25660172982E+02 -0.22708165428E+02  0.34467061641E+02  0.00000000000E+00 0. -1.
         13    1    3    3    0    0 -0.76611051129E+02  0.35843859814E+02 -0.19383082755E+03  0.21148150072E+03  0.00000000000E+00 0.  1.
         -2    1    1    2    0  502 -0.25268036848E+02  0.13739405517E+02 -0.56883498011E+02  0.63741488029E+02  0.00000000000E+00 0.  1.
<scales pt_clust_5="13000.00000" pt_clust_6="13000.00000" pt_clust_7="13000.00000" pt_clust_8="13000.00000" pt_clust_9="28.76188"></scales>
<clustering>
<clus scale="   28.762">  1  9  2 -1</clus>
<clus scale="   81.147">  5  6 -1 -1</clus>
<clus scale="   90.473">  7  8 -1 -1</clus>
<clus scale="  114.231">  1  5  2 -1</clus>
<clus scale="   28.762">  1  5  2 -1</clus>
</clustering>
</event>
<event>
 9    2  0.4883225E-005  0.2724442E+03  0.7546771E-02  0.1117922E+00
         21   -1    0    0  501  502  0.00000000000E+00  0.00000000000E+00  0.97444592873E+03  0.97444592873E+03  0.00000000000E+00 0.  1.
          2   -1    0    0  502    0 -0.00000000000E+00 -0.00000000000E+00 -0.16371521170E+03  0.16371521170E+03  0.00000000000E+00 0. -1.
         24    2    1    2    0    0  0.13443264563E+03  0.70976746948E+02  0.42282871200E+03  0.45645096271E+03  0.80333846248E+02 0.  0.
         23    2    1    2    0    0 -0.33783467015E+03 -0.67346640792E+02  0.26266212314E+03  0.44281566278E+03  0.91795892549E+02 0.  0.
        -13    1    3    3    0    0  0.12155440005E+02  0.38890591670E+02  0.62681543146E+02  0.74761010516E+02  0.00000000000E+00 0.  1.
         14    1    3    3    0    0  0.12227720562E+03  0.32086155277E+02  0.36014716885E+03  0.38168995219E+03  0.00000000000E+00 0. -1.
        -13    1    4    4    0    0 -0.22850836662E+03 -0.72192488420E+02  0.22015404195E+03  0.32541608931E+03  0.00000000000E+00 0.  1.
         13    1    4    4    0    0 -0.10932630353E+03  0.48458476279E+01  0.42508081194E+02  0.11739957347E+03  0.00000000000E+00 0. -1.
          1    1    1    2  501    0  0.20340202452E+03 -0.36301061554E+01  0.12523988189E+03  0.23889451494E+03  0.00000000000E+00 0. -1.
<scales pt_clust_5="13000.00000" pt_clust_6="13000.00000" pt_clust_7="13000.00000" pt_clust_8="13000.00000" pt_clust_9="256.51390"></scales>
<clustering>
<clus scale="   80.334">  5  6 -1 -1</clus>
<clus scale="   91.796">  7  8 -1 -1</clus>
<clus scale="  171.940">  2  5  1 -1</clus>
<clus scale="  256.514">  1  9  2 -1</clus>
<clus scale="  256.514">  1  5  2 -1</clus>
</clustering>
</event>
<event>
 9    2  0.4883225E-005  0.1461332E+03  0.7546771E-02  0.1206801E+00
         21   -1    0    0  501  502  0.00000000000E+00  0.00000000000E+00  0.96971403326E+02  0.96971403326E+02  0.00000000000E+00 0. -1.
          4   -1    0    0  502    0 -0.00000000000E+00 -0.00000000000E+00 -0.64471080336E+03  0.64471080336E+03  0.00000000000E+00 0. -1.
         24    2    1    2    0    0 -0.12034590095E+03  0.21242468553E+02 -0.50802968527E+03  0.52863333947E+03  0.80154027617E+02 0.  0.
         23    2    1    2    0    0  0.97865698937E+02  0.35868468986E+02 -0.59078385278E+02  0.14868922095E+03  0.88056724466E+02 0.  0.
        -13    1    3    3    0    0 -0.37108516339E+01  0.23554526371E+02 -0.42735033029E+02  0.48937400630E+02  0.00000000000E+00 0.  1.
         14    1    3    3    0    0 -0.11663504932E+03 -0.23120578185E+01 -0.46529465224E+03  0.47969593884E+03  0.00000000000E+00 0. -1.
        -13    1    4    4    0    0  0.45675797786E+02  0.19368182219E+02 -0.76559671080E+02  0.91229316679E+02  0.00000000000E+00 0.  1.
         13    1    4    4    0    0  0.52189901151E+02  0.16500286767E+02  0.17481285801E+02  0.57459904271E+02  0.00000000000E+00 0. -1.
          3    1    1    2  501    0  0.22480202015E+02 -0.57110937538E+02  0.19368670516E+02  0.64359646260E+02  0.00000000000E+00 0. -1.
<scales pt_clust_5="13000.00000" pt_clust_6="13000.00000" pt_clust_7="13000.00000" pt_clust_8="13000.00000" pt_clust_9="61.37604"></scales>
<clustering>
<clus scale="   61.376">  1  9  2 -1</clus>
<clus scale="   80.154">  5  6 -1 -1</clus>
<clus scale="   88.057">  7  8 -1 -1</clus>
<clus scale="  141.512">  2  5  1 -1</clus>
<clus scale="   61.376">  1  5  2 -1</clus>
</clustering>
</event>
<event>
 9    2  0.1356341E-004  0.1154667E+03  0.7546771E-02  0.1259125E+00
         -3   -1    0    0    0  501 -0.00000000000E+00  0.00000000000E+00  0.51609922631E+03  0.51609922631E+03  0.00000000000E+00 0.  1.
         21   -1    0    0  501  502  0.00000000000E+00 -0.00000000000E+00 -0.11036851579E+03  0.11036851579E+03  0.00000000000E+00 0.  1.
         23    2    1    2    0    0  0.19867378738E+02  0.30576971901E+02  0.42706344294E+03  0.43812324297E+03  0.90769641309E+02 0.  0.
         24    2    1    2    0    0 -0.14423222763E+00 -0.43051106308E+02  0.38734893904E+02  0.12390284901E+03  0.10953586367E+03 0.  0.
        -11    1    4    4    0    0  0.12578916418E+02  0.30527852194E+02  0.36472371590E+02  0.49197690873E+02  0.00000000000E+00 0.  1.
         12    1    4    4    0    0 -0.12723148645E+02 -0.73578958502E+02  0.22625223141E+01  0.74705158141E+02  0.00000000000E+00 0. -1.
        -13    1    3    3    0    0  0.29905463333E+02  0.56956891026E+02  0.35399402064E+03  0.35979187154E+03  0.00000000000E+00 0.  1.
         13    1    3    3    0    0 -0.10038084595E+02 -0.26379919126E+02  0.73069422300E+02  0.78331371434E+02  0.00000000000E+00 0. -1.
         -4    1    1    2    0  502 -0.19723146510E+02  0.12474134407E+02 -0.60067626329E+02  0.64441650121E+02  0.00000000000E+00 0.  1.
<scales pt_clust_5="13000.00000" pt_clust_6="13000.00000" pt_clust_7="13000.00000" pt_clust_8="13000.00000" pt_clust_9="23.33681"></scales>
<clustering>
<clus scale="   23.337">  2  9  1 -1</clus>
<clus scale="   90.770">  7  8 -1 -1</clus>
<clus scale="   97.845">  1  7  2 -1</clus>
<clus scale="  109.536">  5  6 -1 -1</clus>
<clus scale="   23.337">  2  5  1 -1</clus>
</clustering>
</event>
<event>
 9    2  0.4883225E-005  0.8678131E+02  0.7546771E-02  0.1310902E+00
          2   -1    0    0  502    0 -0.00000000000E+00  0.00000000000E+00  0.10233749344E+04  0.10233749344E+04  0.00000000000E+00 0. -1.
         21   -1    0    0  501  502  0.00000000000E+00 -0.00000000000E+00 -0.46871035680E+02  0.46871035680E+02  0.00000000000E+00 0.  1.
         24    2    1    2    0    0  0.29881762844E+02  0.17386968536E+02  0.95874524852E+03  0.96269164197E+03  0.79921958985E+02 0.  0.
         23    2    1    2    0    0 -0.18023448416E+02  0.24247074539E+01  0.79022278578E+01  0.82449125683E+02  0.80029302269E+02 0.  0.
        -13    1    3    3    0    0  0.28131214270E+02 -0.10911392990E+02  0.12976931868E+03  0.13323100159E+03  0.00000000000E+00 0.  1.
         14    1    3    3    0    0  0.17505485746E+01  0.28298361525E+02  0.82897592984E+03  0.82946064038E+03  0.00000000000E+00 0. -1.
        -13    1    4    4    0    0 -0.45624706865E+02 -0.88530079455E+01  0.19574248335E+02  0.50429562997E+02  0.00000000000E+00 0.  1.
         13    1    4    4    0    0  0.27601258449E+02  0.11277715399E+02 -0.11672020477E+02  0.32019562686E+02  0.00000000000E+00 0. -1.
          1    1    1    2  501    0 -0.11858314428E+02 -0.19811675990E+02  0.98564223080E+01  0.25105202395E+02  0.00000000000E+00 0. -1.
<scales pt_clust_5="13000.00000" pt_clust_6="13000.00000" pt_clust_7="13000.00000" pt_clust_8="13000.00000" pt_clust_9="23.08944"></scales>
<clustering>
<clus scale="   23.089">  2  9  1 -1</clus>
<clus scale="   79.922">  5  6 -1 -1</clus>
<clus scale="   80.029">  7  8 -1 -1</clus>
<clus scale="   86.682">  1  5  2 -1</clus>
<clus scale="   23.089">  2  5  1 -1</clus>
</clustering>
</event>
<event>
 9    2  0.4883225E-005  0.9279910E+02  0.7546771E-02  0.1301203E+00
          2   -1    0    0  502    0 -0.00000000000E+00  0.00000000000E+00  0.19478691750E+03  0.19478691750E+03  0.00000000000E+00 0. -1.
         21   -1    0    0  501  502  0.00000000000E+00 -0.00000000000E+00 -0.14535493920E+03  0.14535493920E+03  0.00000000000E+00 0.  1.
         24    2    1    2    0    0 -0.44117355100E+01  0.24080731358E+02  0.74959814492E+02  0.11317662389E+03  0.81182691343E+02 0.  0.
         23    2    1    2    0    0  0.41757872250E+02 -0.82382589108E+01 -0.10079353310E+03  0.14146293463E+03  0.89670712915E+02 0.  0.
        -13    1    3    3    0    0  0.24291808732E+02 -0.19759486428E+02  0.19560008121E+02  0.36920498278E+02  0.00000000000E+00 0.  1.
         14    1    3    3    0    0 -0.28703544242E+02  0.43840217786E+02  0.55399806371E+02  0.76256125613E+02  0.00000000000E+00 0. -1.
        -11    1    4    4    0    0  0.39573290467E+02  0.15327338083E+02 -0.10855556992E+03  0.11655592809E+03  0.00000000000E+00 0.  1.
         11    1    4    4    0    0  0.21845817830E+01 -0.23565596994E+02  0.77620368239E+01  0.24907006543E+02  0.00000000000E+00 0. -1.
          1    1    1    2  501    0 -0.37346136740E+02 -0.15842472447E+02  0.75265696912E+02  0.85502298181E+02  0.00000000000E+00 0. -1.
<scales pt_clust_5="13000.00000" pt_clust_6="13000.00000" pt_clust_7="13000.00000" pt_clust_8="13000.00000" pt_clust_9="40.56747"></scales>
<clustering>
<clus scale="   40.567">  2  9  1 -1</clus>
<clus scale="   81.183">  5  6 -1 -1</clus>
<clus scale="   84.625">  1  5  2 -1</clus>
<clus scale="   89.671">  7  8 -1 -1</clus>
<clus scale="   40.567">  2  5  1 -1</clus>
</clustering>
</event>
<event>
 9    2  0.4883225E-005  0.1285923E+03  0.7546771E-02  0.1238086E+00
          2   -1    0    0  502    0 -0.00000000000E+00  0.00000000000E+00  0.24738450898E+02  0.24738450898E+02  0.00000000000E+00 0. -1.
         21   -1    0    0  501  502  0.00000000000E+00 -0.00000000000E+00 -0.14555739123E+04  0.14555739123E+04  0.00000000000E+00 0. -1.
         24    2    1    2    0    0 -0.32475394606E+02  0.71168080299E+02 -0.20036503236E+03  0.22759594192E+03  0.74392336137E+02 0.  0.
         23    2    1    2    0    0  0.43869321787E+02  0.43912709632E+02 -0.41758652470E+03  0.43164781774E+03  0.89936029962E+02 0.  0.
        -13    1    3    3    0    0  0.15191973539E+02  0.26509188347E+02 -0.12104974115E+03  0.12484619722E+03  0.00000000000E+00 0.  1.
         14    1    3    3    0    0 -0.47667368145E+02  0.44658891952E+02 -0.79315291211E+02  0.10274974470E+03  0.00000000000E+00 0. -1.
        -13    1    4    4    0    0  0.67101704079E+02  0.16871248194E+02 -0.21234841574E+03  0.22333635480E+03  0.00000000000E+00 0. -1.
         13    1    4    4    0    0 -0.23232382293E+02  0.27041461438E+02 -0.20523810896E+03  0.20831146294E+03  0.00000000000E+00 0.  1.
          1    1    1    2  501    0 -0.11393927180E+02 -0.11508078993E+03 -0.81288390437E+03  0.82106860357E+03  0.00000000000E+00 0. -1.
<scales pt_clust_5="13000.00000" pt_clust_6="13000.00000" pt_clust_7="13000.00000" pt_clust_8="13000.00000" pt_clust_9="91.91026"></scales>
<clustering>
<clus scale="   74.392">  5  6 -1 -1</clus>
<clus scale="   89.936">  7  8 -1 -1</clus>
<clus scale="  107.953">  1  5  2 -1</clus>
<clus scale="   91.910">  2  9  1 -1</clus>
<clus scale="   91.910">  2  5  1 -1</clus>
</clustering>
</event>
<event>
 9    2  0.4883225E-005  0.1277908E+03  0.7546771E-02  0.1249773E+00
         21   -1    0    0  501  502  0.00000000000E+00  0.00000000000E+00  0.41412690133E+03  0.41412690133E+03  0.00000000000E+00 0. -1.
         -1   -1    0    0    0  501 -0.00000000000E+00 -0.00000000000E+00 -0.65030668978E+02  0.65030668978E+02  0.00000000000E+00 0.  1.
         24    2    1    2    0    0 -0.11432418142E+02 -0.24207241951E+02  0.93946418759E+01  0.85397012894E+02  0.80546258559E+02 0.  0.
         23    2    1    2    0    0 -0.16323426854E+01  0.74336044201E+02  0.27813731217E+03  0.31330097033E+03  0.12356626391E+03 0.  0.
        -13    1    3    3    0    0 -0.24685794904E+02 -0.49426993500E+02 -0.46024489429E+00  0.55250592592E+02  0.00000000000E+00 0.  1.
         14    1    3    3    0    0  0.13253376761E+02  0.25219751549E+02  0.98548867701E+01  0.30146420302E+02  0.00000000000E+00 0. -1.
        -13    1    4    4    0    0  0.12100996986E+02  0.10745745100E+03  0.20118528548E+03  0.22840546622E+03  0.00000000000E+00 0. -1.
         13    1    4    4    0    0 -0.13733339672E+02 -0.33121406799E+02  0.76952026686E+02  0.84895504109E+02  0.00000000000E+00 0.  1.
         -2    1    1    2    0  502  0.13064760828E+02 -0.50128802250E+02  0.61564278307E+02  0.80459587085E+02  0.00000000000E+00 0.  1.
<scales pt_clust_5="13000.00000" pt_clust_6="13000.00000" pt_clust_7="13000.00000" pt_clust_8="13000.00000" pt_clust_9="51.80333"></scales>
<clustering>
<clus scale="   51.803">  1  9  2 -1</clus>
<clus scale="   80.546">  5  6 -1 -1</clus>
<clus scale="   86.888">  2  5  1 -1</clus>
<clus scale="  123.566">  7  8 -1 -1</clus>
<clus scale="   51.803">  1  5  2 -1</clus>
</clustering>
</event>
<event>
 9    2  0.4883225E-005  0.4247166E+03  0.7546771E-02  0.1085853E+00
         21   -1    0    0  501  502  0.00000000000E+00  0.00000000000E+00  0.36353929745E+03  0.36353929745E+03  0.00000000000E+00 0.  1.
          2   -1    0    0  502    0 -0.00000000000E+00 -0.00000000000E+00 -0.67449031345E+03  0.67449031345E+03  0.00000000000E+00 0. -1.
         24    2    1    2    0    0  0.53830374323E+02 -0.37731693619E+02 -0.14551873295E+03  0.17887084559E+03  0.80608236923E+02 0.  0.
         23    2    1    2    0    0 -0.35695470800E+03 -0.23133331634E+03 -0.52485255194E+02  0.43840067287E+03  0.92242512664E+02 0.  0.
        -13    1    3    3    0    0  0.34316029955E+02 -0.57059805468E+02 -0.13289601133E+03  0.14864306623E+03  0.00000000000E+00 0.  1.
         14    1    3    3    0    0  0.19514344368E+02  0.19328111849E+02 -0.12622721621E+02  0.30227779358E+02  0.00000000000E+00 0. -1.
        -11    1    4    4    0    0 -0.37882174078E+02 -0.64553151111E+02 -0.15871519465E+02  0.76511917773E+02  0.00000000000E+00 0. -1.
         11    1    4    4    0    0 -0.31907253392E+03 -0.16678016523E+03 -0.36613735729E+02  0.36188875509E+03  0.00000000000E+00 0.  1.
          1    1    1    2  501    0  0.30312433368E+03  0.26906500996E+03 -0.11294702786E+03  0.42075809244E+03  0.00000000000E+00 0. -1.
<scales pt_clust_5="13000.00000" pt_clust_6="13000.00000" pt_clust_7="13000.00000" pt_clust_8="13000.00000" pt_clust_9="414.57895"></scales>
<clustering>
<clus scale="   80.608">  5  6 -1 -1</clus>
<clus scale="   92.243">  7  8 -1 -1</clus>
<clus scale="  104.015">  2  5  1 -1</clus>
<clus scale="  414.579">  1  9  2 -1</clus>
<clus scale="  414.579">  1  5  2 -1</clus>
</clustering>
</event>
<event>
 9    2  0.4883225E-005  0.1214981E+03  0.7546771E-02  0.1257071E+00
          2   -1    0    0  502    0 -0.00000000000E+00  0.00000000000E+00  0.20269717641E+03  0.20269717641E+03  0.00000000000E+00 0. -1.
         21   -1    0    0  501  502  0.00000000000E+00 -0.00000000000E+00 -0.12001629825E+03  0.12001629825E+03  0.00000000000E+00 0. -1.
         24    2    1    2    0    0  0.22668236821E+02 -0.14880961369E+02  0.64503828402E+02  0.10681787857E+03  0.80709499642E+02 0.  0.
         23    2    1    2    0    0 -0.66353736557E+02 -0.44239992918E+02  0.16810209977E+02  0.14237295757E+03  0.11673680037E+03 0.  0.
        -13    1    3    3    0    0  0.16397565431E+02  0.32935765270E+02  0.30792189792E+02  0.47977116818E+02  0.00000000000E+00 0.  1.
         14    1    3    3    0    0  0.62706713897E+01 -0.47816726639E+02  0.33711638610E+02  0.58840761755E+02  0.00000000000E+00 0. -1.
        -13    1    4    4    0    0 -0.57604052819E+02  0.14464665224E+02  0.47040639886E+02  0.75764604151E+02  0.00000000000E+00 0.  1.
         13    1    4    4    0    0 -0.87496837379E+01 -0.58704658142E+02 -0.30230429909E+02  0.66608353422E+02  0.00000000000E+00 0. -1.
          1    1    1    2  501    0  0.43685499736E+02  0.59120954286E+02  0.13668397762E+01  0.73522638513E+02  0.00000000000E+00 0. -1.
<scales pt_clust_5="13000.00000" pt_clust_6="13000.00000" pt_clust_7="13000.00000" pt_clust_8="13000.00000" pt_clust_9="73.50993"></scales>
<clustering>
<clus scale="   73.510">  2  9  1 -1</clus>
<clus scale="   80.709">  5  6 -1 -1</clus>
<clus scale="   87.455">  1  5  2 -1</clus>
<clus scale="  116.737">  7  8 -1 -1</clus>
<clus scale="   73.510">  2  5  1 -1</clus>
</clustering>
</event>
<event>
 9    2  0.4883225E-005  0.1192645E+03  0.7546771E-02  0.1262483E+00
         21   -1    0    0  501  502  0.00000000000E+00  0.00000000000E+00  0.66037727360E+02  0.66037727360E+02  0.00000000000E+00 0. -1.
          2   -1    0    0  502    0 -0.00000000000E+00 -0.00000000000E+00 -0.37912607001E+03  0.37912607001E+03  0.00000000000E+00 0. -1.
         24    2    1    2    0    0 -0.59976357525E+01  0.22973861061E+02 -0.19196781449E+03  0.20919364661E+03  0.79665362970E+02 0.  0.
         23    2    1    2    0    0  0.34314696804E+02  0.58883869689E+02 -0.51811143398E+02  0.12503622968E+03  0.91130980600E+02 0.  0.
        -13    1    3    3    0    0  0.33449324963E+02  0.24017648718E+02 -0.12330533010E+03  0.12999965085E+03  0.00000000000E+00 0.  1.
         14    1    3    3    0    0 -0.39446960716E+02 -0.10437876572E+01 -0.68662484394E+02  0.79193995767E+02  0.00000000000E+00 0. -1.
        -11    1    4    4    0    0  0.32126349073E+02  0.12584964848E+02 -0.67743251245E+02  0.76023889233E+02  0.00000000000E+00 0. -1.
         11    1    4    4    0    0  0.21883477315E+01  0.46298904841E+02  0.15932107847E+02  0.49012340443E+02  0.00000000000E+00 0.  1.
          1    1    1    2  501    0 -0.28317061052E+02 -0.81857730750E+02 -0.69309384765E+02  0.11093392108E+03  0.00000000000E+00 0. -1.
<scales pt_clust_5="13000.00000" pt_clust_6="13000.00000" pt_clust_7="13000.00000" pt_clust_8="13000.00000" pt_clust_9="76.93610"></scales>
<clustering>
<clus scale="   79.665">  5  6 -1 -1</clus>
<clus scale="   83.128">  2  5  1 -1</clus>
<clus scale="   76.936">  1  9  2 -1</clus>
<clus scale="   91.131">  7  8 -1 -1</clus>
<clus scale="   76.936">  1  5  2 -1</clus>
</clustering>
</event>
<event>
 9    2  0.4883225E-005  0.9387411E+02  0.7546771E-02  0.1298987E+00
         -1   -1    0    0    0  501 -0.00000000000E+00  0.00000000000E+00  0.47188657643E+02  0.47188657643E+02  0.00000000000E+00 0.  1.
         21   -1    0    0  501  502  0.00000000000E+00 -0.00000000000E+00 -0.41190094513E+03  0.41190094513E+03  0.00000000000E+00 0. -1.
         24    2    1    2    0    0  0.16953633341E+02  0.24563256071E+02 -0.39996216680E+02  0.96437339017E+02  0.82520808138E+02 0.  0.
         23    2    1    2    0    0 -0.67653790465E+00  0.21513523744E+02 -0.28366903668E+03  0.29883320325E+03  0.91487002259E+02 0.  0.
        -11    1    3    3    0    0  0.39814911271E+02  0.37116431410E+02 -0.77768636975E+01  0.54984872911E+02  0.00000000000E+00 0.  1.
         12    1    3    3    0    0 -0.22861277930E+02 -0.12553175339E+02 -0.32219352983E+02  0.41452466106E+02  0.00000000000E+00 0. -1.
        -13    1    4    4    0    0  0.18573704229E+02 -0.22614917942E+02 -0.35357327043E+02  0.45897250222E+02  0.00000000000E+00 0.  1.
         13    1    4    4    0    0 -0.19250242134E+02  0.44128441687E+02 -0.24831170964E+03  0.25293595302E+03  0.00000000000E+00 0. -1.
         -2    1    1    2    0  502 -0.16277095436E+02 -0.46076779815E+02 -0.41047034127E+02  0.63819060512E+02  0.00000000000E+00 0.  1.
<scales pt_clust_5="13000.00000" pt_clust_6="13000.00000" pt_clust_7="13000.00000" pt_clust_8="13000.00000" pt_clust_9="48.86733"></scales>
<clustering>
<clus scale="   48.867">  2  9  1 -1</clus>
<clus scale="   82.521">  5  6 -1 -1</clus>
<clus scale="   85.160">  1  5  2 -1</clus>
<clus scale="   91.487">  7  8 -1 -1</clus>
<clus scale="   48.867">  2  5  1 -1</clus>
</clustering>
</event>
<event>
 9    2  0.4883225E-005  0.9368954E+02  0.7546771E-02  0.1301073E+00
         21   -1    0    0  501  502  0.00000000000E+00  0.00000000000E+00  0.17685085517E+03  0.17685085517E+03  0.00000000000E+00 0. -1.
          2   -1    0    0  502    0 -0.00000000000E+00 -0.00000000000E+00 -0.11713823297E+03  0.11713823297E+03  0.00000000000E+00 0. -1.
         24    2    1    2    0    0  0.17152747356E+02 -0.35693760473E+01 -0.59744505203E+02  0.10143675265E+03  0.80081531576E+02 0.  0.
         23    2    1    2    0    0 -0.10348034353E+02  0.43678576424E+02  0.53889708608E+02  0.11538927126E+03  0.91627961748E+02 0.  0.
        -11    1    3    3    0    0 -0.20606802290E+02  0.26101702967E+02 -0.31031269485E+02  0.45484930299E+02  0.00000000000E+00 0.  1.
         12    1    3    3    0    0  0.37759549647E+02 -0.29671079014E+02 -0.28713235717E+02  0.55951822354E+02  0.00000000000E+00 0. -1.
        -13    1    4    4    0    0 -0.48932579349E+02  0.12293106536E+02  0.38042569956E+02  0.63188249849E+02  0.00000000000E+00 0.  1.
         13    1    4    4    0    0  0.38584544997E+02  0.31385469887E+02  0.15847138653E+02  0.52201021409E+02  0.00000000000E+00 0. -1.
          1    1    1    2  501    0 -0.68047130035E+01 -0.40109200376E+02  0.65567418798E+02  0.77163064232E+02  0.00000000000E+00 0. -1.
<scales pt_clust_5="13000.00000" pt_clust_6="13000.00000" pt_clust_7="13000.00000" pt_clust_8="13000.00000" pt_clust_9="40.68233"></scales>
<clustering>
<clus scale="   40.682">  1  9  2 -1</clus>
<clus scale="   80.082">  5  6 -1 -1</clus>
<clus scale="   82.432">  2  5  1 -1</clus>
<clus scale="   91.628">  7  8 -1 -1</clus>
<clus scale="   40.682">  1  5  2 -1</clus>
</clustering>
</event>
<event>
 9    2  0.4883225E-005  0.1498081E+03  0.7546771E-02  0.1215293E+00
          2   -1    0    0  502    0 -0.00000000000E+00  0.00000000000E+00  0.59338420308E+03  0.59338420308E+03  0.00000000000E+00 0. -1.
         21   -1    0    0  501  502  0.00000000000E+00 -0.00000000000E+00 -0.70032846036E+02  0.70032846036E+02  0.00000000000E+00 0. -1.
         23    2    1    2    0    0 -0.32161939195E+02  0.36125890181E+02  0.18485083732E+03  0.21490219403E+03  0.98354718583E+02 0.  0.
         24    2    1    2    0    0 -0.10819832154E+03 -0.52166033161E+02  0.11740897768E+03  0.18614153529E+03  0.80222386648E+02 0.  0.
        -13    1    4    4    0    0 -0.37686453295E+02  0.20688138930E+02  0.32467891654E+02  0.53874222433E+02  0.00000000000E+00 0.  1.
         14    1    4    4    0    0 -0.70511868242E+02 -0.72854172091E+02  0.84941086027E+02  0.13226731285E+03  0.00000000000E+00 0. -1.
        -13    1    3    3    0    0 -0.16079797682E+01  0.66225158354E+02  0.12174938885E+03  0.13860472893E+03  0.00000000000E+00 0. -1.
         13    1    3    3    0    0 -0.30553959426E+02 -0.30099268172E+02  0.63101448474E+02  0.76297465100E+02  0.00000000000E+00 0.  1.
          1    1    1    2  501    0  0.14036026073E+03  0.16040142980E+02  0.22109154204E+03  0.26237331980E+03  0.00000000000E+00 0. -1.
<scales pt_clust_5="13000.00000" pt_clust_6="13000.00000" pt_clust_7="13000.00000" pt_clust_8="13000.00000" pt_clust_9="126.51815"></scales>
<clustering>
<clus scale="   80.222">  5  6 -1 -1</clus>
<clus scale="   98.355">  7  8 -1 -1</clus>
<clus scale="  109.604">  1  7  2 -1</clus>
<clus scale="  126.518">  2  9  1 -1</clus>
<clus scale="  126.518">  2  5  1 -1</clus>
</clustering>
</event>
<event>
 9    2  0.4883225E-005  0.9554505E+02  0.7546771E-02  0.1293646E+00
         21   -1    0    0  501  502  0.00000000000E+00  0.00000000000E+00  0.30457089055E+02  0.30457089055E+02  0.00000000000E+00 0. -1.
          2   -1    0    0  502    0 -0.00000000000E+00 -0.00000000000E+00 -0.83497864843E+03  0.83497864843E+03  0.00000000000E+00 0. -1.
         23    2    1    2    0    0 -0.88399622089E+01  0.16156437336E+02 -0.24055999474E+03  0.25768918816E+03  0.90528621034E+02 0.  0.
         24    2    1    2    0    0 -0.78421670394E+02 -0.34542138552E+02 -0.18868518535E+03  0.22201997857E+03  0.79672165732E+02 0.  0.
        -13    1    4    4    0    0 -0.11958640105E+02  0.17562945811E+02 -0.82398928363E+01  0.22789514533E+02  0.00000000000E+00 0.  1.
         14    1    4    4    0    0 -0.66463030289E+02 -0.52105084362E+02 -0.18044529251E+03  0.19923046404E+03  0.00000000000E+00 0. -1.
        -11    1    3    3    0    0 -0.12563950988E+02  0.46323978415E+02 -0.72806677182E+02  0.87204220557E+02  0.00000000000E+00 0. -1.
         11    1    3    3    0    0  0.37239887792E+01 -0.30167541079E+02 -0.16775331756E+03  0.17048496760E+03  0.00000000000E+00 0.  1.
          1    1    1    2  501    0  0.87261632603E+02  0.18385701216E+02 -0.37527637928E+03  0.38572657075E+03  0.00000000000E+00 0. -1.
<scales pt_clust_5="13000.00000" pt_clust_6="13000.00000" pt_clust_7="13000.00000" pt_clust_8="13000.00000" pt_clust_9="89.17754"></scales>
<clustering>
<clus scale="   79.672">  5  6 -1 -1</clus>
<clus scale="   89.178">  1  9  2 -1</clus>
<clus scale="   89.178">  1  5  2 -1</clus>
<clus scale="   90.529">  7  8 -1 -1</clus>
<clus scale="   89.178">  1  5  2 -1</clus>
</clustering>
</event>
<event>
 9    2  0.4883225E-005  0.1922265E+03  0.7546771E-02  0.1186533E+00
          2   -1    0    0  502    0 -0.00000000000E+00  0.00000000000E+00  0.11049275514E+04  0.11049275514E+04  0.00000000000E+00 0. -1.
         21   -1    0    0  501  502  0.00000000000E+00 -0.00000000000E+00 -0.71502330498E+02  0.71502330498E+02  0.00000000000E+00 0. -1.
         24    2    1    2    0    0 -0.19453038444E+02 -0.43119939062E+02  0.51271674111E+03  0.52177524891E+03  0.84458296885E+02 0.  0.
         23    2    1    2    0    0  0.10976602233E+03 -0.11955978629E+03  0.14762337787E+03  0.23774502483E+03  0.91580090541E+02 0.  0.
        -13    1    3    3    0    0 -0.19314926485E+02  0.23336637217E+02  0.15256136243E+03  0.15553981589E+03  0.00000000000E+00 0.  1.
         14    1    3    3    0    0 -0.13811195968E+00 -0.66456576279E+02  0.36015537868E+03  0.36623543302E+03  0.00000000000E+00 0. -1.
        -13    1    4    4    0    0  0.74680887710E+02 -0.71934097101E+02  0.14535308777E+03  0.17854766713E+03  0.00000000000E+00 0. -1.
         13    1    4    4    0    0  0.35085134615E+02 -0.47625689188E+02  0.22702901067E+01  0.59197357701E+02  0.00000000000E+00 0.  1.
          1    1    1    2  501    0 -0.90312983881E+02  0.16267972535E+03  0.37308510193E+03  0.41690960816E+03  0.00000000000E+00 0. -1.
<scales pt_clust_5="13000.00000" pt_clust_6="13000.00000" pt_clust_7="13000.00000" pt_clust_8="13000.00000" pt_clust_9="169.00928"></scales>
<clustering>
<clus scale="   84.458">  5  6 -1 -1</clus>
<clus scale="   91.580">  7  8 -1 -1</clus>
<clus scale="   96.804">  1  5  2 -1</clus>
<clus scale="  169.009">  2  9  1 -1</clus>
<clus scale="  169.009">  2  5  1 -1</clus>
</clustering>
</event>
<event>
 9    2  0.5169102E-005  0.1134019E+03  0.7546771E-02  0.1258921E+00
          2   -1    0    0  502    0 -0.00000000000E+00  0.00000000000E+00  0.23934261011E+03  0.23934261011E+03  0.00000000000E+00 0. -1.
         21   -1    0    0  501  502  0.00000000000E+00 -0.00000000000E+00 -0.32659728735E+03  0.32659728735E+03  0.00000000000E+00 0.  1.
         23    2    1    2    0    0  0.62127477883E+02  0.25122737730E+02  0.21214741080E+03  0.24088672360E+03  0.92352120920E+02 0.  0.
         24    2    1    2    0    0 -0.51065089850E+02 -0.61717566473E+01 -0.17987939008E+03  0.20353284043E+03  0.80145418935E+02 0.  0.
        -11    1    4    4    0    0  0.38419190479E+01 -0.27954099655E+02 -0.10172976444E+03  0.10557053094E+03  0.00000000000E+00 0.  1.
         12    1    4    4    0    0 -0.54907008898E+02  0.21782343008E+02 -0.78149625634E+02  0.97962309486E+02  0.00000000000E+00 0. -1.
        -13    1    3    3    0    0  0.35396467247E+02  0.44490678851E+02  0.19611424695E+03  0.20418895233E+03  0.00000000000E+00 0. -1.
         13    1    3    3    0    0  0.26731010636E+02 -0.19367941121E+02  0.16033163849E+02  0.36697771266E+02  0.00000000000E+00 0.  1.
          1    1    1    2  501    0 -0.11062388033E+02 -0.18950981083E+02 -0.11952269796E+03  0.12152033344E+03  0.00000000000E+00 0. -1.
<scales pt_clust_5="13000.00000" pt_clust_6="13000.00000" pt_clust_7="13000.00000" pt_clust_8="13000.00000" pt_clust_9="21.94348"></scales>
<clustering>
<clus scale="   21.943">  2  9  1 -1</clus>
<clus scale="   80.145">  5  6 -1 -1</clus>
<clus scale="   92.352">  7  8 -1 -1</clus>
<clus scale="  103.703">  2  5  1 -1</clus>
<clus scale="   21.943">  2  5  1 -1</clus>
</clustering>
</event>
<event>
 9    2  0.4883225E-005  0.9594968E+02  0.7546771E-02  0.1296813E+00
          2   -1    0    0  502    0 -0.00000000000E+00  0.00000000000E+00  0.28480880703E+03  0.28480880703E+03  0.00000000000E+00 0. -1.
         21   -1    0    0  501  502  0.00000000000E+00 -0.00000000000E+00 -0.38642416324E+02  0.38642416324E+02  0.00000000000E+00 0.  1.
         23    2    1    2    0    0 -0.23790477460E+01 -0.14701018600E+02  0.10325813642E+03  0.14009744258E+03  0.93505459008E+02 0.  0.
         24    2    1    2    0    0  0.29773616074E+02  0.12139484546E+02  0.97576339287E+02  0.13032542658E+03  0.80185656613E+02 0.  0.
        -13    1    4    4    0    0  0.26446778555E+02  0.24765724223E+02  0.10781014058E+03  0.11373565669E+03  0.00000000000E+00 0.  1.
         14    1    4    4    0    0  0.33268375196E+01 -0.12626239677E+02 -0.10233801288E+02  0.16589769892E+02  0.00000000000E+00 0. -1.
        -11    1    3    3    0    0 -0.28547776986E+02  0.28301398009E+02  0.66725983893E+02  0.77899304404E+02  0.00000000000E+00 0. -1.
         11    1    3    3    0    0  0.26168729240E+02 -0.43002416609E+02  0.36532152527E+02  0.62198138176E+02  0.00000000000E+00 0.  1.
          1    1    1    2  501    0 -0.27394568328E+02  0.25615340531E+01  0.45331914998E+02  0.53028354189E+02  0.00000000000E+00 0. -1.
<scales pt_clust_5="13000.00000" pt_clust_6="13000.00000" pt_clust_7="13000.00000" pt_clust_8="13000.00000" pt_clust_9="27.51408"></scales>
<clustering>
<clus scale="   27.514">  2  9  1 -1</clus>
<clus scale="   80.186">  5  6 -1 -1</clus>
<clus scale="   83.023">  2  5  1 -1</clus>
<clus scale="   93.505">  7  8 -1 -1</clus>
<clus scale="   27.514">  2  5  1 -1</clus>
</clustering>
</event>
<event>
 9    2  0.4883225E-005  0.1620350E+03  0.7546771E-02  0.1210512E+00
          4   -1    0    0  502    0 -0.00000000000E+00  0.00000000000E+00  0.43825779952E+02  0.43825779952E+02  0.00000000000E+00 0. -1.
         21   -1    0    0  501  502  0.00000000000E+00 -0.00000000000E+00 -0.13526362653E+04  0.13526362653E+04  0.00000000000E+00 0.  1.
         23    2    1    2    0    0 -0.92836565877E+01  0.31541678941E+02 -0.76257419586E+02  0.12250745686E+03  0.90065638031E+02 0.  0.
         24    2    1    2    0    0 -0.12016356242E+03  0.57016281063E+02 -0.77400749267E+03  0.78932778622E+03  0.79124062978E+02 0.  0.
        -11    1    4    4    0    0 -0.95711677058E+02  0.75982520329E+02 -0.56698290408E+03  0.58000317417E+03  0.00000000000E+00 0.  1.
         12    1    4    4    0    0 -0.24451885363E+02 -0.18966239266E+02 -0.20702458859E+03  0.20932461205E+03  0.00000000000E+00 0. -1.
        -11    1    3    3    0    0  0.36038508852E+02  0.17713647049E+02 -0.60417502252E+02  0.72545309914E+02  0.00000000000E+00 0. -1.
         11    1    3    3    0    0 -0.45322165440E+02  0.13828031891E+02 -0.15839917333E+02  0.49962146944E+02  0.00000000000E+00 0.  1.
          3    1    1    2  501    0  0.12944721901E+03 -0.88557960003E+02 -0.45854557311E+03  0.48462680220E+03  0.00000000000E+00 0. -1.
<scales pt_clust_5="13000.00000" pt_clust_6="13000.00000" pt_clust_7="13000.00000" pt_clust_8="13000.00000" pt_clust_9="141.40280"></scales>
<clustering>
<clus scale="   79.124">  5  6 -1 -1</clus>
<clus scale="   90.066">  7  8 -1 -1</clus>
<clus scale="   95.880">  1  7  2 -1</clus>
<clus scale="  141.403">  2  9  1 -1</clus>
<clus scale="  141.403">  2  5  1 -1</clus>
</clustering>
</event>
<event>
 9    2  0.4883225E-005  0.9709488E+02  0.7546771E-02  0.1292260E+00
         21   -1    0    0  501  502  0.00000000000E+00  0.00000000000E+00  0.35359707770E+02  0.35359707770E+02  0.00000000000E+00 0. -1.
          2   -1    0    0  502    0 -0.00000000000E+00 -0.00000000000E+00 -0.54862366261E+03  0.54862366261E+03  0.00000000000E+00 0. -1.
         24    2    1    2    0    0  0.42356940263E+02  0.26526966161E+02 -0.31822237067E+03  0.33200066130E+03  0.80381413190E+02 0.  0.
         23    2    1    2    0    0 -0.13462117288E+02  0.90788185081E+01 -0.18227543062E+03  0.20438378710E+03  0.91020581615E+02 0.  0.
        -13    1    3    3    0    0 -0.20464556698E+02 -0.31947381438E+01 -0.12401650589E+03  0.12573423625E+03  0.00000000000E+00 0.  1.
         14    1    3    3    0    0  0.62821496961E+02  0.29721704305E+02 -0.19420586479E+03  0.20626642506E+03  0.00000000000E+00 0. -1.
        -13    1    4    4    0    0 -0.14259282987E+02 -0.24722825912E+02 -0.12299505961E+02  0.31077694883E+02  0.00000000000E+00 0.  1.
         13    1    4    4    0    0  0.79716569877E+00  0.33801644420E+02 -0.16997592465E+03  0.17330609222E+03  0.00000000000E+00 0. -1.
          1    1    1    2  501    0 -0.28894822975E+02 -0.35605784669E+02 -0.12766153552E+02  0.47598921974E+02  0.00000000000E+00 0. -1.
<scales pt_clust_5="13000.00000" pt_clust_6="13000.00000" pt_clust_7="13000.00000" pt_clust_8="13000.00000" pt_clust_9="45.85502"></scales>
<clustering>
<clus scale="   45.855">  1  9  2 -1</clus>
<clus scale="   80.381">  5  6 -1 -1</clus>
<clus scale="   87.200">  2  5  1 -1</clus>
<clus scale="   91.021">  7  8 -1 -1</clus>
<clus scale="   45.855">  1  5  2 -1</clus>
</clustering>
</event>
<event>
 9    2  0.4883225E-005  0.1014263E+03  0.7546771E-02  0.1278183E+00
         -1   -1    0    0    0  501 -0.00000000000E+00  0.00000000000E+00  0.12045964388E+03  0.12045964388E+03  0.00000000000E+00 0.  1.
         21   -1    0    0  501  502  0.00000000000E+00 -0.00000000000E+00 -0.40686983674E+03  0.40686983674E+03  0.00000000000E+00 0.  1.
         23    2    1    2    0    0 -0.43087568718E+01 -0.45506377625E+02  0.26780872998E+02  0.10565836879E+03  0.91417065943E+02 0.  0.
         24    2    1    2    0    0 -0.90294247291E+02  0.13793530003E+02 -0.37482809880E+02  0.12846388901E+03  0.82186964770E+02 0.  0.
        -13    1    4    4    0    0 -0.58572548087E+02  0.35680920917E+02  0.77701754354E+01  0.69023525940E+02  0.00000000000E+00 0.  1.
         14    1    4    4    0    0 -0.31721699204E+02 -0.21887390914E+02 -0.45252985315E+02  0.59440363065E+02  0.00000000000E+00 0. -1.
        -13    1    3    3    0    0  0.15311962266E+02 -0.39820606491E+02 -0.25378942944E+02  0.49640987447E+02  0.00000000000E+00 0. -1.
         13    1    3    3    0    0 -0.19620719138E+02 -0.56857711341E+01  0.52159815942E+02  0.56017381339E+02  0.00000000000E+00 0.  1.
         -2    1    1    2    0  502  0.94603004163E+02  0.31712847622E+02 -0.27570825598E+03  0.29320722282E+03  0.00000000000E+00 0.  1.
<scales pt_clust_5="13000.00000" pt_clust_6="13000.00000" pt_clust_7="13000.00000" pt_clust_8="13000.00000" pt_clust_9="99.77692"></scales>
<clustering>
<clus scale="   82.187">  5  6 -1 -1</clus>
<clus scale="   91.417">  7  8 -1 -1</clus>
<clus scale="   99.777">  2  9  1 -1</clus>
<clus scale="   99.777">  2  5  1 -1</clus>
<clus scale="   99.777">  2  5  1 -1</clus>
</clustering>
</event>
<event>
 9    2  0.4883225E-005  0.2665723E+03  0.7546771E-02  0.1103825E+00
         21   -1    0    0  501  502  0.00000000000E+00  0.00000000000E+00  0.25515145040E+03  0.25515145040E+03  0.00000000000E+00 0.  1.
         -1   -1    0    0    0  501 -0.00000000000E+00 -0.00000000000E+00 -0.51157374271E+03  0.51157374271E+03  0.00000000000E+00 0.  1.
         23    2    1    2    0    0 -0.65487630401E+02  0.25043319090E+03 -0.35992593631E+03  0.45277635665E+03  0.91947466902E+02 0.  0.
         24    2    1    2    0    0  0.94988683337E+02 -0.19907837737E+03  0.98577814408E+02  0.25451910658E+03  0.80045860750E+02 0.  0.
        -13    1    4    4    0    0  0.10184977555E+03 -0.15509710466E+03  0.98355219131E+02  0.21000532799E+03  0.00000000000E+00 0.  1.
         14    1    4    4    0    0 -0.68610922181E+01 -0.43981272714E+02  0.22259527699E+00  0.44513778593E+02  0.00000000000E+00 0. -1.
        -13    1    3    3    0    0 -0.71626218847E+02  0.10949630025E+03 -0.20547096887E+03  0.24359407637E+03  0.00000000000E+00 0. -1.
         13    1    3    3    0    0  0.61385884459E+01  0.14093689065E+03 -0.15445496743E+03  0.20918228027E+03  0.00000000000E+00 0.  1.
         -2    1    1    2    0  502 -0.29501052936E+02 -0.51354813530E+02  0.49258295854E+01  0.59429729885E+02  0.00000000000E+00 0.  1.
<scales pt_clust_5="13000.00000" pt_clust_6="13000.00000" pt_clust_7="13000.00000" pt_clust_8="13000.00000" pt_clust_9="59.22524"></scales>
<clustering>
<clus scale="   59.225">  1  9  2 -1</clus>
<clus scale="   80.046">  5  6 -1 -1</clus>
<clus scale="   91.947">  7  8 -1 -1</clus>
<clus scale="  262.705">  1  5  2 -1</clus>
<clus scale="   59.225">  1  5  2 -1</clus>
</clustering>
</event>
<event>
 9    2  0.4883225E-005  0.9880914E+02  0.7546771E-02  0.1288711E+00
         21   -1    0    0  501  502  0.00000000000E+00  0.00000000000E+00  0.57681186134E+02  0.57681186134E+02  0.00000000000E+00 0.  1.
         -1   -1    0    0    0  501 -0.00000000000E+00 -0.00000000000E+00 -0.36942611545E+03  0.36942611545E+03  0.00000000000E+00 0.  1.
         23    2    1    2    0    0  0.17375081524E+02 -0.31974843979E+02 -0.16541948311E+03  0.19249100299E+03  0.91459809389E+02 0.  0.
         24    2    1    2    0    0  0.38457359830E+02  0.51829748145E+02 -0.35308993355E+02  0.10877460626E+03  0.80124269962E+02 0.  0.
        -11    1    4    4    0    0  0.59839193668E+02  0.17898749931E+02 -0.25659164746E+02  0.67523974138E+02  0.00000000000E+00 0.  1.
         12    1    4    4    0    0 -0.21381833838E+02  0.33930998214E+02 -0.96498286089E+01  0.41250632120E+02  0.00000000000E+00 0. -1.
        -11    1    3    3    0    0  0.35982291472E+02 -0.52144849734E+02 -0.14515266181E+03  0.15837646885E+03  0.00000000000E+00 0.  1.
         11    1    3    3    0    0 -0.18607209948E+02  0.20170005754E+02 -0.20266821300E+02  0.34114534142E+02  0.00000000000E+00 0. -1.
         -2    1    1    2    0  502 -0.55832441354E+02 -0.19854904166E+02 -0.11101645285E+03  0.12584169234E+03  0.00000000000E+00 0.  1.
<scales pt_clust_5="13000.00000" pt_clust_6="13000.00000" pt_clust_7="13000.00000" pt_clust_8="13000.00000" pt_clust_9="59.25776"></scales>
<clustering>
<clus scale="   59.258">  1  9  2 -1</clus>
<clus scale="   80.124">  5  6 -1 -1</clus>
<clus scale="   88.421">  1  5  2 -1</clus>
<clus scale="   91.460">  7  8 -1 -1</clus>
<clus scale="   59.258">  1  5  2 -1</clus>
</clustering>
</event>
<event>
 9    2  0.4883225E-005  0.9399254E+02  0.7546771E-02  0.1293510E+00
          2   -1    0    0  502    0 -0.00000000000E+00  0.00000000000E+00  0.14702337088E+04  0.14702337088E+04  0.00000000000E+00 0. -1.
         21   -1    0    0  501  502  0.00000000000E+00 -0.00000000000E+00 -0.18342213484E+02  0.18342213484E+02  0.00000000000E+00 0.  1.
         24    2    1    2    0    0  0.58973476378E+01  0.18370257052E+02  0.10722527192E+04  0.10763545002E+04  0.91874213274E+02 0.  0.
         23    2    1    2    0    0 -0.48006383347E+02  0.46137678710E+01  0.31566883534E+03  0.33226149709E+03  0.91787739655E+02 0.  0.
        -11    1    3    3    0    0 -0.19659776714E+02 -0.24219902417E+02  0.17721373437E+03  0.17993837318E+03  0.00000000000E+00 0.  1.
         12    1    3    3    0    0  0.25557124352E+02  0.42590159469E+02  0.89503898488E+03  0.89641612700E+03  0.00000000000E+00 0. -1.
        -13    1    4    4    0    0  0.24607648473E+02  0.16449701774E+02  0.76257912342E+02  0.81800967272E+02  0.00000000000E+00 0. -1.
         13    1    4    4    0    0 -0.72614031821E+02 -0.11835933903E+02  0.23941092300E+03  0.25046052982E+03  0.00000000000E+00 0.  1.
          1    1    1    2  501    0  0.42109035710E+02 -0.22984024923E+02  0.63969940693E+02  0.79959924977E+02  0.00000000000E+00 0. -1.
<scales pt_clust_5="13000.00000" pt_clust_6="13000.00000" pt_clust_7="13000.00000" pt_clust_8="13000.00000" pt_clust_9="47.97329"></scales>
<clustering>
<clus scale="   47.973">  2  9  1 -1</clus>
<clus scale="   91.788">  7  8 -1 -1</clus>
<clus scale="   91.874">  5  6 -1 -1</clus>
<clus scale="   93.908">  2  7  1 -1</clus>
<clus scale="   47.973">  2  5  1 -1</clus>
</clustering>
</event>
<event>
 9    2  0.4883225E-005  0.1062180E+03  0.7546771E-02  0.1272373E+00
         21   -1    0    0  501  502  0.00000000000E+00  0.00000000000E+00  0.63964594724E+03  0.63964594724E+03  0.00000000000E+00 0.  1.
         -3   -1    0    0    0  501 -0.00000000000E+00 -0.00000000000E+00 -0.34991633665E+02  0.34991633665E+02  0.00000000000E+00 0.  1.
         23    2    1    2    0    0  0.15874120646E+02 -0.48877226781E+02  0.10663407791E+03  0.14897834319E+03  0.90458549416E+02 0.  0.
         24    2    1    2    0    0 -0.69091836941E+02  0.38850228241E+02  0.29884232113E+03  0.31925064374E+03  0.79568954172E+02 0.  0.
        -13    1    4    4    0    0 -0.79385282039E+02  0.42988983399E+02  0.19576876045E+03  0.21558173222E+03  0.00000000000E+00 0.  1.
         14    1    4    4    0    0  0.10293445098E+02 -0.41387551580E+01  0.10307356068E+03  0.10366891153E+03  0.00000000000E+00 0. -1.
        -11    1    3    3    0    0  0.25206013718E+02 -0.66658204076E+02  0.10738813804E+03  0.12888316992E+03  0.00000000000E+00 0.  1.
         11    1    3    3    0    0 -0.93318930723E+01  0.17780977296E+02 -0.75406012291E+00  0.20095173266E+02  0.00000000000E+00 0. -1.
         -4    1    1    2    0  502  0.53217716295E+02  0.10026998540E+02  0.19917791453E+03  0.20640859397E+03  0.00000000000E+00 0.  1.
<scales pt_clust_5="13000.00000" pt_clust_6="13000.00000" pt_clust_7="13000.00000" pt_clust_8="13000.00000" pt_clust_9="54.15410"></scales>
<clustering>
<clus scale="   54.154">  1  9  2 -1</clus>
<clus scale="   79.569">  5  6 -1 -1</clus>
<clus scale="   90.459">  7  8 -1 -1</clus>
<clus scale="   97.112">  1  5  2 -1</clus>
<clus scale="   54.154">  1  5  2 -1</clus>
</clustering>
</event>
<event>
 9    2  0.4883225E-005  0.1054498E+03  0.7546771E-02  0.1277077E+00
          2   -1    0    0  502    0 -0.00000000000E+00  0.00000000000E+00  0.12428777856E+04  0.12428777856E+04  0.00000000000E+00 0. -1.
         21   -1    0    0  501  502  0.00000000000E+00 -0.00000000000E+00 -0.23186052817E+02  0.23186052817E+02  0.00000000000E+00 0. -1.
         24    2    1    2    0    0 -0.17460047808E+01  0.37428997078E+02  0.94158162133E+03  0.94580419609E+03  0.81028694600E+02 0.  0.
         23    2    1    2    0    0  0.20747568034E+02 -0.57399154472E+02  0.26680023898E+03  0.29046400830E+03  0.97272031354E+02 0.  0.
        -13    1    3    3    0    0 -0.13759856486E+02 -0.18168170336E+02  0.11316598327E+03  0.11543810391E+03  0.00000000000E+00 0.  1.
         14    1    3    3    0    0  0.12013851705E+02  0.55597167414E+02  0.82841563806E+03  0.83036609218E+03  0.00000000000E+00 0. -1.
        -11    1    4    4    0    0 -0.60578733987E+01  0.24797099345E+02  0.37113730626E+02  0.45044677455E+02  0.00000000000E+00 0.  1.
         11    1    4    4    0    0  0.26805441433E+02 -0.82196253817E+02  0.22968650836E+03  0.24541933085E+03  0.00000000000E+00 0. -1.
          1    1    1    2  501    0 -0.19001563253E+02  0.19970157395E+02  0.11309872479E+02  0.29795634042E+02  0.00000000000E+00 0. -1.
<scales pt_clust_5="13000.00000" pt_clust_6="13000.00000" pt_clust_7="13000.00000" pt_clust_8="13000.00000" pt_clust_9="27.56568"></scales>
<clustering>
<clus scale="   27.566">  2  9  1 -1</clus>
<clus scale="   81.029">  5  6 -1 -1</clus>
<clus scale="   90.683">  1  5  2 -1</clus>
<clus scale="   97.272">  7  8 -1 -1</clus>
<clus scale="   27.566">  2  5  1 -1</clus>
</clustering>
</event>
<event>
 9    2  0.4883225E-005  0.1382977E+03  0.7546771E-02  0.1223108E+00
         21   -1    0    0  501  502  0.00000000000E+00  0.00000000000E+00  0.49716714779E+02  0.49716714779E+02  0.00000000000E+00 0. -1.
          2   -1    0    0  502    0 -0.00000000000E+00 -0.00000000000E+00 -0.86354586718E+03  0.86354586718E+03  0.00000000000E+00 0. -1.
         23    2    1    2    0    0 -0.31723358439E+02  0.69147294674E+02 -0.30525380375E+03  0.32734041799E+03  0.90466262824E+02 0.  0.
         24    2    1    2    0    0  0.98843387844E+02  0.53679496246E+02 -0.15317603497E+03  0.20395332876E+03  0.74044304195E+02 0.  0.
        -11    1    4    4    0    0  0.22074995856E+02 -0.14992794823E+02 -0.57417794676E+02  0.63315815434E+02  0.00000000000E+00 0.  1.
         12    1    4    4    0    0  0.76768391988E+02  0.68672291069E+02 -0.95758240293E+02  0.14063751332E+03  0.00000000000E+00 0. -1.
        -11    1    3    3    0    0 -0.54487902018E+02  0.64226776274E+02 -0.16592320346E+03  0.18607665007E+03  0.00000000000E+00 0.  1.
         11    1    3    3    0    0  0.22764543580E+02  0.49205183994E+01 -0.13933060030E+03  0.14126376791E+03  0.00000000000E+00 0. -1.
          1    1    1    2  501    0 -0.67120029405E+02 -0.12282679092E+03 -0.35539931368E+03  0.38196883522E+03  0.00000000000E+00 0. -1.
<scales pt_clust_5="13000.00000" pt_clust_6="13000.00000" pt_clust_7="13000.00000" pt_clust_8="13000.00000" pt_clust_9="116.80632"></scales>
<clustering>
<clus scale="   74.044">  5  6 -1 -1</clus>
<clus scale="   90.466">  7  8 -1 -1</clus>
<clus scale="  118.203">  2  7  1 -1</clus>
<clus scale="  116.806">  1  9  2 -1</clus>
<clus scale="  116.806">  1  5  2 -1</clus>
</clustering>
</event>
<event>
 9    2  0.4883225E-005  0.4125884E+03  0.7546771E-02  0.1077807E+00
         21   -1    0    0  501  502  0.00000000000E+00  0.00000000000E+00  0.75060833789E+02  0.75060833789E+02  0.00000000000E+00 0. -1.
          2   -1    0    0  502    0 -0.00000000000E+00 -0.00000000000E+00 -0.34549365072E+04  0.34549365072E+04  0.00000000000E+00 0. -1.
         24    2    1    2    0    0 -0.12147719714E+02  0.11428869644E+03 -0.94792288293E+03  0.95832494203E+03  0.81359875297E+02 0.  0.
         23    2    1    2    0    0  0.37602047097E+03  0.92938123313E+02 -0.14620679180E+04  0.15152525014E+04  0.91206672130E+02 0.  0.
        -11    1    3    3    0    0 -0.15595899098E+02  0.15287017151E+02 -0.45374441933E+02  0.50356379366E+02  0.00000000000E+00 0.  1.
         12    1    3    3    0    0  0.34481793843E+01  0.99001679285E+02 -0.90254844100E+03  0.90796856267E+03  0.00000000000E+00 0. -1.
        -11    1    4    4    0    0  0.23805390256E+02  0.21593838462E+02 -0.62454284093E+02  0.70239077915E+02  0.00000000000E+00 0.  1.
         11    1    4    4    0    0  0.35221508071E+03  0.71344284851E+02 -0.13996136339E+04  0.14450134235E+04  0.00000000000E+00 0. -1.
          1    1    1    2  501    0 -0.36387275125E+03 -0.20722681975E+03 -0.96988487251E+03  0.10564198975E+04  0.00000000000E+00 0. -1.
<scales pt_clust_5="13000.00000" pt_clust_6="13000.00000" pt_clust_7="13000.00000" pt_clust_8="13000.00000" pt_clust_9="402.38107"></scales>
<clustering>
<clus scale="   81.360">  5  6 -1 -1</clus>
<clus scale="   91.207">  7  8 -1 -1</clus>
<clus scale="  140.815">  2  5  1 -1</clus>
<clus scale="  402.381">  1  9  2 -1</clus>
<clus scale="  402.381">  1  5  2 -1</clus>
</clustering>
</event>
<event>
 9    2  0.4883225E-005  0.1593008E+03  0.7546771E-02  0.1217755E+00
          2   -1    0    0  502    0 -0.00000000000E+00  0.00000000000E+00  0.97789037550E+02  0.97789037550E+02  0.00000000000E+00 0. -1.
         21   -1    0    0  501  502  0.00000000000E+00 -0.00000000000E+00 -0.49725042047E+03  0.49725042047E+03  0.00000000000E+00 0. -1.
         24    2    1    2    0    0  0.23137733431E+02 -0.24511447237E+02 -0.13043215919E+03  0.15652746867E+03  0.79700279445E+02 0.  0.
         23    2    1    2    0    0 -0.50619943803E+02 -0.10727405516E+03 -0.13817937008E+02  0.14997171244E+03  0.90721979297E+02 0.  0.
        -11    1    3    3    0    0  0.29674628315E+02  0.22763936382E+02 -0.71529277379E+02  0.80716899641E+02  0.00000000000E+00 0.  1.
         12    1    3    3    0    0 -0.65368948837E+01 -0.47275383619E+02 -0.58902881808E+02  0.75810569028E+02  0.00000000000E+00 0. -1.
        -13    1    4    4    0    0  0.15056907939E+02 -0.73639003525E+02 -0.16086889374E+01  0.75179792477E+02  0.00000000000E+00 0. -1.
         13    1    4    4    0    0 -0.65676851741E+02 -0.33635051636E+02 -0.12209248071E+02  0.74791919962E+02  0.00000000000E+00 0.  1.
          1    1    1    2  501    0  0.27482210371E+02  0.13178550240E+03 -0.25521128673E+03  0.28854027692E+03  0.00000000000E+00 0. -1.
<scales pt_clust_5="13000.00000" pt_clust_6="13000.00000" pt_clust_7="13000.00000" pt_clust_8="13000.00000" pt_clust_9="130.94370"></scales>
<clustering>
<clus scale="   79.700">  5  6 -1 -1</clus>
<clus scale="   86.535">  1  5  2 -1</clus>
<clus scale="   90.722">  7  8 -1 -1</clus>
<clus scale="  130.944">  2  9  1 -1</clus>
<clus scale="  130.944">  2  5  1 -1</clus>
</clustering>
</event>
<event>
 9    2  0.4883225E-005  0.1011269E+03  0.7546771E-02  0.1289616E+00
         -3   -1    0    0    0  501 -0.00000000000E+00  0.00000000000E+00  0.16739431901E+02  0.16739431901E+02  0.00000000000E+00 0.  1.
         21   -1    0    0  501  502  0.00000000000E+00 -0.00000000000E+00 -0.92547548041E+03  0.92547548041E+03  0.00000000000E+00 0. -1.
         24    2    1    2    0    0  0.90744784554E+01 -0.18754043433E+02 -0.30161749732E+03  0.30992630852E+03  0.68169947316E+02 0.  0.
         23    2    1    2    0    0 -0.57028465567E+02  0.50810076617E+02 -0.40067217203E+03  0.41793543351E+03  0.91092960060E+02 0.  0.
        -13    1    3    3    0    0  0.37996785095E+01 -0.26364885186E+02 -0.39482794439E+02  0.47628098685E+02  0.00000000000E+00 0.  1.
         14    1    3    3    0    0  0.52747999459E+01  0.76108417521E+01 -0.26213470288E+03  0.26229820983E+03  0.00000000000E+00 0. -1.
        -11    1    4    4    0    0 -0.72702194380E+02  0.36089977683E+02 -0.37828401520E+03  0.38689390240E+03  0.00000000000E+00 0. -1.
         11    1    4    4    0    0  0.15673728813E+02  0.14720098933E+02 -0.22388156832E+02  0.31041531113E+02  0.00000000000E+00 0.  1.
         -4    1    1    2    0  502  0.47953987112E+02 -0.32056033183E+02 -0.20644637915E+03  0.21435317028E+03  0.00000000000E+00 0.  1.
<scales pt_clust_5="13000.00000" pt_clust_6="13000.00000" pt_clust_7="13000.00000" pt_clust_8="13000.00000" pt_clust_9="57.68169"></scales>
<clustering>
<clus scale="   57.682">  2  9  1 -1</clus>
<clus scale="   68.170">  5  6 -1 -1</clus>
<clus scale="   81.092">  1  5  2 -1</clus>
<clus scale="   91.093">  7  8 -1 -1</clus>
<clus scale="   57.682">  2  5  1 -1</clus>
</clustering>
</event>
<event>
 9    2  0.4883225E-005  0.1108437E+03  0.7546771E-02  0.1269378E+00
          2   -1    0    0  502    0 -0.00000000000E+00  0.00000000000E+00  0.63570566096E+03  0.63570566096E+03  0.00000000000E+00 0. -1.
         21   -1    0    0  501  502  0.00000000000E+00 -0.00000000000E+00 -0.12594204794E+03  0.12594204794E+03  0.00000000000E+00 0. -1.
         24    2    1    2    0    0 -0.36261090894E+02 -0.22745742296E+02  0.52818263776E+03  0.53633719966E+03  0.82755407045E+02 0.  0.
         23    2    1    2    0    0  0.42823073400E+01 -0.40948474621E+02  0.53134265378E+02  0.12431808778E+03  0.10457830110E+03 0.  0.
        -13    1    3    3    0    0  0.23638653444E+02 -0.11278558215E+02  0.84037614480E+02  0.88024499201E+02  0.00000000000E+00 0.  1.
         14    1    3    3    0    0 -0.59899744338E+02 -0.11467184081E+02  0.44414502328E+03  0.44831270046E+03  0.00000000000E+00 0. -1.
        -11    1    4    4    0    0 -0.49908748653E+02 -0.15207502990E+02  0.20819373334E+02  0.56174706455E+02  0.00000000000E+00 0.  1.
         11    1    4    4    0    0  0.54191055993E+02 -0.25740971631E+02  0.32314892044E+02  0.68143381322E+02  0.00000000000E+00 0. -1.
          1    1    1    2  501    0  0.31978783554E+02  0.63694216916E+02 -0.71553290123E+02  0.10099242147E+03  0.00000000000E+00 0. -1.
<scales pt_clust_5="13000.00000" pt_clust_6="13000.00000" pt_clust_7="13000.00000" pt_clust_8="13000.00000" pt_clust_9="71.27128"></scales>
<clustering>
<clus scale="   71.271">  2  9  1 -1</clus>
<clus scale="   82.755">  5  6 -1 -1</clus>
<clus scale="   90.544">  1  5  2 -1</clus>
<clus scale="  104.578">  7  8 -1 -1</clus>
<clus scale="   71.271">  2  5  1 -1</clus>
</clustering>
</event>
<event>
 9    2  0.4883225E-005  0.1275265E+03  0.7546771E-02  0.1234446E+00
         21   -1    0    0  501  502  0.00000000000E+00  0.00000000000E+00  0.49366891916E+02  0.49366891916E+02  0.00000000000E+00 0. -1.
          2   -1    0    0  502    0 -0.00000000000E+00 -0.00000000000E+00 -0.62763607449E+03  0.62763607449E+03  0.00000000000E+00 0. -1.
         24    2    1    2    0    0  0.48353107513E+02 -0.55920588728E+02 -0.25068081878E+03  0.27308176164E+03  0.79168430472E+02 0.  0.
         23    2    1    2    0    0 -0.56701147598E+02  0.12178670128E+03 -0.18193323642E+03  0.24384793815E+03  0.91187135479E+02 0.  0.
        -13    1    3    3    0    0 -0.82587042031E+01 -0.48031582454E+02 -0.14444197397E+03  0.15244252344E+03  0.00000000000E+00 0.  1.
         14    1    3    3    0    0  0.56611811716E+02 -0.78890062736E+01 -0.10623884481E+03  0.12063923819E+03  0.00000000000E+00 0. -1.
        -13    1    4    4    0    0 -0.49755006015E+02  0.33938695933E+02 -0.12550268810E+03  0.13920603588E+03  0.00000000000E+00 0.  1.
         13    1    4    4    0    0 -0.69461415834E+01  0.87848005349E+02 -0.56430548319E+02  0.10464190227E+03  0.00000000000E+00 0. -1.
          1    1    1    2  501    0  0.83480400853E+01 -0.65866112555E+02 -0.14565512737E+03  0.16007326662E+03  0.00000000000E+00 0. -1.
<scales pt_clust_5="13000.00000" pt_clust_6="13000.00000" pt_clust_7="13000.00000" pt_clust_8="13000.00000" pt_clust_9="66.39306"></scales>
<clustering>
<clus scale="   66.393">  1  9  2 -1</clus>
<clus scale="   79.168">  5  6 -1 -1</clus>
<clus scale="   91.187">  7  8 -1 -1</clus>
<clus scale="  119.229">  2  5  1 -1</clus>
<clus scale="   66.393">  1  5  2 -1</clus>
</clustering>
</event>
<event>
 9    2  0.4883225E-005  0.9434800E+02  0.7546771E-02  0.1305004E+00
          2   -1    0    0  502    0 -0.00000000000E+00  0.00000000000E+00  0.17658866674E+03  0.17658866674E+03  0.00000000000E+00 0. -1.
         21   -1    0    0  501  502  0.00000000000E+00 -0.00000000000E+00 -0.26603252415E+03  0.26603252415E+03  0.00000000000E+00 0. -1.
         24    2    1    2    0    0  0.61102068439E+01 -0.23095816632E+02  0.12686469420E+03  0.14731298703E+03  0.70962765881E+02 0.  0.
         23    2    1    2    0    0 -0.45379294803E+02  0.14055393288E+02 -0.33417432619E+02  0.10803046378E+03  0.91087989468E+02 0.  0.
        -11    1    3    3    0    0  0.10929369967E+02 -0.32392598743E+02  0.19336983014E+02  0.39276589634E+02  0.00000000000E+00 0.  1.
         12    1    3    3    0    0 -0.48191631232E+01  0.92967821105E+01  0.10752771118E+03  0.10803639740E+03  0.00000000000E+00 0. -1.
        -13    1    4    4    0    0  0.35426604905E+01  0.41953762913E+02  0.84095409438E+00  0.42111469574E+02  0.00000000000E+00 0. -1.
         13    1    4    4    0    0 -0.48921955293E+02 -0.27898369625E+02 -0.34258386714E+02  0.65918994210E+02  0.00000000000E+00 0.  1.
          1    1    1    2  501    0  0.39269087959E+02  0.90404233448E+01 -0.18289111899E+03  0.18727774008E+03  0.00000000000E+00 0. -1.
<scales pt_clust_5="13000.00000" pt_clust_6="13000.00000" pt_clust_7="13000.00000" pt_clust_8="13000.00000" pt_clust_9="40.29628"></scales>
<clustering>
<clus scale="   40.296">  2  9  1 -1</clus>
<clus scale="   70.963">  5  6 -1 -1</clus>
<clus scale="   75.102">  1  5  2 -1</clus>
<clus scale="   91.088">  7  8 -1 -1</clus>
<clus scale="   40.296">  2  5  1 -1</clus>
</clustering>
</event>
<event>
 9    2  0.4883225E-005  0.1444156E+03  0.7546771E-02  0.1210446E+00
          2   -1    0    0  502    0 -0.00000000000E+00  0.00000000000E+00  0.96811284125E+03  0.96811284125E+03  0.00000000000E+00 0. -1.
         21   -1    0    0  501  502  0.00000000000E+00 -0.00000000000E+00 -0.20067333902E+03  0.20067333902E+03  0.00000000000E+00 0. -1.
         24    2    1    2    0    0  0.50407148975E+02 -0.95869474335E+02  0.86938312776E+03  0.87974603103E+03  0.79963863718E+02 0.  0.
         23    2    1    2    0    0 -0.37023173405E+02  0.12239298056E+03  0.23165456081E+02  0.16045201027E+03  0.94114038191E+02 0.  0.
        -13    1    3    3    0    0  0.28781677450E+02 -0.60192752600E+02  0.24353998695E+03  0.25251391579E+03  0.00000000000E+00 0.  1.
         14    1    3    3    0    0  0.21625471525E+02 -0.35676721734E+02  0.62584314081E+03  0.62723211524E+03  0.00000000000E+00 0. -1.
        -11    1    4    4    0    0 -0.46023318942E+02  0.57806570950E+02 -0.26482753941E+02  0.78492558804E+02  0.00000000000E+00 0.  1.
         11    1    4    4    0    0  0.90001455372E+01  0.64586409606E+02  0.49648210021E+02  0.81959451461E+02  0.00000000000E+00 0. -1.
          1    1    1    2  501    0 -0.13383975571E+02 -0.26523506221E+02 -0.12510908161E+03  0.12858813897E+03  0.00000000000E+00 0. -1.
<scales pt_clust_5="13000.00000" pt_clust_6="13000.00000" pt_clust_7="13000.00000" pt_clust_8="13000.00000" pt_clust_9="29.70904"></scales>
<clustering>
<clus scale="   29.709">  2  9  1 -1</clus>
<clus scale="   79.964">  5  6 -1 -1</clus>
<clus scale="   94.114">  7  8 -1 -1</clus>
<clus scale="  135.619">  1  5  2 -1</clus>
<clus scale="   29.709">  2  5  1 -1</clus>
</clustering>
</event>
<event>
 9    2  0.4883225E-005  0.1320128E+03  0.7546771E-02  0.1247209E+00
          2   -1    0    0  502    0 -0.00000000000E+00  0.00000000000E+00  0.12478810306E+03  0.12478810306E+03  0.00000000000E+00 0. -1.
         21   -1    0    0  501  502  0.00000000000E+00 -0.00000000000E+00 -0.53637191300E+03  0.53637191300E+03  0.00000000000E+00 0. -1.
         24    2    1    2    0    0 -0.37925074103E+01 -0.17926908551E+02 -0.27049662450E+03  0.28293492805E+03  0.80919666843E+02 0.  0.
         23    2    1    2    0    0 -0.56219959796E+02 -0.64856793321E+02  0.72683459483E+02  0.14125984553E+03  0.85465613889E+02 0.  0.
        -11    1    3    3    0    0 -0.22649136224E+02  0.23702620904E+02 -0.16064381258E+03  0.16395496982E+03  0.00000000000E+00 0.  1.
         12    1    3    3    0    0  0.18856628814E+02 -0.41629529455E+02 -0.10985281192E+03  0.11897995822E+03  0.00000000000E+00 0. -1.
        -11    1    4    4    0    0 -0.34332386131E+02 -0.78191888531E+02  0.77336296756E+02  0.11521105401E+03  0.00000000000E+00 0.  1.
         11    1    4    4    0    0 -0.21887573665E+02  0.13335095209E+02 -0.46528372724E+01  0.26048791524E+02  0.00000000000E+00 0. -1.
          1    1    1    2  501    0  0.60012467206E+02  0.82783701872E+02 -0.21377064492E+03  0.23696524249E+03  0.00000000000E+00 0. -1.
<scales pt_clust_5="13000.00000" pt_clust_6="13000.00000" pt_clust_7="13000.00000" pt_clust_8="13000.00000" pt_clust_9="100.61319"></scales>
<clustering>
<clus scale="   80.920">  5  6 -1 -1</clus>
<clus scale="   82.968">  1  5  2 -1</clus>
<clus scale="   85.466">  7  8 -1 -1</clus>
<clus scale="  100.613">  2  9  1 -1</clus>
<clus scale="  100.613">  2  5  1 -1</clus>
</clustering>
</event>
<event>
 9    2  0.4883225E-005  0.2395674E+03  0.7546771E-02  0.1156843E+00
         -3   -1    0    0    0  501 -0.00000000000E+00  0.00000000000E+00  0.62027637799E+03  0.62027637799E+03  0.00000000000E+00 0.  1.
         21   -1    0    0  501  502  0.00000000000E+00 -0.00000000000E+00 -0.13775455070E+03  0.13775455070E+03  0.00000000000E+00 0.  1.
         24    2    1    2    0    0 -0.38152806785E+02  0.41383801272E+02  0.67759492420E+02  0.11950492977E+03  0.80757809234E+02 0.  0.
         23    2    1    2    0    0  0.66215073589E+02 -0.23892886244E+03  0.31598563366E+03  0.41588642761E+03  0.10790348795E+03 0.  0.
        -11    1    3    3    0    0 -0.57499426733E+02  0.46858900207E+02  0.37346245294E+02  0.83046268072E+02  0.00000000000E+00 0.  1.
         12    1    3    3    0    0  0.19346619948E+02 -0.54750989350E+01  0.30413247126E+02  0.36458661694E+02  0.00000000000E+00 0. -1.
        -13    1    4    4    0    0  0.67804053945E+02 -0.21451392084E+03  0.31992145018E+03  0.39110528794E+03  0.00000000000E+00 0.  1.
         13    1    4    4    0    0 -0.15889803566E+01 -0.24414941598E+02 -0.39358165186E+01  0.24781139673E+02  0.00000000000E+00 0. -1.
         -4    1    1    2    0  502 -0.28062266804E+02  0.19754506117E+03  0.98776701211E+02  0.22263957131E+03  0.00000000000E+00 0.  1.
<scales pt_clust_5="13000.00000" pt_clust_6="13000.00000" pt_clust_7="13000.00000" pt_clust_8="13000.00000" pt_clust_9="213.89106"></scales>
<clustering>
<clus scale="   80.758">  5  6 -1 -1</clus>
<clus scale="   98.438">  1  5  2 -1</clus>
<clus scale="  107.903">  7  8 -1 -1</clus>
<clus scale="  213.891">  2  9  1 -1</clus>
<clus scale="  213.891">  2  5  1 -1</clus>
</clustering>
</event>
<event>
 9    2  0.4883225E-005  0.1698028E+03  0.7546771E-02  0.1208800E+00
         21   -1    0    0  501  502  0.00000000000E+00  0.00000000000E+00  0.22255636316E+03  0.22255636316E+03  0.00000000000E+00 0. -1.
          2   -1    0    0  502    0 -0.00000000000E+00 -0.00000000000E+00 -0.54573389449E+03  0.54573389449E+03  0.00000000000E+00 0. -1.
         24    2    1    2    0    0 -0.97670027093E+01  0.32470328688E+02 -0.41659913180E+03  0.42546792891E+03  0.79488397451E+02 0.  0.
         23    2    1    2    0    0 -0.75650449519E+02 -0.13972399516E+03  0.12190299692E+02  0.18345478391E+03  0.90891523251E+02 0.  0.
        -13    1    3    3    0    0  0.11259973947E+02  0.22596088634E+02 -0.34961589444E+02  0.43124041685E+02  0.00000000000E+00 0.  1.
         14    1    3    3    0    0 -0.21026976656E+02  0.98742400536E+01 -0.38163754235E+03  0.38234388723E+03  0.00000000000E+00 0. -1.
        -11    1    4    4    0    0 -0.31299262153E+02  0.34683262876E+01 -0.71969123398E+01  0.32302765296E+02  0.00000000000E+00 0.  1.
         11    1    4    4    0    0 -0.44351187366E+02 -0.14319232145E+03  0.19387212031E+02  0.15115201862E+03  0.00000000000E+00 0. -1.
          1    1    1    2  501    0  0.85417452228E+02  0.10725366647E+03  0.81231300786E+02  0.15936754483E+03  0.00000000000E+00 0. -1.
<scales pt_clust_5="13000.00000" pt_clust_6="13000.00000" pt_clust_7="13000.00000" pt_clust_8="13000.00000" pt_clust_9="143.42851"></scales>
<clustering>
<clus scale="   79.488">  5  6 -1 -1</clus>
<clus scale="   86.418">  2  5  1 -1</clus>
<clus scale="   90.892">  7  8 -1 -1</clus>
<clus scale="  143.429">  1  9  2 -1</clus>
<clus scale="  143.429">  1  5  2 -1</clus>
</clustering>
</event>
<event>
 9    2  0.4883225E-005  0.1532959E+03  0.7546771E-02  0.1198514E+00
         -1   -1    0    0    0  501 -0.00000000000E+00  0.00000000000E+00  0.43464022523E+03  0.43464022523E+03  0.00000000000E+00 0.  1.
         21   -1    0    0  501  502  0.00000000000E+00 -0.00000000000E+00 -0.11736680439E+03  0.11736680439E+03  0.00000000000E+00 0.  1.
         23    2    1    2    0    0 -0.10085370856E+03 -0.10280234089E+03  0.23535809724E+03  0.29032874428E+03  0.90319178441E+02 0.  0.
         24    2    1    2    0    0  0.11152185762E+03  0.17470411514E+02  0.10457661770E+03  0.17274639104E+03  0.78502908497E+02 0.  0.
        -11    1    4    4    0    0  0.11334997329E+03  0.81059054669E+01  0.11282385775E+03  0.16013477145E+03  0.00000000000E+00 0.  1.
         12    1    4    4    0    0 -0.18281156679E+01  0.93645060467E+01 -0.82472400501E+01  0.12611619596E+02  0.00000000000E+00 0. -1.
        -13    1    3    3    0    0 -0.69242031025E+02 -0.58901444648E+02  0.65448825278E+02  0.11201512296E+03  0.00000000000E+00 0.  1.
         13    1    3    3    0    0 -0.31611677535E+02 -0.43900896238E+02  0.16990927196E+03  0.17831362131E+03  0.00000000000E+00 0. -1.
         -2    1    1    2    0  502 -0.10668149059E+02  0.85331929373E+02 -0.22661294103E+02  0.88931894308E+02  0.00000000000E+00 0.  1.
<scales pt_clust_5="13000.00000" pt_clust_6="13000.00000" pt_clust_7="13000.00000" pt_clust_8="13000.00000" pt_clust_9="85.99621"></scales>
<clustering>
<clus scale="   78.503">  5  6 -1 -1</clus>
<clus scale="   85.996">  2  9  1 -1</clus>
<clus scale="   90.319">  7  8 -1 -1</clus>
<clus scale="  146.645">  2  5  1 -1</clus>
<clus scale="   85.996">  2  5  1 -1</clus>
</clustering>
</event>
<event>
 9    2  0.4883225E-005  0.1859388E+03  0.7546771E-02  0.1163236E+00
         21   -1    0    0  501  502  0.00000000000E+00  0.00000000000E+00  0.38518361488E+03  0.38518361488E+03  0.00000000000E+00 0. -1.
          4   -1    0    0  502    0 -0.00000000000E+00 -0.00000000000E+00 -0.15523299343E+03  0.15523299343E+03  0.00000000000E+00 0. -1.
         23    2    1    2    0    0  0.16695070871E+03 -0.12628914065E+03  0.48842642533E+02  0.23343360898E+03  0.91017360349E+02 0.  0.
         24    2    1    2    0    0 -0.10466723819E+03  0.40707941796E+02  0.12718798844E+03  0.18819437331E+03  0.81412348367E+02 0.  0.
        -13    1    4    4    0    0 -0.68730467904E+02 -0.12565373099E+02  0.42122871170E+02  0.81584937918E+02  0.00000000000E+00 0.  1.
         14    1    4    4    0    0 -0.35936770286E+02  0.53273314895E+02  0.85065117274E+02  0.10660943540E+03  0.00000000000E+00 0. -1.
        -11    1    3    3    0    0  0.45236786151E+02  0.51585859435E+01 -0.63706484727E+01  0.45973503153E+02  0.00000000000E+00 0.  1.
         11    1    3    3    0    0  0.12171392256E+03 -0.13144772659E+03  0.55213291006E+02  0.18746010582E+03  0.00000000000E+00 0. -1.
          3    1    1    2  501    0 -0.62283470523E+02  0.85581198855E+02  0.53919990470E+02  0.11878862601E+03  0.00000000000E+00 0. -1.
<scales pt_clust_5="13000.00000" pt_clust_6="13000.00000" pt_clust_7="13000.00000" pt_clust_8="13000.00000" pt_clust_9="105.84598"></scales>
<clustering>
<clus scale="   81.412">  5  6 -1 -1</clus>
<clus scale="   91.017">  7  8 -1 -1</clus>
<clus scale="  105.846">  1  9  2 -1</clus>
<clus scale="  181.431">  1  5  2 -1</clus>
<clus scale="  105.846">  1  5  2 -1</clus>
</clustering>
</event>
<event>
 9    2  0.4883225E-005  0.1044968E+03  0.7546771E-02  0.1275446E+00
          2   -1    0    0  502    0 -0.00000000000E+00  0.00000000000E+00  0.75530159188E+02  0.75530159188E+02  0.00000000000E+00 0. -1.
         21   -1    0    0  501  502  0.00000000000E+00 -0.00000000000E+00 -0.34794923263E+03  0.34794923263E+03  0.00000000000E+00 0. -1.
         24    2    1    2    0    0  0.25239394934E+02  0.48590433903E+02 -0.20211008658E+02  0.98316167601E+02  0.79117170179E+02 0.  0.
         23    2    1    2    0    0 -0.73677978561E+02 -0.15962293349E+02 -0.23797744789E+03  0.26505164133E+03  0.89083486315E+02 0.  0.
        -11    1    3    3    0    0  0.45744038842E+02  0.72934024529E+01  0.35289725767E+01  0.46456048652E+02  0.00000000000E+00 0.  1.
         12    1    3    3    0    0 -0.20504643907E+02  0.41297031450E+02 -0.23739981234E+02  0.51860118949E+02  0.00000000000E+00 0. -1.
        -11    1    4    4    0    0 -0.35277435095E+02  0.27655861171E+02 -0.45010182463E+02  0.63523701162E+02  0.00000000000E+00 0.  1.
         11    1    4    4    0    0 -0.38400543466E+02 -0.43618154520E+02 -0.19296726543E+03  0.20152794017E+03  0.00000000000E+00 0. -1.
          1    1    1    2  501    0  0.48438583627E+02 -0.32628140554E+02 -0.14230616894E+02  0.60111582885E+02  0.00000000000E+00 0. -1.
<scales pt_clust_5="13000.00000" pt_clust_6="13000.00000" pt_clust_7="13000.00000" pt_clust_8="13000.00000" pt_clust_9="58.40287"></scales>
<clustering>
<clus scale="   58.403">  2  9  1 -1</clus>
<clus scale="   79.117">  5  6 -1 -1</clus>
<clus scale="   89.083">  7  8 -1 -1</clus>
<clus scale="   96.142">  1  5  2 -1</clus>
<clus scale="   58.403">  2  5  1 -1</clus>
</clustering>
</event>
<event>
 9    2  0.4883225E-005  0.9152607E+02  0.7546771E-02  0.1305481E+00
          2   -1    0    0  502    0 -0.00000000000E+00  0.00000000000E+00  0.50862764529E+03  0.50862764529E+03  0.00000000000E+00 0. -1.
         21   -1    0    0  501  502  0.00000000000E+00 -0.00000000000E+00 -0.39048127554E+02  0.39048127554E+02  0.00000000000E+00 0. -1.
         24    2    1    2    0    0  0.48813148209E+01 -0.11004860583E+02  0.20782756588E+03  0.22341273003E+03  0.81092642116E+02 0.  0.
         23    2    1    2    0    0  0.37069538497E+02 -0.52523101384E+02  0.12320315725E+03  0.16617621689E+03  0.91119099211E+02 0.  0.
        -11    1    3    3    0    0 -0.81309369009E+01 -0.34288367253E+02  0.39291343824E+02  0.52778915897E+02  0.00000000000E+00 0.  1.
         12    1    3    3    0    0  0.13012251722E+02  0.23283506671E+02  0.16853622206E+03  0.17063381413E+03  0.00000000000E+00 0. -1.
        -11    1    4    4    0    0  0.37439931812E+02 -0.77067935540E+02  0.10550604600E+03  0.13591446180E+03  0.00000000000E+00 0. -1.
         11    1    4    4    0    0 -0.37039331521E+00  0.24544834156E+02  0.17697111249E+02  0.30261755096E+02  0.00000000000E+00 0.  1.
          1    1    1    2  501    0 -0.41950853318E+02  0.63527961966E+02  0.13854879460E+03  0.15808682593E+03  0.00000000000E+00 0. -1.
<scales pt_clust_5="13000.00000" pt_clust_6="13000.00000" pt_clust_7="13000.00000" pt_clust_8="13000.00000" pt_clust_9="76.12938"></scales>
<clustering>
<clus scale="   76.129">  2  9  1 -1</clus>
<clus scale="   81.093">  5  6 -1 -1</clus>
<clus scale="   81.550">  1  5  2 -1</clus>
<clus scale="   91.119">  7  8 -1 -1</clus>
<clus scale="   76.129">  2  5  1 -1</clus>
</clustering>
</event>
<event>
 9    2  0.4883225E-005  0.1026024E+03  0.7546771E-02  0.1281589E+00
          2   -1    0    0  502    0 -0.00000000000E+00  0.00000000000E+00  0.90149332332E+02  0.90149332332E+02  0.00000000000E+00 0. -1.
         21   -1    0    0  501  502  0.00000000000E+00 -0.00000000000E+00 -0.17437217060E+03  0.17437217060E+03  0.00000000000E+00 0. -1.
         23    2    1    2    0    0 -0.52110245273E+02 -0.10433708522E+02  0.22695187388E+02  0.10887029913E+03  0.92267711392E+02 0.  0.
         24    2    1    2    0    0  0.25425907786E+02  0.15094082774E+02 -0.66387735837E+02  0.10690207716E+03  0.78399072131E+02 0.  0.
        -11    1    4    4    0    0  0.39297965646E+02  0.12967533317E+02 -0.24635460103E+01  0.41455471089E+02  0.00000000000E+00 0.  1.
         12    1    4    4    0    0 -0.13872057860E+02  0.21265494571E+01 -0.63924189826E+02  0.65446606076E+02  0.00000000000E+00 0. -1.
        -11    1    3    3    0    0 -0.76407805968E+02  0.41759727315E+01  0.24801104522E+02  0.80440576494E+02  0.00000000000E+00 0. -1.
         11    1    3    3    0    0  0.24297560695E+02 -0.14609681253E+02 -0.21059171343E+01  0.28429722634E+02  0.00000000000E+00 0.  1.
          1    1    1    2  501    0  0.26684337487E+02 -0.46603742530E+01 -0.40530289815E+02  0.48749126636E+02  0.00000000000E+00 0. -1.
<scales pt_clust_5="13000.00000" pt_clust_6="13000.00000" pt_clust_7="13000.00000" pt_clust_8="13000.00000" pt_clust_9="27.08824"></scales>
<clustering>
<clus scale="   27.088">  2  9  1 -1</clus>
<clus scale="   78.399">  5  6 -1 -1</clus>
<clus scale="   90.335">  2  5  1 -1</clus>
<clus scale="   92.268">  7  8 -1 -1</clus>
<clus scale="   27.088">  2  5  1 -1</clus>
</clustering>
</event>
<event>
 9    2  0.4883225E-005  0.1018684E+03  0.7546771E-02  0.1277558E+00
          2   -1    0    0  502    0 -0.00000000000E+00  0.00000000000E+00  0.15201541132E+03  0.15201541132E+03  0.00000000000E+00 0. -1.
         21   -1    0    0  501  502  0.00000000000E+00 -0.00000000000E+00 -0.19240743663E+03  0.19240743663E+03  0.00000000000E+00 0.  1.
         23    2    1    2    0    0  0.60412400753E+02 -0.12782049589E+02  0.11130513417E+03  0.15182046418E+03  0.82750114767E+02 0.  0.
         24    2    1    2    0    0 -0.39917203832E+02  0.10077072157E+02 -0.14539074963E+03  0.17098894339E+03  0.80023859816E+02 0.  0.
        -13    1    4    4    0    0 -0.63002457746E+02 -0.35159945470E+01 -0.10572800603E+03  0.12312628947E+03  0.00000000000E+00 0.  1.
         14    1    4    4    0    0  0.23085253914E+02  0.13593066704E+02 -0.39662743594E+02  0.47862653918E+02  0.00000000000E+00 0. -1.
        -13    1    3    3    0    0  0.32524775120E+02 -0.22657217195E+02  0.32307067629E+01  0.39769937815E+02  0.00000000000E+00 0.  1.
         13    1    3    3    0    0  0.27887625633E+02  0.98751676059E+01  0.10807442741E+03  0.11205052636E+03  0.00000000000E+00 0. -1.
          1    1    1    2  501    0 -0.20495196921E+02  0.27049774321E+01 -0.63064098525E+01  0.21613440378E+02  0.00000000000E+00 0. -1.
<scales pt_clust_5="13000.00000" pt_clust_6="13000.00000" pt_clust_7="13000.00000" pt_clust_8="13000.00000" pt_clust_9="20.67293"></scales>
<clustering>
<clus scale="   20.673">  2  9  1 -1</clus>
<clus scale="   80.024">  5  6 -1 -1</clus>
<clus scale="   82.750">  7  8 -1 -1</clus>
<clus scale="   99.666">  2  5  1 -1</clus>
<clus scale="   20.673">  2  5  1 -1</clus>
</clustering>
</event>
<event>
 9    2  0.4883225E-005  0.8559022E+02  0.7546771E-02  0.1317241E+00
         21   -1    0    0  501  502  0.00000000000E+00  0.00000000000E+00  0.75503598369E+02  0.75503598369E+02  0.00000000000E+00 0. -1.
          2   -1    0    0  502    0 -0.00000000000E+00 -0.00000000000E+00 -0.60850094754E+03  0.60850094754E+03  0.00000000000E+00 0. -1.
         24    2    1    2    0    0  0.32307637510E+02  0.79196679109E+01 -0.54061591513E+03  0.54759331483E+03  0.80537979707E+02 0.  0.
         23    2    1    2    0    0  0.23955347833E+02 -0.10632134100E+02  0.56418701473E+00  0.79642883782E+02  0.75204851338E+02 0.  0.
        -11    1    3    3    0    0 -0.10408716158E+01 -0.20498951612E+02 -0.39035480508E+02  0.44102824959E+02  0.00000000000E+00 0.  1.
         12    1    3    3    0    0  0.33348509126E+02  0.28418619522E+02 -0.50158043462E+03  0.50349048987E+03  0.00000000000E+00 0. -1.
        -11    1    4    4    0    0  0.11762510428E+02 -0.41719808917E+02 -0.10251026341E+02  0.44541920128E+02  0.00000000000E+00 0. -1.
         11    1    4    4    0    0  0.12192837406E+02  0.31087674817E+02  0.10815213355E+02  0.35100963654E+02  0.00000000000E+00 0.  1.
          1    1    1    2  501    0 -0.56262985344E+02  0.27124661888E+01  0.70543789425E+01  0.56768347297E+02  0.00000000000E+00 0. -1.
<scales pt_clust_5="13000.00000" pt_clust_6="13000.00000" pt_clust_7="13000.00000" pt_clust_8="13000.00000" pt_clust_9="56.32833"></scales>
<clustering>
<clus scale="   56.328">  1  9  2 -1</clus>
<clus scale="   75.205">  7  8 -1 -1</clus>
<clus scale="   80.538">  5  6 -1 -1</clus>
<clus scale="   80.592">  1  7  2 -1</clus>
<clus scale="   56.328">  1  5  2 -1</clus>
</clustering>
</event>
<event>
 9    2  0.4883225E-005  0.2341897E+03  0.7546771E-02  0.1123725E+00
          4   -1    0    0  502    0 -0.00000000000E+00  0.00000000000E+00  0.11565235963E+03  0.11565235963E+03  0.00000000000E+00 0. -1.
         21   -1    0    0  501  502  0.00000000000E+00 -0.00000000000E+00 -0.33220582002E+03  0.33220582002E+03  0.00000000000E+00 0.  1.
         24    2    1    2    0    0 -0.77897639039E+02 -0.60584043662E+02 -0.82182132437E+02  0.15243170695E+03  0.82116099997E+02 0.  0.
         23    2    1    2    0    0 -0.24334318339E+02 -0.40063028628E+02 -0.10867980113E+03  0.14968265355E+03  0.91631830116E+02 0.  0.
        -13    1    3    3    0    0 -0.16099254487E+02  0.20500362721E+02 -0.21501153316E+02  0.33789798175E+02  0.00000000000E+00 0.  1.
         14    1    3    3    0    0 -0.61798384552E+02 -0.81084406384E+02 -0.60680979121E+02  0.11864190878E+03  0.00000000000E+00 0. -1.
        -13    1    4    4    0    0  0.33220475786E+02 -0.59724120238E+01 -0.22403442686E+02  0.40511528742E+02  0.00000000000E+00 0. -1.
         13    1    4    4    0    0 -0.57554794124E+02 -0.34090616604E+02 -0.86276358440E+02  0.10917112481E+03  0.00000000000E+00 0.  1.
          3    1    1    2  501    0  0.10223195738E+03  0.10064707229E+03 -0.25691526827E+02  0.14574381915E+03  0.00000000000E+00 0. -1.
<scales pt_clust_5="13000.00000" pt_clust_6="13000.00000" pt_clust_7="13000.00000" pt_clust_8="13000.00000" pt_clust_9="143.46159"></scales>
<clustering>
<clus scale="   82.116">  5  6 -1 -1</clus>
<clus scale="   91.632">  7  8 -1 -1</clus>
<clus scale="   99.015">  5  7 -1 -1</clus>
<clus scale="  143.462">  2  9  1 -1</clus>
<clus scale="  143.462">  2  5  1 -1</clus>
</clustering>
</event>
<event>
 9    2  0.4883225E-005  0.1015557E+03  0.7546771E-02  0.1291142E+00
         21   -1    0    0  501  502  0.00000000000E+00  0.00000000000E+00  0.61178666462E+02  0.61178666462E+02  0.00000000000E+00 0. -1.
          4   -1    0    0  502    0 -0.00000000000E+00 -0.00000000000E+00 -0.38058355662E+03  0.38058355662E+03  0.00000000000E+00 0. -1.
         24    2    1    2    0    0 -0.72506956302E+02 -0.88457044879E+01 -0.15640365985E+03  0.18574744015E+03  0.68589368778E+02 0.  0.
         23    2    1    2    0    0 -0.20822584480E+02 -0.21471507573E+02 -0.81330280924E+02  0.12834458083E+03  0.94673708981E+02 0.  0.
        -11    1    3    3    0    0 -0.28062583259E+01 -0.27748734717E+02 -0.47187039763E+02  0.54813174382E+02  0.00000000000E+00 0.  1.
         12    1    3    3    0    0 -0.69700697976E+02  0.18903030229E+02 -0.10921662009E+03  0.13093426577E+03  0.00000000000E+00 0. -1.
        -13    1    4    4    0    0 -0.50902518044E+02 -0.14615161505E+02 -0.14767334672E+02  0.54979482194E+02  0.00000000000E+00 0. -1.
         13    1    4    4    0    0  0.30079933564E+02 -0.68563460684E+01 -0.66562946251E+02  0.73365098639E+02  0.00000000000E+00 0.  1.
          3    1    1    2  501    0  0.93329540781E+02  0.30317212061E+02 -0.81670949388E+02  0.12767020210E+03  0.00000000000E+00 0. -1.
<scales pt_clust_5="13000.00000" pt_clust_6="13000.00000" pt_clust_7="13000.00000" pt_clust_8="13000.00000" pt_clust_9="98.13020"></scales>
<clustering>
<clus scale="   68.589">  5  6 -1 -1</clus>
<clus scale="   94.674">  7  8 -1 -1</clus>
<clus scale="   98.130">  1  9  2 -1</clus>
<clus scale="   77.814">  2  5  1 -1</clus>
<clus scale="   98.130">  1  5  2 -1</clus>
</clustering>
</event>
<event>
 9    2  0.4883225E-005  0.1684585E+03  0.7546771E-02  0.1181233E+00
         21   -1    0    0  501  502  0.00000000000E+00  0.00000000000E+00  0.76525498701E+02  0.76525498701E+02  0.00000000000E+00 0. -1.
          2   -1    0    0  502    0 -0.00000000000E+00 -0.00000000000E+00 -0.69152853812E+03  0.69152853812E+03  0.00000000000E+00 0. -1.
         24    2    1    2    0    0  0.11428891611E+03 -0.65112799833E+02 -0.42529200372E+03  0.45221239112E+03  0.79505504239E+02 0.  0.
         23    2    1    2    0    0 -0.14334051731E+03  0.10677718394E+03 -0.14215752305E+03  0.24626253246E+03  0.92133612868E+02 0.  0.
        -13    1    3    3    0    0  0.12112061413E+02  0.18185847148E+02 -0.58068082792E+02  0.62042963399E+02  0.00000000000E+00 0.  1.
         14    1    3    3    0    0  0.10217685470E+03 -0.83298646981E+02 -0.36722392093E+03  0.39016942772E+03  0.00000000000E+00 0. -1.
        -11    1    4    4    0    0 -0.25560546518E+02 -0.16348854353E+02 -0.26936220353E+02  0.40573224470E+02  0.00000000000E+00 0.  1.
         11    1    4    4    0    0 -0.11777997079E+03  0.12312603829E+03 -0.11522130270E+03  0.20568930799E+03  0.00000000000E+00 0. -1.
          1    1    1    2  501    0  0.29051601197E+02 -0.41664384107E+02 -0.47553512646E+02  0.69579113246E+02  0.00000000000E+00 0. -1.
<scales pt_clust_5="13000.00000" pt_clust_6="13000.00000" pt_clust_7="13000.00000" pt_clust_8="13000.00000" pt_clust_9="50.79288"></scales>
<clustering>
<clus scale="   50.793">  1  9  2 -1</clus>
<clus scale="   79.506">  5  6 -1 -1</clus>
<clus scale="   92.134">  7  8 -1 -1</clus>
<clus scale="  161.898">  2  5  1 -1</clus>
<clus scale="   50.793">  1  5  2 -1</clus>
</clustering>
</event>
<event>
 9    2  0.4883225E-005  0.2849184E+03  0.7546771E-02  0.1108997E+00
         21   -1    0    0  501  502  0.00000000000E+00  0.00000000000E+00  0.11523881810E+03  0.11523881810E+03  0.00000000000E+00 0.  1.
          2   -1    0    0  502    0 -0.00000000000E+00 -0.00000000000E+00 -0.15541977994E+04  0.15541977994E+04  0.00000000000E+00 0. -1.
         23    2    1    2    0    0 -0.14044952046E+02 -0.16443071274E+03 -0.70995134662E+03  0.73453137996E+03  0.90943463810E+02 0.  0.
         24    2    1    2    0    0  0.60732384291E+02 -0.19273954077E+03 -0.33102762304E+03  0.39811999556E+03  0.89907121910E+02 0.  0.
        -13    1    4    4    0    0  0.39199550439E+02 -0.19470633971E+03 -0.30841083982E+03  0.36683021904E+03  0.00000000000E+00 0.  1.
         14    1    4    4    0    0  0.21532833852E+02  0.19667989381E+01 -0.22616783216E+02  0.31289776522E+02  0.00000000000E+00 0. -1.
        -11    1    3    3    0    0 -0.45163055893E+02 -0.40606272408E+02 -0.23395132712E+03  0.24170600828E+03  0.00000000000E+00 0.  1.
         11    1    3    3    0    0  0.31118103847E+02 -0.12382444033E+03 -0.47600001950E+03  0.49282537169E+03  0.00000000000E+00 0. -1.
          1    1    1    2  501    0 -0.46687432245E+02  0.35717025351E+03 -0.39798001160E+03  0.53678524193E+03  0.00000000000E+00 0. -1.
<scales pt_clust_5="13000.00000" pt_clust_6="13000.00000" pt_clust_7="13000.00000" pt_clust_8="13000.00000" pt_clust_9="270.36137"></scales>
<clustering>
<clus scale="   89.907">  5  6 -1 -1</clus>
<clus scale="   90.943">  7  8 -1 -1</clus>
<clus scale="  188.429">  2  7  1 -1</clus>
<clus scale="  270.361">  1  9  2 -1</clus>
<clus scale="  270.361">  1  5  2 -1</clus>
</clustering>
</event>
<event>
 9    2  0.4883225E-005  0.1166339E+03  0.7546771E-02  0.1252590E+00
         -1   -1    0    0    0  501 -0.00000000000E+00  0.00000000000E+00  0.76833003089E+03  0.76833003089E+03  0.00000000000E+00 0.  1.
         21   -1    0    0  501  502  0.00000000000E+00 -0.00000000000E+00 -0.39254144255E+02  0.39254144255E+02  0.00000000000E+00 0.  1.
         23    2    1    2    0    0 -0.77875961812E+02  0.31224960740E+02  0.60152780171E+03  0.61409249916E+03  0.90742700505E+02 0.  0.
         24    2    1    2    0    0  0.44267662429E+02 -0.17912340894E+02  0.12716814230E+03  0.15734077018E+03  0.79397126223E+02 0.  0.
        -11    1    4    4    0    0  0.32662499610E+02  0.94036650113E+01  0.85253138358E+01  0.35042100000E+02  0.00000000000E+00 0.  1.
         12    1    4    4    0    0  0.11605162820E+02 -0.27316005905E+02  0.11864282846E+03  0.12229867018E+03  0.00000000000E+00 0. -1.
        -13    1    3    3    0    0 -0.34939386759E+01 -0.23113236630E+02  0.53600009549E+02  0.58475553342E+02  0.00000000000E+00 0. -1.
         13    1    3    3    0    0 -0.74382023136E+02  0.54338197371E+02  0.54792779216E+03  0.55561694581E+03  0.00000000000E+00 0.  1.
         -2    1    1    2    0  502  0.33608299382E+02 -0.13312619846E+02  0.37994263477E+00  0.36150905811E+02  0.00000000000E+00 0.  1.
<scales pt_clust_5="13000.00000" pt_clust_6="13000.00000" pt_clust_7="13000.00000" pt_clust_8="13000.00000" pt_clust_9="36.14891"></scales>
<clustering>
<clus scale="   36.149">  2  9  1 -1</clus>
<clus scale="   79.397">  5  6 -1 -1</clus>
<clus scale="   90.743">  7  8 -1 -1</clus>
<clus scale="  108.042">  2  5  1 -1</clus>
<clus scale="   36.149">  2  5  1 -1</clus>
</clustering>
</event>
<event>
 9    2  0.4883225E-005  0.1732548E+03  0.7546771E-02  0.1194761E+00
         -3   -1    0    0    0  501 -0.00000000000E+00  0.00000000000E+00  0.10956346566E+03  0.10956346566E+03  0.00000000000E+00 0.  1.
         21   -1    0    0  501  502  0.00000000000E+00 -0.00000000000E+00 -0.46066710289E+03  0.46066710289E+03  0.00000000000E+00 0.  1.
         24    2    1    2    0    0  0.45215647543E+02 -0.50659525159E+02 -0.72658109516E+02  0.13204394628E+03  0.86865186351E+02 0.  0.
         23    2    1    2    0    0 -0.16422840624E+03  0.17485197929E+02 -0.24559099838E+03  0.31034299583E+03  0.93387017371E+02 0.  0.
        -11    1    3    3    0    0  0.40610477413E+02  0.78593878856E+01 -0.58524461402E+02  0.71666543352E+02  0.00000000000E+00 0.  1.
         12    1    3    3    0    0  0.46051701296E+01 -0.58518913044E+02 -0.14133648114E+02  0.60377402932E+02  0.00000000000E+00 0. -1.
        -13    1    4    4    0    0 -0.18655988017E+02 -0.20910788064E+02 -0.81300491860E+01  0.29178839012E+02  0.00000000000E+00 0. -1.
         13    1    4    4    0    0 -0.14557241823E+03  0.38395985993E+02 -0.23746094919E+03  0.28116415682E+03  0.00000000000E+00 0.  1.
         -4    1    1    2    0  502  0.11901275870E+03  0.33174327230E+02 -0.32854529335E+02  0.12784362643E+03  0.00000000000E+00 0.  1.
<scales pt_clust_5="13000.00000" pt_clust_6="13000.00000" pt_clust_7="13000.00000" pt_clust_8="13000.00000" pt_clust_9="145.93192"></scales>
<clustering>
<clus scale="   86.865">  5  6 -1 -1</clus>
<clus scale="   93.387">  7  8 -1 -1</clus>
<clus scale="  110.256">  1  5  2 -1</clus>
<clus scale="  145.932">  2  9  1 -1</clus>
<clus scale="  145.932">  2  5  1 -1</clus>
</clustering>
</event>
<event>
 9    2  0.4883225E-005  0.1173743E+03  0.7546771E-02  0.1250417E+00
          2   -1    0    0  502    0 -0.00000000000E+00  0.00000000000E+00  0.11583175246E+03  0.11583175246E+03  0.00000000000E+00 0. -1.
         21   -1    0    0  501  502  0.00000000000E+00 -0.00000000000E+00 -0.28206260345E+03  0.28206260345E+03  0.00000000000E+00 0.  1.
         24    2    1    2    0    0  0.53637173087E+02  0.40939798551E+02  0.47337907734E+02  0.11657972476E+03  0.82443564177E+02 0.  0.
         23    2    1    2    0    0 -0.79955130159E+02 -0.72578365632E+02 -0.15550102574E+03  0.21014233735E+03  0.91207406186E+02 0.  0.
        -11    1    3    3    0    0  0.12238881019E+02 -0.25371844316E+02  0.15680200640E+02  0.32239562415E+02  0.00000000000E+00 0.  1.
         12    1    3    3    0    0  0.41398292068E+02  0.66311642867E+02  0.31657707094E+02  0.84340162344E+02  0.00000000000E+00 0. -1.
        -13    1    4    4    0    0 -0.83390720484E+02 -0.16371413063E+02 -0.96345861702E+02  0.12847007626E+03  0.00000000000E+00 0.  1.
         13    1    4    4    0    0  0.34355903249E+01 -0.56206952569E+02 -0.59155164039E+02  0.81672261083E+02  0.00000000000E+00 0. -1.
          1    1    1    2  501    0  0.26317957072E+02  0.31638567081E+02 -0.58067732987E+02  0.71172293806E+02  0.00000000000E+00 0. -1.
<scales pt_clust_5="13000.00000" pt_clust_6="13000.00000" pt_clust_7="13000.00000" pt_clust_8="13000.00000" pt_clust_9="41.15378"></scales>
<clustering>
<clus scale="   41.154">  2  9  1 -1</clus>
<clus scale="   82.444">  5  6 -1 -1</clus>
<clus scale="   91.207">  7  8 -1 -1</clus>
<clus scale="  110.702">  1  5  2 -1</clus>
<clus scale="   41.154">  2  5  1 -1</clus>
</clustering>
</event>
<event>
 9    2  0.4883225E-005  0.1086307E+03  0.7546771E-02  0.1263218E+00
         21   -1    0    0  501  502  0.00000000000E+00  0.00000000000E+00  0.45874877994E+03  0.45874877994E+03  0.00000000000E+00 0. -1.
         -1   -1    0    0    0  501 -0.00000000000E+00 -0.00000000000E+00 -0.15699219340E+03  0.15699219340E+03  0.00000000000E+00 0.  1.
         24    2    1    2    0    0  0.47801816632E+02 -0.37887647607E+02 -0.12464246164E+03  0.16486663494E+03  0.89021214086E+02 0.  0.
         23    2    1    2    0    0 -0.68703752006E+02  0.35401842225E+02  0.29415962991E+03  0.31697014177E+03  0.89256299123E+02 0.  0.
        -13    1    3    3    0    0  0.52220593946E+02 -0.53471383736E+02 -0.12809427340E+03  0.14830482860E+03  0.00000000000E+00 0.  1.
         14    1    3    3    0    0 -0.44187773140E+01  0.15583736129E+02  0.34518117532E+01  0.16561806335E+02  0.00000000000E+00 0. -1.
        -11    1    4    4    0    0 -0.89341141142E+02  0.18154051203E+02  0.22845100272E+03  0.24597005858E+03  0.00000000000E+00 0. -1.
         11    1    4    4    0    0  0.20637389136E+02  0.17247791023E+02  0.65708627190E+02  0.71000083188E+02  0.00000000000E+00 0.  1.
         -2    1    1    2    0  502  0.20901935375E+02  0.24858053820E+01  0.13223941828E+03  0.13390419664E+03  0.00000000000E+00 0.  1.
<scales pt_clust_5="13000.00000" pt_clust_6="13000.00000" pt_clust_7="13000.00000" pt_clust_8="13000.00000" pt_clust_9="21.04923"></scales>
<clustering>
<clus scale="   21.049">  1  9  2 -1</clus>
<clus scale="   89.021">  5  6 -1 -1</clus>
<clus scale="   89.256">  7  8 -1 -1</clus>
<clus scale="  108.438">  2  5  1 -1</clus>
<clus scale="   21.049">  1  5  2 -1</clus>
</clustering>
</event>
<event>
 9    2  0.4883225E-005  0.1225854E+03  0.7546771E-02  0.1248190E+00
          2   -1    0    0  502    0 -0.00000000000E+00  0.00000000000E+00  0.19898646420E+03  0.19898646420E+03  0.00000000000E+00 0. -1.
         21   -1    0    0  501  502  0.00000000000E+00 -0.00000000000E+00 -0.21599617913E+03  0.21599617913E+03  0.00000000000E+00 0. -1.
         24    2    1    2    0    0 -0.66201232369E+02 -0.52879376410E+01  0.78700710184E+02  0.12851701594E+03  0.76891196843E+02 0.  0.
         23    2    1    2    0    0 -0.58219196975E+02  0.21613713121E+02 -0.11250273397E+03  0.15986011479E+03  0.95088188856E+02 0.  0.
        -13    1    3    3    0    0 -0.13993111374E+02  0.33582817584E+02  0.31368556681E+02  0.48037476526E+02  0.00000000000E+00 0.  1.
         14    1    3    3    0    0 -0.52208120995E+02 -0.38870755225E+02  0.47332153503E+02  0.80479539417E+02  0.00000000000E+00 0. -1.
        -11    1    4    4    0    0  0.18767594481E+02  0.28641157743E+02 -0.21407662597E+02  0.40383493377E+02  0.00000000000E+00 0.  1.
         11    1    4    4    0    0 -0.76986791457E+02 -0.70274446222E+01 -0.91095071374E+02  0.11947662142E+03  0.00000000000E+00 0. -1.
          1    1    1    2  501    0  0.12442042934E+03 -0.16325775480E+02  0.16792308854E+02  0.12660551260E+03  0.00000000000E+00 0. -1.
<scales pt_clust_5="13000.00000" pt_clust_6="13000.00000" pt_clust_7="13000.00000" pt_clust_8="13000.00000" pt_clust_9="77.36553"></scales>
<clustering>
<clus scale="   76.891">  5  6 -1 -1</clus>
<clus scale="   95.088">  7  8 -1 -1</clus>
<clus scale="  101.601">  1  5  2 -1</clus>
<clus scale="   77.366">  2  9  1 -1</clus>
<clus scale="   77.366">  2  5  1 -1</clus>
</clustering>
</event>
<event>
 9    2  0.4883225E-005  0.1547685E+03  0.7546771E-02  0.1197760E+00
          2   -1    0    0  502    0 -0.00000000000E+00  0.00000000000E+00  0.43745133347E+03  0.43745133347E+03  0.00000000000E+00 0. -1.
         21   -1    0    0  501  502  0.00000000000E+00 -0.00000000000E+00 -0.23024890915E+03  0.23024890915E+03  0.00000000000E+00 0. -1.
         24    2    1    2    0    0  0.97730453767E+02 -0.50449265346E+02  0.40403386849E+02  0.13675407989E+03  0.70518612656E+02 0.  0.
         23    2    1    2    0    0 -0.20439964475E+03 -0.18210454680E+02 -0.92645488192E+02  0.24214876772E+03  0.89117920726E+02 0.  0.
        -13    1    3    3    0    0  0.81383475113E+02 -0.19384986132E+02  0.57215099903E+00  0.83662267873E+02  0.00000000000E+00 0.  1.
         14    1    3    3    0    0  0.16346978654E+02 -0.31064279214E+02  0.39831235850E+02  0.53091812020E+02  0.00000000000E+00 0. -1.
        -11    1    4    4    0    0 -0.35369995465E+02 -0.39887547038E+02 -0.22009230467E+02  0.57675464572E+02  0.00000000000E+00 0.  1.
         11    1    4    4    0    0 -0.16902964928E+03  0.21677092358E+02 -0.70636257725E+02  0.18447330315E+03  0.00000000000E+00 0. -1.
          1    1    1    2  501    0  0.10666919098E+03  0.68659720025E+02  0.25944452566E+03  0.28879739499E+03  0.00000000000E+00 0. -1.
<scales pt_clust_5="13000.00000" pt_clust_6="13000.00000" pt_clust_7="13000.00000" pt_clust_8="13000.00000" pt_clust_9="126.85618"></scales>
<clustering>
<clus scale="   70.519">  5  6 -1 -1</clus>
<clus scale="   89.118">  7  8 -1 -1</clus>
<clus scale="  126.856">  2  9  1 -1</clus>
<clus scale="  144.859">  1  5  2 -1</clus>
<clus scale="  126.856">  2  5  1 -1</clus>
</clustering>
</event>
<event>
 9    2  0.4883225E-005  0.9614201E+02  0.7546771E-02  0.1295571E+00
         -3   -1    0    0    0  501 -0.00000000000E+00  0.00000000000E+00  0.47087379800E+03  0.47087379800E+03  0.00000000000E+00 0.  1.
         21   -1    0    0  501  502  0.00000000000E+00 -0.00000000000E+00 -0.34500146243E+02  0.34500146243E+02  0.00000000000E+00 0.  1.
         24    2    1    2    0    0  0.18934933182E+02  0.65526454045E-01  0.26827998365E+03  0.28055209337E+03  0.79854814997E+02 0.  0.
         23    2    1    2    0    0 -0.53849431243E+02 -0.20657878677E+02  0.12535991928E+03  0.16592159252E+03  0.92132276141E+02 0.  0.
        -13    1    3    3    0    0  0.36806497411E+02 -0.29557391344E+02  0.14350682370E+03  0.15107139400E+03  0.00000000000E+00 0.  1.
         14    1    3    3    0    0 -0.17871564229E+02  0.29622917798E+02  0.12477315995E+03  0.12948069937E+03  0.00000000000E+00 0. -1.
        -11    1    4    4    0    0 -0.44178252690E+02 -0.55088808369E+02  0.98489536890E+02  0.12118862857E+03  0.00000000000E+00 0.  1.
         11    1    4    4    0    0 -0.96711785535E+01  0.34430929692E+02  0.26870382390E+02  0.44732963951E+02  0.00000000000E+00 0. -1.
         -4    1    1    2    0  502  0.34914498061E+02  0.20592352223E+02  0.42733748827E+02  0.58900258351E+02  0.00000000000E+00 0.  1.
<scales pt_clust_5="13000.00000" pt_clust_6="13000.00000" pt_clust_7="13000.00000" pt_clust_8="13000.00000" pt_clust_9="40.53476"></scales>
<clustering>
<clus scale="   40.535">  2  9  1 -1</clus>
<clus scale="   79.855">  5  6 -1 -1</clus>
<clus scale="   84.450">  1  5  2 -1</clus>
<clus scale="   92.132">  7  8 -1 -1</clus>
<clus scale="   40.535">  2  5  1 -1</clus>
</clustering>
</event>
<event>
 9    2  0.4883225E-005  0.9528279E+02  0.7546771E-02  0.1292433E+00
          2   -1    0    0  502    0 -0.00000000000E+00  0.00000000000E+00  0.57094039258E+03  0.57094039258E+03  0.00000000000E+00 0. -1.
         21   -1    0    0  501  502  0.00000000000E+00 -0.00000000000E+00 -0.59414383308E+02  0.59414383308E+02  0.00000000000E+00 0.  1.
         24    2    1    2    0    0 -0.15691179371E+02 -0.19888179345E+02  0.50507107159E+03  0.51410348829E+03  0.92541107241E+02 0.  0.
         23    2    1    2    0    0  0.75865188228E+00 -0.11041293784E+00  0.13890907197E+02  0.90208674196E+02  0.89129455589E+02 0.  0.
        -13    1    3    3    0    0 -0.16994708428E+02  0.14476324347E+02  0.28073565582E+02  0.35867940638E+02  0.00000000000E+00 0.  1.
         14    1    3    3    0    0  0.13035290573E+01 -0.34364503692E+02  0.47699750601E+03  0.47823554765E+03  0.00000000000E+00 0. -1.
        -13    1    4    4    0    0 -0.89133935263E+01 -0.43498341632E+02  0.10498907390E+02  0.45626542333E+02  0.00000000000E+00 0. -1.
         13    1    4    4    0    0  0.96720454086E+01  0.43387928694E+02  0.33919998064E+01  0.44582131863E+02  0.00000000000E+00 0.  1.
          1    1    1    2  501    0  0.14932527488E+02  0.19998592283E+02 -0.74359695082E+01  0.26042613406E+02  0.00000000000E+00 0. -1.
<scales pt_clust_5="13000.00000" pt_clust_6="13000.00000" pt_clust_7="13000.00000" pt_clust_8="13000.00000" pt_clust_9="24.95845"></scales>
<clustering>
<clus scale="   24.958">  2  9  1 -1</clus>
<clus scale="   89.129">  7  8 -1 -1</clus>
<clus scale="   91.973">  2  7  1 -1</clus>
<clus scale="   92.541">  5  6 -1 -1</clus>
<clus scale="   24.958">  2  5  1 -1</clus>
</clustering>
</event>
<event>
 9    2  0.4883225E-005  0.1171781E+03  0.7546771E-02  0.1252044E+00
         21   -1    0    0  501  502  0.00000000000E+00  0.00000000000E+00  0.15310308110E+02  0.15310308110E+02  0.00000000000E+00 0. -1.
          2   -1    0    0  502    0 -0.00000000000E+00 -0.00000000000E+00 -0.13768849053E+04  0.13768849053E+04  0.00000000000E+00 0. -1.
         24    2    1    2    0    0 -0.41767192840E+02  0.66233572834E+02 -0.97568609768E+03  0.98215833830E+03  0.80871847569E+02 0.  0.
         23    2    1    2    0    0  0.30711799829E+02 -0.37778903586E+02 -0.25844223739E+03  0.27898558879E+03  0.93113417297E+02 0.  0.
        -11    1    3    3    0    0 -0.26689155853E+02  0.40520742855E+02 -0.19648250164E+03  0.20238481932E+03  0.00000000000E+00 0.  1.
         12    1    3    3    0    0 -0.15078036987E+02  0.25712829979E+02 -0.77920359604E+03  0.77977351898E+03  0.00000000000E+00 0. -1.
        -13    1    4    4    0    0  0.57697486644E+02 -0.35095190277E+02 -0.22990345187E+03  0.23961692246E+03  0.00000000000E+00 0.  1.
         13    1    4    4    0    0 -0.26985686815E+02 -0.26837133083E+01 -0.28538785522E+02  0.39368666336E+02  0.00000000000E+00 0. -1.
          1    1    1    2  501    0  0.11055393011E+02 -0.28454669248E+02 -0.12744626215E+03  0.13105128634E+03  0.00000000000E+00 0. -1.
<scales pt_clust_5="13000.00000" pt_clust_6="13000.00000" pt_clust_7="13000.00000" pt_clust_8="13000.00000" pt_clust_9="30.52687"></scales>
<clustering>
<clus scale="   30.527">  1  9  2 -1</clus>
<clus scale="   80.872">  5  6 -1 -1</clus>
<clus scale="   93.113">  7  8 -1 -1</clus>
<clus scale="  107.707">  2  5  1 -1</clus>
<clus scale="   30.527">  1  5  2 -1</clus>
</clustering>
</event>
<event>
 9    2  0.4883225E-005  0.1156878E+03  0.7546771E-02  0.1252828E+00
         21   -1    0    0  501  502  0.00000000000E+00  0.00000000000E+00  0.24419126287E+02  0.24419126287E+02  0.00000000000E+00 0. -1.
          2   -1    0    0  502    0 -0.00000000000E+00 -0.00000000000E+00 -0.97405620918E+03  0.97405620918E+03  0.00000000000E+00 0. -1.
         24    2    1    2    0    0  0.27742637454E+02 -0.62611342664E+02 -0.53788118386E+03  0.54852730438E+03  0.82922864970E+02 0.  0.
         23    2    1    2    0    0 -0.66753248832E+02  0.54173879926E+02 -0.37695836054E+03  0.39699628642E+03  0.90097948707E+02 0.  0.
        -13    1    3    3    0    0 -0.11074105522E+02 -0.61754113740E+02 -0.23749077691E+03  0.24563809862E+03  0.00000000000E+00 0.  1.
         14    1    3    3    0    0  0.38816742976E+02 -0.85722892388E+00 -0.30039040695E+03  0.30288920575E+03  0.00000000000E+00 0. -1.
        -11    1    4    4    0    0 -0.19168780436E+01  0.43255367967E+02 -0.64431066988E+02  0.77627724896E+02  0.00000000000E+00 0. -1.
         11    1    4    4    0    0 -0.64836370789E+02  0.10918511959E+02 -0.31252729355E+03  0.31936856153E+03  0.00000000000E+00 0.  1.
          1    1    1    2  501    0  0.39010611378E+02  0.84374627380E+01 -0.34797538499E+02  0.52951744666E+02  0.00000000000E+00 0. -1.
<scales pt_clust_5="13000.00000" pt_clust_6="13000.00000" pt_clust_7="13000.00000" pt_clust_8="13000.00000" pt_clust_9="39.91264"></scales>
<clustering>
<clus scale="   39.913">  1  9  2 -1</clus>
<clus scale="   82.923">  5  6 -1 -1</clus>
<clus scale="   90.098">  7  8 -1 -1</clus>
<clus scale="  110.192">  2  5  1 -1</clus>
<clus scale="   39.913">  1  5  2 -1</clus>
</clustering>
</event>
<event>
 9    2  0.4883225E-005  0.1752201E+03  0.7546771E-02  0.1173954E+00
          2   -1    0    0  502    0 -0.00000000000E+00  0.00000000000E+00  0.86045219588E+03  0.86045219588E+03  0.00000000000E+00 0. -1.
         21   -1    0    0  501  502  0.00000000000E+00 -0.00000000000E+00 -0.63444141436E+02  0.63444141436E+02  0.00000000000E+00 0. -1.
         23    2    1    2    0    0  0.63450333692E+02  0.12719637594E+03  0.39317828904E+03  0.42650414935E+03  0.84331248907E+02 0.  0.
         24    2    1    2    0    0 -0.10379395906E+03 -0.13273711802E+03  0.41628865425E+03  0.45480660540E+03  0.71836454680E+02 0.  0.
        -13    1    4    4    0    0 -0.42187576819E+02 -0.63140221823E+02  0.27799999275E+03  0.28818479353E+03  0.00000000000E+00 0.  1.
         14    1    4    4    0    0 -0.61606382245E+02 -0.69596896196E+02  0.13828866150E+03  0.16662181187E+03  0.00000000000E+00 0. -1.
        -11    1    3    3    0    0  0.66193084545E+02  0.73954955608E+02  0.32581718495E+03  0.34059902805E+03  0.00000000000E+00 0. -1.
         11    1    3    3    0    0 -0.27427508529E+01  0.53241420332E+02  0.67361104092E+02  0.85905121301E+02  0.00000000000E+00 0.  1.
          1    1    1    2  501    0  0.40343625372E+02  0.55407420796E+01 -0.12458888847E+02  0.42585582563E+02  0.00000000000E+00 0. -1.
<scales pt_clust_5="13000.00000" pt_clust_6="13000.00000" pt_clust_7="13000.00000" pt_clust_8="13000.00000" pt_clust_9="40.72233"></scales>
<clustering>
<clus scale="   40.722">  2  9  1 -1</clus>
<clus scale="   71.836">  5  6 -1 -1</clus>
<clus scale="   84.331">  7  8 -1 -1</clus>
<clus scale="  169.561">  2  5  1 -1</clus>
<clus scale="   40.722">  2  5  1 -1</clus>
</clustering>
</event>
<event>
 9    2  0.4883225E-005  0.1328231E+03  0.7546771E-02  0.1230324E+00
          2   -1    0    0  502    0 -0.00000000000E+00  0.00000000000E+00  0.63369474427E+03  0.63369474427E+03  0.00000000000E+00 0. -1.
         21   -1    0    0  501  502  0.00000000000E+00 -0.00000000000E+00 -0.39816316017E+02  0.39816316017E+02  0.00000000000E+00 0.  1.
         24    2    1    2    0    0 -0.75596173853E+02 -0.40215513702E+02  0.43915998255E+03  0.45482137084E+03  0.81663456054E+02 0.  0.
         23    2    1    2    0    0  0.52590918877E+02  0.42531895303E+02  0.14939535635E+03  0.19496327673E+03  0.10543690014E+03 0.  0.
        -11    1    3    3    0    0 -0.13770323412E+02 -0.49061874753E+02  0.13458992414E+03  0.14391364439E+03  0.00000000000E+00 0.  1.
         12    1    3    3    0    0 -0.61825850442E+02  0.88463610508E+01  0.30457005841E+03  0.31090772645E+03  0.00000000000E+00 0. -1.
        -11    1    4    4    0    0  0.46062711742E+02  0.77031279962E+02  0.10015449813E+03  0.13448611453E+03  0.00000000000E+00 0.  1.
         11    1    4    4    0    0  0.65282071350E+01 -0.34499384659E+02  0.49240858216E+02  0.60477162203E+02  0.00000000000E+00 0. -1.
          1    1    1    2  501    0  0.23005254977E+02 -0.23163816015E+01  0.53230893622E+01  0.23726412721E+02  0.00000000000E+00 0. -1.
<scales pt_clust_5="13000.00000" pt_clust_6="13000.00000" pt_clust_7="13000.00000" pt_clust_8="13000.00000" pt_clust_9="23.12158"></scales>
<clustering>
<clus scale="   23.122">  2  9  1 -1</clus>
<clus scale="   81.663">  5  6 -1 -1</clus>
<clus scale="  105.437">  7  8 -1 -1</clus>
<clus scale="  114.865">  1  5  2 -1</clus>
<clus scale="   23.122">  2  5  1 -1</clus>
</clustering>
</event>
<event>
 9    2  0.4883225E-005  0.1936090E+03  0.7546771E-02  0.1156227E+00
         21   -1    0    0  501  502  0.00000000000E+00  0.00000000000E+00  0.82537790162E+02  0.82537790162E+02  0.00000000000E+00 0. -1.
          2   -1    0    0  502    0 -0.00000000000E+00 -0.00000000000E+00 -0.18379385545E+04  0.18379385545E+04  0.00000000000E+00 0. -1.
         24    2    1    2    0    0  0.58576795083E+02 -0.13063383407E+03 -0.82835015220E+03  0.84447484569E+03  0.80481990694E+02 0.  0.
         23    2    1    2    0    0 -0.34424067111E+02  0.23020664507E+03 -0.94011873289E+03  0.97271125389E+03  0.90353946741E+02 0.  0.
        -13    1    3    3    0    0  0.61260239143E+02 -0.12490340946E+03 -0.59531993392E+03  0.61135873456E+03  0.00000000000E+00 0.  1.
         14    1    3    3    0    0 -0.26834440595E+01 -0.57304246057E+01 -0.23303021828E+03  0.23311611113E+03  0.00000000000E+00 0. -1.
        -13    1    4    4    0    0 -0.31827032158E+02  0.17118571218E+02 -0.15797841595E+03  0.16205920326E+03  0.00000000000E+00 0.  1.
         13    1    4    4    0    0 -0.25970349524E+01  0.21308807385E+03 -0.78214031694E+03  0.81065205063E+03  0.00000000000E+00 0. -1.
          1    1    1    2  501    0 -0.24152727972E+02 -0.99572810998E+02  0.13068120709E+02  0.10329024512E+03  0.00000000000E+00 0. -1.
<scales pt_clust_5="13000.00000" pt_clust_6="13000.00000" pt_clust_7="13000.00000" pt_clust_8="13000.00000" pt_clust_9="102.46023"></scales>
<clustering>
<clus scale="   80.482">  5  6 -1 -1</clus>
<clus scale="   90.354">  7  8 -1 -1</clus>
<clus scale="  102.460">  1  9  2 -1</clus>
<clus scale="  189.203">  2  5  1 -1</clus>
<clus scale="  102.460">  1  5  2 -1</clus>
</clustering>
</event>
<event>
 9    2  0.4883225E-005  0.9963143E+02  0.7546771E-02  0.1286700E+00
         21   -1    0    0  501  502  0.00000000000E+00  0.00000000000E+00  0.27911769553E+02  0.27911769553E+02  0.00000000000E+00 0. -1.
          2   -1    0    0  502    0 -0.00000000000E+00 -0.00000000000E+00 -0.95720199536E+03  0.95720199536E+03  0.00000000000E+00 0. -1.
         24    2    1    2    0    0  0.21105993266E+02  0.37369547783E+02 -0.78159597612E+03  0.78682698455E+03  0.79765203432E+02 0.  0.
         23    2    1    2    0    0  0.12223340213E+02 -0.33352120235E+02 -0.98004668963E+02  0.13831980089E+03  0.90915775366E+02 0.  0.
        -13    1    3    3    0    0  0.11305782397E+02 -0.18061058403E+02 -0.74310213978E+02  0.77304789294E+02  0.00000000000E+00 0.  1.
         14    1    3    3    0    0  0.98002108691E+01  0.55430606186E+02 -0.70728576214E+03  0.70952219525E+03  0.00000000000E+00 0. -1.
        -13    1    4    4    0    0 -0.20846880087E+02 -0.27838231327E+02 -0.98842461453E+02  0.10478259263E+03  0.00000000000E+00 0.  1.
         13    1    4    4    0    0  0.33070220301E+02 -0.55138889084E+01  0.83779248988E+00  0.33537208260E+02  0.00000000000E+00 0. -1.
          1    1    1    2  501    0 -0.33329333479E+02 -0.40174275477E+01 -0.49689580732E+02  0.59966979477E+02  0.00000000000E+00 0. -1.
<scales pt_clust_5="13000.00000" pt_clust_6="13000.00000" pt_clust_7="13000.00000" pt_clust_8="13000.00000" pt_clust_9="33.57059"></scales>
<clustering>
<clus scale="   33.571">  1  9  2 -1</clus>
<clus scale="   79.765">  5  6 -1 -1</clus>
<clus scale="   89.572">  2  5  1 -1</clus>
<clus scale="   90.916">  7  8 -1 -1</clus>
<clus scale="   33.571">  1  5  2 -1</clus>
</clustering>
</event>
<event>
 9    2  0.4883225E-005  0.2396913E+03  0.7546771E-02  0.1158619E+00
         21   -1    0    0  501  502  0.00000000000E+00  0.00000000000E+00  0.78672530102E+02  0.78672530102E+02  0.00000000000E+00 0.  1.
         -1   -1    0    0    0  501 -0.00000000000E+00 -0.00000000000E+00 -0.11190538066E+04  0.11190538066E+04  0.00000000000E+00 0.  1.
         23    2    1    2    0    0  0.82172540276E+01 -0.19377959190E+02 -0.32359310966E+03  0.33705043122E+03  0.91910086514E+02 0.  0.
         24    2    1    2    0    0  0.18878898394E+03  0.12828789592E+03 -0.28179277288E+03  0.37088633344E+03  0.77784579348E+02 0.  0.
        -11    1    4    4    0    0  0.13769204936E+03  0.12915787193E+03 -0.20544551686E+03  0.27901382893E+03  0.00000000000E+00 0.  1.
         12    1    4    4    0    0  0.51096934584E+02 -0.86997600461E+00 -0.76347256022E+02  0.91872504506E+02  0.00000000000E+00 0. -1.
        -13    1    3    3    0    0  0.26232625770E+02  0.30890055672E+02 -0.12512168712E+03  0.13152103551E+03  0.00000000000E+00 0.  1.
         13    1    3    3    0    0 -0.18015371742E+02 -0.50268014862E+02 -0.19847142253E+03  0.20552939571E+03  0.00000000000E+00 0. -1.
         -2    1    1    2    0  502 -0.19700623797E+03 -0.10890993673E+03 -0.43499539398E+03  0.48978957207E+03  0.00000000000E+00 0.  1.
<scales pt_clust_5="13000.00000" pt_clust_6="13000.00000" pt_clust_7="13000.00000" pt_clust_8="13000.00000" pt_clust_9="226.71909"></scales>
<clustering>
<clus scale="   77.785">  5  6 -1 -1</clus>
<clus scale="   91.910">  7  8 -1 -1</clus>
<clus scale="   94.289">  2  7  1 -1</clus>
<clus scale="  226.719">  1  9  2 -1</clus>
<clus scale="  226.719">  1  5  2 -1</clus>
</clustering>
</event>
<event>
 9    2  0.4883225E-005  0.2178881E+03  0.7546771E-02  0.1177051E+00
         -3   -1    0    0    0  501 -0.00000000000E+00  0.00000000000E+00  0.18130805977E+03  0.18130805977E+03  0.00000000000E+00 0.  1.
         21   -1    0    0  501  502  0.00000000000E+00 -0.00000000000E+00 -0.42271018645E+03  0.42271018645E+03  0.00000000000E+00 0. -1.
         24    2    1    2    0    0 -0.13195369054E+01  0.13333953846E+02  0.11065601237E+02  0.82948268142E+02  0.81107534509E+02 0.  0.
         23    2    1    2    0    0 -0.17618135641E+03  0.82487205288E+02 -0.23417990554E+03  0.31852934977E+03  0.93684092162E+02 0.  0.
        -13    1    3    3    0    0  0.17301485666E+02  0.42101136492E+02 -0.36302014985E+01  0.45662079049E+02  0.00000000000E+00 0.  1.
         14    1    3    3    0    0 -0.18621022571E+02 -0.28767182646E+02  0.14695802736E+02  0.37286189093E+02  0.00000000000E+00 0. -1.
        -11    1    4    4    0    0 -0.85181954524E+02  0.51710268750E+02 -0.51590995855E+02  0.11221206764E+03  0.00000000000E+00 0.  1.
         11    1    4    4    0    0 -0.90999401891E+02  0.30776936538E+02 -0.18258890969E+03  0.20631728213E+03  0.00000000000E+00 0. -1.
         -4    1    1    2    0  502  0.17750089332E+03 -0.95821159134E+02 -0.18287822374E+02  0.20254062831E+03  0.00000000000E+00 0.  1.
<scales pt_clust_5="13000.00000" pt_clust_6="13000.00000" pt_clust_7="13000.00000" pt_clust_8="13000.00000" pt_clust_9="196.71949"></scales>
<clustering>
<clus scale="   81.108">  5  6 -1 -1</clus>
<clus scale="   82.207">  1  5  2 -1</clus>
<clus scale="   93.684">  7  8 -1 -1</clus>
<clus scale="  196.719">  2  9  1 -1</clus>
<clus scale="  196.719">  2  5  1 -1</clus>
</clustering>
</event>
<event>
 9    2  0.4883225E-005  0.1342624E+03  0.7546771E-02  0.1224526E+00
          2   -1    0    0  502    0 -0.00000000000E+00  0.00000000000E+00  0.99368867904E+03  0.99368867904E+03  0.00000000000E+00 0. -1.
         21   -1    0    0  501  502  0.00000000000E+00 -0.00000000000E+00 -0.52620861837E+02  0.52620861837E+02  0.00000000000E+00 0. -1.
         24    2    1    2    0    0 -0.42867703204E+02  0.93650637133E+02  0.79770903950E+03  0.81066319007E+03  0.10112870122E+03 0.  0.
         23    2    1    2    0    0  0.28567885516E+02 -0.44152901136E+02  0.15155150671E+03  0.18347709297E+03  0.89052690567E+02 0.  0.
        -13    1    3    3    0    0  0.23997422788E+02 -0.36780095230E+01  0.92327944241E+02  0.95466503771E+02  0.00000000000E+00 0.  1.
         14    1    3    3    0    0 -0.66865125992E+02  0.97328646656E+02  0.70538109526E+03  0.71519668630E+03  0.00000000000E+00 0. -1.
        -11    1    4    4    0    0 -0.31702439596E+02 -0.12129928150E+02  0.64237015951E+02  0.72653795851E+02  0.00000000000E+00 0. -1.
         11    1    4    4    0    0  0.60270325112E+02 -0.32022972986E+02  0.87314490763E+02  0.11082329712E+03  0.00000000000E+00 0.  1.
          1    1    1    2  501    0  0.14299817688E+02 -0.49497735997E+02 -0.81927290123E+01  0.52169257838E+02  0.00000000000E+00 0. -1.
<scales pt_clust_5="13000.00000" pt_clust_6="13000.00000" pt_clust_7="13000.00000" pt_clust_8="13000.00000" pt_clust_9="51.52194"></scales>
<clustering>
<clus scale="   51.522">  2  9  1 -1</clus>
<clus scale="   89.053">  7  8 -1 -1</clus>
<clus scale="  101.129">  5  6 -1 -1</clus>
<clus scale="  125.418">  2  7  1 -1</clus>
<clus scale="   51.522">  2  5  1 -1</clus>
</clustering>
</event>
<event>
 9    2  0.4883225E-005  0.1554380E+03  0.7546771E-02  0.1196836E+00
         21   -1    0    0  501  502  0.00000000000E+00  0.00000000000E+00  0.21275993857E+03  0.21275993857E+03  0.00000000000E+00 0.  1.
         -3   -1    0    0    0  501 -0.00000000000E+00 -0.00000000000E+00 -0.26348668207E+03  0.26348668207E+03  0.00000000000E+00 0.  1.
         23    2    1    2    0    0  0.99925257788E+02  0.10328161715E+03 -0.17111452589E+03  0.24177318029E+03  0.92314355080E+02 0.  0.
         24    2    1    2    0    0 -0.76185739413E+02 -0.16209210331E+02  0.84610577385E+02  0.13739008874E+03  0.75167022620E+02 0.  0.
        -13    1    4    4    0    0 -0.88057446966E+02 -0.68263808817E+01  0.84535801920E+02  0.12225798644E+03  0.00000000000E+00 0.  1.
         14    1    4    4    0    0  0.11871707553E+02 -0.93828294493E+01  0.74775464472E-01  0.15132102301E+02  0.00000000000E+00 0. -1.
        -11    1    3    3    0    0  0.76443567335E+02  0.92824202360E+02 -0.17832063907E+03  0.21507719974E+03  0.00000000000E+00 0.  1.
         11    1    3    3    0    0  0.23481690452E+02  0.10457414788E+02  0.72061131773E+01  0.26695980553E+02  0.00000000000E+00 0. -1.
         -4    1    1    2    0  502 -0.23739518374E+02 -0.87072406817E+02  0.35777205008E+02  0.97083351610E+02  0.00000000000E+00 0.  1.
<scales pt_clust_5="13000.00000" pt_clust_6="13000.00000" pt_clust_7="13000.00000" pt_clust_8="13000.00000" pt_clust_9="90.25059"></scales>
<clustering>
<clus scale="   75.167">  5  6 -1 -1</clus>
<clus scale="   90.251">  1  9  2 -1</clus>
<clus scale="   92.314">  7  8 -1 -1</clus>
<clus scale="  145.908">  1  5  2 -1</clus>
<clus scale="   90.251">  1  5  2 -1</clus>
</clustering>
</event>
<event>
 9    2  0.4883225E-005  0.1593482E+03  0.7546771E-02  0.1210458E+00
         21   -1    0    0  501  502  0.00000000000E+00  0.00000000000E+00  0.63031444811E+02  0.63031444811E+02  0.00000000000E+00 0. -1.
          2   -1    0    0  502    0 -0.00000000000E+00 -0.00000000000E+00 -0.63262664801E+03  0.63262664801E+03  0.00000000000E+00 0. -1.
         23    2    1    2    0    0 -0.18635575668E+02 -0.38949874492E+02 -0.23333735520E+03  0.25422952283E+03  0.91224731001E+02 0.  0.
         24    2    1    2    0    0  0.93462242492E+02 -0.69281100230E+02 -0.17908747295E+03  0.23645174020E+03  0.10149896972E+03 0.  0.
        -11    1    4    4    0    0 -0.58128881390E+01 -0.47872667023E+02 -0.32622988189E+02  0.58222343433E+02  0.00000000000E+00 0.  1.
         12    1    4    4    0    0  0.99275130631E+02 -0.21408433207E+02 -0.14646448477E+03  0.17822939677E+03  0.00000000000E+00 0. -1.
        -11    1    3    3    0    0  0.18430585271E+02 -0.50518728760E+02 -0.82533562115E+02  0.98506940387E+02  0.00000000000E+00 0. -1.
         11    1    3    3    0    0 -0.37066160939E+02  0.11568854268E+02 -0.15080379308E+03  0.15572258245E+03  0.00000000000E+00 0.  1.
          1    1    1    2  501    0 -0.74826666824E+02  0.10823097472E+03 -0.15717037505E+03  0.20497682979E+03  0.00000000000E+00 0. -1.
<scales pt_clust_5="13000.00000" pt_clust_6="13000.00000" pt_clust_7="13000.00000" pt_clust_8="13000.00000" pt_clust_9="122.84064"></scales>
<clustering>
<clus scale="   91.225">  7  8 -1 -1</clus>
<clus scale="  100.927">  2  7  1 -1</clus>
<clus scale="  101.499">  5  6 -1 -1</clus>
<clus scale="  122.841">  1  9  2 -1</clus>
<clus scale="  122.841">  1  5  2 -1</clus>
</clustering>
</event>
<event>
 9    2  0.4883225E-005  0.9049863E+02  0.7546771E-02  0.1303920E+00
         21   -1    0    0  501  502  0.00000000000E+00  0.00000000000E+00  0.85117773792E+02  0.85117773792E+02  0.00000000000E+00 0. -1.
          2   -1    0    0  502    0 -0.00000000000E+00 -0.00000000000E+00 -0.11254168615E+04  0.11254168615E+04  0.00000000000E+00 0. -1.
         24    2    1    2    0    0  0.24534800813E+02  0.12612185372E+02 -0.10602354653E+04  0.10637961815E+04  0.82474543786E+02 0.  0.
         23    2    1    2    0    0 -0.28333864346E+02  0.22726505739E+02 -0.17293848772E+02  0.95266658346E+02  0.86355990268E+02 0.  0.
        -13    1    3    3    0    0  0.21250564713E+02 -0.23279652589E+01 -0.64641782961E+02  0.68084991204E+02  0.00000000000E+00 0.  1.
         14    1    3    3    0    0  0.32842361006E+01  0.14940150630E+02 -0.99559368230E+03  0.99571119033E+03  0.00000000000E+00 0. -1.
        -13    1    4    4    0    0  0.25428448017E+01 -0.31327802696E+02 -0.60626940735E+01  0.32010209947E+02  0.00000000000E+00 0.  1.
         13    1    4    4    0    0 -0.30876709147E+02  0.54054308435E+02 -0.11231154698E+02  0.63256448399E+02  0.00000000000E+00 0. -1.
          1    1    1    2  501    0  0.37990635322E+01 -0.35338691111E+02  0.37230226312E+02  0.51471795426E+02  0.00000000000E+00 0. -1.
<scales pt_clust_5="13000.00000" pt_clust_6="13000.00000" pt_clust_7="13000.00000" pt_clust_8="13000.00000" pt_clust_9="35.54231"></scales>
<clustering>
<clus scale="   35.542">  1  9  2 -1</clus>
<clus scale="   82.475">  5  6 -1 -1</clus>
<clus scale="   86.356">  7  8 -1 -1</clus>
<clus scale="   86.803">  2  5  1 -1</clus>
<clus scale="   35.542">  1  5  2 -1</clus>
</clustering>
</event>
<event>
 9    2  0.4883225E-005  0.1406600E+03  0.7546771E-02  0.1216876E+00
         21   -1    0    0  501  502  0.00000000000E+00  0.00000000000E+00  0.86334066820E+02  0.86334066820E+02  0.00000000000E+00 0.  1.
          2   -1    0    0  502    0 -0.00000000000E+00 -0.00000000000E+00 -0.83076048196E+03  0.83076048196E+03  0.00000000000E+00 0. -1.
         24    2    1    2    0    0  0.80682416925E+02  0.58704878044E+02 -0.18976519916E+03  0.22892899540E+03  0.80260444891E+02 0.  0.
         23    2    1    2    0    0 -0.62852584856E+02  0.85635603216E+02 -0.29311628366E+02  0.14305614542E+03  0.91224915590E+02 0.  0.
        -11    1    3    3    0    0  0.38259697595E+02 -0.14406909199E+02 -0.41460413875E+02  0.58226535286E+02  0.00000000000E+00 0.  1.
         12    1    3    3    0    0  0.42422719329E+02  0.73111787244E+02 -0.14830478529E+03  0.17070246011E+03  0.00000000000E+00 0. -1.
        -13    1    4    4    0    0 -0.66273424483E+02  0.42429779992E+02  0.16055831253E+02  0.80313403241E+02  0.00000000000E+00 0.  1.
         13    1    4    4    0    0  0.34208396277E+01  0.43205823224E+02 -0.45367459619E+02  0.62742742181E+02  0.00000000000E+00 0. -1.
          1    1    1    2  501    0 -0.17829832069E+02 -0.14434048126E+03 -0.52534958761E+03  0.54510940796E+03  0.00000000000E+00 0. -1.
<scales pt_clust_5="13000.00000" pt_clust_6="13000.00000" pt_clust_7="13000.00000" pt_clust_8="13000.00000" pt_clust_9="107.06656"></scales>
<clustering>
<clus scale="   80.260">  5  6 -1 -1</clus>
<clus scale="   91.225">  7  8 -1 -1</clus>
<clus scale="  128.053">  2  5  1 -1</clus>
<clus scale="  107.067">  1  9  2 -1</clus>
<clus scale="  107.067">  1  5  2 -1</clus>
</clustering>
</event>
<event>
 9    2  0.4883225E-005  0.1380917E+03  0.7546771E-02  0.1228141E+00
         21   -1    0    0  501  502  0.00000000000E+00  0.00000000000E+00  0.14439657474E+03  0.14439657474E+03  0.00000000000E+00 0.  1.
          2   -1    0    0  502    0 -0.00000000000E+00 -0.00000000000E+00 -0.27215328237E+03  0.27215328237E+03  0.00000000000E+00 0. -1.
         24    2    1    2    0    0 -0.28144732902E+02  0.64565382656E+02 -0.12342172712E+03  0.16330048251E+03  0.80456884319E+02 0.  0.
         23    2    1    2    0    0 -0.86089929525E+02 -0.87664473635E+01 -0.56582224125E+01  0.12610838888E+03  0.91558635317E+02 0.  0.
        -13    1    3    3    0    0  0.17303642750E+02  0.43026833493E+02 -0.24789410357E+02  0.52585542868E+02  0.00000000000E+00 0.  1.
         14    1    3    3    0    0 -0.45448375652E+02  0.21538549163E+02 -0.98632316765E+02  0.11071493964E+03  0.00000000000E+00 0. -1.
        -11    1    4    4    0    0 -0.31751469321E+02 -0.13567537893E+02 -0.46532281689E+02  0.57943827348E+02  0.00000000000E+00 0. -1.
         11    1    4    4    0    0 -0.54338460204E+02  0.48010905300E+01  0.40874059277E+02  0.68164561536E+02  0.00000000000E+00 0.  1.
          1    1    1    2  501    0  0.11423466243E+03 -0.55798935292E+02  0.13232419057E+01  0.12714098572E+03  0.00000000000E+00 0. -1.
<scales pt_clust_5="13000.00000" pt_clust_6="13000.00000" pt_clust_7="13000.00000" pt_clust_8="13000.00000" pt_clust_9="103.37477"></scales>
<clustering>
<clus scale="   80.457">  5  6 -1 -1</clus>
<clus scale="   91.559">  7  8 -1 -1</clus>
<clus scale="  106.930">  2  5  1 -1</clus>
<clus scale="  103.375">  1  9  2 -1</clus>
<clus scale="  103.375">  1  5  2 -1</clus>
</clustering>
</event>
<event>
 9    2  0.4883225E-005  0.2262445E+03  0.7546771E-02  0.1144199E+00
          2   -1    0    0  502    0 -0.00000000000E+00  0.00000000000E+00  0.15331273085E+04  0.15331273085E+04  0.00000000000E+00 0. -1.
         21   -1    0    0  501  502  0.00000000000E+00 -0.00000000000E+00 -0.13463132973E+03  0.13463132973E+03  0.00000000000E+00 0. -1.
         24    2    1    2    0    0 -0.82944335749E+00  0.13326531770E+03 -0.37045008567E+02  0.16194888443E+03  0.84230491087E+02 0.  0.
         23    2    1    2    0    0 -0.17400008524E+03 -0.17725065893E+03  0.69292308018E+03  0.74162297668E+03  0.90379304789E+02 0.  0.
        -11    1    3    3    0    0  0.39428634737E+02  0.41302894248E+02 -0.98744346736E+01  0.57948690845E+02  0.00000000000E+00 0.  1.
         12    1    3    3    0    0 -0.40258078095E+02  0.91962423452E+02 -0.27170573893E+02  0.10400019358E+03  0.00000000000E+00 0. -1.
        -11    1    4    4    0    0 -0.74104160980E+02 -0.17989045344E+02  0.19287880920E+03  0.20740604491E+03  0.00000000000E+00 0. -1.
         11    1    4    4    0    0 -0.99895924259E+02 -0.15926161359E+03  0.50004427098E+03  0.53421693177E+03  0.00000000000E+00 0.  1.
          1    1    1    2  501    0  0.17482952860E+03  0.43985341233E+02  0.74261790718E+03  0.76418677715E+03  0.00000000000E+00 0. -1.
<scales pt_clust_5="13000.00000" pt_clust_6="13000.00000" pt_clust_7="13000.00000" pt_clust_8="13000.00000" pt_clust_9="207.40825"></scales>
<clustering>
<clus scale="   84.230">  5  6 -1 -1</clus>
<clus scale="   90.379">  7  8 -1 -1</clus>
<clus scale="  157.655">  1  5  2 -1</clus>
<clus scale="  207.408">  2  9  1 -1</clus>
<clus scale="  207.408">  2  5  1 -1</clus>
</clustering>
</event>
<event>
 9    2  0.4883225E-005  0.9218556E+02  0.7546771E-02  0.1305613E+00
         21   -1    0    0  501  502  0.00000000000E+00  0.00000000000E+00  0.90885551714E+02  0.90885551714E+02  0.00000000000E+00 0. -1.
          2   -1    0    0  502    0 -0.00000000000E+00 -0.00000000000E+00 -0.47735994708E+03  0.47735994708E+03  0.00000000000E+00 0. -1.
         24    2    1    2    0    0 -0.16527414494E+02  0.85025477141E+00 -0.40015776422E+03  0.40814550716E+03  0.78629767793E+02 0.  0.
         23    2    1    2    0    0 -0.27993084375E+02 -0.16611746314E+02 -0.23762413058E+02  0.99828223638E+02  0.91331588577E+02 0.  0.
        -13    1    3    3    0    0 -0.26702092704E+02 -0.20345002052E+02 -0.75370368958E+02  0.82508262496E+02  0.00000000000E+00 0.  1.
         14    1    3    3    0    0  0.10174678210E+02  0.21195256824E+02 -0.32478739526E+03  0.32563724466E+03  0.00000000000E+00 0. -1.
        -11    1    4    4    0    0  0.26325987576E+02  0.36373033274E+01 -0.31644944839E+02  0.41324207569E+02  0.00000000000E+00 0.  1.
         11    1    4    4    0    0 -0.54319071951E+02 -0.20249049641E+02  0.78825317805E+01  0.58504016070E+02  0.00000000000E+00 0. -1.
          1    1    1    2  501    0  0.44520498870E+02  0.15761491543E+02  0.37445781909E+02  0.60271768002E+02  0.00000000000E+00 0. -1.
<scales pt_clust_5="13000.00000" pt_clust_6="13000.00000" pt_clust_7="13000.00000" pt_clust_8="13000.00000" pt_clust_9="47.22816"></scales>
<clustering>
<clus scale="   47.228">  1  9  2 -1</clus>
<clus scale="   78.630">  5  6 -1 -1</clus>
<clus scale="   79.620">  2  5  1 -1</clus>
<clus scale="   91.332">  7  8 -1 -1</clus>
<clus scale="   47.228">  1  5  2 -1</clus>
</clustering>
</event>
<event>
 9    2  0.4883225E-005  0.1989613E+03  0.7546771E-02  0.1152888E+00
          4   -1    0    0  502    0 -0.00000000000E+00  0.00000000000E+00  0.55035527542E+03  0.55035527542E+03  0.00000000000E+00 0. -1.
         21   -1    0    0  501  502  0.00000000000E+00 -0.00000000000E+00 -0.97975889067E+02  0.97975889067E+02  0.00000000000E+00 0. -1.
         23    2    1    2    0    0 -0.11560064226E+03 -0.15524214178E+03  0.28484780097E+03  0.35609006904E+03  0.90544113426E+02 0.  0.
         24    2    1    2    0    0  0.77403457233E+02  0.12983275791E+03  0.59406669119E+02  0.17478617111E+03  0.64600410669E+02 0.  0.
        -11    1    4    4    0    0  0.23354732717E+02  0.29607573001E+02  0.46976439957E+02  0.60239835909E+02  0.00000000000E+00 0.  1.
         12    1    4    4    0    0  0.54048724516E+02  0.10022518491E+03  0.12430229162E+02  0.11454633520E+03  0.00000000000E+00 0. -1.
        -11    1    3    3    0    0 -0.20100298546E+02 -0.78930463006E+02  0.63686886153E+02  0.10339274375E+03  0.00000000000E+00 0.  1.
         11    1    3    3    0    0 -0.95500343716E+02 -0.76311678776E+02  0.22116091482E+03  0.25269732529E+03  0.00000000000E+00 0. -1.
          3    1    1    2  501    0  0.38197185030E+02  0.25409383872E+02  0.10812491626E+03  0.11745492433E+03  0.00000000000E+00 0. -1.
<scales pt_clust_5="13000.00000" pt_clust_6="13000.00000" pt_clust_7="13000.00000" pt_clust_8="13000.00000" pt_clust_9="45.87662"></scales>
<clustering>
<clus scale="   45.877">  2  9  1 -1</clus>
<clus scale="   64.600">  5  6 -1 -1</clus>
<clus scale="   90.544">  7  8 -1 -1</clus>
<clus scale="  188.575">  2  5  1 -1</clus>
<clus scale="   45.877">  2  5  1 -1</clus>
</clustering>
</event>
<event>
 9    2  0.4883225E-005  0.1021162E+03  0.7546771E-02  0.1281645E+00
          2   -1    0    0  502    0 -0.00000000000E+00  0.00000000000E+00  0.25549861187E+03  0.25549861187E+03  0.00000000000E+00 0. -1.
         21   -1    0    0  501  502  0.00000000000E+00 -0.00000000000E+00 -0.11159987529E+03  0.11159987529E+03  0.00000000000E+00 0. -1.
         23    2    1    2    0    0 -0.34264778697E+02 -0.48595538338E+02  0.12463096285E+02  0.11042026940E+03  0.92204694670E+02 0.  0.
         24    2    1    2    0    0  0.42031037027E+01  0.26334909667E+02 -0.30889373762E+02  0.90098957099E+02  0.80327299912E+02 0.  0.
        -13    1    4    4    0    0 -0.26711195292E+02 -0.98888069081E+01 -0.31506799675E+02  0.42472990026E+02  0.00000000000E+00 0.  1.
         14    1    4    4    0    0  0.30914298995E+02  0.36223716575E+02  0.61742591337E+00  0.47625967073E+02  0.00000000000E+00 0. -1.
        -11    1    3    3    0    0  0.24080144503E+02 -0.41237460355E+02 -0.74546899781E+01  0.48331706969E+02  0.00000000000E+00 0.  1.
         11    1    3    3    0    0 -0.58344923200E+02 -0.73580779829E+01  0.19917786263E+02  0.62088562429E+02  0.00000000000E+00 0. -1.
          1    1    1    2  501    0  0.30061674994E+02  0.22260628671E+02  0.16232501406E+03  0.16657926066E+03  0.00000000000E+00 0. -1.
<scales pt_clust_5="13000.00000" pt_clust_6="13000.00000" pt_clust_7="13000.00000" pt_clust_8="13000.00000" pt_clust_9="37.40643"></scales>
<clustering>
<clus scale="   37.406">  2  9  1 -1</clus>
<clus scale="   80.327">  5  6 -1 -1</clus>
<clus scale="   91.534">  2  5  1 -1</clus>
<clus scale="   92.205">  7  8 -1 -1</clus>
<clus scale="   37.406">  2  5  1 -1</clus>
</clustering>
</event>
<event>
 9    2  0.4883225E-005  0.1039300E+03  0.7546771E-02  0.1277618E+00
          4   -1    0    0  502    0 -0.00000000000E+00  0.00000000000E+00  0.17660422972E+03  0.17660422972E+03  0.00000000000E+00 0. -1.
         21   -1    0    0  501  502  0.00000000000E+00 -0.00000000000E+00 -0.30176337209E+03  0.30176337209E+03  0.00000000000E+00 0. -1.
         23    2    1    2    0    0 -0.14419702562E+02 -0.45734713197E+02  0.13902920430E+03  0.17387257738E+03  0.92752152024E+02 0.  0.
         24    2    1    2    0    0  0.38539073100E+02  0.28298401135E+02 -0.99061307058E+02  0.13670733648E+03  0.81176927943E+02 0.  0.
        -13    1    4    4    0    0 -0.19098217168E+02 -0.10246912692E+02 -0.10087553491E+02  0.23906063125E+02  0.00000000000E+00 0.  1.
         14    1    4    4    0    0  0.57637290268E+02  0.38545313826E+02 -0.88973753567E+02  0.11280127336E+03  0.00000000000E+00 0. -1.
        -13    1    3    3    0    0  0.12354264243E+02  0.25430437158E+02  0.34238087883E+02  0.44402495886E+02  0.00000000000E+00 0.  1.
         13    1    3    3    0    0 -0.26773966805E+02 -0.71165150355E+02  0.10479111642E+03  0.12947008150E+03  0.00000000000E+00 0. -1.
          3    1    1    2  501    0 -0.24119370538E+02  0.17436312062E+02 -0.16512703961E+03  0.16778768794E+03  0.00000000000E+00 0. -1.
<scales pt_clust_5="13000.00000" pt_clust_6="13000.00000" pt_clust_7="13000.00000" pt_clust_8="13000.00000" pt_clust_9="29.76187"></scales>
<clustering>
<clus scale="   29.762">  2  9  1 -1</clus>
<clus scale="   81.177">  5  6 -1 -1</clus>
<clus scale="   92.752">  7  8 -1 -1</clus>
<clus scale="   93.745">  2  5  1 -1</clus>
<clus scale="   29.762">  2  5  1 -1</clus>
</clustering>
</event>
<event>
 9    2  0.4883225E-005  0.9493525E+02  0.7546771E-02  0.1297453E+00
         21   -1    0    0  501  502  0.00000000000E+00  0.00000000000E+00  0.98116602098E+02  0.98116602098E+02  0.00000000000E+00 0. -1.
          2   -1    0    0  502    0 -0.00000000000E+00 -0.00000000000E+00 -0.67037997885E+03  0.67037997885E+03  0.00000000000E+00 0. -1.
         24    2    1    2    0    0  0.32882993281E+02  0.25543627074E+01 -0.60263214792E+03  0.60848304291E+03  0.77448639665E+02 0.  0.
         23    2    1    2    0    0 -0.52841586194E+02 -0.13214184125E+02 -0.19042025812E+02  0.10566830751E+03  0.88523130150E+02 0.  0.
        -11    1    3    3    0    0  0.40757506195E+02  0.22042914249E+02 -0.19979109684E+03  0.20509399493E+03  0.00000000000E+00 0.  1.
         12    1    3    3    0    0 -0.78745129132E+01 -0.19488551542E+02 -0.40284105108E+03  0.40338904798E+03  0.00000000000E+00 0. -1.
        -13    1    4    4    0    0  0.12578946305E+02  0.25132377908E+02 -0.47878672347E+01  0.28509471796E+02  0.00000000000E+00 0.  1.
         13    1    4    4    0    0 -0.65420532498E+02 -0.38346562033E+02 -0.14254158577E+02  0.77158835715E+02  0.00000000000E+00 0. -1.
          1    1    1    2  501    0  0.19958592912E+02  0.10659821418E+02  0.49410796976E+02  0.54345230531E+02  0.00000000000E+00 0. -1.
<scales pt_clust_5="13000.00000" pt_clust_6="13000.00000" pt_clust_7="13000.00000" pt_clust_8="13000.00000" pt_clust_9="22.62691"></scales>
<clustering>
<clus scale="   22.627">  1  9  2 -1</clus>
<clus scale="   77.449">  5  6 -1 -1</clus>
<clus scale="   84.703">  2  5  1 -1</clus>
<clus scale="   88.523">  7  8 -1 -1</clus>
<clus scale="   22.627">  1  5  2 -1</clus>
</clustering>
</event>
<event>
 9    2  0.4883225E-005  0.1370695E+03  0.7546771E-02  0.1232666E+00
         21   -1    0    0  501  502  0.00000000000E+00  0.00000000000E+00  0.10768843293E+04  0.10768843293E+04  0.00000000000E+00 0.  1.
         -3   -1    0    0    0  501 -0.00000000000E+00 -0.00000000000E+00 -0.92593856932E+02  0.92593856932E+02  0.00000000000E+00 0.  1.
         24    2    1    2    0    0 -0.47960828600E+02  0.12168464264E+02 -0.45707598361E+02  0.10958061338E+03  0.86431554870E+02 0.  0.
         23    2    1    2    0    0 -0.17400043790E+02 -0.96308422016E+02  0.43141754126E+03  0.45190889994E+03  0.92317307519E+02 0.  0.
        -13    1    3    3    0    0 -0.51781607024E+02  0.13373530744E+02 -0.68237095028E+02  0.86697677526E+02  0.00000000000E+00 0.  1.
         14    1    3    3    0    0  0.38207784239E+01 -0.12050664793E+01  0.22529496668E+02  0.22882935849E+02  0.00000000000E+00 0. -1.
        -11    1    4    4    0    0  0.19020666645E+02 -0.96151764343E+02  0.32221876329E+03  0.33679649488E+03  0.00000000000E+00 0.  1.
         11    1    4    4    0    0 -0.36420710435E+02 -0.15665767370E+00  0.10919877797E+03  0.11511240506E+03  0.00000000000E+00 0. -1.
         -4    1    1    2    0  502  0.65360872390E+02  0.84139957752E+02  0.59858052952E+03  0.60798867296E+03  0.00000000000E+00 0.  1.
<scales pt_clust_5="13000.00000" pt_clust_6="13000.00000" pt_clust_7="13000.00000" pt_clust_8="13000.00000" pt_clust_9="101.31906"></scales>
<clustering>
<clus scale="   86.432">  5  6 -1 -1</clus>
<clus scale="   92.317">  7  8 -1 -1</clus>
<clus scale="   99.593">  2  5  1 -1</clus>
<clus scale="  101.319">  1  9  2 -1</clus>
<clus scale="  101.319">  1  5  2 -1</clus>
</clustering>
</event>
<event>
 9    2  0.4883225E-005  0.1002281E+03  0.7546771E-02  0.1290169E+00
         21   -1    0    0  501  502  0.00000000000E+00  0.00000000000E+00  0.84626632296E+02  0.84626632296E+02  0.00000000000E+00 0. -1.
          2   -1    0    0  502    0 -0.00000000000E+00 -0.00000000000E+00 -0.66614726953E+03  0.66614726953E+03  0.00000000000E+00 0. -1.
         24    2    1    2    0    0 -0.29747045520E+02  0.12473536942E+02 -0.38011613345E+03  0.38842805944E+03  0.73127331515E+02 0.  0.
         23    2    1    2    0    0  0.36245488084E+02 -0.43609834215E+02 -0.26764081385E+03  0.28886831157E+03  0.92724016001E+02 0.  0.
        -11    1    3    3    0    0  0.24063791469E+02  0.88780212256E+01 -0.10622803052E+03  0.10928073842E+03  0.00000000000E+00 0.  1.
         12    1    3    3    0    0 -0.53810836990E+02  0.35955157160E+01 -0.27388810293E+03  0.27914732103E+03  0.00000000000E+00 0. -1.
        -13    1    4    4    0    0 -0.12476107880E+02 -0.53677538243E+02 -0.17814085171E+03  0.18647008990E+03  0.00000000000E+00 0. -1.
         13    1    4    4    0    0  0.48721595964E+02  0.10067704027E+02 -0.89499962140E+02  0.10239822167E+03  0.00000000000E+00 0.  1.
          1    1    1    2  501    0 -0.64984425635E+01  0.31136297274E+02  0.66236310064E+02  0.73477530815E+02  0.00000000000E+00 0. -1.
<scales pt_clust_5="13000.00000" pt_clust_6="13000.00000" pt_clust_7="13000.00000" pt_clust_8="13000.00000" pt_clust_9="31.80721"></scales>
<clustering>
<clus scale="   31.807">  1  9  2 -1</clus>
<clus scale="   73.127">  5  6 -1 -1</clus>
<clus scale="   82.435">  2  5  1 -1</clus>
<clus scale="   92.724">  7  8 -1 -1</clus>
<clus scale="   31.807">  1  5  2 -1</clus>
</clustering>
</event>
<event>
 9    2  0.4883225E-005  0.2645284E+03  0.7546771E-02  0.1123742E+00
          2   -1    0    0  502    0 -0.00000000000E+00  0.00000000000E+00  0.90342645884E+03  0.90342645884E+03  0.00000000000E+00 0. -1.
         21   -1    0    0  501  502  0.00000000000E+00 -0.00000000000E+00 -0.23971118123E+03  0.23971118123E+03  0.00000000000E+00 0. -1.
         24    2    1    2    0    0  0.10772418976E+03  0.88617359678E+02  0.47703867878E+02  0.16929398743E+03  0.83230148819E+02 0.  0.
         23    2    1    2    0    0 -0.33968097837E+03 -0.10657827600E+03  0.64183802691E+03  0.73976340903E+03  0.92475686334E+02 0.  0.
        -11    1    3    3    0    0  0.99564428449E+02  0.33998139664E+02  0.43699493441E+02  0.11392363512E+03  0.00000000000E+00 0.  1.
         12    1    3    3    0    0  0.81597613155E+01  0.54619220014E+02  0.40043744373E+01  0.55370352305E+02  0.00000000000E+00 0. -1.
        -13    1    4    4    0    0 -0.44337760144E+02 -0.87832238513E+01  0.15960525901E+03  0.16588194808E+03  0.00000000000E+00 0.  1.
         13    1    4    4    0    0 -0.29534321823E+03 -0.97795052147E+02  0.48223276790E+03  0.57388146094E+03  0.00000000000E+00 0. -1.
          1    1    1    2  501    0  0.23195678861E+03  0.17960916320E+02 -0.25826617181E+02  0.23408024362E+03  0.00000000000E+00 0. -1.
<scales pt_clust_5="13000.00000" pt_clust_6="13000.00000" pt_clust_7="13000.00000" pt_clust_8="13000.00000" pt_clust_9="247.83769"></scales>
<clustering>
<clus scale="   83.230">  5  6 -1 -1</clus>
<clus scale="   92.476">  7  8 -1 -1</clus>
<clus scale="  162.434">  1  5  2 -1</clus>
<clus scale="  247.838">  2  9  1 -1</clus>
<clus scale="  247.838">  2  5  1 -1</clus>
</clustering>
</event>
<event>
 9    2  0.4883225E-005  0.1710141E+03  0.7546771E-02  0.1210349E+00
         21   -1    0    0  501  502  0.00000000000E+00  0.00000000000E+00  0.25490198227E+03  0.25490198227E+03  0.00000000000E+00 0.  1.
          2   -1    0    0  502    0 -0.00000000000E+00 -0.00000000000E+00 -0.22740171510E+03  0.22740171510E+03  0.00000000000E+00 0. -1.
         23    2    1    2    0    0 -0.43205828050E+02 -0.12874056546E+01 -0.54957983204E+02  0.98581273028E+02  0.69494506857E+02 0.  0.
         24    2    1    2    0    0 -0.94659538038E+02  0.10640818982E+03  0.12362976010E+03  0.20553058490E+03  0.81702954332E+02 0.  0.
        -13    1    4    4    0    0 -0.49500647099E+02  0.10010582539E+03  0.11266444368E+03  0.15863406699E+03  0.00000000000E+00 0.  1.
         14    1    4    4    0    0 -0.45158890938E+02  0.63023644275E+01  0.10965316420E+02  0.46896517913E+02  0.00000000000E+00 0. -1.
        -13    1    3    3    0    0 -0.49258531153E+02 -0.23765986991E+02 -0.51357163994E+02  0.75025217910E+02  0.00000000000E+00 0. -1.
         13    1    3    3    0    0  0.60527031031E+01  0.22478581336E+02 -0.36008192101E+01  0.23556055118E+02  0.00000000000E+00 0.  1.
          1    1    1    2  501    0  0.13786536609E+03 -0.10512078417E+03 -0.41171509719E+02  0.17819183944E+03  0.00000000000E+00 0. -1.
<scales pt_clust_5="13000.00000" pt_clust_6="13000.00000" pt_clust_7="13000.00000" pt_clust_8="13000.00000" pt_clust_9="150.23469"></scales>
<clustering>
<clus scale="   69.495">  7  8 -1 -1</clus>
<clus scale="   81.703">  5  6 -1 -1</clus>
<clus scale="   81.841">  2  7  1 -1</clus>
<clus scale="  150.235">  1  9  2 -1</clus>
<clus scale="  150.235">  1  5  2 -1</clus>
</clustering>
</event>
<event>
 9    2  0.4883225E-005  0.9412690E+02  0.7546771E-02  0.1300879E+00
         -1   -1    0    0    0  501 -0.00000000000E+00  0.00000000000E+00  0.14005708709E+03  0.14005708709E+03  0.00000000000E+00 0.  1.
         21   -1    0    0  501  502  0.00000000000E+00 -0.00000000000E+00 -0.11110930550E+03  0.11110930550E+03  0.00000000000E+00 0. -1.
         24    2    1    2    0    0 -0.12108542409E+02  0.19603637996E+01  0.41143497543E+02  0.91282791280E+02  0.80556196337E+02 0.  0.
         23    2    1    2    0    0 -0.41950856461E+01  0.44025790089E+02 -0.30752741182E+02  0.10768304746E+03  0.93241829041E+02 0.  0.
        -11    1    3    3    0    0  0.31016459411E+02  0.17521505965E+02  0.17130633472E+02  0.39528249756E+02  0.00000000000E+00 0.  1.
         12    1    3    3    0    0 -0.43125001820E+02 -0.15561142165E+02  0.24012864072E+02  0.51754541524E+02  0.00000000000E+00 0. -1.
        -11    1    4    4    0    0 -0.23208618739E+01  0.73404074843E+02 -0.18082314481E+02  0.75634084251E+02  0.00000000000E+00 0. -1.
         11    1    4    4    0    0 -0.18742237722E+01 -0.29378284754E+02 -0.12670426701E+02  0.32048963206E+02  0.00000000000E+00 0.  1.
         -2    1    1    2    0  502  0.16303628055E+02 -0.45986153889E+02  0.18557025232E+02  0.52200553855E+02  0.00000000000E+00 0.  1.
<scales pt_clust_5="13000.00000" pt_clust_6="13000.00000" pt_clust_7="13000.00000" pt_clust_8="13000.00000" pt_clust_9="48.79075"></scales>
<clustering>
<clus scale="   48.791">  2  9  1 -1</clus>
<clus scale="   80.556">  5  6 -1 -1</clus>
<clus scale="   81.579">  1  5  2 -1</clus>
<clus scale="   93.242">  7  8 -1 -1</clus>
<clus scale="   48.791">  2  5  1 -1</clus>
</clustering>
</event>
<event>
 9    2  0.4883225E-005  0.2102212E+03  0.7546771E-02  0.1142436E+00
         21   -1    0    0  501  502  0.00000000000E+00  0.00000000000E+00  0.69829099996E+02  0.69829099996E+02  0.00000000000E+00 0. -1.
          2   -1    0    0  502    0 -0.00000000000E+00 -0.00000000000E+00 -0.77713087555E+03  0.77713087555E+03  0.00000000000E+00 0. -1.
         24    2    1    2    0    0 -0.17340930971E+03  0.27152695038E+02 -0.35756706347E+03  0.40641273757E+03  0.80678688838E+02 0.  0.
         23    2    1    2    0    0  0.20221566304E+03 -0.47082008663E+02 -0.32839436456E+03  0.39953024192E+03  0.93132516446E+02 0.  0.
        -11    1    3    3    0    0 -0.10337929399E+03  0.30922347439E+02 -0.13366480978E+03  0.17178402536E+03  0.00000000000E+00 0.  1.
         12    1    3    3    0    0 -0.70030015727E+02 -0.37696524014E+01 -0.22390225369E+03  0.23462871220E+03  0.00000000000E+00 0. -1.
        -11    1    4    4    0    0  0.13857958395E+03 -0.50866747604E+02 -0.15162496370E+03  0.21161724107E+03  0.00000000000E+00 0. -1.
         11    1    4    4    0    0  0.63636079081E+02  0.37847389407E+01 -0.17676940086E+03  0.18791300085E+03  0.00000000000E+00 0.  1.
          1    1    1    2  501    0 -0.28806353323E+02  0.19929313625E+02 -0.21340347521E+02  0.41016996058E+02  0.00000000000E+00 0. -1.
<scales pt_clust_5="13000.00000" pt_clust_6="13000.00000" pt_clust_7="13000.00000" pt_clust_8="13000.00000" pt_clust_9="35.02832"></scales>
<clustering>
<clus scale="   35.028">  1  9  2 -1</clus>
<clus scale="   80.679">  5  6 -1 -1</clus>
<clus scale="   93.133">  7  8 -1 -1</clus>
<clus scale="  205.008">  2  5  1 -1</clus>
<clus scale="   35.028">  1  5  2 -1</clus>
</clustering>
</event>
<event>
 9    2  0.4883225E-005  0.1128467E+03  0.7546771E-02  0.1257743E+00
         21   -1    0    0  501  502  0.00000000000E+00  0.00000000000E+00  0.46930886340E+02  0.46930886340E+02  0.00000000000E+00 0. -1.
          2   -1    0    0  502    0 -0.00000000000E+00 -0.00000000000E+00 -0.10297660961E+04  0.10297660961E+04  0.00000000000E+00 0. -1.
         24    2    1    2    0    0  0.18334601985E+02  0.73501232748E+02 -0.92070621554E+03  0.92722392101E+03  0.79408283592E+02 0.  0.
         23    2    1    2    0    0 -0.29519932708E+02 -0.38833102858E+02 -0.50652215447E+02  0.11128003452E+03  0.86244784468E+02 0.  0.
        -11    1    3    3    0    0 -0.17680506275E+02  0.33486615917E+02 -0.15240871911E+03  0.15704257833E+03  0.00000000000E+00 0.  1.
         12    1    3    3    0    0  0.36015108260E+02  0.40014616831E+02 -0.76829749643E+03  0.77018134268E+03  0.00000000000E+00 0. -1.
        -11    1    4    4    0    0 -0.46545143434E+02  0.42741827024E+01 -0.63602350497E+01  0.47171724634E+02  0.00000000000E+00 0. -1.
         11    1    4    4    0    0  0.17025210726E+02 -0.43107285561E+02 -0.44291980397E+02  0.64108309884E+02  0.00000000000E+00 0.  1.
          1    1    1    2  501    0  0.11185330723E+02 -0.34668129890E+02 -0.11476778760E+02  0.38193026905E+02  0.00000000000E+00 0. -1.
<scales pt_clust_5="13000.00000" pt_clust_6="13000.00000" pt_clust_7="13000.00000" pt_clust_8="13000.00000" pt_clust_9="36.42789"></scales>
<clustering>
<clus scale="   36.428">  1  9  2 -1</clus>
<clus scale="   79.408">  5  6 -1 -1</clus>
<clus scale="   86.245">  7  8 -1 -1</clus>
<clus scale="  107.712">  2  5  1 -1</clus>
<clus scale="   36.428">  1  5  2 -1</clus>
</clustering>
</event>
<event>
 9    2  0.4883225E-005  0.1244664E+03  0.7546771E-02  0.1237124E+00
         -3   -1    0    0    0  501 -0.00000000000E+00  0.00000000000E+00  0.17716525610E+03  0.17716525610E+03  0.00000000000E+00 0.  1.
         21   -1    0    0  501  502  0.00000000000E+00 -0.00000000000E+00 -0.21950861214E+03  0.21950861214E+03  0.00000000000E+00 0.  1.
         24    2    1    2    0    0 -0.70264566400E+02 -0.50694840462E+02 -0.56748122652E+02  0.14018829465E+03  0.94473977323E+02 0.  0.
         23    2    1    2    0    0  0.89931508258E+02 -0.24719396202E+02 -0.64979561532E+02  0.14523824891E+03  0.90405092790E+02 0.  0.
        -11    1    3    3    0    0 -0.75885829789E+02 -0.60970460988E+02 -0.17086328267E+02  0.98833187187E+02  0.00000000000E+00 0.  1.
         12    1    3    3    0    0  0.56212633892E+01  0.10275620526E+02 -0.39661794385E+02  0.41355107462E+02  0.00000000000E+00 0. -1.
        -11    1    4    4    0    0  0.95619085551E+02  0.34611889702E+01 -0.30671823692E+02  0.10047761004E+03  0.00000000000E+00 0.  1.
         11    1    4    4    0    0 -0.56875772932E+01 -0.28180585172E+02 -0.34307737839E+02  0.44760638867E+02  0.00000000000E+00 0. -1.
         -4    1    1    2    0  502 -0.19666941857E+02  0.75414236663E+02  0.79384328149E+02  0.11124732468E+03  0.00000000000E+00 0.  1.
<scales pt_clust_5="13000.00000" pt_clust_6="13000.00000" pt_clust_7="13000.00000" pt_clust_8="13000.00000" pt_clust_9="77.93652"></scales>
<clustering>
<clus scale="   77.937">  2  9  1 -1</clus>
<clus scale="   90.405">  7  8 -1 -1</clus>
<clus scale="   94.474">  5  6 -1 -1</clus>
<clus scale="  121.407">  2  7  1 -1</clus>
<clus scale="   77.937">  2  5  1 -1</clus>
</clustering>
</event>
<event>
 9    2  0.4883225E-005  0.2363976E+03  0.7546771E-02  0.1122772E+00
         21   -1    0    0  501  502  0.00000000000E+00  0.00000000000E+00  0.22404600643E+03  0.22404600643E+03  0.00000000000E+00 0.  1.
          2   -1    0    0  502    0 -0.00000000000E+00 -0.00000000000E+00 -0.53787878787E+03  0.53787878787E+03  0.00000000000E+00 0. -1.
         23    2    1    2    0    0  0.20134374420E+03 -0.73107737830E+02 -0.36988786679E+03  0.43672864146E+03  0.89614885025E+02 0.  0.
         24    2    1    2    0    0 -0.22411412814E+03  0.69779404560E+02 -0.16829532026E+02  0.24876490505E+03  0.80650090545E+02 0.  0.
        -13    1    4    4    0    0 -0.23071615423E+03  0.65278018381E+02 -0.18880380127E+02  0.24051534725E+03  0.00000000000E+00 0.  1.
         14    1    4    4    0    0  0.66020260925E+01  0.45013861788E+01  0.20508481011E+01  0.82495578058E+01  0.00000000000E+00 0. -1.
        -13    1    3    3    0    0  0.24174869420E+02  0.12230153234E+02 -0.14920816365E+02  0.30929463632E+02  0.00000000000E+00 0.  1.
         13    1    3    3    0    0  0.17716887478E+03 -0.85337891063E+02 -0.35496705042E+03  0.40579917783E+03  0.00000000000E+00 0. -1.
          1    1    1    2  501    0  0.22770383940E+02  0.33283332695E+01  0.72884617382E+02  0.76431247785E+02  0.00000000000E+00 0. -1.
<scales pt_clust_5="13000.00000" pt_clust_6="13000.00000" pt_clust_7="13000.00000" pt_clust_8="13000.00000" pt_clust_9="23.01235"></scales>
<clustering>
<clus scale="   23.012">  1  9  2 -1</clus>
<clus scale="   80.650">  5  6 -1 -1</clus>
<clus scale="   89.615">  7  8 -1 -1</clus>
<clus scale="  233.147">  1  5  2 -1</clus>
<clus scale="   23.012">  1  5  2 -1</clus>
</clustering>
</event>
<event>
 9    2  0.4883225E-005  0.8158087E+02  0.7546771E-02  0.1325815E+00
          2   -1    0    0  502    0 -0.00000000000E+00  0.00000000000E+00  0.16611963050E+03  0.16611963050E+03  0.00000000000E+00 0. -1.
         21   -1    0    0  501  502  0.00000000000E+00 -0.00000000000E+00 -0.18901161084E+03  0.18901161084E+03  0.00000000000E+00 0.  1.
         23    2    1    2    0    0 -0.33088008364E+01  0.10710010455E+02  0.13111590894E+03  0.15328513822E+03  0.78608520752E+02 0.  0.
         24    2    1    2    0    0  0.19252747081E+02 -0.43928958936E+02 -0.10771184323E+03  0.14267658530E+03  0.80338938994E+02 0.  0.
        -11    1    4    4    0    0  0.38602445053E+02 -0.53501135656E+02 -0.55627697274E+02  0.86295776169E+02  0.00000000000E+00 0.  1.
         12    1    4    4    0    0 -0.19349697972E+02  0.95721767200E+01 -0.52084145956E+02  0.56380809135E+02  0.00000000000E+00 0. -1.
        -13    1    3    3    0    0 -0.30022865200E+02  0.32422257869E+02  0.62828933118E+02  0.76811783451E+02  0.00000000000E+00 0. -1.
         13    1    3    3    0    0  0.26714064364E+02 -0.21712247414E+02  0.68286975817E+02  0.76473354764E+02  0.00000000000E+00 0.  1.
          1    1    1    2  501    0 -0.15943946245E+02  0.33218948481E+02 -0.46296046047E+02  0.59169517825E+02  0.00000000000E+00 0. -1.
<scales pt_clust_5="13000.00000" pt_clust_6="13000.00000" pt_clust_7="13000.00000" pt_clust_8="13000.00000" pt_clust_9="36.84709"></scales>
<clustering>
<clus scale="   36.847">  2  9  1 -1</clus>
<clus scale="   78.609">  7  8 -1 -1</clus>
<clus scale="   79.877">  1  7  2 -1</clus>
<clus scale="   80.339">  5  6 -1 -1</clus>
<clus scale="   36.847">  2  5  1 -1</clus>
</clustering>
</event>
<event>
 9    2  0.4883225E-005  0.1424836E+03  0.7546771E-02  0.1235279E+00
          2   -1    0    0  502    0 -0.00000000000E+00  0.00000000000E+00  0.10505236441E+03  0.10505236441E+03  0.00000000000E+00 0. -1.
         21   -1    0    0  501  502  0.00000000000E+00 -0.00000000000E+00 -0.29806849029E+03  0.29806849029E+03  0.00000000000E+00 0.  1.
         24    2    1    2    0    0 -0.25431957582E+02  0.10025985305E+02 -0.27844820659E+02  0.88531573243E+02  0.79468236268E+02 0.  0.
         23    2    1    2    0    0  0.11046121621E+03  0.41887407826E+02 -0.15449174012E+03  0.21439432990E+03  0.90227466463E+02 0.  0.
        -13    1    3    3    0    0 -0.42346419332E+02 -0.21603654051E+02 -0.10476743153E+02  0.48679556753E+02  0.00000000000E+00 0.  1.
         14    1    3    3    0    0  0.16914461749E+02  0.31629639356E+02 -0.17368077505E+02  0.39852016490E+02  0.00000000000E+00 0. -1.
        -13    1    4    4    0    0  0.58488391966E+02  0.67818381763E+02 -0.81278839244E+02  0.12093996283E+03  0.00000000000E+00 0. -1.
         13    1    4    4    0    0  0.51972824242E+02 -0.25930973937E+02 -0.73212900880E+02  0.93454367069E+02  0.00000000000E+00 0.  1.
          1    1    1    2  501    0 -0.85029258626E+02 -0.51913393130E+02 -0.10679565097E+02  0.10019495157E+03  0.00000000000E+00 0. -1.
<scales pt_clust_5="13000.00000" pt_clust_6="13000.00000" pt_clust_7="13000.00000" pt_clust_8="13000.00000" pt_clust_9="110.27512"></scales>
<clustering>
<clus scale="   79.468">  5  6 -1 -1</clus>
<clus scale="   84.039">  1  5  2 -1</clus>
<clus scale="   90.227">  7  8 -1 -1</clus>
<clus scale="  110.275">  2  9  1 -1</clus>
<clus scale="  110.275">  2  5  1 -1</clus>
</clustering>
</event>
<event>
 9    2  0.4883225E-005  0.9227999E+02  0.7546771E-02  0.1304120E+00
         21   -1    0    0  501  502  0.00000000000E+00  0.00000000000E+00  0.14626791325E+03  0.14626791325E+03  0.00000000000E+00 0.  1.
          2   -1    0    0  502    0 -0.00000000000E+00 -0.00000000000E+00 -0.14221316574E+03  0.14221316574E+03  0.00000000000E+00 0. -1.
         24    2    1    2    0    0 -0.69174684660E+01  0.11621093046E+02 -0.44476365996E+02  0.93555863845E+02  0.81188985423E+02 0.  0.
         23    2    1    2    0    0  0.11023827042E+02  0.40833961576E+02  0.83957545949E+02  0.13149472523E+03  0.91940502828E+02 0.  0.
        -11    1    3    3    0    0  0.22314975853E+02 -0.23821925506E+02 -0.32534949037E+02  0.46086496839E+02  0.00000000000E+00 0.  1.
         12    1    3    3    0    0 -0.29232444319E+02  0.35443018552E+02 -0.11941416959E+02  0.47469367005E+02  0.00000000000E+00 0. -1.
        -13    1    4    4    0    0 -0.23459242018E+02  0.57550938948E+02  0.59465451304E+02  0.86015036526E+02  0.00000000000E+00 0.  1.
         13    1    4    4    0    0  0.34483069060E+02 -0.16716977372E+02  0.24492094645E+02  0.45479688701E+02  0.00000000000E+00 0. -1.
          1    1    1    2  501    0 -0.41063585757E+01 -0.52455054622E+02 -0.35426432436E+02  0.63430489918E+02  0.00000000000E+00 0. -1.
<scales pt_clust_5="13000.00000" pt_clust_6="13000.00000" pt_clust_7="13000.00000" pt_clust_8="13000.00000" pt_clust_9="52.61557"></scales>
<clustering>
<clus scale="   52.616">  1  9  2 -1</clus>
<clus scale="   81.189">  5  6 -1 -1</clus>
<clus scale="   81.573">  2  5  1 -1</clus>
<clus scale="   91.941">  7  8 -1 -1</clus>
<clus scale="   52.616">  1  5  2 -1</clus>
</clustering>
</event>
<event>
 9    2  0.4883225E-005  0.1131297E+03  0.7546771E-02  0.1258771E+00
         21   -1    0    0  501  502  0.00000000000E+00  0.00000000000E+00  0.22043077929E+03  0.22043077929E+03  0.00000000000E+00 0. -1.
          2   -1    0    0  502    0 -0.00000000000E+00 -0.00000000000E+00 -0.27026221158E+03  0.27026221158E+03  0.00000000000E+00 0. -1.
         24    2    1    2    0    0 -0.25701632163E+02  0.67340022884E+02 -0.21370824687E+03  0.23939300852E+03  0.80265466842E+02 0.  0.
         23    2    1    2    0    0  0.68344123341E+01 -0.45074344226E+02  0.18941169094E+02  0.10345521998E+03  0.90916494408E+02 0.  0.
        -13    1    3    3    0    0  0.25742352681E+02  0.19072863516E+02 -0.35978430228E+02  0.48175619206E+02  0.00000000000E+00 0.  1.
         14    1    3    3    0    0 -0.51443984844E+02  0.48267159369E+02 -0.17772981664E+03  0.19121738931E+03  0.00000000000E+00 0. -1.
        -11    1    4    4    0    0  0.15066187811E+02 -0.20077635418E+02  0.54040222102E+02  0.59585627998E+02  0.00000000000E+00 0. -1.
         11    1    4    4    0    0 -0.82317754774E+01 -0.24996708808E+02 -0.35099053008E+02  0.43869591983E+02  0.00000000000E+00 0.  1.
          1    1    1    2  501    0  0.18867219829E+02 -0.22265678658E+02  0.14493564549E+03  0.14784476238E+03  0.00000000000E+00 0. -1.
<scales pt_clust_5="13000.00000" pt_clust_6="13000.00000" pt_clust_7="13000.00000" pt_clust_8="13000.00000" pt_clust_9="29.18446"></scales>
<clustering>
<clus scale="   29.184">  1  9  2 -1</clus>
<clus scale="   80.265">  5  6 -1 -1</clus>
<clus scale="   90.916">  7  8 -1 -1</clus>
<clus scale="  104.762">  2  5  1 -1</clus>
<clus scale="   29.184">  1  5  2 -1</clus>
</clustering>
</event>
<event>
 9    2  0.4883225E-005  0.2203877E+03  0.7546771E-02  0.1170860E+00
          2   -1    0    0  502    0 -0.00000000000E+00  0.00000000000E+00  0.23149268731E+04  0.23149268731E+04  0.00000000000E+00 0. -1.
         21   -1    0    0  501  502  0.00000000000E+00 -0.00000000000E+00 -0.30252763177E+02  0.30252763177E+02  0.00000000000E+00 0. -1.
         24    2    1    2    0    0  0.21368132595E+02  0.38479289694E+02  0.60239270993E+03  0.60929285097E+03  0.80147042645E+02 0.  0.
         23    2    1    2    0    0  0.18699400241E+03 -0.57933283497E+02  0.75255266335E+03  0.78289740398E+03  0.90938505410E+02 0.  0.
        -13    1    3    3    0    0 -0.31815726306E+01 -0.22168594231E+02  0.90229673049E+02  0.92967536662E+02  0.00000000000E+00 0.  1.
         14    1    3    3    0    0  0.24549705226E+02  0.60647883925E+02  0.51216303688E+03  0.51632531431E+03  0.00000000000E+00 0. -1.
        -13    1    4    4    0    0  0.16760237513E+03 -0.75633386842E+02  0.70492626479E+03  0.72851355797E+03  0.00000000000E+00 0. -1.
         13    1    4    4    0    0  0.19391627277E+02  0.17700103344E+02  0.47626398562E+02  0.54383846010E+02  0.00000000000E+00 0.  1.
          1    1    1    2  501    0 -0.20836213501E+03  0.19453993803E+02  0.92972873668E+03  0.95298938136E+03  0.00000000000E+00 0. -1.
<scales pt_clust_5="13000.00000" pt_clust_6="13000.00000" pt_clust_7="13000.00000" pt_clust_8="13000.00000" pt_clust_9="200.75105"></scales>
<clustering>
<clus scale="   80.147">  5  6 -1 -1</clus>
<clus scale="   90.939">  7  8 -1 -1</clus>
<clus scale="   91.437">  1  5  2 -1</clus>
<clus scale="  200.751">  2  9  1 -1</clus>
<clus scale="  200.751">  2  5  1 -1</clus>
</clustering>
</event>
<event>
 9    2  0.4883225E-005  0.9725001E+02  0.7546771E-02  0.1291052E+00
         21   -1    0    0  501  502  0.00000000000E+00  0.00000000000E+00  0.50717786850E+03  0.50717786850E+03  0.00000000000E+00 0.  1.
         -1   -1    0    0    0  501 -0.00000000000E+00 -0.00000000000E+00 -0.39736883184E+02  0.39736883184E+02  0.00000000000E+00 0.  1.
         23    2    1    2    0    0  0.16732653796E+02  0.29785521884E+02  0.50729910661E+02  0.11116258566E+03  0.92824768235E+02 0.  0.
         24    2    1    2    0    0 -0.22690858208E+02 -0.25682133567E+01  0.21173110556E+03  0.22888730720E+03  0.83891999453E+02 0.  0.
        -11    1    4    4    0    0 -0.44867051612E+02 -0.13103123343E+02  0.19135803296E+03  0.19698385960E+03  0.00000000000E+00 0.  1.
         12    1    4    4    0    0  0.22176193404E+02  0.10534909987E+02  0.20373072594E+02  0.31903447608E+02  0.00000000000E+00 0. -1.
        -13    1    3    3    0    0  0.26310309647E+02  0.60204633733E+02  0.25420831520E+02  0.70448910509E+02  0.00000000000E+00 0.  1.
         13    1    3    3    0    0 -0.95776558515E+01 -0.30419111850E+02  0.25309079140E+02  0.40713675151E+02  0.00000000000E+00 0. -1.
         -2    1    1    2    0  502  0.59582044123E+01 -0.27217308527E+02  0.20497996910E+03  0.20686485882E+03  0.00000000000E+00 0.  1.
<scales pt_clust_5="13000.00000" pt_clust_6="13000.00000" pt_clust_7="13000.00000" pt_clust_8="13000.00000" pt_clust_9="27.86184"></scales>
<clustering>
<clus scale="   27.862">  1  9  2 -1</clus>
<clus scale="   83.892">  5  6 -1 -1</clus>
<clus scale="   88.764">  1  5  2 -1</clus>
<clus scale="   92.825">  7  8 -1 -1</clus>
<clus scale="   27.862">  1  5  2 -1</clus>
</clustering>
</event>
<event>
 9    2  0.4883225E-005  0.1283281E+03  0.7546771E-02  0.1236094E+00
          2   -1    0    0  502    0 -0.00000000000E+00  0.00000000000E+00  0.18548972631E+03  0.18548972631E+03  0.00000000000E+00 0. -1.
         21   -1    0    0  501  502  0.00000000000E+00 -0.00000000000E+00 -0.17956157838E+03  0.17956157838E+03  0.00000000000E+00 0.  1.
         23    2    1    2    0    0  0.55375514990E+02  0.35704409386E+02 -0.31720308506E+02  0.11749100274E+03  0.91960346037E+02 0.  0.
         24    2    1    2    0    0 -0.23822620927E+02  0.85037900099E+02  0.66957632252E+01  0.11898207813E+03  0.79454011544E+02 0.  0.
        -11    1    4    4    0    0 -0.38472083723E+02  0.77469609684E+02  0.29014382490E+02  0.91233086333E+02  0.00000000000E+00 0.  1.
         12    1    4    4    0    0  0.14649462796E+02  0.75682904154E+01 -0.22318619265E+02  0.27748991800E+02  0.00000000000E+00 0. -1.
        -11    1    3    3    0    0  0.32066766433E+02 -0.26599099261E+02  0.42303318737E+01  0.41877025906E+02  0.00000000000E+00 0. -1.
         11    1    3    3    0    0  0.23308748557E+02  0.62303508648E+02 -0.35950640380E+02  0.75613976835E+02  0.00000000000E+00 0.  1.
          1    1    1    2  501    0 -0.31552894063E+02 -0.12074230949E+03  0.30952693216E+02  0.12857822382E+03  0.00000000000E+00 0. -1.
<scales pt_clust_5="13000.00000" pt_clust_6="13000.00000" pt_clust_7="13000.00000" pt_clust_8="13000.00000" pt_clust_9="100.77284"></scales>
<clustering>
<clus scale="   79.454">  5  6 -1 -1</clus>
<clus scale="   91.960">  7  8 -1 -1</clus>
<clus scale="  113.128">  1  7  2 -1</clus>
<clus scale="  100.773">  2  9  1 -1</clus>
<clus scale="  100.773">  2  5  1 -1</clus>
</clustering>
</event>
<event>
 9    2  0.4883225E-005  0.1356001E+03  0.7546771E-02  0.1231137E+00
          4   -1    0    0  502    0 -0.00000000000E+00  0.00000000000E+00  0.70765118998E+03  0.70765118998E+03  0.00000000000E+00 0. -1.
         21   -1    0    0  501  502  0.00000000000E+00 -0.00000000000E+00 -0.54761101553E+02  0.54761101553E+02  0.00000000000E+00 0.  1.
         24    2    1    2    0    0  0.63667027307E+02  0.13281511733E+02  0.36704877850E+03  0.38209128069E+03  0.83899058750E+02 0.  0.
         23    2    1    2    0    0  0.67879445832E+02  0.19058984523E+02  0.13044371072E+03  0.17416864939E+03  0.91368992041E+02 0.  0.
        -11    1    3    3    0    0  0.56590570740E+01 -0.30149618147E+02  0.71777875879E+02  0.78058233820E+02  0.00000000000E+00 0.  1.
         12    1    3    3    0    0  0.58007970233E+02  0.43431129880E+02  0.29527090262E+03  0.30403304687E+03  0.00000000000E+00 0. -1.
        -11    1    4    4    0    0  0.25649144776E+02  0.14480311821E+02  0.12829917603E+03  0.13163676017E+03  0.00000000000E+00 0. -1.
         11    1    4    4    0    0  0.42230301056E+02  0.45786727021E+01  0.21445346814E+01  0.42531889213E+02  0.00000000000E+00 0.  1.
          3    1    1    2  501    0 -0.13154647314E+03 -0.32340496256E+02  0.15539759921E+03  0.20615236145E+03  0.00000000000E+00 0. -1.
<scales pt_clust_5="13000.00000" pt_clust_6="13000.00000" pt_clust_7="13000.00000" pt_clust_8="13000.00000" pt_clust_9="100.19534"></scales>
<clustering>
<clus scale="   83.899">  5  6 -1 -1</clus>
<clus scale="   91.369">  7  8 -1 -1</clus>
<clus scale="  106.155">  1  5  2 -1</clus>
<clus scale="  100.195">  2  9  1 -1</clus>
<clus scale="  100.195">  2  5  1 -1</clus>
</clustering>
</event>
<event>
 9    2  0.4883225E-005  0.9471574E+02  0.7546771E-02  0.1299447E+00
          2   -1    0    0  502    0 -0.00000000000E+00  0.00000000000E+00  0.87444014108E+02  0.87444014108E+02  0.00000000000E+00 0. -1.
         21   -1    0    0  501  502  0.00000000000E+00 -0.00000000000E+00 -0.30744736271E+03  0.30744736271E+03  0.00000000000E+00 0.  1.
         23    2    1    2    0    0  0.13018637296E+02  0.15602787693E+02  0.43196200260E+02  0.10413463310E+03  0.92548247923E+02 0.  0.
         24    2    1    2    0    0 -0.32110211480E+02  0.61294956692E+01 -0.14144373460E+03  0.16561179316E+03  0.79701314764E+02 0.  0.
        -11    1    4    4    0    0 -0.32953129900E+02  0.16420528662E+02 -0.14857123377E+03  0.15306519538E+03  0.00000000000E+00 0.  1.
         12    1    4    4    0    0  0.84291842013E+00 -0.10291032993E+02  0.71274991647E+01  0.12546597780E+02  0.00000000000E+00 0. -1.
        -11    1    3    3    0    0  0.37541698250E+02  0.23581514697E+00  0.59920288902E+02  0.70709799450E+02  0.00000000000E+00 0. -1.
         11    1    3    3    0    0 -0.24523060954E+02  0.15366972546E+02 -0.16724088641E+02  0.33424833652E+02  0.00000000000E+00 0.  1.
          1    1    1    2  501    0  0.19091574185E+02 -0.21732283362E+02 -0.12175581425E+03  0.12514495056E+03  0.00000000000E+00 0. -1.
<scales pt_clust_5="13000.00000" pt_clust_6="13000.00000" pt_clust_7="13000.00000" pt_clust_8="13000.00000" pt_clust_9="28.92716"></scales>
<clustering>
<clus scale="   28.927">  2  9  1 -1</clus>
<clus scale="   79.701">  5  6 -1 -1</clus>
<clus scale="   82.208">  2  5  1 -1</clus>
<clus scale="   92.548">  7  8 -1 -1</clus>
<clus scale="   28.927">  2  5  1 -1</clus>
</clustering>
</event>
<event>
 9    2  0.4883225E-005  0.9894619E+02  0.7546771E-02  0.1290324E+00
         21   -1    0    0  501  502  0.00000000000E+00  0.00000000000E+00  0.47452488969E+02  0.47452488969E+02  0.00000000000E+00 0. -1.
         -3   -1    0    0    0  501 -0.00000000000E+00 -0.00000000000E+00 -0.29666116635E+03  0.29666116635E+03  0.00000000000E+00 0.  1.
         24    2    1    2    0    0  0.31023234277E+02  0.71622136848E+01 -0.17691091808E+03  0.19681156898E+03  0.80147254329E+02 0.  0.
         23    2    1    2    0    0 -0.25897460951E+02  0.16940221714E+02 -0.71916486889E+02  0.12265768915E+03  0.94420749979E+02 0.  0.
        -11    1    3    3    0    0  0.34847051633E+02  0.27860127897E+02 -0.16822663218E+03  0.17404224633E+03  0.00000000000E+00 0.  1.
         12    1    3    3    0    0 -0.38238173559E+01 -0.20697914213E+02 -0.86842858985E+01  0.22769322640E+02  0.00000000000E+00 0. -1.
        -11    1    4    4    0    0 -0.31296653125E+02 -0.11500961577E+02 -0.84688809286E+02  0.91016191045E+02  0.00000000000E+00 0.  1.
         11    1    4    4    0    0  0.53991921738E+01  0.28441183291E+02  0.12772322397E+02  0.31641498109E+02  0.00000000000E+00 0. -1.
         -4    1    1    2    0  502 -0.51257733257E+01 -0.24102435399E+02 -0.38127241288E+00  0.24644397193E+02  0.00000000000E+00 0.  1.
<scales pt_clust_5="13000.00000" pt_clust_6="13000.00000" pt_clust_7="13000.00000" pt_clust_8="13000.00000" pt_clust_9="24.64145"></scales>
<clustering>
<clus scale="   24.641">  1  9  2 -1</clus>
<clus scale="   80.147">  5  6 -1 -1</clus>
<clus scale="   85.432">  2  5  1 -1</clus>
<clus scale="   94.421">  7  8 -1 -1</clus>
<clus scale="   24.641">  1  5  2 -1</clus>
</clustering>
</event>
<event>
 9    2  0.4883225E-005  0.1623778E+03  0.7546771E-02  0.1186785E+00
         21   -1    0    0  501  502  0.00000000000E+00  0.00000000000E+00  0.37954224746E+02  0.37954224746E+02  0.00000000000E+00 0. -1.
          2   -1    0    0  502    0 -0.00000000000E+00 -0.00000000000E+00 -0.14933750001E+04  0.14933750001E+04  0.00000000000E+00 0. -1.
         24    2    1    2    0    0 -0.19855103294E+02  0.13435994256E+03 -0.98598413410E+03  0.10007823074E+04  0.10465990077E+03 0.  0.
         23    2    1    2    0    0  0.70660640038E+02 -0.71737846629E+02 -0.17631637443E+03  0.22653668688E+03  0.10045975274E+03 0.  0.
        -13    1    3    3    0    0 -0.26256362857E+02  0.94045747683E+01 -0.57512216014E+02  0.63917897399E+02  0.00000000000E+00 0.  1.
         14    1    3    3    0    0  0.64012595633E+01  0.12495536779E+03 -0.92847191808E+03  0.93686441000E+03  0.00000000000E+00 0. -1.
        -13    1    4    4    0    0  0.47760831643E+01 -0.55390072478E+02 -0.25534899651E+02  0.61179262824E+02  0.00000000000E+00 0. -1.
         13    1    4    4    0    0  0.65884556873E+02 -0.16347774151E+02 -0.15078147478E+03  0.16535742406E+03  0.00000000000E+00 0.  1.
          1    1    1    2  501    0 -0.50805536744E+02 -0.62622095929E+02 -0.29312026683E+03  0.30401023056E+03  0.00000000000E+00 0. -1.
<scales pt_clust_5="13000.00000" pt_clust_6="13000.00000" pt_clust_7="13000.00000" pt_clust_8="13000.00000" pt_clust_9="80.63954"></scales>
<clustering>
<clus scale="   80.640">  1  9  2 -1</clus>
<clus scale="  100.460">  7  8 -1 -1</clus>
<clus scale="  104.660">  5  6 -1 -1</clus>
<clus scale="  159.703">  1  7  2 -1</clus>
<clus scale="   80.640">  1  5  2 -1</clus>
</clustering>
</event>
<event>
 9    2  0.4883225E-005  0.1114194E+03  0.7546771E-02  0.1262037E+00
         21   -1    0    0  501  502  0.00000000000E+00  0.00000000000E+00  0.77213344720E+02  0.77213344720E+02  0.00000000000E+00 0. -1.
          2   -1    0    0  502    0 -0.00000000000E+00 -0.00000000000E+00 -0.90275900346E+03  0.90275900346E+03  0.00000000000E+00 0. -1.
         24    2    1    2    0    0 -0.59592023322E+02 -0.27280907225E+02 -0.77203694003E+03  0.77911532192E+03  0.81756901461E+02 0.  0.
         23    2    1    2    0    0  0.12371627937E+02  0.58786811167E+02 -0.82031313467E+02  0.13732808691E+03  0.92308833377E+02 0.  0.
        -11    1    3    3    0    0 -0.23335784261E+02  0.18157047163E+02 -0.92823312666E+02  0.97418707459E+02  0.00000000000E+00 0.  1.
         12    1    3    3    0    0 -0.36256239062E+02 -0.45437954388E+02 -0.67921362736E+03  0.68169661446E+03  0.00000000000E+00 0. -1.
        -13    1    4    4    0    0 -0.27587686082E+02 -0.63677301658E+01 -0.43059027271E+02  0.51533564212E+02  0.00000000000E+00 0. -1.
         13    1    4    4    0    0  0.39959314019E+02  0.65154541333E+02 -0.38972286196E+02  0.85794522696E+02  0.00000000000E+00 0.  1.
          1    1    1    2  501    0  0.47220395385E+02 -0.31505903942E+02  0.28522594757E+02  0.63528939352E+02  0.00000000000E+00 0. -1.
<scales pt_clust_5="13000.00000" pt_clust_6="13000.00000" pt_clust_7="13000.00000" pt_clust_8="13000.00000" pt_clust_9="56.76608"></scales>
<clustering>
<clus scale="   56.766">  1  9  2 -1</clus>
<clus scale="   81.757">  5  6 -1 -1</clus>
<clus scale="   92.309">  7  8 -1 -1</clus>
<clus scale="  102.847">  2  5  1 -1</clus>
<clus scale="   56.766">  1  5  2 -1</clus>
</clustering>
</event>
<event>
 9    2  0.4883225E-005  0.1762801E+03  0.7546771E-02  0.1172744E+00
         21   -1    0    0  501  502  0.00000000000E+00  0.00000000000E+00  0.83536538313E+02  0.83536538313E+02  0.00000000000E+00 0. -1.
          2   -1    0    0  502    0 -0.00000000000E+00 -0.00000000000E+00 -0.72419395852E+03  0.72419395852E+03  0.00000000000E+00 0. -1.
         23    2    1    2    0    0  0.53635241620E+02 -0.16332264100E+03 -0.55640269363E+03  0.58943044525E+03  0.91067382257E+02 0.  0.
         24    2    1    2    0    0 -0.24276997138E+02  0.95152343503E+02 -0.55270117711E+02  0.13861816197E+03  0.80727119679E+02 0.  0.
        -11    1    4    4    0    0 -0.26890166792E+01  0.10204502734E+03 -0.55001146184E+02  0.11595492442E+03  0.00000000000E+00 0.  1.
         12    1    4    4    0    0 -0.21587980459E+02 -0.68926838328E+01 -0.26897152707E+00  0.22663237553E+02  0.00000000000E+00 0. -1.
        -11    1    3    3    0    0  0.37970377622E+02 -0.89270253646E+01 -0.12635789872E+03  0.13224129434E+03  0.00000000000E+00 0. -1.
         11    1    3    3    0    0  0.15664863998E+02 -0.15439561564E+03 -0.43004479490E+03  0.45718915092E+03  0.00000000000E+00 0.  1.
          1    1    1    2  501    0 -0.29358244482E+02  0.68170297499E+02 -0.28984608868E+02  0.79681889607E+02  0.00000000000E+00 0. -1.
<scales pt_clust_5="13000.00000" pt_clust_6="13000.00000" pt_clust_7="13000.00000" pt_clust_8="13000.00000" pt_clust_9="74.22328"></scales>
<clustering>
<clus scale="   74.223">  1  9  2 -1</clus>
<clus scale="   80.727">  5  6 -1 -1</clus>
<clus scale="   91.067">  7  8 -1 -1</clus>
<clus scale="  171.167">  1  5  2 -1</clus>
<clus scale="   74.223">  1  5  2 -1</clus>
</clustering>
</event>
<event>
 9    2  0.4883225E-005  0.1112823E+03  0.7546771E-02  0.1266582E+00
         -3   -1    0    0    0  501 -0.00000000000E+00  0.00000000000E+00  0.25610686119E+03  0.25610686119E+03  0.00000000000E+00 0.  1.
         21   -1    0    0  501  502  0.00000000000E+00 -0.00000000000E+00 -0.78408273180E+02  0.78408273180E+02  0.00000000000E+00 0.  1.
         24    2    1    2    0    0 -0.35994706105E+02  0.63475331891E+02  0.99223036433E+02  0.14166826292E+03  0.69999636668E+02 0.  0.
         23    2    1    2    0    0  0.23944111012E+02 -0.31416605363E+02 -0.79152924712E+01  0.99914870911E+02  0.91433068578E+02 0.  0.
        -13    1    3    3    0    0 -0.50552190898E+02  0.18528705252E+02  0.51095638600E+02  0.74226687968E+02  0.00000000000E+00 0.  1.
         14    1    3    3    0    0  0.14557484793E+02  0.44946626639E+02  0.48127397833E+02  0.67441574952E+02  0.00000000000E+00 0. -1.
        -11    1    4    4    0    0  0.51248216507E+02  0.30683909152E+01 -0.18677382629E+02  0.54631852795E+02  0.00000000000E+00 0.  1.
         11    1    4    4    0    0 -0.27304105495E+02 -0.34484996278E+02  0.10762090158E+02  0.45283018116E+02  0.00000000000E+00 0. -1.
         -4    1    1    2    0  502  0.12050595093E+02 -0.32058726528E+02  0.86390844050E+02  0.92932000540E+02  0.00000000000E+00 0.  1.
<scales pt_clust_5="13000.00000" pt_clust_6="13000.00000" pt_clust_7="13000.00000" pt_clust_8="13000.00000" pt_clust_9="34.24880"></scales>
<clustering>
<clus scale="   34.249">  2  9  1 -1</clus>
<clus scale="   70.000">  5  6 -1 -1</clus>
<clus scale="   91.433">  7  8 -1 -1</clus>
<clus scale="   94.465">  1  5  2 -1</clus>
<clus scale="   34.249">  2  5  1 -1</clus>
</clustering>
</event>
<event>
 9    2  0.4883225E-005  0.9030281E+02  0.7546771E-02  0.1309123E+00
         21   -1    0    0  501  502  0.00000000000E+00  0.00000000000E+00  0.72416984503E+02  0.72416984503E+02  0.00000000000E+00 0.  1.
         -1   -1    0    0    0  501 -0.00000000000E+00 -0.00000000000E+00 -0.29912802492E+03  0.29912802492E+03  0.00000000000E+00 0.  1.
         23    2    1    2    0    0 -0.55918621439E+01  0.84356667732E+01 -0.15420174871E+03  0.17895160842E+03  0.90238957525E+02 0.  0.
         24    2    1    2    0    0 -0.77050778046E+01  0.15387994440E+02 -0.11578462575E+03  0.14143550833E+03  0.79383656123E+02 0.  0.
        -11    1    4    4    0    0 -0.86328440188E+01 -0.31648038983E+02 -0.60685098867E+02  0.68984096659E+02  0.00000000000E+00 0.  1.
         12    1    4    4    0    0  0.92776621419E+00  0.47036033423E+02 -0.55099526881E+02  0.72451411669E+02  0.00000000000E+00 0. -1.
        -13    1    3    3    0    0  0.26097259287E+02  0.33310942477E+02 -0.11582107081E+03  0.12330939248E+03  0.00000000000E+00 0.  1.
         13    1    3    3    0    0 -0.31689121431E+02 -0.24875275704E+02 -0.38380677900E+02  0.55642215938E+02  0.00000000000E+00 0. -1.
         -2    1    1    2    0  502  0.13296939949E+02 -0.23823661213E+02  0.43275334046E+02  0.51157892669E+02  0.00000000000E+00 0.  1.
<scales pt_clust_5="13000.00000" pt_clust_6="13000.00000" pt_clust_7="13000.00000" pt_clust_8="13000.00000" pt_clust_9="27.28324"></scales>
<clustering>
<clus scale="   27.283">  1  9  2 -1</clus>
<clus scale="   79.384">  5  6 -1 -1</clus>
<clus scale="   79.456">  1  5  2 -1</clus>
<clus scale="   90.239">  7  8 -1 -1</clus>
<clus scale="   27.283">  1  5  2 -1</clus>
</clustering>
</event>
<event>
 9    2  0.4883225E-005  0.1539906E+03  0.7546771E-02  0.1205813E+00
         21   -1    0    0  501  502  0.00000000000E+00  0.00000000000E+00  0.12264172145E+03  0.12264172145E+03  0.00000000000E+00 0. -1.
          2   -1    0    0  502    0 -0.00000000000E+00 -0.00000000000E+00 -0.43061915968E+03  0.43061915968E+03  0.00000000000E+00 0. -1.
         24    2    1    2    0    0 -0.61778729941E+02 -0.68258977287E+02 -0.18835285596E+03  0.22524928014E+03  0.82368321587E+02 0.  0.
         23    2    1    2    0    0 -0.76754958837E+02  0.88629191173E+02 -0.11738607497E+03  0.18797039471E+03  0.88356785003E+02 0.  0.
        -13    1    3    3    0    0 -0.23685748503E+02 -0.71649429606E+02 -0.16226792621E+03  0.17895679736E+03  0.00000000000E+00 0.  1.
         14    1    3    3    0    0 -0.38092981438E+02  0.33904523184E+01 -0.26084929753E+02  0.46292482781E+02  0.00000000000E+00 0. -1.
        -13    1    4    4    0    0 -0.56042392994E+02  0.51910698418E+02 -0.12365634533E+03  0.14534910444E+03  0.00000000000E+00 0. -1.
         13    1    4    4    0    0 -0.20712565843E+02  0.36718492754E+02  0.62702703512E+01  0.42621290270E+02  0.00000000000E+00 0.  1.
          1    1    1    2  501    0  0.13853368878E+03 -0.20370213886E+02 -0.22385072925E+01  0.14004120628E+03  0.00000000000E+00 0. -1.
<scales pt_clust_5="13000.00000" pt_clust_6="13000.00000" pt_clust_7="13000.00000" pt_clust_8="13000.00000" pt_clust_9="126.11970"></scales>
<clustering>
<clus scale="   82.368">  5  6 -1 -1</clus>
<clus scale="   88.357">  7  8 -1 -1</clus>
<clus scale="  123.533">  2  5  1 -1</clus>
<clus scale="  126.120">  1  9  2 -1</clus>
<clus scale="  126.120">  1  5  2 -1</clus>
</clustering>
</event>
<event>
 9    2  0.4883225E-005  0.2288036E+03  0.7546771E-02  0.1146289E+00
         21   -1    0    0  501  502  0.00000000000E+00  0.00000000000E+00  0.56763755614E+02  0.56763755614E+02  0.00000000000E+00 0. -1.
          2   -1    0    0  502    0 -0.00000000000E+00 -0.00000000000E+00 -0.16786696074E+04  0.16786696074E+04  0.00000000000E+00 0. -1.
         23    2    1    2    0    0 -0.17680233060E+01 -0.10504605864E+03 -0.35319568463E+03  0.38180046568E+03  0.99932995612E+02 0.  0.
         24    2    1    2    0    0  0.11572866130E+03 -0.11140946457E+03 -0.84770070526E+03  0.86671505257E+03  0.82421506954E+02 0.  0.
        -11    1    4    4    0    0  0.21154731824E+02 -0.23344615635E+02 -0.53636328971E+02  0.62204095871E+02  0.00000000000E+00 0.  1.
         12    1    4    4    0    0  0.94573929478E+02 -0.88064848936E+02 -0.79406437629E+03  0.80451095670E+03  0.00000000000E+00 0. -1.
        -13    1    3    3    0    0  0.13289987143E+02  0.16065263489E+02 -0.78347095379E+02  0.81073940348E+02  0.00000000000E+00 0.  1.
         13    1    3    3    0    0 -0.15058010449E+02 -0.12111132213E+03 -0.27484858925E+03  0.30072652533E+03  0.00000000000E+00 0. -1.
          1    1    1    2  501    0 -0.11396063800E+03  0.21645552321E+03 -0.42100946191E+03  0.48691784477E+03  0.00000000000E+00 0. -1.
<scales pt_clust_5="13000.00000" pt_clust_6="13000.00000" pt_clust_7="13000.00000" pt_clust_8="13000.00000" pt_clust_9="213.44268"></scales>
<clustering>
<clus scale="   82.422">  5  6 -1 -1</clus>
<clus scale="   99.933">  7  8 -1 -1</clus>
<clus scale="  144.998">  2  7  1 -1</clus>
<clus scale="  213.443">  1  9  2 -1</clus>
<clus scale="  213.443">  1  5  2 -1</clus>
</clustering>
</event>
<event>
 9    2  0.4883225E-005  0.1175870E+03  0.7546771E-02  0.1250677E+00
         21   -1    0    0  501  502  0.00000000000E+00  0.00000000000E+00  0.40724581408E+03  0.40724581408E+03  0.00000000000E+00 0.  1.
          2   -1    0    0  502    0 -0.00000000000E+00 -0.00000000000E+00 -0.76978040731E+03  0.76978040731E+03  0.00000000000E+00 0. -1.
         24    2    1    2    0    0 -0.53095387337E+02 -0.57252165511E+02 -0.74692191521E+03  0.75510636988E+03  0.78716909269E+02 0.  0.
         23    2    1    2    0    0  0.33542066083E+01 -0.36281503464E+01  0.15097179044E+03  0.17562042341E+03  0.89585922059E+02 0.  0.
        -11    1    3    3    0    0 -0.11295257736E+02  0.18675813946E+02 -0.96659995324E+02  0.99093509222E+02  0.00000000000E+00 0.  1.
         12    1    3    3    0    0 -0.41800129602E+02 -0.75927979457E+02 -0.65026191989E+03  0.65601286066E+03  0.00000000000E+00 0. -1.
        -13    1    4    4    0    0 -0.59510876675E+01 -0.41781564434E+02  0.40970952980E+02  0.58819499820E+02  0.00000000000E+00 0. -1.
         13    1    4    4    0    0  0.93052942759E+01  0.38153414088E+02  0.11000083746E+03  0.11680092359E+03  0.00000000000E+00 0.  1.
          1    1    1    2  501    0  0.49741180729E+02  0.60880315857E+02  0.23341553153E+03  0.24629942810E+03  0.00000000000E+00 0. -1.
<scales pt_clust_5="13000.00000" pt_clust_6="13000.00000" pt_clust_7="13000.00000" pt_clust_8="13000.00000" pt_clust_9="78.61678"></scales>
<clustering>
<clus scale="   78.617">  1  9  2 -1</clus>
<clus scale="   78.717">  5  6 -1 -1</clus>
<clus scale="   89.586">  7  8 -1 -1</clus>
<clus scale="  109.533">  2  5  1 -1</clus>
<clus scale="   78.617">  1  5  2 -1</clus>
</clustering>
</event>
<event>
 9    2  0.4883225E-005  0.1088168E+03  0.7546771E-02  0.1266762E+00
         21   -1    0    0  501  502  0.00000000000E+00  0.00000000000E+00  0.17625123672E+03  0.17625123672E+03  0.00000000000E+00 0.  1.
         -3   -1    0    0    0  501 -0.00000000000E+00 -0.00000000000E+00 -0.27245732695E+03  0.27245732695E+03  0.00000000000E+00 0.  1.
         23    2    1    2    0    0  0.66196139540E+02  0.19863528427E+02 -0.15813230682E+03  0.19463094886E+03  0.89993839472E+02 0.  0.
         24    2    1    2    0    0 -0.44701699673E+02 -0.26009457712E+02 -0.71315704538E+02  0.11897323689E+03  0.79962288220E+02 0.  0.
        -13    1    4    4    0    0 -0.91804104354E+01 -0.33808346246E+02 -0.74641773393E+02  0.82454099636E+02  0.00000000000E+00 0.  1.
         14    1    4    4    0    0 -0.35521289238E+02  0.77988885341E+01  0.33260688547E+01  0.36519137250E+02  0.00000000000E+00 0. -1.
        -13    1    3    3    0    0  0.61809346365E+01  0.44573335145E+02 -0.41800690848E+02  0.61418921468E+02  0.00000000000E+00 0. -1.
         13    1    3    3    0    0  0.60015204903E+02 -0.24709806718E+02 -0.11633161597E+03  0.13321202739E+03  0.00000000000E+00 0.  1.
         -4    1    1    2    0  502 -0.21494439867E+02  0.61459292848E+01  0.13324192112E+03  0.13510437793E+03  0.00000000000E+00 0.  1.
<scales pt_clust_5="13000.00000" pt_clust_6="13000.00000" pt_clust_7="13000.00000" pt_clust_8="13000.00000" pt_clust_9="22.35584"></scales>
<clustering>
<clus scale="   22.356">  1  9  2 -1</clus>
<clus scale="   79.962">  5  6 -1 -1</clus>
<clus scale="   89.994">  7  8 -1 -1</clus>
<clus scale="  100.679">  1  5  2 -1</clus>
<clus scale="   22.356">  1  5  2 -1</clus>
</clustering>
</event>
<event>
 9    2  0.4883225E-005  0.5388667E+03  0.7546771E-02  0.1004104E+00
         21   -1    0    0  501  502  0.00000000000E+00  0.00000000000E+00  0.28818705028E+03  0.28818705028E+03  0.00000000000E+00 0. -1.
          2   -1    0    0  502    0 -0.00000000000E+00 -0.00000000000E+00 -0.87155984910E+03  0.87155984910E+03  0.00000000000E+00 0. -1.
         24    2    1    2    0    0  0.51978692301E+02  0.14201471939E+03  0.61130996966E-01  0.18367210433E+03  0.10423758053E+03 0.  0.
         23    2    1    2    0    0 -0.10042705659E+03  0.30364999087E+03 -0.21756525858E+03  0.39743487025E+03  0.91273893856E+02 0.  0.
        -13    1    3    3    0    0 -0.21420164487E+02  0.34203168809E+02  0.29471015495E+02  0.49972201848E+02  0.00000000000E+00 0.  1.
         14    1    3    3    0    0  0.73398856788E+02  0.10781155059E+03 -0.29409884498E+02  0.13369990248E+03  0.00000000000E+00 0. -1.
        -11    1    4    4    0    0 -0.51933014446E+02  0.26638576276E+03 -0.17983059486E+03  0.32557250412E+03  0.00000000000E+00 0. -1.
         11    1    4    4    0    0 -0.48494042146E+02  0.37264228116E+02 -0.37734663719E+02  0.71862366136E+02  0.00000000000E+00 0.  1.
          1    1    1    2  501    0  0.48448364291E+02 -0.44566471027E+03 -0.36586867124E+03  0.57863992480E+03  0.00000000000E+00 0. -1.
<scales pt_clust_5="13000.00000" pt_clust_6="13000.00000" pt_clust_7="13000.00000" pt_clust_8="13000.00000" pt_clust_9="448.29062"></scales>
<clustering>
<clus scale="   91.274">  7  8 -1 -1</clus>
<clus scale="  104.238">  5  6 -1 -1</clus>
<clus scale="  182.283">  5  7 -1 -1</clus>
<clus scale="  448.291">  1  9  2 -1</clus>
<clus scale="  448.291">  1  5  2 -1</clus>
</clustering>
</event>
<event>
 9    2  0.4883225E-005  0.1026935E+03  0.7546771E-02  0.1281032E+00
         21   -1    0    0  501  502  0.00000000000E+00  0.00000000000E+00  0.10364199240E+03  0.10364199240E+03  0.00000000000E+00 0. -1.
         -1   -1    0    0    0  501 -0.00000000000E+00 -0.00000000000E+00 -0.15623271753E+03  0.15623271753E+03  0.00000000000E+00 0.  1.
         23    2    1    2    0    0  0.18245678503E+02  0.28488868334E+02 -0.70772670559E+02  0.12170125299E+03  0.93047856919E+02 0.  0.
         24    2    1    2    0    0 -0.44118070611E+02 -0.49235536788E+02  0.12897815110E+02  0.10459181078E+03  0.80015942228E+02 0.  0.
        -13    1    4    4    0    0  0.16304627038E+02 -0.12118849148E+02 -0.18092233174E+02  0.27203607642E+02  0.00000000000E+00 0.  1.
         14    1    4    4    0    0 -0.60422697649E+02 -0.37116687640E+02  0.30990048283E+02  0.77388203140E+02  0.00000000000E+00 0. -1.
        -11    1    3    3    0    0  0.51638024649E+02 -0.10711232660E+01 -0.23601179003E+02  0.56785988985E+02  0.00000000000E+00 0.  1.
         11    1    3    3    0    0 -0.33392346146E+02  0.29559991600E+02 -0.47171491556E+02  0.64915264000E+02  0.00000000000E+00 0. -1.
         -2    1    1    2    0  502  0.25872392108E+02  0.20746668454E+02  0.52841303225E+01  0.33581646157E+02  0.00000000000E+00 0.  1.
<scales pt_clust_5="13000.00000" pt_clust_6="13000.00000" pt_clust_7="13000.00000" pt_clust_8="13000.00000" pt_clust_9="33.16331"></scales>
<clustering>
<clus scale="   33.163">  1  9  2 -1</clus>
<clus scale="   80.016">  5  6 -1 -1</clus>
<clus scale="   91.053">  1  5  2 -1</clus>
<clus scale="   93.048">  7  8 -1 -1</clus>
<clus scale="   33.163">  1  5  2 -1</clus>
</clustering>
</event>
<event>
 9    2  0.4883225E-005  0.1046641E+03  0.7546771E-02  0.1277722E+00
         21   -1    0    0  501  502  0.00000000000E+00  0.00000000000E+00  0.23992135233E+03  0.23992135233E+03  0.00000000000E+00 0.  1.
          2   -1    0    0  502    0 -0.00000000000E+00 -0.00000000000E+00 -0.94414759268E+02  0.94414759268E+02  0.00000000000E+00 0. -1.
         24    2    1    2    0    0  0.29178196568E+02 -0.27674689112E+02 -0.21089105933E+02  0.90940927243E+02  0.78792425311E+02 0.  0.
         23    2    1    2    0    0 -0.67241838943E+02  0.19228967568E+02  0.63173096279E+02  0.13286733340E+03  0.93657194567E+02 0.  0.
        -11    1    3    3    0    0 -0.23760794707E+02 -0.12414996096E+02 -0.23702868706E+02  0.35784542446E+02  0.00000000000E+00 0.  1.
         12    1    3    3    0    0  0.52938991274E+02 -0.15259693016E+02  0.26137627736E+01  0.55156384797E+02  0.00000000000E+00 0. -1.
        -11    1    4    4    0    0 -0.22156624360E+02  0.27161527476E+02  0.77369028689E+02  0.84938985031E+02  0.00000000000E+00 0.  1.
         11    1    4    4    0    0 -0.45085214583E+02 -0.79325599081E+01 -0.14195932411E+02  0.47928348372E+02  0.00000000000E+00 0. -1.
          1    1    1    2  501    0  0.38063642375E+02  0.84457215440E+01  0.10342260272E+03  0.11052785096E+03  0.00000000000E+00 0. -1.
<scales pt_clust_5="13000.00000" pt_clust_6="13000.00000" pt_clust_7="13000.00000" pt_clust_8="13000.00000" pt_clust_9="38.98937"></scales>
<clustering>
<clus scale="   38.989">  1  9  2 -1</clus>
<clus scale="   78.792">  5  6 -1 -1</clus>
<clus scale="   91.603">  2  5  1 -1</clus>
<clus scale="   93.657">  7  8 -1 -1</clus>
<clus scale="   38.989">  1  5  2 -1</clus>
</clustering>
</event>
<event>
 9    2  0.4883225E-005  0.1074140E+03  0.7546771E-02  0.1277657E+00
          2   -1    0    0  502    0 -0.00000000000E+00  0.00000000000E+00  0.97176523433E+03  0.97176523433E+03  0.00000000000E+00 0. -1.
         21   -1    0    0  501  502  0.00000000000E+00 -0.00000000000E+00 -0.21137504323E+02  0.21137504323E+02  0.00000000000E+00 0. -1.
         24    2    1    2    0    0  0.73199596173E+02 -0.42793271675E+02  0.44083277593E+03  0.45305950665E+03  0.61155009965E+02 0.  0.
         23    2    1    2    0    0 -0.32294574827E+02 -0.24100516452E+02  0.26002362308E+03  0.27805377949E+03  0.89876833913E+02 0.  0.
        -11    1    3    3    0    0  0.25721751028E+02 -0.41968956163E+02  0.13777827090E+03  0.14630739452E+03  0.00000000000E+00 0.  1.
         12    1    3    3    0    0  0.47477845145E+02 -0.82431551208E+00  0.30305450503E+03  0.30675211213E+03  0.00000000000E+00 0. -1.
        -11    1    4    4    0    0 -0.39574423860E-01  0.32707514106E+02  0.99861307368E+02  0.10508122456E+03  0.00000000000E+00 0. -1.
         11    1    4    4    0    0 -0.32255000403E+02 -0.56808030558E+02  0.16016231571E+03  0.17297255494E+03  0.00000000000E+00 0.  1.
          1    1    1    2  501    0 -0.40905021346E+02  0.66893788127E+02  0.24977133099E+03  0.26178945251E+03  0.00000000000E+00 0. -1.
<scales pt_clust_5="13000.00000" pt_clust_6="13000.00000" pt_clust_7="13000.00000" pt_clust_8="13000.00000" pt_clust_9="78.40918"></scales>
<clustering>
<clus scale="   61.155">  5  6 -1 -1</clus>
<clus scale="   78.409">  2  9  1 -1</clus>
<clus scale="   84.852">  1  5  2 -1</clus>
<clus scale="   89.877">  7  8 -1 -1</clus>
<clus scale="   78.409">  2  5  1 -1</clus>
</clustering>
</event>
<event>
 9    2  0.4883225E-005  0.1619715E+03  0.7546771E-02  0.1204669E+00
         21   -1    0    0  501  502  0.00000000000E+00  0.00000000000E+00  0.11590401945E+03  0.11590401945E+03  0.00000000000E+00 0. -1.
          2   -1    0    0  502    0 -0.00000000000E+00 -0.00000000000E+00 -0.52835882007E+03  0.52835882007E+03  0.00000000000E+00 0. -1.
         24    2    1    2    0    0  0.53435341685E+02 -0.51043544808E+02 -0.29553316092E+03  0.31492511251E+03  0.79857360815E+02 0.  0.
         23    2    1    2    0    0 -0.10812238671E+03 -0.81014557249E+02 -0.43660868223E+02  0.16872279667E+03  0.91144400305E+02 0.  0.
        -11    1    3    3    0    0  0.18321974122E+02  0.21181498100E+02 -0.63989936558E+02  0.69850286887E+02  0.00000000000E+00 0.  1.
         12    1    3    3    0    0  0.35113367563E+02 -0.72225042907E+02 -0.23154322437E+03  0.24507482562E+03  0.00000000000E+00 0. -1.
        -11    1    4    4    0    0 -0.17039655152E+00 -0.47725770772E+02 -0.26104337608E+02  0.54398664255E+02  0.00000000000E+00 0. -1.
         11    1    4    4    0    0 -0.10795199016E+03 -0.33288786476E+02 -0.17556530614E+02  0.11432413241E+03  0.00000000000E+00 0.  1.
          1    1    1    2  501    0  0.54687045026E+02  0.13205810206E+03 -0.73260771480E+02  0.16061493035E+03  0.00000000000E+00 0. -1.
<scales pt_clust_5="13000.00000" pt_clust_6="13000.00000" pt_clust_7="13000.00000" pt_clust_8="13000.00000" pt_clust_9="133.89361"></scales>
<clustering>
<clus scale="   79.857">  5  6 -1 -1</clus>
<clus scale="   91.144">  7  8 -1 -1</clus>
<clus scale="  108.802">  2  5  1 -1</clus>
<clus scale="  133.894">  1  9  2 -1</clus>
<clus scale="  133.894">  1  5  2 -1</clus>
</clustering>
</event>
<event>
 9    2  0.4883225E-005  0.1939843E+03  0.7546771E-02  0.1155774E+00
          2   -1    0    0  502    0 -0.00000000000E+00  0.00000000000E+00  0.19312141985E+04  0.19312141985E+04  0.00000000000E+00 0. -1.
         21   -1    0    0  501  502  0.00000000000E+00 -0.00000000000E+00 -0.10524993977E+03  0.10524993977E+03  0.00000000000E+00 0.  1.
         24    2    1    2    0    0  0.92372030764E+02 -0.13670235242E+03  0.11560411762E+04  0.11705000389E+04  0.80118753102E+02 0.  0.
         23    2    1    2    0    0 -0.43506945817E+02  0.19224625845E+03  0.73579406772E+03  0.76690902018E+03  0.88910386964E+02 0.  0.
        -13    1    3    3    0    0  0.75312380939E+02 -0.40882308001E+02  0.50337718929E+03  0.51061914626E+03  0.00000000000E+00 0.  1.
         14    1    3    3    0    0  0.17059649825E+02 -0.95820044420E+02  0.65266398695E+03  0.65988089260E+03  0.00000000000E+00 0. -1.
        -11    1    4    4    0    0 -0.63324367277E+02  0.18331822634E+03  0.64362875491E+03  0.67221538345E+03  0.00000000000E+00 0.  1.
         11    1    4    4    0    0  0.19817421460E+02  0.89280321099E+01  0.92165312813E+02  0.94693636727E+02  0.00000000000E+00 0. -1.
          1    1    1    2  501    0 -0.48865084947E+02 -0.55543906033E+02 -0.65870985237E+02  0.99055079226E+02  0.00000000000E+00 0. -1.
<scales pt_clust_5="13000.00000" pt_clust_6="13000.00000" pt_clust_7="13000.00000" pt_clust_8="13000.00000" pt_clust_9="73.97920"></scales>
<clustering>
<clus scale="   73.979">  2  9  1 -1</clus>
<clus scale="   80.119">  5  6 -1 -1</clus>
<clus scale="   88.910">  7  8 -1 -1</clus>
<clus scale="  190.115">  1  5  2 -1</clus>
<clus scale="   73.979">  2  5  1 -1</clus>
</clustering>
</event>
<event>
 9    2  0.4883225E-005  0.9785852E+02  0.7546771E-02  0.1290062E+00
          2   -1    0    0  502    0 -0.00000000000E+00  0.00000000000E+00  0.66746654507E+03  0.66746654507E+03  0.00000000000E+00 0. -1.
         21   -1    0    0  501  502  0.00000000000E+00 -0.00000000000E+00 -0.24217897614E+02  0.24217897614E+02  0.00000000000E+00 0. -1.
         24    2    1    2    0    0  0.77511924853E+01  0.24832784626E+02  0.27734238956E+03  0.28963196660E+03  0.79316624069E+02 0.  0.
         23    2    1    2    0    0 -0.55782421674E+02 -0.43222345324E+02  0.27412620471E+03  0.29684433436E+03  0.89395374793E+02 0.  0.
        -13    1    3    3    0    0 -0.79984743845E+01 -0.19318172055E+02  0.23320420783E+02  0.31321069418E+02  0.00000000000E+00 0.  1.
         14    1    3    3    0    0  0.15749666870E+02  0.44150956681E+02  0.25402196878E+03  0.25831089719E+03  0.00000000000E+00 0. -1.
        -13    1    4    4    0    0 -0.78860834134E+02 -0.44604485200E+02  0.21160344931E+03  0.23018386351E+03  0.00000000000E+00 0. -1.
         13    1    4    4    0    0  0.23078412460E+02  0.13821398755E+01  0.62522755392E+02  0.66660470851E+02  0.00000000000E+00 0.  1.
          1    1    1    2  501    0  0.48031229189E+02  0.18389560699E+02  0.91780053185E+02  0.10520814171E+03  0.00000000000E+00 0. -1.
<scales pt_clust_5="13000.00000" pt_clust_6="13000.00000" pt_clust_7="13000.00000" pt_clust_8="13000.00000" pt_clust_9="51.43126"></scales>
<clustering>
<clus scale="   51.431">  2  9  1 -1</clus>
<clus scale="   79.317">  5  6 -1 -1</clus>
<clus scale="   88.746">  1  5  2 -1</clus>
<clus scale="   89.395">  7  8 -1 -1</clus>
<clus scale="   51.431">  2  5  1 -1</clus>
</clustering>
</event>
<event>
 9    2  0.4883225E-005  0.2389064E+03  0.7546771E-02  0.1121473E+00
          2   -1    0    0  502    0 -0.00000000000E+00  0.00000000000E+00  0.12118357651E+04  0.12118357651E+04  0.00000000000E+00 0. -1.
         21   -1    0    0  501  502  0.00000000000E+00 -0.00000000000E+00 -0.54163265004E+02  0.54163265004E+02  0.00000000000E+00 0.  1.
         24    2    1    2    0    0  0.10219840407E+03 -0.19620549623E+03  0.64289361450E+03  0.68853325843E+03  0.10874161048E+03 0.  0.
         23    2    1    2    0    0 -0.66332307249E+02  0.19259534718E+03  0.43052811576E+03  0.48582733926E+03  0.95816503689E+02 0.  0.
        -11    1    3    3    0    0  0.90745254434E+02 -0.91124193696E+02  0.45633792793E+03  0.47411245960E+03  0.00000000000E+00 0.  1.
         12    1    3    3    0    0  0.11453149633E+02 -0.10508130253E+03  0.18655568658E+03  0.21442079883E+03  0.00000000000E+00 0. -1.
        -11    1    4    4    0    0 -0.87185259223E+02  0.11700519239E+03  0.26033492088E+03  0.29843886392E+03  0.00000000000E+00 0.  1.
         11    1    4    4    0    0  0.20852951973E+02  0.75590154796E+02  0.17019319488E+03  0.18738847534E+03  0.00000000000E+00 0. -1.
          1    1    1    2  501    0 -0.35866096818E+02  0.36101490436E+01  0.84250769869E+02  0.91638432443E+02  0.00000000000E+00 0. -1.
<scales pt_clust_5="13000.00000" pt_clust_6="13000.00000" pt_clust_7="13000.00000" pt_clust_8="13000.00000" pt_clust_9="36.04735"></scales>
<clustering>
<clus scale="   36.047">  2  9  1 -1</clus>
<clus scale="   95.817">  7  8 -1 -1</clus>
<clus scale="  108.742">  5  6 -1 -1</clus>
<clus scale="  233.307">  2  7  1 -1</clus>
<clus scale="   36.047">  2  5  1 -1</clus>
</clustering>
</event>
<event>
 9    2  0.4883225E-005  0.8897644E+02  0.7546771E-02  0.1309107E+00
         -3   -1    0    0    0  501 -0.00000000000E+00  0.00000000000E+00  0.13993812897E+03  0.13993812897E+03  0.00000000000E+00 0.  1.
         21   -1    0    0  501  502  0.00000000000E+00 -0.00000000000E+00 -0.17655237831E+03  0.17655237831E+03  0.00000000000E+00 0.  1.
         24    2    1    2    0    0 -0.25009786898E+01  0.33080681848E+02  0.26944848933E+02  0.90102665130E+02  0.79321365177E+02 0.  0.
         23    2    1    2    0    0 -0.42821801809E+02  0.13530634470E+02 -0.11009604291E+03  0.14643500319E+03  0.85470970010E+02 0.  0.
        -11    1    3    3    0    0 -0.39527746206E+02  0.20913258605E+02  0.40532372266E+01  0.44902514825E+02  0.00000000000E+00 0.  1.
         12    1    3    3    0    0  0.37026767516E+02  0.12167423243E+02  0.22891611707E+02  0.45200150305E+02  0.00000000000E+00 0. -1.
        -11    1    4    4    0    0 -0.27021711469E+02  0.43430494100E+02 -0.97951148823E+02  0.11050252605E+03  0.00000000000E+00 0.  1.
         11    1    4    4    0    0 -0.15800090339E+02 -0.29899859629E+02 -0.12144894090E+02  0.35932477135E+02  0.00000000000E+00 0. -1.
         -4    1    1    2    0  502  0.45322780499E+02 -0.46611316319E+02  0.46536944638E+02  0.79952838957E+02  0.00000000000E+00 0.  1.
<scales pt_clust_5="13000.00000" pt_clust_6="13000.00000" pt_clust_7="13000.00000" pt_clust_8="13000.00000" pt_clust_9="65.01364"></scales>
<clustering>
<clus scale="   65.014">  2  9  1 -1</clus>
<clus scale="   79.321">  5  6 -1 -1</clus>
<clus scale="   83.087">  1  5  2 -1</clus>
<clus scale="   85.471">  7  8 -1 -1</clus>
<clus scale="   65.014">  2  5  1 -1</clus>
</clustering>
</event>
<event>
 9    2  0.4883225E-005  0.3593309E+03  0.7546771E-02  0.1059063E+00
          2   -1    0    0  502    0 -0.00000000000E+00  0.00000000000E+00  0.11077930136E+04  0.11077930136E+04  0.00000000000E+00 0. -1.
         21   -1    0    0  501  502  0.00000000000E+00 -0.00000000000E+00 -0.18162960522E+03  0.18162960522E+03  0.00000000000E+00 0. -1.
         24    2    1    2    0    0  0.19610019659E+03 -0.20943382751E+03  0.30048036187E+03  0.42312134349E+03  0.80158644190E+02 0.  0.
         23    2    1    2    0    0 -0.32300547495E+03  0.29464343693E+03  0.47253722791E+03  0.64992366797E+03  0.89230323613E+02 0.  0.
        -13    1    3    3    0    0  0.64350725165E+02 -0.20713525479E+02  0.62928296456E+02  0.92358196506E+02  0.00000000000E+00 0.  1.
         14    1    3    3    0    0  0.13174947142E+03 -0.18872030203E+03  0.23755206542E+03  0.33076314698E+03  0.00000000000E+00 0. -1.
        -13    1    4    4    0    0 -0.31377211294E+03  0.25714674400E+03  0.44690683748E+03  0.60357527136E+03  0.00000000000E+00 0. -1.
         13    1    4    4    0    0 -0.92333620101E+01  0.37496692933E+02  0.25630390427E+02  0.46348396611E+02  0.00000000000E+00 0.  1.
          1    1    1    2  501    0  0.12690527836E+03 -0.85209609425E+02  0.15314581865E+03  0.21637760740E+03  0.00000000000E+00 0. -1.
<scales pt_clust_5="13000.00000" pt_clust_6="13000.00000" pt_clust_7="13000.00000" pt_clust_8="13000.00000" pt_clust_9="152.85819"></scales>
<clustering>
<clus scale="   80.159">  5  6 -1 -1</clus>
<clus scale="   89.230">  7  8 -1 -1</clus>
<clus scale="  152.858">  2  9  1 -1</clus>
<clus scale="  357.186">  1  5  2 -1</clus>
<clus scale="  152.858">  2  5  1 -1</clus>
</clustering>
</event>
<event>
 9    2  0.4883225E-005  0.1134254E+03  0.7546771E-02  0.1257736E+00
          4   -1    0    0  502    0 -0.00000000000E+00  0.00000000000E+00  0.51957607190E+03  0.51957607190E+03  0.00000000000E+00 0. -1.
         21   -1    0    0  501  502  0.00000000000E+00 -0.00000000000E+00 -0.12547638323E+03  0.12547638323E+03  0.00000000000E+00 0. -1.
         24    2    1    2    0    0  0.59442079687E+02  0.36242883219E+02  0.34855843682E+03  0.36467840188E+03  0.81550263623E+02 0.  0.
         23    2    1    2    0    0 -0.44013361376E+02 -0.92288574896E+01 -0.93476211005E+02  0.13791824287E+03  0.90891649237E+02 0.  0.
        -11    1    3    3    0    0 -0.38997756623E+01 -0.20673528801E+02  0.91282555897E+02  0.93675546726E+02  0.00000000000E+00 0.  1.
         12    1    3    3    0    0  0.63341855349E+02  0.56916412020E+02  0.25727588092E+03  0.27100285515E+03  0.00000000000E+00 0. -1.
        -13    1    4    4    0    0 -0.57510781725E+01  0.39078665426E+02 -0.31537364716E+02  0.50545250666E+02  0.00000000000E+00 0.  1.
         13    1    4    4    0    0 -0.38262283204E+02 -0.48307522916E+02 -0.61938846289E+02  0.87372992199E+02  0.00000000000E+00 0. -1.
          3    1    1    2  501    0 -0.15428718310E+02 -0.27014025730E+02  0.13901746286E+03  0.14245581039E+03  0.00000000000E+00 0. -1.
<scales pt_clust_5="13000.00000" pt_clust_6="13000.00000" pt_clust_7="13000.00000" pt_clust_8="13000.00000" pt_clust_9="31.10955"></scales>
<clustering>
<clus scale="   31.110">  2  9  1 -1</clus>
<clus scale="   81.550">  5  6 -1 -1</clus>
<clus scale="   90.892">  7  8 -1 -1</clus>
<clus scale="  106.087">  1  5  2 -1</clus>
<clus scale="   31.110">  2  5  1 -1</clus>
</clustering>
</event>
<event>
 9    2  0.4883225E-005  0.1010869E+03  0.7546771E-02  0.1287535E+00
          2   -1    0    0  502    0 -0.00000000000E+00  0.00000000000E+00  0.49784793897E+02  0.49784793897E+02  0.00000000000E+00 0. -1.
         21   -1    0    0  501  502  0.00000000000E+00 -0.00000000000E+00 -0.90511184343E+03  0.90511184343E+03  0.00000000000E+00 0. -1.
         23    2    1    2    0    0 -0.16169263937E+01  0.22677483261E+02 -0.44050032344E+03  0.45223598692E+03  0.99799650414E+02 0.  0.
         24    2    1    2    0    0  0.28993173140E+02  0.30786403987E+02 -0.43061717217E+03  0.44055441632E+03  0.82877246673E+02 0.  0.
        -13    1    4    4    0    0  0.34908745576E+02 -0.20846881816E+02 -0.20981409773E+03  0.21371749719E+03  0.00000000000E+00 0.  1.
         14    1    4    4    0    0 -0.59155724357E+01  0.51633285802E+02 -0.22080307444E+03  0.22683691913E+03  0.00000000000E+00 0. -1.
        -13    1    3    3    0    0  0.12270741690E+02  0.60669107034E+02 -0.26353710017E+03  0.27070854220E+03  0.00000000000E+00 0. -1.
         13    1    3    3    0    0 -0.13887668083E+02 -0.37991623772E+02 -0.17696322326E+03  0.18152744473E+03  0.00000000000E+00 0.  1.
          1    1    1    2  501    0 -0.27376246746E+02 -0.53463887248E+02  0.15790446065E+02  0.62106234087E+02  0.00000000000E+00 0. -1.
<scales pt_clust_5="13000.00000" pt_clust_6="13000.00000" pt_clust_7="13000.00000" pt_clust_8="13000.00000" pt_clust_9="60.06538"></scales>
<clustering>
<clus scale="   60.065">  2  9  1 -1</clus>
<clus scale="   82.877">  5  6 -1 -1</clus>
<clus scale="   84.423">  2  5  1 -1</clus>
<clus scale="   99.800">  7  8 -1 -1</clus>
<clus scale="   60.065">  2  5  1 -1</clus>
</clustering>
</event>
<event>
 9    2  0.4883225E-005  0.1004729E+03  0.7546771E-02  0.1285913E+00
         21   -1    0    0  501  502  0.00000000000E+00  0.00000000000E+00  0.38931930954E+02  0.38931930954E+02  0.00000000000E+00 0. -1.
          2   -1    0    0  502    0 -0.00000000000E+00 -0.00000000000E+00 -0.66048443460E+03  0.66048443460E+03  0.00000000000E+00 0. -1.
         24    2    1    2    0    0 -0.43178494741E+02  0.52357162529E+02 -0.14157142140E+03  0.17577992368E+03  0.79059846535E+02 0.  0.
         23    2    1    2    0    0  0.96979949845E+00 -0.98247520896E+01 -0.90311450372E+02  0.12938651874E+03  0.92126255204E+02 0.  0.
        -13    1    3    3    0    0 -0.31488933144E+02 -0.14840283397E+02 -0.35883891739E+02  0.49994405769E+02  0.00000000000E+00 0.  1.
         14    1    3    3    0    0 -0.11689561597E+02  0.67197445926E+02 -0.10568752966E+03  0.12578551791E+03  0.00000000000E+00 0. -1.
        -13    1    4    4    0    0  0.20221182973E+02  0.27735788295E+02 -0.78316892222E+02  0.85508513030E+02  0.00000000000E+00 0.  1.
         13    1    4    4    0    0 -0.19251383474E+02 -0.37560540385E+02 -0.11994558149E+02  0.43878005708E+02  0.00000000000E+00 0. -1.
          1    1    1    2  501    0  0.42208695243E+02 -0.42532410440E+02 -0.38966963187E+03  0.39424992314E+03  0.00000000000E+00 0. -1.
<scales pt_clust_5="13000.00000" pt_clust_6="13000.00000" pt_clust_7="13000.00000" pt_clust_8="13000.00000" pt_clust_9="59.92148"></scales>
<clustering>
<clus scale="   59.921">  1  9  2 -1</clus>
<clus scale="   79.060">  5  6 -1 -1</clus>
<clus scale="   88.645">  2  5  1 -1</clus>
<clus scale="   92.126">  7  8 -1 -1</clus>
<clus scale="   59.921">  1  5  2 -1</clus>
</clustering>
</event>
<event>
 9    2  0.4883225E-005  0.1034893E+03  0.7546771E-02  0.1281990E+00
          2   -1    0    0  502    0 -0.00000000000E+00  0.00000000000E+00  0.15251529888E+03  0.15251529888E+03  0.00000000000E+00 0. -1.
         21   -1    0    0  501  502  0.00000000000E+00 -0.00000000000E+00 -0.10635462916E+03  0.10635462916E+03  0.00000000000E+00 0. -1.
         24    2    1    2    0    0  0.26405933200E+02 -0.29882106484E+02  0.65022666326E+02  0.11147277371E+03  0.81289719811E+02 0.  0.
         23    2    1    2    0    0  0.13897788307E+02  0.26530238402E+02 -0.23479607652E+00  0.10287078477E+03  0.98414130898E+02 0.  0.
        -11    1    3    3    0    0 -0.82667345266E+01  0.19208276518E+02 -0.25191561800E+01  0.21062833009E+02  0.00000000000E+00 0.  1.
         12    1    3    3    0    0  0.34672667726E+02 -0.49090383002E+02  0.67541822506E+02  0.90409940703E+02  0.00000000000E+00 0. -1.
        -13    1    4    4    0    0  0.12673326942E+02 -0.33412995562E+02 -0.18438870364E+02  0.40212354177E+02  0.00000000000E+00 0.  1.
         13    1    4    4    0    0  0.12244613653E+01  0.59943233964E+02  0.18204074287E+02  0.62658430593E+02  0.00000000000E+00 0. -1.
          1    1    1    2  501    0 -0.40303721506E+02  0.33518680813E+01 -0.18627200529E+02  0.44526369563E+02  0.00000000000E+00 0. -1.
<scales pt_clust_5="13000.00000" pt_clust_6="13000.00000" pt_clust_7="13000.00000" pt_clust_8="13000.00000" pt_clust_9="40.44286"></scales>
<clustering>
<clus scale="   40.443">  2  9  1 -1</clus>
<clus scale="   81.290">  5  6 -1 -1</clus>
<clus scale="   87.365">  1  5  2 -1</clus>
<clus scale="   98.414">  7  8 -1 -1</clus>
<clus scale="   40.443">  2  5  1 -1</clus>
</clustering>
</event>
<event>
 9    2  0.4883225E-005  0.1080058E+03  0.7546771E-02  0.1266289E+00
         -3   -1    0    0    0  501 -0.00000000000E+00  0.00000000000E+00  0.90853495284E+02  0.90853495284E+02  0.00000000000E+00 0.  1.
         21   -1    0    0  501  502  0.00000000000E+00 -0.00000000000E+00 -0.33604603899E+03  0.33604603899E+03  0.00000000000E+00 0.  1.
         24    2    1    2    0    0 -0.34668092738E+02 -0.69458911562E+02  0.10947751521E+02  0.11250150496E+03  0.80686543518E+02 0.  0.
         23    2    1    2    0    0  0.59319653813E+02 -0.38663266072E+01 -0.13555278195E+03  0.17113031357E+03  0.85890964132E+02 0.  0.
        -11    1    3    3    0    0 -0.55372451042E+02 -0.54683373122E+02 -0.11387022022E+02  0.78651407495E+02  0.00000000000E+00 0.  1.
         12    1    3    3    0    0  0.20704358304E+02 -0.14775538439E+02  0.22334773542E+02  0.33850097462E+02  0.00000000000E+00 0. -1.
        -13    1    4    4    0    0  0.47558811819E+02 -0.21160150816E+02 -0.23447607639E+02  0.57091005142E+02  0.00000000000E+00 0.  1.
         13    1    4    4    0    0  0.11760841994E+02  0.17293824208E+02 -0.11210517431E+03  0.11403930843E+03  0.00000000000E+00 0. -1.
         -4    1    1    2    0  502 -0.24651561075E+02  0.73325238169E+02 -0.12058751327E+03  0.14326771574E+03  0.00000000000E+00 0.  1.
<scales pt_clust_5="13000.00000" pt_clust_6="13000.00000" pt_clust_7="13000.00000" pt_clust_8="13000.00000" pt_clust_9="77.35819"></scales>
<clustering>
<clus scale="   77.358">  2  9  1 -1</clus>
<clus scale="   80.687">  5  6 -1 -1</clus>
<clus scale="   85.891">  7  8 -1 -1</clus>
<clus scale="  103.915">  1  5  2 -1</clus>
<clus scale="   77.358">  2  5  1 -1</clus>
</clustering>
</event>
<event>
 9    2  0.4883225E-005  0.9180366E+02  0.7546771E-02  0.1301923E+00
         21   -1    0    0  501  502  0.00000000000E+00  0.00000000000E+00  0.45084107466E+03  0.45084107466E+03  0.00000000000E+00 0. -1.
          4   -1    0    0  502    0 -0.00000000000E+00 -0.00000000000E+00 -0.31911845184E+02  0.31911845184E+02  0.00000000000E+00 0. -1.
         24    2    1    2    0    0  0.19575426455E+02 -0.72987102278E+01  0.70590804934E+02  0.11217188191E+03  0.84634513402E+02 0.  0.
         23    2    1    2    0    0 -0.51239606711E+00  0.14721581234E+02  0.18941114985E+03  0.21034253824E+03  0.90279633379E+02 0.  0.
        -11    1    3    3    0    0 -0.27394920172E+02 -0.92432990710E+01  0.55874544483E+02  0.62911723471E+02  0.00000000000E+00 0.  1.
         12    1    3    3    0    0  0.46970346627E+02  0.19445888432E+01  0.14716260451E+02  0.49260158442E+02  0.00000000000E+00 0. -1.
        -13    1    4    4    0    0 -0.30534501427E+02  0.39292794778E+02  0.13185138177E+03  0.14092929565E+03  0.00000000000E+00 0.  1.
         13    1    4    4    0    0  0.30022105360E+02 -0.24571213544E+02  0.57559768085E+02  0.69413242593E+02  0.00000000000E+00 0. -1.
          3    1    1    2  501    0 -0.19063030388E+02 -0.74228710062E+01  0.15892727468E+03  0.16023849968E+03  0.00000000000E+00 0. -1.
<scales pt_clust_5="13000.00000" pt_clust_6="13000.00000" pt_clust_7="13000.00000" pt_clust_8="13000.00000" pt_clust_9="20.45723"></scales>
<clustering>
<clus scale="   20.457">  1  9  2 -1</clus>
<clus scale="   84.635">  5  6 -1 -1</clus>
<clus scale="   86.258">  2  5  1 -1</clus>
<clus scale="   90.280">  7  8 -1 -1</clus>
<clus scale="   20.457">  1  5  2 -1</clus>
</clustering>
</event>
<event>
 9    2  0.4883225E-005  0.1675574E+03  0.7546771E-02  0.1203574E+00
         21   -1    0    0  501  502  0.00000000000E+00  0.00000000000E+00  0.68617976305E+02  0.68617976305E+02  0.00000000000E+00 0. -1.
          2   -1    0    0  502    0 -0.00000000000E+00 -0.00000000000E+00 -0.12999664028E+04  0.12999664028E+04  0.00000000000E+00 0. -1.
         24    2    1    2    0    0  0.57879474518E+02 -0.73741272267E+01 -0.31510894997E+03  0.33078657735E+03  0.81985962706E+02 0.  0.
         23    2    1    2    0    0 -0.23903550153E+02 -0.12761416066E+03 -0.87899201178E+03  0.89370208727E+03  0.96019322597E+02 0.  0.
        -13    1    3    3    0    0  0.66334483452E+02  0.17642237379E+02 -0.26931476692E+03  0.27792437086E+03  0.00000000000E+00 0.  1.
         14    1    3    3    0    0 -0.84550089343E+01 -0.25016364606E+02 -0.45794183050E+02  0.52862206493E+02  0.00000000000E+00 0. -1.
        -11    1    4    4    0    0 -0.32933348815E+02 -0.12440161929E+00 -0.14789881988E+03  0.15152122578E+03  0.00000000000E+00 0.  1.
         11    1    4    4    0    0  0.90297986613E+01 -0.12748975904E+03 -0.73109319190E+03  0.74218086150E+03  0.00000000000E+00 0. -1.
          1    1    1    2  501    0 -0.33975924365E+02  0.13498828788E+03 -0.37247464746E+02  0.14409571448E+03  0.00000000000E+00 0. -1.
<scales pt_clust_5="13000.00000" pt_clust_6="13000.00000" pt_clust_7="13000.00000" pt_clust_8="13000.00000" pt_clust_9="137.31629"></scales>
<clustering>
<clus scale="   81.986">  5  6 -1 -1</clus>
<clus scale="   96.019">  7  8 -1 -1</clus>
<clus scale="  100.629">  2  5  1 -1</clus>
<clus scale="  137.316">  1  9  2 -1</clus>
<clus scale="  137.316">  1  5  2 -1</clus>
</clustering>
</event>
<event>
 9    2  0.4883225E-005  0.9574885E+02  0.7546771E-02  0.1298052E+00
         21   -1    0    0  501  502  0.00000000000E+00  0.00000000000E+00  0.67729890163E+02  0.67729890163E+02  0.00000000000E+00 0. -1.
          2   -1    0    0  502    0 -0.00000000000E+00 -0.00000000000E+00 -0.74414791468E+03  0.74414791468E+03  0.00000000000E+00 0. -1.
         24    2    1    2    0    0  0.80295193147E+01 -0.24761657121E+02 -0.62256141068E+03  0.62796434293E+03  0.77967256474E+02 0.  0.
         23    2    1    2    0    0 -0.16667172029E+02  0.64064047246E+01 -0.97575306295E+02  0.13571752426E+03  0.92625424958E+02 0.  0.
        -13    1    3    3    0    0  0.37006314132E+02 -0.14342296068E+01 -0.17588802836E+03  0.17974460442E+03  0.00000000000E+00 0.  1.
         14    1    3    3    0    0 -0.28976794817E+02 -0.23327427514E+02 -0.44667338232E+03  0.44821973851E+03  0.00000000000E+00 0. -1.
        -11    1    4    4    0    0 -0.36224166154E+02  0.40591186243E+02 -0.49335272235E+02  0.73442519705E+02  0.00000000000E+00 0.  1.
         11    1    4    4    0    0  0.19556994124E+02 -0.34184781518E+02 -0.48240034059E+02  0.62275004558E+02  0.00000000000E+00 0. -1.
          1    1    1    2  501    0  0.86376527148E+01  0.18355252396E+02  0.43718692461E+02  0.48195937645E+02  0.00000000000E+00 0. -1.
<scales pt_clust_5="13000.00000" pt_clust_6="13000.00000" pt_clust_7="13000.00000" pt_clust_8="13000.00000" pt_clust_9="20.28606"></scales>
<clustering>
<clus scale="   20.286">  1  9  2 -1</clus>
<clus scale="   77.967">  5  6 -1 -1</clus>
<clus scale="   81.653">  2  5  1 -1</clus>
<clus scale="   92.625">  7  8 -1 -1</clus>
<clus scale="   20.286">  1  5  2 -1</clus>
</clustering>
</event>
<event>
 9    2  0.4883225E-005  0.8914780E+02  0.7546771E-02  0.1308082E+00
         21   -1    0    0  501  502  0.00000000000E+00  0.00000000000E+00  0.59201452455E+03  0.59201452455E+03  0.00000000000E+00 0. -1.
          2   -1    0    0  502    0 -0.00000000000E+00 -0.00000000000E+00 -0.39773293302E+03  0.39773293302E+03  0.00000000000E+00 0. -1.
         24    2    1    2    0    0  0.28912737151E+02 -0.25318954888E+01 -0.34885943829E+03  0.35868467969E+03  0.78162874143E+02 0.  0.
         23    2    1    2    0    0 -0.73096905040E+02 -0.50783589150E+02  0.48069158414E+02  0.13117185033E+03  0.83506166695E+02 0.  0.
        -11    1    3    3    0    0  0.48756056327E+02  0.16960868195E+02 -0.27408825731E+03  0.27890714740E+03  0.00000000000E+00 0.  1.
         12    1    3    3    0    0 -0.19843319176E+02 -0.19492763684E+02 -0.74771180980E+02  0.79777532282E+02  0.00000000000E+00 0. -1.
        -13    1    4    4    0    0 -0.56982554542E+02 -0.74213779307E+02  0.35374934941E+02  0.10003040829E+03  0.00000000000E+00 0. -1.
         13    1    4    4    0    0 -0.16114350498E+02  0.23430190158E+02  0.12694223474E+02  0.31141442041E+02  0.00000000000E+00 0.  1.
          1    1    1    2  501    0  0.44184167889E+02  0.53315484639E+02  0.49507187141E+03  0.49989092755E+03  0.00000000000E+00 0. -1.
<scales pt_clust_5="13000.00000" pt_clust_6="13000.00000" pt_clust_7="13000.00000" pt_clust_8="13000.00000" pt_clust_9="69.24436"></scales>
<clustering>
<clus scale="   69.244">  1  9  2 -1</clus>
<clus scale="   78.163">  5  6 -1 -1</clus>
<clus scale="   83.506">  7  8 -1 -1</clus>
<clus scale="   84.163">  2  5  1 -1</clus>
<clus scale="   69.244">  1  5  2 -1</clus>
</clustering>
</event>
<event>
 9    2  0.4883225E-005  0.9796663E+02  0.7546771E-02  0.1287535E+00
          2   -1    0    0  502    0 -0.00000000000E+00  0.00000000000E+00  0.54298460454E+03  0.54298460454E+03  0.00000000000E+00 0. -1.
         21   -1    0    0  501  502  0.00000000000E+00 -0.00000000000E+00 -0.12389952342E+03  0.12389952342E+03  0.00000000000E+00 0. -1.
         24    2    1    2    0    0  0.26263911693E+02 -0.21633128361E+02  0.35335637390E+03  0.36406433187E+03  0.80773296714E+02 0.  0.
         23    2    1    2    0    0 -0.70651557457E+02  0.78480957485E+02  0.14254043502E+03  0.19745386088E+03  0.86714175882E+02 0.  0.
        -11    1    3    3    0    0 -0.98784176692E+01 -0.43996726917E+02  0.17552047905E+03  0.18122012493E+03  0.00000000000E+00 0.  1.
         12    1    3    3    0    0  0.36142329363E+02  0.22363598555E+02  0.17783589485E+03  0.18284420694E+03  0.00000000000E+00 0. -1.
        -11    1    4    4    0    0 -0.77131103870E+02  0.34230078914E+02  0.59886035810E+02  0.10347580766E+03  0.00000000000E+00 0.  1.
         11    1    4    4    0    0  0.64795464129E+01  0.44250878571E+02  0.82654399214E+02  0.93978053212E+02  0.00000000000E+00 0. -1.
          1    1    1    2  501    0  0.44387645764E+02 -0.56847829124E+02 -0.76811727808E+02  0.10536593520E+03  0.00000000000E+00 0. -1.
<scales pt_clust_5="13000.00000" pt_clust_6="13000.00000" pt_clust_7="13000.00000" pt_clust_8="13000.00000" pt_clust_9="72.12447"></scales>
<clustering>
<clus scale="   72.124">  2  9  1 -1</clus>
<clus scale="   80.773">  5  6 -1 -1</clus>
<clus scale="   86.714">  7  8 -1 -1</clus>
<clus scale="   92.749">  1  5  2 -1</clus>
<clus scale="   72.124">  2  5  1 -1</clus>
</clustering>
</event>
<event>
 9    2  0.4883225E-005  0.1548134E+03  0.7546771E-02  0.1195924E+00
         21   -1    0    0  501  502  0.00000000000E+00  0.00000000000E+00  0.13510813206E+03  0.13510813206E+03  0.00000000000E+00 0. -1.
          2   -1    0    0  502    0 -0.00000000000E+00 -0.00000000000E+00 -0.74395331393E+03  0.74395331393E+03  0.00000000000E+00 0. -1.
         23    2    1    2    0    0 -0.87375004710E+02 -0.86119160093E+02 -0.55589798573E+03  0.57629734616E+03  0.89694812932E+02 0.  0.
         24    2    1    2    0    0  0.13084392595E+03  0.10530714079E+03  0.46338221069E+02  0.19269448645E+03  0.82305574040E+02 0.  0.
        -11    1    4    4    0    0  0.47647524907E+02  0.73992031957E+02  0.54355381454E+02  0.10343894294E+03  0.00000000000E+00 0.  1.
         12    1    4    4    0    0  0.83196401042E+02  0.31315108833E+02 -0.80171603848E+01  0.89255543516E+02  0.00000000000E+00 0. -1.
        -13    1    3    3    0    0 -0.61901762400E+02 -0.87589909011E+02 -0.52675150476E+03  0.53756019953E+03  0.00000000000E+00 0. -1.
         13    1    3    3    0    0 -0.25473242311E+02  0.14707489183E+01 -0.29146480972E+02  0.38737146632E+02  0.00000000000E+00 0.  1.
          1    1    1    2  501    0 -0.43468921240E+02 -0.19187980697E+02 -0.99285417210E+02  0.11006961337E+03  0.00000000000E+00 0. -1.
<scales pt_clust_5="13000.00000" pt_clust_6="13000.00000" pt_clust_7="13000.00000" pt_clust_8="13000.00000" pt_clust_9="47.51556"></scales>
<clustering>
<clus scale="   47.516">  1  9  2 -1</clus>
<clus scale="   82.306">  5  6 -1 -1</clus>
<clus scale="   89.695">  7  8 -1 -1</clus>
<clus scale="  150.653">  1  5  2 -1</clus>
<clus scale="   47.516">  1  5  2 -1</clus>
</clustering>
</event>
<event>
 9    2  0.4883225E-005  0.9843611E+02  0.7546771E-02  0.1287325E+00
          2   -1    0    0  502    0 -0.00000000000E+00  0.00000000000E+00  0.21801720343E+03  0.21801720343E+03  0.00000000000E+00 0. -1.
         21   -1    0    0  501  502  0.00000000000E+00 -0.00000000000E+00 -0.10074977180E+03  0.10074977180E+03  0.00000000000E+00 0. -1.
         23    2    1    2    0    0  0.37941138145E+02  0.64856682501E+01  0.14542881758E+03  0.17549972038E+03  0.90382614553E+02 0.  0.
         24    2    1    2    0    0 -0.44187743115E+02  0.22182352440E+02 -0.47899625058E+02  0.10790521918E+03  0.83093614948E+02 0.  0.
        -13    1    4    4    0    0  0.12299384339E+02  0.30321409069E+02  0.10210745391E+01  0.32736910304E+02  0.00000000000E+00 0.  1.
         14    1    4    4    0    0 -0.56487127455E+02 -0.81390566290E+01 -0.48920699597E+02  0.75168308880E+02  0.00000000000E+00 0. -1.
        -11    1    3    3    0    0  0.32689903179E+02  0.45362066305E+02  0.63142028757E+02  0.84340160214E+02  0.00000000000E+00 0. -1.
         11    1    3    3    0    0  0.52512349664E+01 -0.38876398055E+02  0.82286788824E+02  0.91159560164E+02  0.00000000000E+00 0.  1.
          1    1    1    2  501    0  0.62466049703E+01 -0.28668020690E+02  0.19738239107E+02  0.35362035674E+02  0.00000000000E+00 0. -1.
<scales pt_clust_5="13000.00000" pt_clust_6="13000.00000" pt_clust_7="13000.00000" pt_clust_8="13000.00000" pt_clust_9="29.34069"></scales>
<clustering>
<clus scale="   29.341">  2  9  1 -1</clus>
<clus scale="   83.094">  5  6 -1 -1</clus>
<clus scale="   90.383">  7  8 -1 -1</clus>
<clus scale="   91.789">  2  5  1 -1</clus>
<clus scale="   29.341">  2  5  1 -1</clus>
</clustering>
</event>
<event>
 9    2  0.4883225E-005  0.1050469E+03  0.7546771E-02  0.1273524E+00
         21   -1    0    0  501  502  0.00000000000E+00  0.00000000000E+00  0.30478153312E+03  0.30478153312E+03  0.00000000000E+00 0.  1.
         -1   -1    0    0    0  501 -0.00000000000E+00 -0.00000000000E+00 -0.69331330024E+02  0.69331330024E+02  0.00000000000E+00 0.  1.
         24    2    1    2    0    0 -0.55131653338E+02  0.18581959558E+02 -0.24418642338E+01  0.10149099731E+03  0.83124433314E+02 0.  0.
         23    2    1    2    0    0  0.34712286328E+02  0.97972989803E+01  0.16861061539E+03  0.19501869291E+03  0.91114329683E+02 0.  0.
        -13    1    3    3    0    0 -0.43285762519E+02  0.35978558994E+02 -0.32349558849E+02  0.64920011567E+02  0.00000000000E+00 0.  1.
         14    1    3    3    0    0 -0.11845890819E+02 -0.17396599436E+02  0.29907694615E+02  0.36570985746E+02  0.00000000000E+00 0. -1.
        -13    1    4    4    0    0  0.12716964477E+02  0.37204781855E+02  0.23701877347E+02  0.45909650055E+02  0.00000000000E+00 0. -1.
         13    1    4    4    0    0  0.21995321851E+02 -0.27407482875E+02  0.14490873804E+03  0.14910904285E+03  0.00000000000E+00 0.  1.
         -2    1    1    2    0  502  0.20419367010E+02 -0.28379258538E+02  0.69281451940E+02  0.77603172919E+02  0.00000000000E+00 0.  1.
<scales pt_clust_5="13000.00000" pt_clust_6="13000.00000" pt_clust_7="13000.00000" pt_clust_8="13000.00000" pt_clust_9="34.96188"></scales>
<clustering>
<clus scale="   34.962">  1  9  2 -1</clus>
<clus scale="   83.124">  5  6 -1 -1</clus>
<clus scale="   91.114">  7  8 -1 -1</clus>
<clus scale="   98.197">  2  5  1 -1</clus>
<clus scale="   34.962">  1  5  2 -1</clus>
</clustering>
</event>
<event>
 9    2  0.4883225E-005  0.1268537E+03  0.7546771E-02  0.1235355E+00
          2   -1    0    0  502    0 -0.00000000000E+00  0.00000000000E+00  0.38124878262E+03  0.38124878262E+03  0.00000000000E+00 0. -1.
         21   -1    0    0  501  502  0.00000000000E+00 -0.00000000000E+00 -0.40483460679E+03  0.40483460679E+03  0.00000000000E+00 0. -1.
         24    2    1    2    0    0  0.62449414679E+02 -0.56717583180E+02  0.23868987029E+03  0.26568548674E+03  0.80617058037E+02 0.  0.
         23    2    1    2    0    0 -0.11563867350E+03  0.12728532081E+03 -0.34695888400E+03  0.39800449828E+03  0.91941599748E+02 0.  0.
        -13    1    3    3    0    0  0.15602890200E+02  0.19212998763E+02  0.31185776469E+02  0.39813843799E+02  0.00000000000E+00 0.  1.
         14    1    3    3    0    0  0.46846524479E+02 -0.75930581942E+02  0.20750409382E+03  0.22587164294E+03  0.00000000000E+00 0. -1.
        -13    1    4    4    0    0 -0.36744860655E+02 -0.63373623117E+01 -0.44454987367E+02  0.58022347828E+02  0.00000000000E+00 0.  1.
         13    1    4    4    0    0 -0.78893812846E+02  0.13362268312E+03 -0.30250389663E+03  0.33998215045E+03  0.00000000000E+00 0. -1.
          1    1    1    2  501    0  0.53189258821E+02 -0.70567737633E+02  0.84683189542E+02  0.12239340440E+03  0.00000000000E+00 0. -1.
<scales pt_clust_5="13000.00000" pt_clust_6="13000.00000" pt_clust_7="13000.00000" pt_clust_8="13000.00000" pt_clust_9="88.36804"></scales>
<clustering>
<clus scale="   80.617">  5  6 -1 -1</clus>
<clus scale="   88.368">  2  9  1 -1</clus>
<clus scale="   91.942">  7  8 -1 -1</clus>
<clus scale="  118.902">  1  5  2 -1</clus>
<clus scale="   88.368">  2  5  1 -1</clus>
</clustering>
</event>
<event>
 9    2  0.4883225E-005  0.1610866E+03  0.7546771E-02  0.1214137E+00
         21   -1    0    0  501  502  0.00000000000E+00  0.00000000000E+00  0.16149034348E+03  0.16149034348E+03  0.00000000000E+00 0. -1.
          2   -1    0    0  502    0 -0.00000000000E+00 -0.00000000000E+00 -0.42907804480E+03  0.42907804480E+03  0.00000000000E+00 0. -1.
         24    2    1    2    0    0  0.33627542034E+02 -0.39535381430E+01 -0.26457594942E+03  0.27957457468E+03  0.83756001276E+02 0.  0.
         23    2    1    2    0    0 -0.44148177724E+02 -0.12234822064E+03 -0.56844053938E+02  0.17329582964E+03  0.99408497680E+02 0.  0.
        -13    1    3    3    0    0 -0.23206118160E+01 -0.39472500078E+02 -0.12684675472E+03  0.13286671022E+03  0.00000000000E+00 0.  1.
         14    1    3    3    0    0  0.35948153850E+02  0.35518961935E+02 -0.13772919469E+03  0.14670786446E+03  0.00000000000E+00 0. -1.
        -13    1    4    4    0    0 -0.33591293202E+02  0.87258405156E+00  0.66843941007E+01  0.34261020218E+02  0.00000000000E+00 0.  1.
         13    1    4    4    0    0 -0.10556884522E+02 -0.12322080469E+03 -0.63528448039E+02  0.13903480942E+03  0.00000000000E+00 0. -1.
          1    1    1    2  501    0  0.10520635690E+02  0.12630175878E+03  0.53832302036E+02  0.13769798397E+03  0.00000000000E+00 0. -1.
<scales pt_clust_5="13000.00000" pt_clust_6="13000.00000" pt_clust_7="13000.00000" pt_clust_8="13000.00000" pt_clust_9="126.75507"></scales>
<clustering>
<clus scale="   83.756">  5  6 -1 -1</clus>
<clus scale="   90.341">  2  5  1 -1</clus>
<clus scale="   99.408">  7  8 -1 -1</clus>
<clus scale="  126.755">  1  9  2 -1</clus>
<clus scale="  126.755">  1  5  2 -1</clus>
</clustering>
</event>
<event>
 9    2  0.4883225E-005  0.1011795E+03  0.7546771E-02  0.1282866E+00
         21   -1    0    0  501  502  0.00000000000E+00  0.00000000000E+00  0.59671420169E+02  0.59671420169E+02  0.00000000000E+00 0.  1.
          2   -1    0    0  502    0 -0.00000000000E+00 -0.00000000000E+00 -0.66664526207E+03  0.66664526207E+03  0.00000000000E+00 0. -1.
         24    2    1    2    0    0 -0.11279285951E+02  0.46773457090E+02 -0.50957826100E+03  0.51811549391E+03  0.80365927880E+02 0.  0.
         23    2    1    2    0    0  0.16483755031E+01 -0.32658592566E+01  0.10503664023E+02  0.91462537661E+02  0.90783731247E+02 0.  0.
        -13    1    3    3    0    0 -0.41889042426E+02  0.59945758367E+01 -0.25397737455E+03  0.25747841385E+03  0.00000000000E+00 0.  1.
         14    1    3    3    0    0  0.30609756475E+02  0.40778881253E+02 -0.25560088645E+03  0.26063708006E+03  0.00000000000E+00 0. -1.
        -11    1    4    4    0    0  0.26494232361E+02 -0.38369421299E+02  0.12930092746E+02  0.48387437808E+02  0.00000000000E+00 0. -1.
         11    1    4    4    0    0 -0.24845856858E+02  0.35103562042E+02 -0.24264287230E+01  0.43075099854E+02  0.00000000000E+00 0.  1.
          1    1    1    2  501    0  0.96309104481E+01 -0.43507597834E+02 -0.10789924493E+03  0.11673865067E+03  0.00000000000E+00 0. -1.
<scales pt_clust_5="13000.00000" pt_clust_6="13000.00000" pt_clust_7="13000.00000" pt_clust_8="13000.00000" pt_clust_9="44.56083"></scales>
<clustering>
<clus scale="   44.561">  1  9  2 -1</clus>
<clus scale="   80.366">  5  6 -1 -1</clus>
<clus scale="   90.784">  7  8 -1 -1</clus>
<clus scale="   91.947">  2  5  1 -1</clus>
<clus scale="   44.561">  1  5  2 -1</clus>
</clustering>
</event>
<event>
 9    2  0.4883225E-005  0.1033644E+03  0.7546771E-02  0.1287290E+00
         21   -1    0    0  501  502  0.00000000000E+00  0.00000000000E+00  0.28071050350E+03  0.28071050350E+03  0.00000000000E+00 0. -1.
          2   -1    0    0  502    0 -0.00000000000E+00 -0.00000000000E+00 -0.73558430233E+02  0.73558430233E+02  0.00000000000E+00 0. -1.
         23    2    1    2    0    0  0.10408412687E+02  0.44683384700E+02 -0.18596758242E+02  0.10704818483E+03  0.94913300101E+02 0.  0.
         24    2    1    2    0    0 -0.18820054137E+02 -0.18439098607E+02  0.15446912468E+03  0.17079879610E+03  0.67950890161E+02 0.  0.
        -13    1    4    4    0    0  0.56746322111E+01 -0.39804811441E+02  0.79594487839E+02  0.89173465555E+02  0.00000000000E+00 0.  1.
         14    1    4    4    0    0 -0.24494686348E+02  0.21365712834E+02  0.74874636839E+02  0.81625330541E+02  0.00000000000E+00 0. -1.
        -13    1    3    3    0    0  0.64510991832E+01  0.74752762170E+02 -0.11587525750E+02  0.75920108573E+02  0.00000000000E+00 0. -1.
         13    1    3    3    0    0  0.39573135041E+01 -0.30069377469E+02 -0.70092324921E+01  0.31128076261E+02  0.00000000000E+00 0.  1.
          1    1    1    2  501    0  0.84116414493E+01 -0.26244286093E+02  0.71279706829E+02  0.76421952802E+02  0.00000000000E+00 0. -1.
<scales pt_clust_5="13000.00000" pt_clust_6="13000.00000" pt_clust_7="13000.00000" pt_clust_8="13000.00000" pt_clust_9="27.55936"></scales>
<clustering>
<clus scale="   27.559">  1  9  2 -1</clus>
<clus scale="   67.951">  5  6 -1 -1</clus>
<clus scale="   79.328">  1  5  2 -1</clus>
<clus scale="   94.913">  7  8 -1 -1</clus>
<clus scale="   27.559">  1  5  2 -1</clus>
</clustering>
</event>
<event>
 9    2  0.4883225E-005  0.1376463E+03  0.7546771E-02  0.1228090E+00
          2   -1    0    0  502    0 -0.00000000000E+00  0.00000000000E+00  0.11042359501E+04  0.11042359501E+04  0.00000000000E+00 0. -1.
         21   -1    0    0  501  502  0.00000000000E+00 -0.00000000000E+00 -0.47840348338E+02  0.47840348338E+02  0.00000000000E+00 0. -1.
         23    2    1    2    0    0 -0.47846821645E+02 -0.28550899860E+02  0.17184328533E+03  0.20300889631E+03  0.92617628141E+02 0.  0.
         24    2    1    2    0    0  0.62970399382E+02 -0.84243478242E+02  0.79002431825E+03  0.80112539738E+03  0.81248040451E+02 0.  0.
        -13    1    4    4    0    0  0.15143196572E+02  0.15543322683E+02  0.10473349448E+03  0.10695801115E+03  0.00000000000E+00 0.  1.
         14    1    4    4    0    0  0.47827202810E+02 -0.99786800925E+02  0.68529082377E+03  0.69416738623E+03  0.00000000000E+00 0. -1.
        -13    1    3    3    0    0 -0.28705891783E+02  0.32474494720E+02  0.81646715833E+02  0.92438126532E+02  0.00000000000E+00 0.  1.
         13    1    3    3    0    0 -0.19140929862E+02 -0.61025394580E+02  0.90196569498E+02  0.11057076978E+03  0.00000000000E+00 0. -1.
          1    1    1    2  501    0 -0.15123577737E+02  0.11279437810E+03  0.94527998232E+02  0.14794200480E+03  0.00000000000E+00 0. -1.
<scales pt_clust_5="13000.00000" pt_clust_6="13000.00000" pt_clust_7="13000.00000" pt_clust_8="13000.00000" pt_clust_9="111.10921"></scales>
<clustering>
<clus scale="   81.248">  5  6 -1 -1</clus>
<clus scale="   92.618">  7  8 -1 -1</clus>
<clus scale="  108.086">  1  7  2 -1</clus>
<clus scale="  111.109">  2  9  1 -1</clus>
<clus scale="  111.109">  2  5  1 -1</clus>
</clustering>
</event>
<event>
 9    2  0.4883225E-005  0.1180310E+03  0.7546771E-02  0.1259743E+00
          2   -1    0    0  502    0 -0.00000000000E+00  0.00000000000E+00  0.98238604994E+03  0.98238604994E+03  0.00000000000E+00 0. -1.
         21   -1    0    0  501  502  0.00000000000E+00 -0.00000000000E+00 -0.33279678283E+02  0.33279678283E+02  0.00000000000E+00 0.  1.
         24    2    1    2    0    0 -0.72707121949E+02 -0.23225890747E+01  0.30727578882E+03  0.32700839251E+03  0.84996225635E+02 0.  0.
         23    2    1    2    0    0 -0.38484790173E+02 -0.14876209955E+01  0.20278887544E+03  0.23573815986E+03  0.11386772994E+03 0.  0.
        -13    1    3    3    0    0 -0.82062020169E+02  0.17611865628E+02  0.27788615401E+03  0.29028445972E+03  0.00000000000E+00 0.  1.
         14    1    3    3    0    0  0.93548982196E+01 -0.19934454702E+02  0.29389634816E+02  0.36723932790E+02  0.00000000000E+00 0. -1.
        -11    1    4    4    0    0  0.25431036867E+02  0.37214260945E+02  0.85910658314E+02  0.97016906082E+02  0.00000000000E+00 0. -1.
         11    1    4    4    0    0 -0.63915827039E+02 -0.38701881940E+02  0.11687821713E+03  0.13872125378E+03  0.00000000000E+00 0.  1.
          1    1    1    2  501    0  0.11119191212E+03  0.38102100702E+01  0.43904170740E+03  0.45291917585E+03  0.00000000000E+00 0. -1.
<scales pt_clust_5="13000.00000" pt_clust_6="13000.00000" pt_clust_7="13000.00000" pt_clust_8="13000.00000" pt_clust_9="111.25723"></scales>
<clustering>
<clus scale="   84.996">  5  6 -1 -1</clus>
<clus scale="  111.257">  2  9  1 -1</clus>
<clus scale="   90.498">  1  5  2 -1</clus>
<clus scale="  113.868">  7  8 -1 -1</clus>
<clus scale="  111.257">  2  5  1 -1</clus>
</clustering>
</event>
<event>
 9    2  0.4883225E-005  0.1541415E+03  0.7546771E-02  0.1197489E+00
          4   -1    0    0  502    0 -0.00000000000E+00  0.00000000000E+00  0.78178217693E+03  0.78178217693E+03  0.00000000000E+00 0. -1.
         21   -1    0    0  501  502  0.00000000000E+00 -0.00000000000E+00 -0.62703884146E+02  0.62703884146E+02  0.00000000000E+00 0. -1.
         23    2    1    2    0    0  0.10006312268E+03 -0.77345756831E+02  0.20958709327E+03  0.26154609096E+03  0.92111961268E+02 0.  0.
         24    2    1    2    0    0 -0.58546846213E+02  0.11207122874E+03  0.12650219561E+03  0.19614540356E+03  0.80514100192E+02 0.  0.
        -11    1    4    4    0    0 -0.28108854099E+02 -0.52379058971E+01  0.21196460554E+02  0.35592601436E+02  0.00000000000E+00 0.  1.
         12    1    4    4    0    0 -0.30437992114E+02  0.11730913464E+03  0.10530573506E+03  0.16055280212E+03  0.00000000000E+00 0. -1.
        -13    1    3    3    0    0  0.36398717016E+02 -0.82674397702E+02  0.14398600350E+03  0.16997615079E+03  0.00000000000E+00 0.  1.
         13    1    3    3    0    0  0.63664405661E+02  0.53286408704E+01  0.65601089778E+02  0.91569940165E+02  0.00000000000E+00 0. -1.
          3    1    1    2  501    0 -0.41516276464E+02 -0.34725471912E+02  0.38298900390E+03  0.38679456656E+03  0.00000000000E+00 0. -1.
<scales pt_clust_5="13000.00000" pt_clust_6="13000.00000" pt_clust_7="13000.00000" pt_clust_8="13000.00000" pt_clust_9="54.12451"></scales>
<clustering>
<clus scale="   54.125">  2  9  1 -1</clus>
<clus scale="   80.514">  5  6 -1 -1</clus>
<clus scale="   92.112">  7  8 -1 -1</clus>
<clus scale="  147.504">  2  5  1 -1</clus>
<clus scale="   54.125">  2  5  1 -1</clus>
</clustering>
</event>
<event>
 9    2  0.4883225E-005  0.1012004E+03  0.7546771E-02  0.1282097E+00
         21   -1    0    0  501  502  0.00000000000E+00  0.00000000000E+00  0.66082186818E+02  0.66082186818E+02  0.00000000000E+00 0. -1.
          2   -1    0    0  502    0 -0.00000000000E+00 -0.00000000000E+00 -0.45853534163E+03  0.45853534163E+03  0.00000000000E+00 0. -1.
         23    2    1    2    0    0 -0.56828153777E+02 -0.11063751000E+02 -0.31241331262E+03  0.33113831583E+03  0.93266610655E+02 0.  0.
         24    2    1    2    0    0  0.65778318192E+01 -0.25069377362E+02 -0.95006586223E+02  0.12980267652E+03  0.84562059186E+02 0.  0.
        -13    1    4    4    0    0  0.24601449103E+02 -0.36570862053E+02 -0.98710271335E+02  0.10810354720E+03  0.00000000000E+00 0.  1.
         14    1    4    4    0    0 -0.18023617284E+02  0.11501484692E+02  0.37036851121E+01  0.21699129326E+02  0.00000000000E+00 0. -1.
        -13    1    3    3    0    0 -0.53626870549E+02  0.29918771078E+02 -0.24137146406E+03  0.24906055041E+03  0.00000000000E+00 0. -1.
         13    1    3    3    0    0 -0.32012832280E+01 -0.40982522078E+02 -0.71041848554E+02  0.82077765419E+02  0.00000000000E+00 0.  1.
          1    1    1    2  501    0  0.50250321958E+02  0.36133128362E+02  0.14966744029E+02  0.63676536094E+02  0.00000000000E+00 0. -1.
<scales pt_clust_5="13000.00000" pt_clust_6="13000.00000" pt_clust_7="13000.00000" pt_clust_8="13000.00000" pt_clust_9="61.89263"></scales>
<clustering>
<clus scale="   61.893">  1  9  2 -1</clus>
<clus scale="   84.562">  5  6 -1 -1</clus>
<clus scale="   93.239">  1  5  2 -1</clus>
<clus scale="   93.267">  7  8 -1 -1</clus>
<clus scale="   61.893">  1  5  2 -1</clus>
</clustering>
</event>
<event>
 9    2  0.4883225E-005  0.2428312E+03  0.7546771E-02  0.1117921E+00
          2   -1    0    0  502    0 -0.00000000000E+00  0.00000000000E+00  0.72674699806E+03  0.72674699806E+03  0.00000000000E+00 0. -1.
         21   -1    0    0  501  502  0.00000000000E+00 -0.00000000000E+00 -0.62136319668E+02  0.62136319668E+02  0.00000000000E+00 0. -1.
         24    2    1    2    0    0  0.60543752737E+02  0.59693262017E+02  0.29586813510E+03  0.31850646378E+03  0.81728713309E+02 0.  0.
         23    2    1    2    0    0  0.36106723950E+02  0.72019659238E+02  0.20980313411E+03  0.24244847909E+03  0.90958139290E+02 0.  0.
        -13    1    3    3    0    0 -0.17072194064E+02  0.22127064913E+02  0.11182420698E+03  0.11526369800E+03  0.00000000000E+00 0.  1.
         14    1    3    3    0    0  0.77615946800E+02  0.37566197103E+02  0.18404392812E+03  0.20324276578E+03  0.00000000000E+00 0. -1.
        -13    1    4    4    0    0  0.66317896499E+01  0.87516859416E+02  0.14255880646E+03  0.16741025839E+03  0.00000000000E+00 0. -1.
         13    1    4    4    0    0  0.29474934300E+02 -0.15497200178E+02  0.67244327647E+02  0.75038220702E+02  0.00000000000E+00 0.  1.
          1    1    1    2  501    0 -0.96650476687E+02 -0.13171292125E+03  0.15893940918E+03  0.22792837485E+03  0.00000000000E+00 0. -1.
<scales pt_clust_5="13000.00000" pt_clust_6="13000.00000" pt_clust_7="13000.00000" pt_clust_8="13000.00000" pt_clust_9="163.36955"></scales>
<clustering>
<clus scale="   81.729">  5  6 -1 -1</clus>
<clus scale="   90.958">  7  8 -1 -1</clus>
<clus scale="  101.268">  5  7 -1 -1</clus>
<clus scale="  163.370">  2  9  1 -1</clus>
<clus scale="  163.370">  2  5  1 -1</clus>
</clustering>
</event>
<event>
 9    2  0.4883225E-005  0.9852825E+02  0.7546771E-02  0.1297117E+00
          2   -1    0    0  502    0 -0.00000000000E+00  0.00000000000E+00  0.25515345427E+02  0.25515345427E+02  0.00000000000E+00 0. -1.
         21   -1    0    0  501  502  0.00000000000E+00 -0.00000000000E+00 -0.57066877279E+03  0.57066877279E+03  0.00000000000E+00 0. -1.
         24    2    1    2    0    0 -0.29302344811E+02  0.25406792227E+02 -0.12514890681E+03  0.14889413696E+03  0.70732472337E+02 0.  0.
         23    2    1    2    0    0 -0.15650267091E+02 -0.16319542208E+02 -0.35306012916E+03  0.36614278803E+03  0.94328299596E+02 0.  0.
        -11    1    3    3    0    0 -0.39242598280E+02  0.51235032705E+00 -0.28250404928E+02  0.48356275717E+02  0.00000000000E+00 0.  1.
         12    1    3    3    0    0  0.99402534694E+01  0.24894441900E+02 -0.96898501879E+02  0.10053786124E+03  0.00000000000E+00 0. -1.
        -11    1    4    4    0    0  0.28742690170E+02 -0.35592243523E+02 -0.21593225883E+03  0.22072537335E+03  0.00000000000E+00 0.  1.
         11    1    4    4    0    0 -0.44392957262E+02  0.19272701315E+02 -0.13712787034E+03  0.14541741468E+03  0.00000000000E+00 0. -1.
          1    1    1    2  501    0  0.44952611902E+02 -0.90872500186E+01 -0.66944391390E+02  0.81147193225E+02  0.00000000000E+00 0. -1.
<scales pt_clust_5="13000.00000" pt_clust_6="13000.00000" pt_clust_7="13000.00000" pt_clust_8="13000.00000" pt_clust_9="45.86194"></scales>
<clustering>
<clus scale="   45.862">  2  9  1 -1</clus>
<clus scale="   70.732">  5  6 -1 -1</clus>
<clus scale="   76.243">  1  5  2 -1</clus>
<clus scale="   94.328">  7  8 -1 -1</clus>
<clus scale="   45.862">  2  5  1 -1</clus>
</clustering>
</event>
<event>
 9    2  0.4883225E-005  0.1005235E+03  0.7546771E-02  0.1283186E+00
          4   -1    0    0  502    0 -0.00000000000E+00  0.00000000000E+00  0.67106844893E+03  0.67106844893E+03  0.00000000000E+00 0. -1.
         21   -1    0    0  501  502  0.00000000000E+00 -0.00000000000E+00 -0.29799482997E+02  0.29799482997E+02  0.00000000000E+00 0.  1.
         24    2    1    2    0    0  0.20307904595E+02 -0.31562838692E+02  0.43856556598E+03  0.44781528446E+03  0.82402363756E+02 0.  0.
         23    2    1    2    0    0 -0.15302153593E+02  0.65978025464E+02  0.17593421297E+03  0.20916583857E+03  0.90610402187E+02 0.  0.
        -13    1    3    3    0    0 -0.30713156864E+02 -0.45800387298E+01  0.11378569273E+03  0.11794684663E+03  0.00000000000E+00 0.  1.
         14    1    3    3    0    0  0.51021061459E+02 -0.26982799962E+02  0.32477987325E+03  0.32986843783E+03  0.00000000000E+00 0. -1.
        -13    1    4    4    0    0  0.49121578446E+01  0.29506358121E+02  0.16448601115E+01  0.29957637240E+02  0.00000000000E+00 0.  1.
         13    1    4    4    0    0 -0.20214311438E+02  0.36471667344E+02  0.17428935286E+03  0.17920820133E+03  0.00000000000E+00 0. -1.
          3    1    1    2  501    0 -0.50057510021E+01 -0.34415186773E+02  0.26769186988E+02  0.43886808903E+02  0.00000000000E+00 0. -1.
<scales pt_clust_5="13000.00000" pt_clust_6="13000.00000" pt_clust_7="13000.00000" pt_clust_8="13000.00000" pt_clust_9="34.77733"></scales>
<clustering>
<clus scale="   34.777">  2  9  1 -1</clus>
<clus scale="   82.402">  5  6 -1 -1</clus>
<clus scale="   90.610">  7  8 -1 -1</clus>
<clus scale="   93.193">  1  5  2 -1</clus>
<clus scale="   34.777">  2  5  1 -1</clus>
</clustering>
</event>
<event>
 9    2  0.4883225E-005  0.1208175E+03  0.7546771E-02  0.1257410E+00
          2   -1    0    0  502    0 -0.00000000000E+00  0.00000000000E+00  0.10572157613E+04  0.10572157613E+04  0.00000000000E+00 0. -1.
         21   -1    0    0  501  502  0.00000000000E+00 -0.00000000000E+00 -0.20676249087E+02  0.20676249087E+02  0.00000000000E+00 0. -1.
         24    2    1    2    0    0  0.32377991964E+02  0.17500636886E+02  0.23369622910E+03  0.24983886022E+03  0.80317631471E+02 0.  0.
         23    2    1    2    0    0  0.25319029320E+02  0.52513449014E+02  0.50908190123E+03  0.52060125478E+03  0.91992221137E+02 0.  0.
        -13    1    3    3    0    0  0.19407115663E+02  0.41551629684E+02  0.68735228793E+02  0.82629932500E+02  0.00000000000E+00 0.  1.
         14    1    3    3    0    0  0.12970876301E+02 -0.24050992798E+02  0.16496100031E+03  0.16720892772E+03  0.00000000000E+00 0. -1.
        -13    1    4    4    0    0  0.26492670863E+02  0.76001146953E+02  0.44752672169E+03  0.45470672149E+03  0.00000000000E+00 0. -1.
         13    1    4    4    0    0 -0.11736415434E+01 -0.23487697939E+02  0.61555179541E+02  0.65894533288E+02  0.00000000000E+00 0.  1.
          1    1    1    2  501    0 -0.57697021284E+02 -0.70014085900E+02  0.29376138188E+03  0.30745189538E+03  0.00000000000E+00 0. -1.
<scales pt_clust_5="13000.00000" pt_clust_6="13000.00000" pt_clust_7="13000.00000" pt_clust_8="13000.00000" pt_clust_9="78.32177"></scales>
<clustering>
<clus scale="   80.318">  5  6 -1 -1</clus>
<clus scale="   88.349">  1  5  2 -1</clus>
<clus scale="   78.322">  2  9  1 -1</clus>
<clus scale="   91.992">  7  8 -1 -1</clus>
<clus scale="   78.322">  2  5  1 -1</clus>
</clustering>
</event>
<event>
 9    2  0.4883225E-005  0.1427624E+03  0.7546771E-02  0.1232658E+00
         21   -1    0    0  501  502  0.00000000000E+00  0.00000000000E+00  0.25641508786E+02  0.25641508786E+02  0.00000000000E+00 0. -1.
          2   -1    0    0  502    0 -0.00000000000E+00 -0.00000000000E+00 -0.12945348918E+04  0.12945348918E+04  0.00000000000E+00 0. -1.
         24    2    1    2    0    0  0.11551280388E+02  0.33351228889E+02 -0.19253232580E+03  0.21175777517E+03  0.80789370086E+02 0.  0.
         23    2    1    2    0    0  0.10214048116E+03 -0.11032737399E+02 -0.74381506189E+03  0.75626699513E+03  0.90136132886E+02 0.  0.
        -13    1    3    3    0    0 -0.25649047464E+02  0.27684611750E+02 -0.41438691951E+02  0.56048876476E+02  0.00000000000E+00 0.  1.
         14    1    3    3    0    0  0.37200327852E+02  0.56666171395E+01 -0.15109363385E+03  0.15570889869E+03  0.00000000000E+00 0. -1.
        -13    1    4    4    0    0  0.11095474260E+03 -0.30693583786E+02 -0.62479974392E+03  0.63531706335E+03  0.00000000000E+00 0.  1.
         13    1    4    4    0    0 -0.88142614454E+01  0.19660846388E+02 -0.11901531797E+03  0.12094993178E+03  0.00000000000E+00 0. -1.
          1    1    1    2  501    0 -0.11369176154E+03 -0.22318491490E+02 -0.33254599535E+03  0.35215163030E+03  0.00000000000E+00 0. -1.
<scales pt_clust_5="13000.00000" pt_clust_6="13000.00000" pt_clust_7="13000.00000" pt_clust_8="13000.00000" pt_clust_9="110.70944"></scales>
<clustering>
<clus scale="   80.789">  5  6 -1 -1</clus>
<clus scale="   88.163">  2  5  1 -1</clus>
<clus scale="   90.136">  7  8 -1 -1</clus>
<clus scale="  110.709">  1  9  2 -1</clus>
<clus scale="  110.709">  1  5  2 -1</clus>
</clustering>
</event>
<event>
 9    2  0.4883225E-005  0.1504171E+03  0.7546771E-02  0.1218182E+00
         -1   -1    0    0    0  501 -0.00000000000E+00  0.00000000000E+00  0.33540278484E+03  0.33540278484E+03  0.00000000000E+00 0.  1.
         21   -1    0    0  501  502  0.00000000000E+00 -0.00000000000E+00 -0.11399810022E+03  0.11399810022E+03  0.00000000000E+00 0. -1.
         24    2    1    2    0    0 -0.56836829054E+02 -0.20058935928E+02  0.69717243069E+02  0.12344259909E+03  0.82126702359E+02 0.  0.
         23    2    1    2    0    0  0.91114974012E+01  0.12531200257E+03  0.32196179628E+02  0.15972328065E+03  0.93213813500E+02 0.  0.
        -13    1    3    3    0    0 -0.52098602669E+01  0.29199274777E+02  0.13434976120E+02  0.32561309477E+02  0.00000000000E+00 0.  1.
         14    1    3    3    0    0 -0.51626968787E+02 -0.49258210705E+02  0.56282266949E+02  0.90881289609E+02  0.00000000000E+00 0. -1.
        -13    1    4    4    0    0  0.22852951117E+02  0.19629303105E+02  0.43110474748E+02  0.52593535231E+02  0.00000000000E+00 0.  1.
         13    1    4    4    0    0 -0.13741453716E+02  0.10568269946E+03 -0.10914295119E+02  0.10712974542E+03  0.00000000000E+00 0. -1.
         -2    1    1    2    0  502  0.47725331653E+02 -0.10525306664E+03  0.11949126192E+03  0.16623500532E+03  0.00000000000E+00 0.  1.
<scales pt_clust_5="13000.00000" pt_clust_6="13000.00000" pt_clust_7="13000.00000" pt_clust_8="13000.00000" pt_clust_9="118.05296"></scales>
<clustering>
<clus scale="   82.127">  5  6 -1 -1</clus>
<clus scale="   93.214">  7  8 -1 -1</clus>
<clus scale="  101.870">  1  5  2 -1</clus>
<clus scale="  118.053">  2  9  1 -1</clus>
<clus scale="  118.053">  2  5  1 -1</clus>
</clustering>
</event>
<event>
 9    2  0.4883225E-005  0.1046016E+03  0.7546771E-02  0.1275223E+00
          2   -1    0    0  502    0 -0.00000000000E+00  0.00000000000E+00  0.47860053039E+03  0.47860053039E+03  0.00000000000E+00 0. -1.
         21   -1    0    0  501  502  0.00000000000E+00 -0.00000000000E+00 -0.63955336635E+02  0.63955336635E+02  0.00000000000E+00 0.  1.
         23    2    1    2    0    0 -0.13082772940E+02  0.48281471845E+02  0.24681537765E+03  0.26758261279E+03  0.90445367757E+02 0.  0.
         24    2    1    2    0    0  0.97349397887E+02 -0.15834038757E+02  0.93955540432E+02  0.15830659833E+03  0.80658002986E+02 0.  0.
        -11    1    4    4    0    0  0.88389835505E+02 -0.12310815046E+02  0.10873472130E+03  0.14066825798E+03  0.00000000000E+00 0.  1.
         12    1    4    4    0    0  0.89595623812E+01 -0.35232237104E+01 -0.14779180864E+02  0.17638340353E+02  0.00000000000E+00 0. -1.
        -11    1    3    3    0    0  0.19257424065E+02  0.62886473448E+02  0.18450224861E+03  0.19587403265E+03  0.00000000000E+00 0. -1.
         11    1    3    3    0    0 -0.32340197005E+02 -0.14605001603E+02  0.62313129039E+02  0.71708580133E+02  0.00000000000E+00 0.  1.
          1    1    1    2  501    0 -0.84266624946E+02 -0.32447433088E+02  0.73874275666E+02  0.11666665590E+03  0.00000000000E+00 0. -1.
<scales pt_clust_5="13000.00000" pt_clust_6="13000.00000" pt_clust_7="13000.00000" pt_clust_8="13000.00000" pt_clust_9="90.29784"></scales>
<clustering>
<clus scale="   80.658">  5  6 -1 -1</clus>
<clus scale="   90.298">  2  9  1 -1</clus>
<clus scale="   90.445">  7  8 -1 -1</clus>
<clus scale="   96.264">  2  5  1 -1</clus>
<clus scale="   90.298">  2  5  1 -1</clus>
</clustering>
</event>
<event>
 9    2  0.4883225E-005  0.1102839E+03  0.7546771E-02  0.1263123E+00
         21   -1    0    0  501  502  0.00000000000E+00  0.00000000000E+00  0.79774943016E+02  0.79774943016E+02  0.00000000000E+00 0. -1.
          2   -1    0    0  502    0 -0.00000000000E+00 -0.00000000000E+00 -0.33083679448E+03  0.33083679448E+03  0.00000000000E+00 0. -1.
         24    2    1    2    0    0 -0.65703798594E+02 -0.14073993890E+02 -0.23477298560E+03  0.25690649163E+03  0.79796768223E+02 0.  0.
         23    2    1    2    0    0  0.51641895196E+02  0.49325435629E+02 -0.26887801869E+01  0.11338944745E+03  0.88034387112E+02 0.  0.
        -11    1    3    3    0    0  0.79601021621E+01 -0.22815652085E+02 -0.26727441290E+02  0.36031560116E+02  0.00000000000E+00 0.  1.
         12    1    3    3    0    0 -0.73663900757E+02  0.87416581943E+01 -0.20804554431E+03  0.22087493151E+03  0.00000000000E+00 0. -1.
        -13    1    4    4    0    0  0.43450400485E+02  0.20985685880E+02  0.39190759838E+02  0.62163107796E+02  0.00000000000E+00 0. -1.
         13    1    4    4    0    0  0.81914947113E+01  0.28339749749E+02 -0.41879540025E+02  0.51226339652E+02  0.00000000000E+00 0.  1.
          1    1    1    2  501    0  0.14061903398E+02 -0.35251441739E+02 -0.13600085674E+02  0.40315798419E+02  0.00000000000E+00 0. -1.
<scales pt_clust_5="13000.00000" pt_clust_6="13000.00000" pt_clust_7="13000.00000" pt_clust_8="13000.00000" pt_clust_9="37.95262"></scales>
<clustering>
<clus scale="   37.953">  1  9  2 -1</clus>
<clus scale="   79.797">  5  6 -1 -1</clus>
<clus scale="   88.034">  7  8 -1 -1</clus>
<clus scale="  103.827">  2  5  1 -1</clus>
<clus scale="   37.953">  1  5  2 -1</clus>
</clustering>
</event>
<event>
 9    2  0.4883225E-005  0.1893623E+03  0.7546771E-02  0.1164601E+00
         21   -1    0    0  501  502  0.00000000000E+00  0.00000000000E+00  0.17646987385E+03  0.17646987385E+03  0.00000000000E+00 0.  1.
          2   -1    0    0  502    0 -0.00000000000E+00 -0.00000000000E+00 -0.23171693092E+03  0.23171693092E+03  0.00000000000E+00 0. -1.
         24    2    1    2    0    0  0.10144399584E+03  0.10357748240E+03 -0.79046495829E+02  0.17942857085E+03  0.70193193280E+02 0.  0.
         23    2    1    2    0    0 -0.10058020023E+03 -0.12992349622E+03  0.14224105129E+02  0.20071281360E+03  0.11439762597E+03 0.  0.
        -13    1    3    3    0    0  0.50025448586E+02  0.40958627925E+02  0.21918153266E+01  0.64691257231E+02  0.00000000000E+00 0.  1.
         14    1    3    3    0    0  0.51418547254E+02  0.62618854476E+02 -0.81238311156E+02  0.11473731362E+03  0.00000000000E+00 0. -1.
        -13    1    4    4    0    0  0.13338801705E+01 -0.86184775623E+02 -0.11236525489E+02  0.86924417114E+02  0.00000000000E+00 0. -1.
         13    1    4    4    0    0 -0.10191408040E+03 -0.43738720598E+02  0.25460630618E+02  0.11378839648E+03  0.00000000000E+00 0.  1.
          1    1    1    2  501    0 -0.86379561362E+00  0.26346013820E+02  0.95753336211E+01  0.28045420322E+02  0.00000000000E+00 0. -1.
<scales pt_clust_5="13000.00000" pt_clust_6="13000.00000" pt_clust_7="13000.00000" pt_clust_8="13000.00000" pt_clust_9="26.36017"></scales>
<clustering>
<clus scale="   26.360">  1  9  2 -1</clus>
<clus scale="   70.193">  5  6 -1 -1</clus>
<clus scale="  114.398">  7  8 -1 -1</clus>
<clus scale="  166.428">  2  5  1 -1</clus>
<clus scale="   26.360">  1  5  2 -1</clus>
</clustering>
</event>
<event>
 9    2  0.4883225E-005  0.1017667E+03  0.7546771E-02  0.1279774E+00
          2   -1    0    0  502    0 -0.00000000000E+00  0.00000000000E+00  0.35363303613E+03  0.35363303613E+03  0.00000000000E+00 0. -1.
         21   -1    0    0  501  502  0.00000000000E+00 -0.00000000000E+00 -0.86579174866E+02  0.86579174866E+02  0.00000000000E+00 0.  1.
         23    2    1    2    0    0  0.17943666473E+01 -0.49747193809E+02  0.27233128751E+03  0.29047673921E+03  0.87945453670E+02 0.  0.
         24    2    1    2    0    0 -0.30424380687E+02  0.60325453718E+02 -0.30870469810E+02  0.10990356039E+03  0.81000020823E+02 0.  0.
        -13    1    4    4    0    0 -0.30535019576E+02  0.78535817762E+02 -0.34979542174E+02  0.91235028705E+02  0.00000000000E+00 0.  1.
         14    1    4    4    0    0  0.11063888933E+00 -0.18210364043E+02  0.41090723646E+01  0.18668531684E+02  0.00000000000E+00 0. -1.
        -13    1    3    3    0    0  0.41033817196E+02 -0.86432178886E+01  0.14699956045E+03  0.15286382875E+03  0.00000000000E+00 0.  1.
         13    1    3    3    0    0 -0.39239450549E+02 -0.41103975920E+02  0.12533172706E+03  0.13761291045E+03  0.00000000000E+00 0. -1.
          1    1    1    2  501    0  0.28630014040E+02 -0.10578259910E+02  0.25593043560E+02  0.39831911394E+02  0.00000000000E+00 0. -1.
<scales pt_clust_5="13000.00000" pt_clust_6="13000.00000" pt_clust_7="13000.00000" pt_clust_8="13000.00000" pt_clust_9="30.52177"></scales>
<clustering>
<clus scale="   30.522">  2  9  1 -1</clus>
<clus scale="   81.000">  5  6 -1 -1</clus>
<clus scale="   87.945">  7  8 -1 -1</clus>
<clus scale="   95.828">  2  5  1 -1</clus>
<clus scale="   30.522">  2  5  1 -1</clus>
</clustering>
</event>
<event>
 9    2  0.4883225E-005  0.2339452E+03  0.7546771E-02  0.1171062E+00
          4   -1    0    0  502    0 -0.00000000000E+00  0.00000000000E+00  0.65529365389E+03  0.65529365389E+03  0.00000000000E+00 0. -1.
         21   -1    0    0  501  502  0.00000000000E+00 -0.00000000000E+00 -0.11922720074E+03  0.11922720074E+03  0.00000000000E+00 0. -1.
         24    2    1    2    0    0  0.11177468419E+02  0.36137314144E+01  0.16024866496E+03  0.17739680272E+03  0.75179758829E+02 0.  0.
         23    2    1    2    0    0  0.19449521835E+03 -0.77886695230E+02  0.27134886490E+03  0.35477825936E+03  0.91338270033E+02 0.  0.
        -11    1    3    3    0    0 -0.65899187763E+01  0.37188942475E+02  0.71554735547E+02  0.80910596655E+02  0.00000000000E+00 0.  1.
         12    1    3    3    0    0  0.17767387195E+02 -0.33575211060E+02  0.88693929413E+02  0.96486206061E+02  0.00000000000E+00 0. -1.
        -13    1    4    4    0    0  0.15448148893E+03 -0.89742176530E+02  0.17642544619E+03  0.25108589513E+03  0.00000000000E+00 0. -1.
         13    1    4    4    0    0  0.40013729428E+02  0.11855481300E+02  0.94923418709E+02  0.10369236423E+03  0.00000000000E+00 0.  1.
          3    1    1    2  501    0 -0.20567268677E+03  0.74272963816E+02  0.10446892329E+03  0.24234579256E+03  0.00000000000E+00 0. -1.
<scales pt_clust_5="13000.00000" pt_clust_6="13000.00000" pt_clust_7="13000.00000" pt_clust_8="13000.00000" pt_clust_9="215.37799"></scales>
<clustering>
<clus scale="   75.180">  5  6 -1 -1</clus>
<clus scale="   76.092">  1  5  2 -1</clus>
<clus scale="   91.338">  7  8 -1 -1</clus>
<clus scale="  215.378">  2  9  1 -1</clus>
<clus scale="  215.378">  2  5  1 -1</clus>
</clustering>
</event>
<event>
 9    2  0.4883225E-005  0.1161770E+03  0.7546771E-02  0.1272085E+00
          4   -1    0    0  502    0 -0.00000000000E+00  0.00000000000E+00  0.51121705353E+02  0.51121705353E+02  0.00000000000E+00 0. -1.
         21   -1    0    0  501  502  0.00000000000E+00 -0.00000000000E+00 -0.48444601764E+03  0.48444601764E+03  0.00000000000E+00 0. -1.
         23    2    1    2    0    0 -0.10993642684E+02  0.20227461537E+02 -0.36637958548E+02  0.83139193769E+02  0.70991373802E+02 0.  0.
         24    2    1    2    0    0  0.74926648066E+02 -0.63577413674E+02 -0.32324537776E+03  0.34584417540E+03  0.73922454610E+02 0.  0.
        -13    1    4    4    0    0  0.45668814328E+02  0.72495676138E+01 -0.12822856921E+03  0.13631127170E+03  0.00000000000E+00 0.  1.
         14    1    4    4    0    0  0.29257833738E+02 -0.70826981287E+02 -0.19501680855E+03  0.20953290369E+03  0.00000000000E+00 0. -1.
        -11    1    3    3    0    0 -0.29373848147E+02  0.37175268355E+02 -0.33311042965E+02  0.57917606267E+02  0.00000000000E+00 0. -1.
         11    1    3    3    0    0  0.18380205463E+02 -0.16947806819E+02 -0.33269155824E+01  0.25221587502E+02  0.00000000000E+00 0.  1.
          3    1    1    2  501    0 -0.63933005382E+02  0.43349952137E+02 -0.73440975982E+02  0.10658435383E+03  0.00000000000E+00 0. -1.
<scales pt_clust_5="13000.00000" pt_clust_6="13000.00000" pt_clust_7="13000.00000" pt_clust_8="13000.00000" pt_clust_9="89.62464"></scales>
<clustering>
<clus scale="   70.991">  7  8 -1 -1</clus>
<clus scale="   73.922">  5  6 -1 -1</clus>
<clus scale="   74.631">  1  7  2 -1</clus>
<clus scale="   89.625">  2  9  1 -1</clus>
<clus scale="   89.625">  2  5  1 -1</clus>
</clustering>
</event>
<event>
 9    2  0.4883225E-005  0.1948772E+03  0.7546771E-02  0.1166230E+00
         21   -1    0    0  501  502  0.00000000000E+00  0.00000000000E+00  0.24755518652E+03  0.24755518652E+03  0.00000000000E+00 0. -1.
          2   -1    0    0  502    0 -0.00000000000E+00 -0.00000000000E+00 -0.94475045597E+03  0.94475045597E+03  0.00000000000E+00 0. -1.
         23    2    1    2    0    0 -0.10720456510E+03  0.39117678449E+02 -0.66962356807E+03  0.68558320888E+03  0.92766383089E+02 0.  0.
         24    2    1    2    0    0  0.76361654273E+02 -0.21029171666E+03 -0.16156552067E+03  0.28716337524E+03  0.79408300995E+02 0.  0.
        -13    1    4    4    0    0  0.33273169951E+02 -0.99342085909E+02 -0.28375640145E+02  0.10854091774E+03  0.00000000000E+00 0.  1.
         14    1    4    4    0    0  0.43088484323E+02 -0.11094963075E+03 -0.13318988052E+03  0.17862245749E+03  0.00000000000E+00 0. -1.
        -11    1    3    3    0    0 -0.34819434653E+02 -0.29718671591E+02 -0.25664938142E+03  0.26070001430E+03  0.00000000000E+00 0.  1.
         11    1    3    3    0    0 -0.72385130448E+02  0.68836350040E+02 -0.41297418665E+03  0.42488319458E+03  0.00000000000E+00 0. -1.
          1    1    1    2  501    0  0.30842910828E+02  0.17117403821E+03  0.13399381930E+03  0.21955905838E+03  0.00000000000E+00 0. -1.
<scales pt_clust_5="13000.00000" pt_clust_6="13000.00000" pt_clust_7="13000.00000" pt_clust_8="13000.00000" pt_clust_9="177.96473"></scales>
<clustering>
<clus scale="   79.408">  5  6 -1 -1</clus>
<clus scale="   92.766">  7  8 -1 -1</clus>
<clus scale="  147.067">  2  7  1 -1</clus>
<clus scale="  177.965">  1  9  2 -1</clus>
<clus scale="  177.965">  1  5  2 -1</clus>
</clustering>
</event>
<event>
 9    2  0.4883225E-005  0.1014869E+03  0.7546771E-02  0.1280810E+00
         21   -1    0    0  501  502  0.00000000000E+00  0.00000000000E+00  0.15903774204E+03  0.15903774204E+03  0.00000000000E+00 0. -1.
          2   -1    0    0  502    0 -0.00000000000E+00 -0.00000000000E+00 -0.47490785032E+03  0.47490785032E+03  0.00000000000E+00 0. -1.
         24    2    1    2    0    0 -0.25411669252E+02 -0.19448550773E+02 -0.41703697809E+03  0.42939157382E+03  0.97125092120E+02 0.  0.
         23    2    1    2    0    0  0.29802017459E+02 -0.42290335075E+02  0.25765123270E+02  0.10700203976E+03  0.90049776511E+02 0.  0.
        -13    1    3    3    0    0  0.37374963079E+02 -0.39193986640E+01 -0.15467856654E+03  0.15917822871E+03  0.00000000000E+00 0.  1.
         14    1    3    3    0    0 -0.62786632331E+02 -0.15529152109E+02 -0.26235841155E+03  0.27021334511E+03  0.00000000000E+00 0. -1.
        -11    1    4    4    0    0 -0.31258250864E+02 -0.11974965809E+02 -0.16741044766E+01  0.33515379738E+02  0.00000000000E+00 0. -1.
         11    1    4    4    0    0  0.61060268323E+02 -0.30315369267E+02  0.27439227747E+02  0.73486660020E+02  0.00000000000E+00 0.  1.
          1    1    1    2  501    0 -0.43903482078E+01  0.61738885849E+02  0.75401746535E+02  0.97551978779E+02  0.00000000000E+00 0. -1.
<scales pt_clust_5="13000.00000" pt_clust_6="13000.00000" pt_clust_7="13000.00000" pt_clust_8="13000.00000" pt_clust_9="61.89479"></scales>
<clustering>
<clus scale="   61.895">  1  9  2 -1</clus>
<clus scale="   90.050">  7  8 -1 -1</clus>
<clus scale="   94.738">  1  7  2 -1</clus>
<clus scale="   97.125">  5  6 -1 -1</clus>
<clus scale="   61.895">  1  5  2 -1</clus>
</clustering>
</event>
<event>
 9    2  0.4883225E-005  0.1014099E+03  0.7546771E-02  0.1285053E+00
         -1   -1    0    0    0  501 -0.00000000000E+00  0.00000000000E+00  0.50191300022E+03  0.50191300022E+03  0.00000000000E+00 0.  1.
         21   -1    0    0  501  502  0.00000000000E+00 -0.00000000000E+00 -0.51995854895E+02  0.51995854895E+02  0.00000000000E+00 0.  1.
         23    2    1    2    0    0  0.30178601070E+02 -0.35554782869E+02  0.34576243386E+03  0.36154880462E+03  0.94820814722E+02 0.  0.
         24    2    1    2    0    0  0.33932063626E+02  0.29668233865E+02  0.85317956230E+02  0.12528060406E+03  0.79902985269E+02 0.  0.
        -11    1    4    4    0    0  0.54578038750E+02  0.36535232847E+01  0.69640437578E+02  0.88554509158E+02  0.00000000000E+00 0.  1.
         12    1    4    4    0    0 -0.20645975124E+02  0.26014710580E+02  0.15677518652E+02  0.36726094898E+02  0.00000000000E+00 0. -1.
        -13    1    3    3    0    0 -0.95516917481E+01  0.28451751796E+02  0.11168773384E+03  0.11564984603E+03  0.00000000000E+00 0. -1.
         13    1    3    3    0    0  0.39730292818E+02 -0.64006534665E+02  0.23407470002E+03  0.24589895859E+03  0.00000000000E+00 0.  1.
         -2    1    1    2    0  502 -0.64110664696E+02  0.58865490042E+01  0.18836755234E+02  0.67079446440E+02  0.00000000000E+00 0.  1.
<scales pt_clust_5="13000.00000" pt_clust_6="13000.00000" pt_clust_7="13000.00000" pt_clust_8="13000.00000" pt_clust_9="64.38034"></scales>
<clustering>
<clus scale="   64.380">  2  9  1 -1</clus>
<clus scale="   79.903">  5  6 -1 -1</clus>
<clus scale="   87.621">  2  5  1 -1</clus>
<clus scale="   94.821">  7  8 -1 -1</clus>
<clus scale="   64.380">  2  5  1 -1</clus>
</clustering>
</event>
<event>
 9    2  0.4883225E-005  0.2064821E+03  0.7546771E-02  0.1178641E+00
         21   -1    0    0  501  502  0.00000000000E+00  0.00000000000E+00  0.38310518850E+02  0.38310518850E+02  0.00000000000E+00 0. -1.
          2   -1    0    0  502    0 -0.00000000000E+00 -0.00000000000E+00 -0.19369570946E+04  0.19369570946E+04  0.00000000000E+00 0. -1.
         24    2    1    2    0    0  0.30101851861E+02  0.38948863070E+02 -0.51999141304E+03  0.52827642841E+03  0.79131408148E+02 0.  0.
         23    2    1    2    0    0 -0.20552736513E+03 -0.11819091361E+01 -0.10368185469E+04  0.10609177135E+04  0.91163594164E+02 0.  0.
        -11    1    3    3    0    0  0.31541963169E+02 -0.86001297095E+01 -0.91747775041E+02  0.97398726360E+02  0.00000000000E+00 0.  1.
         12    1    3    3    0    0 -0.14401113085E+01  0.47548992780E+02 -0.42824363800E+03  0.43087770205E+03  0.00000000000E+00 0. -1.
        -11    1    4    4    0    0 -0.96996513791E+02  0.38632040743E+02 -0.38390670705E+03  0.39785062269E+03  0.00000000000E+00 0. -1.
         11    1    4    4    0    0 -0.10853085134E+03 -0.39813949879E+02 -0.65291183988E+03  0.66306709084E+03  0.00000000000E+00 0.  1.
          1    1    1    2  501    0  0.17542551327E+03 -0.37766953934E+02 -0.34183661578E+03  0.38607347151E+03  0.00000000000E+00 0. -1.
<scales pt_clust_5="13000.00000" pt_clust_6="13000.00000" pt_clust_7="13000.00000" pt_clust_8="13000.00000" pt_clust_9="185.26752"></scales>
<clustering>
<clus scale="   79.131">  5  6 -1 -1</clus>
<clus scale="   91.164">  7  8 -1 -1</clus>
<clus scale="   93.193">  2  5  1 -1</clus>
<clus scale="  185.268">  1  9  2 -1</clus>
<clus scale="  185.268">  1  5  2 -1</clus>
</clustering>
</event>
<event>
 9    2  0.4883225E-005  0.1312861E+03  0.7546771E-02  0.1227407E+00
         21   -1    0    0  501  502  0.00000000000E+00  0.00000000000E+00  0.76101262668E+02  0.76101262668E+02  0.00000000000E+00 0.  1.
          4   -1    0    0  502    0 -0.00000000000E+00 -0.00000000000E+00 -0.72184480849E+03  0.72184480849E+03  0.00000000000E+00 0. -1.
         24    2    1    2    0    0 -0.85955125633E+02 -0.15969096624E+02 -0.39055762134E+03  0.41179655791E+03  0.96942528596E+02 0.  0.
         23    2    1    2    0    0  0.10214754292E+03 -0.64930820422E+02 -0.40645241566E+02  0.15629152321E+03  0.90138075209E+02 0.  0.
        -13    1    3    3    0    0 -0.76433909961E+01  0.28050573673E+02 -0.37284287640E+02  0.47279744226E+02  0.00000000000E+00 0.  1.
         14    1    3    3    0    0 -0.78311734637E+02 -0.44019670296E+02 -0.35327333370E+03  0.36451681368E+03  0.00000000000E+00 0. -1.
        -13    1    4    4    0    0  0.15978061759E+02 -0.51231099554E+02  0.11168534836E+02  0.54814780757E+02  0.00000000000E+00 0.  1.
         13    1    4    4    0    0  0.86169481157E+02 -0.13699720868E+02 -0.51813776402E+02  0.10147674246E+03  0.00000000000E+00 0. -1.
          3    1    1    2  501    0 -0.16192417283E+02  0.80899917046E+02 -0.21454068291E+03  0.22985799003E+03  0.00000000000E+00 0. -1.
<scales pt_clust_5="13000.00000" pt_clust_6="13000.00000" pt_clust_7="13000.00000" pt_clust_8="13000.00000" pt_clust_9="82.50453"></scales>
<clustering>
<clus scale="   82.505">  1  9  2 -1</clus>
<clus scale="   90.138">  7  8 -1 -1</clus>
<clus scale="   96.943">  5  6 -1 -1</clus>
<clus scale="  126.345">  1  7  2 -1</clus>
<clus scale="   82.505">  1  5  2 -1</clus>
</clustering>
</event>
<event>
 9    2  0.4883225E-005  0.1074562E+03  0.7546771E-02  0.1268903E+00
          2   -1    0    0  502    0 -0.00000000000E+00  0.00000000000E+00  0.94073383271E+03  0.94073383271E+03  0.00000000000E+00 0. -1.
         21   -1    0    0  501  502  0.00000000000E+00 -0.00000000000E+00 -0.67071932071E+02  0.67071932071E+02  0.00000000000E+00 0. -1.
         24    2    1    2    0    0 -0.58200417275E+02  0.38200262350E+01  0.85400882479E+03  0.85991372452E+03  0.81967430327E+02 0.  0.
         23    2    1    2    0    0  0.49978709553E+02 -0.22451390037E+02  0.45292577975E+02  0.11514897589E+03  0.90586603344E+02 0.  0.
        -11    1    3    3    0    0  0.14524718810E+02 -0.17637439873E+02  0.13523837143E+03  0.13715488999E+03  0.00000000000E+00 0.  1.
         12    1    3    3    0    0 -0.72725136085E+02  0.21457466108E+02  0.71877045336E+03  0.72275883453E+03  0.00000000000E+00 0. -1.
        -11    1    4    4    0    0  0.10176224953E+02  0.20717178034E+02 -0.17660347928E+02  0.29062775314E+02  0.00000000000E+00 0.  1.
         11    1    4    4    0    0  0.39802484599E+02 -0.43168568071E+02  0.62952925903E+02  0.86086200574E+02  0.00000000000E+00 0. -1.
          1    1    1    2  501    0  0.82217077223E+01  0.18631363802E+02 -0.25639502126E+02  0.32743064369E+02  0.00000000000E+00 0. -1.
<scales pt_clust_5="13000.00000" pt_clust_6="13000.00000" pt_clust_7="13000.00000" pt_clust_8="13000.00000" pt_clust_9="20.36478"></scales>
<clustering>
<clus scale="   20.365">  2  9  1 -1</clus>
<clus scale="   81.967">  5  6 -1 -1</clus>
<clus scale="   90.587">  7  8 -1 -1</clus>
<clus scale="  100.297">  1  5  2 -1</clus>
<clus scale="   20.365">  2  5  1 -1</clus>
</clustering>
</event>
<event>
 9    2  0.4883225E-005  0.1145331E+03  0.7546771E-02  0.1257283E+00
          2   -1    0    0  502    0 -0.00000000000E+00  0.00000000000E+00  0.62997818746E+03  0.62997818746E+03  0.00000000000E+00 0. -1.
         21   -1    0    0  501  502  0.00000000000E+00 -0.00000000000E+00 -0.54015931526E+02  0.54015931526E+02  0.00000000000E+00 0.  1.
         24    2    1    2    0    0  0.68394949642E+02 -0.27514461154E+02  0.41707099755E+03  0.43083748585E+03  0.78979791777E+02 0.  0.
         23    2    1    2    0    0 -0.13634310595E+02  0.73649250544E+02  0.12919832769E+03  0.17564007675E+03  0.92450647115E+02 0.  0.
        -11    1    3    3    0    0 -0.16488060826E+02 -0.13920515665E+02  0.68256621450E+02  0.71586334436E+02  0.00000000000E+00 0.  1.
         12    1    3    3    0    0  0.84883010468E+02 -0.13593945488E+02  0.34881437610E+03  0.35925115141E+03  0.00000000000E+00 0. -1.
        -13    1    4    4    0    0 -0.41600846399E+01  0.52943018761E+02  0.96915772769E+01  0.53983295655E+02  0.00000000000E+00 0.  1.
         13    1    4    4    0    0 -0.94742259554E+01  0.20706231784E+02  0.11950675041E+03  0.12165678110E+03  0.00000000000E+00 0. -1.
          1    1    1    2  501    0 -0.54760639047E+02 -0.46134789390E+02  0.29692930701E+02  0.77516556390E+02  0.00000000000E+00 0. -1.
<scales pt_clust_5="13000.00000" pt_clust_6="13000.00000" pt_clust_7="13000.00000" pt_clust_8="13000.00000" pt_clust_9="71.60409"></scales>
<clustering>
<clus scale="   71.604">  2  9  1 -1</clus>
<clus scale="   78.980">  5  6 -1 -1</clus>
<clus scale="   92.451">  7  8 -1 -1</clus>
<clus scale="  103.964">  1  5  2 -1</clus>
<clus scale="   71.604">  2  5  1 -1</clus>
</clustering>
</event>
<event>
 9    2  0.4883225E-005  0.1605213E+03  0.7546771E-02  0.1216981E+00
          2   -1    0    0  502    0 -0.00000000000E+00  0.00000000000E+00  0.54143090108E+03  0.54143090108E+03  0.00000000000E+00 0. -1.
         21   -1    0    0  501  502  0.00000000000E+00 -0.00000000000E+00 -0.10247283837E+03  0.10247283837E+03  0.00000000000E+00 0. -1.
         24    2    1    2    0    0  0.24864432831E+01 -0.32887843256E+02  0.23601934665E+02  0.89150412511E+02  0.79391133615E+02 0.  0.
         23    2    1    2    0    0  0.20011596082E+02 -0.95465760890E+02  0.39973794511E+03  0.42351028099E+03  0.10028139340E+03 0.  0.
        -11    1    3    3    0    0  0.13700981317E+02 -0.37092364170E+02  0.47869046575E+02  0.62088694533E+02  0.00000000000E+00 0.  1.
         12    1    3    3    0    0 -0.11214538034E+02  0.42045209140E+01 -0.24267111911E+02  0.27061717978E+02  0.00000000000E+00 0. -1.
        -13    1    4    4    0    0  0.10409869464E+01 -0.69642448976E+02  0.37898992827E+03  0.38533689167E+03  0.00000000000E+00 0. -1.
         13    1    4    4    0    0  0.18970609136E+02 -0.25823311914E+02  0.20748016840E+02  0.38173389318E+02  0.00000000000E+00 0.  1.
          1    1    1    2  501    0 -0.22498039365E+02  0.12835360415E+03  0.15618182938E+02  0.13124304595E+03  0.00000000000E+00 0. -1.
<scales pt_clust_5="13000.00000" pt_clust_6="13000.00000" pt_clust_7="13000.00000" pt_clust_8="13000.00000" pt_clust_9="125.34240"></scales>
<clustering>
<clus scale="   79.391">  5  6 -1 -1</clus>
<clus scale="   85.969">  1  5  2 -1</clus>
<clus scale="  100.281">  7  8 -1 -1</clus>
<clus scale="  125.342">  2  9  1 -1</clus>
<clus scale="  125.342">  2  5  1 -1</clus>
</clustering>
</event>
<event>
 9    2  0.4883225E-005  0.9844669E+02  0.7546771E-02  0.1290852E+00
         21   -1    0    0  501  502  0.00000000000E+00  0.00000000000E+00  0.35540353793E+02  0.35540353793E+02  0.00000000000E+00 0. -1.
          2   -1    0    0  502    0 -0.00000000000E+00 -0.00000000000E+00 -0.73755562789E+03  0.73755562789E+03  0.00000000000E+00 0. -1.
         24    2    1    2    0    0 -0.10286964982E+02 -0.41738285545E+02 -0.50753930830E+03  0.51543101366E+03  0.78899139675E+02 0.  0.
         23    2    1    2    0    0 -0.28657088507E+02 -0.12215991905E+02 -0.84072697445E+02  0.12875963447E+03  0.92414099748E+02 0.  0.
        -13    1    3    3    0    0 -0.29313101568E+02  0.14507085560E+01 -0.78554961126E+02  0.83858478381E+02  0.00000000000E+00 0.  1.
         14    1    3    3    0    0  0.19026136586E+02 -0.43188994101E+02 -0.42898434717E+03  0.43157253527E+03  0.00000000000E+00 0. -1.
        -11    1    4    4    0    0  0.28053354449E+02  0.11301739469E+02 -0.85470314605E+01  0.31428836403E+02  0.00000000000E+00 0.  1.
         11    1    4    4    0    0 -0.56710442955E+02 -0.23517731374E+02 -0.75525665984E+02  0.97330798063E+02  0.00000000000E+00 0. -1.
          1    1    1    2  501    0  0.38944053489E+02  0.53954277450E+02 -0.11040326836E+03  0.12890533356E+03  0.00000000000E+00 0. -1.
<scales pt_clust_5="13000.00000" pt_clust_6="13000.00000" pt_clust_7="13000.00000" pt_clust_8="13000.00000" pt_clust_9="66.54099"></scales>
<clustering>
<clus scale="   66.541">  1  9  2 -1</clus>
<clus scale="   78.899">  5  6 -1 -1</clus>
<clus scale="   85.886">  2  5  1 -1</clus>
<clus scale="   92.414">  7  8 -1 -1</clus>
<clus scale="   66.541">  1  5  2 -1</clus>
</clustering>
</event>
<event>
 9    2  0.4883225E-005  0.1701621E+03  0.7546771E-02  0.1209714E+00
          2   -1    0    0  502    0 -0.00000000000E+00  0.00000000000E+00  0.68831147283E+03  0.68831147283E+03  0.00000000000E+00 0. -1.
         21   -1    0    0  501  502  0.00000000000E+00 -0.00000000000E+00 -0.79020691316E+02  0.79020691316E+02  0.00000000000E+00 0. -1.
         24    2    1    2    0    0  0.14591161487E+02  0.19478091524E+02  0.26589617406E+03  0.27891229931E+03  0.80616358677E+02 0.  0.
         23    2    1    2    0    0  0.76899016171E+02 -0.12489164825E+03  0.79533186195E+02  0.18991472220E+03  0.90723158621E+02 0.  0.
        -13    1    3    3    0    0 -0.10965462702E+02  0.45812212182E+02  0.13571155972E+03  0.14365454257E+03  0.00000000000E+00 0.  1.
         14    1    3    3    0    0  0.25556624189E+02 -0.26334120658E+02  0.13018461433E+03  0.13525775674E+03  0.00000000000E+00 0. -1.
        -11    1    4    4    0    0  0.36244295859E+02 -0.39086946556E+02  0.78588916200E+02  0.94961340149E+02  0.00000000000E+00 0.  1.
         11    1    4    4    0    0  0.40654720312E+02 -0.85804701696E+02  0.94426999515E+00  0.94953382049E+02  0.00000000000E+00 0. -1.
          1    1    1    2  501    0 -0.91490177658E+02  0.10541355673E+03  0.26386142126E+03  0.29850514263E+03  0.00000000000E+00 0. -1.
<scales pt_clust_5="13000.00000" pt_clust_6="13000.00000" pt_clust_7="13000.00000" pt_clust_8="13000.00000" pt_clust_9="143.95996"></scales>
<clustering>
<clus scale="   80.616">  5  6 -1 -1</clus>
<clus scale="   84.210">  1  5  2 -1</clus>
<clus scale="   90.723">  7  8 -1 -1</clus>
<clus scale="  143.960">  2  9  1 -1</clus>
<clus scale="  143.960">  2  5  1 -1</clus>
</clustering>
</event>
<event>
 9    2  0.4883225E-005  0.9203970E+02  0.7546771E-02  0.1305053E+00
          2   -1    0    0  502    0 -0.00000000000E+00  0.00000000000E+00  0.60971477152E+03  0.60971477152E+03  0.00000000000E+00 0. -1.
         21   -1    0    0  501  502  0.00000000000E+00 -0.00000000000E+00 -0.64074960981E+02  0.64074960981E+02  0.00000000000E+00 0. -1.
         24    2    1    2    0    0 -0.20116291424E+01  0.11525615428E+02  0.45881391796E+03  0.46585679318E+03  0.79846439975E+02 0.  0.
         23    2    1    2    0    0 -0.58982086914E+02 -0.23795416032E+02  0.13846399294E+02  0.11203305483E+03  0.91184287024E+02 0.  0.
        -13    1    3    3    0    0  0.12272341696E+02 -0.15913536846E+02  0.31113808659E+02  0.37039439992E+02  0.00000000000E+00 0.  1.
         14    1    3    3    0    0 -0.14283970838E+02  0.27439152273E+02  0.42770010930E+03  0.42881735319E+03  0.00000000000E+00 0. -1.
        -13    1    4    4    0    0 -0.14927470239E+02 -0.22005942274E+02  0.48928884659E+02  0.55687760029E+02  0.00000000000E+00 0.  1.
         13    1    4    4    0    0 -0.44054616674E+02 -0.17894737580E+01 -0.35082485365E+02  0.56345294799E+02  0.00000000000E+00 0. -1.
          1    1    1    2  501    0  0.60993716056E+02  0.12269800604E+02  0.72979493288E+02  0.95899884493E+02  0.00000000000E+00 0. -1.
<scales pt_clust_5="13000.00000" pt_clust_6="13000.00000" pt_clust_7="13000.00000" pt_clust_8="13000.00000" pt_clust_9="62.21560"></scales>
<clustering>
<clus scale="   62.216">  2  9  1 -1</clus>
<clus scale="   79.846">  5  6 -1 -1</clus>
<clus scale="   80.822">  1  5  2 -1</clus>
<clus scale="   91.184">  7  8 -1 -1</clus>
<clus scale="   62.216">  2  5  1 -1</clus>
</clustering>
</event>
<event>
 9    2  0.4883225E-005  0.1816916E+03  0.7546771E-02  0.1173349E+00
          2   -1    0    0  502    0 -0.00000000000E+00  0.00000000000E+00  0.13748644351E+04  0.13748644351E+04  0.00000000000E+00 0. -1.
         21   -1    0    0  501  502  0.00000000000E+00 -0.00000000000E+00 -0.33337956600E+02  0.33337956600E+02  0.00000000000E+00 0. -1.
         23    2    1    2    0    0 -0.10836459211E+01  0.16193755828E+03  0.83069019030E+03  0.85559988810E+03  0.12561858617E+03 0.  0.
         24    2    1    2    0    0 -0.34846627528E+02 -0.92401054311E+02  0.25668791457E+03  0.28667449501E+03  0.80878540513E+02 0.  0.
        -11    1    4    4    0    0 -0.18809632229E+02 -0.17764597248E+02  0.88476200764E+01  0.27343437257E+02  0.00000000000E+00 0.  1.
         12    1    4    4    0    0 -0.16036995299E+02 -0.74636457063E+02  0.24784029450E+03  0.25933105776E+03  0.00000000000E+00 0. -1.
        -13    1    3    3    0    0 -0.17809141582E+02 -0.15916629015E+02  0.62404925436E+02  0.66819752482E+02  0.00000000000E+00 0.  1.
         13    1    3    3    0    0  0.16725495661E+02  0.17785418729E+03  0.76828526486E+03  0.78878013562E+03  0.00000000000E+00 0. -1.
          1    1    1    2  501    0  0.35930273450E+02 -0.69536503965E+02  0.25414837367E+03  0.26592800863E+03  0.00000000000E+00 0. -1.
<scales pt_clust_5="13000.00000" pt_clust_6="13000.00000" pt_clust_7="13000.00000" pt_clust_8="13000.00000" pt_clust_9="78.27079"></scales>
<clustering>
<clus scale="   78.271">  2  9  1 -1</clus>
<clus scale="   80.879">  5  6 -1 -1</clus>
<clus scale="  125.619">  7  8 -1 -1</clus>
<clus scale="  154.185">  2  5  1 -1</clus>
<clus scale="   78.271">  2  5  1 -1</clus>
</clustering>
</event>
<event>
 9    2  0.5843021E-005  0.1232054E+03  0.7546771E-02  0.1240997E+00
          2   -1    0    0  502    0 -0.00000000000E+00  0.00000000000E+00  0.61133676938E+03  0.61133676938E+03  0.00000000000E+00 0. -1.
         21   -1    0    0  501  502  0.00000000000E+00 -0.00000000000E+00 -0.12966292638E+03  0.12966292638E+03  0.00000000000E+00 0. -1.
         23    2    1    2    0    0 -0.40673305710E+02  0.75870391751E+02  0.54649560908E+03  0.56082272393E+03  0.91945868859E+02 0.  0.
         24    2    1    2    0    0  0.32059983188E+02 -0.46706673611E+02  0.95809387100E+01  0.99799896361E+02  0.81601893638E+02 0.  0.
        -11    1    4    4    0    0  0.89262258902E+01 -0.60387202626E+02 -0.15562707233E+02  0.62995949124E+02  0.00000000000E+00 0.  1.
         12    1    4    4    0    0  0.23133757298E+02  0.13680529016E+02  0.25143645943E+02  0.36803947236E+02  0.00000000000E+00 0. -1.
        -13    1    3    3    0    0 -0.69307047172E+02  0.64722493141E+02  0.43107022028E+03  0.44137739262E+03  0.00000000000E+00 0. -1.
         13    1    3    3    0    0  0.28633741462E+02  0.11147898610E+02  0.11542538880E+03  0.11944533132E+03  0.00000000000E+00 0.  1.
          1    1    1    2  501    0  0.86133225220E+01 -0.29163718140E+02 -0.74402704783E+02  0.80377075461E+02  0.00000000000E+00 0. -1.
<scales pt_clust_5="13000.00000" pt_clust_6="13000.00000" pt_clust_7="13000.00000" pt_clust_8="13000.00000" pt_clust_9="30.40907"></scales>
<clustering>
<clus scale="   30.409">  2  9  1 -1</clus>
<clus scale="   81.602">  5  6 -1 -1</clus>
<clus scale="   91.946">  7  8 -1 -1</clus>
<clus scale="  115.691">  2  5  1 -1</clus>
<clus scale="   30.409">  2  5  1 -1</clus>
</clustering>
</event>
<event>
 9    2  0.4883225E-005  0.9390375E+02  0.7546771E-02  0.1306867E+00
          2   -1    0    0  502    0 -0.00000000000E+00  0.00000000000E+00  0.39722330345E+03  0.39722330345E+03  0.00000000000E+00 0. -1.
         21   -1    0    0  501  502  0.00000000000E+00 -0.00000000000E+00 -0.39050675158E+02  0.39050675158E+02  0.00000000000E+00 0.  1.
         24    2    1    2    0    0  0.23685303523E+02  0.17789511020E+02  0.18603370330E+03  0.20113299097E+03  0.70487452682E+02 0.  0.
         23    2    1    2    0    0 -0.75687773013E+01 -0.57002349134E+01  0.18814212617E+03  0.20941171516E+03  0.91465992267E+02 0.  0.
        -13    1    3    3    0    0 -0.11121063787E+02  0.19309884400E+02  0.15665244201E+02  0.27238751277E+02  0.00000000000E+00 0.  1.
         14    1    3    3    0    0  0.34806367309E+02 -0.15203733800E+01  0.17036845910E+03  0.17389423969E+03  0.00000000000E+00 0. -1.
        -11    1    4    4    0    0  0.29997154163E+02 -0.15251132199E+02  0.15439033616E+03  0.15801519607E+03  0.00000000000E+00 0. -1.
         11    1    4    4    0    0 -0.37565931464E+02  0.95508972861E+01  0.33751790007E+02  0.51396519089E+02  0.00000000000E+00 0.  1.
          1    1    1    2  501    0 -0.16116526222E+02 -0.12089276107E+02 -0.16003201179E+02  0.25729272477E+02  0.00000000000E+00 0. -1.
<scales pt_clust_5="13000.00000" pt_clust_6="13000.00000" pt_clust_7="13000.00000" pt_clust_8="13000.00000" pt_clust_9="20.14679"></scales>
<clustering>
<clus scale="   20.147">  2  9  1 -1</clus>
<clus scale="   70.487">  5  6 -1 -1</clus>
<clus scale="   73.623">  1  5  2 -1</clus>
<clus scale="   91.466">  7  8 -1 -1</clus>
<clus scale="   20.147">  2  5  1 -1</clus>
</clustering>
</event>
<event>
 9    2  0.4883225E-005  0.1004339E+03  0.7546771E-02  0.1282406E+00
         -1   -1    0    0    0  501 -0.00000000000E+00  0.00000000000E+00  0.27535367368E+03  0.27535367368E+03  0.00000000000E+00 0.  1.
         21   -1    0    0  501  502  0.00000000000E+00 -0.00000000000E+00 -0.98510679173E+02  0.98510679173E+02  0.00000000000E+00 0.  1.
         24    2    1    2    0    0 -0.48871929300E+02 -0.30544615708E+02  0.16299040629E+03  0.19254897293E+03  0.84780867023E+02 0.  0.
         23    2    1    2    0    0 -0.35416233632E+01  0.28769098341E+02  0.58875718806E+02  0.11219653116E+03  0.91002786906E+02 0.  0.
        -11    1    3    3    0    0 -0.21883155977E+02 -0.55726842875E+02  0.12966138779E+03  0.14281606708E+03  0.00000000000E+00 0.  1.
         12    1    3    3    0    0 -0.26988773323E+02  0.25182227166E+02  0.33329018496E+02  0.49732905852E+02  0.00000000000E+00 0. -1.
        -11    1    4    4    0    0  0.32436762093E+02  0.34214232350E-01 -0.56515461063E+01  0.32925441213E+02  0.00000000000E+00 0.  1.
         11    1    4    4    0    0 -0.35978385456E+02  0.28734884108E+02  0.64527264913E+02  0.79271089950E+02  0.00000000000E+00 0. -1.
         -2    1    1    2    0  502  0.52413552663E+02  0.17755173678E+01 -0.45023130591E+02  0.69118848753E+02  0.00000000000E+00 0.  1.
<scales pt_clust_5="13000.00000" pt_clust_6="13000.00000" pt_clust_7="13000.00000" pt_clust_8="13000.00000" pt_clust_9="52.44362"></scales>
<clustering>
<clus scale="   52.444">  2  9  1 -1</clus>
<clus scale="   84.781">  5  6 -1 -1</clus>
<clus scale="   91.003">  7  8 -1 -1</clus>
<clus scale="   94.833">  1  5  2 -1</clus>
<clus scale="   52.444">  2  5  1 -1</clus>
</clustering>
</event>
<event>
 9    2  0.4883225E-005  0.9476493E+02  0.7546771E-02  0.1301614E+00
          2   -1    0    0  502    0 -0.00000000000E+00  0.00000000000E+00  0.14377049166E+03  0.14377049166E+03  0.00000000000E+00 0. -1.
         21   -1    0    0  501  502  0.00000000000E+00 -0.00000000000E+00 -0.15330874000E+03  0.15330874000E+03  0.00000000000E+00 0. -1.
         23    2    1    2    0    0 -0.96616609432E+01 -0.15828581284E+02  0.49959131061E+02  0.10824691356E+03  0.94220952237E+02 0.  0.
         24    2    1    2    0    0  0.10441695263E+02 -0.11702138070E+02  0.37395780828E+02  0.88100826207E+02  0.78213439505E+02 0.  0.
        -13    1    4    4    0    0  0.40892604828E+01 -0.32855520022E+02 -0.11012129317E+02  0.34892323501E+02  0.00000000000E+00 0.  1.
         14    1    4    4    0    0  0.63524347799E+01  0.21153381951E+02  0.48407910145E+02  0.53208502706E+02  0.00000000000E+00 0. -1.
        -13    1    3    3    0    0 -0.43806094348E+02 -0.35520325952E+02  0.32952227873E+02  0.65318579129E+02  0.00000000000E+00 0. -1.
         13    1    3    3    0    0  0.34144433405E+02  0.19691744668E+02  0.17006903188E+02  0.42928334427E+02  0.00000000000E+00 0.  1.
          1    1    1    2  501    0 -0.78003431956E+00  0.27530719354E+02 -0.96893160226E+02  0.10073149190E+03  0.00000000000E+00 0. -1.
<scales pt_clust_5="13000.00000" pt_clust_6="13000.00000" pt_clust_7="13000.00000" pt_clust_8="13000.00000" pt_clust_9="27.54177"></scales>
<clustering>
<clus scale="   27.542">  2  9  1 -1</clus>
<clus scale="   78.213">  5  6 -1 -1</clus>
<clus scale="   78.868">  2  5  1 -1</clus>
<clus scale="   94.221">  7  8 -1 -1</clus>
<clus scale="   27.542">  2  5  1 -1</clus>
</clustering>
</event>
<event>
 9    2  0.4883225E-005  0.9622068E+02  0.7546771E-02  0.1294408E+00
         21   -1    0    0  501  502  0.00000000000E+00  0.00000000000E+00  0.20733607283E+03  0.20733607283E+03  0.00000000000E+00 0.  1.
          2   -1    0    0  502    0 -0.00000000000E+00 -0.00000000000E+00 -0.11252506267E+03  0.11252506267E+03  0.00000000000E+00 0. -1.
         24    2    1    2    0    0 -0.20648214646E+01 -0.38858935763E+02 -0.36060531864E+02  0.95842278861E+02  0.79819171147E+02 0.  0.
         23    2    1    2    0    0 -0.46478979056E+02  0.86768276011E+01  0.27478390969E+02  0.10587655300E+03  0.90659801864E+02 0.  0.
        -13    1    3    3    0    0  0.16740855859E+02  0.17937049968E+02  0.25021194603E+01  0.24662818538E+02  0.00000000000E+00 0.  1.
         14    1    3    3    0    0 -0.18805677324E+02 -0.56795985731E+02 -0.38562651324E+02  0.71179460323E+02  0.00000000000E+00 0. -1.
        -13    1    4    4    0    0 -0.79444379362E+01 -0.32660045397E+02  0.35395582012E+02  0.48812292360E+02  0.00000000000E+00 0. -1.
         13    1    4    4    0    0 -0.38534541120E+02  0.41336872998E+02 -0.79171910435E+01  0.57064260642E+02  0.00000000000E+00 0.  1.
          1    1    1    2  501    0  0.48543800520E+02  0.30182108161E+02  0.10339315106E+03  0.11814230363E+03  0.00000000000E+00 0. -1.
<scales pt_clust_5="13000.00000" pt_clust_6="13000.00000" pt_clust_7="13000.00000" pt_clust_8="13000.00000" pt_clust_9="57.16170"></scales>
<clustering>
<clus scale="   57.162">  1  9  2 -1</clus>
<clus scale="   79.819">  5  6 -1 -1</clus>
<clus scale="   86.083">  2  5  1 -1</clus>
<clus scale="   90.660">  7  8 -1 -1</clus>
<clus scale="   57.162">  1  5  2 -1</clus>
</clustering>
</event>
<event>
 9    2  0.4883225E-005  0.9361979E+02  0.7546771E-02  0.1303003E+00
          2   -1    0    0  502    0 -0.00000000000E+00  0.00000000000E+00  0.29048083439E+03  0.29048083439E+03  0.00000000000E+00 0. -1.
         21   -1    0    0  501  502  0.00000000000E+00 -0.00000000000E+00 -0.11060621992E+03  0.11060621992E+03  0.00000000000E+00 0. -1.
         23    2    1    2    0    0  0.66499634081E+01  0.13534695841E+02  0.21554480396E+03  0.23478135712E+03  0.91843960777E+02 0.  0.
         24    2    1    2    0    0  0.10164775117E+02 -0.30982660756E+02  0.35300231484E+02  0.91312580414E+02  0.77644272669E+02 0.  0.
        -13    1    4    4    0    0 -0.51811173415E+01  0.25239583269E+02  0.13512051646E+02  0.29093918268E+02  0.00000000000E+00 0.  1.
         14    1    4    4    0    0  0.15345892458E+02 -0.56222244025E+02  0.21788179837E+02  0.62218662145E+02  0.00000000000E+00 0. -1.
        -11    1    3    3    0    0 -0.35356864513E+02 -0.17732885383E+02  0.74877230902E+02  0.84682718424E+02  0.00000000000E+00 0. -1.
         11    1    3    3    0    0  0.42006827921E+02  0.31267581224E+02  0.14066757306E+03  0.15009863869E+03  0.00000000000E+00 0.  1.
          1    1    1    2  501    0 -0.16814738525E+02  0.17447964915E+02 -0.70970420973E+02  0.74993116780E+02  0.00000000000E+00 0. -1.
<scales pt_clust_5="13000.00000" pt_clust_6="13000.00000" pt_clust_7="13000.00000" pt_clust_8="13000.00000" pt_clust_9="24.23153"></scales>
<clustering>
<clus scale="   24.232">  2  9  1 -1</clus>
<clus scale="   77.644">  5  6 -1 -1</clus>
<clus scale="   79.737">  2  5  1 -1</clus>
<clus scale="   91.844">  7  8 -1 -1</clus>
<clus scale="   24.232">  2  5  1 -1</clus>
</clustering>
</event>
<event>
 9    2  0.4883225E-005  0.1193351E+03  0.7546771E-02  0.1248600E+00
          2   -1    0    0  502    0 -0.00000000000E+00  0.00000000000E+00  0.66569855009E+03  0.66569855009E+03  0.00000000000E+00 0. -1.
         21   -1    0    0  501  502  0.00000000000E+00 -0.00000000000E+00 -0.72567926502E+02  0.72567926502E+02  0.00000000000E+00 0.  1.
         24    2    1    2    0    0  0.14996376721E+02 -0.66259591978E+02  0.27760754118E+03  0.29612838119E+03  0.77529648392E+02 0.  0.
         23    2    1    2    0    0 -0.10683994638E+03  0.10109442489E+03  0.87667942652E+02  0.19401177357E+03  0.91214270977E+02 0.  0.
        -11    1    3    3    0    0  0.43061982786E+02 -0.60744672111E+02  0.19787567012E+03  0.21142145203E+03  0.00000000000E+00 0.  1.
         12    1    3    3    0    0 -0.28065606065E+02 -0.55149198671E+01  0.79731871058E+02  0.84706929158E+02  0.00000000000E+00 0. -1.
        -11    1    4    4    0    0 -0.97381654145E+02  0.35990235067E+02  0.72121985673E+02  0.12641227947E+03  0.00000000000E+00 0. -1.
         11    1    4    4    0    0 -0.94582922391E+01  0.65104189822E+02  0.15545956979E+02  0.67599494102E+02  0.00000000000E+00 0.  1.
          1    1    1    2  501    0  0.91843569662E+02 -0.34834832911E+02  0.22785513975E+03  0.24812632183E+03  0.00000000000E+00 0. -1.
<scales pt_clust_5="13000.00000" pt_clust_6="13000.00000" pt_clust_7="13000.00000" pt_clust_8="13000.00000" pt_clust_9="98.22788"></scales>
<clustering>
<clus scale="   77.530">  5  6 -1 -1</clus>
<clus scale="   91.214">  7  8 -1 -1</clus>
<clus scale="   98.228">  2  9  1 -1</clus>
<clus scale="  109.232">  1  5  2 -1</clus>
<clus scale="   98.228">  2  5  1 -1</clus>
</clustering>
</event>
<event>
 9    2  0.4883225E-005  0.1542214E+03  0.7546771E-02  0.1217890E+00
          4   -1    0    0  502    0 -0.00000000000E+00  0.00000000000E+00  0.14259689570E+03  0.14259689570E+03  0.00000000000E+00 0. -1.
         21   -1    0    0  501  502  0.00000000000E+00 -0.00000000000E+00 -0.33091402219E+03  0.33091402219E+03  0.00000000000E+00 0.  1.
         24    2    1    2    0    0  0.50805016179E+02 -0.11055389411E+02 -0.15303688985E+01  0.95112222726E+02  0.79628020062E+02 0.  0.
         23    2    1    2    0    0  0.62669425248E+02 -0.95507596128E+02 -0.16702897828E+03  0.22148314913E+03  0.90038591648E+02 0.  0.
        -11    1    3    3    0    0  0.14142906897E+02  0.34107644914E+02 -0.11049277397E+01  0.36940142425E+02  0.00000000000E+00 0.  1.
         12    1    3    3    0    0  0.36662109282E+02 -0.45163034325E+02 -0.42544115880E+00  0.58172080301E+02  0.00000000000E+00 0. -1.
        -13    1    4    4    0    0  0.78949212465E+02 -0.72488169660E+02 -0.15973404151E+03  0.19236027892E+03  0.00000000000E+00 0.  1.
         13    1    4    4    0    0 -0.16279787217E+02 -0.23019426467E+02 -0.72949367633E+01  0.29122870207E+02  0.00000000000E+00 0. -1.
          3    1    1    2  501    0 -0.11347444143E+03  0.10656298554E+03 -0.19757779316E+02  0.15691554604E+03  0.00000000000E+00 0. -1.
<scales pt_clust_5="13000.00000" pt_clust_6="13000.00000" pt_clust_7="13000.00000" pt_clust_8="13000.00000" pt_clust_9="125.20911"></scales>
<clustering>
<clus scale="   79.628">  5  6 -1 -1</clus>
<clus scale="   90.039">  7  8 -1 -1</clus>
<clus scale="   95.100">  1  5  2 -1</clus>
<clus scale="  125.209">  2  9  1 -1</clus>
<clus scale="  125.209">  2  5  1 -1</clus>
</clustering>
</event>
<event>
 9    2  0.4883225E-005  0.1154424E+03  0.7546771E-02  0.1256039E+00
         21   -1    0    0  501  502  0.00000000000E+00  0.00000000000E+00  0.69044378815E+02  0.69044378815E+02  0.00000000000E+00 0.  1.
          2   -1    0    0  502    0 -0.00000000000E+00 -0.00000000000E+00 -0.11271117122E+04  0.11271117122E+04  0.00000000000E+00 0. -1.
         24    2    1    2    0    0 -0.62288477507E+02  0.36905734245E+01 -0.95536733330E+03  0.96080834128E+03  0.80823587902E+02 0.  0.
         23    2    1    2    0    0  0.11027237701E+03  0.21874688106E+02 -0.10517611495E+03  0.18092194376E+03  0.95038073773E+02 0.  0.
        -11    1    3    3    0    0  0.12859343037E+02  0.15884943715E+02 -0.10045446300E+03  0.10251240548E+03  0.00000000000E+00 0.  1.
         12    1    3    3    0    0 -0.75147820543E+02 -0.12194370290E+02 -0.85491287030E+03  0.85829593580E+03  0.00000000000E+00 0. -1.
        -13    1    4    4    0    0  0.17637052875E+02  0.25526275806E+02  0.10431805811E+02  0.32733453272E+02  0.00000000000E+00 0.  1.
         13    1    4    4    0    0  0.92635324134E+02 -0.36515877002E+01 -0.11560792076E+03  0.14818849049E+03  0.00000000000E+00 0. -1.
          1    1    1    2  501    0 -0.47983899503E+02 -0.25565261530E+02  0.24761148947E+01  0.54425805952E+02  0.00000000000E+00 0. -1.
<scales pt_clust_5="13000.00000" pt_clust_6="13000.00000" pt_clust_7="13000.00000" pt_clust_8="13000.00000" pt_clust_9="54.36945"></scales>
<clustering>
<clus scale="   54.369">  1  9  2 -1</clus>
<clus scale="   80.824">  5  6 -1 -1</clus>
<clus scale="   95.038">  7  8 -1 -1</clus>
<clus scale="  104.054">  2  5  1 -1</clus>
<clus scale="   54.369">  1  5  2 -1</clus>
</clustering>
</event>
<event>
 9    2  0.4883225E-005  0.2727531E+03  0.7546771E-02  0.1145001E+00
          2   -1    0    0  502    0 -0.00000000000E+00  0.00000000000E+00  0.14729667798E+04  0.14729667798E+04  0.00000000000E+00 0. -1.
         21   -1    0    0  501  502  0.00000000000E+00 -0.00000000000E+00 -0.11802895795E+03  0.11802895795E+03  0.00000000000E+00 0. -1.
         24    2    1    2    0    0  0.24103377552E+02  0.31421181473E+02 -0.38075980988E+02  0.96127983007E+02  0.78883111844E+02 0.  0.
         23    2    1    2    0    0  0.24416011568E+03 -0.57676150503E+02  0.57334934939E+03  0.63202104678E+03  0.88206727062E+02 0.  0.
        -13    1    3    3    0    0  0.17437240576E+02  0.21435876729E+02  0.21714745316E+02  0.35143766648E+02  0.00000000000E+00 0.  1.
         14    1    3    3    0    0  0.66661369761E+01  0.99853047435E+01 -0.59790726304E+02  0.60984216359E+02  0.00000000000E+00 0. -1.
        -13    1    4    4    0    0  0.27557175974E+02 -0.37570557894E+02  0.13182650629E+03  0.13981835548E+03  0.00000000000E+00 0.  1.
         13    1    4    4    0    0  0.21660293971E+03 -0.20105592609E+02  0.44152284310E+03  0.49220269130E+03  0.00000000000E+00 0. -1.
          1    1    1    2  501    0 -0.26826349323E+03  0.26254969031E+02  0.81966445347E+03  0.86284670798E+03  0.00000000000E+00 0. -1.
<scales pt_clust_5="13000.00000" pt_clust_6="13000.00000" pt_clust_7="13000.00000" pt_clust_8="13000.00000" pt_clust_9="258.09667"></scales>
<clustering>
<clus scale="   78.883">  5  6 -1 -1</clus>
<clus scale="   88.207">  7  8 -1 -1</clus>
<clus scale="   88.266">  1  5  2 -1</clus>
<clus scale="  258.097">  2  9  1 -1</clus>
<clus scale="  258.097">  2  5  1 -1</clus>
</clustering>
</event>
<event>
 9    2  0.4883225E-005  0.8592302E+02  0.7546771E-02  0.1316393E+00
         21   -1    0    0  501  502  0.00000000000E+00  0.00000000000E+00  0.12864849416E+03  0.12864849416E+03  0.00000000000E+00 0. -1.
         -1   -1    0    0    0  501 -0.00000000000E+00 -0.00000000000E+00 -0.12511875512E+03  0.12511875512E+03  0.00000000000E+00 0.  1.
         24    2    1    2    0    0  0.45258985736E+01  0.44335532823E+01 -0.76613440201E+02  0.11118791842E+03  0.80330528628E+02 0.  0.
         23    2    1    2    0    0 -0.25883706701E+02  0.23029620703E+00  0.42034748933E+02  0.98645745525E+02  0.85405173634E+02 0.  0.
        -11    1    3    3    0    0  0.33177710790E+02 -0.21668917919E+02 -0.25824624644E+02  0.47299193810E+02  0.00000000000E+00 0.  1.
         12    1    3    3    0    0 -0.28651812217E+02  0.26102471201E+02 -0.50788815557E+02  0.63888724606E+02  0.00000000000E+00 0. -1.
        -13    1    4    4    0    0  0.17930861231E+02  0.25029276017E+02 -0.32108168742E+01  0.30956256031E+02  0.00000000000E+00 0. -1.
         13    1    4    4    0    0 -0.43814567932E+02 -0.24798979810E+02  0.45245565807E+02  0.67689489494E+02  0.00000000000E+00 0.  1.
         -2    1    1    2    0  502  0.21357808127E+02 -0.46638494894E+01  0.38108430309E+02  0.43933585338E+02  0.00000000000E+00 0.  1.
<scales pt_clust_5="13000.00000" pt_clust_6="13000.00000" pt_clust_7="13000.00000" pt_clust_8="13000.00000" pt_clust_9="21.86109"></scales>
<clustering>
<clus scale="   21.861">  1  9  2 -1</clus>
<clus scale="   80.331">  5  6 -1 -1</clus>
<clus scale="   80.881">  2  5  1 -1</clus>
<clus scale="   85.405">  7  8 -1 -1</clus>
<clus scale="   21.861">  1  5  2 -1</clus>
</clustering>
</event>
<event>
 9    2  0.4883225E-005  0.9641950E+02  0.7546771E-02  0.1295442E+00
         21   -1    0    0  501  502  0.00000000000E+00  0.00000000000E+00  0.31772237804E+03  0.31772237804E+03  0.00000000000E+00 0.  1.
         -1   -1    0    0    0  501 -0.00000000000E+00 -0.00000000000E+00 -0.48105168448E+02  0.48105168448E+02  0.00000000000E+00 0.  1.
         23    2    1    2    0    0 -0.47632932307E+02  0.33441475782E+02  0.64830952157E+02  0.12444856589E+03  0.88865992659E+02 0.  0.
         24    2    1    2    0    0  0.12742908806E+02 -0.82124595434E+01  0.86846120456E+02  0.11582543461E+03  0.75122942218E+02 0.  0.
        -13    1    4    4    0    0 -0.19953558615E+02  0.57971280421E+01  0.75773007316E+02  0.78570349577E+02  0.00000000000E+00 0.  1.
         14    1    4    4    0    0  0.32696467421E+02 -0.14009587586E+02  0.11073113140E+02  0.37255085032E+02  0.00000000000E+00 0. -1.
        -13    1    3    3    0    0 -0.15767169706E+02  0.31150200112E+02  0.81318826930E+02  0.88496837349E+02  0.00000000000E+00 0. -1.
         13    1    3    3    0    0 -0.31865762601E+02  0.22912756703E+01 -0.16487874773E+02  0.35951728538E+02  0.00000000000E+00 0.  1.
         -2    1    1    2    0  502  0.34890023501E+02 -0.25229016239E+02  0.11794013698E+03  0.12555354600E+03  0.00000000000E+00 0.  1.
<scales pt_clust_5="13000.00000" pt_clust_6="13000.00000" pt_clust_7="13000.00000" pt_clust_8="13000.00000" pt_clust_9="43.05598"></scales>
<clustering>
<clus scale="   43.056">  1  9  2 -1</clus>
<clus scale="   75.123">  5  6 -1 -1</clus>
<clus scale="   83.923">  1  5  2 -1</clus>
<clus scale="   88.866">  7  8 -1 -1</clus>
<clus scale="   43.056">  1  5  2 -1</clus>
</clustering>
</event>
<event>
 9    2  0.4883225E-005  0.9902426E+02  0.7546771E-02  0.1287013E+00
          2   -1    0    0  502    0 -0.00000000000E+00  0.00000000000E+00  0.30578419551E+03  0.30578419551E+03  0.00000000000E+00 0. -1.
         21   -1    0    0  501  502  0.00000000000E+00 -0.00000000000E+00 -0.97188309236E+02  0.97188309236E+02  0.00000000000E+00 0.  1.
         24    2    1    2    0    0  0.44068452521E+02  0.27099700699E+02  0.17706741544E+03  0.20155980802E+03  0.81222314127E+02 0.  0.
         23    2    1    2    0    0  0.39402217546E+02 -0.25039092154E+02 -0.19413568890E+02  0.10360323768E+03  0.90428166613E+02 0.  0.
        -11    1    3    3    0    0  0.62165440301E+02  0.69305986383E+01  0.15309416713E+03  0.16537956093E+03  0.00000000000E+00 0.  1.
         12    1    3    3    0    0 -0.18096987780E+02  0.20169102060E+02  0.23973248311E+02  0.36180247086E+02  0.00000000000E+00 0. -1.
        -11    1    4    4    0    0  0.63694172392E+02 -0.38041152037E+02 -0.15192618941E+02  0.75729073118E+02  0.00000000000E+00 0.  1.
         11    1    4    4    0    0 -0.24291954846E+02  0.13002059883E+02 -0.42209499492E+01  0.27874164560E+02  0.00000000000E+00 0. -1.
          1    1    1    2  501    0 -0.83470670067E+02 -0.20606085446E+01  0.50942039730E+02  0.97809459056E+02  0.00000000000E+00 0. -1.
<scales pt_clust_5="13000.00000" pt_clust_6="13000.00000" pt_clust_7="13000.00000" pt_clust_8="13000.00000" pt_clust_9="83.49614"></scales>
<clustering>
<clus scale="   81.222">  5  6 -1 -1</clus>
<clus scale="   83.496">  2  9  1 -1</clus>
<clus scale="   90.428">  7  8 -1 -1</clus>
<clus scale="   90.695">  1  5  2 -1</clus>
<clus scale="   83.496">  2  5  1 -1</clus>
</clustering>
</event>
<event>
 9    2  0.4883225E-005  0.9204765E+02  0.7546771E-02  0.1302401E+00
         21   -1    0    0  501  502  0.00000000000E+00  0.00000000000E+00  0.14066525840E+02  0.14066525840E+02  0.00000000000E+00 0.  1.
          2   -1    0    0  502    0 -0.00000000000E+00 -0.00000000000E+00 -0.97581644094E+03  0.97581644094E+03  0.00000000000E+00 0. -1.
         24    2    1    2    0    0  0.16213449831E+02  0.59038535366E+00 -0.50812056201E+03  0.51514206044E+03  0.83196228200E+02 0.  0.
         23    2    1    2    0    0 -0.10394423052E+01 -0.37743410097E+02 -0.28541013072E+03  0.30180073019E+03  0.90548840854E+02 0.  0.
        -13    1    3    3    0    0 -0.17168376632E+02 -0.27260654968E+02 -0.10901658267E+03  0.11367722623E+03  0.00000000000E+00 0.  1.
         14    1    3    3    0    0  0.33381826464E+02  0.27851040322E+02 -0.39910397934E+03  0.40146483422E+03  0.00000000000E+00 0. -1.
        -11    1    4    4    0    0 -0.38020871691E+02 -0.11706740056E+01 -0.64777468789E+02  0.75120420822E+02  0.00000000000E+00 0.  1.
         11    1    4    4    0    0  0.36981429386E+02 -0.36572736092E+02 -0.22063266193E+03  0.22668030937E+03  0.00000000000E+00 0. -1.
          1    1    1    2  501    0 -0.15174007526E+02  0.37153024744E+02 -0.16821922237E+03  0.17294017615E+03  0.00000000000E+00 0. -1.
<scales pt_clust_5="13000.00000" pt_clust_6="13000.00000" pt_clust_7="13000.00000" pt_clust_8="13000.00000" pt_clust_9="40.13227"></scales>
<clustering>
<clus scale="   40.132">  1  9  2 -1</clus>
<clus scale="   83.196">  5  6 -1 -1</clus>
<clus scale="   84.825">  2  5  1 -1</clus>
<clus scale="   90.549">  7  8 -1 -1</clus>
<clus scale="   40.132">  1  5  2 -1</clus>
</clustering>
</event>
<event>
 9    2  0.7779163E-005  0.1310048E+03  0.7546771E-02  0.1228862E+00
          2   -1    0    0  502    0 -0.00000000000E+00  0.00000000000E+00  0.28221566668E+03  0.28221566668E+03  0.00000000000E+00 0. -1.
         21   -1    0    0  501  502  0.00000000000E+00 -0.00000000000E+00 -0.41865167325E+03  0.41865167325E+03  0.00000000000E+00 0.  1.
         23    2    1    2    0    0  0.24642255440E+02  0.91262900359E+02  0.24704315218E+03  0.27955824338E+03  0.90478365725E+02 0.  0.
         24    2    1    2    0    0 -0.52917968972E+02 -0.88702051156E+02 -0.36488073374E+03  0.38736833437E+03  0.79043730306E+02 0.  0.
        -11    1    4    4    0    0 -0.26541630193E+02 -0.69275054782E+02 -0.12573192075E+03  0.14598632554E+03  0.00000000000E+00 0.  1.
         12    1    4    4    0    0 -0.26376338780E+02 -0.19426996375E+02 -0.23914881298E+03  0.24138200883E+03  0.00000000000E+00 0. -1.
        -11    1    3    3    0    0 -0.21380666679E+02 -0.55126739238E-02  0.15351588608E+02  0.26321174191E+02  0.00000000000E+00 0.  1.
         11    1    3    3    0    0  0.46022922119E+02  0.91268413033E+02  0.23169156357E+03  0.25323706919E+03  0.00000000000E+00 0. -1.
          1    1    1    2  501    0  0.28275713532E+02 -0.25608492025E+01 -0.18598425013E+02  0.33940762180E+02  0.00000000000E+00 0. -1.
<scales pt_clust_5="13000.00000" pt_clust_6="13000.00000" pt_clust_7="13000.00000" pt_clust_8="13000.00000" pt_clust_9="28.39144"></scales>
<clustering>
<clus scale="   28.391">  2  9  1 -1</clus>
<clus scale="   79.044">  5  6 -1 -1</clus>
<clus scale="   90.478">  7  8 -1 -1</clus>
<clus scale="  123.385">  2  5  1 -1</clus>
<clus scale="   28.391">  2  5  1 -1</clus>
</clustering>
</event>
<event>
 9    2  0.4883225E-005  0.1112181E+03  0.7546771E-02  0.1261995E+00
          2   -1    0    0  502    0 -0.00000000000E+00  0.00000000000E+00  0.30349950028E+03  0.30349950028E+03  0.00000000000E+00 0. -1.
         21   -1    0    0  501  502  0.00000000000E+00 -0.00000000000E+00 -0.28263836318E+03  0.28263836318E+03  0.00000000000E+00 0. -1.
         23    2    1    2    0    0  0.61972988524E+02  0.94676827692E+01  0.16068233985E+03  0.19530212838E+03  0.91617785861E+02 0.  0.
         24    2    1    2    0    0 -0.51221570838E+02 -0.48668154625E+02  0.10011559745E+03  0.14748015561E+03  0.82067197163E+02 0.  0.
        -13    1    4    4    0    0 -0.28772182947E+02 -0.58263782172E+01 -0.67996627059E+01  0.30133380288E+02  0.00000000000E+00 0.  1.
         14    1    4    4    0    0 -0.22449387890E+02 -0.42841776408E+02  0.10691526016E+03  0.11734677532E+03  0.00000000000E+00 0. -1.
        -11    1    3    3    0    0  0.60821852623E+02  0.38893998484E+02  0.72425875439E+02  0.10226215482E+03  0.00000000000E+00 0. -1.
         11    1    3    3    0    0  0.11511359012E+01 -0.29426315714E+02  0.88256464408E+02  0.93039973561E+02  0.00000000000E+00 0.  1.
          1    1    1    2  501    0 -0.10751417686E+02  0.39200471856E+02 -0.23993680019E+03  0.24335557948E+03  0.00000000000E+00 0. -1.
<scales pt_clust_5="13000.00000" pt_clust_6="13000.00000" pt_clust_7="13000.00000" pt_clust_8="13000.00000" pt_clust_9="40.64812"></scales>
<clustering>
<clus scale="   40.648">  2  9  1 -1</clus>
<clus scale="   82.067">  5  6 -1 -1</clus>
<clus scale="   91.618">  7  8 -1 -1</clus>
<clus scale="  103.492">  2  5  1 -1</clus>
<clus scale="   40.648">  2  5  1 -1</clus>
</clustering>
</event>
<event>
 9    2  0.4883225E-005  0.1073228E+03  0.7546771E-02  0.1270513E+00
          2   -1    0    0  502    0 -0.00000000000E+00  0.00000000000E+00  0.64928075093E+03  0.64928075093E+03  0.00000000000E+00 0. -1.
         21   -1    0    0  501  502  0.00000000000E+00 -0.00000000000E+00 -0.26044694086E+03  0.26044694086E+03  0.00000000000E+00 0. -1.
         24    2    1    2    0    0  0.40687106313E+02 -0.44643144980E+02  0.54740764840E+03  0.55651440638E+03  0.80029369380E+02 0.  0.
         23    2    1    2    0    0  0.34129966400E+01  0.41074993823E+02  0.68661807010E+02  0.12171039278E+03  0.91652453899E+02 0.  0.
        -11    1    3    3    0    0 -0.14952558744E+02 -0.39033047801E+02  0.17446035098E+03  0.17939780349E+03  0.00000000000E+00 0.  1.
         12    1    3    3    0    0  0.55639665057E+02 -0.56100971798E+01  0.37294729743E+03  0.37711660289E+03  0.00000000000E+00 0. -1.
        -11    1    4    4    0    0 -0.18293437394E+02  0.46798511029E+02  0.81578427770E+02  0.95811222535E+02  0.00000000000E+00 0.  1.
         11    1    4    4    0    0  0.21706434034E+02 -0.57235172055E+01 -0.12916620760E+02  0.25899170248E+02  0.00000000000E+00 0. -1.
          1    1    1    2  501    0 -0.44100102953E+02  0.35681511572E+01 -0.22723564534E+03  0.23150289263E+03  0.00000000000E+00 0. -1.
<scales pt_clust_5="13000.00000" pt_clust_6="13000.00000" pt_clust_7="13000.00000" pt_clust_8="13000.00000" pt_clust_9="44.24422"></scales>
<clustering>
<clus scale="   44.244">  2  9  1 -1</clus>
<clus scale="   80.029">  5  6 -1 -1</clus>
<clus scale="   91.652">  7  8 -1 -1</clus>
<clus scale="   97.584">  1  5  2 -1</clus>
<clus scale="   44.244">  2  5  1 -1</clus>
</clustering>
</event>
<event>
 9    2  0.4883225E-005  0.1010385E+03  0.7546771E-02  0.1282680E+00
          2   -1    0    0  502    0 -0.00000000000E+00  0.00000000000E+00  0.82729457250E+02  0.82729457250E+02  0.00000000000E+00 0. -1.
         21   -1    0    0  501  502  0.00000000000E+00 -0.00000000000E+00 -0.21057695679E+03  0.21057695679E+03  0.00000000000E+00 0. -1.
         24    2    1    2    0    0  0.19306216449E+02  0.63467707620E+02 -0.52814297422E+02  0.11758892919E+03  0.81467333031E+02 0.  0.
         23    2    1    2    0    0 -0.59866195834E+01 -0.15744092751E+02 -0.84542858629E+02  0.12526564005E+03  0.90886025122E+02 0.  0.
        -13    1    3    3    0    0 -0.16804201394E+02  0.38731828524E+02  0.76875900761E+01  0.42914272293E+02  0.00000000000E+00 0.  1.
         14    1    3    3    0    0  0.36110417843E+02  0.24735879096E+02 -0.60501887498E+02  0.74674656894E+02  0.00000000000E+00 0. -1.
        -11    1    4    4    0    0  0.32524312290E+02  0.19657566087E+02 -0.22701977779E+02  0.44267714979E+02  0.00000000000E+00 0.  1.
         11    1    4    4    0    0 -0.38510931873E+02 -0.35401658838E+02 -0.61840880851E+02  0.80997925076E+02  0.00000000000E+00 0. -1.
          1    1    1    2  501    0 -0.13319596865E+02 -0.47723614869E+02  0.95096565087E+01  0.50451844800E+02  0.00000000000E+00 0. -1.
<scales pt_clust_5="13000.00000" pt_clust_6="13000.00000" pt_clust_7="13000.00000" pt_clust_8="13000.00000" pt_clust_9="49.54753"></scales>
<clustering>
<clus scale="   49.548">  2  9  1 -1</clus>
<clus scale="   81.467">  5  6 -1 -1</clus>
<clus scale="   90.886">  7  8 -1 -1</clus>
<clus scale="   92.658">  1  5  2 -1</clus>
<clus scale="   49.548">  2  5  1 -1</clus>
</clustering>
</event>
<event>
 9    2  0.4883225E-005  0.1646986E+03  0.7546771E-02  0.1185083E+00
         21   -1    0    0  501  502  0.00000000000E+00  0.00000000000E+00  0.18283969123E+03  0.18283969123E+03  0.00000000000E+00 0. -1.
          2   -1    0    0  502    0 -0.00000000000E+00 -0.00000000000E+00 -0.51598027929E+03  0.51598027929E+03  0.00000000000E+00 0. -1.
         24    2    1    2    0    0 -0.35239759145E+01  0.14138568984E+03 -0.42513922064E+03  0.45525039173E+03  0.80667406946E+02 0.  0.
         23    2    1    2    0    0  0.28508707618E+02 -0.11320975010E+03  0.45745545700E+01  0.14837982190E+03  0.91468306377E+02 0.  0.
        -13    1    3    3    0    0 -0.24930796143E+02  0.57002841625E+02 -0.93003676355E+02  0.11189527410E+03  0.00000000000E+00 0.  1.
         14    1    3    3    0    0  0.21406820229E+02  0.84382848215E+02 -0.33213554429E+03  0.34335511763E+03  0.00000000000E+00 0. -1.
        -11    1    4    4    0    0 -0.23073841218E+02 -0.12215256582E+02 -0.19327720495E+02  0.32483463815E+02  0.00000000000E+00 0.  1.
         11    1    4    4    0    0  0.51582548836E+02 -0.10099449351E+03  0.23902275065E+02  0.11589635809E+03  0.00000000000E+00 0. -1.
          1    1    1    2  501    0 -0.24984731704E+02 -0.28175939745E+02  0.87424078019E+02  0.95189756887E+02  0.00000000000E+00 0. -1.
<scales pt_clust_5="13000.00000" pt_clust_6="13000.00000" pt_clust_7="13000.00000" pt_clust_8="13000.00000" pt_clust_9="37.65794"></scales>
<clustering>
<clus scale="   37.658">  1  9  2 -1</clus>
<clus scale="   80.667">  5  6 -1 -1</clus>
<clus scale="   91.468">  7  8 -1 -1</clus>
<clus scale="  158.954">  2  5  1 -1</clus>
<clus scale="   37.658">  1  5  2 -1</clus>
</clustering>
</event>
<event>
 9    2  0.4883225E-005  0.1283332E+03  0.7546771E-02  0.1232833E+00
          2   -1    0    0  502    0 -0.00000000000E+00  0.00000000000E+00  0.53475797926E+03  0.53475797926E+03  0.00000000000E+00 0. -1.
         21   -1    0    0  501  502  0.00000000000E+00 -0.00000000000E+00 -0.39326013739E+02  0.39326013739E+02  0.00000000000E+00 0.  1.
         23    2    1    2    0    0  0.84659028797E+02  0.16430269284E+02  0.21361039637E+03  0.24763850761E+03  0.90875321773E+02 0.  0.
         24    2    1    2    0    0 -0.97340108793E+02  0.14970665155E+02  0.18928920354E+03  0.22791088660E+03  0.80085904245E+02 0.  0.
        -13    1    4    4    0    0 -0.12529228420E+02 -0.22117525715E+02  0.83782820159E+02  0.87554140179E+02  0.00000000000E+00 0.  1.
         14    1    4    4    0    0 -0.84810880373E+02  0.37088190870E+02  0.10550638338E+03  0.14035674642E+03  0.00000000000E+00 0. -1.
        -11    1    3    3    0    0  0.26096550458E+02  0.13399416622E+02  0.17496852143E+03  0.17741070374E+03  0.00000000000E+00 0.  1.
         11    1    3    3    0    0  0.58562478339E+02  0.30308526624E+01  0.38641874948E+02  0.70227803871E+02  0.00000000000E+00 0. -1.
          1    1    1    2  501    0  0.12681079996E+02 -0.31400934439E+02  0.92532365611E+02  0.98534598792E+02  0.00000000000E+00 0. -1.
<scales pt_clust_5="13000.00000" pt_clust_6="13000.00000" pt_clust_7="13000.00000" pt_clust_8="13000.00000" pt_clust_9="33.86487"></scales>
<clustering>
<clus scale="   33.865">  2  9  1 -1</clus>
<clus scale="   80.086">  5  6 -1 -1</clus>
<clus scale="   90.875">  7  8 -1 -1</clus>
<clus scale="  120.933">  2  5  1 -1</clus>
<clus scale="   33.865">  2  5  1 -1</clus>
</clustering>
</event>
<event>
 9    2  0.4883225E-005  0.1378702E+03  0.7546771E-02  0.1238247E+00
          4   -1    0    0  502    0 -0.00000000000E+00  0.00000000000E+00  0.47824299924E+02  0.47824299924E+02  0.00000000000E+00 0. -1.
         21   -1    0    0  501  502  0.00000000000E+00 -0.00000000000E+00 -0.60298709469E+03  0.60298709469E+03  0.00000000000E+00 0. -1.
         24    2    1    2    0    0  0.23448629843E+01  0.41015455155E+02 -0.80645171175E+02  0.11885303336E+03  0.77036575481E+02 0.  0.
         23    2    1    2    0    0  0.70454748285E+02  0.36605780770E+02 -0.19184105975E+03  0.22991386219E+03  0.98759997368E+02 0.  0.
        -13    1    3    3    0    0  0.38684435035E+02  0.15018945623E+02 -0.48386080394E+02  0.63743760616E+02  0.00000000000E+00 0.  1.
         14    1    3    3    0    0 -0.36339572051E+02  0.25996509532E+02 -0.32259090781E+02  0.55109272747E+02  0.00000000000E+00 0. -1.
        -11    1    4    4    0    0  0.39985479540E+01 -0.28723097283E+02 -0.22808185301E+02  0.36894688236E+02  0.00000000000E+00 0.  1.
         11    1    4    4    0    0  0.66456200331E+02  0.65328878053E+02 -0.16903287445E+03  0.19301917396E+03  0.00000000000E+00 0. -1.
          3    1    1    2  501    0 -0.72799611269E+02 -0.77621235925E+02 -0.28267656384E+03  0.30204449906E+03  0.00000000000E+00 0. -1.
<scales pt_clust_5="13000.00000" pt_clust_6="13000.00000" pt_clust_7="13000.00000" pt_clust_8="13000.00000" pt_clust_9="96.20114"></scales>
<clustering>
<clus scale="   77.037">  5  6 -1 -1</clus>
<clus scale="   87.306">  1  5  2 -1</clus>
<clus scale="   96.201">  2  9  1 -1</clus>
<clus scale="   98.760">  7  8 -1 -1</clus>
<clus scale="   96.201">  2  5  1 -1</clus>
</clustering>
</event>
<event>
 9    2  0.4883225E-005  0.1021713E+03  0.7546771E-02  0.1280059E+00
         -3   -1    0    0    0  501 -0.00000000000E+00  0.00000000000E+00  0.10373831360E+03  0.10373831360E+03  0.00000000000E+00 0.  1.
         21   -1    0    0  501  502  0.00000000000E+00 -0.00000000000E+00 -0.16011962167E+03  0.16011962167E+03  0.00000000000E+00 0. -1.
         24    2    1    2    0    0  0.35364715924E+02 -0.48338696968E+02  0.25102203374E+02  0.10430283527E+03  0.81619042352E+02 0.  0.
         23    2    1    2    0    0 -0.21618685414E+02  0.14533862818E+02 -0.35478685820E+02  0.10083402927E+03  0.90720249024E+02 0.  0.
        -11    1    3    3    0    0  0.57436981520E+02 -0.33060340904E+02  0.35896739105E+02  0.75369548660E+02  0.00000000000E+00 0.  1.
         12    1    3    3    0    0 -0.22072265596E+02 -0.15278356063E+02 -0.10794535730E+02  0.28933286612E+02  0.00000000000E+00 0. -1.
        -13    1    4    4    0    0 -0.43321066824E+02 -0.18978117455E+02 -0.38228890733E+02  0.60813911727E+02  0.00000000000E+00 0. -1.
         13    1    4    4    0    0  0.21702381410E+02  0.33511980273E+02  0.27502049127E+01  0.40020117538E+02  0.00000000000E+00 0.  1.
         -4    1    1    2    0  502 -0.13746030510E+02  0.33804834150E+02 -0.46004825631E+02  0.58721070733E+02  0.00000000000E+00 0.  1.
<scales pt_clust_5="13000.00000" pt_clust_6="13000.00000" pt_clust_7="13000.00000" pt_clust_8="13000.00000" pt_clust_9="36.49274"></scales>
<clustering>
<clus scale="   36.493">  2  9  1 -1</clus>
<clus scale="   81.619">  5  6 -1 -1</clus>
<clus scale="   90.720">  7  8 -1 -1</clus>
<clus scale="   94.183">  1  5  2 -1</clus>
<clus scale="   36.493">  2  5  1 -1</clus>
</clustering>
</event>
<event>
 9    2  0.4883225E-005  0.1197040E+03  0.7546771E-02  0.1245171E+00
         21   -1    0    0  501  502  0.00000000000E+00  0.00000000000E+00  0.10728684936E+03  0.10728684936E+03  0.00000000000E+00 0.  1.
         -1   -1    0    0    0  501 -0.00000000000E+00 -0.00000000000E+00 -0.49171113085E+03  0.49171113085E+03  0.00000000000E+00 0.  1.
         23    2    1    2    0    0 -0.91891846537E+02  0.29953440258E+02 -0.26167713907E+03  0.28974263430E+03  0.78323361626E+02 0.  0.
         24    2    1    2    0    0  0.82314145299E+01 -0.10968310624E+03 -0.13474143211E+03  0.19306691917E+03  0.83794043786E+02 0.  0.
        -13    1    4    4    0    0  0.30085439747E+02 -0.11179461192E+03 -0.10660596969E+03  0.15737853003E+03  0.00000000000E+00 0.  1.
         14    1    4    4    0    0 -0.21854025218E+02  0.21115056857E+01 -0.28135462420E+02  0.35688389149E+02  0.00000000000E+00 0. -1.
        -13    1    3    3    0    0 -0.47042278392E+02  0.42620988001E+01 -0.21490557291E+03  0.22003533060E+03  0.00000000000E+00 0. -1.
         13    1    3    3    0    0 -0.44849568145E+02  0.25691341458E+02 -0.46771566157E+02  0.69707303703E+02  0.00000000000E+00 0.  1.
         -2    1    1    2    0  502  0.83660432007E+02  0.79729665978E+02  0.11994289688E+02  0.11618842673E+03  0.00000000000E+00 0.  1.
<scales pt_clust_5="13000.00000" pt_clust_6="13000.00000" pt_clust_7="13000.00000" pt_clust_8="13000.00000" pt_clust_9="115.56768"></scales>
<clustering>
<clus scale="   78.323">  7  8 -1 -1</clus>
<clus scale="   83.794">  5  6 -1 -1</clus>
<clus scale="  115.568">  1  9  2 -1</clus>
<clus scale="  115.940">  2  7  1 -1</clus>
<clus scale="  115.568">  1  5  2 -1</clus>
</clustering>
</event>
<event>
 9    2  0.4883225E-005  0.9516920E+02  0.7546771E-02  0.1298046E+00
         -1   -1    0    0    0  501 -0.00000000000E+00  0.00000000000E+00  0.74825115730E+02  0.74825115730E+02  0.00000000000E+00 0.  1.
         21   -1    0    0  501  502  0.00000000000E+00 -0.00000000000E+00 -0.22186032479E+03  0.22186032479E+03  0.00000000000E+00 0.  1.
         23    2    1    2    0    0  0.32469061239E+01  0.32232039625E+02  0.10504509198E+02  0.98756121195E+02  0.92698327828E+02 0.  0.
         24    2    1    2    0    0  0.29754541965E+01  0.30772776921E+01 -0.85083519298E+02  0.11708770612E+03  0.80324359339E+02 0.  0.
        -11    1    4    4    0    0 -0.20950740574E+02  0.19596791905E+02 -0.83137329344E+02  0.87947616875E+02  0.00000000000E+00 0.  1.
         12    1    4    4    0    0  0.23926194770E+02 -0.16519514212E+02 -0.19461899536E+01  0.29140089247E+02  0.00000000000E+00 0. -1.
        -11    1    3    3    0    0  0.34928616230E+02  0.50406793210E+02  0.25704811260E+01  0.61379641631E+02  0.00000000000E+00 0.  1.
         11    1    3    3    0    0 -0.31681710106E+02 -0.18174753585E+02  0.79340280720E+01  0.37376479564E+02  0.00000000000E+00 0. -1.
         -2    1    1    2    0  502 -0.62223603205E+01 -0.35309317317E+02 -0.72456198960E+02  0.80841613202E+02  0.00000000000E+00 0.  1.
<scales pt_clust_5="13000.00000" pt_clust_6="13000.00000" pt_clust_7="13000.00000" pt_clust_8="13000.00000" pt_clust_9="35.85339"></scales>
<clustering>
<clus scale="   35.853">  2  9  1 -1</clus>
<clus scale="   80.324">  5  6 -1 -1</clus>
<clus scale="   83.164">  2  5  1 -1</clus>
<clus scale="   92.698">  7  8 -1 -1</clus>
<clus scale="   35.853">  2  5  1 -1</clus>
</clustering>
</event>
<event>
 9    2  0.4883225E-005  0.1259569E+03  0.7546771E-02  0.1247608E+00
         21   -1    0    0  501  502  0.00000000000E+00  0.00000000000E+00  0.26665656793E+02  0.26665656793E+02  0.00000000000E+00 0. -1.
          2   -1    0    0  502    0 -0.00000000000E+00 -0.00000000000E+00 -0.20812379765E+04  0.20812379765E+04  0.00000000000E+00 0. -1.
         23    2    1    2    0    0 -0.99968364456E+01  0.20491262682E+02 -0.20586358307E+03  0.22662553598E+03  0.91975486607E+02 0.  0.
         24    2    1    2    0    0  0.95358197615E+02  0.22373599783E+02 -0.16982961173E+04  0.17030986528E+04  0.82106973565E+02 0.  0.
        -13    1    4    4    0    0  0.18073612027E+02  0.13733801043E+02 -0.86540318097E+02  0.89467867970E+02  0.00000000000E+00 0.  1.
         14    1    4    4    0    0  0.77284585588E+02  0.86397987406E+01 -0.16117557992E+04  0.16136307848E+04  0.00000000000E+00 0. -1.
        -13    1    3    3    0    0  0.21580467128E+02 -0.22487277907E+02 -0.31601804698E+02  0.44385451325E+02  0.00000000000E+00 0. -1.
         13    1    3    3    0    0 -0.31577303573E+02  0.42978540590E+02 -0.17426177837E+03  0.18224008465E+03  0.00000000000E+00 0.  1.
          1    1    1    2  501    0 -0.85361361169E+02 -0.42864862466E+02 -0.15041261935E+03  0.17817944459E+03  0.00000000000E+00 0. -1.
<scales pt_clust_5="13000.00000" pt_clust_6="13000.00000" pt_clust_7="13000.00000" pt_clust_8="13000.00000" pt_clust_9="95.51746"></scales>
<clustering>
<clus scale="   82.107">  5  6 -1 -1</clus>
<clus scale="   91.975">  7  8 -1 -1</clus>
<clus scale="   94.759">  2  7  1 -1</clus>
<clus scale="   95.517">  1  9  2 -1</clus>
<clus scale="   95.517">  1  5  2 -1</clus>
</clustering>
</event>
<event>
 9    2  0.4883225E-005  0.9525010E+02  0.7546771E-02  0.1294883E+00
          2   -1    0    0  502    0 -0.00000000000E+00  0.00000000000E+00  0.70612838445E+03  0.70612838445E+03  0.00000000000E+00 0. -1.
         21   -1    0    0  501  502  0.00000000000E+00 -0.00000000000E+00 -0.32102176064E+03  0.32102176064E+03  0.00000000000E+00 0.  1.
         24    2    1    2    0    0 -0.68222937617E+01  0.28926608502E+02  0.67989141629E+03  0.68556810161E+03  0.82873346894E+02 0.  0.
         23    2    1    2    0    0  0.14759865966E+02 -0.50391493486E+00 -0.29808179773E+03  0.31188819217E+03  0.90572505241E+02 0.  0.
        -13    1    3    3    0    0  0.75218046001E+00  0.43781024912E+02  0.17478021762E+03  0.18018176487E+03  0.00000000000E+00 0.  1.
         14    1    3    3    0    0 -0.75744742217E+01 -0.14854416410E+02  0.50511119867E+03  0.50538633674E+03  0.00000000000E+00 0. -1.
        -13    1    4    4    0    0  0.45898273207E+02  0.10167133947E+02 -0.24469230366E+03  0.24916730437E+03  0.00000000000E+00 0.  1.
         13    1    4    4    0    0 -0.31138407242E+02 -0.10671048882E+02 -0.53389494061E+02  0.62720887796E+02  0.00000000000E+00 0. -1.
          1    1    1    2  501    0 -0.79375722041E+01 -0.28422693568E+02  0.32970052470E+01  0.29693851312E+02  0.00000000000E+00 0. -1.
<scales pt_clust_5="13000.00000" pt_clust_6="13000.00000" pt_clust_7="13000.00000" pt_clust_8="13000.00000" pt_clust_9="29.51025"></scales>
<clustering>
<clus scale="   29.510">  2  9  1 -1</clus>
<clus scale="   82.873">  5  6 -1 -1</clus>
<clus scale="   87.961">  1  5  2 -1</clus>
<clus scale="   90.573">  7  8 -1 -1</clus>
<clus scale="   29.510">  2  5  1 -1</clus>
</clustering>
</event>
<event>
 9    2  0.4883225E-005  0.1013574E+03  0.7546771E-02  0.1280975E+00
          2   -1    0    0  502    0 -0.00000000000E+00  0.00000000000E+00  0.13970719503E+04  0.13970719503E+04  0.00000000000E+00 0. -1.
         21   -1    0    0  501  502  0.00000000000E+00 -0.00000000000E+00 -0.17900666220E+02  0.17900666220E+02  0.00000000000E+00 0.  1.
         24    2    1    2    0    0  0.44013510186E+02 -0.17273942220E+02  0.10930178363E+04  0.10969981506E+04  0.80506979068E+02 0.  0.
         23    2    1    2    0    0 -0.68623516696E+02  0.83326117997E+01  0.24150843451E+03  0.26621756285E+03  0.88129718977E+02 0.  0.
        -13    1    3    3    0    0 -0.30145869685E+01 -0.24420188180E+02  0.10534156182E+03  0.10817706768E+03  0.00000000000E+00 0.  1.
         14    1    3    3    0    0  0.47028097155E+02  0.71462459600E+01  0.98767627452E+03  0.98882108291E+03  0.00000000000E+00 0. -1.
        -11    1    4    4    0    0 -0.87161414773E+02  0.20161904223E+02  0.18259182639E+03  0.20333073961E+03  0.00000000000E+00 0.  1.
         11    1    4    4    0    0  0.18537898078E+02 -0.11829292423E+02  0.58916608120E+02  0.62886823236E+02  0.00000000000E+00 0. -1.
          1    1    1    2  501    0  0.24610006509E+02  0.89413304199E+01  0.44645013214E+02  0.51756903066E+02  0.00000000000E+00 0. -1.
<scales pt_clust_5="13000.00000" pt_clust_6="13000.00000" pt_clust_7="13000.00000" pt_clust_8="13000.00000" pt_clust_9="26.18396"></scales>
<clustering>
<clus scale="   26.184">  2  9  1 -1</clus>
<clus scale="   80.507">  5  6 -1 -1</clus>
<clus scale="   88.130">  7  8 -1 -1</clus>
<clus scale="   94.804">  1  5  2 -1</clus>
<clus scale="   26.184">  2  5  1 -1</clus>
</clustering>
</event>
<event>
 9    2  0.4883225E-005  0.1542368E+03  0.7546771E-02  0.1209427E+00
          2   -1    0    0  502    0 -0.00000000000E+00  0.00000000000E+00  0.74760404310E+03  0.74760404310E+03  0.00000000000E+00 0. -1.
         21   -1    0    0  501  502  0.00000000000E+00 -0.00000000000E+00 -0.76053094775E+02  0.76053094775E+02  0.00000000000E+00 0. -1.
         24    2    1    2    0    0 -0.20518734228E+02  0.78484908008E+02  0.29289004652E+03  0.31421229163E+03  0.79773965828E+02 0.  0.
         23    2    1    2    0    0 -0.91656366516E+02 -0.19809467320E+01  0.34659256039E+03  0.36992965768E+03  0.91196135013E+02 0.  0.
        -11    1    3    3    0    0 -0.25466756326E+02 -0.78566575110E+01  0.84028556976E+02  0.88153735783E+02  0.00000000000E+00 0.  1.
         12    1    3    3    0    0  0.49480220974E+01  0.86341565519E+02  0.20886148954E+03  0.22605855585E+03  0.00000000000E+00 0. -1.
        -11    1    4    4    0    0 -0.42469078580E+02 -0.16314504851E+02  0.44908479855E+02  0.63926186081E+02  0.00000000000E+00 0.  1.
         11    1    4    4    0    0 -0.49187287936E+02  0.14333558119E+02  0.30168408054E+03  0.30600347160E+03  0.00000000000E+00 0. -1.
          1    1    1    2  501    0  0.11217510074E+03 -0.76503961276E+02  0.32068341414E+02  0.13951518856E+03  0.00000000000E+00 0. -1.
<scales pt_clust_5="13000.00000" pt_clust_6="13000.00000" pt_clust_7="13000.00000" pt_clust_8="13000.00000" pt_clust_9="124.38750"></scales>
<clustering>
<clus scale="   79.774">  5  6 -1 -1</clus>
<clus scale="   91.196">  7  8 -1 -1</clus>
<clus scale="  113.775">  1  5  2 -1</clus>
<clus scale="  124.387">  2  9  1 -1</clus>
<clus scale="  124.387">  2  5  1 -1</clus>
</clustering>
</event>
<event>
 9    2  0.4883225E-005  0.1733297E+03  0.7546771E-02  0.1175797E+00
         21   -1    0    0  501  502  0.00000000000E+00  0.00000000000E+00  0.73185705831E+03  0.73185705831E+03  0.00000000000E+00 0. -1.
          4   -1    0    0  502    0 -0.00000000000E+00 -0.00000000000E+00 -0.80719800589E+02  0.80719800589E+02  0.00000000000E+00 0. -1.
         24    2    1    2    0    0 -0.45480514380E+02  0.12044421337E+03  0.23030508432E+03  0.27599271047E+03  0.80970727093E+02 0.  0.
         23    2    1    2    0    0  0.15419897521E+03 -0.11161380485E+03  0.34214991999E+03  0.40209036849E+03  0.91515743410E+02 0.  0.
        -11    1    3    3    0    0  0.23282334337E+02  0.38497812488E+02  0.73380519551E+02  0.86074672861E+02  0.00000000000E+00 0.  1.
         12    1    3    3    0    0 -0.68762848716E+02  0.81946400880E+02  0.15692456477E+03  0.18991803761E+03  0.00000000000E+00 0. -1.
        -11    1    4    4    0    0  0.15009035404E+03 -0.63720880790E+02  0.25937455960E+03  0.30637008208E+03  0.00000000000E+00 0. -1.
         11    1    4    4    0    0  0.41086211770E+01 -0.47892924064E+02  0.82775360388E+02  0.95720286412E+02  0.00000000000E+00 0.  1.
          3    1    1    2  501    0 -0.10871846084E+03 -0.88304085142E+01  0.78682253412E+02  0.13449377994E+03  0.00000000000E+00 0. -1.
<scales pt_clust_5="13000.00000" pt_clust_6="13000.00000" pt_clust_7="13000.00000" pt_clust_8="13000.00000" pt_clust_9="109.07654"></scales>
<clustering>
<clus scale="   80.971">  5  6 -1 -1</clus>
<clus scale="   91.516">  7  8 -1 -1</clus>
<clus scale="  109.077">  1  9  2 -1</clus>
<clus scale="  168.001">  2  5  1 -1</clus>
<clus scale="  109.077">  1  5  2 -1</clus>
</clustering>
</event>
<event>
 9    2  0.4883225E-005  0.1164591E+03  0.7546771E-02  0.1253621E+00
          2   -1    0    0  502    0 -0.00000000000E+00  0.00000000000E+00  0.66427350088E+02  0.66427350088E+02  0.00000000000E+00 0. -1.
         21   -1    0    0  501  502  0.00000000000E+00 -0.00000000000E+00 -0.45179148729E+03  0.45179148729E+03  0.00000000000E+00 0. -1.
         24    2    1    2    0    0  0.69953094132E+02  0.14620720178E+02 -0.84983097298E+00  0.10720838638E+03  0.79910669258E+02 0.  0.
         23    2    1    2    0    0 -0.58159323088E+02 -0.31349773611E+02 -0.24798084650E+03  0.27295126119E+03  0.92965453722E+02 0.  0.
        -13    1    3    3    0    0  0.66195387338E+00  0.34378111095E+02 -0.62718056654E+01  0.34951798977E+02  0.00000000000E+00 0.  1.
         14    1    3    3    0    0  0.69291140259E+02 -0.19757390917E+02  0.54219746924E+01  0.72256587407E+02  0.00000000000E+00 0. -1.
        -11    1    4    4    0    0 -0.75278041914E+02 -0.39711024534E+01 -0.12654979973E+03  0.14730039057E+03  0.00000000000E+00 0.  1.
         11    1    4    4    0    0  0.17118718826E+02 -0.27378671158E+02 -0.12143104676E+03  0.12565087062E+03  0.00000000000E+00 0. -1.
          1    1    1    2  501    0 -0.11793771044E+02  0.16729053433E+02 -0.13653345974E+03  0.13805918981E+03  0.00000000000E+00 0. -1.
<scales pt_clust_5="13000.00000" pt_clust_6="13000.00000" pt_clust_7="13000.00000" pt_clust_8="13000.00000" pt_clust_9="20.46837"></scales>
<clustering>
<clus scale="   20.468">  2  9  1 -1</clus>
<clus scale="   79.911">  5  6 -1 -1</clus>
<clus scale="   92.965">  7  8 -1 -1</clus>
<clus scale="  106.329">  1  5  2 -1</clus>
<clus scale="   20.468">  2  5  1 -1</clus>
</clustering>
</event>
<event>
 9    2  0.4883225E-005  0.1904740E+03  0.7546771E-02  0.1159135E+00
         21   -1    0    0  501  502  0.00000000000E+00  0.00000000000E+00  0.16848859954E+03  0.16848859954E+03  0.00000000000E+00 0. -1.
          2   -1    0    0  502    0 -0.00000000000E+00 -0.00000000000E+00 -0.79393694264E+03  0.79393694264E+03  0.00000000000E+00 0. -1.
         24    2    1    2    0    0  0.20845744144E+02  0.16288728691E+03 -0.66599113807E+03  0.69063040114E+03  0.80370029900E+02 0.  0.
         23    2    1    2    0    0 -0.26219591848E+02 -0.20186068960E+03  0.55401967850E+02  0.22974042222E+03  0.90972955107E+02 0.  0.
        -13    1    3    3    0    0 -0.20989936154E+02  0.10083425927E+02 -0.11399654920E+03  0.11635061722E+03  0.00000000000E+00 0.  1.
         14    1    3    3    0    0  0.41835680298E+02  0.15280386098E+03 -0.55199458887E+03  0.57427978392E+03  0.00000000000E+00 0. -1.
        -11    1    4    4    0    0  0.26399725746E+02 -0.71207217716E+02 -0.58049086748E+01  0.76165020443E+02  0.00000000000E+00 0.  1.
         11    1    4    4    0    0 -0.52619317593E+02 -0.13065347188E+03  0.61206876524E+02  0.15357540178E+03  0.00000000000E+00 0. -1.
          1    1    1    2  501    0  0.53738477042E+01  0.38973402689E+02 -0.14859172886E+02  0.42054718822E+02  0.00000000000E+00 0. -1.
<scales pt_clust_5="13000.00000" pt_clust_6="13000.00000" pt_clust_7="13000.00000" pt_clust_8="13000.00000" pt_clust_9="39.34214"></scales>
<clustering>
<clus scale="   39.342">  1  9  2 -1</clus>
<clus scale="   80.370">  5  6 -1 -1</clus>
<clus scale="   90.973">  7  8 -1 -1</clus>
<clus scale="  185.644">  2  5  1 -1</clus>
<clus scale="   39.342">  1  5  2 -1</clus>
</clustering>
</event>
<event>
 9    2  0.4883225E-005  0.9324335E+02  0.7546771E-02  0.1302227E+00
         21   -1    0    0  501  502  0.00000000000E+00  0.00000000000E+00  0.26306849383E+02  0.26306849383E+02  0.00000000000E+00 0. -1.
          2   -1    0    0  502    0 -0.00000000000E+00 -0.00000000000E+00 -0.42462300365E+03  0.42462300365E+03  0.00000000000E+00 0. -1.
         23    2    1    2    0    0  0.22641202866E+01 -0.14796910121E+02 -0.21241437473E+03  0.23162587616E+03  0.91140578935E+02 0.  0.
         24    2    1    2    0    0  0.21138534318E+02  0.19997337803E+02 -0.17175006245E+03  0.19146515888E+03  0.79461260743E+02 0.  0.
        -13    1    4    4    0    0 -0.34108979177E+01 -0.27381609479E+02 -0.34306068092E+02  0.44026049905E+02  0.00000000000E+00 0.  1.
         14    1    4    4    0    0  0.24549432235E+02  0.47378947282E+02 -0.13744399436E+03  0.14743910897E+03  0.00000000000E+00 0. -1.
        -11    1    3    3    0    0  0.19520347609E+02  0.34298918620E+02 -0.10747294192E+03  0.11448970711E+03  0.00000000000E+00 0.  1.
         11    1    3    3    0    0 -0.17256227322E+02 -0.49095828741E+02 -0.10494143281E+03  0.11713616905E+03  0.00000000000E+00 0. -1.
          1    1    1    2  501    0 -0.23402654604E+02 -0.52004276824E+01 -0.14151717086E+02  0.27838817990E+02  0.00000000000E+00 0. -1.
<scales pt_clust_5="13000.00000" pt_clust_6="13000.00000" pt_clust_7="13000.00000" pt_clust_8="13000.00000" pt_clust_9="23.97350"></scales>
<clustering>
<clus scale="   23.973">  1  9  2 -1</clus>
<clus scale="   79.461">  5  6 -1 -1</clus>
<clus scale="   81.865">  1  5  2 -1</clus>
<clus scale="   91.141">  7  8 -1 -1</clus>
<clus scale="   23.973">  1  5  2 -1</clus>
</clustering>
</event>
<event>
 9    2  0.4883225E-005  0.9540304E+02  0.7546771E-02  0.1297759E+00
          2   -1    0    0  502    0 -0.00000000000E+00  0.00000000000E+00  0.78951249208E+03  0.78951249208E+03  0.00000000000E+00 0. -1.
         21   -1    0    0  501  502  0.00000000000E+00 -0.00000000000E+00 -0.24271120265E+02  0.24271120265E+02  0.00000000000E+00 0. -1.
         24    2    1    2    0    0 -0.24600252444E+02 -0.15543347219E+01  0.53962407556E+03  0.54607149036E+03  0.79952118696E+02 0.  0.
         23    2    1    2    0    0  0.25267033214E+01  0.38653381890E+02  0.14838987416E+03  0.17923808288E+03  0.92769970575E+02 0.  0.
        -11    1    3    3    0    0  0.16763143406E+02 -0.28531426650E+02  0.17299463701E+03  0.17613117191E+03  0.00000000000E+00 0.  1.
         12    1    3    3    0    0 -0.41363395851E+02  0.26977091928E+02  0.36662943856E+03  0.36994031846E+03  0.00000000000E+00 0. -1.
        -13    1    4    4    0    0 -0.41953171663E+02  0.28901270538E+02  0.10317378024E+03  0.11506598533E+03  0.00000000000E+00 0.  1.
         13    1    4    4    0    0  0.44479874984E+02  0.97521113520E+01  0.45216093916E+02  0.64172097546E+02  0.00000000000E+00 0. -1.
          1    1    1    2  501    0  0.22073549123E+02 -0.37099047168E+02  0.77227422091E+02  0.88474039099E+02  0.00000000000E+00 0. -1.
<scales pt_clust_5="13000.00000" pt_clust_6="13000.00000" pt_clust_7="13000.00000" pt_clust_8="13000.00000" pt_clust_9="43.16921"></scales>
<clustering>
<clus scale="   43.169">  2  9  1 -1</clus>
<clus scale="   79.952">  5  6 -1 -1</clus>
<clus scale="   82.993">  1  5  2 -1</clus>
<clus scale="   92.770">  7  8 -1 -1</clus>
<clus scale="   43.169">  2  5  1 -1</clus>
</clustering>
</event>
<event>
 9    2  0.4883225E-005  0.1178226E+03  0.7546771E-02  0.1255748E+00
          2   -1    0    0  502    0 -0.00000000000E+00  0.00000000000E+00  0.37547369844E+03  0.37547369844E+03  0.00000000000E+00 0. -1.
         21   -1    0    0  501  502  0.00000000000E+00 -0.00000000000E+00 -0.86146114594E+02  0.86146114594E+02  0.00000000000E+00 0. -1.
         24    2    1    2    0    0  0.39930461914E+02  0.34747966664E+02  0.13749137504E+03  0.16852964555E+03  0.81832146752E+02 0.  0.
         23    2    1    2    0    0 -0.79331749497E+02  0.46121951075E+01 -0.21407367274E+00  0.13116125654E+03  0.10434764285E+03 0.  0.
        -11    1    3    3    0    0  0.45596443310E+02  0.19371546578E+02  0.26207590034E+02  0.56045786949E+02  0.00000000000E+00 0.  1.
         12    1    3    3    0    0 -0.56659813958E+01  0.15376420086E+02  0.11128378501E+03  0.11248385860E+03  0.00000000000E+00 0. -1.
        -11    1    4    4    0    0 -0.10457456130E+02  0.42450977991E+02  0.22757725568E+02  0.49288517873E+02  0.00000000000E+00 0.  1.
         11    1    4    4    0    0 -0.68874293366E+02 -0.37838782884E+02 -0.22971799240E+02  0.81872738669E+02  0.00000000000E+00 0. -1.
          1    1    1    2  501    0  0.39401287583E+02 -0.39360161772E+02  0.15205028247E+03  0.16192891094E+03  0.00000000000E+00 0. -1.
<scales pt_clust_5="13000.00000" pt_clust_6="13000.00000" pt_clust_7="13000.00000" pt_clust_8="13000.00000" pt_clust_9="55.69279"></scales>
<clustering>
<clus scale="   55.693">  2  9  1 -1</clus>
<clus scale="   81.832">  5  6 -1 -1</clus>
<clus scale="   98.439">  1  5  2 -1</clus>
<clus scale="  104.348">  7  8 -1 -1</clus>
<clus scale="   55.693">  2  5  1 -1</clus>
</clustering>
</event>
<event>
 9    2  0.4883225E-005  0.1373717E+03  0.7546771E-02  0.1218893E+00
         21   -1    0    0  501  502  0.00000000000E+00  0.00000000000E+00  0.79551379293E+02  0.79551379293E+02  0.00000000000E+00 0. -1.
          4   -1    0    0  502    0 -0.00000000000E+00 -0.00000000000E+00 -0.49455897902E+03  0.49455897902E+03  0.00000000000E+00 0. -1.
         24    2    1    2    0    0 -0.89820885916E+02  0.51565971653E+02 -0.35417582248E+03  0.37741427627E+03  0.79209732506E+02 0.  0.
         23    2    1    2    0    0  0.80156393811E+02 -0.83201445316E+02 -0.71408419950E+02  0.16196754951E+03  0.88242827936E+02 0.  0.
        -11    1    3    3    0    0 -0.62675351456E+02  0.69051865621E+02 -0.30185574952E+03  0.31593235565E+03  0.00000000000E+00 0.  1.
         12    1    3    3    0    0 -0.27145534461E+02 -0.17485893968E+02 -0.52320072957E+02  0.61481920621E+02  0.00000000000E+00 0. -1.
        -13    1    4    4    0    0  0.17629786775E+02 -0.59828192586E+02  0.24423719120E+01  0.62419445612E+02  0.00000000000E+00 0. -1.
         13    1    4    4    0    0  0.62526607036E+02 -0.23373252729E+02 -0.73850791862E+02  0.99548103896E+02  0.00000000000E+00 0.  1.
          3    1    1    2  501    0  0.96644921049E+01  0.31635473663E+02  0.10576642699E+02  0.34728532539E+02  0.00000000000E+00 0. -1.
<scales pt_clust_5="13000.00000" pt_clust_6="13000.00000" pt_clust_7="13000.00000" pt_clust_8="13000.00000" pt_clust_9="33.07878"></scales>
<clustering>
<clus scale="   33.079">  1  9  2 -1</clus>
<clus scale="   79.210">  5  6 -1 -1</clus>
<clus scale="   88.243">  7  8 -1 -1</clus>
<clus scale="  131.751">  2  5  1 -1</clus>
<clus scale="   33.079">  1  5  2 -1</clus>
</clustering>
</event>
<event>
 9    2  0.4883225E-005  0.1854362E+03  0.7546771E-02  0.1180969E+00
         21   -1    0    0  501  502  0.00000000000E+00  0.00000000000E+00  0.23719385230E+03  0.23719385230E+03  0.00000000000E+00 0. -1.
          2   -1    0    0  502    0 -0.00000000000E+00 -0.00000000000E+00 -0.45748490647E+03  0.45748490647E+03  0.00000000000E+00 0. -1.
         24    2    1    2    0    0  0.65108096302E+01  0.92953588643E+02 -0.29424079548E+03  0.31856812361E+03  0.78900211497E+02 0.  0.
         23    2    1    2    0    0  0.14128878806E+03  0.16518584596E+02 -0.22761820665E+02  0.16830783439E+03  0.87028968556E+02 0.  0.
        -11    1    3    3    0    0 -0.24309042632E+02  0.20778940156E+00 -0.54841598784E+02  0.59988112884E+02  0.00000000000E+00 0.  1.
         12    1    3    3    0    0  0.30819852262E+02  0.92745799242E+02 -0.23939919670E+03  0.25858001073E+03  0.00000000000E+00 0. -1.
        -13    1    4    4    0    0  0.76689760100E+02  0.21307135198E+02 -0.54209415319E+02  0.96301474671E+02  0.00000000000E+00 0.  1.
         13    1    4    4    0    0  0.64599027956E+02 -0.47885506018E+01  0.31447594654E+02  0.72006359714E+02  0.00000000000E+00 0. -1.
          1    1    1    2  501    0 -0.14779959769E+03 -0.10947217324E+03  0.96711561971E+02  0.20780280077E+03  0.00000000000E+00 0. -1.
<scales pt_clust_5="13000.00000" pt_clust_6="13000.00000" pt_clust_7="13000.00000" pt_clust_8="13000.00000" pt_clust_9="163.74535"></scales>
<clustering>
<clus scale="   78.900">  5  6 -1 -1</clus>
<clus scale="   87.029">  7  8 -1 -1</clus>
<clus scale="  122.098">  2  5  1 -1</clus>
<clus scale="  163.745">  1  9  2 -1</clus>
<clus scale="  163.745">  1  5  2 -1</clus>
</clustering>
</event>
<event>
 9    2  0.4883225E-005  0.1077362E+03  0.7546771E-02  0.1268653E+00
          2   -1    0    0  502    0 -0.00000000000E+00  0.00000000000E+00  0.43812791117E+03  0.43812791117E+03  0.00000000000E+00 0. -1.
         21   -1    0    0  501  502  0.00000000000E+00 -0.00000000000E+00 -0.10797393002E+03  0.10797393002E+03  0.00000000000E+00 0.  1.
         23    2    1    2    0    0  0.27291151639E+01  0.60363399369E+02  0.38524878315E+03  0.40055879726E+03  0.91539811510E+02 0.  0.
         24    2    1    2    0    0 -0.25976940482E+02 -0.28092366901E+02 -0.20990039669E+02  0.93150146197E+02  0.82294504411E+02 0.  0.
        -11    1    4    4    0    0 -0.47279630907E+02 -0.28072952930E+02  0.96560902652E+01  0.55827361250E+02  0.00000000000E+00 0.  1.
         12    1    4    4    0    0  0.21302690425E+02 -0.19413971208E-01 -0.30646129935E+02  0.37322784947E+02  0.00000000000E+00 0. -1.
        -11    1    3    3    0    0 -0.23043390695E+02 -0.11634280762E+00  0.23604736603E+02  0.32987800479E+02  0.00000000000E+00 0.  1.
         11    1    3    3    0    0  0.25772505859E+02  0.60479742177E+02  0.36164404655E+03  0.36757099678E+03  0.00000000000E+00 0. -1.
          1    1    1    2  501    0  0.23247825318E+02 -0.32271032468E+02 -0.34104762330E+02  0.52392897726E+02  0.00000000000E+00 0. -1.
<scales pt_clust_5="13000.00000" pt_clust_6="13000.00000" pt_clust_7="13000.00000" pt_clust_8="13000.00000" pt_clust_9="39.77287"></scales>
<clustering>
<clus scale="   39.773">  2  9  1 -1</clus>
<clus scale="   82.295">  5  6 -1 -1</clus>
<clus scale="   91.540">  7  8 -1 -1</clus>
<clus scale="  100.000">  2  5  1 -1</clus>
<clus scale="   39.773">  2  5  1 -1</clus>
</clustering>
</event>
<event>
 9    2  0.4883225E-005  0.1071955E+03  0.7546771E-02  0.1272487E+00
         21   -1    0    0  501  502  0.00000000000E+00  0.00000000000E+00  0.29652698921E+02  0.29652698921E+02  0.00000000000E+00 0.  1.
          2   -1    0    0  502    0 -0.00000000000E+00 -0.00000000000E+00 -0.10278510234E+04  0.10278510234E+04  0.00000000000E+00 0. -1.
         23    2    1    2    0    0 -0.19741658553E+02 -0.17821691555E+02 -0.19574406739E+03  0.21902555779E+03  0.94599731910E+02 0.  0.
         24    2    1    2    0    0 -0.39508739118E+02  0.88684101063E+02 -0.26631818309E+03  0.29444325706E+03  0.79659567735E+02 0.  0.
        -11    1    4    4    0    0  0.16304208905E+02  0.14363752365E+02 -0.14770379196E+02  0.26273726641E+02  0.00000000000E+00 0.  1.
         12    1    4    4    0    0 -0.55812948023E+02  0.74320348697E+02 -0.25154780390E+03  0.26816953042E+03  0.00000000000E+00 0. -1.
        -13    1    3    3    0    0 -0.38657431577E+02 -0.29729433657E+02 -0.18970411056E+03  0.19587211594E+03  0.00000000000E+00 0.  1.
         13    1    3    3    0    0  0.18915773024E+02  0.11907742102E+02 -0.60399568311E+01  0.23153441852E+02  0.00000000000E+00 0. -1.
          1    1    1    2  501    0  0.59250397671E+02 -0.70862409508E+02 -0.53613607404E+03  0.54403490751E+03  0.00000000000E+00 0. -1.
<scales pt_clust_5="13000.00000" pt_clust_6="13000.00000" pt_clust_7="13000.00000" pt_clust_8="13000.00000" pt_clust_9="92.36936"></scales>
<clustering>
<clus scale="   79.660">  5  6 -1 -1</clus>
<clus scale="   92.369">  1  9  2 -1</clus>
<clus scale="   94.273">  1  5  2 -1</clus>
<clus scale="   94.600">  7  8 -1 -1</clus>
<clus scale="   92.369">  1  5  2 -1</clus>
</clustering>
</event>
<event>
 9    2  0.4883225E-005  0.1157009E+03  0.7546771E-02  0.1253295E+00
          2   -1    0    0  502    0 -0.00000000000E+00  0.00000000000E+00  0.32606867989E+03  0.32606867989E+03  0.00000000000E+00 0. -1.
         21   -1    0    0  501  502  0.00000000000E+00 -0.00000000000E+00 -0.12726601619E+03  0.12726601619E+03  0.00000000000E+00 0. -1.
         23    2    1    2    0    0  0.72654234404E+02 -0.21500235485E+02  0.20238697880E+03  0.23422095105E+03  0.90322017368E+02 0.  0.
         24    2    1    2    0    0 -0.29580997768E+02  0.68538471193E+02 -0.66816494327E+02  0.12930167557E+03  0.81743023723E+02 0.  0.
        -11    1    4    4    0    0 -0.17671025541E+02 -0.12519501132E+02  0.27400068190E+01  0.21829124802E+02  0.00000000000E+00 0.  1.
         12    1    4    4    0    0 -0.11909972227E+02  0.81057972325E+02 -0.69556501146E+02  0.10747255076E+03  0.00000000000E+00 0. -1.
        -13    1    3    3    0    0  0.71228783714E+02 -0.50177078283E+02  0.13155666314E+03  0.15779237761E+03  0.00000000000E+00 0.  1.
         13    1    3    3    0    0  0.14254506902E+01  0.28676842798E+02  0.70830315651E+02  0.76428573438E+02  0.00000000000E+00 0. -1.
          1    1    1    2  501    0 -0.43073236635E+02 -0.47038235709E+02  0.63232179227E+02  0.89812069471E+02  0.00000000000E+00 0. -1.
<scales pt_clust_5="13000.00000" pt_clust_6="13000.00000" pt_clust_7="13000.00000" pt_clust_8="13000.00000" pt_clust_9="63.78012"></scales>
<clustering>
<clus scale="   63.780">  2  9  1 -1</clus>
<clus scale="   81.743">  5  6 -1 -1</clus>
<clus scale="   90.322">  7  8 -1 -1</clus>
<clus scale="  109.135">  2  5  1 -1</clus>
<clus scale="   63.780">  2  5  1 -1</clus>
</clustering>
</event>
<event>
 9    2  0.4883225E-005  0.1590786E+03  0.7546771E-02  0.1205868E+00
         21   -1    0    0  501  502  0.00000000000E+00  0.00000000000E+00  0.12575237841E+03  0.12575237841E+03  0.00000000000E+00 0. -1.
          2   -1    0    0  502    0 -0.00000000000E+00 -0.00000000000E+00 -0.17426870174E+04  0.17426870174E+04  0.00000000000E+00 0. -1.
         24    2    1    2    0    0 -0.64121994900E+02  0.43303741462E+02 -0.15594339925E+04  0.15634452153E+04  0.80868535176E+02 0.  0.
         23    2    1    2    0    0 -0.33947362741E+02 -0.13375046404E+03 -0.38965029581E+02  0.17030276426E+03  0.91886603583E+02 0.  0.
        -13    1    3    3    0    0 -0.99407320093E+01  0.25081667358E+02 -0.12526856413E+03  0.12814102133E+03  0.00000000000E+00 0.  1.
         14    1    3    3    0    0 -0.54181262891E+02  0.18222074104E+02 -0.14341654284E+04  0.14353041939E+04  0.00000000000E+00 0. -1.
        -11    1    4    4    0    0  0.25566763413E+02 -0.83711842934E+02 -0.27234592887E+02  0.91668179259E+02  0.00000000000E+00 0. -1.
         11    1    4    4    0    0 -0.59514126154E+02 -0.50038621105E+02 -0.11730436694E+02  0.78634585005E+02  0.00000000000E+00 0.  1.
          1    1    1    2  501    0  0.98069357641E+02  0.90446722578E+02 -0.18535616967E+02  0.13469141632E+03  0.00000000000E+00 0. -1.
<scales pt_clust_5="13000.00000" pt_clust_6="13000.00000" pt_clust_7="13000.00000" pt_clust_8="13000.00000" pt_clust_9="129.85706"></scales>
<clustering>
<clus scale="   80.869">  5  6 -1 -1</clus>
<clus scale="   91.887">  7  8 -1 -1</clus>
<clus scale="  111.922">  2  5  1 -1</clus>
<clus scale="  129.857">  1  9  2 -1</clus>
<clus scale="  129.857">  1  5  2 -1</clus>
</clustering>
</event>
<event>
 9    2  0.4883225E-005  0.9348633E+02  0.7546771E-02  0.1301716E+00
         21   -1    0    0  501  502  0.00000000000E+00  0.00000000000E+00  0.14321794025E+03  0.14321794025E+03  0.00000000000E+00 0.  1.
         -3   -1    0    0    0  501 -0.00000000000E+00 -0.00000000000E+00 -0.17024776620E+03  0.17024776620E+03  0.00000000000E+00 0.  1.
         24    2    1    2    0    0  0.33045191399E+01 -0.36605928695E+01 -0.10488723738E+03  0.13284235566E+03  0.81372225636E+02 0.  0.
         23    2    1    2    0    0 -0.23034603958E+02  0.45323849610E+02  0.82526763865E+02  0.13428863313E+03  0.92940442810E+02 0.  0.
        -13    1    3    3    0    0 -0.46462245197E+01  0.31411908684E+02 -0.13261219454E+02  0.34411558391E+02  0.00000000000E+00 0.  1.
         14    1    3    3    0    0  0.79507436596E+01 -0.35072501554E+02 -0.91626017924E+02  0.98430797267E+02  0.00000000000E+00 0. -1.
        -11    1    4    4    0    0  0.19811438710E+02 -0.45857225646E+01 -0.84518687131E+01  0.22021717461E+02  0.00000000000E+00 0. -1.
         11    1    4    4    0    0 -0.42846042669E+02  0.49909572175E+02  0.90978632578E+02  0.11226691566E+03  0.00000000000E+00 0.  1.
         -4    1    1    2    0  502  0.19730084818E+02 -0.41663256740E+02 -0.46693524437E+01  0.46334717668E+02  0.00000000000E+00 0.  1.
<scales pt_clust_5="13000.00000" pt_clust_6="13000.00000" pt_clust_7="13000.00000" pt_clust_8="13000.00000" pt_clust_9="46.09886"></scales>
<clustering>
<clus scale="   46.099">  1  9  2 -1</clus>
<clus scale="   81.372">  5  6 -1 -1</clus>
<clus scale="   81.995">  2  5  1 -1</clus>
<clus scale="   92.940">  7  8 -1 -1</clus>
<clus scale="   46.099">  1  5  2 -1</clus>
</clustering>
</event>
<event>
 9    2  0.4883225E-005  0.1287693E+03  0.7546771E-02  0.1231120E+00
         21   -1    0    0  501  502  0.00000000000E+00  0.00000000000E+00  0.21008951821E+03  0.21008951821E+03  0.00000000000E+00 0.  1.
          2   -1    0    0  502    0 -0.00000000000E+00 -0.00000000000E+00 -0.13585154212E+03  0.13585154212E+03  0.00000000000E+00 0. -1.
         24    2    1    2    0    0  0.54437256001E+02  0.64985384596E+02 -0.13282732786E+02  0.11789862454E+03  0.80852579591E+02 0.  0.
         23    2    1    2    0    0 -0.72538846379E+02 -0.77730456682E+02  0.24823310232E+00  0.13800583510E+03  0.87986594271E+02 0.  0.
        -13    1    3    3    0    0  0.33668556106E+02  0.87682226318E+01  0.28388669776E+02  0.44904008397E+02  0.00000000000E+00 0.  1.
         14    1    3    3    0    0  0.20768699894E+02  0.56217161964E+02 -0.41671402562E+02  0.72994616145E+02  0.00000000000E+00 0. -1.
        -13    1    4    4    0    0 -0.45392269265E+02 -0.80106674184E+02  0.30779716694E+02  0.97082070011E+02  0.00000000000E+00 0.  1.
         13    1    4    4    0    0 -0.27146577114E+02  0.23762175020E+01 -0.30531483591E+02  0.40923765087E+02  0.00000000000E+00 0. -1.
          1    1    1    2  501    0  0.18101590378E+02  0.12745072086E+02  0.87272475776E+02  0.90036600695E+02  0.00000000000E+00 0. -1.
<scales pt_clust_5="13000.00000" pt_clust_6="13000.00000" pt_clust_7="13000.00000" pt_clust_8="13000.00000" pt_clust_9="22.13830"></scales>
<clustering>
<clus scale="   22.138">  1  9  2 -1</clus>
<clus scale="   80.853">  5  6 -1 -1</clus>
<clus scale="   87.987">  7  8 -1 -1</clus>
<clus scale="  124.004">  2  5  1 -1</clus>
<clus scale="   22.138">  1  5  2 -1</clus>
</clustering>
</event>
<event>
 9    2  0.4883225E-005  0.1316871E+03  0.7546771E-02  0.1242756E+00
         21   -1    0    0  501  502  0.00000000000E+00  0.00000000000E+00  0.40266769730E+02  0.40266769730E+02  0.00000000000E+00 0.  1.
          2   -1    0    0  502    0 -0.00000000000E+00 -0.00000000000E+00 -0.76660529333E+03  0.76660529333E+03  0.00000000000E+00 0. -1.
         24    2    1    2    0    0 -0.41877415564E+02 -0.82177905319E+01 -0.30835551168E+03  0.32162504666E+03  0.80859749167E+02 0.  0.
         23    2    1    2    0    0 -0.69455716829E+02 -0.37119172592E+02 -0.15724929086E+03  0.19813627141E+03  0.91261782796E+02 0.  0.
        -11    1    3    3    0    0  0.42390815546E+01 -0.36730253640E+02 -0.11379610287E+03  0.11965213903E+03  0.00000000000E+00 0.  1.
         12    1    3    3    0    0 -0.46116497119E+02  0.28512463109E+02 -0.19455940881E+03  0.20197290763E+03  0.00000000000E+00 0. -1.
        -13    1    4    4    0    0 -0.88868051434E+02 -0.25715104492E+02 -0.98076549235E+02  0.13482509660E+03  0.00000000000E+00 0.  1.
         13    1    4    4    0    0  0.19412334605E+02 -0.11404068100E+02 -0.59172741625E+02  0.63311174807E+02  0.00000000000E+00 0. -1.
          1    1    1    2  501    0  0.11133313239E+03  0.45336963124E+02 -0.26073372106E+03  0.28711074499E+03  0.00000000000E+00 0. -1.
<scales pt_clust_5="13000.00000" pt_clust_6="13000.00000" pt_clust_7="13000.00000" pt_clust_8="13000.00000" pt_clust_9="94.93571"></scales>
<clustering>
<clus scale="   80.860">  5  6 -1 -1</clus>
<clus scale="   91.262">  7  8 -1 -1</clus>
<clus scale="   91.431">  2  5  1 -1</clus>
<clus scale="   94.936">  1  9  2 -1</clus>
<clus scale="   94.936">  1  5  2 -1</clus>
</clustering>
</event>
<event>
 9    2  0.4883225E-005  0.1018157E+03  0.7546771E-02  0.1282900E+00
         21   -1    0    0  501  502  0.00000000000E+00  0.00000000000E+00  0.13272674331E+03  0.13272674331E+03  0.00000000000E+00 0. -1.
         -3   -1    0    0    0  501 -0.00000000000E+00 -0.00000000000E+00 -0.14360072797E+03  0.14360072797E+03  0.00000000000E+00 0.  1.
         23    2    1    2    0    0  0.42379990353E+02 -0.28191394711E+02 -0.76690840991E+02  0.12960303765E+03  0.91239486837E+02 0.  0.
         24    2    1    2    0    0 -0.17631536804E+02  0.33354100412E+02  0.12313694933E+02  0.87549035345E+02  0.78037423090E+02 0.  0.
        -11    1    4    4    0    0  0.21017428031E+02 -0.14188711677E+02  0.22558981230E+01  0.25458611439E+02  0.00000000000E+00 0.  1.
         12    1    4    4    0    0 -0.38648964834E+02  0.47542812089E+02  0.10057796810E+02  0.62090423905E+02  0.00000000000E+00 0. -1.
        -13    1    3    3    0    0  0.62971475062E+02 -0.12007153802E+01 -0.71459237324E+02  0.95253719023E+02  0.00000000000E+00 0.  1.
         13    1    3    3    0    0 -0.20591484709E+02 -0.26990679330E+02 -0.52316036676E+01  0.34349318627E+02  0.00000000000E+00 0. -1.
         -4    1    1    2    0  502 -0.24748453550E+02 -0.51627057016E+01  0.53503161400E+02  0.59175398292E+02  0.00000000000E+00 0.  1.
<scales pt_clust_5="13000.00000" pt_clust_6="13000.00000" pt_clust_7="13000.00000" pt_clust_8="13000.00000" pt_clust_9="25.28121"></scales>
<clustering>
<clus scale="   25.281">  1  9  2 -1</clus>
<clus scale="   78.037">  5  6 -1 -1</clus>
<clus scale="   90.176">  1  5  2 -1</clus>
<clus scale="   91.239">  7  8 -1 -1</clus>
<clus scale="   25.281">  1  5  2 -1</clus>
</clustering>
</event>
<event>
 9    2  0.4883225E-005  0.9201101E+02  0.7546771E-02  0.1302624E+00
          4   -1    0    0  502    0 -0.00000000000E+00  0.00000000000E+00  0.10318102676E+03  0.10318102676E+03  0.00000000000E+00 0. -1.
         21   -1    0    0  501  502  0.00000000000E+00 -0.00000000000E+00 -0.20453514168E+03  0.20453514168E+03  0.00000000000E+00 0.  1.
         24    2    1    2    0    0  0.93581573532E+01 -0.16198951593E+02  0.63751970285E+02  0.10637077293E+03  0.83068926060E+02 0.  0.
         23    2    1    2    0    0  0.97935707269E+01  0.27128217620E+01 -0.12238951466E+03  0.15262815231E+03  0.90624975300E+02 0.  0.
        -11    1    3    3    0    0  0.85082357461E+01 -0.18635623501E+02 -0.16360211057E+02  0.26217037296E+02  0.00000000000E+00 0.  1.
         12    1    3    3    0    0  0.84992160711E+00  0.24366719076E+01  0.80112181342E+02  0.80153735634E+02  0.00000000000E+00 0. -1.
        -13    1    4    4    0    0 -0.32688785883E+02  0.63586098936E+01 -0.98007547121E+02  0.10351071411E+03  0.00000000000E+00 0.  1.
         13    1    4    4    0    0  0.42482356610E+02 -0.36457881316E+01 -0.24381967544E+02  0.49117438202E+02  0.00000000000E+00 0. -1.
          3    1    1    2  501    0 -0.19151728080E+02  0.13486129831E+02 -0.42716570536E+02  0.48717243197E+02  0.00000000000E+00 0. -1.
<scales pt_clust_5="13000.00000" pt_clust_6="13000.00000" pt_clust_7="13000.00000" pt_clust_8="13000.00000" pt_clust_9="23.42359"></scales>
<clustering>
<clus scale="   23.424">  2  9  1 -1</clus>
<clus scale="   83.069">  5  6 -1 -1</clus>
<clus scale="   84.579">  1  5  2 -1</clus>
<clus scale="   90.625">  7  8 -1 -1</clus>
<clus scale="   23.424">  2  5  1 -1</clus>
</clustering>
</event>
<event>
 9    2  0.4883225E-005  0.9284192E+02  0.7546771E-02  0.1302101E+00
         21   -1    0    0  501  502  0.00000000000E+00  0.00000000000E+00  0.70379210624E+02  0.70379210624E+02  0.00000000000E+00 0. -1.
          2   -1    0    0  502    0 -0.00000000000E+00 -0.00000000000E+00 -0.41707406034E+03  0.41707406034E+03  0.00000000000E+00 0. -1.
         23    2    1    2    0    0  0.13311475340E+02  0.90441489509E+01 -0.31733961933E+03  0.33069644465E+03  0.91633577356E+02 0.  0.
         24    2    1    2    0    0 -0.19617712308E+02  0.21028088808E+02 -0.65990349490E+02  0.10894218358E+03  0.81771865466E+02 0.  0.
        -11    1    4    4    0    0 -0.51794278243E+02  0.14114898247E+02 -0.38518812209E+02  0.66072509452E+02  0.00000000000E+00 0.  1.
         12    1    4    4    0    0  0.32176565935E+02  0.69131905613E+01 -0.27471537281E+02  0.42869674126E+02  0.00000000000E+00 0. -1.
        -13    1    3    3    0    0  0.16403553102E+02  0.45566987982E+02 -0.11068382640E+03  0.12081529859E+03  0.00000000000E+00 0.  1.
         13    1    3    3    0    0 -0.30920777619E+01 -0.36522839032E+02 -0.20665579293E+03  0.20988114605E+03  0.00000000000E+00 0. -1.
          1    1    1    2  501    0  0.63062369683E+01 -0.30072237759E+02  0.36635119104E+02  0.47814642739E+02  0.00000000000E+00 0. -1.
<scales pt_clust_5="13000.00000" pt_clust_6="13000.00000" pt_clust_7="13000.00000" pt_clust_8="13000.00000" pt_clust_9="30.72634"></scales>
<clustering>
<clus scale="   30.726">  1  9  2 -1</clus>
<clus scale="   81.772">  5  6 -1 -1</clus>
<clus scale="   83.124">  1  5  2 -1</clus>
<clus scale="   91.634">  7  8 -1 -1</clus>
<clus scale="   30.726">  1  5  2 -1</clus>
</clustering>
</event>
<event>
 9    2  0.4883225E-005  0.9249211E+02  0.7546771E-02  0.1308943E+00
         21   -1    0    0  501  502  0.00000000000E+00  0.00000000000E+00  0.24999566927E+03  0.24999566927E+03  0.00000000000E+00 0.  1.
          2   -1    0    0  502    0 -0.00000000000E+00 -0.00000000000E+00 -0.74908570911E+02  0.74908570911E+02  0.00000000000E+00 0. -1.
         24    2    1    2    0    0  0.12559874580E+02 -0.40575081699E+02  0.21330131363E+02  0.86128008242E+02  0.71825981340E+02 0.  0.
         23    2    1    2    0    0  0.35965045555E+02 -0.25274174034E+02  0.79603535259E+02  0.12837005551E+03  0.90608387867E+02 0.  0.
        -11    1    3    3    0    0  0.42348885504E+02 -0.24998597717E+02  0.73578110287E+01  0.49724193049E+02  0.00000000000E+00 0.  1.
         12    1    3    3    0    0 -0.29789010924E+02 -0.15576483983E+02  0.13972320334E+02  0.36403815193E+02  0.00000000000E+00 0. -1.
        -11    1    4    4    0    0 -0.46272901529E+01 -0.38105436290E+02  0.76615265736E+02  0.85693261303E+02  0.00000000000E+00 0.  1.
         11    1    4    4    0    0  0.40592335707E+02  0.12831262256E+02  0.29882695233E+01  0.42676794210E+02  0.00000000000E+00 0. -1.
          1    1    1    2  501    0 -0.48524920134E+02  0.65849255733E+02  0.74153431736E+02  0.11040617643E+03  0.00000000000E+00 0. -1.
<scales pt_clust_5="13000.00000" pt_clust_6="13000.00000" pt_clust_7="13000.00000" pt_clust_8="13000.00000" pt_clust_9="81.79726"></scales>
<clustering>
<clus scale="   71.826">  5  6 -1 -1</clus>
<clus scale="   81.797">  1  9  2 -1</clus>
<clus scale="   74.188">  2  5  1 -1</clus>
<clus scale="   90.608">  7  8 -1 -1</clus>
<clus scale="   81.797">  1  5  2 -1</clus>
</clustering>
</event>
<event>
 9    2  0.4883225E-005  0.1620516E+03  0.7546771E-02  0.1199619E+00
         21   -1    0    0  501  502  0.00000000000E+00  0.00000000000E+00  0.85240808157E+02  0.85240808157E+02  0.00000000000E+00 0. -1.
          2   -1    0    0  502    0 -0.00000000000E+00 -0.00000000000E+00 -0.91569578951E+03  0.91569578951E+03  0.00000000000E+00 0. -1.
         23    2    1    2    0    0 -0.57884919906E+02 -0.57645249748E+02 -0.14474913325E+03  0.18878264827E+03  0.89515015180E+02 0.  0.
         24    2    1    2    0    0  0.83730615140E+02  0.18609007154E+03 -0.63444350645E+03  0.67146315411E+03  0.81877187322E+02 0.  0.
        -13    1    4    4    0    0  0.22524138916E+02  0.11807626775E+03 -0.44698398703E+03  0.46286501974E+03  0.00000000000E+00 0.  1.
         14    1    4    4    0    0  0.61206476224E+02  0.68013803786E+02 -0.18745951942E+03  0.20859813436E+03  0.00000000000E+00 0. -1.
        -11    1    3    3    0    0 -0.73581806619E+02 -0.15378125910E+02 -0.78903927097E+02  0.10897980883E+03  0.00000000000E+00 0.  1.
         11    1    3    3    0    0  0.15696886713E+02 -0.42267123838E+02 -0.65845206150E+02  0.79802839442E+02  0.00000000000E+00 0. -1.
          1    1    1    2  501    0 -0.25845695234E+02 -0.12844482179E+03 -0.51262341655E+02  0.14069079529E+03  0.00000000000E+00 0. -1.
<scales pt_clust_5="13000.00000" pt_clust_6="13000.00000" pt_clust_7="13000.00000" pt_clust_8="13000.00000" pt_clust_9="139.84581"></scales>
<clustering>
<clus scale="   81.877">  5  6 -1 -1</clus>
<clus scale="   89.515">  7  8 -1 -1</clus>
<clus scale="  121.188">  2  7  1 -1</clus>
<clus scale="  139.846">  1  9  2 -1</clus>
<clus scale="  139.846">  1  5  2 -1</clus>
</clustering>
</event>
<event>
 9    2  0.4883225E-005  0.9559952E+02  0.7546771E-02  0.1296586E+00
         21   -1    0    0  501  502  0.00000000000E+00  0.00000000000E+00  0.10594603431E+03  0.10594603431E+03  0.00000000000E+00 0. -1.
          2   -1    0    0  502    0 -0.00000000000E+00 -0.00000000000E+00 -0.62423991742E+03  0.62423991742E+03  0.00000000000E+00 0. -1.
         24    2    1    2    0    0 -0.28033376918E+02 -0.20580184703E+02 -0.41439039575E+03  0.42338811011E+03  0.79552985314E+02 0.  0.
         23    2    1    2    0    0  0.70378944091E+01  0.10252133391E+02 -0.19340100802E+03  0.21429224648E+03  0.91447136654E+02 0.  0.
        -13    1    3    3    0    0 -0.25300727791E+02  0.97738733043E+01 -0.43604537835E+02  0.51351836831E+02  0.00000000000E+00 0.  1.
         14    1    3    3    0    0 -0.27326491267E+01 -0.30354058007E+02 -0.37078585791E+03  0.37203627328E+03  0.00000000000E+00 0. -1.
        -11    1    4    4    0    0  0.34846648882E+02 -0.16335388074E+02 -0.37574467621E+02  0.53786378005E+02  0.00000000000E+00 0.  1.
         11    1    4    4    0    0 -0.27808754473E+02  0.26587521465E+02 -0.15582654039E+03  0.16050586847E+03  0.00000000000E+00 0. -1.
          1    1    1    2  501    0  0.20995482508E+02  0.10328051312E+02  0.89497520649E+02  0.92505595139E+02  0.00000000000E+00 0. -1.
<scales pt_clust_5="13000.00000" pt_clust_6="13000.00000" pt_clust_7="13000.00000" pt_clust_8="13000.00000" pt_clust_9="23.39827"></scales>
<clustering>
<clus scale="   23.398">  1  9  2 -1</clus>
<clus scale="   79.553">  5  6 -1 -1</clus>
<clus scale="   84.293">  2  5  1 -1</clus>
<clus scale="   91.447">  7  8 -1 -1</clus>
<clus scale="   23.398">  1  5  2 -1</clus>
</clustering>
</event>
<event>
 9    2  0.4883225E-005  0.1937172E+03  0.7546771E-02  0.1170438E+00
          2   -1    0    0  502    0 -0.00000000000E+00  0.00000000000E+00  0.10764120644E+04  0.10764120644E+04  0.00000000000E+00 0. -1.
         21   -1    0    0  501  502  0.00000000000E+00 -0.00000000000E+00 -0.10076654326E+03  0.10076654326E+03  0.00000000000E+00 0. -1.
         24    2    1    2    0    0  0.93756920130E+02 -0.22355005999E+02  0.68873301614E+03  0.70202218286E+03  0.95874247546E+02 0.  0.
         23    2    1    2    0    0  0.44174156293E+02  0.15702498840E+03  0.14573791335E+03  0.23621866864E+03  0.89171278779E+02 0.  0.
        -13    1    3    3    0    0  0.80316501126E+01  0.32955916475E+02  0.16863132112E+03  0.17200907621E+03  0.00000000000E+00 0.  1.
         14    1    3    3    0    0  0.85725270018E+02 -0.55310922475E+02  0.52010169502E+03  0.53001310665E+03  0.00000000000E+00 0. -1.
        -11    1    4    4    0    0  0.12857173186E+02  0.10364739472E+03  0.13914648792E+03  0.17398228196E+03  0.00000000000E+00 0.  1.
         11    1    4    4    0    0  0.31316983108E+02  0.53377593682E+02  0.65914254333E+01  0.62236386684E+02  0.00000000000E+00 0. -1.
          1    1    1    2  501    0 -0.13793107642E+03 -0.13466998240E+03  0.14117459170E+03  0.23893775621E+03  0.00000000000E+00 0. -1.
<scales pt_clust_5="13000.00000" pt_clust_6="13000.00000" pt_clust_7="13000.00000" pt_clust_8="13000.00000" pt_clust_9="171.97349"></scales>
<clustering>
<clus scale="   89.171">  7  8 -1 -1</clus>
<clus scale="   95.874">  5  6 -1 -1</clus>
<clus scale="  135.948">  1  5  2 -1</clus>
<clus scale="  171.973">  2  9  1 -1</clus>
<clus scale="  171.973">  2  5  1 -1</clus>
</clustering>
</event>
<event>
 9    2  0.4883225E-005  0.1619731E+03  0.7546771E-02  0.1203941E+00
          2   -1    0    0  502    0 -0.00000000000E+00  0.00000000000E+00  0.42718856855E+03  0.42718856855E+03  0.00000000000E+00 0. -1.
         21   -1    0    0  501  502  0.00000000000E+00 -0.00000000000E+00 -0.24964307898E+03  0.24964307898E+03  0.00000000000E+00 0.  1.
         24    2    1    2    0    0  0.64232997261E+02 -0.39189499510E+02 -0.11673388289E+03  0.16075312029E+03  0.80951043601E+02 0.  0.
         23    2    1    2    0    0  0.63269964930E+02  0.93906129294E+02  0.34008587366E+03  0.36996504226E+03  0.91620311333E+02 0.  0.
        -13    1    3    3    0    0  0.72761517238E+02 -0.48478482015E+02 -0.11927606035E+03  0.14788908067E+03  0.00000000000E+00 0.  1.
         14    1    3    3    0    0 -0.85285199766E+01  0.92889825047E+01  0.25421774668E+01  0.12864039616E+02  0.00000000000E+00 0. -1.
        -11    1    4    4    0    0 -0.22705762267E+02  0.86319240869E+01  0.65688367097E+02  0.70035871705E+02  0.00000000000E+00 0.  1.
         11    1    4    4    0    0  0.85975727198E+02  0.85274205207E+02  0.27439750656E+03  0.29992917055E+03  0.00000000000E+00 0. -1.
          1    1    1    2  501    0 -0.12750296219E+03 -0.54716629784E+02 -0.45806501198E+02  0.14611348499E+03  0.00000000000E+00 0. -1.
<scales pt_clust_5="13000.00000" pt_clust_6="13000.00000" pt_clust_7="13000.00000" pt_clust_8="13000.00000" pt_clust_9="133.57023"></scales>
<clustering>
<clus scale="   80.951">  5  6 -1 -1</clus>
<clus scale="   91.620">  7  8 -1 -1</clus>
<clus scale="  110.520">  1  5  2 -1</clus>
<clus scale="  133.570">  2  9  1 -1</clus>
<clus scale="  133.570">  2  5  1 -1</clus>
</clustering>
</event>
<event>
 9    2  0.4883225E-005  0.9713872E+02  0.7546771E-02  0.1291274E+00
         21   -1    0    0  501  502  0.00000000000E+00  0.00000000000E+00  0.84416181445E+02  0.84416181445E+02  0.00000000000E+00 0.  1.
          2   -1    0    0  502    0 -0.00000000000E+00 -0.00000000000E+00 -0.17238863561E+03  0.17238863561E+03  0.00000000000E+00 0. -1.
         24    2    1    2    0    0  0.29773970521E+02  0.29885541266E+02 -0.93623859934E+02  0.13163230806E+03  0.82352914208E+02 0.  0.
         23    2    1    2    0    0 -0.46476669986E+01 -0.83058928706E+01  0.57062023331E+01  0.92051286856E+02  0.91379921218E+02 0.  0.
        -13    1    3    3    0    0  0.15408414229E+01  0.53733762647E+02 -0.42384226784E+02  0.68455197907E+02  0.00000000000E+00 0.  1.
         14    1    3    3    0    0  0.28233129099E+02 -0.23848221381E+02 -0.51239633151E+02  0.63177110152E+02  0.00000000000E+00 0. -1.
        -11    1    4    4    0    0  0.68726098055E+01  0.40813416109E+02  0.13248325688E+01  0.41409212518E+02  0.00000000000E+00 0.  1.
         11    1    4    4    0    0 -0.11520276804E+02 -0.49119308979E+02  0.43813697643E+01  0.50642074338E+02  0.00000000000E+00 0. -1.
          1    1    1    2  501    0 -0.25126303523E+02 -0.21579648396E+02 -0.54796566323E-01  0.33121222143E+02  0.00000000000E+00 0. -1.
<scales pt_clust_5="13000.00000" pt_clust_6="13000.00000" pt_clust_7="13000.00000" pt_clust_8="13000.00000" pt_clust_9="33.12118"></scales>
<clustering>
<clus scale="   33.121">  1  9  2 -1</clus>
<clus scale="   82.353">  5  6 -1 -1</clus>
<clus scale="   88.700">  2  5  1 -1</clus>
<clus scale="   91.380">  7  8 -1 -1</clus>
<clus scale="   33.121">  1  5  2 -1</clus>
</clustering>
</event>
<event>
 9    2  0.4883225E-005  0.9382461E+02  0.7546771E-02  0.1300598E+00
         21   -1    0    0  501  502  0.00000000000E+00  0.00000000000E+00  0.24969542708E+03  0.24969542708E+03  0.00000000000E+00 0.  1.
         -1   -1    0    0    0  501 -0.00000000000E+00 -0.00000000000E+00 -0.59310488299E+02  0.59310488299E+02  0.00000000000E+00 0.  1.
         23    2    1    2    0    0  0.56126513267E+01 -0.21922770310E+02  0.20396886004E+02  0.96118071278E+02  0.91162168440E+02 0.  0.
         24    2    1    2    0    0  0.33305024425E+02  0.20197966756E+02  0.12599826625E+03  0.15412848951E+03  0.79767447421E+02 0.  0.
        -13    1    4    4    0    0  0.51489682825E+02  0.27249043264E+02  0.12053409917E+03  0.13387369741E+03  0.00000000000E+00 0.  1.
         14    1    4    4    0    0 -0.18184658399E+02 -0.70510765075E+01  0.54641670769E+01  0.20254792096E+02  0.00000000000E+00 0. -1.
        -13    1    3    3    0    0  0.43062846754E+02  0.44004651083E+01  0.25204702201E+02  0.50090417015E+02  0.00000000000E+00 0.  1.
         13    1    3    3    0    0 -0.37450195427E+02 -0.26323235418E+02 -0.48078161972E+01  0.46027654263E+02  0.00000000000E+00 0. -1.
         -2    1    1    2    0  502 -0.38917675752E+02  0.17248035537E+01  0.43989786533E+02  0.58759354595E+02  0.00000000000E+00 0.  1.
<scales pt_clust_5="13000.00000" pt_clust_6="13000.00000" pt_clust_7="13000.00000" pt_clust_8="13000.00000" pt_clust_9="38.95588"></scales>
<clustering>
<clus scale="   38.956">  1  9  2 -1</clus>
<clus scale="   79.767">  5  6 -1 -1</clus>
<clus scale="   82.797">  1  5  2 -1</clus>
<clus scale="   91.162">  7  8 -1 -1</clus>
<clus scale="   38.956">  1  5  2 -1</clus>
</clustering>
</event>
<event>
 9    2  0.4883225E-005  0.1009052E+03  0.7546771E-02  0.1278783E+00
          2   -1    0    0  502    0 -0.00000000000E+00  0.00000000000E+00  0.79217787353E+03  0.79217787353E+03  0.00000000000E+00 0. -1.
         21   -1    0    0  501  502  0.00000000000E+00 -0.00000000000E+00 -0.24620459959E+02  0.24620459959E+02  0.00000000000E+00 0. -1.
         23    2    1    2    0    0 -0.55925069270E+02 -0.39458781251E+00  0.51338064141E+03  0.52456618120E+03  0.92099003317E+02 0.  0.
         24    2    1    2    0    0  0.16693394920E+02  0.54337021901E+01  0.22384808845E+03  0.24238893809E+03  0.91302990377E+02 0.  0.
        -13    1    4    4    0    0  0.43456513839E+02  0.22005870879E+02  0.19008853274E+03  0.19623041872E+03  0.00000000000E+00 0.  1.
         14    1    4    4    0    0 -0.26763118918E+02 -0.16572168689E+02  0.33759555701E+02  0.46158519370E+02  0.00000000000E+00 0. -1.
        -11    1    3    3    0    0 -0.12845705170E+02 -0.44350754120E+02  0.22615710245E+03  0.23082252169E+03  0.00000000000E+00 0.  1.
         11    1    3    3    0    0 -0.43079364100E+02  0.43956166307E+02  0.28722353897E+03  0.29374365951E+03  0.00000000000E+00 0. -1.
          1    1    1    2  501    0  0.39231674349E+02 -0.50391143776E+01  0.30328683708E+02  0.49843214196E+02  0.00000000000E+00 0. -1.
<scales pt_clust_5="13000.00000" pt_clust_6="13000.00000" pt_clust_7="13000.00000" pt_clust_8="13000.00000" pt_clust_9="39.55398"></scales>
<clustering>
<clus scale="   39.554">  2  9  1 -1</clus>
<clus scale="   91.303">  5  6 -1 -1</clus>
<clus scale="   92.099">  7  8 -1 -1</clus>
<clus scale="  100.179">  2  5  1 -1</clus>
<clus scale="   39.554">  2  5  1 -1</clus>
</clustering>
</event>
<event>
 9    2  0.4883225E-005  0.9597506E+02  0.7546771E-02  0.1293453E+00
         -1   -1    0    0    0  501 -0.00000000000E+00  0.00000000000E+00  0.32526817966E+03  0.32526817966E+03  0.00000000000E+00 0.  1.
         21   -1    0    0  501  502  0.00000000000E+00 -0.00000000000E+00 -0.58855236261E+02  0.58855236261E+02  0.00000000000E+00 0. -1.
         24    2    1    2    0    0  0.18583337818E+02 -0.20886497075E+02  0.21093667166E+03  0.22861503362E+03  0.83600047491E+02 0.  0.
         23    2    1    2    0    0  0.79632681090E+01  0.43377353811E+02  0.16148163063E+02  0.10299875409E+03  0.91667724478E+02 0.  0.
        -11    1    3    3    0    0  0.12127714709E+02 -0.38059401074E+02  0.20569081857E+03  0.20953355893E+03  0.00000000000E+00 0.  1.
         12    1    3    3    0    0  0.64556231094E+01  0.17172903999E+02  0.52458530867E+01  0.19081474684E+02  0.00000000000E+00 0. -1.
        -13    1    4    4    0    0  0.34656495742E+02  0.38180716072E+02  0.41216852111E+02  0.66012640265E+02  0.00000000000E+00 0. -1.
         13    1    4    4    0    0 -0.26693227633E+02  0.51966377392E+01 -0.25068689048E+02  0.36986113824E+02  0.00000000000E+00 0.  1.
         -2    1    1    2    0  502 -0.26546605927E+02 -0.22490856737E+02  0.39328108673E+02  0.52509628210E+02  0.00000000000E+00 0.  1.
<scales pt_clust_5="13000.00000" pt_clust_6="13000.00000" pt_clust_7="13000.00000" pt_clust_8="13000.00000" pt_clust_9="34.79313"></scales>
<clustering>
<clus scale="   34.793">  2  9  1 -1</clus>
<clus scale="   83.600">  5  6 -1 -1</clus>
<clus scale="   88.302">  1  5  2 -1</clus>
<clus scale="   91.668">  7  8 -1 -1</clus>
<clus scale="   34.793">  2  5  1 -1</clus>
</clustering>
</event>
<event>
 9    2  0.4883225E-005  0.1043264E+03  0.7546771E-02  0.1277768E+00
          2   -1    0    0  502    0 -0.00000000000E+00  0.00000000000E+00  0.11906422034E+03  0.11906422034E+03  0.00000000000E+00 0. -1.
         21   -1    0    0  501  502  0.00000000000E+00 -0.00000000000E+00 -0.15530026126E+03  0.15530026126E+03  0.00000000000E+00 0. -1.
         23    2    1    2    0    0  0.16630573544E+02 -0.54719314298E+01 -0.15924749004E+02  0.97216628398E+02  0.94291872377E+02 0.  0.
         24    2    1    2    0    0 -0.73431741001E+02 -0.24104071904E+02 -0.11016401749E+02  0.11243689910E+03  0.80916427894E+02 0.  0.
        -11    1    4    4    0    0  0.84862604719E+01 -0.21725479797E+02 -0.19017815762E+02  0.30094690654E+02  0.00000000000E+00 0.  1.
         12    1    4    4    0    0 -0.81918001473E+02 -0.23785921068E+01  0.80014140130E+01  0.82342208447E+02  0.00000000000E+00 0. -1.
        -11    1    3    3    0    0 -0.28048270607E+01  0.21192850994E+02  0.32330356184E+02  0.38758946310E+02  0.00000000000E+00 0.  1.
         11    1    3    3    0    0  0.19435400605E+02 -0.26664782424E+02 -0.48255105188E+02  0.58457682088E+02  0.00000000000E+00 0. -1.
          1    1    1    2  501    0  0.56801167457E+02  0.29576003333E+02 -0.92948901617E+01  0.64710954101E+02  0.00000000000E+00 0. -1.
<scales pt_clust_5="13000.00000" pt_clust_6="13000.00000" pt_clust_7="13000.00000" pt_clust_8="13000.00000" pt_clust_9="64.03993"></scales>
<clustering>
<clus scale="   64.040">  2  9  1 -1</clus>
<clus scale="   80.916">  5  6 -1 -1</clus>
<clus scale="   92.415">  2  5  1 -1</clus>
<clus scale="   94.292">  7  8 -1 -1</clus>
<clus scale="   64.040">  2  5  1 -1</clus>
</clustering>
</event>
<event>
 9    2  0.4883225E-005  0.1047238E+03  0.7546771E-02  0.1275299E+00
          2   -1    0    0  502    0 -0.00000000000E+00  0.00000000000E+00  0.15202804942E+03  0.15202804942E+03  0.00000000000E+00 0. -1.
         21   -1    0    0  501  502  0.00000000000E+00 -0.00000000000E+00 -0.13156163283E+03  0.13156163283E+03  0.00000000000E+00 0.  1.
         24    2    1    2    0    0 -0.16348894328E+02  0.52707787862E+02  0.89735489220E+02  0.13234200551E+03  0.80103377896E+02 0.  0.
         23    2    1    2    0    0  0.38210429308E+02 -0.31058130215E+02 -0.47335428485E+02  0.11346250593E+03  0.90600513802E+02 0.  0.
        -11    1    3    3    0    0  0.40358388346E+01 -0.19821220120E+02  0.30058410765E+02  0.36230882129E+02  0.00000000000E+00 0.  1.
         12    1    3    3    0    0 -0.20384733163E+02  0.72529007982E+02  0.59677078456E+02  0.96111123383E+02  0.00000000000E+00 0. -1.
        -11    1    4    4    0    0 -0.18493472795E+02 -0.32761920251E+02  0.28388822685E+01  0.37728122232E+02  0.00000000000E+00 0. -1.
         11    1    4    4    0    0  0.56703902103E+02  0.17037900361E+01 -0.50174310753E+02  0.75734383696E+02  0.00000000000E+00 0.  1.
          1    1    1    2  501    0 -0.21861534979E+02 -0.21649657647E+02 -0.21933644140E+02  0.37785170810E+02  0.00000000000E+00 0. -1.
<scales pt_clust_5="13000.00000" pt_clust_6="13000.00000" pt_clust_7="13000.00000" pt_clust_8="13000.00000" pt_clust_9="30.76742"></scales>
<clustering>
<clus scale="   30.767">  2  9  1 -1</clus>
<clus scale="   80.103">  5  6 -1 -1</clus>
<clus scale="   90.601">  7  8 -1 -1</clus>
<clus scale="   95.787">  1  5  2 -1</clus>
<clus scale="   30.767">  2  5  1 -1</clus>
</clustering>
</event>
<event>
 9    2  0.4883225E-005  0.2419699E+03  0.7546771E-02  0.1119156E+00
          2   -1    0    0  502    0 -0.00000000000E+00  0.00000000000E+00  0.50943784538E+03  0.50943784538E+03  0.00000000000E+00 0. -1.
         21   -1    0    0  501  502  0.00000000000E+00 -0.00000000000E+00 -0.14478147631E+03  0.14478147631E+03  0.00000000000E+00 0. -1.
         24    2    1    2    0    0 -0.13489201840E+03 -0.15825890644E+03  0.19274964658E+03  0.29440985546E+03  0.79265368454E+02 0.  0.
         23    2    1    2    0    0  0.17247560753E+03  0.18345307312E+03  0.12757057598E+03  0.29646149000E+03  0.90621730100E+02 0.  0.
        -13    1    3    3    0    0 -0.39629505771E+02 -0.20413556892E+02  0.82678604968E+02  0.93930627338E+02  0.00000000000E+00 0.  1.
         14    1    3    3    0    0 -0.95262512625E+02 -0.13784534955E+03  0.11007104162E+03  0.20047922812E+03  0.00000000000E+00 0. -1.
        -11    1    4    4    0    0  0.52360946539E+02  0.16961404266E+02  0.57346836840E+02  0.79485958840E+02  0.00000000000E+00 0.  1.
         11    1    4    4    0    0  0.12011466099E+03  0.16649166886E+03  0.70223739141E+02  0.21697553116E+03  0.00000000000E+00 0. -1.
          1    1    1    2  501    0 -0.37583589131E+02 -0.25194166681E+02  0.44336146504E+02  0.63347976239E+02  0.00000000000E+00 0. -1.
<scales pt_clust_5="13000.00000" pt_clust_6="13000.00000" pt_clust_7="13000.00000" pt_clust_8="13000.00000" pt_clust_9="45.24681"></scales>
<clustering>
<clus scale="   45.247">  2  9  1 -1</clus>
<clus scale="   79.265">  5  6 -1 -1</clus>
<clus scale="   90.622">  7  8 -1 -1</clus>
<clus scale="  237.950">  1  5  2 -1</clus>
<clus scale="   45.247">  2  5  1 -1</clus>
</clustering>
</event>
<event>
 9    2  0.4883225E-005  0.9610015E+02  0.7546771E-02  0.1296158E+00
         21   -1    0    0  501  502  0.00000000000E+00  0.00000000000E+00  0.22227736607E+03  0.22227736607E+03  0.00000000000E+00 0. -1.
          2   -1    0    0  502    0 -0.00000000000E+00 -0.00000000000E+00 -0.11431159458E+03  0.11431159458E+03  0.00000000000E+00 0. -1.
         24    2    1    2    0    0  0.24750527584E+02  0.13738741403E+02 -0.58547950470E+02  0.10077954051E+03  0.76989035914E+02 0.  0.
         23    2    1    2    0    0 -0.41555104899E+02 -0.25966837661E+02  0.44461464956E+02  0.11200039948E+03  0.90366831400E+02 0.  0.
        -11    1    3    3    0    0  0.13123677631E+02  0.21414501132E+02  0.12726457311E+02  0.28156251331E+02  0.00000000000E+00 0.  1.
         12    1    3    3    0    0  0.11626849953E+02 -0.76757597298E+01 -0.71274407781E+02  0.72623289183E+02  0.00000000000E+00 0. -1.
        -13    1    4    4    0    0 -0.60802216113E+02  0.94689307373E+01  0.19395692549E+02  0.64519477858E+02  0.00000000000E+00 0.  1.
         13    1    4    4    0    0  0.19247111214E+02 -0.35435768398E+02  0.25065772407E+02  0.47480921626E+02  0.00000000000E+00 0. -1.
          1    1    1    2  501    0  0.16804577315E+02  0.12228096258E+02  0.12205225700E+03  0.12380902066E+03  0.00000000000E+00 0. -1.
<scales pt_clust_5="13000.00000" pt_clust_6="13000.00000" pt_clust_7="13000.00000" pt_clust_8="13000.00000" pt_clust_9="20.78269"></scales>
<clustering>
<clus scale="   20.783">  1  9  2 -1</clus>
<clus scale="   76.989">  5  6 -1 -1</clus>
<clus scale="   83.644">  2  5  1 -1</clus>
<clus scale="   90.367">  7  8 -1 -1</clus>
<clus scale="   20.783">  1  5  2 -1</clus>
</clustering>
</event>
<event>
 9    2  0.4883225E-005  0.9513193E+02  0.7546771E-02  0.1298135E+00
         21   -1    0    0  501  502  0.00000000000E+00  0.00000000000E+00  0.75382548131E+03  0.75382548131E+03  0.00000000000E+00 0.  1.
          2   -1    0    0  502    0 -0.00000000000E+00 -0.00000000000E+00 -0.14398916111E+03  0.14398916111E+03  0.00000000000E+00 0. -1.
         24    2    1    2    0    0  0.69841714360E+01 -0.25049222797E+02 -0.12526440048E+03  0.15031961812E+03  0.78921323795E+02 0.  0.
         23    2    1    2    0    0 -0.39542260681E+02  0.19540927054E+02  0.51341939183E+03  0.52336786829E+03  0.91482323123E+02 0.  0.
        -13    1    3    3    0    0  0.52027818282E+01 -0.20246948448E+02  0.37203559319E+01  0.21233202972E+02  0.00000000000E+00 0.  1.
         14    1    3    3    0    0  0.17813896078E+01 -0.48022743485E+01 -0.12898475642E+03  0.12908641515E+03  0.00000000000E+00 0. -1.
        -13    1    4    4    0    0 -0.55332094062E+02 -0.19986540001E+02  0.28306686924E+03  0.28911581568E+03  0.00000000000E+00 0.  1.
         13    1    4    4    0    0  0.15789833381E+02  0.39527467055E+02  0.23035252259E+03  0.23425205261E+03  0.00000000000E+00 0. -1.
          1    1    1    2  501    0  0.32558089245E+02  0.55082957425E+01  0.22168132885E+03  0.22412715600E+03  0.00000000000E+00 0. -1.
<scales pt_clust_5="13000.00000" pt_clust_6="13000.00000" pt_clust_7="13000.00000" pt_clust_8="13000.00000" pt_clust_9="33.02076"></scales>
<clustering>
<clus scale="   33.021">  1  9  2 -1</clus>
<clus scale="   78.921">  5  6 -1 -1</clus>
<clus scale="   83.124">  2  5  1 -1</clus>
<clus scale="   91.482">  7  8 -1 -1</clus>
<clus scale="   33.021">  1  5  2 -1</clus>
</clustering>
</event>
<event>
 9    2  0.4883225E-005  0.9714042E+02  0.7546771E-02  0.1291820E+00
         21   -1    0    0  501  502  0.00000000000E+00  0.00000000000E+00  0.41335240426E+02  0.41335240426E+02  0.00000000000E+00 0.  1.
          2   -1    0    0  502    0 -0.00000000000E+00 -0.00000000000E+00 -0.39805276830E+03  0.39805276830E+03  0.00000000000E+00 0. -1.
         24    2    1    2    0    0  0.22343400534E+02 -0.22555200639E+02 -0.26347982049E+03  0.27749893594E+03  0.81093026923E+02 0.  0.
         23    2    1    2    0    0 -0.42861742160E+02  0.15553416381E+02 -0.49965252426E+02  0.11348935498E+03  0.91127764937E+02 0.  0.
        -13    1    3    3    0    0 -0.23653070393E+02 -0.24986852856E+02 -0.62868285856E+02  0.71667509523E+02  0.00000000000E+00 0.  1.
         14    1    3    3    0    0  0.45996470927E+02  0.24316522170E+01 -0.20061153464E+03  0.20583142641E+03  0.00000000000E+00 0. -1.
        -13    1    4    4    0    0 -0.63923444486E+02  0.27639299977E+02 -0.54936611006E+02  0.88702699435E+02  0.00000000000E+00 0.  1.
         13    1    4    4    0    0  0.21061702325E+02 -0.12085883596E+02  0.49713585802E+01  0.24786655548E+02  0.00000000000E+00 0. -1.
          1    1    1    2  501    0  0.20518341626E+02  0.70017842574E+01 -0.43272454960E+02  0.48399717810E+02  0.00000000000E+00 0. -1.
<scales pt_clust_5="13000.00000" pt_clust_6="13000.00000" pt_clust_7="13000.00000" pt_clust_8="13000.00000" pt_clust_9="21.68012"></scales>
<clustering>
<clus scale="   21.680">  1  9  2 -1</clus>
<clus scale="   81.093">  5  6 -1 -1</clus>
<clus scale="   87.796">  2  5  1 -1</clus>
<clus scale="   91.128">  7  8 -1 -1</clus>
<clus scale="   21.680">  1  5  2 -1</clus>
</clustering>
</event>
<event>
 9    2  0.4883225E-005  0.1450863E+03  0.7546771E-02  0.1209203E+00
         21   -1    0    0  501  502  0.00000000000E+00  0.00000000000E+00  0.86133239535E+02  0.86133239535E+02  0.00000000000E+00 0. -1.
          2   -1    0    0  502    0 -0.00000000000E+00 -0.00000000000E+00 -0.70301758253E+03  0.70301758253E+03  0.00000000000E+00 0. -1.
         24    2    1    2    0    0  0.99046938002E+02  0.84844751994E+02 -0.44616920667E+03  0.47184596313E+03  0.81010641741E+02 0.  0.
         23    2    1    2    0    0 -0.95392987043E+02  0.14651557684E+01 -0.18656793167E+03  0.22947512220E+03  0.93537532154E+02 0.  0.
        -13    1    3    3    0    0  0.65312889095E+02  0.36378319348E+01 -0.17905314065E+03  0.19062800025E+03  0.00000000000E+00 0.  1.
         14    1    3    3    0    0  0.33734048907E+02  0.81206920059E+02 -0.26711606602E+03  0.28121796288E+03  0.00000000000E+00 0. -1.
        -11    1    4    4    0    0  0.24746630305E+01 -0.26004148803E+02 -0.70525101024E+02  0.75207244242E+02  0.00000000000E+00 0.  1.
         11    1    4    4    0    0 -0.97867650073E+02  0.27469304572E+02 -0.11604283065E+03  0.15426787796E+03  0.00000000000E+00 0. -1.
          1    1    1    2  501    0 -0.36539509591E+01 -0.86309907762E+02  0.15852795341E+02  0.87829736739E+02  0.00000000000E+00 0. -1.
<scales pt_clust_5="13000.00000" pt_clust_6="13000.00000" pt_clust_7="13000.00000" pt_clust_8="13000.00000" pt_clust_9="86.38722"></scales>
<clustering>
<clus scale="   81.011">  5  6 -1 -1</clus>
<clus scale="   86.387">  1  9  2 -1</clus>
<clus scale="   93.538">  7  8 -1 -1</clus>
<clus scale="  137.344">  2  5  1 -1</clus>
<clus scale="   86.387">  1  5  2 -1</clus>
</clustering>
</event>
<event>
 9    2  0.4883225E-005  0.1647736E+03  0.7546771E-02  0.1205663E+00
          2   -1    0    0  502    0 -0.00000000000E+00  0.00000000000E+00  0.51220736575E+03  0.51220736575E+03  0.00000000000E+00 0. -1.
         21   -1    0    0  501  502  0.00000000000E+00 -0.00000000000E+00 -0.27939020678E+03  0.27939020678E+03  0.00000000000E+00 0. -1.
         24    2    1    2    0    0  0.44825472814E+02 -0.41559775826E+02  0.25680160604E+03  0.27600725550E+03  0.80600262050E+02 0.  0.
         23    2    1    2    0    0  0.79768529754E+02  0.10295554129E+03  0.19786403856E+03  0.25384644209E+03  0.91241309647E+02 0.  0.
        -11    1    3    3    0    0  0.50011527166E+02 -0.20671763538E+02  0.24608444573E+03  0.25196434090E+03  0.00000000000E+00 0.  1.
         12    1    3    3    0    0 -0.51860543518E+01 -0.20888012288E+02  0.10717160315E+02  0.24042914597E+02  0.00000000000E+00 0. -1.
        -11    1    4    4    0    0  0.45431110868E+02  0.63539208984E+02  0.18380513676E+03  0.19971365805E+03  0.00000000000E+00 0. -1.
         11    1    4    4    0    0  0.34337418886E+02  0.39416332304E+02  0.14058901800E+02  0.54132784039E+02  0.00000000000E+00 0.  1.
          1    1    1    2  501    0 -0.12459400257E+03 -0.61395765461E+02 -0.22184848563E+03  0.26174387494E+03  0.00000000000E+00 0. -1.
<scales pt_clust_5="13000.00000" pt_clust_6="13000.00000" pt_clust_7="13000.00000" pt_clust_8="13000.00000" pt_clust_9="137.20559"></scales>
<clustering>
<clus scale="   80.600">  5  6 -1 -1</clus>
<clus scale="   91.241">  7  8 -1 -1</clus>
<clus scale="  101.158">  1  5  2 -1</clus>
<clus scale="  137.206">  2  9  1 -1</clus>
<clus scale="  137.206">  2  5  1 -1</clus>
</clustering>
</event>
<event>
 9    2  0.4883225E-005  0.2093728E+03  0.7546771E-02  0.1143330E+00
         21   -1    0    0  501  502  0.00000000000E+00  0.00000000000E+00  0.63849765127E+02  0.63849765127E+02  0.00000000000E+00 0. -1.
          2   -1    0    0  502    0 -0.00000000000E+00 -0.00000000000E+00 -0.14272026372E+04  0.14272026372E+04  0.00000000000E+00 0. -1.
         24    2    1    2    0    0 -0.16917274480E+03 -0.14926247583E+03 -0.90415799911E+03  0.93495699662E+03  0.75790460558E+02 0.  0.
         23    2    1    2    0    0  0.26672778791E+02  0.13377283815E+03 -0.18964518905E+03  0.25080341221E+03  0.91271268714E+02 0.  0.
        -11    1    3    3    0    0 -0.56155689075E+02 -0.74785548576E+02 -0.24945879815E+03  0.26641327232E+03  0.00000000000E+00 0.  1.
         12    1    3    3    0    0 -0.11301705573E+03 -0.74476927254E+02 -0.65469920096E+03  0.66854372431E+03  0.00000000000E+00 0. -1.
        -13    1    4    4    0    0  0.61673058531E+01  0.13758178899E+03 -0.13735581243E+03  0.19450810659E+03  0.00000000000E+00 0. -1.
         13    1    4    4    0    0  0.20505472938E+02 -0.38089508425E+01 -0.52289376625E+02  0.56295305619E+02  0.00000000000E+00 0.  1.
          1    1    1    2  501    0  0.14249996601E+03  0.15489637682E+02 -0.26954968388E+03  0.30529199346E+03  0.00000000000E+00 0. -1.
<scales pt_clust_5="13000.00000" pt_clust_6="13000.00000" pt_clust_7="13000.00000" pt_clust_8="13000.00000" pt_clust_9="143.33935"></scales>
<clustering>
<clus scale="   75.790">  5  6 -1 -1</clus>
<clus scale="   91.271">  7  8 -1 -1</clus>
<clus scale="  143.339">  1  9  2 -1</clus>
<clus scale="  203.103">  2  5  1 -1</clus>
<clus scale="  143.339">  1  5  2 -1</clus>
</clustering>
</event>
<event>
 9    2  0.4883225E-005  0.9140893E+02  0.7546771E-02  0.1305384E+00
         21   -1    0    0  501  502  0.00000000000E+00  0.00000000000E+00  0.28006216401E+02  0.28006216401E+02  0.00000000000E+00 0. -1.
          2   -1    0    0  502    0 -0.00000000000E+00 -0.00000000000E+00 -0.11891760347E+04  0.11891760347E+04  0.00000000000E+00 0. -1.
         24    2    1    2    0    0  0.94285347093E+01  0.17144462308E+02 -0.97898940751E+03  0.98247006289E+03  0.80276613011E+02 0.  0.
         23    2    1    2    0    0 -0.90254993896E+01  0.50504290278E+01 -0.19059778314E+03  0.21097134157E+03  0.89857807429E+02 0.  0.
        -11    1    3    3    0    0 -0.23966647864E+02 -0.11228492365E+02 -0.14955039251E+03  0.15187428732E+03  0.00000000000E+00 0.  1.
         12    1    3    3    0    0  0.33395182573E+02  0.28372954673E+02 -0.82943901500E+03  0.83059577556E+03  0.00000000000E+00 0. -1.
        -13    1    4    4    0    0  0.25544385947E+02  0.20020293771E+02 -0.15755020490E+03  0.16085830684E+03  0.00000000000E+00 0. -1.
         13    1    4    4    0    0 -0.34569885337E+02 -0.14969864743E+02 -0.33047578238E+02  0.50113034732E+02  0.00000000000E+00 0.  1.
          1    1    1    2  501    0 -0.40303531965E+00 -0.22194891336E+02  0.84173723971E+01  0.23740846593E+02  0.00000000000E+00 0. -1.
<scales pt_clust_5="13000.00000" pt_clust_6="13000.00000" pt_clust_7="13000.00000" pt_clust_8="13000.00000" pt_clust_9="22.19855"></scales>
<clustering>
<clus scale="   22.199">  1  9  2 -1</clus>
<clus scale="   80.277">  5  6 -1 -1</clus>
<clus scale="   82.009">  2  5  1 -1</clus>
<clus scale="   89.858">  7  8 -1 -1</clus>
<clus scale="   22.199">  1  5  2 -1</clus>
</clustering>
</event>
<event>
 9    2  0.4883225E-005  0.1115099E+03  0.7546771E-02  0.1263323E+00
         21   -1    0    0  501  502  0.00000000000E+00  0.00000000000E+00  0.18195299993E+03  0.18195299993E+03  0.00000000000E+00 0.  1.
          2   -1    0    0  502    0 -0.00000000000E+00 -0.00000000000E+00 -0.11850920972E+03  0.11850920972E+03  0.00000000000E+00 0. -1.
         24    2    1    2    0    0 -0.98963748658E+01  0.38641577681E+02 -0.50983809431E+01  0.90266382072E+02  0.80814085920E+02 0.  0.
         23    2    1    2    0    0  0.94849247333E+01 -0.90584555357E+02  0.96958522165E+01  0.13170295228E+03  0.94636846004E+02 0.  0.
        -13    1    3    3    0    0 -0.39178958298E+02 -0.19989943608E+01  0.37162818697E+01  0.39405551674E+02  0.00000000000E+00 0.  1.
         14    1    3    3    0    0  0.29282583432E+02  0.40640572042E+02 -0.88146628128E+01  0.50860830399E+02  0.00000000000E+00 0. -1.
        -11    1    4    4    0    0  0.38746258247E+02 -0.25664942572E+02 -0.24689318588E+02  0.52626269654E+02  0.00000000000E+00 0. -1.
         11    1    4    4    0    0 -0.29261333514E+02 -0.64919612785E+02  0.34385170805E+02  0.79076682621E+02  0.00000000000E+00 0.  1.
          1    1    1    2  501    0  0.41145013246E+00  0.51942977676E+02  0.58846318939E+02  0.78492875306E+02  0.00000000000E+00 0. -1.
<scales pt_clust_5="13000.00000" pt_clust_6="13000.00000" pt_clust_7="13000.00000" pt_clust_8="13000.00000" pt_clust_9="51.94461"></scales>
<clustering>
<clus scale="   51.945">  1  9  2 -1</clus>
<clus scale="   80.814">  5  6 -1 -1</clus>
<clus scale="   94.637">  7  8 -1 -1</clus>
<clus scale="  100.046">  2  5  1 -1</clus>
<clus scale="   51.945">  1  5  2 -1</clus>
</clustering>
</event>
<event>
 9    2  0.4883225E-005  0.1235810E+03  0.7546771E-02  0.1238967E+00
         21   -1    0    0  501  502  0.00000000000E+00  0.00000000000E+00  0.11896428464E+03  0.11896428464E+03  0.00000000000E+00 0. -1.
          2   -1    0    0  502    0 -0.00000000000E+00 -0.00000000000E+00 -0.21151231244E+03  0.21151231244E+03  0.00000000000E+00 0. -1.
         23    2    1    2    0    0  0.79508287079E+02 -0.14899009931E+02 -0.10102462690E+03  0.15554724844E+03  0.86286864856E+02 0.  0.
         24    2    1    2    0    0 -0.10715618342E+03 -0.54870966616E+01 -0.12652754418E+02  0.13460009010E+03  0.80277868598E+02 0.  0.
        -13    1    4    4    0    0 -0.80125027425E+02  0.23216914895E+02  0.17162168418E+02  0.85167982141E+02  0.00000000000E+00 0.  1.
         14    1    4    4    0    0 -0.27031155993E+02 -0.28704011557E+02 -0.29814922836E+02  0.49432107961E+02  0.00000000000E+00 0. -1.
        -11    1    3    3    0    0 -0.47988508148E+01 -0.19618345699E+02 -0.56682707125E+02  0.60173397313E+02  0.00000000000E+00 0.  1.
         11    1    3    3    0    0  0.84307137894E+02  0.47193357676E+01 -0.44341919771E+02  0.95373851128E+02  0.00000000000E+00 0. -1.
          1    1    1    2  501    0  0.27647896339E+02  0.20386106593E+02  0.21129353513E+02  0.40329258533E+02  0.00000000000E+00 0. -1.
<scales pt_clust_5="13000.00000" pt_clust_6="13000.00000" pt_clust_7="13000.00000" pt_clust_8="13000.00000" pt_clust_9="34.35112"></scales>
<clustering>
<clus scale="   34.351">  1  9  2 -1</clus>
<clus scale="   80.278">  5  6 -1 -1</clus>
<clus scale="   86.287">  7  8 -1 -1</clus>
<clus scale="  119.463">  1  5  2 -1</clus>
<clus scale="   34.351">  1  5  2 -1</clus>
</clustering>
</event>
<event>
 9    2  0.4883225E-005  0.1291084E+03  0.7546771E-02  0.1240258E+00
         21   -1    0    0  501  502  0.00000000000E+00  0.00000000000E+00  0.16804175871E+03  0.16804175871E+03  0.00000000000E+00 0.  1.
          2   -1    0    0  502    0 -0.00000000000E+00 -0.00000000000E+00 -0.31385185421E+03  0.31385185421E+03  0.00000000000E+00 0. -1.
         23    2    1    2    0    0 -0.46280507946E+02 -0.11215582623E+02 -0.21272089715E+03  0.23593482228E+03  0.90262869285E+02 0.  0.
         24    2    1    2    0    0 -0.62361110008E+02  0.53683046776E+02  0.64200970188E+01  0.11456011480E+03  0.79448251743E+02 0.  0.
        -13    1    4    4    0    0 -0.34547182829E+02  0.70901552660E+02 -0.70462188418E+01  0.79184513706E+02  0.00000000000E+00 0.  1.
         14    1    4    4    0    0 -0.27813927179E+02 -0.17218505884E+02  0.13466315861E+02  0.35375601095E+02  0.00000000000E+00 0. -1.
        -11    1    3    3    0    0 -0.24676104412E+02  0.39279829148E+02 -0.11169405226E+03  0.12094369110E+03  0.00000000000E+00 0.  1.
         11    1    3    3    0    0 -0.21604403534E+02 -0.50495411771E+02 -0.10102684489E+03  0.11499113118E+03  0.00000000000E+00 0. -1.
          1    1    1    2  501    0  0.10864161795E+03 -0.42467464153E+02  0.60490704633E+02  0.13139867583E+03  0.00000000000E+00 0. -1.
<scales pt_clust_5="13000.00000" pt_clust_6="13000.00000" pt_clust_7="13000.00000" pt_clust_8="13000.00000" pt_clust_9="101.76911"></scales>
<clustering>
<clus scale="   79.448">  5  6 -1 -1</clus>
<clus scale="   90.263">  7  8 -1 -1</clus>
<clus scale="  102.054">  2  7  1 -1</clus>
<clus scale="  101.769">  1  9  2 -1</clus>
<clus scale="  101.769">  1  5  2 -1</clus>
</clustering>
</event>
<event>
 9    2  0.4883225E-005  0.5198234E+03  0.7546771E-02  0.1008901E+00
         21   -1    0    0  501  502  0.00000000000E+00  0.00000000000E+00  0.44722960484E+03  0.44722960484E+03  0.00000000000E+00 0. -1.
          2   -1    0    0  502    0 -0.00000000000E+00 -0.00000000000E+00 -0.11066931093E+04  0.11066931093E+04  0.00000000000E+00 0. -1.
         24    2    1    2    0    0  0.59501304803E+03 -0.14993739336E+03 -0.57873496261E+03  0.84776717536E+03  0.85166175226E+02 0.  0.
         23    2    1    2    0    0 -0.30010553700E+03  0.17592337025E+03  0.77780314557E+02  0.37034194670E+03  0.10045404228E+03 0.  0.
        -13    1    3    3    0    0  0.22892927854E+03 -0.16571270099E+02 -0.20091882462E+03  0.30504359631E+03  0.00000000000E+00 0.  1.
         14    1    3    3    0    0  0.36608376949E+03 -0.13336612326E+03 -0.37781613800E+03  0.54272357905E+03  0.00000000000E+00 0. -1.
        -11    1    4    4    0    0 -0.12145986500E+03  0.23163796801E+02  0.51055402321E+02  0.13377486458E+03  0.00000000000E+00 0.  1.
         11    1    4    4    0    0 -0.17864567200E+03  0.15275957345E+03  0.26724912236E+02  0.23656708211E+03  0.00000000000E+00 0. -1.
          1    1    1    2  501    0 -0.29490751103E+03 -0.25985976891E+02 -0.15850885636E+03  0.33581359204E+03  0.00000000000E+00 0. -1.
<scales pt_clust_5="13000.00000" pt_clust_6="13000.00000" pt_clust_7="13000.00000" pt_clust_8="13000.00000" pt_clust_9="296.05033"></scales>
<clustering>
<clus scale="   85.166">  5  6 -1 -1</clus>
<clus scale="  100.454">  7  8 -1 -1</clus>
<clus scale="  296.050">  1  9  2 -1</clus>
<clus scale="  517.087">  2  5  1 -1</clus>
<clus scale="  296.050">  1  5  2 -1</clus>
</clustering>
</event>
<event>
 9    2  0.4883225E-005  0.1187610E+03  0.7546771E-02  0.1249365E+00
         21   -1    0    0  501  502  0.00000000000E+00  0.00000000000E+00  0.36798632592E+03  0.36798632592E+03  0.00000000000E+00 0. -1.
          2   -1    0    0  502    0 -0.00000000000E+00 -0.00000000000E+00 -0.12760508078E+03  0.12760508078E+03  0.00000000000E+00 0. -1.
         24    2    1    2    0    0 -0.92885745561E+02  0.14940121260E+02  0.98874044039E+02  0.15824562756E+03  0.80091404701E+02 0.  0.
         23    2    1    2    0    0  0.36711711999E+02  0.78185986382E+02  0.18157413086E+03  0.22144343736E+03  0.92775172786E+02 0.  0.
        -11    1    3    3    0    0 -0.28221005327E+02  0.41001667696E+02  0.61571924701E+02  0.79174893792E+02  0.00000000000E+00 0.  1.
         12    1    3    3    0    0 -0.64664740234E+02 -0.26061546437E+02  0.37302119338E+02  0.79070733773E+02  0.00000000000E+00 0. -1.
        -13    1    4    4    0    0  0.30042375975E+02 -0.70817890624E+01  0.15273140498E+02  0.34437841268E+02  0.00000000000E+00 0.  1.
         13    1    4    4    0    0  0.66693360246E+01  0.85267775445E+02  0.16630099036E+03  0.18700559609E+03  0.00000000000E+00 0. -1.
          1    1    1    2  501    0  0.56174033562E+02 -0.93126107642E+02 -0.40066929759E+02  0.11590234179E+03  0.00000000000E+00 0. -1.
<scales pt_clust_5="13000.00000" pt_clust_6="13000.00000" pt_clust_7="13000.00000" pt_clust_8="13000.00000" pt_clust_9="108.75664"></scales>
<clustering>
<clus scale="   80.091">  5  6 -1 -1</clus>
<clus scale="   92.775">  7  8 -1 -1</clus>
<clus scale="  108.757">  1  9  2 -1</clus>
<clus scale="  109.140">  2  5  1 -1</clus>
<clus scale="  108.757">  1  5  2 -1</clus>
</clustering>
</event>
<event>
 9    2  0.4883225E-005  0.1165915E+03  0.7546771E-02  0.1249102E+00
          2   -1    0    0  502    0 -0.00000000000E+00  0.00000000000E+00  0.21219301098E+03  0.21219301098E+03  0.00000000000E+00 0. -1.
         21   -1    0    0  501  502  0.00000000000E+00 -0.00000000000E+00 -0.36909858993E+03  0.36909858993E+03  0.00000000000E+00 0.  1.
         24    2    1    2    0    0 -0.76306068552E+01 -0.79257456741E+02  0.17915533809E+03  0.21411811895E+03  0.86081142456E+02 0.  0.
         23    2    1    2    0    0  0.24979650050E+01  0.57393334196E+02 -0.16852815117E+03  0.19814208988E+03  0.86938572612E+02 0.  0.
        -13    1    3    3    0    0  0.18660462220E+02 -0.25086534452E+02  0.74221963474E+01  0.32134655120E+02  0.00000000000E+00 0.  1.
         14    1    3    3    0    0 -0.26291069076E+02 -0.54170922289E+02  0.17173314174E+03  0.18198346383E+03  0.00000000000E+00 0. -1.
        -13    1    4    4    0    0 -0.41149072925E+02  0.39264905574E+02 -0.95529004472E+02  0.11117899850E+03  0.00000000000E+00 0.  1.
         13    1    4    4    0    0  0.43647037930E+02  0.18128428622E+02 -0.72999146695E+02  0.86963091381E+02  0.00000000000E+00 0. -1.
          1    1    1    2  501    0  0.51326418502E+01  0.21864122545E+02 -0.16753276587E+03  0.16903139208E+03  0.00000000000E+00 0. -1.
<scales pt_clust_5="13000.00000" pt_clust_6="13000.00000" pt_clust_7="13000.00000" pt_clust_8="13000.00000" pt_clust_9="22.45849"></scales>
<clustering>
<clus scale="   22.458">  2  9  1 -1</clus>
<clus scale="   86.081">  5  6 -1 -1</clus>
<clus scale="   86.939">  7  8 -1 -1</clus>
<clus scale="  115.954">  1  5  2 -1</clus>
<clus scale="   22.458">  2  5  1 -1</clus>
</clustering>
</event>
<event>
 9    2  0.4883225E-005  0.1154872E+03  0.7546771E-02  0.1251400E+00
          4   -1    0    0  502    0 -0.00000000000E+00  0.00000000000E+00  0.14195144632E+04  0.14195144632E+04  0.00000000000E+00 0. -1.
         21   -1    0    0  501  502  0.00000000000E+00 -0.00000000000E+00 -0.36750447651E+02  0.36750447651E+02  0.00000000000E+00 0. -1.
         24    2    1    2    0    0 -0.65305194865E+02 -0.44257496636E+02  0.11390074283E+04  0.11445527065E+04  0.80246381236E+02 0.  0.
         23    2    1    2    0    0  0.58274063733E+02  0.76533759199E+02  0.24793633871E+03  0.27841559421E+03  0.82398617956E+02 0.  0.
        -11    1    3    3    0    0 -0.28467185353E+02  0.19022785455E+00  0.10083582059E+03  0.10477728543E+03  0.00000000000E+00 0.  1.
         12    1    3    3    0    0 -0.36838009512E+02 -0.44447724491E+02  0.10381716077E+04  0.10397754210E+04  0.00000000000E+00 0. -1.
        -11    1    4    4    0    0 -0.19607557437E+02  0.19247435530E+02  0.80636885427E+02  0.85189361862E+02  0.00000000000E+00 0. -1.
         11    1    4    4    0    0  0.77881621170E+02  0.57286323670E+02  0.16729945329E+03  0.19322623234E+03  0.00000000000E+00 0.  1.
          3    1    1    2  501    0  0.70311311325E+01 -0.32276262563E+02 -0.41797514144E+01  0.33296610217E+02  0.00000000000E+00 0. -1.
<scales pt_clust_5="13000.00000" pt_clust_6="13000.00000" pt_clust_7="13000.00000" pt_clust_8="13000.00000" pt_clust_9="33.03322"></scales>
<clustering>
<clus scale="   33.033">  2  9  1 -1</clus>
<clus scale="   80.246">  5  6 -1 -1</clus>
<clus scale="   82.399">  7  8 -1 -1</clus>
<clus scale="  113.962">  1  5  2 -1</clus>
<clus scale="   33.033">  2  5  1 -1</clus>
</clustering>
</event>
<event>
 9    2  0.4883225E-005  0.1544501E+03  0.7546771E-02  0.1221590E+00
          2   -1    0    0  502    0 -0.00000000000E+00  0.00000000000E+00  0.96728311022E+03  0.96728311022E+03  0.00000000000E+00 0. -1.
         21   -1    0    0  501  502  0.00000000000E+00 -0.00000000000E+00 -0.42196725001E+02  0.42196725001E+02  0.00000000000E+00 0. -1.
         24    2    1    2    0    0  0.15596131912E+02 -0.22709437975E+02  0.13786057470E+03  0.16333674378E+03  0.83152846665E+02 0.  0.
         23    2    1    2    0    0  0.22306476660E+02  0.12882115923E+03  0.24545286645E+03  0.29277682209E+03  0.91535173253E+02 0.  0.
        -11    1    3    3    0    0  0.47266549129E+02 -0.72041770596E+01  0.52659921212E+02  0.71127309353E+02  0.00000000000E+00 0.  1.
         12    1    3    3    0    0 -0.31670417218E+02 -0.15505260915E+02  0.85200653484E+02  0.92209434424E+02  0.00000000000E+00 0. -1.
        -13    1    4    4    0    0  0.30824930639E+02  0.33313659056E+02  0.15295662387E+03  0.15954844097E+03  0.00000000000E+00 0.  1.
         13    1    4    4    0    0 -0.85184539787E+01  0.95507500170E+02  0.92496242574E+02  0.13322838112E+03  0.00000000000E+00 0. -1.
          1    1    1    2  501    0 -0.37902608572E+02 -0.10611172125E+03  0.54177294408E+03  0.55336626935E+03  0.00000000000E+00 0. -1.
<scales pt_clust_5="13000.00000" pt_clust_6="13000.00000" pt_clust_7="13000.00000" pt_clust_8="13000.00000" pt_clust_9="124.40327"></scales>
<clustering>
<clus scale="   83.153">  5  6 -1 -1</clus>
<clus scale="   87.598">  1  5  2 -1</clus>
<clus scale="   91.535">  7  8 -1 -1</clus>
<clus scale="  124.403">  2  9  1 -1</clus>
<clus scale="  124.403">  2  5  1 -1</clus>
</clustering>
</event>
<event>
 9    2  0.4883225E-005  0.9283630E+02  0.7546771E-02  0.1302279E+00
         21   -1    0    0  501  502  0.00000000000E+00  0.00000000000E+00  0.67831685264E+02  0.67831685264E+02  0.00000000000E+00 0.  1.
         -1   -1    0    0    0  501 -0.00000000000E+00 -0.00000000000E+00 -0.22093051587E+03  0.22093051587E+03  0.00000000000E+00 0.  1.
         23    2    1    2    0    0  0.12412414536E+02 -0.20610755608E+02 -0.13182821168E+03  0.16196822737E+03  0.90973391721E+02 0.  0.
         24    2    1    2    0    0  0.76779703829E+01  0.13556911029E+02 -0.45927249561E+02  0.94215917897E+02  0.80774908648E+02 0.  0.
        -11    1    4    4    0    0  0.18829108168E+02 -0.23862349493E+02 -0.46041422391E+02  0.55170278353E+02  0.00000000000E+00 0.  1.
         12    1    4    4    0    0 -0.11151137785E+02  0.37419260523E+02  0.11417282990E+00  0.39045639544E+02  0.00000000000E+00 0. -1.
        -13    1    3    3    0    0  0.16332926137E+02  0.34272461860E+02 -0.41895402536E+02  0.56538401744E+02  0.00000000000E+00 0. -1.
         13    1    3    3    0    0 -0.39205116010E+01 -0.54883217468E+02 -0.89932809143E+02  0.10542982562E+03  0.00000000000E+00 0.  1.
         -2    1    1    2    0  502 -0.20090384919E+02  0.70538445782E+01  0.24656630638E+02  0.32578055865E+02  0.00000000000E+00 0.  1.
<scales pt_clust_5="13000.00000" pt_clust_6="13000.00000" pt_clust_7="13000.00000" pt_clust_8="13000.00000" pt_clust_9="21.29273"></scales>
<clustering>
<clus scale="   21.293">  1  9  2 -1</clus>
<clus scale="   80.775">  5  6 -1 -1</clus>
<clus scale="   82.867">  1  5  2 -1</clus>
<clus scale="   90.973">  7  8 -1 -1</clus>
<clus scale="   21.293">  1  5  2 -1</clus>
</clustering>
</event>
<event>
 9    2  0.4883225E-005  0.1047119E+03  0.7546771E-02  0.1276741E+00
          2   -1    0    0  502    0 -0.00000000000E+00  0.00000000000E+00  0.70684644157E+03  0.70684644157E+03  0.00000000000E+00 0. -1.
         21   -1    0    0  501  502  0.00000000000E+00 -0.00000000000E+00 -0.11997188831E+03  0.11997188831E+03  0.00000000000E+00 0. -1.
         24    2    1    2    0    0 -0.80254034436E+01  0.49883556497E+02  0.56996810205E+03  0.57773746617E+03  0.79775724143E+02 0.  0.
         23    2    1    2    0    0 -0.64765674751E+02 -0.35221975450E+02  0.86881387058E+02  0.14705148231E+03  0.92954735492E+02 0.  0.
        -11    1    3    3    0    0  0.27709984786E+02  0.39188982507E+02  0.19100339024E+03  0.19694139912E+03  0.00000000000E+00 0.  1.
         12    1    3    3    0    0 -0.35735388230E+02  0.10694573990E+02  0.37896471181E+03  0.38079606705E+03  0.00000000000E+00 0. -1.
        -13    1    4    4    0    0 -0.61506221741E+02 -0.55050013263E+02  0.31866227440E+02  0.88481499334E+02  0.00000000000E+00 0. -1.
         13    1    4    4    0    0 -0.32594530099E+01  0.19828037813E+02  0.55015159618E+02  0.58569982971E+02  0.00000000000E+00 0.  1.
          1    1    1    2  501    0  0.72791078195E+02 -0.14661581047E+02 -0.69974935839E+02  0.10202938140E+03  0.00000000000E+00 0. -1.
<scales pt_clust_5="13000.00000" pt_clust_6="13000.00000" pt_clust_7="13000.00000" pt_clust_8="13000.00000" pt_clust_9="74.25297"></scales>
<clustering>
<clus scale="   74.253">  2  9  1 -1</clus>
<clus scale="   79.776">  5  6 -1 -1</clus>
<clus scale="   92.955">  7  8 -1 -1</clus>
<clus scale="   93.210">  1  5  2 -1</clus>
<clus scale="   74.253">  2  5  1 -1</clus>
</clustering>
</event>
<event>
 9    2  0.5029054E-005  0.9348597E+02  0.7546771E-02  0.1302088E+00
         21   -1    0    0  501  502  0.00000000000E+00  0.00000000000E+00  0.60429524145E+02  0.60429524145E+02  0.00000000000E+00 0.  1.
         -1   -1    0    0    0  501 -0.00000000000E+00 -0.00000000000E+00 -0.68934348288E+03  0.68934348288E+03  0.00000000000E+00 0.  1.
         23    2    1    2    0    0  0.15428084640E+02  0.62219537381E+01 -0.53234577927E+03  0.54037365781E+03  0.91295798595E+02 0.  0.
         24    2    1    2    0    0 -0.20955355646E+02 -0.25747061828E+02 -0.13849528214E+03  0.16281971301E+03  0.78913101860E+02 0.  0.
        -11    1    4    4    0    0  0.23586581080E+02 -0.28399901023E+02 -0.88024927063E+02  0.95452967317E+02  0.00000000000E+00 0.  1.
         12    1    4    4    0    0 -0.44541936726E+02  0.26528391953E+01 -0.50470355078E+02  0.67366745690E+02  0.00000000000E+00 0. -1.
        -13    1    3    3    0    0 -0.19163224343E+02 -0.34420535417E+02 -0.23327498811E+03  0.23657815305E+03  0.00000000000E+00 0.  1.
         13    1    3    3    0    0  0.34591308983E+02  0.40642489155E+02 -0.29907079116E+03  0.30379550475E+03  0.00000000000E+00 0. -1.
         -2    1    1    2    0  502  0.55272710060E+01  0.19525108090E+02  0.41927102676E+02  0.46579636211E+02  0.00000000000E+00 0.  1.
<scales pt_clust_5="13000.00000" pt_clust_6="13000.00000" pt_clust_7="13000.00000" pt_clust_8="13000.00000" pt_clust_9="20.29238"></scales>
<clustering>
<clus scale="   20.292">  1  9  2 -1</clus>
<clus scale="   78.913">  5  6 -1 -1</clus>
<clus scale="   81.437">  1  5  2 -1</clus>
<clus scale="   91.296">  7  8 -1 -1</clus>
<clus scale="   20.292">  1  5  2 -1</clus>
</clustering>
</event>
<event>
 9    2  0.4883225E-005  0.9952019E+02  0.7546771E-02  0.1285615E+00
         21   -1    0    0  501  502  0.00000000000E+00  0.00000000000E+00  0.26715783459E+02  0.26715783459E+02  0.00000000000E+00 0. -1.
          2   -1    0    0  502    0 -0.00000000000E+00 -0.00000000000E+00 -0.12167439160E+04  0.12167439160E+04  0.00000000000E+00 0. -1.
         24    2    1    2    0    0  0.38642125349E+02 -0.48639817521E+02 -0.87602002565E+03  0.88193187519E+03  0.80831314681E+02 0.  0.
         23    2    1    2    0    0 -0.39609776201E+01 -0.19247841223E+02 -0.23246698903E+03  0.24990134839E+03  0.89574629237E+02 0.  0.
        -13    1    3    3    0    0  0.41408900837E+02 -0.39779854648E+02 -0.27938576495E+03  0.28522541886E+03  0.00000000000E+00 0.  1.
         14    1    3    3    0    0 -0.27667754877E+01 -0.88599628730E+01 -0.59663426070E+03  0.59670645633E+03  0.00000000000E+00 0. -1.
        -11    1    4    4    0    0 -0.45194441035E+02 -0.34030291358E+01 -0.90394624105E+02  0.10112025601E+03  0.00000000000E+00 0.  1.
         11    1    4    4    0    0  0.41233463415E+02 -0.15844812087E+02 -0.14207236493E+03  0.14878109239E+03  0.00000000000E+00 0. -1.
          1    1    1    2  501    0 -0.34681147729E+02  0.67887658744E+02 -0.81541117893E+02  0.11162647591E+03  0.00000000000E+00 0. -1.
<scales pt_clust_5="13000.00000" pt_clust_6="13000.00000" pt_clust_7="13000.00000" pt_clust_8="13000.00000" pt_clust_9="76.23330"></scales>
<clustering>
<clus scale="   76.233">  1  9  2 -1</clus>
<clus scale="   80.831">  5  6 -1 -1</clus>
<clus scale="   89.575">  7  8 -1 -1</clus>
<clus scale="   91.730">  2  5  1 -1</clus>
<clus scale="   76.233">  1  5  2 -1</clus>
</clustering>
</event>
<event>
 9    2  0.4883225E-005  0.1150562E+03  0.7546771E-02  0.1255804E+00
         21   -1    0    0  501  502  0.00000000000E+00  0.00000000000E+00  0.56244060648E+02  0.56244060648E+02  0.00000000000E+00 0. -1.
          2   -1    0    0  502    0 -0.00000000000E+00 -0.00000000000E+00 -0.47087309592E+03  0.47087309592E+03  0.00000000000E+00 0. -1.
         24    2    1    2    0    0 -0.15610474780E+02 -0.54205274127E+02 -0.18398617928E+03  0.20866285289E+03  0.80668292072E+02 0.  0.
         23    2    1    2    0    0  0.73356718106E+02  0.57967337027E+02 -0.22449663710E+03  0.26026016530E+03  0.92710265433E+02 0.  0.
        -13    1    3    3    0    0  0.19776813146E+02  0.89441906410E+01 -0.72979712034E+02  0.76139078356E+02  0.00000000000E+00 0.  1.
         14    1    3    3    0    0 -0.35387287926E+02 -0.63149464768E+02 -0.11100646724E+03  0.13252377453E+03  0.00000000000E+00 0. -1.
        -13    1    4    4    0    0 -0.16380429161E+02  0.18166518655E+02 -0.14461271544E+02  0.28416003136E+02  0.00000000000E+00 0.  1.
         13    1    4    4    0    0  0.89737147267E+02  0.39800818372E+02 -0.21003536556E+03  0.23184416216E+03  0.00000000000E+00 0. -1.
          1    1    1    2  501    0 -0.57746243325E+02 -0.37620628996E+01 -0.61462188961E+01  0.58194138383E+02  0.00000000000E+00 0. -1.
<scales pt_clust_5="13000.00000" pt_clust_6="13000.00000" pt_clust_7="13000.00000" pt_clust_8="13000.00000" pt_clust_9="57.86866"></scales>
<clustering>
<clus scale="   57.869">  1  9  2 -1</clus>
<clus scale="   80.668">  5  6 -1 -1</clus>
<clus scale="   92.710">  7  8 -1 -1</clus>
<clus scale="  105.594">  2  5  1 -1</clus>
<clus scale="   57.869">  1  5  2 -1</clus>
</clustering>
</event>
<event>
 9    2  0.7171024E-005  0.1816604E+03  0.7546771E-02  0.1167723E+00
         21   -1    0    0  501  502  0.00000000000E+00  0.00000000000E+00  0.46860446760E+03  0.46860446760E+03  0.00000000000E+00 0.  1.
          2   -1    0    0  502    0 -0.00000000000E+00 -0.00000000000E+00 -0.74427128241E+03  0.74427128241E+03  0.00000000000E+00 0. -1.
         23    2    1    2    0    0  0.97498595154E+02  0.12002004114E+03 -0.69102596999E+03  0.71428170963E+03  0.93651925636E+02 0.  0.
         24    2    1    2    0    0 -0.86913601118E+02 -0.15759992286E+03  0.20461006660E+03  0.28425909702E+03  0.80908869354E+02 0.  0.
        -13    1    4    4    0    0 -0.62520167338E+02 -0.15098281765E+03  0.20048765352E+03  0.25865011457E+03  0.00000000000E+00 0.  1.
         14    1    4    4    0    0 -0.24393433780E+02 -0.66171052086E+01  0.41224130822E+01  0.25608982458E+02  0.00000000000E+00 0. -1.
        -11    1    3    3    0    0  0.10900740950E+03  0.91937006370E+02 -0.63225518246E+03  0.64813705666E+03  0.00000000000E+00 0. -1.
         11    1    3    3    0    0 -0.11508814348E+02  0.28083034767E+02 -0.58770787532E+02  0.66144652970E+02  0.00000000000E+00 0.  1.
          1    1    1    2  501    0 -0.10584994036E+02  0.37579881726E+02  0.21074908858E+03  0.21433494336E+03  0.00000000000E+00 0. -1.
<scales pt_clust_5="13000.00000" pt_clust_6="13000.00000" pt_clust_7="13000.00000" pt_clust_8="13000.00000" pt_clust_9="39.04215"></scales>
<clustering>
<clus scale="   39.042">  1  9  2 -1</clus>
<clus scale="   80.909">  5  6 -1 -1</clus>
<clus scale="   93.652">  7  8 -1 -1</clus>
<clus scale="  175.431">  1  5  2 -1</clus>
<clus scale="   39.042">  1  5  2 -1</clus>
</clustering>
</event>
<event>
 9    2  0.4883225E-005  0.2807822E+03  0.7546771E-02  0.1111131E+00
          2   -1    0    0  502    0 -0.00000000000E+00  0.00000000000E+00  0.93456613578E+03  0.93456613578E+03  0.00000000000E+00 0. -1.
         21   -1    0    0  501  502  0.00000000000E+00 -0.00000000000E+00 -0.22596807884E+03  0.22596807884E+03  0.00000000000E+00 0. -1.
         23    2    1    2    0    0 -0.15245031992E+02  0.16193948025E+03  0.10506278070E+03  0.21402637962E+03  0.91171799483E+02 0.  0.
         24    2    1    2    0    0  0.21462373161E+03  0.45585930485E+02  0.61593124625E+03  0.65845866900E+03  0.77814493753E+02 0.  0.
        -13    1    4    4    0    0  0.60595577389E+02 -0.20431214760E+02  0.14081791555E+03  0.15465750508E+03  0.00000000000E+00 0.  1.
         14    1    4    4    0    0  0.15402815422E+03  0.66017145246E+02  0.47511333070E+03  0.50380116392E+03  0.00000000000E+00 0. -1.
        -13    1    3    3    0    0 -0.32989344222E+02  0.31077966379E+02  0.58491937903E+02  0.73996240622E+02  0.00000000000E+00 0.  1.
         13    1    3    3    0    0  0.17744312231E+02  0.13086151387E+03  0.46570842797E+02  0.14003013900E+03  0.00000000000E+00 0. -1.
          1    1    1    2  501    0 -0.19937869962E+03 -0.20752541074E+03 -0.12395970007E+02  0.28804916600E+03  0.00000000000E+00 0. -1.
<scales pt_clust_5="13000.00000" pt_clust_6="13000.00000" pt_clust_7="13000.00000" pt_clust_8="13000.00000" pt_clust_9="269.78427"></scales>
<clustering>
<clus scale="   77.814">  5  6 -1 -1</clus>
<clus scale="   91.172">  7  8 -1 -1</clus>
<clus scale="  186.465">  1  7  2 -1</clus>
<clus scale="  269.784">  2  9  1 -1</clus>
<clus scale="  269.784">  2  5  1 -1</clus>
</clustering>
</event>
<event>
 9    2  0.4883225E-005  0.2146356E+03  0.7546771E-02  0.1153350E+00
          2   -1    0    0  502    0 -0.00000000000E+00  0.00000000000E+00  0.21873526048E+04  0.21873526048E+04  0.00000000000E+00 0. -1.
         21   -1    0    0  501  502  0.00000000000E+00 -0.00000000000E+00 -0.38743151892E+02  0.38743151892E+02  0.00000000000E+00 0. -1.
         24    2    1    2    0    0 -0.90159572959E+02 -0.86323865573E+02  0.49241564902E+03  0.51434311239E+03  0.80592229815E+02 0.  0.
         23    2    1    2    0    0 -0.24188765623E+02  0.22180553663E+03  0.73042275969E+03  0.76915896088E+03  0.91133455834E+02 0.  0.
        -13    1    3    3    0    0 -0.18984458586E+02  0.15211703921E+02  0.92482240308E+02  0.95628292761E+02  0.00000000000E+00 0.  1.
         14    1    3    3    0    0 -0.71175114373E+02 -0.10153556949E+03  0.39993340871E+03  0.41871481963E+03  0.00000000000E+00 0. -1.
        -13    1    4    4    0    0  0.27884073960E+02  0.27784892943E+02  0.98524409977E+02  0.10609703680E+03  0.00000000000E+00 0.  1.
         13    1    4    4    0    0 -0.52072839583E+02  0.19402064369E+03  0.63189834971E+03  0.66306192408E+03  0.00000000000E+00 0. -1.
          1    1    1    2  501    0  0.11434833858E+03 -0.13548167106E+03  0.92577104416E+03  0.94259368337E+03  0.00000000000E+00 0. -1.
<scales pt_clust_5="13000.00000" pt_clust_6="13000.00000" pt_clust_7="13000.00000" pt_clust_8="13000.00000" pt_clust_9="194.32746"></scales>
<clustering>
<clus scale="   80.592">  5  6 -1 -1</clus>
<clus scale="   91.133">  7  8 -1 -1</clus>
<clus scale="  148.579">  1  5  2 -1</clus>
<clus scale="  194.327">  2  9  1 -1</clus>
<clus scale="  194.327">  2  5  1 -1</clus>
</clustering>
</event>
<event>
 9    2  0.4883225E-005  0.9572987E+02  0.7546771E-02  0.1294322E+00
          2   -1    0    0  502    0 -0.00000000000E+00  0.00000000000E+00  0.36859427652E+03  0.36859427652E+03  0.00000000000E+00 0. -1.
         21   -1    0    0  501  502  0.00000000000E+00 -0.00000000000E+00 -0.54791858283E+02  0.54791858283E+02  0.00000000000E+00 0. -1.
         24    2    1    2    0    0  0.15815541409E+02  0.32727805472E+02  0.26168631799E+03  0.27648363816E+03  0.81499892916E+02 0.  0.
         23    2    1    2    0    0 -0.21801698954E+02  0.26217396027E+01  0.12873868693E+02  0.93748219708E+02  0.90226407484E+02 0.  0.
        -11    1    3    3    0    0 -0.23610284441E+02 -0.12896074637E+02  0.11022861964E+03  0.11346410384E+03  0.00000000000E+00 0.  1.
         12    1    3    3    0    0  0.39425825850E+02  0.45623880109E+02  0.15145769835E+03  0.16301953432E+03  0.00000000000E+00 0. -1.
        -11    1    4    4    0    0 -0.33979807367E+02  0.40617093613E+02  0.77949589308E+01  0.53526974386E+02  0.00000000000E+00 0. -1.
         11    1    4    4    0    0  0.12178108413E+02 -0.37995354010E+02  0.50789097622E+01  0.40221245322E+02  0.00000000000E+00 0.  1.
          1    1    1    2  501    0  0.59861575450E+01 -0.35349545074E+02  0.39242231552E+02  0.53154276934E+02  0.00000000000E+00 0. -1.
<scales pt_clust_5="13000.00000" pt_clust_6="13000.00000" pt_clust_7="13000.00000" pt_clust_8="13000.00000" pt_clust_9="35.85282"></scales>
<clustering>
<clus scale="   35.853">  2  9  1 -1</clus>
<clus scale="   81.500">  5  6 -1 -1</clus>
<clus scale="   87.554">  1  5  2 -1</clus>
<clus scale="   90.226">  7  8 -1 -1</clus>
<clus scale="   35.853">  2  5  1 -1</clus>
</clustering>
</event>
<event>
 9    2  0.4883225E-005  0.1328080E+03  0.7546771E-02  0.1223472E+00
         21   -1    0    0  501  502  0.00000000000E+00  0.00000000000E+00  0.96739195808E+02  0.96739195808E+02  0.00000000000E+00 0. -1.
          2   -1    0    0  502    0 -0.00000000000E+00 -0.00000000000E+00 -0.63138337193E+03  0.63138337193E+03  0.00000000000E+00 0. -1.
         23    2    1    2    0    0 -0.13775601633E+02  0.95890125686E+02 -0.53774859067E+03  0.55350485705E+03  0.88370790416E+02 0.  0.
         24    2    1    2    0    0  0.13634147288E+02 -0.11810380124E+03 -0.11113182220E+02  0.14824333962E+03  0.87853213280E+02 0.  0.
        -11    1    4    4    0    0  0.19018883703E+02  0.68187354137E+01 -0.11411977951E+02  0.23204446356E+02  0.00000000000E+00 0.  1.
         12    1    4    4    0    0 -0.53847364147E+01 -0.12492253665E+03  0.29879573085E+00  0.12503889327E+03  0.00000000000E+00 0. -1.
        -13    1    3    3    0    0  0.11532065771E+02  0.10341535616E+03 -0.44975819931E+03  0.46163856238E+03  0.00000000000E+00 0. -1.
         13    1    3    3    0    0 -0.25307667404E+02 -0.75252304776E+01 -0.87990391366E+02  0.91866294667E+02  0.00000000000E+00 0.  1.
          1    1    1    2  501    0  0.14145434491E+00  0.22213675554E+02  0.14217596776E+02  0.26374371064E+02  0.00000000000E+00 0. -1.
<scales pt_clust_5="13000.00000" pt_clust_6="13000.00000" pt_clust_7="13000.00000" pt_clust_8="13000.00000" pt_clust_9="22.21413"></scales>
<clustering>
<clus scale="   22.214">  1  9  2 -1</clus>
<clus scale="   87.853">  5  6 -1 -1</clus>
<clus scale="   88.371">  7  8 -1 -1</clus>
<clus scale="  132.464">  1  5  2 -1</clus>
<clus scale="   22.214">  1  5  2 -1</clus>
</clustering>
</event>
<event>
 9    2  0.4883225E-005  0.1379655E+03  0.7546771E-02  0.1220034E+00
          2   -1    0    0  502    0 -0.00000000000E+00  0.00000000000E+00  0.95270185261E+03  0.95270185261E+03  0.00000000000E+00 0. -1.
         21   -1    0    0  501  502  0.00000000000E+00 -0.00000000000E+00 -0.28596399164E+02  0.28596399164E+02  0.00000000000E+00 0. -1.
         24    2    1    2    0    0  0.78721427482E+02 -0.68896823150E+02  0.63448547451E+03  0.64803581069E+03  0.80216950727E+02 0.  0.
         23    2    1    2    0    0 -0.44057693422E+02  0.72460940243E+02  0.20844033313E+03  0.24491985632E+03  0.96678308502E+02 0.  0.
        -11    1    3    3    0    0  0.29340969037E+02 -0.23402419946E+02  0.68725164207E+02  0.78305261117E+02  0.00000000000E+00 0.  1.
         12    1    3    3    0    0  0.49380458445E+02 -0.45494403204E+02  0.56576031030E+03  0.56973054957E+03  0.00000000000E+00 0. -1.
        -11    1    4    4    0    0  0.16020385312E+01  0.70402385084E+02  0.70672198321E+02  0.99767840352E+02  0.00000000000E+00 0. -1.
         11    1    4    4    0    0 -0.45659731953E+02  0.20585551594E+01  0.13776813481E+03  0.14515201597E+03  0.00000000000E+00 0.  1.
          1    1    1    2  501    0 -0.34663734060E+02 -0.35641170933E+01  0.81179645801E+02  0.88342584759E+02  0.00000000000E+00 0. -1.
<scales pt_clust_5="13000.00000" pt_clust_6="13000.00000" pt_clust_7="13000.00000" pt_clust_8="13000.00000" pt_clust_9="34.84648"></scales>
<clustering>
<clus scale="   34.846">  2  9  1 -1</clus>
<clus scale="   80.217">  5  6 -1 -1</clus>
<clus scale="   96.678">  7  8 -1 -1</clus>
<clus scale="  126.975">  1  5  2 -1</clus>
<clus scale="   34.846">  2  5  1 -1</clus>
</clustering>
</event>
<event>
 9    2  0.4883225E-005  0.1223644E+03  0.7546771E-02  0.1241568E+00
         21   -1    0    0  501  502  0.00000000000E+00  0.00000000000E+00  0.14179957641E+03  0.14179957641E+03  0.00000000000E+00 0.  1.
         -1   -1    0    0    0  501 -0.00000000000E+00 -0.00000000000E+00 -0.20524489641E+03  0.20524489641E+03  0.00000000000E+00 0.  1.
         24    2    1    2    0    0 -0.81310961733E+02 -0.10626717764E+02 -0.80120698908E+02  0.14031627316E+03  0.80900744699E+02 0.  0.
         23    2    1    2    0    0  0.82807482809E+02  0.31133573348E+02 -0.51487269600E+02  0.13553187002E+03  0.88834510527E+02 0.  0.
        -11    1    3    3    0    0 -0.42982098135E+02 -0.16580998409E+02  0.54247440908E+01  0.46387693591E+02  0.00000000000E+00 0.  1.
         12    1    3    3    0    0 -0.38328863598E+02  0.59542806449E+01 -0.85545442999E+02  0.93928579573E+02  0.00000000000E+00 0. -1.
        -11    1    4    4    0    0  0.10680507955E+01  0.37918172519E+02 -0.35528750529E+02  0.51973268647E+02  0.00000000000E+00 0.  1.
         11    1    4    4    0    0  0.81739432014E+02 -0.67845991711E+01 -0.15958519071E+02  0.83558601369E+02  0.00000000000E+00 0. -1.
         -2    1    1    2    0  502 -0.14965210769E+01 -0.20506855584E+02  0.68162648513E+02  0.71196329635E+02  0.00000000000E+00 0.  1.
<scales pt_clust_5="13000.00000" pt_clust_6="13000.00000" pt_clust_7="13000.00000" pt_clust_8="13000.00000" pt_clust_9="20.56139"></scales>
<clustering>
<clus scale="   20.561">  1  9  2 -1</clus>
<clus scale="   80.901">  5  6 -1 -1</clus>
<clus scale="   88.835">  7  8 -1 -1</clus>
<clus scale="  116.732">  2  5  1 -1</clus>
<clus scale="   20.561">  1  5  2 -1</clus>
</clustering>
</event>
<event>
 9    2  0.4883225E-005  0.1400177E+03  0.7546771E-02  0.1233827E+00
         21   -1    0    0  501  502  0.00000000000E+00  0.00000000000E+00  0.92778091367E+02  0.92778091367E+02  0.00000000000E+00 0. -1.
          2   -1    0    0  502    0 -0.00000000000E+00 -0.00000000000E+00 -0.39245626564E+03  0.39245626564E+03  0.00000000000E+00 0. -1.
         24    2    1    2    0    0  0.32800696148E+02  0.30788600724E+02 -0.47364009382E+02  0.10279486594E+03  0.79370091820E+02 0.  0.
         23    2    1    2    0    0 -0.55336267586E+02  0.77149035036E+02 -0.23680495594E+03  0.27108904987E+03  0.91643928780E+02 0.  0.
        -11    1    3    3    0    0  0.29247995123E+02  0.51435149312E+02 -0.54717598338E+02  0.80591782282E+02  0.00000000000E+00 0.  1.
         12    1    3    3    0    0  0.35527010254E+01 -0.20646548588E+02  0.73535889565E+01  0.22203083653E+02  0.00000000000E+00 0. -1.
        -13    1    4    4    0    0  0.74292054882E+01  0.35359625091E+02 -0.15776653899E+03  0.16185109516E+03  0.00000000000E+00 0.  1.
         13    1    4    4    0    0 -0.62765473075E+02  0.41789409945E+02 -0.79038416955E+02  0.10923795471E+03  0.00000000000E+00 0. -1.
          1    1    1    2  501    0  0.22535571438E+02 -0.10793763576E+03 -0.15509208946E+02  0.11135044120E+03  0.00000000000E+00 0. -1.
<scales pt_clust_5="13000.00000" pt_clust_6="13000.00000" pt_clust_7="13000.00000" pt_clust_8="13000.00000" pt_clust_9="105.85999"></scales>
<clustering>
<clus scale="   79.370">  5  6 -1 -1</clus>
<clus scale="   91.233">  2  5  1 -1</clus>
<clus scale="   91.644">  7  8 -1 -1</clus>
<clus scale="  105.860">  1  9  2 -1</clus>
<clus scale="  105.860">  1  5  2 -1</clus>
</clustering>
</event>
<event>
 9    2  0.4883225E-005  0.1207852E+03  0.7546771E-02  0.1247743E+00
          2   -1    0    0  502    0 -0.00000000000E+00  0.00000000000E+00  0.95291156381E+03  0.95291156381E+03  0.00000000000E+00 0. -1.
         21   -1    0    0  501  502  0.00000000000E+00 -0.00000000000E+00 -0.26278789599E+02  0.26278789599E+02  0.00000000000E+00 0.  1.
         23    2    1    2    0    0  0.56003701395E+02 -0.26413207075E+02  0.38540036581E+03  0.40172744593E+03  0.94960132521E+02 0.  0.
         24    2    1    2    0    0 -0.58961491477E+02  0.87186266393E+02  0.27448826452E+03  0.30386730891E+03  0.76900140060E+02 0.  0.
        -13    1    4    4    0    0 -0.63736811512E+02  0.31556001174E+02  0.18713578526E+03  0.20019481630E+03  0.00000000000E+00 0.  1.
         14    1    4    4    0    0  0.47753200350E+01  0.55630265220E+02  0.87352479265E+02  0.10367249261E+03  0.00000000000E+00 0. -1.
        -11    1    3    3    0    0 -0.26741557020E+02 -0.18371854959E+01  0.80587428129E+02  0.84928320923E+02  0.00000000000E+00 0. -1.
         11    1    3    3    0    0  0.82745258415E+02 -0.24576021579E+02  0.30481293768E+03  0.31679912501E+03  0.00000000000E+00 0.  1.
          1    1    1    2  501    0  0.29577900820E+01 -0.60773059318E+02  0.26674414388E+03  0.27359559856E+03  0.00000000000E+00 0. -1.
<scales pt_clust_5="13000.00000" pt_clust_6="13000.00000" pt_clust_7="13000.00000" pt_clust_8="13000.00000" pt_clust_9="60.84502"></scales>
<clustering>
<clus scale="   60.845">  2  9  1 -1</clus>
<clus scale="   76.900">  5  6 -1 -1</clus>
<clus scale="   94.960">  7  8 -1 -1</clus>
<clus scale="  107.169">  2  5  1 -1</clus>
<clus scale="   60.845">  2  5  1 -1</clus>
</clustering>
</event>
<event>
 9    2  0.4883225E-005  0.8976440E+02  0.7546771E-02  0.1306172E+00
         21   -1    0    0  501  502  0.00000000000E+00  0.00000000000E+00  0.49837873629E+02  0.49837873629E+02  0.00000000000E+00 0.  1.
          2   -1    0    0  502    0 -0.00000000000E+00 -0.00000000000E+00 -0.43540439587E+03  0.43540439587E+03  0.00000000000E+00 0. -1.
         23    2    1    2    0    0 -0.10326853117E+02 -0.39172759156E+02 -0.16683390330E+03  0.19335105337E+03  0.88937784978E+02 0.  0.
         24    2    1    2    0    0 -0.35550656968E+01 -0.45052300340E+02 -0.56264189675E+02  0.10836312883E+03  0.80836627785E+02 0.  0.
        -13    1    4    4    0    0 -0.33494033873E+02 -0.48875191153E+02 -0.23296287231E+02  0.63665937628E+02  0.00000000000E+00 0.  1.
         14    1    4    4    0    0  0.29938968176E+02  0.38228908129E+01 -0.32967902444E+02  0.44697191200E+02  0.00000000000E+00 0. -1.
        -13    1    3    3    0    0  0.97160551908E+01  0.26940785035E+02 -0.49829027620E+02  0.57472946856E+02  0.00000000000E+00 0.  1.
         13    1    3    3    0    0 -0.20042908308E+02 -0.66113544191E+02 -0.11700487568E+03  0.13587810652E+03  0.00000000000E+00 0. -1.
          1    1    1    2  501    0  0.13881918814E+02  0.84225059496E+02 -0.16246842927E+03  0.18352808729E+03  0.00000000000E+00 0. -1.
<scales pt_clust_5="13000.00000" pt_clust_6="13000.00000" pt_clust_7="13000.00000" pt_clust_8="13000.00000" pt_clust_9="85.36144"></scales>
<clustering>
<clus scale="   80.837">  5  6 -1 -1</clus>
<clus scale="   85.361">  1  9  2 -1</clus>
<clus scale="   85.361">  1  5  2 -1</clus>
<clus scale="   88.938">  7  8 -1 -1</clus>
<clus scale="   85.361">  1  5  2 -1</clus>
</clustering>
</event>
<event>
 9    2  0.8204034E-005  0.1039465E+03  0.7546771E-02  0.1277331E+00
         21   -1    0    0  501  502  0.00000000000E+00  0.00000000000E+00  0.92304768251E+02  0.92304768251E+02  0.00000000000E+00 0. -1.
          2   -1    0    0  502    0 -0.00000000000E+00 -0.00000000000E+00 -0.48556134090E+03  0.48556134090E+03  0.00000000000E+00 0. -1.
         23    2    1    2    0    0  0.41147329557E+02 -0.10411451082E+01 -0.68321267047E+02  0.12110999959E+03  0.91135337587E+02 0.  0.
         24    2    1    2    0    0 -0.60478237950E+02  0.56942768558E+02  0.10909449752E+02  0.11574236318E+03  0.79857262556E+02 0.  0.
        -11    1    4    4    0    0  0.19424951260E+02  0.15843807588E+02  0.58848645356E+01  0.25748526190E+02  0.00000000000E+00 0.  1.
         12    1    4    4    0    0 -0.79903189211E+02  0.41098960970E+02  0.50245852168E+01  0.89993836986E+02  0.00000000000E+00 0. -1.
        -13    1    3    3    0    0  0.65138727855E+02  0.19124824512E+02 -0.53530854629E+02  0.86454410971E+02  0.00000000000E+00 0.  1.
         13    1    3    3    0    0 -0.23991398298E+02 -0.20165969621E+02 -0.14790412419E+02  0.34655588619E+02  0.00000000000E+00 0. -1.
          1    1    1    2  501    0  0.19330908394E+02 -0.55901623450E+02 -0.33584475536E+03  0.34101374639E+03  0.00000000000E+00 0. -1.
<scales pt_clust_5="13000.00000" pt_clust_6="13000.00000" pt_clust_7="13000.00000" pt_clust_8="13000.00000" pt_clust_9="59.14963"></scales>
<clustering>
<clus scale="   59.150">  1  9  2 -1</clus>
<clus scale="   79.857">  5  6 -1 -1</clus>
<clus scale="   91.135">  7  8 -1 -1</clus>
<clus scale="   94.215">  1  5  2 -1</clus>
<clus scale="   59.150">  1  5  2 -1</clus>
</clustering>
</event>
<event>
 9    2  0.4883225E-005  0.9777187E+02  0.7546771E-02  0.1293137E+00
         21   -1    0    0  501  502  0.00000000000E+00  0.00000000000E+00  0.94261243279E+02  0.94261243279E+02  0.00000000000E+00 0.  1.
         -1   -1    0    0    0  501 -0.00000000000E+00 -0.00000000000E+00 -0.14862287563E+03  0.14862287563E+03  0.00000000000E+00 0.  1.
         24    2    1    2    0    0 -0.20985922804E+02 -0.32411566687E+02 -0.61707395930E+02  0.10453463148E+03  0.75025114825E+02 0.  0.
         23    2    1    2    0    0  0.44869114985E+02  0.87905792137E+01  0.18862067148E+02  0.10283916266E+03  0.90164316867E+02 0.  0.
        -13    1    3    3    0    0 -0.29274787673E+02 -0.10727906445E+02 -0.72510889860E+02  0.78929907629E+02  0.00000000000E+00 0.  1.
         14    1    3    3    0    0  0.82888648685E+01 -0.21683660242E+02  0.10803493930E+02  0.25604723849E+02  0.00000000000E+00 0. -1.
        -13    1    4    4    0    0  0.45252937224E+01  0.24699108472E+02  0.45482376639E+02  0.51953544897E+02  0.00000000000E+00 0.  1.
         13    1    4    4    0    0  0.40343821263E+02 -0.15908529258E+02 -0.26620309491E+02  0.50885617758E+02  0.00000000000E+00 0. -1.
         -2    1    1    2    0  502 -0.23883192181E+02  0.23620987473E+02 -0.11516303573E+02  0.35510324779E+02  0.00000000000E+00 0.  1.
<scales pt_clust_5="13000.00000" pt_clust_6="13000.00000" pt_clust_7="13000.00000" pt_clust_8="13000.00000" pt_clust_9="33.59106"></scales>
<clustering>
<clus scale="   33.591">  1  9  2 -1</clus>
<clus scale="   75.025">  5  6 -1 -1</clus>
<clus scale="   84.015">  2  5  1 -1</clus>
<clus scale="   90.164">  7  8 -1 -1</clus>
<clus scale="   33.591">  1  5  2 -1</clus>
</clustering>
</event>
<event>
 9    2  0.4883225E-005  0.9514690E+02  0.7546771E-02  0.1296694E+00
         21   -1    0    0  501  502  0.00000000000E+00  0.00000000000E+00  0.34318434658E+03  0.34318434658E+03  0.00000000000E+00 0.  1.
         -3   -1    0    0    0  501 -0.00000000000E+00 -0.00000000000E+00 -0.47289331002E+02  0.47289331002E+02  0.00000000000E+00 0.  1.
         23    2    1    2    0    0  0.21193537811E+02 -0.12510693768E+02  0.76460240616E+02  0.12123256220E+03  0.90804637765E+02 0.  0.
         24    2    1    2    0    0  0.42169705560E+01  0.51783317998E+02  0.19313253431E+03  0.21557696708E+03  0.80460910161E+02 0.  0.
        -13    1    4    4    0    0 -0.14353658707E+02  0.57038216007E+02  0.72250501566E+02  0.93163944635E+02  0.00000000000E+00 0.  1.
         14    1    4    4    0    0  0.18570629263E+02 -0.52548980094E+01  0.12088203274E+03  0.12241302244E+03  0.00000000000E+00 0. -1.
        -11    1    3    3    0    0 -0.34752077617E+02 -0.57960825966E+00  0.41740479977E+02  0.54316760886E+02  0.00000000000E+00 0. -1.
         11    1    3    3    0    0  0.55945615428E+02 -0.11931085508E+02  0.34719760639E+02  0.66915801316E+02  0.00000000000E+00 0.  1.
         -4    1    1    2    0  502 -0.25410508367E+02 -0.39272624230E+02  0.26302240657E+02  0.53664148301E+02  0.00000000000E+00 0.  1.
<scales pt_clust_5="13000.00000" pt_clust_6="13000.00000" pt_clust_7="13000.00000" pt_clust_8="13000.00000" pt_clust_9="46.77644"></scales>
<clustering>
<clus scale="   46.776">  1  9  2 -1</clus>
<clus scale="   80.461">  5  6 -1 -1</clus>
<clus scale="   85.331">  1  5  2 -1</clus>
<clus scale="   90.805">  7  8 -1 -1</clus>
<clus scale="   46.776">  1  5  2 -1</clus>
</clustering>
</event>
<event>
 9    2  0.4883225E-005  0.9723754E+02  0.7546771E-02  0.1291054E+00
          2   -1    0    0  502    0 -0.00000000000E+00  0.00000000000E+00  0.91418937247E+03  0.91418937247E+03  0.00000000000E+00 0. -1.
         21   -1    0    0  501  502  0.00000000000E+00 -0.00000000000E+00 -0.18604704209E+02  0.18604704209E+02  0.00000000000E+00 0. -1.
         24    2    1    2    0    0 -0.35922546126E+02  0.63807566343E+00  0.61146892422E+03  0.61780225246E+03  0.80588717568E+02 0.  0.
         23    2    1    2    0    0  0.41630353713E+02  0.26821215873E+02  0.18001277857E+03  0.20717707949E+03  0.89806891993E+02 0.  0.
        -11    1    3    3    0    0  0.18322596467E+02  0.22021833440E+02  0.15508693730E+03  0.15771061096E+03  0.00000000000E+00 0.  1.
         12    1    3    3    0    0 -0.54245142593E+02 -0.21383757777E+02  0.45638198693E+03  0.46009164150E+03  0.00000000000E+00 0. -1.
        -13    1    4    4    0    0  0.41144988329E+02 -0.20094643639E+02  0.44820894560E+02  0.64075091547E+02  0.00000000000E+00 0.  1.
         13    1    4    4    0    0  0.48536538395E+00  0.46915859512E+02  0.13519188401E+03  0.14310198795E+03  0.00000000000E+00 0. -1.
          1    1    1    2  501    0 -0.57078075871E+01 -0.27459291537E+02  0.10410296547E+03  0.10781474472E+03  0.00000000000E+00 0. -1.
<scales pt_clust_5="13000.00000" pt_clust_6="13000.00000" pt_clust_7="13000.00000" pt_clust_8="13000.00000" pt_clust_9="28.04626"></scales>
<clustering>
<clus scale="   28.046">  2  9  1 -1</clus>
<clus scale="   80.589">  5  6 -1 -1</clus>
<clus scale="   88.794">  1  5  2 -1</clus>
<clus scale="   89.807">  7  8 -1 -1</clus>
<clus scale="   28.046">  2  5  1 -1</clus>
</clustering>
</event>
<event>
 9    2  0.4883225E-005  0.9737962E+02  0.7546771E-02  0.1291772E+00
          2   -1    0    0  502    0 -0.00000000000E+00  0.00000000000E+00  0.58100605194E+03  0.58100605194E+03  0.00000000000E+00 0. -1.
         21   -1    0    0  501  502  0.00000000000E+00 -0.00000000000E+00 -0.33108046356E+02  0.33108046356E+02  0.00000000000E+00 0. -1.
         24    2    1    2    0    0 -0.36605391660E+02  0.26666152812E+02  0.38763155770E+03  0.39852329044E+03  0.80694176317E+02 0.  0.
         23    2    1    2    0    0  0.68658459879E+01  0.94223906634E+01  0.13157150622E+03  0.16072530664E+03  0.91573149222E+02 0.  0.
        -13    1    3    3    0    0  0.19853467044E+02 -0.12586493414E+02  0.86174707632E+02  0.89323346364E+02  0.00000000000E+00 0.  1.
         14    1    3    3    0    0 -0.56458858704E+02  0.39252646227E+02  0.30145685007E+03  0.30919994407E+03  0.00000000000E+00 0. -1.
        -13    1    4    4    0    0  0.27875092560E+02 -0.25406584905E+02  0.21579173933E+02  0.43453148210E+02  0.00000000000E+00 0.  1.
         13    1    4    4    0    0 -0.21009246572E+02  0.34828975568E+02  0.10999233229E+03  0.11727215843E+03  0.00000000000E+00 0. -1.
          1    1    1    2  501    0  0.29739545672E+02 -0.36088543476E+02  0.28694941663E+02  0.54865501219E+02  0.00000000000E+00 0. -1.
<scales pt_clust_5="13000.00000" pt_clust_6="13000.00000" pt_clust_7="13000.00000" pt_clust_8="13000.00000" pt_clust_9="46.76349"></scales>
<clustering>
<clus scale="   46.763">  2  9  1 -1</clus>
<clus scale="   80.694">  5  6 -1 -1</clus>
<clus scale="   87.228">  1  5  2 -1</clus>
<clus scale="   91.573">  7  8 -1 -1</clus>
<clus scale="   46.763">  2  5  1 -1</clus>
</clustering>
</event>
<event>
 9    2  0.4883225E-005  0.9992264E+02  0.7546771E-02  0.1291541E+00
          2   -1    0    0  502    0 -0.00000000000E+00  0.00000000000E+00  0.65181588642E+03  0.65181588642E+03  0.00000000000E+00 0. -1.
         21   -1    0    0  501  502  0.00000000000E+00 -0.00000000000E+00 -0.27366142093E+02  0.27366142093E+02  0.00000000000E+00 0.  1.
         23    2    1    2    0    0 -0.22202137673E+02 -0.20864626620E+02  0.44196786096E+03  0.45313578879E+03  0.95227020323E+02 0.  0.
         24    2    1    2    0    0  0.41372512048E+02 -0.69935281155E+01  0.77911006436E+02  0.11614333557E+03  0.75223369276E+02 0.  0.
        -11    1    4    4    0    0  0.60900371569E+02 -0.14698063441E+02  0.45109991876E+02  0.77199738945E+02  0.00000000000E+00 0.  1.
         12    1    4    4    0    0 -0.19527859521E+02  0.77045353256E+01  0.32801014559E+02  0.38943596626E+02  0.00000000000E+00 0. -1.
        -13    1    3    3    0    0  0.37377386257E+02 -0.14158636818E+02  0.16931694765E+03  0.17397058591E+03  0.00000000000E+00 0.  1.
         13    1    3    3    0    0 -0.59579523930E+02 -0.67059898016E+01  0.27265091330E+03  0.27916520287E+03  0.00000000000E+00 0. -1.
          1    1    1    2  501    0 -0.19170374375E+02  0.27858154736E+02  0.10457087693E+03  0.10990290415E+03  0.00000000000E+00 0. -1.
<scales pt_clust_5="13000.00000" pt_clust_6="13000.00000" pt_clust_7="13000.00000" pt_clust_8="13000.00000" pt_clust_9="33.81688"></scales>
<clustering>
<clus scale="   33.817">  2  9  1 -1</clus>
<clus scale="   75.223">  5  6 -1 -1</clus>
<clus scale="   81.086">  2  5  1 -1</clus>
<clus scale="   95.227">  7  8 -1 -1</clus>
<clus scale="   33.817">  2  5  1 -1</clus>
</clustering>
</event>
<event>
 9    2  0.4883225E-005  0.9475858E+02  0.7546771E-02  0.1301156E+00
         21   -1    0    0  501  502  0.00000000000E+00  0.00000000000E+00  0.39013268447E+03  0.39013268447E+03  0.00000000000E+00 0.  1.
         -1   -1    0    0    0  501 -0.00000000000E+00 -0.00000000000E+00 -0.25569945277E+02  0.25569945277E+02  0.00000000000E+00 0.  1.
         24    2    1    2    0    0  0.24060745773E+02  0.71742046047E+01  0.13106351548E+03  0.15427091938E+03  0.77404668954E+02 0.  0.
         23    2    1    2    0    0 -0.27694728071E+01 -0.13738058902E+02  0.20246562928E+03  0.22322848445E+03  0.92963546544E+02 0.  0.
        -11    1    3    3    0    0  0.44045250871E+02  0.25871258295E+02  0.64332240216E+02  0.82145865759E+02  0.00000000000E+00 0.  1.
         12    1    3    3    0    0 -0.19984505098E+02 -0.18697053690E+02  0.66731275266E+02  0.72125053617E+02  0.00000000000E+00 0. -1.
        -13    1    4    4    0    0  0.72109317600E+01  0.37239853277E+02  0.11918493965E+03  0.12507539346E+03  0.00000000000E+00 0. -1.
         13    1    4    4    0    0 -0.99804045671E+01 -0.50977912179E+02  0.83280689632E+02  0.98153090991E+02  0.00000000000E+00 0.  1.
         -2    1    1    2    0  502 -0.21291272966E+02  0.65638542969E+01  0.31033594430E+02  0.38203225924E+02  0.00000000000E+00 0.  1.
<scales pt_clust_5="13000.00000" pt_clust_6="13000.00000" pt_clust_7="13000.00000" pt_clust_8="13000.00000" pt_clust_9="22.28010"></scales>
<clustering>
<clus scale="   22.280">  1  9  2 -1</clus>
<clus scale="   77.405">  5  6 -1 -1</clus>
<clus scale="   79.552">  2  5  1 -1</clus>
<clus scale="   92.964">  7  8 -1 -1</clus>
<clus scale="   22.280">  1  5  2 -1</clus>
</clustering>
</event>
<event>
 9    2  0.4883225E-005  0.9230334E+02  0.7546771E-02  0.1302570E+00
         21   -1    0    0  501  502  0.00000000000E+00  0.00000000000E+00  0.16695239634E+03  0.16695239634E+03  0.00000000000E+00 0. -1.
         -1   -1    0    0    0  501 -0.00000000000E+00 -0.00000000000E+00 -0.20990248494E+03  0.20990248494E+03  0.00000000000E+00 0.  1.
         24    2    1    2    0    0  0.97641750357E+01  0.22797985670E+02 -0.17742875524E+03  0.19641305422E+03  0.80511101210E+02 0.  0.
         23    2    1    2    0    0 -0.22061558324E+02  0.24320862624E+01  0.97904511894E+02  0.13433921367E+03  0.89269835225E+02 0.  0.
        -13    1    3    3    0    0 -0.12981740998E+02  0.45227461539E+02 -0.13719545184E+03  0.14504013542E+03  0.00000000000E+00 0.  1.
         14    1    3    3    0    0  0.22745916034E+02 -0.22429475869E+02 -0.40233303401E+02  0.51372918805E+02  0.00000000000E+00 0. -1.
        -11    1    4    4    0    0 -0.42879614372E+02  0.57120810911E+01  0.10380171715E+03  0.11245481618E+03  0.00000000000E+00 0. -1.
         11    1    4    4    0    0  0.20818056048E+02 -0.32799948287E+01 -0.58972052542E+01  0.21884397490E+02  0.00000000000E+00 0.  1.
         -2    1    1    2    0  502  0.12297383288E+02 -0.25230071932E+02  0.36574154752E+02  0.46102613389E+02  0.00000000000E+00 0.  1.
<scales pt_clust_5="13000.00000" pt_clust_6="13000.00000" pt_clust_7="13000.00000" pt_clust_8="13000.00000" pt_clust_9="28.06746"></scales>
<clustering>
<clus scale="   28.067">  1  9  2 -1</clus>
<clus scale="   80.511">  5  6 -1 -1</clus>
<clus scale="   83.862">  2  5  1 -1</clus>
<clus scale="   89.270">  7  8 -1 -1</clus>
<clus scale="   28.067">  1  5  2 -1</clus>
</clustering>
</event>
<event>
 9    2  0.4883225E-005  0.1033305E+03  0.7546771E-02  0.1285786E+00
         21   -1    0    0  501  502  0.00000000000E+00  0.00000000000E+00  0.28072193832E+03  0.28072193832E+03  0.00000000000E+00 0.  1.
          2   -1    0    0  502    0 -0.00000000000E+00 -0.00000000000E+00 -0.40405797098E+03  0.40405797098E+03  0.00000000000E+00 0. -1.
         24    2    1    2    0    0 -0.99404848865E+01 -0.14034290871E+02 -0.37992664347E+03  0.38859636565E+03  0.79794150296E+02 0.  0.
         23    2    1    2    0    0  0.11366345465E+00  0.33367342107E+02  0.13348122109E+03  0.17117852325E+03  0.10184035545E+03 0.  0.
        -13    1    3    3    0    0  0.35952749845E+01 -0.28541611026E+02 -0.47178712554E+02  0.55257402042E+02  0.00000000000E+00 0.  1.
         14    1    3    3    0    0 -0.13535759871E+02  0.14507320155E+02 -0.33274793091E+03  0.33333896361E+03  0.00000000000E+00 0. -1.
        -13    1    4    4    0    0  0.24457736826E+02  0.18925173112E+02  0.13894972681E+03  0.14234946311E+03  0.00000000000E+00 0.  1.
         13    1    4    4    0    0 -0.24344073371E+02  0.14442168996E+02 -0.54685057180E+01  0.28829060137E+02  0.00000000000E+00 0. -1.
          1    1    1    2  501    0  0.98268214318E+01 -0.19333051237E+02  0.12310938971E+03  0.12500502040E+03  0.00000000000E+00 0. -1.
<scales pt_clust_5="13000.00000" pt_clust_6="13000.00000" pt_clust_7="13000.00000" pt_clust_8="13000.00000" pt_clust_9="21.68717"></scales>
<clustering>
<clus scale="   21.687">  1  9  2 -1</clus>
<clus scale="   79.794">  5  6 -1 -1</clus>
<clus scale="   81.688">  2  5  1 -1</clus>
<clus scale="  101.840">  7  8 -1 -1</clus>
<clus scale="   21.687">  1  5  2 -1</clus>
</clustering>
</event>
<event>
 9    2  0.4883225E-005  0.9417688E+02  0.7546771E-02  0.1293797E+00
          2   -1    0    0  502    0 -0.00000000000E+00  0.00000000000E+00  0.11913337122E+03  0.11913337122E+03  0.00000000000E+00 0. -1.
         21   -1    0    0  501  502  0.00000000000E+00 -0.00000000000E+00 -0.20372690576E+03  0.20372690576E+03  0.00000000000E+00 0.  1.
         23    2    1    2    0    0  0.70865558013E+01 -0.47957062123E+02 -0.23480691518E+02  0.10677726141E+03  0.92195127848E+02 0.  0.
         24    2    1    2    0    0  0.38058070051E+02 -0.33189485320E+02 -0.78355012333E+02  0.12163677792E+03  0.78141148913E+02 0.  0.
        -11    1    4    4    0    0  0.56146157605E+02 -0.42413609765E+02 -0.71213290907E+02  0.10011312656E+03  0.00000000000E+00 0.  1.
         12    1    4    4    0    0 -0.18088087554E+02  0.92241244454E+01 -0.71417214257E+01  0.21523651364E+02  0.00000000000E+00 0. -1.
        -13    1    3    3    0    0 -0.25542415333E+02  0.52550742549E+01 -0.34649919523E+02  0.43366435286E+02  0.00000000000E+00 0.  1.
         13    1    3    3    0    0  0.32628971134E+02 -0.53212136378E+02  0.11169228006E+02  0.63410826121E+02  0.00000000000E+00 0. -1.
          1    1    1    2  501    0 -0.45144625852E+02  0.81146547443E+02  0.17242169311E+02  0.94446237658E+02  0.00000000000E+00 0. -1.
<scales pt_clust_5="13000.00000" pt_clust_6="13000.00000" pt_clust_7="13000.00000" pt_clust_8="13000.00000" pt_clust_9="92.85908"></scales>
<clustering>
<clus scale="   78.141">  5  6 -1 -1</clus>
<clus scale="   92.195">  7  8 -1 -1</clus>
<clus scale="   92.859">  2  9  1 -1</clus>
<clus scale="   92.859">  2  5  1 -1</clus>
<clus scale="   92.859">  2  5  1 -1</clus>
</clustering>
</event>
<event>
 9    2  0.4883225E-005  0.1010122E+03  0.7546771E-02  0.1283795E+00
          2   -1    0    0  502    0 -0.00000000000E+00  0.00000000000E+00  0.39854817507E+03  0.39854817507E+03  0.00000000000E+00 0. -1.
         21   -1    0    0  501  502  0.00000000000E+00 -0.00000000000E+00 -0.52264469681E+02  0.52264469681E+02  0.00000000000E+00 0. -1.
         24    2    1    2    0    0 -0.18396055164E+02  0.49150011572E+02  0.27712169421E+03  0.29330431050E+03  0.80478858553E+02 0.  0.
         23    2    1    2    0    0  0.48014283245E+00 -0.13227139568E+02  0.71718825862E+02  0.11728433707E+03  0.91852261712E+02 0.  0.
        -11    1    3    3    0    0 -0.12434383135E+02 -0.18669613940E+02  0.33258460455E+02  0.40116001302E+02  0.00000000000E+00 0.  1.
         12    1    3    3    0    0 -0.59616720290E+01  0.67819625512E+02  0.24386323375E+03  0.25318830920E+03  0.00000000000E+00 0. -1.
        -11    1    4    4    0    0 -0.22759661347E+02 -0.47331848159E+01  0.85746088335E+02  0.88841414261E+02  0.00000000000E+00 0.  1.
         11    1    4    4    0    0  0.23239804180E+02 -0.84939547522E+01 -0.14027262473E+02  0.28442922813E+02  0.00000000000E+00 0. -1.
          1    1    1    2  501    0  0.17915912331E+02 -0.35922872004E+02 -0.25568146792E+01  0.40223997178E+02  0.00000000000E+00 0. -1.
<scales pt_clust_5="13000.00000" pt_clust_6="13000.00000" pt_clust_7="13000.00000" pt_clust_8="13000.00000" pt_clust_9="40.14265"></scales>
<clustering>
<clus scale="   40.143">  2  9  1 -1</clus>
<clus scale="   80.479">  5  6 -1 -1</clus>
<clus scale="   90.794">  1  5  2 -1</clus>
<clus scale="   91.852">  7  8 -1 -1</clus>
<clus scale="   40.143">  2  5  1 -1</clus>
</clustering>
</event>
<event>
 9    2  0.4883225E-005  0.1402056E+03  0.7546771E-02  0.1215722E+00
          2   -1    0    0  502    0 -0.00000000000E+00  0.00000000000E+00  0.29055851029E+02  0.29055851029E+02  0.00000000000E+00 0. -1.
         21   -1    0    0  501  502  0.00000000000E+00 -0.00000000000E+00 -0.98693170601E+03  0.98693170601E+03  0.00000000000E+00 0.  1.
         23    2    1    2    0    0 -0.10702383755E+03  0.75633624017E+01 -0.23461352453E+03  0.27367948962E+03  0.91354534023E+02 0.  0.
         24    2    1    2    0    0  0.10055694257E+03 -0.36079685008E+02 -0.64967944693E+03  0.66312825856E+03  0.79007981635E+02 0.  0.
        -11    1    4    4    0    0  0.99831113673E+02 -0.54973552690E+02 -0.55789651331E+03  0.56941800315E+03  0.00000000000E+00 0.  1.
         12    1    4    4    0    0  0.72582890072E+00  0.18893867682E+02 -0.91782933624E+02  0.93710255406E+02  0.00000000000E+00 0. -1.
        -11    1    3    3    0    0 -0.42382725022E+02  0.43148785220E+02 -0.65416277587E+02  0.89092100770E+02  0.00000000000E+00 0.  1.
         11    1    3    3    0    0 -0.64641112531E+02 -0.35585422818E+02 -0.16919724695E+03  0.18458738885E+03  0.00000000000E+00 0. -1.
          1    1    1    2  501    0  0.64668949794E+01  0.28516322606E+02 -0.73582883512E+02  0.79179808863E+02  0.00000000000E+00 0. -1.
<scales pt_clust_5="13000.00000" pt_clust_6="13000.00000" pt_clust_7="13000.00000" pt_clust_8="13000.00000" pt_clust_9="29.24042"></scales>
<clustering>
<clus scale="   29.240">  2  9  1 -1</clus>
<clus scale="   79.008">  5  6 -1 -1</clus>
<clus scale="   91.355">  7  8 -1 -1</clus>
<clus scale="  132.492">  2  5  1 -1</clus>
<clus scale="   29.240">  2  5  1 -1</clus>
</clustering>
</event>
<event>
 9    2  0.4883225E-005  0.7930968E+02  0.7546771E-02  0.1331478E+00
          2   -1    0    0  502    0 -0.00000000000E+00  0.00000000000E+00  0.36352427182E+03  0.36352427182E+03  0.00000000000E+00 0. -1.
         21   -1    0    0  501  502  0.00000000000E+00 -0.00000000000E+00 -0.40751718507E+02  0.40751718507E+02  0.00000000000E+00 0. -1.
         23    2    1    2    0    0  0.19581542862E+02 -0.17830748229E+02  0.87812165672E+02  0.12118042862E+03  0.79198152991E+02 0.  0.
         24    2    1    2    0    0  0.27087250331E+02 -0.12736578826E+02  0.71462675933E+02  0.11034186573E+03  0.78565092183E+02 0.  0.
        -11    1    4    4    0    0  0.67557099775E+00  0.25954268966E+02  0.54767170274E+02  0.60609598361E+02  0.00000000000E+00 0.  1.
         12    1    4    4    0    0  0.26411679333E+02 -0.38690847791E+02  0.16695505659E+02  0.49732267365E+02  0.00000000000E+00 0. -1.
        -11    1    3    3    0    0 -0.40759933051E+01 -0.24191463699E+02  0.92964330162E+02  0.96146800881E+02  0.00000000000E+00 0. -1.
         11    1    3    3    0    0  0.23657536167E+02  0.63607154695E+01 -0.51521644901E+01  0.25033627738E+02  0.00000000000E+00 0.  1.
          1    1    1    2  501    0 -0.46668793193E+02  0.30567327055E+02  0.16349771171E+03  0.17275369598E+03  0.00000000000E+00 0. -1.
<scales pt_clust_5="13000.00000" pt_clust_6="13000.00000" pt_clust_7="13000.00000" pt_clust_8="13000.00000" pt_clust_9="55.78836"></scales>
<clustering>
<clus scale="   55.788">  2  9  1 -1</clus>
<clus scale="   78.565">  5  6 -1 -1</clus>
<clus scale="   78.678">  2  5  1 -1</clus>
<clus scale="   79.198">  7  8 -1 -1</clus>
<clus scale="   55.788">  2  5  1 -1</clus>
</clustering>
</event>
<event>
 9    2  0.4883225E-005  0.1024113E+03  0.7546771E-02  0.1281666E+00
         -1   -1    0    0    0  501 -0.00000000000E+00  0.00000000000E+00  0.11435488692E+03  0.11435488692E+03  0.00000000000E+00 0.  1.
         21   -1    0    0  501  502  0.00000000000E+00 -0.00000000000E+00 -0.32446665846E+03  0.32446665846E+03  0.00000000000E+00 0.  1.
         23    2    1    2    0    0 -0.23567693485E+02  0.36971750794E+02  0.41978588305E+02  0.11162536502E+03  0.93678565893E+02 0.  0.
         24    2    1    2    0    0  0.42400959533E+02  0.31554397871E+01 -0.26561925411E+03  0.28085058387E+03  0.80719663877E+02 0.  0.
        -11    1    4    4    0    0  0.58992689942E+02  0.14125468173E+02 -0.24419541793E+03  0.25161690812E+03  0.00000000000E+00 0.  1.
         12    1    4    4    0    0 -0.16591730410E+02 -0.10970028386E+02 -0.21423836183E+02  0.29233675745E+02  0.00000000000E+00 0. -1.
        -11    1    3    3    0    0 -0.57234664454E+02  0.57744311590E+01  0.23984456985E+02  0.62324995365E+02  0.00000000000E+00 0. -1.
         11    1    3    3    0    0  0.33666970969E+02  0.31197319635E+02  0.17994131320E+02  0.49300369660E+02  0.00000000000E+00 0.  1.
         -2    1    1    2    0  502 -0.18833266048E+02 -0.40127190581E+02  0.13528894254E+02  0.46345596486E+02  0.00000000000E+00 0.  1.
<scales pt_clust_5="13000.00000" pt_clust_6="13000.00000" pt_clust_7="13000.00000" pt_clust_8="13000.00000" pt_clust_9="44.32703"></scales>
<clustering>
<clus scale="   44.327">  2  9  1 -1</clus>
<clus scale="   80.720">  5  6 -1 -1</clus>
<clus scale="   90.709">  2  5  1 -1</clus>
<clus scale="   93.679">  7  8 -1 -1</clus>
<clus scale="   44.327">  2  5  1 -1</clus>
</clustering>
</event>
<event>
 9    2  0.4883225E-005  0.3337643E+03  0.7546771E-02  0.1069615E+00
          2   -1    0    0  502    0 -0.00000000000E+00  0.00000000000E+00  0.48175197487E+03  0.48175197487E+03  0.00000000000E+00 0. -1.
         21   -1    0    0  501  502  0.00000000000E+00 -0.00000000000E+00 -0.35531408718E+03  0.35531408718E+03  0.00000000000E+00 0.  1.
         24    2    1    2    0    0  0.15020393477E+03  0.29772849043E+03  0.28106420028E+03  0.44424773372E+03  0.84590118844E+02 0.  0.
         23    2    1    2    0    0 -0.15856487447E+03 -0.24403357362E+03 -0.11427037858E+03  0.32513043566E+03  0.89201324534E+02 0.  0.
        -13    1    3    3    0    0  0.95675507427E+02  0.14237353912E+03  0.96104188996E+02  0.19662157182E+03  0.00000000000E+00 0.  1.
         14    1    3    3    0    0  0.54528427344E+02  0.15535495132E+03  0.18496001128E+03  0.24762616191E+03  0.00000000000E+00 0. -1.
        -11    1    4    4    0    0 -0.24256722320E+01 -0.29303234970E+02  0.11218259425E+02  0.31470824743E+02  0.00000000000E+00 0.  1.
         11    1    4    4    0    0 -0.15613920224E+03 -0.21473033865E+03 -0.12548863800E+03  0.29365961092E+03  0.00000000000E+00 0. -1.
          1    1    1    2  501    0  0.83609397008E+01 -0.53694916808E+02 -0.40355934012E+02  0.67687892667E+02  0.00000000000E+00 0. -1.
<scales pt_clust_5="13000.00000" pt_clust_6="13000.00000" pt_clust_7="13000.00000" pt_clust_8="13000.00000" pt_clust_9="54.34197"></scales>
<clustering>
<clus scale="   54.342">  2  9  1 -1</clus>
<clus scale="   84.590">  5  6 -1 -1</clus>
<clus scale="   89.201">  7  8 -1 -1</clus>
<clus scale="  332.562">  1  5  2 -1</clus>
<clus scale="   54.342">  2  5  1 -1</clus>
</clustering>
</event>
<event>
 9    2  0.4883225E-005  0.1256087E+03  0.7546771E-02  0.1245407E+00
          2   -1    0    0  502    0 -0.00000000000E+00  0.00000000000E+00  0.52405670846E+03  0.52405670846E+03  0.00000000000E+00 0. -1.
         21   -1    0    0  501  502  0.00000000000E+00 -0.00000000000E+00 -0.66368411303E+02  0.66368411303E+02  0.00000000000E+00 0. -1.
         23    2    1    2    0    0  0.66178630635E+00 -0.42209520351E+02  0.30915077475E+02  0.10454456495E+03  0.90508245347E+02 0.  0.
         24    2    1    2    0    0 -0.74568245683E+02 -0.33496124333E+02  0.29778301596E+03  0.31905135463E+03  0.80228602711E+02 0.  0.
        -13    1    4    4    0    0 -0.28320032446E+02 -0.21330880577E+01  0.17735332621E+02  0.33483075211E+02  0.00000000000E+00 0.  1.
         14    1    4    4    0    0 -0.46248213238E+02 -0.31363036275E+02  0.28004768333E+03  0.28556827942E+03  0.00000000000E+00 0. -1.
        -13    1    3    3    0    0 -0.38666414839E+02 -0.32653788240E+02  0.38217300924E+02  0.63418637741E+02  0.00000000000E+00 0. -1.
         13    1    3    3    0    0  0.39328201145E+02 -0.95557321108E+01 -0.73022234495E+01  0.41125927209E+02  0.00000000000E+00 0.  1.
          1    1    1    2  501    0  0.73906459377E+02  0.75705644684E+02  0.12899020372E+03  0.16682920018E+03  0.00000000000E+00 0. -1.
<scales pt_clust_5="13000.00000" pt_clust_6="13000.00000" pt_clust_7="13000.00000" pt_clust_8="13000.00000" pt_clust_9="96.64845"></scales>
<clustering>
<clus scale="   80.229">  5  6 -1 -1</clus>
<clus scale="   90.508">  7  8 -1 -1</clus>
<clus scale="   99.869">  1  7  2 -1</clus>
<clus scale="   96.648">  2  9  1 -1</clus>
<clus scale="   96.648">  2  5  1 -1</clus>
</clustering>
</event>
<event>
 9    2  0.4883225E-005  0.9864689E+02  0.7546771E-02  0.1290000E+00
         -3   -1    0    0    0  501 -0.00000000000E+00  0.00000000000E+00  0.57034809011E+02  0.57034809011E+02  0.00000000000E+00 0.  1.
         21   -1    0    0  501  502  0.00000000000E+00 -0.00000000000E+00 -0.35936670981E+03  0.35936670981E+03  0.00000000000E+00 0.  1.
         24    2    1    2    0    0  0.26847163541E+02  0.63766762114E+02 -0.98794280362E+02  0.14526463912E+03  0.80960085264E+02 0.  0.
         23    2    1    2    0    0  0.67562620314E+01  0.11848381960E+02 -0.12749835375E+03  0.15875890009E+03  0.93608369905E+02 0.  0.
        -11    1    3    3    0    0  0.21673745212E+02  0.52821496743E+02 -0.12916850082E+02  0.58538079621E+02  0.00000000000E+00 0.  1.
         12    1    3    3    0    0  0.51734183290E+01  0.10945265372E+02 -0.85877430281E+02  0.86726559501E+02  0.00000000000E+00 0. -1.
        -11    1    4    4    0    0 -0.26774167643E+02  0.31720627328E+02 -0.10689471999E+03  0.11467142370E+03  0.00000000000E+00 0.  1.
         11    1    4    4    0    0  0.33530429675E+02 -0.19872245368E+02 -0.20603633755E+02  0.44087476386E+02  0.00000000000E+00 0. -1.
         -4    1    1    2    0  502 -0.33603425572E+02 -0.75615144074E+02 -0.76039266690E+02  0.11237797961E+03  0.00000000000E+00 0.  1.
<scales pt_clust_5="13000.00000" pt_clust_6="13000.00000" pt_clust_7="13000.00000" pt_clust_8="13000.00000" pt_clust_9="82.74568"></scales>
<clustering>
<clus scale="   80.960">  5  6 -1 -1</clus>
<clus scale="   82.746">  2  9  1 -1</clus>
<clus scale="   86.736">  1  5  2 -1</clus>
<clus scale="   93.608">  7  8 -1 -1</clus>
<clus scale="   82.746">  2  5  1 -1</clus>
</clustering>
</event>
<event>
 9    2  0.4883225E-005  0.1199558E+03  0.7546771E-02  0.1247653E+00
          2   -1    0    0  502    0 -0.00000000000E+00  0.00000000000E+00  0.29428847547E+03  0.29428847547E+03  0.00000000000E+00 0. -1.
         21   -1    0    0  501  502  0.00000000000E+00 -0.00000000000E+00 -0.25281855268E+03  0.25281855268E+03  0.00000000000E+00 0. -1.
         24    2    1    2    0    0  0.56806471322E+02  0.51206947107E+02  0.24075356809E+03  0.26473315482E+03  0.79197450087E+02 0.  0.
         23    2    1    2    0    0 -0.75012781421E+02 -0.95347842121E+01 -0.20405063314E+03  0.23664901071E+03  0.92996042384E+02 0.  0.
        -11    1    3    3    0    0  0.39572971209E+02  0.27863775044E+02  0.42629279389E+02  0.64495468610E+02  0.00000000000E+00 0.  1.
         12    1    3    3    0    0  0.17233500112E+02  0.23343172063E+02  0.19812428870E+03  0.20023768621E+03  0.00000000000E+00 0. -1.
        -13    1    4    4    0    0 -0.33076780321E+02 -0.51062841257E+02 -0.10343514957E+03  0.12000132216E+03  0.00000000000E+00 0. -1.
         13    1    4    4    0    0 -0.41936001100E+02  0.41528057045E+02 -0.10061548357E+03  0.11664768855E+03  0.00000000000E+00 0.  1.
          1    1    1    2  501    0  0.18206310099E+02 -0.41672162895E+02  0.47669878396E+01  0.45724862611E+02  0.00000000000E+00 0. -1.
<scales pt_clust_5="13000.00000" pt_clust_6="13000.00000" pt_clust_7="13000.00000" pt_clust_8="13000.00000" pt_clust_9="45.47572"></scales>
<clustering>
<clus scale="   45.476">  2  9  1 -1</clus>
<clus scale="   79.197">  5  6 -1 -1</clus>
<clus scale="   92.996">  7  8 -1 -1</clus>
<clus scale="  109.606">  1  5  2 -1</clus>
<clus scale="   45.476">  2  5  1 -1</clus>
</clustering>
</event>
<event>
 9    2  0.4883225E-005  0.1254534E+03  0.7546771E-02  0.1236686E+00
         21   -1    0    0  501  502  0.00000000000E+00  0.00000000000E+00  0.29199335231E+03  0.29199335231E+03  0.00000000000E+00 0.  1.
          2   -1    0    0  502    0 -0.00000000000E+00 -0.00000000000E+00 -0.27416688662E+03  0.27416688662E+03  0.00000000000E+00 0. -1.
         24    2    1    2    0    0 -0.23498596815E+02  0.83362659099E+02 -0.23142682296E+03  0.26004847093E+03  0.81026636742E+02 0.  0.
         23    2    1    2    0    0  0.18222325698E+02 -0.10405070642E+03  0.14795689765E+03  0.20258982266E+03  0.89402405008E+02 0.  0.
        -11    1    3    3    0    0 -0.42919659276E+01  0.62747669927E+02 -0.62074071505E+02  0.88367875418E+02  0.00000000000E+00 0.  1.
         12    1    3    3    0    0 -0.19206630888E+02  0.20614989172E+02 -0.16935275146E+03  0.17168059551E+03  0.00000000000E+00 0. -1.
        -13    1    4    4    0    0 -0.28248247697E+02 -0.97712350196E+01  0.16054061662E+02  0.33928946751E+02  0.00000000000E+00 0. -1.
         13    1    4    4    0    0  0.46470573396E+02 -0.94279471404E+02  0.13190283599E+03  0.16866087591E+03  0.00000000000E+00 0.  1.
          1    1    1    2  501    0  0.52762711167E+01  0.20688047324E+02  0.10129639099E+03  0.10352194534E+03  0.00000000000E+00 0. -1.
<scales pt_clust_5="13000.00000" pt_clust_6="13000.00000" pt_clust_7="13000.00000" pt_clust_8="13000.00000" pt_clust_9="21.35028"></scales>
<clustering>
<clus scale="   21.350">  1  9  2 -1</clus>
<clus scale="   81.027">  5  6 -1 -1</clus>
<clus scale="   89.402">  7  8 -1 -1</clus>
<clus scale="  119.629">  2  5  1 -1</clus>
<clus scale="   21.350">  1  5  2 -1</clus>
</clustering>
</event>
<event>
 9    2  0.8708706E-005  0.1076601E+03  0.7546771E-02  0.1273643E+00
          2   -1    0    0  502    0 -0.00000000000E+00  0.00000000000E+00  0.34969768816E+03  0.34969768816E+03  0.00000000000E+00 0. -1.
         21   -1    0    0  501  502  0.00000000000E+00 -0.00000000000E+00 -0.13758887363E+03  0.13758887363E+03  0.00000000000E+00 0. -1.
         23    2    1    2    0    0  0.54741930022E+01  0.48215834285E+02  0.25952754585E+03  0.28237759618E+03  0.10013903486E+03 0.  0.
         24    2    1    2    0    0  0.56244099678E+02 -0.54069712494E+01  0.22742520303E+02  0.10212595323E+03  0.81974715650E+02 0.  0.
        -11    1    4    4    0    0  0.39937232903E+02 -0.40578143846E+02 -0.47680522663E+00  0.56936769079E+02  0.00000000000E+00 0.  1.
         12    1    4    4    0    0  0.16306866775E+02  0.35171172596E+02  0.23219325529E+02  0.45189184147E+02  0.00000000000E+00 0. -1.
        -11    1    3    3    0    0  0.10036631024E+02 -0.17472074480E+02  0.68821362626E+01  0.21292513907E+02  0.00000000000E+00 0.  1.
         11    1    3    3    0    0 -0.45624380217E+01  0.65687908765E+02  0.25264540959E+03  0.26108508227E+03  0.00000000000E+00 0. -1.
          1    1    1    2  501    0 -0.61718292680E+02 -0.42808863036E+02 -0.70161251627E+02  0.10278301239E+03  0.00000000000E+00 0. -1.
<scales pt_clust_5="13000.00000" pt_clust_6="13000.00000" pt_clust_7="13000.00000" pt_clust_8="13000.00000" pt_clust_9="75.11156"></scales>
<clustering>
<clus scale="   75.112">  2  9  1 -1</clus>
<clus scale="   81.975">  5  6 -1 -1</clus>
<clus scale="   91.009">  2  5  1 -1</clus>
<clus scale="  100.139">  7  8 -1 -1</clus>
<clus scale="   75.112">  2  5  1 -1</clus>
</clustering>
</event>
<event>
 9    2  0.4883225E-005  0.9888110E+02  0.7546771E-02  0.1289269E+00
         -3   -1    0    0    0  501 -0.00000000000E+00  0.00000000000E+00  0.45379578874E+03  0.45379578874E+03  0.00000000000E+00 0.  1.
         21   -1    0    0  501  502  0.00000000000E+00 -0.00000000000E+00 -0.39040504695E+02  0.39040504695E+02  0.00000000000E+00 0. -1.
         24    2    1    2    0    0 -0.31577583659E+02 -0.25756579517E+02  0.34360868454E+03  0.35500543352E+03  0.79381260743E+02 0.  0.
         23    2    1    2    0    0  0.14826746121E+02  0.84871118617E+01  0.61344179771E+02  0.11185178172E+03  0.91955691579E+02 0.  0.
        -11    1    3    3    0    0 -0.32599190204E+02 -0.47204776529E+02  0.30897429300E+03  0.31425485177E+03  0.00000000000E+00 0.  1.
         12    1    3    3    0    0  0.10216065448E+01  0.21448197012E+02  0.34634391540E+02  0.40750581743E+02  0.00000000000E+00 0. -1.
        -11    1    4    4    0    0  0.24477173968E+00  0.47540998070E+02  0.49233610872E+02  0.68440885808E+02  0.00000000000E+00 0. -1.
         11    1    4    4    0    0  0.14581974382E+02 -0.39053886208E+02  0.12110568899E+02  0.43410895912E+02  0.00000000000E+00 0.  1.
         -4    1    1    2    0  502  0.16750837538E+02  0.17269467656E+02  0.98024197329E+01  0.25979078197E+02  0.00000000000E+00 0.  1.
<scales pt_clust_5="13000.00000" pt_clust_6="13000.00000" pt_clust_7="13000.00000" pt_clust_8="13000.00000" pt_clust_9="24.05878"></scales>
<clustering>
<clus scale="   24.059">  2  9  1 -1</clus>
<clus scale="   79.381">  5  6 -1 -1</clus>
<clus scale="   87.310">  1  5  2 -1</clus>
<clus scale="   91.956">  7  8 -1 -1</clus>
<clus scale="   24.059">  2  5  1 -1</clus>
</clustering>
</event>
<event>
 9    2  0.4883225E-005  0.9058934E+02  0.7546771E-02  0.1307751E+00
          2   -1    0    0  502    0 -0.00000000000E+00  0.00000000000E+00  0.13619140582E+03  0.13619140582E+03  0.00000000000E+00 0. -1.
         21   -1    0    0  501  502  0.00000000000E+00 -0.00000000000E+00 -0.41692726359E+03  0.41692726359E+03  0.00000000000E+00 0.  1.
         24    2    1    2    0    0  0.32506840708E+01  0.68762665847E+01  0.11359936395E+03  0.13931434882E+03  0.80285878641E+02 0.  0.
         23    2    1    2    0    0  0.16061899580E+02 -0.26146244375E+02 -0.26480674326E+03  0.28143387577E+03  0.90226406562E+02 0.  0.
        -13    1    3    3    0    0 -0.26971984395E+02 -0.16713924303E+02  0.18388136832E+02  0.36673788787E+02  0.00000000000E+00 0.  1.
         14    1    3    3    0    0  0.30222668466E+02  0.23590190887E+02  0.95211227116E+02  0.10264056003E+03  0.00000000000E+00 0. -1.
        -13    1    4    4    0    0 -0.33333397358E+02 -0.12690809886E+02 -0.55621899702E+02  0.66075470195E+02  0.00000000000E+00 0.  1.
         13    1    4    4    0    0  0.49395296939E+02 -0.13455434490E+02 -0.20918484356E+03  0.21535840557E+03  0.00000000000E+00 0. -1.
          1    1    1    2  501    0 -0.19312583651E+02  0.19269977790E+02 -0.12952847846E+03  0.13237044483E+03  0.00000000000E+00 0. -1.
<scales pt_clust_5="13000.00000" pt_clust_6="13000.00000" pt_clust_7="13000.00000" pt_clust_8="13000.00000" pt_clust_9="27.28201"></scales>
<clustering>
<clus scale="   27.282">  2  9  1 -1</clus>
<clus scale="   80.286">  5  6 -1 -1</clus>
<clus scale="   80.694">  1  5  2 -1</clus>
<clus scale="   90.226">  7  8 -1 -1</clus>
<clus scale="   27.282">  2  5  1 -1</clus>
</clustering>
</event>
<event>
 9    2  0.4883225E-005  0.1936841E+03  0.7546771E-02  0.1155198E+00
          2   -1    0    0  502    0 -0.00000000000E+00  0.00000000000E+00  0.13009009217E+04  0.13009009217E+04  0.00000000000E+00 0. -1.
         21   -1    0    0  501  502  0.00000000000E+00 -0.00000000000E+00 -0.59503040294E+02  0.59503040294E+02  0.00000000000E+00 0. -1.
         23    2    1    2    0    0  0.18195343346E+03 -0.68023293414E+02  0.61425791792E+03  0.65072425293E+03  0.91624468492E+02 0.  0.
         24    2    1    2    0    0 -0.71176055711E+02  0.15112564554E+03  0.31322955209E+03  0.36658005191E+03  0.91450481212E+02 0.  0.
        -11    1    4    4    0    0 -0.47680278878E+02  0.99661518604E+02  0.27990778545E+03  0.30092224185E+03  0.00000000000E+00 0.  1.
         12    1    4    4    0    0 -0.23495776833E+02  0.51464126939E+02  0.33321766634E+02  0.65657810063E+02  0.00000000000E+00 0. -1.
        -11    1    3    3    0    0  0.17600594095E+03 -0.33809628919E+02  0.53406233382E+03  0.56333272466E+03  0.00000000000E+00 0. -1.
         11    1    3    3    0    0  0.59474925073E+01 -0.34213664495E+02  0.80195584096E+02  0.87391528273E+02  0.00000000000E+00 0.  1.
          1    1    1    2  501    0 -0.11077737775E+03 -0.83102352130E+02  0.31391041135E+03  0.34309965710E+03  0.00000000000E+00 0. -1.
<scales pt_clust_5="13000.00000" pt_clust_6="13000.00000" pt_clust_7="13000.00000" pt_clust_8="13000.00000" pt_clust_9="138.48338"></scales>
<clustering>
<clus scale="   91.450">  5  6 -1 -1</clus>
<clus scale="   91.624">  7  8 -1 -1</clus>
<clus scale="  138.483">  2  9  1 -1</clus>
<clus scale="  193.602">  2  5  1 -1</clus>
<clus scale="  138.483">  2  5  1 -1</clus>
</clustering>
</event>
<event>
 9    2  0.4883225E-005  0.9938921E+02  0.7546771E-02  0.1287041E+00
          2   -1    0    0  502    0 -0.00000000000E+00  0.00000000000E+00  0.32535777266E+03  0.32535777266E+03  0.00000000000E+00 0. -1.
         21   -1    0    0  501  502  0.00000000000E+00 -0.00000000000E+00 -0.65195029096E+02  0.65195029096E+02  0.00000000000E+00 0. -1.
         24    2    1    2    0    0  0.23579242084E+02  0.34201169241E+02  0.17552373389E+03  0.19699780818E+03  0.79207667776E+02 0.  0.
         23    2    1    2    0    0 -0.31661147666E+01 -0.46793511926E+02  0.11593407870E+03  0.15412601684E+03  0.90080305406E+02 0.  0.
        -11    1    3    3    0    0 -0.66545079330E+01  0.43747141958E+02  0.46720360798E+02  0.64349724308E+02  0.00000000000E+00 0.  1.
         12    1    3    3    0    0  0.30233750017E+02 -0.95459727173E+01  0.12880337310E+03  0.13264808388E+03  0.00000000000E+00 0. -1.
        -13    1    4    4    0    0  0.35257315995E+02 -0.51608939916E+02  0.77547509646E+02  0.99600086661E+02  0.00000000000E+00 0. -1.
         13    1    4    4    0    0 -0.38423430762E+02  0.48154279905E+01  0.38386569053E+02  0.54525930180E+02  0.00000000000E+00 0.  1.
          1    1    1    2  501    0 -0.20413127318E+02  0.12592342684E+02 -0.31295069025E+02  0.39428976736E+02  0.00000000000E+00 0. -1.
<scales pt_clust_5="13000.00000" pt_clust_6="13000.00000" pt_clust_7="13000.00000" pt_clust_8="13000.00000" pt_clust_9="23.98464"></scales>
<clustering>
<clus scale="   23.985">  2  9  1 -1</clus>
<clus scale="   79.208">  5  6 -1 -1</clus>
<clus scale="   89.653">  1  5  2 -1</clus>
<clus scale="   90.080">  7  8 -1 -1</clus>
<clus scale="   23.985">  2  5  1 -1</clus>
</clustering>
</event>
<event>
 9    2  0.4883225E-005  0.1038107E+03  0.7546771E-02  0.1276605E+00
         21   -1    0    0  501  502  0.00000000000E+00  0.00000000000E+00  0.41173780072E+03  0.41173780072E+03  0.00000000000E+00 0.  1.
         -1   -1    0    0    0  501 -0.00000000000E+00 -0.00000000000E+00 -0.39336778025E+02  0.39336778025E+02  0.00000000000E+00 0.  1.
         23    2    1    2    0    0 -0.44360898890E+02 -0.11081107207E+02  0.11031359190E+03  0.14893822314E+03  0.89010254846E+02 0.  0.
         24    2    1    2    0    0  0.63253627154E+02 -0.10545603126E+02  0.12224620117E+03  0.15937705018E+03  0.79653495410E+02 0.  0.
        -13    1    4    4    0    0  0.49828025741E+02  0.23543038024E+02  0.36416822548E+02  0.66055217456E+02  0.00000000000E+00 0.  1.
         14    1    4    4    0    0  0.13425601413E+02 -0.34088641151E+02  0.85829378624E+02  0.93321832728E+02  0.00000000000E+00 0. -1.
        -13    1    3    3    0    0 -0.88242047516E+01 -0.48006464358E+02  0.54809929073E+02  0.73393566031E+02  0.00000000000E+00 0.  1.
         13    1    3    3    0    0 -0.35536694138E+02  0.36925357151E+02  0.55503662830E+02  0.75544657114E+02  0.00000000000E+00 0. -1.
         -2    1    1    2    0  502 -0.18892728264E+02  0.21626710334E+02  0.13984122962E+03  0.14275930541E+03  0.00000000000E+00 0.  1.
<scales pt_clust_5="13000.00000" pt_clust_6="13000.00000" pt_clust_7="13000.00000" pt_clust_8="13000.00000" pt_clust_9="28.71672"></scales>
<clustering>
<clus scale="   28.717">  1  9  2 -1</clus>
<clus scale="   79.653">  5  6 -1 -1</clus>
<clus scale="   89.010">  7  8 -1 -1</clus>
<clus scale="   95.909">  1  5  2 -1</clus>
<clus scale="   28.717">  1  5  2 -1</clus>
</clustering>
</event>
<event>
 9    2  0.4883225E-005  0.1273155E+03  0.7546771E-02  0.1245545E+00
          2   -1    0    0  502    0 -0.00000000000E+00  0.00000000000E+00  0.61130808710E+03  0.61130808710E+03  0.00000000000E+00 0. -1.
         21   -1    0    0  501  502  0.00000000000E+00 -0.00000000000E+00 -0.75527118366E+02  0.75527118366E+02  0.00000000000E+00 0. -1.
         23    2    1    2    0    0  0.12900276062E+02  0.27193801254E+02  0.88416426202E+02  0.13024891300E+03  0.90782129118E+02 0.  0.
         24    2    1    2    0    0  0.10630053555E+02  0.74244170457E+02  0.43902897592E+03  0.45212184785E+03  0.77733703921E+02 0.  0.
        -11    1    4    4    0    0  0.31439904040E+02  0.18793701619E+02  0.76857319428E+02  0.85139405309E+02  0.00000000000E+00 0.  1.
         12    1    4    4    0    0 -0.20809850485E+02  0.55450468838E+02  0.36217165649E+03  0.36698244254E+03  0.00000000000E+00 0. -1.
        -13    1    3    3    0    0 -0.19145055478E+02  0.50059269640E+02  0.35463661135E+02  0.64266125504E+02  0.00000000000E+00 0. -1.
         13    1    3    3    0    0  0.32045331540E+02 -0.22865468387E+02  0.52952765066E+02  0.65982787500E+02  0.00000000000E+00 0.  1.
          1    1    1    2  501    0 -0.23530329617E+02 -0.10143797171E+03  0.83355666133E+01  0.10446444461E+03  0.00000000000E+00 0. -1.
<scales pt_clust_5="13000.00000" pt_clust_6="13000.00000" pt_clust_7="13000.00000" pt_clust_8="13000.00000" pt_clust_9="100.83005"></scales>
<clustering>
<clus scale="   77.734">  5  6 -1 -1</clus>
<clus scale="   90.782">  7  8 -1 -1</clus>
<clus scale="   95.642">  1  7  2 -1</clus>
<clus scale="  100.830">  2  9  1 -1</clus>
<clus scale="  100.830">  2  5  1 -1</clus>
</clustering>
</event>
<event>
 9    2  0.4883225E-005  0.1356738E+03  0.7546771E-02  0.1237353E+00
         -1   -1    0    0    0  501 -0.00000000000E+00  0.00000000000E+00  0.22927804652E+03  0.22927804652E+03  0.00000000000E+00 0.  1.
         21   -1    0    0  501  502  0.00000000000E+00 -0.00000000000E+00 -0.14950075586E+03  0.14950075586E+03  0.00000000000E+00 0.  1.
         23    2    1    2    0    0 -0.27530530221E+02  0.15912949631E+01  0.88183063802E+02  0.12837943340E+03  0.89132282952E+02 0.  0.
         24    2    1    2    0    0 -0.90446392799E+02  0.55886788901E+01  0.31137643844E+02  0.12576475014E+03  0.81458186886E+02 0.  0.
        -13    1    4    4    0    0 -0.58272247062E+02 -0.19178102119E+01  0.58703294419E+02  0.82736990211E+02  0.00000000000E+00 0.  1.
         14    1    4    4    0    0 -0.32174145737E+02  0.75064891020E+01 -0.27565650575E+02  0.43027759926E+02  0.00000000000E+00 0. -1.
        -11    1    3    3    0    0 -0.43188835712E+02 -0.11937776625E+02  0.96250199646E+02  0.10616914322E+03  0.00000000000E+00 0.  1.
         11    1    3    3    0    0  0.15658305491E+02  0.13529071588E+02 -0.80671358447E+01  0.22210290174E+02  0.00000000000E+00 0. -1.
         -2    1    1    2    0  502  0.11797692302E+03 -0.71799738532E+01 -0.39543416985E+02  0.12463461885E+03  0.00000000000E+00 0.  1.
<scales pt_clust_5="13000.00000" pt_clust_6="13000.00000" pt_clust_7="13000.00000" pt_clust_8="13000.00000" pt_clust_9="108.49865"></scales>
<clustering>
<clus scale="   81.458">  5  6 -1 -1</clus>
<clus scale="   89.132">  7  8 -1 -1</clus>
<clus scale="   93.301">  1  7  2 -1</clus>
<clus scale="  108.499">  2  9  1 -1</clus>
<clus scale="  108.499">  2  5  1 -1</clus>
</clustering>
</event>
<event>
 9    2  0.4883225E-005  0.1598554E+03  0.7546771E-02  0.1219345E+00
         21   -1    0    0  501  502  0.00000000000E+00  0.00000000000E+00  0.15353923548E+03  0.15353923548E+03  0.00000000000E+00 0.  1.
          2   -1    0    0  502    0 -0.00000000000E+00 -0.00000000000E+00 -0.34005641154E+03  0.34005641154E+03  0.00000000000E+00 0. -1.
         24    2    1    2    0    0  0.13761566036E+02 -0.14870384022E+02 -0.10912531602E+03  0.13699392752E+03  0.80302506555E+02 0.  0.
         23    2    1    2    0    0  0.22001860025E+02 -0.12158291307E+03  0.52454752537E+02  0.16487621852E+03  0.95740168024E+02 0.  0.
        -11    1    3    3    0    0 -0.20122070098E+02 -0.36007121660E+02 -0.68952709194E+02  0.80348532161E+02  0.00000000000E+00 0.  1.
         12    1    3    3    0    0  0.33883636134E+02  0.21136737639E+02 -0.40172606825E+02  0.56645395354E+02  0.00000000000E+00 0. -1.
        -13    1    4    4    0    0 -0.17951114356E+02 -0.11423955743E+03  0.40564935866E+02  0.12254971649E+03  0.00000000000E+00 0.  1.
         13    1    4    4    0    0  0.39952974381E+02 -0.73433556430E+01  0.11889816670E+02  0.42326502034E+02  0.00000000000E+00 0. -1.
          1    1    1    2  501    0 -0.35763426062E+02  0.13645329710E+03 -0.12984661257E+03  0.19172550099E+03  0.00000000000E+00 0. -1.
<scales pt_clust_5="13000.00000" pt_clust_6="13000.00000" pt_clust_7="13000.00000" pt_clust_8="13000.00000" pt_clust_9="128.01403"></scales>
<clustering>
<clus scale="   80.303">  5  6 -1 -1</clus>
<clus scale="   82.819">  2  5  1 -1</clus>
<clus scale="   95.740">  7  8 -1 -1</clus>
<clus scale="  128.014">  1  9  2 -1</clus>
<clus scale="  128.014">  1  5  2 -1</clus>
</clustering>
</event>
<event>
 9    2  0.4883225E-005  0.1398674E+03  0.7546771E-02  0.1216489E+00
         21   -1    0    0  501  502  0.00000000000E+00  0.00000000000E+00  0.10342823709E+03  0.10342823709E+03  0.00000000000E+00 0. -1.
          4   -1    0    0  502    0 -0.00000000000E+00 -0.00000000000E+00 -0.75217150341E+03  0.75217150341E+03  0.00000000000E+00 0. -1.
         24    2    1    2    0    0 -0.76071990248E+02 -0.76241699359E+02 -0.53693117265E+03  0.55336422456E+03  0.79480415389E+02 0.  0.
         23    2    1    2    0    0 -0.17343688672E+02  0.11771791506E+03 -0.32152135190E+00  0.15098435644E+03  0.92940096032E+02 0.  0.
        -13    1    3    3    0    0  0.70759322205E+01 -0.40654347624E+02 -0.12552937627E+03  0.13213806833E+03  0.00000000000E+00 0.  1.
         14    1    3    3    0    0 -0.83147922469E+02 -0.35587351735E+02 -0.41140179639E+03  0.42122615622E+03  0.00000000000E+00 0. -1.
        -11    1    4    4    0    0 -0.47931983738E+02  0.10492426216E+03  0.11169302566E+02  0.11589361145E+03  0.00000000000E+00 0. -1.
         11    1    4    4    0    0  0.30588295065E+02  0.12793652898E+02 -0.11490823918E+02  0.35090744988E+02  0.00000000000E+00 0.  1.
          3    1    1    2  501    0  0.93415678921E+02 -0.41476215702E+02 -0.11149057231E+03  0.15125115950E+03  0.00000000000E+00 0. -1.
<scales pt_clust_5="13000.00000" pt_clust_6="13000.00000" pt_clust_7="13000.00000" pt_clust_8="13000.00000" pt_clust_9="102.20942"></scales>
<clustering>
<clus scale="   79.480">  5  6 -1 -1</clus>
<clus scale="   92.940">  7  8 -1 -1</clus>
<clus scale="  102.209">  1  9  2 -1</clus>
<clus scale="  131.309">  2  5  1 -1</clus>
<clus scale="  102.209">  1  5  2 -1</clus>
</clustering>
</event>
<event>
 9    2  0.4883225E-005  0.9418874E+02  0.7546771E-02  0.1298634E+00
         21   -1    0    0  501  502  0.00000000000E+00  0.00000000000E+00  0.47053001296E+02  0.47053001296E+02  0.00000000000E+00 0.  1.
          4   -1    0    0  502    0 -0.00000000000E+00 -0.00000000000E+00 -0.29883488241E+03  0.29883488241E+03  0.00000000000E+00 0. -1.
         24    2    1    2    0    0 -0.63410513658E+01  0.41038900933E+02 -0.13987855168E+03  0.16665673942E+03  0.80523656470E+02 0.  0.
         23    2    1    2    0    0  0.67033456789E+01  0.35666883621E+01 -0.51790159203E+02  0.10437539575E+03  0.90301420471E+02 0.  0.
        -13    1    3    3    0    0 -0.35992118083E+02 -0.68825654608E+00 -0.80988420353E+02  0.88628609898E+02  0.00000000000E+00 0.  1.
         14    1    3    3    0    0  0.29651066717E+02  0.41727157479E+02 -0.58890131328E+02  0.78028129521E+02  0.00000000000E+00 0. -1.
        -11    1    4    4    0    0  0.44098726682E+02  0.58582723955E+01 -0.49916421985E+02  0.66863040869E+02  0.00000000000E+00 0. -1.
         11    1    4    4    0    0 -0.37395381003E+02 -0.22915840334E+01 -0.18737372179E+01  0.37512354883E+02  0.00000000000E+00 0.  1.
          3    1    1    2  501    0 -0.36229431307E+00 -0.44605589295E+02 -0.60113170230E+02  0.74855748534E+02  0.00000000000E+00 0. -1.
<scales pt_clust_5="13000.00000" pt_clust_6="13000.00000" pt_clust_7="13000.00000" pt_clust_8="13000.00000" pt_clust_9="44.60708"></scales>
<clustering>
<clus scale="   44.607">  1  9  2 -1</clus>
<clus scale="   80.524">  5  6 -1 -1</clus>
<clus scale="   84.860">  2  5  1 -1</clus>
<clus scale="   90.301">  7  8 -1 -1</clus>
<clus scale="   44.607">  1  5  2 -1</clus>
</clustering>
</event>
<event>
 9    2  0.4883225E-005  0.9476212E+02  0.7546771E-02  0.1297913E+00
         21   -1    0    0  501  502  0.00000000000E+00  0.00000000000E+00  0.23153061451E+03  0.23153061451E+03  0.00000000000E+00 0.  1.
          4   -1    0    0  502    0 -0.00000000000E+00 -0.00000000000E+00 -0.63253644473E+02  0.63253644473E+02  0.00000000000E+00 0. -1.
         23    2    1    2    0    0  0.78030595340E+01 -0.77214314506E+01  0.56527999262E+02  0.10775584895E+03  0.91079086740E+02 0.  0.
         24    2    1    2    0    0  0.16501362523E+02  0.51201912640E+02  0.92029523222E+02  0.13345496710E+03  0.80292367482E+02 0.  0.
        -13    1    4    4    0    0  0.33760872058E+02 -0.81940127977E+01  0.35254366809E+02  0.49495542294E+02  0.00000000000E+00 0.  1.
         14    1    4    4    0    0 -0.17259509535E+02  0.59395925437E+02  0.56775156413E+02  0.83959424805E+02  0.00000000000E+00 0. -1.
        -11    1    3    3    0    0  0.23914675990E+02 -0.38856051619E+02  0.56563230414E+01  0.45974976514E+02  0.00000000000E+00 0. -1.
         11    1    3    3    0    0 -0.16111616456E+02  0.31134620168E+02  0.50871676220E+02  0.61780872439E+02  0.00000000000E+00 0.  1.
          3    1    1    2  501    0 -0.24304422057E+02 -0.43480481189E+02  0.19719447558E+02  0.53573442935E+02  0.00000000000E+00 0. -1.
<scales pt_clust_5="13000.00000" pt_clust_6="13000.00000" pt_clust_7="13000.00000" pt_clust_8="13000.00000" pt_clust_9="49.81224"></scales>
<clustering>
<clus scale="   49.812">  1  9  2 -1</clus>
<clus scale="   80.292">  5  6 -1 -1</clus>
<clus scale="   84.447">  1  5  2 -1</clus>
<clus scale="   91.079">  7  8 -1 -1</clus>
<clus scale="   49.812">  1  5  2 -1</clus>
</clustering>
</event>
<event>
 9    2  0.4883225E-005  0.1153639E+03  0.7546771E-02  0.1255314E+00
         21   -1    0    0  501  502  0.00000000000E+00  0.00000000000E+00  0.15427460211E+03  0.15427460211E+03  0.00000000000E+00 0. -1.
          2   -1    0    0  502    0 -0.00000000000E+00 -0.00000000000E+00 -0.79187396300E+03  0.79187396300E+03  0.00000000000E+00 0. -1.
         24    2    1    2    0    0 -0.65515273679E+02  0.16081858814E+02 -0.71699445927E+03  0.72458513095E+03  0.79947983791E+02 0.  0.
         23    2    1    2    0    0  0.10540921948E+03 -0.97846998577E+01  0.93840661663E+01  0.14073815499E+03  0.92262254838E+02 0.  0.
        -13    1    3    3    0    0 -0.38981471534E+02  0.48035318067E+02 -0.37345125894E+03  0.37854034093E+03  0.00000000000E+00 0.  1.
         14    1    3    3    0    0 -0.26533802145E+02 -0.31953459253E+02 -0.34354320033E+03  0.34604479003E+03  0.00000000000E+00 0. -1.
        -11    1    4    4    0    0  0.39268506700E+02 -0.35878676933E+02  0.36641876410E+02  0.64590418668E+02  0.00000000000E+00 0.  1.
         11    1    4    4    0    0  0.66140712782E+02  0.26093977075E+02 -0.27257810244E+02  0.76147736317E+02  0.00000000000E+00 0. -1.
          1    1    1    2  501    0 -0.39893945802E+02 -0.62971589568E+01  0.70011032206E+02  0.80825279172E+02  0.00000000000E+00 0. -1.
<scales pt_clust_5="13000.00000" pt_clust_6="13000.00000" pt_clust_7="13000.00000" pt_clust_8="13000.00000" pt_clust_9="40.38788"></scales>
<clustering>
<clus scale="   40.388">  1  9  2 -1</clus>
<clus scale="   79.948">  5  6 -1 -1</clus>
<clus scale="   92.262">  7  8 -1 -1</clus>
<clus scale="  105.774">  2  5  1 -1</clus>
<clus scale="   40.388">  1  5  2 -1</clus>
</clustering>
</event>
<event>
 9    2  0.4883225E-005  0.1478748E+03  0.7546771E-02  0.1205382E+00
         21   -1    0    0  501  502  0.00000000000E+00  0.00000000000E+00  0.37570212497E+02  0.37570212497E+02  0.00000000000E+00 0.  1.
          2   -1    0    0  502    0 -0.00000000000E+00 -0.00000000000E+00 -0.15579653516E+04  0.15579653516E+04  0.00000000000E+00 0. -1.
         24    2    1    2    0    0 -0.38686064830E+02 -0.10912447841E+03 -0.10413839131E+04  0.10508911062E+04  0.80541289812E+02 0.  0.
         23    2    1    2    0    0 -0.14159687116E+01  0.12000181644E+03 -0.47975550721E+03  0.50308674464E+03  0.92349797087E+02 0.  0.
        -11    1    3    3    0    0  0.78915142604E+01 -0.51681594039E+02 -0.21751740928E+03  0.22371206159E+03  0.00000000000E+00 0.  1.
         12    1    3    3    0    0 -0.46577579090E+02 -0.57442884369E+02 -0.82386650379E+03  0.82717904465E+03  0.00000000000E+00 0. -1.
        -13    1    4    4    0    0 -0.42326318705E+02  0.40950671464E+02 -0.24617078460E+03  0.25311762076E+03  0.00000000000E+00 0. -1.
         13    1    4    4    0    0  0.40910349993E+02  0.79051144978E+02 -0.23358472260E+03  0.24996912388E+03  0.00000000000E+00 0.  1.
          1    1    1    2  501    0  0.40102033541E+02 -0.10877338034E+02  0.74428113448E+00  0.41557713258E+02  0.00000000000E+00 0. -1.
<scales pt_clust_5="13000.00000" pt_clust_6="13000.00000" pt_clust_7="13000.00000" pt_clust_8="13000.00000" pt_clust_9="41.55105"></scales>
<clustering>
<clus scale="   41.551">  1  9  2 -1</clus>
<clus scale="   80.541">  5  6 -1 -1</clus>
<clus scale="   92.350">  7  8 -1 -1</clus>
<clus scale="  140.803">  2  5  1 -1</clus>
<clus scale="   41.551">  1  5  2 -1</clus>
</clustering>
</event>
<event>
 9    2  0.4883225E-005  0.4654585E+03  0.7546771E-02  0.1075852E+00
          2   -1    0    0  502    0 -0.00000000000E+00  0.00000000000E+00  0.71236746273E+03  0.71236746273E+03  0.00000000000E+00 0. -1.
         21   -1    0    0  501  502  0.00000000000E+00 -0.00000000000E+00 -0.45409009835E+03  0.45409009835E+03  0.00000000000E+00 0. -1.
         24    2    1    2    0    0  0.48547187743E+02 -0.26831128256E+02  0.19451648259E+03  0.22029578528E+03  0.87274464356E+02 0.  0.
         23    2    1    2    0    0 -0.48578260412E+03  0.67561431627E+01  0.10853021933E+03  0.50618210815E+03  0.91712235684E+02 0.  0.
        -11    1    3    3    0    0 -0.14865581630E+02  0.19684794393E+02  0.42446908501E+02  0.49093957762E+02  0.00000000000E+00 0.  1.
         12    1    3    3    0    0  0.63412769372E+02 -0.46515922649E+02  0.15206957409E+03  0.17120182751E+03  0.00000000000E+00 0. -1.
        -11    1    4    4    0    0 -0.43283088969E+03  0.34322788484E+02  0.10292357791E+03  0.44622180109E+03  0.00000000000E+00 0. -1.
         11    1    4    4    0    0 -0.52951714432E+02 -0.27566645321E+02  0.56066414130E+01  0.59960307067E+02  0.00000000000E+00 0.  1.
          1    1    1    2  501    0  0.43723541638E+03  0.20074985093E+02 -0.44769337544E+02  0.43997966765E+03  0.00000000000E+00 0. -1.
<scales pt_clust_5="13000.00000" pt_clust_6="13000.00000" pt_clust_7="13000.00000" pt_clust_8="13000.00000" pt_clust_9="456.33373"></scales>
<clustering>
<clus scale="   87.274">  5  6 -1 -1</clus>
<clus scale="   91.712">  7  8 -1 -1</clus>
<clus scale="  103.410">  1  5  2 -1</clus>
<clus scale="  456.334">  2  9  1 -1</clus>
<clus scale="  456.334">  2  5  1 -1</clus>
</clustering>
</event>
<event>
 9    2  0.4883225E-005  0.1391372E+03  0.7546771E-02  0.1216843E+00
         21   -1    0    0  501  502  0.00000000000E+00  0.00000000000E+00  0.16406842024E+03  0.16406842024E+03  0.00000000000E+00 0.  1.
         -3   -1    0    0    0  501 -0.00000000000E+00 -0.00000000000E+00 -0.24760573342E+03  0.24760573342E+03  0.00000000000E+00 0.  1.
         23    2    1    2    0    0  0.51660583938E+02  0.97763787726E+02 -0.17881123676E+03  0.22916407113E+03  0.91192866953E+02 0.  0.
         24    2    1    2    0    0 -0.49763056500E+02 -0.70920076560E+02  0.47075429060E+02  0.12730790582E+03  0.80530663791E+02 0.  0.
        -11    1    4    4    0    0 -0.19868022016E+02  0.11997517461E+02  0.29321354152E+02  0.37395461400E+02  0.00000000000E+00 0.  1.
         12    1    4    4    0    0 -0.29895034484E+02 -0.82917594021E+02  0.17754074908E+02  0.89912444416E+02  0.00000000000E+00 0. -1.
        -11    1    3    3    0    0  0.70475603805E+02  0.61328699934E+02 -0.15706166913E+03  0.18274678678E+03  0.00000000000E+00 0.  1.
         11    1    3    3    0    0 -0.18815019868E+02  0.36435087792E+02 -0.21749567634E+02  0.46417284359E+02  0.00000000000E+00 0. -1.
         -4    1    1    2    0  502 -0.18975274380E+01 -0.26843711166E+02  0.48198494526E+02  0.55202176715E+02  0.00000000000E+00 0.  1.
<scales pt_clust_5="13000.00000" pt_clust_6="13000.00000" pt_clust_7="13000.00000" pt_clust_8="13000.00000" pt_clust_9="26.91069"></scales>
<clustering>
<clus scale="   26.911">  1  9  2 -1</clus>
<clus scale="   80.531">  5  6 -1 -1</clus>
<clus scale="   91.193">  7  8 -1 -1</clus>
<clus scale="  132.394">  1  5  2 -1</clus>
<clus scale="   26.911">  1  5  2 -1</clus>
</clustering>
</event>
<event>
 9    2  0.4883225E-005  0.9928902E+02  0.7546771E-02  0.1287198E+00
          2   -1    0    0  502    0 -0.00000000000E+00  0.00000000000E+00  0.35929781648E+03  0.35929781648E+03  0.00000000000E+00 0. -1.
         21   -1    0    0  501  502  0.00000000000E+00 -0.00000000000E+00 -0.96928640004E+02  0.96928640004E+02  0.00000000000E+00 0.  1.
         24    2    1    2    0    0 -0.19263239066E+02  0.32785330069E+02  0.29725549548E+03  0.31088779727E+03  0.82731146773E+02 0.  0.
         23    2    1    2    0    0 -0.19100538869E+02 -0.18446184189E+02 -0.97509291178E+01  0.97284747959E+02  0.93081412057E+02 0.  0.
        -13    1    3    3    0    0 -0.34171140465E+02 -0.14639633433E+02  0.17512331729E+03  0.17902559026E+03  0.00000000000E+00 0.  1.
         14    1    3    3    0    0  0.14907901399E+02  0.47424963501E+02  0.12213217819E+03  0.13186220701E+03  0.00000000000E+00 0. -1.
        -11    1    4    4    0    0  0.36312425560E+02  0.20725205973E+01 -0.11568346663E+02  0.38166925946E+02  0.00000000000E+00 0. -1.
         11    1    4    4    0    0 -0.55412964429E+02 -0.20518704786E+02  0.18174175451E+01  0.59117822012E+02  0.00000000000E+00 0.  1.
          1    1    1    2  501    0  0.38363777935E+02 -0.14339145880E+02 -0.25135389893E+02  0.48053911257E+02  0.00000000000E+00 0. -1.
<scales pt_clust_5="13000.00000" pt_clust_6="13000.00000" pt_clust_7="13000.00000" pt_clust_8="13000.00000" pt_clust_9="40.95596"></scales>
<clustering>
<clus scale="   40.956">  2  9  1 -1</clus>
<clus scale="   82.731">  5  6 -1 -1</clus>
<clus scale="   89.658">  1  5  2 -1</clus>
<clus scale="   93.081">  7  8 -1 -1</clus>
<clus scale="   40.956">  2  5  1 -1</clus>
</clustering>
</event>
<event>
 9    2  0.4883225E-005  0.9080301E+02  0.7546771E-02  0.1307081E+00
         21   -1    0    0  501  502  0.00000000000E+00  0.00000000000E+00  0.38830976539E+02  0.38830976539E+02  0.00000000000E+00 0. -1.
          2   -1    0    0  502    0 -0.00000000000E+00 -0.00000000000E+00 -0.33404668347E+03  0.33404668347E+03  0.00000000000E+00 0. -1.
         23    2    1    2    0    0 -0.99747161613E+01  0.11427190673E+02 -0.21100212764E+03  0.22984479646E+03  0.89870222780E+02 0.  0.
         24    2    1    2    0    0 -0.18173066525E+02 -0.16375755280E+02 -0.46664550237E+02  0.95844776653E+02  0.80063819887E+02 0.  0.
        -13    1    4    4    0    0 -0.42567219560E+02  0.13115545133E+02 -0.18061426376E+02  0.48064548556E+02  0.00000000000E+00 0.  1.
         14    1    4    4    0    0  0.24394153035E+02 -0.29491300413E+02 -0.28603123861E+02  0.47780228096E+02  0.00000000000E+00 0. -1.
        -11    1    3    3    0    0  0.35924027690E+02 -0.12542650858E+02 -0.70644160572E+02  0.80239960612E+02  0.00000000000E+00 0.  1.
         11    1    3    3    0    0 -0.45898743851E+02  0.23969841531E+02 -0.14035796707E+03  0.14960483585E+03  0.00000000000E+00 0. -1.
          1    1    1    2  501    0  0.28147782687E+02  0.49485646071E+01 -0.37549029055E+02  0.47188086895E+02  0.00000000000E+00 0. -1.
<scales pt_clust_5="13000.00000" pt_clust_6="13000.00000" pt_clust_7="13000.00000" pt_clust_8="13000.00000" pt_clust_9="28.57948"></scales>
<clustering>
<clus scale="   28.579">  1  9  2 -1</clus>
<clus scale="   80.064">  5  6 -1 -1</clus>
<clus scale="   81.109">  1  5  2 -1</clus>
<clus scale="   89.870">  7  8 -1 -1</clus>
<clus scale="   28.579">  1  5  2 -1</clus>
</clustering>
</event>
<event>
 9    2  0.4883225E-005  0.1497091E+03  0.7546771E-02  0.1202878E+00
         21   -1    0    0  501  502  0.00000000000E+00  0.00000000000E+00  0.74722945309E+02  0.74722945309E+02  0.00000000000E+00 0. -1.
          2   -1    0    0  502    0 -0.00000000000E+00 -0.00000000000E+00 -0.73591232487E+03  0.73591232487E+03  0.00000000000E+00 0. -1.
         24    2    1    2    0    0 -0.93932471823E+02 -0.98962806933E+02 -0.35515699928E+03  0.38859303292E+03  0.79063927791E+02 0.  0.
         23    2    1    2    0    0 -0.15583423753E+02  0.12459639888E+03 -0.25566471150E+03  0.29880379164E+03  0.90289287730E+02 0.  0.
        -13    1    3    3    0    0 -0.58869153087E+02 -0.70582395225E+01 -0.13778526950E+03  0.15000058807E+03  0.00000000000E+00 0.  1.
         14    1    3    3    0    0 -0.35063318736E+02 -0.91904567411E+02 -0.21737172978E+03  0.23859244485E+03  0.00000000000E+00 0. -1.
        -13    1    4    4    0    0 -0.52758069547E+02  0.82605941969E+02 -0.15013248552E+03  0.17929561835E+03  0.00000000000E+00 0. -1.
         13    1    4    4    0    0  0.37174645794E+02  0.41990456916E+02 -0.10553222598E+03  0.11950817329E+03  0.00000000000E+00 0.  1.
          1    1    1    2  501    0  0.10951589558E+03 -0.25633591951E+02 -0.50367668775E+02  0.12323844562E+03  0.00000000000E+00 0. -1.
<scales pt_clust_5="13000.00000" pt_clust_6="13000.00000" pt_clust_7="13000.00000" pt_clust_8="13000.00000" pt_clust_9="112.47583"></scales>
<clustering>
<clus scale="   79.064">  5  6 -1 -1</clus>
<clus scale="   90.289">  7  8 -1 -1</clus>
<clus scale="  112.476">  1  9  2 -1</clus>
<clus scale="  143.219">  2  5  1 -1</clus>
<clus scale="  112.476">  1  5  2 -1</clus>
</clustering>
</event>
<event>
 9    2  0.4883225E-005  0.1542206E+03  0.7546771E-02  0.1209795E+00
          2   -1    0    0  502    0 -0.00000000000E+00  0.00000000000E+00  0.22342739755E+04  0.22342739755E+04  0.00000000000E+00 0. -1.
         21   -1    0    0  501  502  0.00000000000E+00 -0.00000000000E+00 -0.34584199252E+02  0.34584199252E+02  0.00000000000E+00 0. -1.
         24    2    1    2    0    0 -0.49197787535E+02 -0.61944517000E+02  0.81410601592E+03  0.82189981537E+03  0.80580120784E+02 0.  0.
         23    2    1    2    0    0 -0.10739294375E+03 -0.37128021257E+02  0.20235039022E+03  0.24930347040E+03  0.91075823376E+02 0.  0.
        -11    1    3    3    0    0 -0.39616263314E+02  0.84466758390E+01  0.23683538031E+03  0.24027440983E+03  0.00000000000E+00 0.  1.
         12    1    3    3    0    0 -0.95815242214E+01 -0.70391192839E+02  0.57727063561E+03  0.58162540554E+03  0.00000000000E+00 0. -1.
        -13    1    4    4    0    0 -0.47956918555E+02  0.20555700620E+02  0.35746446313E+02  0.63247223569E+02  0.00000000000E+00 0. -1.
         13    1    4    4    0    0 -0.59436025191E+02 -0.57683721877E+02  0.16660394391E+03  0.18605624683E+03  0.00000000000E+00 0.  1.
          1    1    1    2  501    0  0.15659073128E+03  0.99072538257E+02  0.11832333701E+04  0.11976548890E+04  0.00000000000E+00 0. -1.
<scales pt_clust_5="13000.00000" pt_clust_6="13000.00000" pt_clust_7="13000.00000" pt_clust_8="13000.00000" pt_clust_9="124.45566"></scales>
<clustering>
<clus scale="   80.580">  5  6 -1 -1</clus>
<clus scale="   91.076">  7  8 -1 -1</clus>
<clus scale="  112.919">  1  5  2 -1</clus>
<clus scale="  124.456">  2  9  1 -1</clus>
<clus scale="  124.456">  2  5  1 -1</clus>
</clustering>
</event>
<event>
 9    2  0.4883225E-005  0.9693816E+02  0.7546771E-02  0.1289199E+00
         -1   -1    0    0    0  501 -0.00000000000E+00  0.00000000000E+00  0.40188406302E+03  0.40188406302E+03  0.00000000000E+00 0.  1.
         21   -1    0    0  501  502  0.00000000000E+00 -0.00000000000E+00 -0.30050516395E+02  0.30050516395E+02  0.00000000000E+00 0. -1.
         24    2    1    2    0    0  0.19779513161E+02 -0.44693706859E+02  0.16897907064E+03  0.19312384191E+03  0.79712831000E+02 0.  0.
         23    2    1    2    0    0 -0.13480797089E+01  0.64614177797E+02  0.16407403249E+03  0.19147717965E+03  0.74608396967E+02 0.  0.
        -13    1    3    3    0    0  0.19214579459E+02 -0.48281405342E+02  0.17691904829E+03  0.18439263492E+03  0.00000000000E+00 0.  1.
         14    1    3    3    0    0  0.56493370199E+00  0.35876984829E+01 -0.79399776467E+01  0.87312069911E+01  0.00000000000E+00 0. -1.
        -11    1    4    4    0    0 -0.33982172891E+02  0.54209683801E+02  0.11556981872E+03  0.13209792160E+03  0.00000000000E+00 0.  1.
         11    1    4    4    0    0  0.32634093182E+02  0.10404493996E+02  0.48504213771E+02  0.59379258051E+02  0.00000000000E+00 0. -1.
         -2    1    1    2    0  502 -0.18431433452E+02 -0.19920470938E+02  0.38780443488E+02  0.47333557849E+02  0.00000000000E+00 0.  1.
<scales pt_clust_5="13000.00000" pt_clust_6="13000.00000" pt_clust_7="13000.00000" pt_clust_8="13000.00000" pt_clust_9="27.13932"></scales>
<clustering>
<clus scale="   27.139">  2  9  1 -1</clus>
<clus scale="   74.608">  7  8 -1 -1</clus>
<clus scale="   79.713">  5  6 -1 -1</clus>
<clus scale="   92.786">  2  7  1 -1</clus>
<clus scale="   27.139">  2  5  1 -1</clus>
</clustering>
</event>
<event>
 9    2  0.4883225E-005  0.2274626E+03  0.7546771E-02  0.1161633E+00
         21   -1    0    0  501  502  0.00000000000E+00  0.00000000000E+00  0.11321851037E+03  0.11321851037E+03  0.00000000000E+00 0. -1.
          2   -1    0    0  502    0 -0.00000000000E+00 -0.00000000000E+00 -0.92854512173E+03  0.92854512173E+03  0.00000000000E+00 0. -1.
         24    2    1    2    0    0  0.50559830235E+00 -0.64260192484E+02 -0.46593241643E+03  0.47714999069E+03  0.80308585909E+02 0.  0.
         23    2    1    2    0    0 -0.21095152837E+02 -0.17071947216E+03 -0.22724423210E+03  0.29898234436E+03  0.90334697477E+02 0.  0.
        -13    1    3    3    0    0  0.32119547030E+02 -0.34748464578E+02 -0.12809527975E+03  0.13655592915E+03  0.00000000000E+00 0.  1.
         14    1    3    3    0    0 -0.31613948728E+02 -0.29511727905E+02 -0.33783713667E+03  0.34059406154E+03  0.00000000000E+00 0. -1.
        -11    1    4    4    0    0 -0.15091898211E+02 -0.34804257275E+02 -0.48073490781E+01  0.38238884937E+02  0.00000000000E+00 0.  1.
         11    1    4    4    0    0 -0.60032546255E+01 -0.13591521489E+03 -0.22243688302E+03  0.26074345942E+03  0.00000000000E+00 0. -1.
          1    1    1    2  501    0  0.20589554535E+02  0.23497966464E+03 -0.12214996283E+03  0.26563129705E+03  0.00000000000E+00 0. -1.
<scales pt_clust_5="13000.00000" pt_clust_6="13000.00000" pt_clust_7="13000.00000" pt_clust_8="13000.00000" pt_clust_9="208.75556"></scales>
<clustering>
<clus scale="   80.309">  5  6 -1 -1</clus>
<clus scale="   90.335">  7  8 -1 -1</clus>
<clus scale="  102.855">  2  5  1 -1</clus>
<clus scale="  208.756">  1  9  2 -1</clus>
<clus scale="  208.756">  1  5  2 -1</clus>
</clustering>
</event>
<event>
 9    2  0.4883225E-005  0.2141509E+03  0.7546771E-02  0.1139057E+00
         21   -1    0    0  501  502  0.00000000000E+00  0.00000000000E+00  0.20357905919E+03  0.20357905919E+03  0.00000000000E+00 0. -1.
         -1   -1    0    0    0  501 -0.00000000000E+00 -0.00000000000E+00 -0.26522659276E+03  0.26522659276E+03  0.00000000000E+00 0.  1.
         24    2    1    2    0    0 -0.13170762377E+03  0.14031692525E+03 -0.85684310432E+02  0.22574905050E+03  0.81148598741E+02 0.  0.
         23    2    1    2    0    0  0.11883163209E+03 -0.15771665180E+03  0.10391864559E+02  0.21746900137E+03  0.90494622316E+02 0.  0.
        -11    1    3    3    0    0 -0.10315716354E+03  0.13065776164E+03 -0.98015924026E+02  0.19318377890E+03  0.00000000000E+00 0.  1.
         12    1    3    3    0    0 -0.28550460224E+02  0.96591636110E+01  0.12331613594E+02  0.32565271602E+02  0.00000000000E+00 0. -1.
        -13    1    4    4    0    0  0.10744377239E+02 -0.79574572412E+02 -0.15032936078E+02  0.81691758360E+02  0.00000000000E+00 0.  1.
         13    1    4    4    0    0  0.10808725485E+03 -0.78142079391E+02  0.25424800637E+02  0.13577724301E+03  0.00000000000E+00 0. -1.
         -2    1    1    2    0  502  0.12875991676E+02  0.17399726549E+02  0.13644912304E+02  0.25587600071E+02  0.00000000000E+00 0.  1.
<scales pt_clust_5="13000.00000" pt_clust_6="13000.00000" pt_clust_7="13000.00000" pt_clust_8="13000.00000" pt_clust_9="21.64582"></scales>
<clustering>
<clus scale="   21.646">  1  9  2 -1</clus>
<clus scale="   81.149">  5  6 -1 -1</clus>
<clus scale="   90.495">  7  8 -1 -1</clus>
<clus scale="  210.372">  2  5  1 -1</clus>
<clus scale="   21.646">  1  5  2 -1</clus>
</clustering>
</event>
<event>
 9    2  0.4883225E-005  0.1711797E+03  0.7546771E-02  0.1177560E+00
         21   -1    0    0  501  502  0.00000000000E+00  0.00000000000E+00  0.43683975183E+03  0.43683975183E+03  0.00000000000E+00 0. -1.
          2   -1    0    0  502    0 -0.00000000000E+00 -0.00000000000E+00 -0.10502135942E+03  0.10502135942E+03  0.00000000000E+00 0. -1.
         23    2    1    2    0    0  0.12134928102E+03  0.65518986577E+02  0.56368242151E+02  0.17406077223E+03  0.90007711345E+02 0.  0.
         24    2    1    2    0    0 -0.15624203660E+03 -0.40213962361E+02  0.15082169708E+03  0.23592881068E+03  0.82984833751E+02 0.  0.
        -11    1    4    4    0    0 -0.50121141520E+02 -0.54445469086E+02  0.68910683784E+02  0.10111933678E+03  0.00000000000E+00 0.  1.
         12    1    4    4    0    0 -0.10612089508E+03  0.14231506725E+02  0.81911013296E+02  0.13480947390E+03  0.00000000000E+00 0. -1.
        -11    1    3    3    0    0  0.25670889863E+02  0.38348542272E+01  0.54320905652E+02  0.60203500597E+02  0.00000000000E+00 0.  1.
         11    1    3    3    0    0  0.95678391152E+02  0.61684132349E+02  0.20473364993E+01  0.11385727163E+03  0.00000000000E+00 0. -1.
          1    1    1    2  501    0  0.34892755580E+02 -0.25305024215E+02  0.12462845318E+03  0.13187152833E+03  0.00000000000E+00 0. -1.
<scales pt_clust_5="13000.00000" pt_clust_6="13000.00000" pt_clust_7="13000.00000" pt_clust_8="13000.00000" pt_clust_9="43.10277"></scales>
<clustering>
<clus scale="   43.103">  1  9  2 -1</clus>
<clus scale="   82.985">  5  6 -1 -1</clus>
<clus scale="   90.008">  7  8 -1 -1</clus>
<clus scale="  167.593">  1  5  2 -1</clus>
<clus scale="   43.103">  1  5  2 -1</clus>
</clustering>
</event>
<event>
 9    2  0.4883225E-005  0.2230804E+03  0.7546771E-02  0.1162371E+00
          2   -1    0    0  502    0 -0.00000000000E+00  0.00000000000E+00  0.32710382046E+03  0.32710382046E+03  0.00000000000E+00 0. -1.
         21   -1    0    0  501  502  0.00000000000E+00 -0.00000000000E+00 -0.37561978887E+03  0.37561978887E+03  0.00000000000E+00 0. -1.
         23    2    1    2    0    0  0.42347854284E+02 -0.51501585235E+02  0.18028737853E+03  0.20974330635E+03  0.83922354945E+02 0.  0.
         24    2    1    2    0    0  0.19568762842E+02 -0.17858539305E+03 -0.83829059834E+02  0.21406951263E+03  0.80763642029E+02 0.  0.
        -11    1    4    4    0    0  0.36596614801E+02 -0.31731895663E+02 -0.13065755439E+02  0.50169107850E+02  0.00000000000E+00 0.  1.
         12    1    4    4    0    0 -0.17027851959E+02 -0.14685349739E+03 -0.70763304395E+02  0.16390040478E+03  0.00000000000E+00 0. -1.
        -13    1    3    3    0    0  0.49457311154E+02 -0.19509356148E+02  0.42366154985E+02  0.67981848255E+02  0.00000000000E+00 0.  1.
         13    1    3    3    0    0 -0.71094568698E+01 -0.31992229087E+02  0.13792122354E+03  0.14176145810E+03  0.00000000000E+00 0. -1.
          1    1    1    2  501    0 -0.61916617127E+02  0.23008697829E+03 -0.14497428710E+03  0.27891079035E+03  0.00000000000E+00 0. -1.
<scales pt_clust_5="13000.00000" pt_clust_6="13000.00000" pt_clust_7="13000.00000" pt_clust_8="13000.00000" pt_clust_9="207.94742"></scales>
<clustering>
<clus scale="   80.764">  5  6 -1 -1</clus>
<clus scale="   83.922">  7  8 -1 -1</clus>
<clus scale="  107.185">  1  7  2 -1</clus>
<clus scale="  207.947">  2  9  1 -1</clus>
<clus scale="  207.947">  2  5  1 -1</clus>
</clustering>
</event>
<event>
 9    2  0.4883225E-005  0.9130317E+02  0.7546771E-02  0.1305773E+00
         21   -1    0    0  501  502  0.00000000000E+00  0.00000000000E+00  0.20522221705E+03  0.20522221705E+03  0.00000000000E+00 0. -1.
          4   -1    0    0  502    0 -0.00000000000E+00 -0.00000000000E+00 -0.18053871073E+03  0.18053871073E+03  0.00000000000E+00 0. -1.
         23    2    1    2    0    0  0.12126614840E+02 -0.45220155665E+01 -0.11764998555E+03  0.14879615586E+03  0.90173574215E+02 0.  0.
         24    2    1    2    0    0  0.10019355049E+02  0.36382356878E+02 -0.59862817762E+00  0.88859686674E+02  0.80446393284E+02 0.  0.
        -11    1    4    4    0    0  0.40584007956E+02  0.31287502680E+02  0.16030629491E+02  0.53693115086E+02  0.00000000000E+00 0.  1.
         12    1    4    4    0    0 -0.30564652907E+02  0.50948541983E+01 -0.16629257669E+02  0.35166571588E+02  0.00000000000E+00 0. -1.
        -13    1    3    3    0    0  0.32808761659E+02 -0.33375706120E+02 -0.97066016535E+02  0.10775975207E+03  0.00000000000E+00 0.  1.
         13    1    3    3    0    0 -0.20682146819E+02  0.28853690553E+02 -0.20583969018E+02  0.41036403791E+02  0.00000000000E+00 0. -1.
          3    1    1    2  501    0 -0.22145969889E+02 -0.31860341312E+02  0.14293212005E+03  0.14810508524E+03  0.00000000000E+00 0. -1.
<scales pt_clust_5="13000.00000" pt_clust_6="13000.00000" pt_clust_7="13000.00000" pt_clust_8="13000.00000" pt_clust_9="38.80110"></scales>
<clustering>
<clus scale="   38.801">  1  9  2 -1</clus>
<clus scale="   80.446">  5  6 -1 -1</clus>
<clus scale="   81.711">  1  5  2 -1</clus>
<clus scale="   90.174">  7  8 -1 -1</clus>
<clus scale="   38.801">  1  5  2 -1</clus>
</clustering>
</event>
<event>
 9    2  0.4883225E-005  0.1861797E+03  0.7546771E-02  0.1163108E+00
          2   -1    0    0  502    0 -0.00000000000E+00  0.00000000000E+00  0.16013994852E+03  0.16013994852E+03  0.00000000000E+00 0. -1.
         21   -1    0    0  501  502  0.00000000000E+00 -0.00000000000E+00 -0.25616863758E+03  0.25616863758E+03  0.00000000000E+00 0. -1.
         24    2    1    2    0    0 -0.10758810950E+03  0.11875313469E+03  0.90394622886E+01  0.17947077505E+03  0.80315247078E+02 0.  0.
         23    2    1    2    0    0  0.97376761441E+02 -0.13621527284E+03 -0.10281786294E+03  0.21648439129E+03  0.90868831335E+02 0.  0.
        -11    1    3    3    0    0 -0.64965453473E+02  0.50492900261E+02  0.42153257842E+02  0.92449663430E+02  0.00000000000E+00 0.  1.
         12    1    3    3    0    0 -0.42622656026E+02  0.68260234428E+02 -0.33113795553E+02  0.87021111616E+02  0.00000000000E+00 0. -1.
        -11    1    4    4    0    0  0.31313974293E+02 -0.58978397875E+02 -0.92839603662E+02  0.11435999480E+03  0.00000000000E+00 0.  1.
         11    1    4    4    0    0  0.66062787148E+02 -0.77236874969E+02 -0.99782592764E+01  0.10212439649E+03  0.00000000000E+00 0. -1.
          1    1    1    2  501    0  0.10211348058E+02  0.17462138155E+02 -0.22502884191E+01  0.20353419764E+02  0.00000000000E+00 0. -1.
<scales pt_clust_5="13000.00000" pt_clust_6="13000.00000" pt_clust_7="13000.00000" pt_clust_8="13000.00000" pt_clust_9="20.22865"></scales>
<clustering>
<clus scale="   20.229">  2  9  1 -1</clus>
<clus scale="   80.315">  5  6 -1 -1</clus>
<clus scale="   90.869">  7  8 -1 -1</clus>
<clus scale="  181.263">  1  5  2 -1</clus>
<clus scale="   20.229">  2  5  1 -1</clus>
</clustering>
</event>
<event>
 9    2  0.4883225E-005  0.9225646E+02  0.7546771E-02  0.1302649E+00
          2   -1    0    0  502    0 -0.00000000000E+00  0.00000000000E+00  0.13226009914E+04  0.13226009914E+04  0.00000000000E+00 0. -1.
         21   -1    0    0  501  502  0.00000000000E+00 -0.00000000000E+00 -0.19908972277E+02  0.19908972277E+02  0.00000000000E+00 0. -1.
         24    2    1    2    0    0 -0.95155100521E+01  0.23545865616E+02  0.11358708326E+04  0.11389682387E+04  0.80007173569E+02 0.  0.
         23    2    1    2    0    0  0.27509792831E+02 -0.12480941836E+02  0.12091385787E+03  0.15300748331E+03  0.88761288374E+02 0.  0.
        -11    1    3    3    0    0 -0.17482694084E+02 -0.19134788669E+02  0.15620283012E+03  0.15833858932E+03  0.00000000000E+00 0.  1.
         12    1    3    3    0    0  0.79671840317E+01  0.42680654285E+02  0.97966800246E+03  0.98062964941E+03  0.00000000000E+00 0. -1.
        -13    1    4    4    0    0 -0.30889280156E+01  0.22498038338E+02  0.99100376205E+02  0.10166901086E+03  0.00000000000E+00 0.  1.
         13    1    4    4    0    0  0.30598720847E+02 -0.34978980174E+02  0.21813481668E+02  0.51338472454E+02  0.00000000000E+00 0. -1.
          1    1    1    2  501    0 -0.17994282779E+02 -0.11064923781E+02  0.45907328639E+02  0.50534241597E+02  0.00000000000E+00 0. -1.
<scales pt_clust_5="13000.00000" pt_clust_6="13000.00000" pt_clust_7="13000.00000" pt_clust_8="13000.00000" pt_clust_9="21.12408"></scales>
<clustering>
<clus scale="   21.124">  2  9  1 -1</clus>
<clus scale="   80.007">  5  6 -1 -1</clus>
<clus scale="   83.868">  1  5  2 -1</clus>
<clus scale="   88.761">  7  8 -1 -1</clus>
<clus scale="   21.124">  2  5  1 -1</clus>
</clustering>
</event>
<event>
 9    2  0.4883225E-005  0.9264414E+02  0.7546771E-02  0.1299682E+00
         21   -1    0    0  501  502  0.00000000000E+00  0.00000000000E+00  0.26189023042E+02  0.26189023042E+02  0.00000000000E+00 0. -1.
          2   -1    0    0  502    0 -0.00000000000E+00 -0.00000000000E+00 -0.56927910991E+03  0.56927910991E+03  0.00000000000E+00 0. -1.
         24    2    1    2    0    0  0.95724302244E+01 -0.14268194462E+02 -0.23070665449E+03  0.24499051840E+03  0.80619978215E+02 0.  0.
         23    2    1    2    0    0 -0.21693473178E+02  0.50399644079E+02 -0.28709668194E+03  0.30474118398E+03  0.86208778719E+02 0.  0.
        -11    1    3    3    0    0  0.21321707883E+02 -0.37777980084E+02 -0.19963650062E+03  0.20429518689E+03  0.00000000000E+00 0.  1.
         12    1    3    3    0    0 -0.11749277659E+02  0.23509785622E+02 -0.31070153874E+02  0.40695331517E+02  0.00000000000E+00 0. -1.
        -11    1    4    4    0    0  0.17892831962E+02  0.10172439389E+02 -0.11812650867E+02  0.23731217399E+02  0.00000000000E+00 0.  1.
         11    1    4    4    0    0 -0.39586305140E+02  0.40227204690E+02 -0.27528403107E+03  0.28100996658E+03  0.00000000000E+00 0. -1.
          1    1    1    2  501    0  0.12121042953E+02 -0.36131449617E+02 -0.25286750429E+02  0.45736430567E+02  0.00000000000E+00 0. -1.
<scales pt_clust_5="13000.00000" pt_clust_6="13000.00000" pt_clust_7="13000.00000" pt_clust_8="13000.00000" pt_clust_9="38.11038"></scales>
<clustering>
<clus scale="   38.110">  1  9  2 -1</clus>
<clus scale="   80.620">  5  6 -1 -1</clus>
<clus scale="   86.209">  7  8 -1 -1</clus>
<clus scale="   87.467">  2  5  1 -1</clus>
<clus scale="   38.110">  1  5  2 -1</clus>
</clustering>
</event>
<event>
 9    2  0.4883225E-005  0.1032968E+03  0.7546771E-02  0.1283636E+00
          4   -1    0    0  502    0 -0.00000000000E+00  0.00000000000E+00  0.73386648185E+03  0.73386648185E+03  0.00000000000E+00 0. -1.
         21   -1    0    0  501  502  0.00000000000E+00 -0.00000000000E+00 -0.30477460182E+03  0.30477460182E+03  0.00000000000E+00 0.  1.
         24    2    1    2    0    0  0.64782548198E+01 -0.32014444922E+02  0.70353126084E+03  0.70866994105E+03  0.78676285478E+02 0.  0.
         23    2    1    2    0    0  0.18485161521E+02  0.27675697363E+02 -0.28447028245E+03  0.30272016331E+03  0.98023008817E+02 0.  0.
        -11    1    3    3    0    0 -0.95112330722E+01 -0.26323816748E+02  0.77343075593E+02  0.82251797701E+02  0.00000000000E+00 0.  1.
         12    1    3    3    0    0  0.15989487892E+02 -0.56906281736E+01  0.62618818525E+03  0.62641814335E+03  0.00000000000E+00 0. -1.
        -13    1    4    4    0    0  0.41078411189E+02  0.40128874809E+02 -0.26288143819E+03  0.26908068122E+03  0.00000000000E+00 0.  1.
         13    1    4    4    0    0 -0.22593249669E+02 -0.12453177446E+02 -0.21588844257E+02  0.33639482093E+02  0.00000000000E+00 0. -1.
          3    1    1    2  501    0 -0.24963416341E+02  0.43387475595E+01  0.10030901635E+02  0.27250979311E+02  0.00000000000E+00 0. -1.
<scales pt_clust_5="13000.00000" pt_clust_6="13000.00000" pt_clust_7="13000.00000" pt_clust_8="13000.00000" pt_clust_9="25.33766"></scales>
<clustering>
<clus scale="   25.338">  2  9  1 -1</clus>
<clus scale="   78.676">  5  6 -1 -1</clus>
<clus scale="   85.157">  1  5  2 -1</clus>
<clus scale="   98.023">  7  8 -1 -1</clus>
<clus scale="   25.338">  2  5  1 -1</clus>
</clustering>
</event>
<event>
 9    2  0.4883225E-005  0.1827979E+03  0.7546771E-02  0.1181243E+00
         21   -1    0    0  501  502  0.00000000000E+00  0.00000000000E+00  0.21755458797E+03  0.21755458797E+03  0.00000000000E+00 0. -1.
          2   -1    0    0  502    0 -0.00000000000E+00 -0.00000000000E+00 -0.32620606405E+03  0.32620606405E+03  0.00000000000E+00 0. -1.
         24    2    1    2    0    0 -0.10017944950E+03 -0.11408555672E+02 -0.11438021929E+03  0.17067832202E+03  0.76695357093E+02 0.  0.
         23    2    1    2    0    0 -0.10974871196E+03 -0.50887776025E+02  0.16908641684E+02  0.15382071446E+03  0.93490986240E+02 0.  0.
        -13    1    3    3    0    0 -0.18522036713E+02  0.27134529134E+02 -0.49814681759E+02  0.59672866816E+02  0.00000000000E+00 0.  1.
         14    1    3    3    0    0 -0.81657412783E+02 -0.38543084806E+02 -0.64565537531E+02  0.11100545521E+03  0.00000000000E+00 0. -1.
        -13    1    4    4    0    0 -0.37388432979E+02 -0.35787099586E+02 -0.35889888230E+02  0.62981707618E+02  0.00000000000E+00 0.  1.
         13    1    4    4    0    0 -0.72360278984E+02 -0.15100676439E+02  0.52798529913E+02  0.90839006845E+02  0.00000000000E+00 0. -1.
          1    1    1    2  501    0  0.20992816146E+03  0.62296331697E+02 -0.11179898467E+02  0.21926161553E+03  0.00000000000E+00 0. -1.
<scales pt_clust_5="13000.00000" pt_clust_6="13000.00000" pt_clust_7="13000.00000" pt_clust_8="13000.00000" pt_clust_9="157.08131"></scales>
<clustering>
<clus scale="   76.695">  5  6 -1 -1</clus>
<clus scale="   93.491">  7  8 -1 -1</clus>
<clus scale="  126.682">  2  5  1 -1</clus>
<clus scale="  157.081">  1  9  2 -1</clus>
<clus scale="  157.081">  1  5  2 -1</clus>
</clustering>
</event>
<event>
 9    2  0.4883225E-005  0.9563555E+02  0.7546771E-02  0.1296742E+00
         21   -1    0    0  501  502  0.00000000000E+00  0.00000000000E+00  0.33641902374E+02  0.33641902374E+02  0.00000000000E+00 0. -1.
          2   -1    0    0  502    0 -0.00000000000E+00 -0.00000000000E+00 -0.59005605048E+03  0.59005605048E+03  0.00000000000E+00 0. -1.
         24    2    1    2    0    0 -0.11536851314E+02  0.20269729131E+02 -0.12370883876E+03  0.14935762695E+03  0.80373273444E+02 0.  0.
         23    2    1    2    0    0 -0.37472254989E+02 -0.26515245025E+02 -0.12248462250E+03  0.16021014028E+03  0.92507179117E+02 0.  0.
        -13    1    3    3    0    0  0.16117910306E+02 -0.25494251202E+02 -0.42013131237E+02  0.51718923745E+02  0.00000000000E+00 0.  1.
         14    1    3    3    0    0 -0.27654761621E+02  0.45763980334E+02 -0.81695707526E+02  0.97638703209E+02  0.00000000000E+00 0. -1.
        -13    1    4    4    0    0 -0.62147826914E+02 -0.11136381240E+02 -0.11332411911E+03  0.12972558479E+03  0.00000000000E+00 0.  1.
         13    1    4    4    0    0  0.24675571924E+02 -0.15378863785E+02 -0.91605033851E+01  0.30484555489E+02  0.00000000000E+00 0. -1.
          1    1    1    2  501    0  0.49009106304E+02  0.62455158934E+01 -0.31022068685E+03  0.31413018562E+03  0.00000000000E+00 0. -1.
<scales pt_clust_5="13000.00000" pt_clust_6="13000.00000" pt_clust_7="13000.00000" pt_clust_8="13000.00000" pt_clust_9="49.40548"></scales>
<clustering>
<clus scale="   49.405">  1  9  2 -1</clus>
<clus scale="   80.373">  5  6 -1 -1</clus>
<clus scale="   83.955">  2  5  1 -1</clus>
<clus scale="   92.507">  7  8 -1 -1</clus>
<clus scale="   49.405">  1  5  2 -1</clus>
</clustering>
</event>
<event>
 9    2  0.4883225E-005  0.2478125E+03  0.7546771E-02  0.1156605E+00
         21   -1    0    0  501  502  0.00000000000E+00  0.00000000000E+00  0.69614678661E+03  0.69614678661E+03  0.00000000000E+00 0. -1.
          2   -1    0    0  502    0 -0.00000000000E+00 -0.00000000000E+00 -0.18214363938E+03  0.18214363938E+03  0.00000000000E+00 0. -1.
         24    2    1    2    0    0 -0.19285602308E+02 -0.34131284559E+02  0.81349435957E+02  0.12089533407E+03  0.80380793896E+02 0.  0.
         23    2    1    2    0    0 -0.23050909732E+02  0.25491861671E+03  0.26229592957E+01  0.27214683181E+03  0.92423874424E+02 0.  0.
        -11    1    3    3    0    0  0.30225390006E+02 -0.18557334535E+02  0.20689265202E+02  0.41060864100E+02  0.00000000000E+00 0.  1.
         12    1    3    3    0    0 -0.49510992314E+02 -0.15573950024E+02  0.60660170755E+02  0.79834469969E+02  0.00000000000E+00 0. -1.
        -11    1    4    4    0    0 -0.31796465172E+02  0.34630704103E+02  0.19808774237E+02  0.51016550265E+02  0.00000000000E+00 0.  1.
         11    1    4    4    0    0  0.87455554399E+01  0.22028791261E+03 -0.17185814942E+02  0.22113028155E+03  0.00000000000E+00 0. -1.
          1    1    1    2  501    0  0.42336512040E+02 -0.22078733216E+03  0.43003075198E+03  0.48524826011E+03  0.00000000000E+00 0. -1.
<scales pt_clust_5="13000.00000" pt_clust_6="13000.00000" pt_clust_7="13000.00000" pt_clust_8="13000.00000" pt_clust_9="229.93235"></scales>
<clustering>
<clus scale="   80.381">  5  6 -1 -1</clus>
<clus scale="   89.431">  2  5  1 -1</clus>
<clus scale="   92.424">  7  8 -1 -1</clus>
<clus scale="  229.932">  1  9  2 -1</clus>
<clus scale="  229.932">  1  5  2 -1</clus>
</clustering>
</event>
<event>
 9    2  0.4883225E-005  0.9148344E+02  0.7546771E-02  0.1304993E+00
         21   -1    0    0  501  502  0.00000000000E+00  0.00000000000E+00  0.52928045445E+03  0.52928045445E+03  0.00000000000E+00 0. -1.
          2   -1    0    0  502    0 -0.00000000000E+00 -0.00000000000E+00 -0.37756802005E+02  0.37756802005E+02  0.00000000000E+00 0. -1.
         24    2    1    2    0    0  0.25417784775E+02  0.27477597881E+01  0.40091484043E+02  0.93433893624E+02  0.80429791857E+02 0.  0.
         23    2    1    2    0    0  0.18654767436E+02  0.18829956516E+02  0.31590607292E+03  0.32946693351E+03  0.89717588918E+02 0.  0.
        -13    1    3    3    0    0 -0.26820971346E+02  0.92499036861E+01  0.19721427068E+01  0.28439665417E+02  0.00000000000E+00 0.  1.
         14    1    3    3    0    0  0.52238756121E+02 -0.65021438980E+01  0.38119341336E+02  0.64994228207E+02  0.00000000000E+00 0. -1.
        -11    1    4    4    0    0 -0.17954080466E+02 -0.22347429479E+02  0.47628205166E+02  0.55589590186E+02  0.00000000000E+00 0.  1.
         11    1    4    4    0    0  0.36608847902E+02  0.41177385995E+02  0.26827786775E+03  0.27387734332E+03  0.00000000000E+00 0. -1.
          1    1    1    2  501    0 -0.44072552211E+02 -0.21577716304E+02  0.13552609549E+03  0.14413642932E+03  0.00000000000E+00 0. -1.
<scales pt_clust_5="13000.00000" pt_clust_6="13000.00000" pt_clust_7="13000.00000" pt_clust_8="13000.00000" pt_clust_9="49.07125"></scales>
<clustering>
<clus scale="   49.071">  1  9  2 -1</clus>
<clus scale="   80.430">  5  6 -1 -1</clus>
<clus scale="   82.395">  2  5  1 -1</clus>
<clus scale="   89.718">  7  8 -1 -1</clus>
<clus scale="   49.071">  1  5  2 -1</clus>
</clustering>
</event>
<event>
 9    2  0.4883225E-005  0.1108782E+03  0.7546771E-02  0.1259745E+00
         21   -1    0    0  501  502  0.00000000000E+00  0.00000000000E+00  0.71007557445E+03  0.71007557445E+03  0.00000000000E+00 0. -1.
          2   -1    0    0  502    0 -0.00000000000E+00 -0.00000000000E+00 -0.48038542101E+02  0.48038542101E+02  0.00000000000E+00 0. -1.
         23    2    1    2    0    0 -0.77012118913E+02  0.31595449708E+02  0.29136269116E+03  0.31697539540E+03  0.93016367301E+02 0.  0.
         24    2    1    2    0    0  0.37482734406E+02  0.70158976988E+02  0.27072396025E+03  0.29312988952E+03  0.79413047076E+02 0.  0.
        -13    1    4    4    0    0  0.22232132198E+02 -0.94397233980E+01  0.26722020354E+02  0.36020028480E+02  0.00000000000E+00 0.  1.
         14    1    4    4    0    0  0.15250602208E+02  0.79598700386E+02  0.24400193990E+03  0.25710986104E+03  0.00000000000E+00 0. -1.
        -11    1    3    3    0    0  0.11552182709E+02 -0.16679401744E+02  0.83534215137E+02  0.85962901687E+02  0.00000000000E+00 0.  1.
         11    1    3    3    0    0 -0.88564301622E+02  0.48274851452E+02  0.20782847602E+03  0.23101249371E+03  0.00000000000E+00 0. -1.
          1    1    1    2  501    0  0.39529384507E+02 -0.10175442670E+03  0.99950380941E+02  0.14800883164E+03  0.00000000000E+00 0. -1.
<scales pt_clust_5="13000.00000" pt_clust_6="13000.00000" pt_clust_7="13000.00000" pt_clust_8="13000.00000" pt_clust_9="109.16294"></scales>
<clustering>
<clus scale="   79.413">  5  6 -1 -1</clus>
<clus scale="   93.016">  7  8 -1 -1</clus>
<clus scale="  109.163">  1  9  2 -1</clus>
<clus scale="  109.163">  1  5  2 -1</clus>
<clus scale="  109.163">  1  5  2 -1</clus>
</clustering>
</event>
<event>
 9    2  0.5620211E-005  0.1493172E+03  0.7546771E-02  0.1219924E+00
          2   -1    0    0  502    0 -0.00000000000E+00  0.00000000000E+00  0.58442946996E+03  0.58442946996E+03  0.00000000000E+00 0. -1.
         21   -1    0    0  501  502  0.00000000000E+00 -0.00000000000E+00 -0.25999220946E+03  0.25999220946E+03  0.00000000000E+00 0.  1.
         24    2    1    2    0    0  0.33930452447E+02  0.51846067276E+02 -0.21581290547E+03  0.23802098713E+03  0.78990441521E+02 0.  0.
         23    2    1    2    0    0 -0.41674676448E+02  0.78600845790E+02  0.36513326827E+03  0.38790058245E+03  0.96071258199E+02 0.  0.
        -11    1    3    3    0    0  0.25267503894E+02  0.72751664991E+02 -0.15372812730E+03  0.17194065440E+03  0.00000000000E+00 0.  1.
         12    1    3    3    0    0  0.86629485526E+01 -0.20905597714E+02 -0.62084778172E+02  0.66080332733E+02  0.00000000000E+00 0. -1.
        -11    1    4    4    0    0  0.28541189728E+02  0.95235419349E+01  0.12008908431E+03  0.12380099165E+03  0.00000000000E+00 0.  1.
         11    1    4    4    0    0 -0.70215866176E+02  0.69077303855E+02  0.24504418396E+03  0.26409959081E+03  0.00000000000E+00 0. -1.
          1    1    1    2  501    0  0.77442240010E+01 -0.13044691307E+03  0.17511689770E+03  0.21850010983E+03  0.00000000000E+00 0. -1.
<scales pt_clust_5="13000.00000" pt_clust_6="13000.00000" pt_clust_7="13000.00000" pt_clust_8="13000.00000" pt_clust_9="114.30632"></scales>
<clustering>
<clus scale="   78.990">  5  6 -1 -1</clus>
<clus scale="   96.071">  7  8 -1 -1</clus>
<clus scale="  100.393">  1  5  2 -1</clus>
<clus scale="  114.306">  2  9  1 -1</clus>
<clus scale="  114.306">  2  5  1 -1</clus>
</clustering>
</event>
<event>
 9    2  0.4883225E-005  0.9327465E+02  0.7546771E-02  0.1303830E+00
         21   -1    0    0  501  502  0.00000000000E+00  0.00000000000E+00  0.37700850692E+03  0.37700850692E+03  0.00000000000E+00 0.  1.
          4   -1    0    0  502    0 -0.00000000000E+00 -0.00000000000E+00 -0.54690015470E+03  0.54690015470E+03  0.00000000000E+00 0. -1.
         24    2    1    2    0    0  0.15838849446E+02  0.16018382665E+01 -0.53166380966E+03  0.53756884308E+03  0.77848696215E+02 0.  0.
         23    2    1    2    0    0  0.63585068011E+01  0.26686633798E+02  0.29875544996E+03  0.31378593334E+03  0.91946647820E+02 0.  0.
        -13    1    3    3    0    0  0.41276725014E+02 -0.28489096988E+01 -0.16916416202E+03  0.17415050395E+03  0.00000000000E+00 0.  1.
         14    1    3    3    0    0 -0.25437875568E+02  0.44507479653E+01 -0.36249964765E+03  0.36341833913E+03  0.00000000000E+00 0. -1.
        -11    1    4    4    0    0 -0.28301563999E+02 -0.18702975258E+02  0.67011150412E+02  0.75108415559E+02  0.00000000000E+00 0. -1.
         11    1    4    4    0    0  0.34660070800E+02  0.45389609056E+02  0.23174429955E+03  0.23867751778E+03  0.00000000000E+00 0.  1.
          3    1    1    2  501    0 -0.22197356247E+02 -0.28288472065E+02  0.63016711921E+02  0.72553885198E+02  0.00000000000E+00 0. -1.
<scales pt_clust_5="13000.00000" pt_clust_6="13000.00000" pt_clust_7="13000.00000" pt_clust_8="13000.00000" pt_clust_9="35.95776"></scales>
<clustering>
<clus scale="   35.958">  1  9  2 -1</clus>
<clus scale="   77.849">  5  6 -1 -1</clus>
<clus scale="   79.413">  2  5  1 -1</clus>
<clus scale="   91.947">  7  8 -1 -1</clus>
<clus scale="   35.958">  1  5  2 -1</clus>
</clustering>
</event>
<event>
 9    2  0.4883225E-005  0.9483947E+02  0.7546771E-02  0.1299778E+00
         21   -1    0    0  501  502  0.00000000000E+00  0.00000000000E+00  0.30797654512E+02  0.30797654512E+02  0.00000000000E+00 0. -1.
          2   -1    0    0  502    0 -0.00000000000E+00 -0.00000000000E+00 -0.67363814056E+03  0.67363814056E+03  0.00000000000E+00 0. -1.
         24    2    1    2    0    0  0.33526456196E+02 -0.17358067757E+02 -0.43066578655E+03  0.43892285553E+03  0.75861239250E+02 0.  0.
         23    2    1    2    0    0  0.23899557943E+01  0.21548974494E+02 -0.20968569654E+03  0.22926728483E+03  0.90140592239E+02 0.  0.
        -13    1    3    3    0    0  0.19953393790E+02  0.29655492951E+02 -0.17372262649E+03  0.17736159996E+03  0.00000000000E+00 0.  1.
         14    1    3    3    0    0  0.13573062406E+02 -0.47013560708E+02 -0.25694316007E+03  0.26156125558E+03  0.00000000000E+00 0. -1.
        -11    1    4    4    0    0 -0.26075023392E+01  0.47905971543E+02 -0.58204854787E+02  0.75429346403E+02  0.00000000000E+00 0.  1.
         11    1    4    4    0    0  0.49974581334E+01 -0.26356997049E+02 -0.15148084175E+03  0.15383793843E+03  0.00000000000E+00 0. -1.
          1    1    1    2  501    0 -0.35916411991E+02 -0.41909067373E+01 -0.24890029538E+01  0.36245654709E+02  0.00000000000E+00 0. -1.
<scales pt_clust_5="13000.00000" pt_clust_6="13000.00000" pt_clust_7="13000.00000" pt_clust_8="13000.00000" pt_clust_9="36.16009"></scales>
<clustering>
<clus scale="   36.160">  1  9  2 -1</clus>
<clus scale="   75.861">  5  6 -1 -1</clus>
<clus scale="   81.389">  2  5  1 -1</clus>
<clus scale="   90.141">  7  8 -1 -1</clus>
<clus scale="   36.160">  1  5  2 -1</clus>
</clustering>
</event>
<event>
 9    2  0.4883225E-005  0.9365648E+02  0.7546771E-02  0.1301228E+00
         -1   -1    0    0    0  501 -0.00000000000E+00  0.00000000000E+00  0.19999313498E+03  0.19999313498E+03  0.00000000000E+00 0.  1.
         21   -1    0    0  501  502  0.00000000000E+00 -0.00000000000E+00 -0.72033564336E+02  0.72033564336E+02  0.00000000000E+00 0.  1.
         24    2    1    2    0    0 -0.21700774038E+02 -0.13702854226E+02  0.84282726434E+02  0.11909742292E+03  0.80136922602E+02 0.  0.
         23    2    1    2    0    0 -0.70375532508E+01  0.67815209704E+01 -0.87855083383E+01  0.92712212828E+02  0.91776102926E+02 0.  0.
        -11    1    3    3    0    0 -0.51769356446E+02 -0.23648415505E+01  0.55846101209E+02  0.76186913330E+02  0.00000000000E+00 0.  1.
         12    1    3    3    0    0  0.30068582408E+02 -0.11338012675E+02  0.28436625224E+02  0.42910509594E+02  0.00000000000E+00 0. -1.
        -13    1    4    4    0    0  0.14543577671E+02  0.45540788551E+02 -0.21377997713E+01  0.47854459157E+02  0.00000000000E+00 0.  1.
         13    1    4    4    0    0 -0.21581130922E+02 -0.38759267580E+02 -0.66477085671E+01  0.44857753671E+02  0.00000000000E+00 0. -1.
         -2    1    1    2    0  502  0.28738327289E+02  0.69213332554E+01  0.52462352546E+02  0.60217063563E+02  0.00000000000E+00 0.  1.
<scales pt_clust_5="13000.00000" pt_clust_6="13000.00000" pt_clust_7="13000.00000" pt_clust_8="13000.00000" pt_clust_9="29.56006"></scales>
<clustering>
<clus scale="   29.560">  2  9  1 -1</clus>
<clus scale="   80.137">  5  6 -1 -1</clus>
<clus scale="   82.284">  1  5  2 -1</clus>
<clus scale="   91.776">  7  8 -1 -1</clus>
<clus scale="   29.560">  2  5  1 -1</clus>
</clustering>
</event>
<event>
 9    2  0.4883225E-005  0.1232890E+03  0.7546771E-02  0.1251188E+00
         -3   -1    0    0    0  501 -0.00000000000E+00  0.00000000000E+00  0.19190522493E+03  0.19190522493E+03  0.00000000000E+00 0.  1.
         21   -1    0    0  501  502  0.00000000000E+00 -0.00000000000E+00 -0.14718453617E+03  0.14718453617E+03  0.00000000000E+00 0.  1.
         23    2    1    2    0    0  0.15189642122E+02 -0.13329967467E+02 -0.15564402877E+02  0.95342884232E+02  0.91867304718E+02 0.  0.
         24    2    1    2    0    0  0.66509906087E+01 -0.82966353059E+02  0.83937319449E+02  0.14221155067E+03  0.79063266645E+02 0.  0.
        -13    1    4    4    0    0 -0.11260771002E+02 -0.58609035113E+02  0.93128802732E+02  0.11061102051E+03  0.00000000000E+00 0.  1.
         14    1    4    4    0    0  0.17911761611E+02 -0.24357317945E+02 -0.91914832829E+01  0.31600530161E+02  0.00000000000E+00 0. -1.
        -11    1    3    3    0    0 -0.14111622574E+02  0.17907667856E+02  0.26741807893E+02  0.35141809132E+02  0.00000000000E+00 0. -1.
         11    1    3    3    0    0  0.29301264696E+02 -0.31237635323E+02 -0.42306210770E+02  0.60201075099E+02  0.00000000000E+00 0.  1.
         -4    1    1    2    0  502 -0.21840632731E+02  0.96296320526E+02 -0.23652227814E+02  0.10153532619E+03  0.00000000000E+00 0.  1.
<scales pt_clust_5="13000.00000" pt_clust_6="13000.00000" pt_clust_7="13000.00000" pt_clust_8="13000.00000" pt_clust_9="94.60011"></scales>
<clustering>
<clus scale="   79.063">  5  6 -1 -1</clus>
<clus scale="   91.867">  7  8 -1 -1</clus>
<clus scale="   94.064">  1  7  2 -1</clus>
<clus scale="   94.600">  2  9  1 -1</clus>
<clus scale="   94.600">  2  5  1 -1</clus>
</clustering>
</event>
<event>
 9    2  0.4883225E-005  0.1648970E+03  0.7546771E-02  0.1202734E+00
         21   -1    0    0  501  502  0.00000000000E+00  0.00000000000E+00  0.97123334738E+02  0.97123334738E+02  0.00000000000E+00 0. -1.
          4   -1    0    0  502    0 -0.00000000000E+00 -0.00000000000E+00 -0.52085136396E+03  0.52085136396E+03  0.00000000000E+00 0. -1.
         23    2    1    2    0    0  0.35861979199E+02  0.43345707008E+02 -0.56969885142E+02  0.12167377532E+03  0.91618818588E+02 0.  0.
         24    2    1    2    0    0 -0.16687736664E+03 -0.52862440578E+02 -0.27495705119E+03  0.33604163154E+03  0.81731909356E+02 0.  0.
        -11    1    4    4    0    0 -0.99922251393E+02  0.79097096275E+01 -0.11728457863E+03  0.15428121148E+03  0.00000000000E+00 0.  1.
         12    1    4    4    0    0 -0.66955115250E+02 -0.60772150206E+02 -0.15767247256E+03  0.18176042006E+03  0.00000000000E+00 0. -1.
        -13    1    3    3    0    0  0.35551260901E+02 -0.17518696090E+02 -0.44414969762E+02  0.59527190454E+02  0.00000000000E+00 0.  1.
         13    1    3    3    0    0  0.31071829830E+00  0.60864403098E+02 -0.12554915380E+02  0.62146584866E+02  0.00000000000E+00 0. -1.
          3    1    1    2  501    0  0.13101538744E+03  0.95167335706E+01 -0.91801092894E+02  0.16025929184E+03  0.00000000000E+00 0. -1.
<scales pt_clust_5="13000.00000" pt_clust_6="13000.00000" pt_clust_7="13000.00000" pt_clust_8="13000.00000" pt_clust_9="143.21636"></scales>
<clustering>
<clus scale="   81.732">  5  6 -1 -1</clus>
<clus scale="   91.619">  7  8 -1 -1</clus>
<clus scale="  107.513">  2  7  1 -1</clus>
<clus scale="  143.216">  1  9  2 -1</clus>
<clus scale="  143.216">  1  5  2 -1</clus>
</clustering>
</event>
<event>
 9    2  0.4883225E-005  0.9196182E+02  0.7546771E-02  0.1304661E+00
          2   -1    0    0  502    0 -0.00000000000E+00  0.00000000000E+00  0.36524784158E+03  0.36524784158E+03  0.00000000000E+00 0. -1.
         21   -1    0    0  501  502  0.00000000000E+00 -0.00000000000E+00 -0.34052410480E+02  0.34052410480E+02  0.00000000000E+00 0.  1.
         24    2    1    2    0    0  0.23721325868E+02 -0.89333561941E+01  0.13386353834E+03  0.15782973739E+03  0.79676050079E+02 0.  0.
         23    2    1    2    0    0  0.80366211646E+01  0.20421087893E+02  0.91493984532E+02  0.13037506922E+03  0.90249107246E+02 0.  0.
        -11    1    3    3    0    0  0.19807425824E+02 -0.33146051744E+02  0.12643892123E+03  0.13220361442E+03  0.00000000000E+00 0.  1.
         12    1    3    3    0    0  0.39139000433E+01  0.24212695550E+02  0.74246171022E+01  0.25626122970E+02  0.00000000000E+00 0. -1.
        -13    1    4    4    0    0 -0.21059317323E+02  0.12144792904E+02  0.96674756407E+02  0.99684499132E+02  0.00000000000E+00 0. -1.
         13    1    4    4    0    0  0.29095938488E+02  0.82762949881E+01 -0.51807718751E+01  0.30690570090E+02  0.00000000000E+00 0.  1.
          1    1    1    2  501    0 -0.31757947032E+02 -0.11487731698E+02  0.10583790823E+03  0.11109544544E+03  0.00000000000E+00 0. -1.
<scales pt_clust_5="13000.00000" pt_clust_6="13000.00000" pt_clust_7="13000.00000" pt_clust_8="13000.00000" pt_clust_9="33.77183"></scales>
<clustering>
<clus scale="   33.772">  2  9  1 -1</clus>
<clus scale="   79.676">  5  6 -1 -1</clus>
<clus scale="   81.611">  1  5  2 -1</clus>
<clus scale="   90.249">  7  8 -1 -1</clus>
<clus scale="   33.772">  2  5  1 -1</clus>
</clustering>
</event>
<event>
 9    2  0.4883225E-005  0.1210830E+03  0.7546771E-02  0.1244010E+00
         -3   -1    0    0    0  501 -0.00000000000E+00  0.00000000000E+00  0.64386222865E+02  0.64386222865E+02  0.00000000000E+00 0.  1.
         21   -1    0    0  501  502  0.00000000000E+00 -0.00000000000E+00 -0.48153369326E+03  0.48153369326E+03  0.00000000000E+00 0.  1.
         23    2    1    2    0    0  0.94979348818E+02 -0.10914956470E+02 -0.80245034622E+02  0.15383032396E+03  0.89912679920E+02 0.  0.
         24    2    1    2    0    0 -0.34635904877E+02  0.56354995166E+02 -0.27563296734E+03  0.29482666961E+03  0.81078363580E+02 0.  0.
        -13    1    4    4    0    0 -0.48395365858E+02  0.69776637424E+02 -0.23513400189E+03  0.24999777882E+03  0.00000000000E+00 0.  1.
         14    1    4    4    0    0  0.13759460981E+02 -0.13421642258E+02 -0.40498965443E+02  0.44828890789E+02  0.00000000000E+00 0. -1.
        -13    1    3    3    0    0  0.53927418438E+02  0.24881637847E+02 -0.32001879621E+01  0.59476916231E+02  0.00000000000E+00 0. -1.
         13    1    3    3    0    0  0.41051930380E+02 -0.35796594317E+02 -0.77044846660E+02  0.94353407726E+02  0.00000000000E+00 0.  1.
         -4    1    1    2    0  502 -0.60343443941E+02 -0.45440038696E+02 -0.61269468439E+02  0.97262922567E+02  0.00000000000E+00 0.  1.
<scales pt_clust_5="13000.00000" pt_clust_6="13000.00000" pt_clust_7="13000.00000" pt_clust_8="13000.00000" pt_clust_9="75.53896"></scales>
<clustering>
<clus scale="   75.539">  2  9  1 -1</clus>
<clus scale="   81.078">  5  6 -1 -1</clus>
<clus scale="   89.913">  7  8 -1 -1</clus>
<clus scale="  114.676">  2  5  1 -1</clus>
<clus scale="   75.539">  2  5  1 -1</clus>
</clustering>
</event>
<event>
 9    2  0.4883225E-005  0.9108481E+02  0.7546771E-02  0.1307149E+00
         21   -1    0    0  501  502  0.00000000000E+00  0.00000000000E+00  0.16336084544E+03  0.16336084544E+03  0.00000000000E+00 0.  1.
          2   -1    0    0  502    0 -0.00000000000E+00 -0.00000000000E+00 -0.61559773853E+02  0.61559773853E+02  0.00000000000E+00 0. -1.
         24    2    1    2    0    0 -0.56406593841E+01  0.33662638858E+01  0.14995631074E+02  0.81890303072E+02  0.80237173524E+02 0.  0.
         23    2    1    2    0    0 -0.14446929439E+02  0.20141146882E+01  0.76482388123E+02  0.11981340194E+03  0.91065499297E+02 0.  0.
        -13    1    3    3    0    0  0.28447554651E+02  0.20681129693E+02 -0.95644675536E+01  0.36447929030E+02  0.00000000000E+00 0.  1.
         14    1    3    3    0    0 -0.34088214035E+02 -0.17314865807E+02  0.24560098627E+02  0.45442374042E+02  0.00000000000E+00 0. -1.
        -11    1    4    4    0    0 -0.10286735229E+02  0.46266655882E+02  0.44904638777E+02  0.65290481327E+02  0.00000000000E+00 0.  1.
         11    1    4    4    0    0 -0.41601942096E+01 -0.44252541194E+02  0.31577749346E+02  0.54522920609E+02  0.00000000000E+00 0. -1.
          1    1    1    2  501    0  0.20087588823E+02 -0.53803785740E+01  0.10323052393E+02  0.23216914287E+02  0.00000000000E+00 0. -1.
<scales pt_clust_5="13000.00000" pt_clust_6="13000.00000" pt_clust_7="13000.00000" pt_clust_8="13000.00000" pt_clust_9="20.79568"></scales>
<clustering>
<clus scale="   20.796">  1  9  2 -1</clus>
<clus scale="   80.237">  5  6 -1 -1</clus>
<clus scale="   80.259">  2  5  1 -1</clus>
<clus scale="   91.065">  7  8 -1 -1</clus>
<clus scale="   20.796">  1  5  2 -1</clus>
</clustering>
</event>
<event>
 9    2  0.4883225E-005  0.1206931E+03  0.7546771E-02  0.1244005E+00
         21   -1    0    0  501  502  0.00000000000E+00  0.00000000000E+00  0.59880387228E+02  0.59880387228E+02  0.00000000000E+00 0.  1.
          2   -1    0    0  502    0 -0.00000000000E+00 -0.00000000000E+00 -0.52128745703E+03  0.52128745703E+03  0.00000000000E+00 0. -1.
         23    2    1    2    0    0  0.77730599575E+02  0.51425861352E+02 -0.25512634596E+03  0.28519620856E+03  0.86952628761E+02 0.  0.
         24    2    1    2    0    0 -0.11517580495E+02 -0.89568632443E+02 -0.17683970402E+03  0.21408263442E+03  0.80024364181E+02 0.  0.
        -13    1    4    4    0    0  0.17996935877E+02 -0.84335292210E+02 -0.15361044277E+03  0.17616043637E+03  0.00000000000E+00 0.  1.
         14    1    4    4    0    0 -0.29514516373E+02 -0.52333402326E+01 -0.23229261254E+02  0.37922198052E+02  0.00000000000E+00 0. -1.
        -11    1    3    3    0    0  0.91268370596E+02  0.25141698165E+02 -0.16363224271E+03  0.18904372857E+03  0.00000000000E+00 0. -1.
         11    1    3    3    0    0 -0.13537771020E+02  0.26284163187E+02 -0.91494103246E+02  0.96152479986E+02  0.00000000000E+00 0.  1.
          1    1    1    2  501    0 -0.66213019080E+02  0.38142771091E+02 -0.29441019816E+02  0.81889001276E+02  0.00000000000E+00 0. -1.
<scales pt_clust_5="13000.00000" pt_clust_6="13000.00000" pt_clust_7="13000.00000" pt_clust_8="13000.00000" pt_clust_9="76.41358"></scales>
<clustering>
<clus scale="   76.414">  1  9  2 -1</clus>
<clus scale="   80.024">  5  6 -1 -1</clus>
<clus scale="   86.953">  7  8 -1 -1</clus>
<clus scale="  115.801">  1  5  2 -1</clus>
<clus scale="   76.414">  1  5  2 -1</clus>
</clustering>
</event>
<event>
 9    2  0.4883225E-005  0.1059810E+03  0.7546771E-02  0.1272800E+00
         21   -1    0    0  501  502  0.00000000000E+00  0.00000000000E+00  0.24829397364E+02  0.24829397364E+02  0.00000000000E+00 0.  1.
          2   -1    0    0  502    0 -0.00000000000E+00 -0.00000000000E+00 -0.56995570456E+03  0.56995570456E+03  0.00000000000E+00 0. -1.
         23    2    1    2    0    0 -0.54068407892E+01 -0.38632338194E+02 -0.19747723221E+03  0.22077100178E+03  0.90669104470E+02 0.  0.
         24    2    1    2    0    0  0.80559491858E+01  0.69229289079E+02 -0.24765648581E+03  0.26941147556E+03  0.79945077503E+02 0.  0.
        -13    1    4    4    0    0  0.13605544861E+02  0.79413017523E+02 -0.24443990156E+03  0.25737599670E+03  0.00000000000E+00 0.  1.
         14    1    4    4    0    0 -0.55495956749E+01 -0.10183728444E+02 -0.32165842493E+01  0.12035478861E+02  0.00000000000E+00 0. -1.
        -13    1    3    3    0    0  0.17509852496E+02 -0.62567764371E+02 -0.14185237636E+03  0.15602376983E+03  0.00000000000E+00 0.  1.
         13    1    3    3    0    0 -0.22916693285E+02  0.23935426176E+02 -0.55624855852E+02  0.64747231956E+02  0.00000000000E+00 0. -1.
          1    1    1    2  501    0 -0.26491083965E+01 -0.30596950885E+02 -0.99992589175E+02  0.10460262458E+03  0.00000000000E+00 0. -1.
<scales pt_clust_5="13000.00000" pt_clust_6="13000.00000" pt_clust_7="13000.00000" pt_clust_8="13000.00000" pt_clust_9="30.71143"></scales>
<clustering>
<clus scale="   30.711">  1  9  2 -1</clus>
<clus scale="   79.945">  5  6 -1 -1</clus>
<clus scale="   90.669">  7  8 -1 -1</clus>
<clus scale="   96.966">  1  5  2 -1</clus>
<clus scale="   30.711">  1  5  2 -1</clus>
</clustering>
</event>
<event>
 9    2  0.4883225E-005  0.1351884E+03  0.7546771E-02  0.1223105E+00
          2   -1    0    0  502    0 -0.00000000000E+00  0.00000000000E+00  0.65120835134E+03  0.65120835134E+03  0.00000000000E+00 0. -1.
         21   -1    0    0  501  502  0.00000000000E+00 -0.00000000000E+00 -0.43462870087E+02  0.43462870087E+02  0.00000000000E+00 0.  1.
         24    2    1    2    0    0 -0.58138362043E+02 -0.76568595300E+02  0.41930951854E+03  0.43714235404E+03  0.77654017464E+02 0.  0.
         23    2    1    2    0    0  0.47804455862E+02  0.10389789628E+03  0.15320761873E+03  0.21176079414E+03  0.91049550498E+02 0.  0.
        -13    1    3    3    0    0 -0.34659346445E+02  0.38014496649E+01  0.73649978128E+02  0.81486444233E+02  0.00000000000E+00 0.  1.
         14    1    3    3    0    0 -0.23479015598E+02 -0.80370044965E+02  0.34565954041E+03  0.35565590980E+03  0.00000000000E+00 0. -1.
        -13    1    4    4    0    0  0.39770553204E+02  0.66370413971E+02  0.30460348193E+02  0.83153842755E+02  0.00000000000E+00 0.  1.
         13    1    4    4    0    0  0.80339026575E+01  0.37527482312E+02  0.12274727053E+03  0.12860695138E+03  0.00000000000E+00 0. -1.
          1    1    1    2  501    0  0.10333906181E+02 -0.27329300982E+02  0.35228343991E+02  0.45768073255E+02  0.00000000000E+00 0. -1.
<scales pt_clust_5="13000.00000" pt_clust_6="13000.00000" pt_clust_7="13000.00000" pt_clust_8="13000.00000" pt_clust_9="29.21781"></scales>
<clustering>
<clus scale="   29.218">  2  9  1 -1</clus>
<clus scale="   77.654">  5  6 -1 -1</clus>
<clus scale="   91.050">  7  8 -1 -1</clus>
<clus scale="  126.554">  1  5  2 -1</clus>
<clus scale="   29.218">  2  5  1 -1</clus>
</clustering>
</event>
<event>
 9    2  0.4883225E-005  0.1344639E+03  0.7546771E-02  0.1222829E+00
         21   -1    0    0  501  502  0.00000000000E+00  0.00000000000E+00  0.43126718818E+03  0.43126718818E+03  0.00000000000E+00 0.  1.
         -1   -1    0    0    0  501 -0.00000000000E+00 -0.00000000000E+00 -0.37833555829E+03  0.37833555829E+03  0.00000000000E+00 0.  1.
         24    2    1    2    0    0 -0.25611900924E+02 -0.92840134790E+02 -0.30298533957E+03  0.32793833338E+03  0.80424961358E+02 0.  0.
         23    2    1    2    0    0  0.29287012115E+02  0.15273440051E+03  0.74266357570E+02  0.19369237157E+03  0.88406542523E+02 0.  0.
        -11    1    3    3    0    0 -0.50610404469E+02 -0.41941181404E+02 -0.12636524757E+03  0.14243823760E+03  0.00000000000E+00 0.  1.
         12    1    3    3    0    0  0.24998503545E+02 -0.50898953386E+02 -0.17662009200E+03  0.18550009578E+03  0.00000000000E+00 0. -1.
        -13    1    4    4    0    0  0.55211249112E+02  0.13895510736E+03  0.61385452734E+02  0.16163222976E+03  0.00000000000E+00 0.  1.
         13    1    4    4    0    0 -0.25924236997E+02  0.13779293149E+02  0.12880904836E+02  0.32060141812E+02  0.00000000000E+00 0. -1.
         -2    1    1    2    0  502 -0.36751111910E+01 -0.59894265722E+02  0.28165061190E+03  0.28797204151E+03  0.00000000000E+00 0.  1.
<scales pt_clust_5="13000.00000" pt_clust_6="13000.00000" pt_clust_7="13000.00000" pt_clust_8="13000.00000" pt_clust_9="60.00691"></scales>
<clustering>
<clus scale="   60.007">  1  9  2 -1</clus>
<clus scale="   80.425">  5  6 -1 -1</clus>
<clus scale="   88.407">  7  8 -1 -1</clus>
<clus scale="  129.356">  2  5  1 -1</clus>
<clus scale="   60.007">  1  5  2 -1</clus>
</clustering>
</event>
<event>
 9    2  0.4883225E-005  0.1741512E+03  0.7546771E-02  0.1175262E+00
         21   -1    0    0  501  502  0.00000000000E+00  0.00000000000E+00  0.27460569322E+03  0.27460569322E+03  0.00000000000E+00 0. -1.
          2   -1    0    0  502    0 -0.00000000000E+00 -0.00000000000E+00 -0.16896673731E+03  0.16896673731E+03  0.00000000000E+00 0. -1.
         23    2    1    2    0    0  0.16195422456E+03 -0.38354017920E+02 -0.41448672073E+02  0.19418991295E+03  0.91057829608E+02 0.  0.
         24    2    1    2    0    0 -0.12052281860E+03  0.28755633223E+01  0.85355314245E+02  0.16700436089E+03  0.77916033133E+02 0.  0.
        -13    1    4    4    0    0 -0.73111810566E+02  0.10200674737E+02  0.57276411510E+01  0.74041856288E+02  0.00000000000E+00 0.  1.
         14    1    4    4    0    0 -0.47411008037E+02 -0.73251114144E+01  0.79627673094E+02  0.92962504607E+02  0.00000000000E+00 0. -1.
        -11    1    3    3    0    0  0.89790046868E+02 -0.34876679205E+00  0.20098949246E+02  0.92012726922E+02  0.00000000000E+00 0. -1.
         11    1    3    3    0    0  0.72164177687E+02 -0.38005251128E+02 -0.61547621319E+02  0.10217718603E+03  0.00000000000E+00 0.  1.
          1    1    1    2  501    0 -0.41431405952E+02  0.35478454598E+02  0.61732313740E+02  0.82378156689E+02  0.00000000000E+00 0. -1.
<scales pt_clust_5="13000.00000" pt_clust_6="13000.00000" pt_clust_7="13000.00000" pt_clust_8="13000.00000" pt_clust_9="54.54615"></scales>
<clustering>
<clus scale="   54.546">  1  9  2 -1</clus>
<clus scale="   77.916">  5  6 -1 -1</clus>
<clus scale="   91.058">  7  8 -1 -1</clus>
<clus scale="  167.654">  1  5  2 -1</clus>
<clus scale="   54.546">  1  5  2 -1</clus>
</clustering>
</event>
<event>
 9    2  0.4883225E-005  0.1660577E+03  0.7546771E-02  0.1184236E+00
          2   -1    0    0  502    0 -0.00000000000E+00  0.00000000000E+00  0.41870889829E+03  0.41870889829E+03  0.00000000000E+00 0. -1.
         21   -1    0    0  501  502  0.00000000000E+00 -0.00000000000E+00 -0.10575964876E+03  0.10575964876E+03  0.00000000000E+00 0. -1.
         23    2    1    2    0    0 -0.13791049090E+03 -0.32362892227E+02  0.31139884597E+03  0.35470836730E+03  0.93712988811E+02 0.  0.
         24    2    1    2    0    0  0.12065492305E+03  0.15975870207E+02 -0.53008827313E+01  0.14499671399E+03  0.78632746507E+02 0.  0.
        -13    1    4    4    0    0  0.98816563106E+02  0.11558780082E+02  0.29413639602E+02  0.10374719628E+03  0.00000000000E+00 0.  1.
         14    1    4    4    0    0  0.21838359949E+02  0.44170901255E+01 -0.34714522333E+02  0.41249517709E+02  0.00000000000E+00 0. -1.
        -11    1    3    3    0    0 -0.13078003692E+03 -0.58006695103E+01  0.29486588235E+03  0.32261889963E+03  0.00000000000E+00 0. -1.
         11    1    3    3    0    0 -0.71304539802E+01 -0.26562222717E+02  0.16532963614E+02  0.32089467672E+02  0.00000000000E+00 0.  1.
          1    1    1    2  501    0  0.17255567846E+02  0.16387022020E+02  0.68512862984E+01  0.24763465757E+02  0.00000000000E+00 0. -1.
<scales pt_clust_5="13000.00000" pt_clust_6="13000.00000" pt_clust_7="13000.00000" pt_clust_8="13000.00000" pt_clust_9="23.79683"></scales>
<clustering>
<clus scale="   23.797">  2  9  1 -1</clus>
<clus scale="   78.633">  5  6 -1 -1</clus>
<clus scale="   93.713">  7  8 -1 -1</clus>
<clus scale="  158.038">  2  5  1 -1</clus>
<clus scale="   23.797">  2  5  1 -1</clus>
</clustering>
</event>
<event>
 9    2  0.4883225E-005  0.1057734E+03  0.7546771E-02  0.1273655E+00
         21   -1    0    0  501  502  0.00000000000E+00  0.00000000000E+00  0.85618638463E+02  0.85618638463E+02  0.00000000000E+00 0. -1.
          2   -1    0    0  502    0 -0.00000000000E+00 -0.00000000000E+00 -0.17864747625E+03  0.17864747625E+03  0.00000000000E+00 0. -1.
         24    2    1    2    0    0  0.56775849912E+02 -0.13524407464E+02 -0.79817560923E+02  0.12772586868E+03  0.80849537841E+02 0.  0.
         23    2    1    2    0    0 -0.41885959078E+02 -0.15775389095E+02 -0.14776792590E+02  0.10363678471E+03  0.92298066482E+02 0.  0.
        -11    1    3    3    0    0  0.16079215927E+01 -0.36354362790E+02 -0.14337795720E+02  0.39112625735E+02  0.00000000000E+00 0.  1.
         12    1    3    3    0    0  0.55167928319E+02  0.22829955326E+02 -0.65479765202E+02  0.88613242950E+02  0.00000000000E+00 0. -1.
        -11    1    4    4    0    0 -0.57877189871E+02  0.93233458085E+01  0.16058124085E+02  0.60782869573E+02  0.00000000000E+00 0.  1.
         11    1    4    4    0    0  0.15991230793E+02 -0.25098734903E+02 -0.30834916674E+02  0.42853915134E+02  0.00000000000E+00 0. -1.
          1    1    1    2  501    0 -0.14889890833E+02  0.29299796559E+02  0.15655157243E+01  0.32903461321E+02  0.00000000000E+00 0. -1.
<scales pt_clust_5="13000.00000" pt_clust_6="13000.00000" pt_clust_7="13000.00000" pt_clust_8="13000.00000" pt_clust_9="32.86620"></scales>
<clustering>
<clus scale="   32.866">  1  9  2 -1</clus>
<clus scale="   80.850">  5  6 -1 -1</clus>
<clus scale="   92.298">  7  8 -1 -1</clus>
<clus scale="   95.946">  2  5  1 -1</clus>
<clus scale="   32.866">  1  5  2 -1</clus>
</clustering>
</event>
<event>
 9    2  0.4883225E-005  0.9189221E+02  0.7546771E-02  0.1302007E+00
         21   -1    0    0  501  502  0.00000000000E+00  0.00000000000E+00  0.51140111959E+02  0.51140111959E+02  0.00000000000E+00 0. -1.
          2   -1    0    0  502    0 -0.00000000000E+00 -0.00000000000E+00 -0.25502713393E+03  0.25502713393E+03  0.00000000000E+00 0. -1.
         23    2    1    2    0    0  0.36538751938E+02 -0.13179546279E+02 -0.13212980516E+03  0.16289267897E+03  0.86988267129E+02 0.  0.
         24    2    1    2    0    0 -0.29086651680E+01  0.20790971930E+02 -0.28676804131E+02  0.88094511703E+02  0.80607437934E+02 0.  0.
        -13    1    4    4    0    0  0.10459044551E+02  0.30082280697E+02 -0.51203919037E+02  0.60300717654E+02  0.00000000000E+00 0.  1.
         14    1    4    4    0    0 -0.13367709719E+02 -0.92913087663E+01  0.22527114906E+02  0.27793794050E+02  0.00000000000E+00 0. -1.
        -11    1    3    3    0    0 -0.19004468273E+02  0.92160747674E+01 -0.40542326448E+01  0.21506804755E+02  0.00000000000E+00 0.  1.
         11    1    3    3    0    0  0.55543220211E+02 -0.22395621046E+02 -0.12807557251E+03  0.14138587421E+03  0.00000000000E+00 0. -1.
          1    1    1    2  501    0 -0.33630086770E+02 -0.76114256515E+01 -0.43080412688E+02  0.55180055219E+02  0.00000000000E+00 0. -1.
<scales pt_clust_5="13000.00000" pt_clust_6="13000.00000" pt_clust_7="13000.00000" pt_clust_8="13000.00000" pt_clust_9="34.48069"></scales>
<clustering>
<clus scale="   34.481">  1  9  2 -1</clus>
<clus scale="   80.607">  5  6 -1 -1</clus>
<clus scale="   85.877">  1  5  2 -1</clus>
<clus scale="   86.988">  7  8 -1 -1</clus>
<clus scale="   34.481">  1  5  2 -1</clus>
</clustering>
</event>
<event>
 9    2  0.4883225E-005  0.9823388E+02  0.7546771E-02  0.1288888E+00
         21   -1    0    0  501  502  0.00000000000E+00  0.00000000000E+00  0.68810047005E+02  0.68810047005E+02  0.00000000000E+00 0.  1.
          2   -1    0    0  502    0 -0.00000000000E+00 -0.00000000000E+00 -0.67138112352E+03  0.67138112352E+03  0.00000000000E+00 0. -1.
         24    2    1    2    0    0 -0.43568198622E+02 -0.82660076783E+01 -0.60465871803E+03  0.61146387592E+03  0.79431677844E+02 0.  0.
         23    2    1    2    0    0  0.12252573104E+02 -0.23338306198E+01 -0.15671943673E+02  0.91198267982E+02  0.88971579459E+02 0.  0.
        -13    1    3    3    0    0  0.23004851057E+02 -0.71545971392E+01 -0.13972042512E+03  0.14178225780E+03  0.00000000000E+00 0.  1.
         14    1    3    3    0    0 -0.66573049679E+02 -0.11114105391E+01 -0.46493829291E+03  0.46968161812E+03  0.00000000000E+00 0. -1.
        -11    1    4    4    0    0 -0.35995112429E+02  0.14340838462E+02 -0.53021854218E+01  0.39107811711E+02  0.00000000000E+00 0. -1.
         11    1    4    4    0    0  0.48247685533E+02 -0.16674669082E+02 -0.10369758252E+02  0.52090456271E+02  0.00000000000E+00 0.  1.
          1    1    1    2  501    0  0.31315625518E+02  0.10599838298E+02  0.17759585189E+02  0.37529026628E+02  0.00000000000E+00 0. -1.
<scales pt_clust_5="13000.00000" pt_clust_6="13000.00000" pt_clust_7="13000.00000" pt_clust_8="13000.00000" pt_clust_9="33.06093"></scales>
<clustering>
<clus scale="   33.061">  1  9  2 -1</clus>
<clus scale="   79.432">  5  6 -1 -1</clus>
<clus scale="   88.972">  7  8 -1 -1</clus>
<clus scale="   89.685">  2  5  1 -1</clus>
<clus scale="   33.061">  1  5  2 -1</clus>
</clustering>
</event>
<event>
 9    2  0.4883225E-005  0.1131759E+03  0.7546771E-02  0.1260224E+00
          2   -1    0    0  502    0 -0.00000000000E+00  0.00000000000E+00  0.13466102997E+04  0.13466102997E+04  0.00000000000E+00 0. -1.
         21   -1    0    0  501  502  0.00000000000E+00 -0.00000000000E+00 -0.21174253969E+02  0.21174253969E+02  0.00000000000E+00 0. -1.
         24    2    1    2    0    0  0.41297544846E+02 -0.51369229722E+02  0.10843331599E+04  0.10890958793E+04  0.77505791721E+02 0.  0.
         23    2    1    2    0    0 -0.59651877280E+02  0.34977719279E+02  0.19670718850E+03  0.22792903412E+03  0.92065950705E+02 0.  0.
        -11    1    3    3    0    0  0.36602451469E+02 -0.17605276225E+02  0.19879270889E+03  0.20289954734E+03  0.00000000000E+00 0.  1.
         12    1    3    3    0    0  0.46950933778E+01 -0.33763953497E+02  0.88554045097E+03  0.88619633195E+03  0.00000000000E+00 0. -1.
        -13    1    4    4    0    0 -0.54825379063E+02  0.63158779822E+02  0.16656679960E+03  0.18638495751E+03  0.00000000000E+00 0. -1.
         13    1    4    4    0    0 -0.48264982176E+01 -0.28181060543E+02  0.30140388907E+02  0.41544076616E+02  0.00000000000E+00 0.  1.
          1    1    1    2  501    0  0.18354332434E+02  0.16391510444E+02  0.44395697376E+02  0.50759640259E+02  0.00000000000E+00 0. -1.
<scales pt_clust_5="13000.00000" pt_clust_6="13000.00000" pt_clust_7="13000.00000" pt_clust_8="13000.00000" pt_clust_9="24.60819"></scales>
<clustering>
<clus scale="   24.608">  2  9  1 -1</clus>
<clus scale="   77.506">  5  6 -1 -1</clus>
<clus scale="   92.066">  7  8 -1 -1</clus>
<clus scale="  101.685">  1  5  2 -1</clus>
<clus scale="   24.608">  2  5  1 -1</clus>
</clustering>
</event>
<event>
 9    2  0.4883225E-005  0.1121894E+03  0.7546771E-02  0.1260384E+00
         21   -1    0    0  501  502  0.00000000000E+00  0.00000000000E+00  0.61067264473E+02  0.61067264473E+02  0.00000000000E+00 0.  1.
          4   -1    0    0  502    0 -0.00000000000E+00 -0.00000000000E+00 -0.47078640424E+03  0.47078640424E+03  0.00000000000E+00 0. -1.
         24    2    1    2    0    0  0.43102093757E+02  0.31917803213E+02 -0.20867968042E+03  0.23004249885E+03  0.80596560795E+02 0.  0.
         23    2    1    2    0    0 -0.10115368717E+03 -0.55072330647E+02 -0.83761824390E+02  0.16891962272E+03  0.90844733940E+02 0.  0.
        -13    1    3    3    0    0  0.37259332117E+02  0.49469276692E+02 -0.20044436466E+03  0.20979373320E+03  0.00000000000E+00 0.  1.
         14    1    3    3    0    0  0.58427616407E+01 -0.17551473479E+02 -0.82353157571E+01  0.20248765654E+02  0.00000000000E+00 0. -1.
        -13    1    4    4    0    0 -0.86079427216E+02 -0.79973371843E+02 -0.64811474730E+02  0.13418619620E+03  0.00000000000E+00 0.  1.
         13    1    4    4    0    0 -0.15074259954E+02  0.24901041196E+02 -0.18950349659E+02  0.34733426523E+02  0.00000000000E+00 0. -1.
          3    1    1    2  501    0  0.58051593413E+02  0.23154527434E+02 -0.11727763497E+03  0.13289154714E+03  0.00000000000E+00 0. -1.
<scales pt_clust_5="13000.00000" pt_clust_6="13000.00000" pt_clust_7="13000.00000" pt_clust_8="13000.00000" pt_clust_9="62.49899"></scales>
<clustering>
<clus scale="   62.499">  1  9  2 -1</clus>
<clus scale="   80.597">  5  6 -1 -1</clus>
<clus scale="   90.845">  7  8 -1 -1</clus>
<clus scale="  104.065">  2  5  1 -1</clus>
<clus scale="   62.499">  1  5  2 -1</clus>
</clustering>
</event>
<event>
 9    2  0.4883225E-005  0.1965292E+03  0.7546771E-02  0.1188184E+00
         21   -1    0    0  501  502  0.00000000000E+00  0.00000000000E+00  0.16245779181E+03  0.16245779181E+03  0.00000000000E+00 0. -1.
          2   -1    0    0  502    0 -0.00000000000E+00 -0.00000000000E+00 -0.60257021560E+03  0.60257021560E+03  0.00000000000E+00 0. -1.
         24    2    1    2    0    0  0.66426629724E+01  0.25935793166E+02 -0.17038199443E+03  0.19145642081E+03  0.83118870929E+02 0.  0.
         23    2    1    2    0    0  0.15051574360E+03 -0.89715297040E+02  0.56764880204E+02  0.20565070239E+03  0.91466585006E+02 0.  0.
        -11    1    3    3    0    0  0.22095945202E+02  0.33864582202E+02 -0.16929148941E+03  0.17405358114E+03  0.00000000000E+00 0.  1.
         12    1    3    3    0    0 -0.15453282230E+02 -0.79287890357E+01 -0.10905050205E+01  0.17402839666E+02  0.00000000000E+00 0. -1.
        -11    1    4    4    0    0  0.11096917714E+03 -0.78337363364E+02  0.36539391457E+00  0.13583458428E+03  0.00000000000E+00 0. -1.
         11    1    4    4    0    0  0.39546566461E+02 -0.11377933676E+02  0.56399486290E+02  0.69816118106E+02  0.00000000000E+00 0.  1.
          1    1    1    2  501    0 -0.15715840658E+03  0.63779503874E+02 -0.32649530957E+03  0.36792088421E+03  0.00000000000E+00 0. -1.
<scales pt_clust_5="13000.00000" pt_clust_6="13000.00000" pt_clust_7="13000.00000" pt_clust_8="13000.00000" pt_clust_9="173.94719"></scales>
<clustering>
<clus scale="   83.119">  5  6 -1 -1</clus>
<clus scale="   87.324">  2  5  1 -1</clus>
<clus scale="   91.467">  7  8 -1 -1</clus>
<clus scale="  173.947">  1  9  2 -1</clus>
<clus scale="  173.947">  1  5  2 -1</clus>
</clustering>
</event>
<event>
 9    2  0.4883225E-005  0.1470350E+03  0.7546771E-02  0.1230658E+00
         21   -1    0    0  501  502  0.00000000000E+00  0.00000000000E+00  0.51715067146E+03  0.51715067146E+03  0.00000000000E+00 0.  1.
          2   -1    0    0  502    0 -0.00000000000E+00 -0.00000000000E+00 -0.12349908812E+03  0.12349908812E+03  0.00000000000E+00 0. -1.
         24    2    1    2    0    0 -0.19132183277E+02  0.24199766862E+02 -0.45690135966E+02  0.95701788427E+02  0.78227710118E+02 0.  0.
         23    2    1    2    0    0 -0.11052092181E+03 -0.14798255907E+02  0.37144367037E+03  0.39829033885E+03  0.90724479744E+02 0.  0.
        -11    1    3    3    0    0 -0.10348148650E+02 -0.24240449298E+02 -0.37437249469E+02  0.45784617618E+02  0.00000000000E+00 0.  1.
         12    1    3    3    0    0 -0.87840346264E+01  0.48440216161E+02 -0.82528864974E+01  0.49917170809E+02  0.00000000000E+00 0. -1.
        -11    1    4    4    0    0 -0.29115630056E+02 -0.46513935785E+02  0.11612343513E+03  0.12843643689E+03  0.00000000000E+00 0.  1.
         11    1    4    4    0    0 -0.81405291754E+02  0.31715679878E+02  0.25532023524E+03  0.26985390195E+03  0.00000000000E+00 0. -1.
          1    1    1    2  501    0  0.12965310509E+03 -0.94015109557E+01  0.67898048933E+02  0.14665763231E+03  0.00000000000E+00 0. -1.
<scales pt_clust_5="13000.00000" pt_clust_6="13000.00000" pt_clust_7="13000.00000" pt_clust_8="13000.00000" pt_clust_9="115.70816"></scales>
<clustering>
<clus scale="   78.228">  5  6 -1 -1</clus>
<clus scale="   84.091">  2  5  1 -1</clus>
<clus scale="   90.724">  7  8 -1 -1</clus>
<clus scale="  115.708">  1  9  2 -1</clus>
<clus scale="  115.708">  1  5  2 -1</clus>
</clustering>
</event>
<event>
 9    2  0.4883225E-005  0.1549779E+03  0.7546771E-02  0.1196238E+00
         21   -1    0    0  501  502  0.00000000000E+00  0.00000000000E+00  0.85418924899E+02  0.85418924899E+02  0.00000000000E+00 0.  1.
          2   -1    0    0  502    0 -0.00000000000E+00 -0.00000000000E+00 -0.65463649894E+03  0.65463649894E+03  0.00000000000E+00 0. -1.
         23    2    1    2    0    0  0.33337977332E+01 -0.12793411101E+03 -0.52356052194E+03  0.54655888348E+03  0.90734458733E+02 0.  0.
         24    2    1    2    0    0 -0.20707985594E+02  0.11596270633E+03 -0.71998450329E+02  0.15974678192E+03  0.80368448762E+02 0.  0.
        -13    1    4    4    0    0 -0.36019300304E+02  0.12117757990E+03 -0.64402540664E+02  0.14187699993E+03  0.00000000000E+00 0.  1.
         14    1    4    4    0    0  0.15311314710E+02 -0.52148735750E+01 -0.75959096652E+01  0.17869781985E+02  0.00000000000E+00 0. -1.
        -11    1    3    3    0    0 -0.17278432496E+02 -0.13118710211E+03 -0.40190673439E+03  0.42312837666E+03  0.00000000000E+00 0. -1.
         11    1    3    3    0    0  0.20612230229E+02  0.32529910977E+01 -0.12165378755E+03  0.12343050681E+03  0.00000000000E+00 0.  1.
          1    1    1    2  501    0  0.17374187861E+02  0.11971404687E+02  0.26341398235E+02  0.33749758443E+02  0.00000000000E+00 0. -1.
<scales pt_clust_5="13000.00000" pt_clust_6="13000.00000" pt_clust_7="13000.00000" pt_clust_8="13000.00000" pt_clust_9="21.09922"></scales>
<clustering>
<clus scale="   21.099">  1  9  2 -1</clus>
<clus scale="   80.368">  5  6 -1 -1</clus>
<clus scale="   90.734">  7  8 -1 -1</clus>
<clus scale="  149.146">  1  5  2 -1</clus>
<clus scale="   21.099">  1  5  2 -1</clus>
</clustering>
</event>
<event>
 9    2  0.4883225E-005  0.1347681E+03  0.7546771E-02  0.1238733E+00
         -3   -1    0    0    0  501 -0.00000000000E+00  0.00000000000E+00  0.51568800781E+03  0.51568800781E+03  0.00000000000E+00 0.  1.
         21   -1    0    0  501  502  0.00000000000E+00 -0.00000000000E+00 -0.13806137536E+03  0.13806137536E+03  0.00000000000E+00 0.  1.
         24    2    1    2    0    0 -0.28243939250E+02 -0.47147766718E+02  0.39499487124E+03  0.40569379852E+03  0.74470650853E+02 0.  0.
         23    2    1    2    0    0 -0.74251978967E+02  0.75188783095E+02 -0.31422720249E+02  0.14086771080E+03  0.87690450533E+02 0.  0.
        -11    1    3    3    0    0  0.19465036784E+02 -0.39230375007E+02  0.20660925705E+03  0.21119965691E+03  0.00000000000E+00 0.  1.
         12    1    3    3    0    0 -0.47708976034E+02 -0.79173917105E+01  0.18838561419E+03  0.19449414161E+03  0.00000000000E+00 0. -1.
        -13    1    4    4    0    0 -0.56061930579E+02  0.14745746151E+02 -0.48384241194E+02  0.75507694216E+02  0.00000000000E+00 0.  1.
         13    1    4    4    0    0 -0.18190048388E+02  0.60443036944E+02  0.16961520946E+02  0.65360016586E+02  0.00000000000E+00 0. -1.
         -4    1    1    2    0  502  0.10249591822E+03 -0.28041016377E+02  0.14054481457E+02  0.10718787385E+03  0.00000000000E+00 0.  1.
<scales pt_clust_5="13000.00000" pt_clust_6="13000.00000" pt_clust_7="13000.00000" pt_clust_8="13000.00000" pt_clust_9="102.33690"></scales>
<clustering>
<clus scale="   74.471">  5  6 -1 -1</clus>
<clus scale="   87.690">  7  8 -1 -1</clus>
<clus scale="   92.555">  1  5  2 -1</clus>
<clus scale="  102.337">  2  9  1 -1</clus>
<clus scale="  102.337">  2  5  1 -1</clus>
</clustering>
</event>
<event>
 9    2  0.4883225E-005  0.1082134E+03  0.7546771E-02  0.1268787E+00
         21   -1    0    0  501  502  0.00000000000E+00  0.00000000000E+00  0.11482594862E+03  0.11482594862E+03  0.00000000000E+00 0. -1.
          2   -1    0    0  502    0 -0.00000000000E+00 -0.00000000000E+00 -0.68400720387E+03  0.68400720387E+03  0.00000000000E+00 0. -1.
         24    2    1    2    0    0  0.94715598532E+01 -0.57591999529E+02 -0.62292688665E+03  0.63069357414E+03  0.79560854070E+02 0.  0.
         23    2    1    2    0    0  0.15253147697E+02  0.49577014611E+02  0.79332219395E+02  0.13166733367E+03  0.91390080583E+02 0.  0.
        -11    1    3    3    0    0  0.34804878170E+02 -0.20809055238E+01 -0.15947759436E+03  0.16324464100E+03  0.00000000000E+00 0.  1.
         12    1    3    3    0    0 -0.25333318317E+02 -0.55511094005E+02 -0.46344929229E+03  0.46744893315E+03  0.00000000000E+00 0. -1.
        -11    1    4    4    0    0 -0.29293662265E+02  0.52439843201E+02  0.50990140541E+02  0.78791181209E+02  0.00000000000E+00 0.  1.
         11    1    4    4    0    0  0.44546809961E+02 -0.28628285902E+01  0.28342078855E+02  0.52876152461E+02  0.00000000000E+00 0. -1.
          1    1    1    2  501    0 -0.24724707550E+02  0.80149849176E+01 -0.25586587998E+02  0.36472244680E+02  0.00000000000E+00 0. -1.
<scales pt_clust_5="13000.00000" pt_clust_6="13000.00000" pt_clust_7="13000.00000" pt_clust_8="13000.00000" pt_clust_9="25.99137"></scales>
<clustering>
<clus scale="   25.991">  1  9  2 -1</clus>
<clus scale="   79.561">  5  6 -1 -1</clus>
<clus scale="   91.390">  7  8 -1 -1</clus>
<clus scale="   98.427">  2  5  1 -1</clus>
<clus scale="   25.991">  1  5  2 -1</clus>
</clustering>
</event>
<event>
 9    2  0.4883225E-005  0.1747616E+03  0.7546771E-02  0.1174331E+00
         21   -1    0    0  501  502  0.00000000000E+00  0.00000000000E+00  0.68085917105E+03  0.68085917105E+03  0.00000000000E+00 0. -1.
          4   -1    0    0  502    0 -0.00000000000E+00 -0.00000000000E+00 -0.69945090904E+02  0.69945090904E+02  0.00000000000E+00 0. -1.
         23    2    1    2    0    0 -0.12153076309E+03 -0.96818027583E+02  0.19842990889E+03  0.26809011055E+03  0.91402526180E+02 0.  0.
         24    2    1    2    0    0  0.13983726048E+03  0.39668157814E+02  0.37927663132E+03  0.41412861233E+03  0.80769563069E+02 0.  0.
        -13    1    4    4    0    0  0.27354257963E+02  0.43531930660E+02  0.15298657527E+03  0.16139447521E+03  0.00000000000E+00 0.  1.
         14    1    4    4    0    0  0.11248300252E+03 -0.38637728461E+01  0.22629005605E+03  0.25273413712E+03  0.00000000000E+00 0. -1.
        -13    1    3    3    0    0 -0.41130793932E+02  0.39182337850E+01  0.15104075506E+02  0.43991224833E+02  0.00000000000E+00 0.  1.
         13    1    3    3    0    0 -0.80399969161E+02 -0.10073626137E+03  0.18332583338E+03  0.22409888572E+03  0.00000000000E+00 0. -1.
          3    1    1    2  501    0 -0.18306497391E+02  0.57149869769E+02  0.33207539935E+02  0.68585539072E+02  0.00000000000E+00 0. -1.
<scales pt_clust_5="13000.00000" pt_clust_6="13000.00000" pt_clust_7="13000.00000" pt_clust_8="13000.00000" pt_clust_9="60.01032"></scales>
<clustering>
<clus scale="   60.010">  1  9  2 -1</clus>
<clus scale="   80.770">  5  6 -1 -1</clus>
<clus scale="   91.403">  7  8 -1 -1</clus>
<clus scale="  169.443">  1  5  2 -1</clus>
<clus scale="   60.010">  1  5  2 -1</clus>
</clustering>
</event>
<event>
 9    2  0.4883225E-005  0.2244352E+03  0.7546771E-02  0.1130619E+00
         -1   -1    0    0    0  501 -0.00000000000E+00  0.00000000000E+00  0.82762523683E+02  0.82762523683E+02  0.00000000000E+00 0.  1.
         21   -1    0    0  501  502  0.00000000000E+00 -0.00000000000E+00 -0.36499002050E+03  0.36499002050E+03  0.00000000000E+00 0.  1.
         24    2    1    2    0    0 -0.95280539293E+02 -0.15793011868E+02 -0.98236135589E+02  0.16329792957E+03  0.87681668971E+02 0.  0.
         23    2    1    2    0    0 -0.20861512458E+02 -0.45350316149E+01 -0.48524916310E+02  0.10486240088E+03  0.90474783234E+02 0.  0.
        -11    1    3    3    0    0 -0.46575519128E+02  0.35986069921E+02 -0.51646000758E+02  0.78304441794E+02  0.00000000000E+00 0.  1.
         12    1    3    3    0    0 -0.48705020165E+02 -0.51779081789E+02 -0.46590134831E+02  0.84993487773E+02  0.00000000000E+00 0. -1.
        -13    1    4    4    0    0 -0.92214586378E+01 -0.47087248625E+02 -0.32380348815E+02  0.57885501396E+02  0.00000000000E+00 0.  1.
         13    1    4    4    0    0 -0.11640053820E+02  0.42552217010E+02 -0.16144567495E+02  0.46976899482E+02  0.00000000000E+00 0. -1.
         -2    1    1    2    0  502  0.11614205175E+03  0.20328043483E+02 -0.13546644492E+03  0.17959221374E+03  0.00000000000E+00 0.  1.
<scales pt_clust_5="13000.00000" pt_clust_6="13000.00000" pt_clust_7="13000.00000" pt_clust_8="13000.00000" pt_clust_9="117.90761"></scales>
<clustering>
<clus scale="   87.682">  5  6 -1 -1</clus>
<clus scale="   90.475">  7  8 -1 -1</clus>
<clus scale="   92.444">  5  7 -1 -1</clus>
<clus scale="  117.908">  2  9  1 -1</clus>
<clus scale="  117.908">  2  5  1 -1</clus>
</clustering>
</event>
<event>
 9    2  0.4883225E-005  0.1485852E+03  0.7546771E-02  0.1211888E+00
         21   -1    0    0  501  502  0.00000000000E+00  0.00000000000E+00  0.13054991900E+03  0.13054991900E+03  0.00000000000E+00 0. -1.
          2   -1    0    0  502    0 -0.00000000000E+00 -0.00000000000E+00 -0.54715195413E+03  0.54715195413E+03  0.00000000000E+00 0. -1.
         23    2    1    2    0    0 -0.44378075571E+02  0.62976425680E+02 -0.20514019459E+03  0.23804063116E+03  0.92980637035E+02 0.  0.
         24    2    1    2    0    0  0.84641755285E+02  0.61065606214E+02 -0.26701273065E+03  0.29790973062E+03  0.81001075717E+02 0.  0.
        -13    1    4    4    0    0  0.59875176037E+02  0.49264250015E+01 -0.73652790239E+02  0.95047566400E+02  0.00000000000E+00 0.  1.
         14    1    4    4    0    0  0.24766579249E+02  0.56139181213E+02 -0.19335994041E+03  0.20286216422E+03  0.00000000000E+00 0. -1.
        -13    1    3    3    0    0 -0.58594337619E+02  0.27568629477E+02 -0.61094611187E+02  0.89027396055E+02  0.00000000000E+00 0.  1.
         13    1    3    3    0    0  0.14216262048E+02  0.35407796203E+02 -0.14404558340E+03  0.14901323510E+03  0.00000000000E+00 0. -1.
          1    1    1    2  501    0 -0.40263679715E+02 -0.12404203189E+03  0.55550890112E+02  0.14175151136E+03  0.00000000000E+00 0. -1.
<scales pt_clust_5="13000.00000" pt_clust_6="13000.00000" pt_clust_7="13000.00000" pt_clust_8="13000.00000" pt_clust_9="124.56473"></scales>
<clustering>
<clus scale="   81.001">  5  6 -1 -1</clus>
<clus scale="   92.981">  7  8 -1 -1</clus>
<clus scale="  120.751">  2  7  1 -1</clus>
<clus scale="  124.565">  1  9  2 -1</clus>
<clus scale="  124.565">  1  5  2 -1</clus>
</clustering>
</event>
<event>
 9    2  0.4883225E-005  0.9557844E+02  0.7546771E-02  0.1297335E+00
         -3   -1    0    0    0  501 -0.00000000000E+00  0.00000000000E+00  0.23598300648E+03  0.23598300648E+03  0.00000000000E+00 0.  1.
         21   -1    0    0  501  502  0.00000000000E+00 -0.00000000000E+00 -0.12458461500E+03  0.12458461500E+03  0.00000000000E+00 0. -1.
         23    2    1    2    0    0  0.13662695490E+02 -0.31325323499E+02  0.15518797873E+03  0.18342641304E+03  0.91618748740E+02 0.  0.
         24    2    1    2    0    0 -0.12774726339E+02  0.10475588756E+02  0.40747378000E+02  0.90066536906E+02  0.78604711459E+02 0.  0.
        -11    1    4    4    0    0 -0.21640056882E+02  0.41363378450E+02  0.15461072644E+02  0.49175867110E+02  0.00000000000E+00 0.  1.
         12    1    4    4    0    0  0.88653305434E+01 -0.30887789694E+02  0.25286305357E+02  0.40890669797E+02  0.00000000000E+00 0. -1.
        -11    1    3    3    0    0  0.39071159587E+02 -0.46188343606E+02  0.66119774745E+02  0.89619993355E+02  0.00000000000E+00 0. -1.
         11    1    3    3    0    0 -0.25408464097E+02  0.14863020107E+02  0.89068203981E+02  0.93806419689E+02  0.00000000000E+00 0.  1.
         -4    1    1    2    0  502 -0.88796915067E+00  0.20849734743E+02 -0.84536965250E+02  0.87074671528E+02  0.00000000000E+00 0.  1.
<scales pt_clust_5="13000.00000" pt_clust_6="13000.00000" pt_clust_7="13000.00000" pt_clust_8="13000.00000" pt_clust_9="20.86864"></scales>
<clustering>
<clus scale="   20.869">  2  9  1 -1</clus>
<clus scale="   78.605">  5  6 -1 -1</clus>
<clus scale="   83.186">  2  5  1 -1</clus>
<clus scale="   91.619">  7  8 -1 -1</clus>
<clus scale="   20.869">  2  5  1 -1</clus>
</clustering>
</event>
<event>
 9    2  0.4883225E-005  0.9551427E+02  0.7546771E-02  0.1296214E+00
         21   -1    0    0  501  502  0.00000000000E+00  0.00000000000E+00  0.25960270272E+02  0.25960270272E+02  0.00000000000E+00 0.  1.
          2   -1    0    0  502    0 -0.00000000000E+00 -0.00000000000E+00 -0.88419451399E+03  0.88419451399E+03  0.00000000000E+00 0. -1.
         24    2    1    2    0    0  0.15720262661E+01 -0.30292847261E+02 -0.69316969738E+03  0.69854186618E+03  0.80971486166E+02 0.  0.
         23    2    1    2    0    0 -0.20927448606E+02 -0.24008272863E+01 -0.11245958078E+03  0.14672230913E+03  0.91850730050E+02 0.  0.
        -13    1    3    3    0    0 -0.34090681089E+02 -0.23196315063E+02 -0.21025541427E+03  0.21426054887E+03  0.00000000000E+00 0.  1.
         14    1    3    3    0    0  0.35662707355E+02 -0.70965321979E+01 -0.48291428311E+03  0.48428131731E+03  0.00000000000E+00 0. -1.
        -11    1    4    4    0    0 -0.10295205849E+02 -0.47131706068E+02 -0.58893824759E+02  0.76130621797E+02  0.00000000000E+00 0.  1.
         11    1    4    4    0    0 -0.10632242758E+02  0.44730878782E+02 -0.53565756018E+02  0.70591687332E+02  0.00000000000E+00 0. -1.
          1    1    1    2  501    0  0.19355422340E+02  0.32693674547E+02 -0.52604965564E+02  0.64890608961E+02  0.00000000000E+00 0. -1.
<scales pt_clust_5="13000.00000" pt_clust_6="13000.00000" pt_clust_7="13000.00000" pt_clust_8="13000.00000" pt_clust_9="37.99354"></scales>
<clustering>
<clus scale="   37.994">  1  9  2 -1</clus>
<clus scale="   80.971">  5  6 -1 -1</clus>
<clus scale="   85.105">  2  5  1 -1</clus>
<clus scale="   91.851">  7  8 -1 -1</clus>
<clus scale="   37.994">  1  5  2 -1</clus>
</clustering>
</event>
<event>
 9    2  0.4883225E-005  0.1289006E+03  0.7546771E-02  0.1240925E+00
          2   -1    0    0  502    0 -0.00000000000E+00  0.00000000000E+00  0.32468064197E+03  0.32468064197E+03  0.00000000000E+00 0. -1.
         21   -1    0    0  501  502  0.00000000000E+00 -0.00000000000E+00 -0.91655776413E+02  0.91655776413E+02  0.00000000000E+00 0. -1.
         24    2    1    2    0    0  0.61889487116E+02 -0.29075443390E+01  0.12835929952E+03  0.16343707353E+03  0.79980027526E+02 0.  0.
         23    2    1    2    0    0  0.27553559482E+02 -0.58913478983E+02  0.88804944178E+02  0.14302006183E+03  0.91314967725E+02 0.  0.
        -13    1    3    3    0    0  0.51544216053E+02 -0.37574498292E+02  0.93593900475E+02  0.11326282416E+03  0.00000000000E+00 0.  1.
         14    1    3    3    0    0  0.10345271063E+02  0.34666953952E+02  0.34765399041E+02  0.50174249373E+02  0.00000000000E+00 0. -1.
        -11    1    4    4    0    0  0.97548676697E+01  0.21573191688E+02  0.27178769141E+01  0.23831636490E+02  0.00000000000E+00 0.  1.
         11    1    4    4    0    0  0.17798691813E+02 -0.80486670671E+02  0.86087067264E+02  0.11918842534E+03  0.00000000000E+00 0. -1.
          1    1    1    2  501    0 -0.89443046598E+02  0.61821023322E+02  0.15860621858E+02  0.10987928301E+03  0.00000000000E+00 0. -1.
<scales pt_clust_5="13000.00000" pt_clust_6="13000.00000" pt_clust_7="13000.00000" pt_clust_8="13000.00000" pt_clust_9="90.97771"></scales>
<clustering>
<clus scale="   79.980">  5  6 -1 -1</clus>
<clus scale="   91.315">  7  8 -1 -1</clus>
<clus scale="  101.171">  1  5  2 -1</clus>
<clus scale="   90.978">  2  9  1 -1</clus>
<clus scale="   90.978">  2  5  1 -1</clus>
</clustering>
</event>
<event>
 9    2  0.4883225E-005  0.1015736E+03  0.7546771E-02  0.1281679E+00
          2   -1    0    0  502    0 -0.00000000000E+00  0.00000000000E+00  0.81492432895E+03  0.81492432895E+03  0.00000000000E+00 0. -1.
         21   -1    0    0  501  502  0.00000000000E+00 -0.00000000000E+00 -0.23627084809E+02  0.23627084809E+02  0.00000000000E+00 0. -1.
         23    2    1    2    0    0 -0.27243820281E+02  0.17323506788E+02  0.44669864029E+03  0.45746205022E+03  0.93217608448E+02 0.  0.
         24    2    1    2    0    0  0.58715993151E+02  0.85860124553E+01  0.31333879579E+03  0.32971839457E+03  0.83736081305E+02 0.  0.
        -11    1    4    4    0    0  0.52789444457E+02 -0.30077555290E+02  0.15170592283E+03  0.16341992474E+03  0.00000000000E+00 0.  1.
         12    1    4    4    0    0  0.59265486937E+01  0.38663567745E+02  0.16163287295E+03  0.16629846984E+03  0.00000000000E+00 0. -1.
        -11    1    3    3    0    0  0.27779098637E+02  0.30258675052E+02  0.15586325759E+03  0.16118505143E+03  0.00000000000E+00 0.  1.
         11    1    3    3    0    0 -0.55022918918E+02 -0.12935168264E+02  0.29083538270E+03  0.29627699879E+03  0.00000000000E+00 0. -1.
          1    1    1    2  501    0 -0.31472172870E+02 -0.25909519243E+02  0.31259808072E+02  0.51370968973E+02  0.00000000000E+00 0. -1.
<scales pt_clust_5="13000.00000" pt_clust_6="13000.00000" pt_clust_7="13000.00000" pt_clust_8="13000.00000" pt_clust_9="40.76519"></scales>
<clustering>
<clus scale="   40.765">  2  9  1 -1</clus>
<clus scale="   83.736">  5  6 -1 -1</clus>
<clus scale="   92.948">  2  5  1 -1</clus>
<clus scale="   93.218">  7  8 -1 -1</clus>
<clus scale="   40.765">  2  5  1 -1</clus>
</clustering>
</event>
<event>
 9    2  0.4883225E-005  0.9429191E+02  0.7546771E-02  0.1299143E+00
         21   -1    0    0  501  502  0.00000000000E+00  0.00000000000E+00  0.19198838589E+02  0.19198838589E+02  0.00000000000E+00 0. -1.
          2   -1    0    0  502    0 -0.00000000000E+00 -0.00000000000E+00 -0.83272692147E+03  0.83272692147E+03  0.00000000000E+00 0. -1.
         24    2    1    2    0    0  0.11025857245E+02  0.12534803766E+02 -0.40404702564E+03  0.41239983383E+03  0.80876035920E+02 0.  0.
         23    2    1    2    0    0  0.29846316702E+02 -0.45616081604E+02 -0.25854716178E+03  0.27969493315E+03  0.91711456457E+02 0.  0.
        -11    1    3    3    0    0  0.42893085099E+02  0.22457836404E+02 -0.26640748021E+03  0.27077133651E+03  0.00000000000E+00 0.  1.
         12    1    3    3    0    0 -0.31867227854E+02 -0.99230326389E+01 -0.13763954543E+03  0.14162849733E+03  0.00000000000E+00 0. -1.
        -11    1    4    4    0    0 -0.21953344932E+02  0.10974470128E+02 -0.10768206342E+03  0.11044371929E+03  0.00000000000E+00 0.  1.
         11    1    4    4    0    0  0.51799661635E+02 -0.56590551732E+02 -0.15086509835E+03  0.16925121386E+03  0.00000000000E+00 0. -1.
          1    1    1    2  501    0 -0.40872173948E+02  0.33081277838E+02 -0.15093389547E+03  0.15983099307E+03  0.00000000000E+00 0. -1.
<scales pt_clust_5="13000.00000" pt_clust_6="13000.00000" pt_clust_7="13000.00000" pt_clust_8="13000.00000" pt_clust_9="52.58237"></scales>
<clustering>
<clus scale="   52.582">  1  9  2 -1</clus>
<clus scale="   80.876">  5  6 -1 -1</clus>
<clus scale="   83.791">  2  5  1 -1</clus>
<clus scale="   91.711">  7  8 -1 -1</clus>
<clus scale="   52.582">  1  5  2 -1</clus>
</clustering>
</event>
<event>
 9    2  0.4883225E-005  0.1730360E+03  0.7546771E-02  0.1176098E+00
          2   -1    0    0  502    0 -0.00000000000E+00  0.00000000000E+00  0.60993324898E+03  0.60993324898E+03  0.00000000000E+00 0. -1.
         21   -1    0    0  501  502  0.00000000000E+00 -0.00000000000E+00 -0.10259816850E+03  0.10259816850E+03  0.00000000000E+00 0. -1.
         24    2    1    2    0    0 -0.94793900798E+02 -0.10303734169E+03  0.29200516125E+03  0.33391339019E+03  0.81415972277E+02 0.  0.
         23    2    1    2    0    0  0.10902391342E+03  0.13317894982E+03  0.38746138028E+02  0.19891593608E+03  0.91888193156E+02 0.  0.
        -13    1    3    3    0    0 -0.11440393083E+02 -0.44784156295E+02  0.36439128871E+02  0.58858417935E+02  0.00000000000E+00 0.  1.
         14    1    3    3    0    0 -0.83353507715E+02 -0.58253185391E+02  0.25556603238E+03  0.27505497226E+03  0.00000000000E+00 0. -1.
        -13    1    4    4    0    0  0.47834806556E+02  0.25183209702E+02  0.50830853168E+02  0.74203358434E+02  0.00000000000E+00 0.  1.
         13    1    4    4    0    0  0.61189106864E+02  0.10799574012E+03 -0.12084715141E+02  0.12471257765E+03  0.00000000000E+00 0. -1.
          1    1    1    2  501    0 -0.14230012622E+02 -0.30141608138E+02  0.17658378120E+03  0.17970209120E+03  0.00000000000E+00 0. -1.
<scales pt_clust_5="13000.00000" pt_clust_6="13000.00000" pt_clust_7="13000.00000" pt_clust_8="13000.00000" pt_clust_9="33.33183"></scales>
<clustering>
<clus scale="   33.332">  2  9  1 -1</clus>
<clus scale="   81.416">  5  6 -1 -1</clus>
<clus scale="   91.888">  7  8 -1 -1</clus>
<clus scale="  167.710">  1  5  2 -1</clus>
<clus scale="   33.332">  2  5  1 -1</clus>
</clustering>
</event>
<event>
 9    2  0.4883225E-005  0.1009030E+03  0.7546771E-02  0.1287010E+00
         21   -1    0    0  501  502  0.00000000000E+00  0.00000000000E+00  0.56583725858E+02  0.56583725858E+02  0.00000000000E+00 0.  1.
          2   -1    0    0  502    0 -0.00000000000E+00 -0.00000000000E+00 -0.25800041052E+03  0.25800041052E+03  0.00000000000E+00 0. -1.
         24    2    1    2    0    0  0.30959360467E+02 -0.12168613236E+02 -0.14448557182E+03  0.16682402330E+03  0.76469713862E+02 0.  0.
         23    2    1    2    0    0 -0.50420561560E+02  0.18221825298E+02 -0.65252198365E+02  0.12574602240E+03  0.93166221412E+02 0.  0.
        -13    1    3    3    0    0  0.11209577927E+02  0.28690650856E+02 -0.27305909055E+02  0.41163342347E+02  0.00000000000E+00 0.  1.
         14    1    3    3    0    0  0.19749782540E+02 -0.40859264092E+02 -0.11717966277E+03  0.12566068096E+03  0.00000000000E+00 0. -1.
        -13    1    4    4    0    0  0.26873241399E+02  0.72939199080E+01 -0.81045352324E+01  0.29000963126E+02  0.00000000000E+00 0. -1.
         13    1    4    4    0    0 -0.77293802958E+02  0.10927905390E+02 -0.57147663133E+02  0.96745059272E+02  0.00000000000E+00 0.  1.
          1    1    1    2  501    0  0.19461201092E+02 -0.60532120623E+01  0.83210855205E+01  0.22014090680E+02  0.00000000000E+00 0. -1.
<scales pt_clust_5="13000.00000" pt_clust_6="13000.00000" pt_clust_7="13000.00000" pt_clust_8="13000.00000" pt_clust_9="20.38087"></scales>
<clustering>
<clus scale="   20.381">  1  9  2 -1</clus>
<clus scale="   76.470">  5  6 -1 -1</clus>
<clus scale="   85.727">  2  5  1 -1</clus>
<clus scale="   93.166">  7  8 -1 -1</clus>
<clus scale="   20.381">  1  5  2 -1</clus>
</clustering>
</event>
<event>
 9    2  0.4883225E-005  0.2323279E+03  0.7546771E-02  0.1169509E+00
          2   -1    0    0  502    0 -0.00000000000E+00  0.00000000000E+00  0.17195868806E+04  0.17195868806E+04  0.00000000000E+00 0. -1.
         21   -1    0    0  501  502  0.00000000000E+00 -0.00000000000E+00 -0.53437046586E+02  0.53437046586E+02  0.00000000000E+00 0. -1.
         24    2    1    2    0    0 -0.86147399104E+01  0.27273190171E+02  0.16458387107E+03  0.18321625377E+03  0.75248284919E+02 0.  0.
         23    2    1    2    0    0 -0.14354406081E+03 -0.16433175161E+03  0.36216548117E+03  0.43215020777E+03  0.89331653659E+02 0.  0.
        -11    1    3    3    0    0  0.19199091734E+02  0.15309167587E+02  0.14520767371E+03  0.14726929157E+03  0.00000000000E+00 0.  1.
         12    1    3    3    0    0 -0.27813831645E+02  0.11964022584E+02  0.19376197359E+02  0.35946962197E+02  0.00000000000E+00 0. -1.
        -13    1    4    4    0    0 -0.71526364154E+02 -0.24159919787E+02  0.88249793356E+02  0.11613676645E+03  0.00000000000E+00 0.  1.
         13    1    4    4    0    0 -0.72017696655E+02 -0.14017183182E+03  0.27391568781E+03  0.31601344132E+03  0.00000000000E+00 0. -1.
          1    1    1    2  501    0  0.15215880072E+03  0.13705856144E+03  0.11394004818E+04  0.11576574657E+04  0.00000000000E+00 0. -1.
<scales pt_clust_5="13000.00000" pt_clust_6="13000.00000" pt_clust_7="13000.00000" pt_clust_8="13000.00000" pt_clust_9="214.46717"></scales>
<clustering>
<clus scale="   75.248">  5  6 -1 -1</clus>
<clus scale="   80.501">  1  5  2 -1</clus>
<clus scale="   89.332">  7  8 -1 -1</clus>
<clus scale="  214.467">  2  9  1 -1</clus>
<clus scale="  214.467">  2  5  1 -1</clus>
</clustering>
</event>
<event>
 9    2  0.4883225E-005  0.1345618E+03  0.7546771E-02  0.1221188E+00
          2   -1    0    0  502    0 -0.00000000000E+00  0.00000000000E+00  0.87480035913E+03  0.87480035913E+03  0.00000000000E+00 0. -1.
         21   -1    0    0  501  502  0.00000000000E+00 -0.00000000000E+00 -0.72062283574E+02  0.72062283574E+02  0.00000000000E+00 0. -1.
         23    2    1    2    0    0 -0.85271830250E+02  0.54112526397E+02  0.73899326874E+03  0.75137795445E+03  0.90875346696E+02 0.  0.
         24    2    1    2    0    0  0.59974144886E+02 -0.71501305566E+02  0.87998053431E+02  0.15636228422E+03  0.89421316066E+02 0.  0.
        -11    1    4    4    0    0  0.34048842680E+02  0.12769246852E+02  0.46181467363E+02  0.58780143593E+02  0.00000000000E+00 0.  1.
         12    1    4    4    0    0  0.25925302206E+02 -0.84270552418E+02  0.41816586068E+02  0.97582140629E+02  0.00000000000E+00 0. -1.
        -11    1    3    3    0    0 -0.80994126564E+02  0.19223415166E+00  0.48153761418E+03  0.48830170936E+03  0.00000000000E+00 0.  1.
         11    1    3    3    0    0 -0.42777036863E+01  0.53920292245E+02  0.25745565456E+03  0.26307624509E+03  0.00000000000E+00 0. -1.
          1    1    1    2  501    0  0.25297685364E+02  0.17388779169E+02 -0.24253246618E+02  0.39122404033E+02  0.00000000000E+00 0. -1.
<scales pt_clust_5="13000.00000" pt_clust_6="13000.00000" pt_clust_7="13000.00000" pt_clust_8="13000.00000" pt_clust_9="30.69760"></scales>
<clustering>
<clus scale="   30.698">  2  9  1 -1</clus>
<clus scale="   89.421">  5  6 -1 -1</clus>
<clus scale="   90.875">  7  8 -1 -1</clus>
<clus scale="  133.584">  2  5  1 -1</clus>
<clus scale="   30.698">  2  5  1 -1</clus>
</clustering>
</event>
<event>
 9    2  0.4883225E-005  0.3702868E+03  0.7546771E-02  0.1063756E+00
          2   -1    0    0  502    0 -0.00000000000E+00  0.00000000000E+00  0.14794013771E+04  0.14794013771E+04  0.00000000000E+00 0. -1.
         21   -1    0    0  501  502  0.00000000000E+00 -0.00000000000E+00 -0.23737048330E+03  0.23737048330E+03  0.00000000000E+00 0. -1.
         24    2    1    2    0    0 -0.26968048098E+03 -0.57089787014E+02  0.43440935315E+03  0.52028744336E+03  0.77464391904E+02 0.  0.
         23    2    1    2    0    0  0.15337008773E+03 -0.31080121570E+03  0.71387590598E+03  0.79942001238E+03  0.96611425629E+02 0.  0.
        -11    1    3    3    0    0 -0.11548164869E+03 -0.63516873648E+01  0.24434912206E+03  0.27033839640E+03  0.00000000000E+00 0.  1.
         12    1    3    3    0    0 -0.15419883229E+03 -0.50738099649E+02  0.19006023109E+03  0.24994904696E+03  0.00000000000E+00 0. -1.
        -11    1    4    4    0    0 -0.13663137724E+02 -0.23573610668E+02  0.63018910670E+02  0.68656970181E+02  0.00000000000E+00 0.  1.
         11    1    4    4    0    0  0.16703322546E+03 -0.28722760503E+03  0.65085699531E+03  0.73076304219E+03  0.00000000000E+00 0. -1.
          1    1    1    2  501    0  0.11631039325E+03  0.36789100272E+03  0.93745634720E+02  0.39706440471E+03  0.00000000000E+00 0. -1.
<scales pt_clust_5="13000.00000" pt_clust_6="13000.00000" pt_clust_7="13000.00000" pt_clust_8="13000.00000" pt_clust_9="357.46128"></scales>
<clustering>
<clus scale="   77.464">  5  6 -1 -1</clus>
<clus scale="   96.611">  7  8 -1 -1</clus>
<clus scale="  286.335">  1  5  2 -1</clus>
<clus scale="  357.461">  2  9  1 -1</clus>
<clus scale="  357.461">  2  5  1 -1</clus>
</clustering>
</event>
<event>
 9    2  0.4883225E-005  0.2326814E+03  0.7546771E-02  0.1159090E+00
         21   -1    0    0  501  502  0.00000000000E+00  0.00000000000E+00  0.56005093713E+02  0.56005093713E+02  0.00000000000E+00 0. -1.
          2   -1    0    0  502    0 -0.00000000000E+00 -0.00000000000E+00 -0.13992412216E+04  0.13992412216E+04  0.00000000000E+00 0. -1.
         24    2    1    2    0    0  0.62578496967E+02 -0.26521508073E+01 -0.35620353450E+03  0.37050425792E+03  0.80432238302E+02 0.  0.
         23    2    1    2    0    0 -0.24191243759E+03 -0.41943410216E+02 -0.52853370316E+03  0.59040345010E+03  0.94591127462E+02 0.  0.
        -13    1    3    3    0    0 -0.15409350263E+02  0.14132351043E+02 -0.10024989458E+03  0.10240709343E+03  0.00000000000E+00 0.  1.
         14    1    3    3    0    0  0.77987847230E+02 -0.16784501850E+02 -0.25595363992E+03  0.26809716449E+03  0.00000000000E+00 0. -1.
        -13    1    4    4    0    0 -0.60345780428E+02 -0.32032524291E+02 -0.23840369538E+03  0.24800003588E+03  0.00000000000E+00 0.  1.
         13    1    4    4    0    0 -0.18156665717E+03 -0.99108859246E+01 -0.29013000778E+03  0.34240341422E+03  0.00000000000E+00 0. -1.
          1    1    1    2  501    0  0.17933394063E+03  0.44595561023E+02 -0.45849889026E+03  0.49433860733E+03  0.00000000000E+00 0. -1.
<scales pt_clust_5="13000.00000" pt_clust_6="13000.00000" pt_clust_7="13000.00000" pt_clust_8="13000.00000" pt_clust_9="212.58684"></scales>
<clustering>
<clus scale="   80.432">  5  6 -1 -1</clus>
<clus scale="   94.591">  7  8 -1 -1</clus>
<clus scale="  101.943">  2  5  1 -1</clus>
<clus scale="  212.587">  1  9  2 -1</clus>
<clus scale="  212.587">  1  5  2 -1</clus>
</clustering>
</event>
<event>
 9    2  0.4883225E-005  0.1264448E+03  0.7546771E-02  0.1236485E+00
         21   -1    0    0  501  502  0.00000000000E+00  0.00000000000E+00  0.14190674081E+03  0.14190674081E+03  0.00000000000E+00 0.  1.
         -3   -1    0    0    0  501 -0.00000000000E+00 -0.00000000000E+00 -0.29486298155E+03  0.29486298155E+03  0.00000000000E+00 0.  1.
         23    2    1    2    0    0  0.46403141465E+02 -0.58674592419E+02 -0.14860464410E+03  0.19086918143E+03  0.93550760751E+02 0.  0.
         24    2    1    2    0    0 -0.66457179795E+02  0.77098094860E+02 -0.88652601158E+02  0.15731019575E+03  0.80787010205E+02 0.  0.
        -13    1    4    4    0    0 -0.23295213679E+02  0.60405714515E+02 -0.92407187593E+01  0.65398074969E+02  0.00000000000E+00 0.  1.
         14    1    4    4    0    0 -0.43161966116E+02  0.16692380345E+02 -0.79411882399E+02  0.91912120782E+02  0.00000000000E+00 0. -1.
        -11    1    3    3    0    0  0.70220793910E+02 -0.46464884969E+02 -0.75776154858E+02  0.11327829041E+03  0.00000000000E+00 0. -1.
         11    1    3    3    0    0 -0.23817652445E+02 -0.12209707451E+02 -0.72828489241E+02  0.77590891019E+02  0.00000000000E+00 0.  1.
         -4    1    1    2    0  502  0.20054038330E+02 -0.18423502441E+02  0.84301004519E+02  0.88590345176E+02  0.00000000000E+00 0.  1.
<scales pt_clust_5="13000.00000" pt_clust_6="13000.00000" pt_clust_7="13000.00000" pt_clust_8="13000.00000" pt_clust_9="27.23215"></scales>
<clustering>
<clus scale="   27.232">  1  9  2 -1</clus>
<clus scale="   80.787">  5  6 -1 -1</clus>
<clus scale="   93.551">  7  8 -1 -1</clus>
<clus scale="  117.316">  1  5  2 -1</clus>
<clus scale="   27.232">  1  5  2 -1</clus>
</clustering>
</event>
<event>
 9    2  0.4883225E-005  0.1866513E+03  0.7546771E-02  0.1162892E+00
          2   -1    0    0  502    0 -0.00000000000E+00  0.00000000000E+00  0.59371457758E+03  0.59371457758E+03  0.00000000000E+00 0. -1.
         21   -1    0    0  501  502  0.00000000000E+00 -0.00000000000E+00 -0.90962890260E+02  0.90962890260E+02  0.00000000000E+00 0. -1.
         23    2    1    2    0    0 -0.15874921315E+03  0.80565708383E+01  0.28672385664E+03  0.34051182376E+03  0.92040812364E+02 0.  0.
         24    2    1    2    0    0  0.16745778882E+03 -0.40714941721E+02  0.83409844022E+02  0.20730827722E+03  0.79496554708E+02 0.  0.
        -11    1    4    4    0    0  0.64188034277E+02 -0.36162646772E+02 -0.12653147603E+01  0.73684745961E+02  0.00000000000E+00 0.  1.
         12    1    4    4    0    0  0.10326975454E+03 -0.45522949495E+01  0.84675158782E+02  0.13362353126E+03  0.00000000000E+00 0. -1.
        -11    1    3    3    0    0 -0.55065913314E+02 -0.10147729129E+02  0.31076145232E+02  0.64038722802E+02  0.00000000000E+00 0. -1.
         11    1    3    3    0    0 -0.10368329984E+03  0.18204299968E+02  0.25564771141E+03  0.27647310096E+03  0.00000000000E+00 0.  1.
          1    1    1    2  501    0 -0.87085756651E+01  0.32658370883E+02  0.13261798666E+03  0.13685736686E+03  0.00000000000E+00 0. -1.
<scales pt_clust_5="13000.00000" pt_clust_6="13000.00000" pt_clust_7="13000.00000" pt_clust_8="13000.00000" pt_clust_9="33.79955"></scales>
<clustering>
<clus scale="   33.800">  2  9  1 -1</clus>
<clus scale="   79.497">  5  6 -1 -1</clus>
<clus scale="   92.041">  7  8 -1 -1</clus>
<clus scale="  180.795">  2  5  1 -1</clus>
<clus scale="   33.800">  2  5  1 -1</clus>
</clustering>
</event>
<event>
 9    2  0.4883225E-005  0.9814170E+02  0.7546771E-02  0.1290795E+00
          2   -1    0    0  502    0 -0.00000000000E+00  0.00000000000E+00  0.25285918008E+03  0.25285918008E+03  0.00000000000E+00 0. -1.
         21   -1    0    0  501  502  0.00000000000E+00 -0.00000000000E+00 -0.16530862661E+03  0.16530862661E+03  0.00000000000E+00 0. -1.
         24    2    1    2    0    0 -0.20087420603E+02  0.16756961377E+02  0.16171611709E+03  0.18262953488E+03  0.80728831671E+02 0.  0.
         23    2    1    2    0    0  0.89640371314E+02  0.18278662299E+02 -0.35078635534E+01  0.13038306054E+03  0.92832815883E+02 0.  0.
        -11    1    3    3    0    0 -0.73374028391E+01 -0.21184426313E+02  0.80255315692E+01  0.23812319408E+02  0.00000000000E+00 0.  1.
         12    1    3    3    0    0 -0.12750017764E+02  0.37941387690E+02  0.15369058552E+03  0.15881721547E+03  0.00000000000E+00 0. -1.
        -11    1    4    4    0    0  0.21201456453E+02  0.39318300850E+02  0.27392113807E+02  0.52399985079E+02  0.00000000000E+00 0. -1.
         11    1    4    4    0    0  0.68438914861E+02 -0.21039638551E+02 -0.30899977360E+02  0.77983075462E+02  0.00000000000E+00 0.  1.
          1    1    1    2  501    0 -0.69552950711E+02 -0.35035623677E+02 -0.70657700067E+02  0.10515521127E+03  0.00000000000E+00 0. -1.
<scales pt_clust_5="13000.00000" pt_clust_6="13000.00000" pt_clust_7="13000.00000" pt_clust_8="13000.00000" pt_clust_9="77.87880"></scales>
<clustering>
<clus scale="   77.879">  2  9  1 -1</clus>
<clus scale="   80.729">  5  6 -1 -1</clus>
<clus scale="   86.781">  1  5  2 -1</clus>
<clus scale="   92.833">  7  8 -1 -1</clus>
<clus scale="   77.879">  2  5  1 -1</clus>
</clustering>
</event>
<event>
 9    2  0.4883225E-005  0.1638942E+03  0.7546771E-02  0.1209396E+00
         21   -1    0    0  501  502  0.00000000000E+00  0.00000000000E+00  0.64073251504E+02  0.64073251504E+02  0.00000000000E+00 0. -1.
          2   -1    0    0  502    0 -0.00000000000E+00 -0.00000000000E+00 -0.68131907421E+03  0.68131907421E+03  0.00000000000E+00 0. -1.
         24    2    1    2    0    0 -0.26800659111E+02 -0.40278861036E+02 -0.11803043686E+03  0.15144228226E+03  0.81626704301E+02 0.  0.
         23    2    1    2    0    0 -0.12305558630E+03  0.45530225804E+02 -0.17507139042E+03  0.23680329366E+03  0.90609764175E+02 0.  0.
        -13    1    3    3    0    0 -0.31810760041E+02 -0.36781349795E+02 -0.12956444872E+03  0.13838980641E+03  0.00000000000E+00 0.  1.
         14    1    3    3    0    0  0.50101009302E+01 -0.34975112416E+01  0.11534011857E+02  0.13052475847E+02  0.00000000000E+00 0. -1.
        -11    1    4    4    0    0 -0.98524557122E+01  0.39972731707E+02 -0.23052608429E+02  0.47183820523E+02  0.00000000000E+00 0.  1.
         11    1    4    4    0    0 -0.11320313058E+03  0.55574940964E+01 -0.15201878199E+03  0.18961947314E+03  0.00000000000E+00 0. -1.
          1    1    1    2  501    0  0.14985624541E+03 -0.52513647675E+01 -0.32414399542E+03  0.35714674979E+03  0.00000000000E+00 0. -1.
<scales pt_clust_5="13000.00000" pt_clust_6="13000.00000" pt_clust_7="13000.00000" pt_clust_8="13000.00000" pt_clust_9="136.56944"></scales>
<clustering>
<clus scale="   81.627">  5  6 -1 -1</clus>
<clus scale="   90.610">  7  8 -1 -1</clus>
<clus scale="   94.887">  2  5  1 -1</clus>
<clus scale="  136.569">  1  9  2 -1</clus>
<clus scale="  136.569">  1  5  2 -1</clus>
</clustering>
</event>
<event>
 9    2  0.4883225E-005  0.4747630E+03  0.7546771E-02  0.1079668E+00
         21   -1    0    0  501  502  0.00000000000E+00  0.00000000000E+00  0.53473849416E+03  0.53473849416E+03  0.00000000000E+00 0.  1.
         -3   -1    0    0    0  501 -0.00000000000E+00 -0.00000000000E+00 -0.66897827784E+03  0.66897827784E+03  0.00000000000E+00 0.  1.
         24    2    1    2    0    0  0.23374394243E+02 -0.19090603159E+02  0.25608877604E+01  0.87927726361E+02  0.82546432277E+02 0.  0.
         23    2    1    2    0    0  0.22847769618E+03  0.41002777090E+03 -0.36134747745E+03  0.59937582674E+03  0.91403236627E+02 0.  0.
        -11    1    3    3    0    0  0.48415100394E+02 -0.32139056347E+02 -0.60041204783E+01  0.58420804100E+02  0.00000000000E+00 0.  1.
         12    1    3    3    0    0 -0.25040706151E+02  0.13048453188E+02  0.85650082387E+01  0.29506922261E+02  0.00000000000E+00 0. -1.
        -13    1    4    4    0    0  0.10452301252E+02  0.52295282868E+02 -0.74605018675E+02  0.91705812374E+02  0.00000000000E+00 0. -1.
         13    1    4    4    0    0  0.21802539492E+03  0.35773248803E+03 -0.28674245877E+03  0.50767001437E+03  0.00000000000E+00 0.  1.
         -4    1    1    2    0  502 -0.25185209042E+03 -0.39093716774E+03  0.22454680600E+03  0.51641321890E+03  0.00000000000E+00 0.  1.
<scales pt_clust_5="13000.00000" pt_clust_6="13000.00000" pt_clust_7="13000.00000" pt_clust_8="13000.00000" pt_clust_9="465.88132"></scales>
<clustering>
<clus scale="   82.546">  5  6 -1 -1</clus>
<clus scale="   87.890">  2  5  1 -1</clus>
<clus scale="   91.403">  7  8 -1 -1</clus>
<clus scale="  465.881">  1  9  2 -1</clus>
<clus scale="  465.881">  1  5  2 -1</clus>
</clustering>
</event>
<event>
 9    2  0.4883225E-005  0.1150041E+03  0.7546771E-02  0.1256324E+00
          2   -1    0    0  502    0 -0.00000000000E+00  0.00000000000E+00  0.33810194997E+03  0.33810194997E+03  0.00000000000E+00 0. -1.
         21   -1    0    0  501  502  0.00000000000E+00 -0.00000000000E+00 -0.55606473582E+02  0.55606473582E+02  0.00000000000E+00 0.  1.
         24    2    1    2    0    0  0.48786575080E+02  0.57504193285E+02  0.20114245642E+03  0.22909217485E+03  0.79612025803E+02 0.  0.
         23    2    1    2    0    0 -0.20137717714E+02 -0.45821230435E+02  0.39545694290E+02  0.11260566199E+03  0.92795799159E+02 0.  0.
        -13    1    3    3    0    0  0.24334811063E+01  0.46433806104E+02  0.15837384024E+03  0.16505845465E+03  0.00000000000E+00 0.  1.
         14    1    3    3    0    0  0.46353093974E+02  0.11070387181E+02  0.42768616178E+02  0.64033720203E+02  0.00000000000E+00 0. -1.
        -11    1    4    4    0    0 -0.56296555535E+02 -0.32868543800E+02  0.34824036213E+02  0.73907758962E+02  0.00000000000E+00 0.  1.
         11    1    4    4    0    0  0.36158837821E+02 -0.12952686635E+02  0.47216580768E+01  0.38697903026E+02  0.00000000000E+00 0. -1.
          1    1    1    2  501    0 -0.28648857366E+02 -0.11682962850E+02  0.41807325679E+02  0.52010586709E+02  0.00000000000E+00 0. -1.
<scales pt_clust_5="13000.00000" pt_clust_6="13000.00000" pt_clust_7="13000.00000" pt_clust_8="13000.00000" pt_clust_9="30.93945"></scales>
<clustering>
<clus scale="   30.939">  2  9  1 -1</clus>
<clus scale="   79.612">  5  6 -1 -1</clus>
<clus scale="   92.796">  7  8 -1 -1</clus>
<clus scale="  104.656">  1  5  2 -1</clus>
<clus scale="   30.939">  2  5  1 -1</clus>
</clustering>
</event>
<event>
 9    2  0.4883225E-005  0.9909545E+02  0.7546771E-02  0.1284950E+00
         21   -1    0    0  501  502  0.00000000000E+00  0.00000000000E+00  0.73995546526E+02  0.73995546526E+02  0.00000000000E+00 0. -1.
         -1   -1    0    0    0  501 -0.00000000000E+00 -0.00000000000E+00 -0.24874859294E+03  0.24874859294E+03  0.00000000000E+00 0.  1.
         24    2    1    2    0    0  0.32550275558E+02 -0.28845385383E+02 -0.16580009642E+03  0.19148240402E+03  0.85347890303E+02 0.  0.
         23    2    1    2    0    0 -0.32193560023E+02  0.54318596730E+01 -0.28621911756E+02  0.10068088379E+03  0.90837746126E+02 0.  0.
        -13    1    3    3    0    0  0.51210590399E+02  0.10084116966E+02 -0.81696702862E+02  0.96946197669E+02  0.00000000000E+00 0.  1.
         14    1    3    3    0    0 -0.18660314840E+02 -0.38929502349E+02 -0.84103393555E+02  0.94536206347E+02  0.00000000000E+00 0. -1.
        -11    1    4    4    0    0  0.10305852990E+02 -0.34567619373E+02 -0.21222911982E+02  0.41851438541E+02  0.00000000000E+00 0.  1.
         11    1    4    4    0    0 -0.42499413013E+02  0.39999479046E+02 -0.73989997735E+01  0.58829445247E+02  0.00000000000E+00 0. -1.
         -2    1    1    2    0  502 -0.35671553539E+00  0.23413525710E+02  0.19668961754E+02  0.30580851666E+02  0.00000000000E+00 0.  1.
<scales pt_clust_5="13000.00000" pt_clust_6="13000.00000" pt_clust_7="13000.00000" pt_clust_8="13000.00000" pt_clust_9="23.41624"></scales>
<clustering>
<clus scale="   23.416">  1  9  2 -1</clus>
<clus scale="   85.348">  5  6 -1 -1</clus>
<clus scale="   90.838">  7  8 -1 -1</clus>
<clus scale="   94.089">  2  5  1 -1</clus>
<clus scale="   23.416">  1  5  2 -1</clus>
</clustering>
</event>
<event>
 9    2  0.4883225E-005  0.1166959E+03  0.7546771E-02  0.1251177E+00
         21   -1    0    0  501  502  0.00000000000E+00  0.00000000000E+00  0.55686026735E+02  0.55686026735E+02  0.00000000000E+00 0. -1.
          2   -1    0    0  502    0 -0.00000000000E+00 -0.00000000000E+00 -0.32670271040E+03  0.32670271040E+03  0.00000000000E+00 0. -1.
         23    2    1    2    0    0 -0.28132054984E+02 -0.68464965860E+02 -0.13357305391E+03  0.17755803763E+03  0.90588254908E+02 0.  0.
         24    2    1    2    0    0  0.49711640767E+02  0.56583594956E+02 -0.67958328782E+02  0.13110789063E+03  0.83054163591E+02 0.  0.
        -11    1    4    4    0    0  0.16897876063E+02 -0.18303481601E+02 -0.18797222206E+00  0.24911663688E+02  0.00000000000E+00 0.  1.
         12    1    4    4    0    0  0.32813764704E+02  0.74887076557E+02 -0.67770356560E+02  0.10619622695E+03  0.00000000000E+00 0. -1.
        -11    1    3    3    0    0 -0.38122448947E+00 -0.81970527067E+02 -0.11600971690E+03  0.14204776329E+03  0.00000000000E+00 0. -1.
         11    1    3    3    0    0 -0.27750830495E+02  0.13505561207E+02 -0.17563337006E+02  0.35510274337E+02  0.00000000000E+00 0.  1.
          1    1    1    2  501    0 -0.21579585783E+02  0.11881370904E+02 -0.69485300976E+02  0.73722808878E+02  0.00000000000E+00 0. -1.
<scales pt_clust_5="13000.00000" pt_clust_6="13000.00000" pt_clust_7="13000.00000" pt_clust_8="13000.00000" pt_clust_9="24.63425"></scales>
<clustering>
<clus scale="   24.634">  1  9  2 -1</clus>
<clus scale="   83.054">  5  6 -1 -1</clus>
<clus scale="   90.588">  7  8 -1 -1</clus>
<clus scale="  110.949">  1  5  2 -1</clus>
<clus scale="   24.634">  1  5  2 -1</clus>
</clustering>
</event>
<event>
 9    2  0.4883225E-005  0.2313174E+03  0.7546771E-02  0.1143696E+00
         21   -1    0    0  501  502  0.00000000000E+00  0.00000000000E+00  0.10356346682E+03  0.10356346682E+03  0.00000000000E+00 0. -1.
          2   -1    0    0  502    0 -0.00000000000E+00 -0.00000000000E+00 -0.12906459852E+04  0.12906459852E+04  0.00000000000E+00 0. -1.
         24    2    1    2    0    0 -0.11976096833E+03  0.46216770824E+02 -0.13461895526E+03  0.20102426887E+03  0.76222136687E+02 0.  0.
         23    2    1    2    0    0  0.21684022190E+03 -0.21242048724E+03 -0.87770636775E+03  0.93320800307E+03  0.91468922404E+02 0.  0.
        -11    1    3    3    0    0 -0.40493971877E+02  0.55825971779E+02 -0.70451925283E+02  0.98588917529E+02  0.00000000000E+00 0.  1.
         12    1    3    3    0    0 -0.79266996449E+02 -0.96092009550E+01 -0.64167029973E+02  0.10243535134E+03  0.00000000000E+00 0. -1.
        -13    1    4    4    0    0  0.60407480124E+02 -0.80749168365E+02 -0.18193527979E+03  0.20801427326E+03  0.00000000000E+00 0.  1.
         13    1    4    4    0    0  0.15643274177E+03 -0.13167131888E+03 -0.69577108796E+03  0.72519372981E+03  0.00000000000E+00 0. -1.
          1    1    1    2  501    0 -0.97079253570E+02  0.16620371642E+03 -0.17475719535E+03  0.25997718006E+03  0.00000000000E+00 0. -1.
<scales pt_clust_5="13000.00000" pt_clust_6="13000.00000" pt_clust_7="13000.00000" pt_clust_8="13000.00000" pt_clust_9="212.46452"></scales>
<clustering>
<clus scale="   76.222">  5  6 -1 -1</clus>
<clus scale="   91.469">  7  8 -1 -1</clus>
<clus scale="  149.293">  2  5  1 -1</clus>
<clus scale="  212.465">  1  9  2 -1</clus>
<clus scale="  212.465">  1  5  2 -1</clus>
</clustering>
</event>
<event>
 9    2  0.4883225E-005  0.9600920E+02  0.7546771E-02  0.1291463E+00
         21   -1    0    0  501  502  0.00000000000E+00  0.00000000000E+00  0.10681991457E+03  0.10681991457E+03  0.00000000000E+00 0. -1.
          2   -1    0    0  502    0 -0.00000000000E+00 -0.00000000000E+00 -0.49008021728E+03  0.49008021728E+03  0.00000000000E+00 0. -1.
         24    2    1    2    0    0 -0.28870124807E+02  0.10255868322E+01 -0.43519296681E+03  0.44475133726E+03  0.87041930693E+02 0.  0.
         23    2    1    2    0    0  0.20688087601E+02 -0.26368770910E+02  0.45137111407E+01  0.97763320309E+02  0.91727772031E+02 0.  0.
        -13    1    3    3    0    0 -0.29221222586E+02  0.48630920175E+01 -0.41224642734E+02  0.50764167303E+02  0.00000000000E+00 0.  1.
         14    1    3    3    0    0  0.35109777894E+00 -0.38375051853E+01 -0.39396832408E+03  0.39398716996E+03  0.00000000000E+00 0. -1.
        -11    1    4    4    0    0  0.47346746509E+02 -0.43624125491E+02  0.11104946980E+02  0.65330686337E+02  0.00000000000E+00 0.  1.
         11    1    4    4    0    0 -0.26658658908E+02  0.17255354581E+02 -0.65912358391E+01  0.32432633972E+02  0.00000000000E+00 0. -1.
          1    1    1    2  501    0  0.81820372055E+01  0.25343184078E+02  0.47418952964E+02  0.54385474276E+02  0.00000000000E+00 0. -1.
<scales pt_clust_5="13000.00000" pt_clust_6="13000.00000" pt_clust_7="13000.00000" pt_clust_8="13000.00000" pt_clust_9="26.63124"></scales>
<clustering>
<clus scale="   26.631">  1  9  2 -1</clus>
<clus scale="   87.042">  5  6 -1 -1</clus>
<clus scale="   91.543">  2  5  1 -1</clus>
<clus scale="   91.728">  7  8 -1 -1</clus>
<clus scale="   26.631">  1  5  2 -1</clus>
</clustering>
</event>
<event>
 9    2  0.4883225E-005  0.9650018E+02  0.7546771E-02  0.1292405E+00
          2   -1    0    0  502    0 -0.00000000000E+00  0.00000000000E+00  0.29078946498E+03  0.29078946498E+03  0.00000000000E+00 0. -1.
         21   -1    0    0  501  502  0.00000000000E+00 -0.00000000000E+00 -0.75971582258E+02  0.75971582258E+02  0.00000000000E+00 0.  1.
         24    2    1    2    0    0  0.36521883986E+01 -0.50739115253E+02  0.17613460035E+03  0.19999881721E+03  0.79927048931E+02 0.  0.
         23    2    1    2    0    0 -0.12948090796E+02  0.13438627819E+02  0.72151523275E+02  0.11579299114E+03  0.88622371406E+02 0.  0.
        -13    1    3    3    0    0 -0.58796736535E+01 -0.53702368158E+02  0.18100295208E+03  0.18889304797E+03  0.00000000000E+00 0.  1.
         14    1    3    3    0    0  0.95318620521E+01  0.29632529053E+01 -0.48683517344E+01  0.11105769247E+02  0.00000000000E+00 0. -1.
        -11    1    4    4    0    0 -0.34481486466E+02 -0.21091568799E+02  0.10227678615E+02  0.41694515145E+02  0.00000000000E+00 0.  1.
         11    1    4    4    0    0  0.21533395670E+02  0.34530196618E+02  0.61923844660E+02  0.74098475997E+02  0.00000000000E+00 0. -1.
          1    1    1    2  501    0  0.92959023976E+01  0.37300487434E+02 -0.33468240895E+02  0.50969238888E+02  0.00000000000E+00 0. -1.
<scales pt_clust_5="13000.00000" pt_clust_6="13000.00000" pt_clust_7="13000.00000" pt_clust_8="13000.00000" pt_clust_9="38.44139"></scales>
<clustering>
<clus scale="   38.441">  2  9  1 -1</clus>
<clus scale="   79.927">  5  6 -1 -1</clus>
<clus scale="   88.582">  1  5  2 -1</clus>
<clus scale="   88.622">  7  8 -1 -1</clus>
<clus scale="   38.441">  2  5  1 -1</clus>
</clustering>
</event>
<event>
 9    2  0.4883225E-005  0.9822703E+02  0.7546771E-02  0.1293455E+00
          4   -1    0    0  502    0 -0.00000000000E+00  0.00000000000E+00  0.62421201977E+02  0.62421201977E+02  0.00000000000E+00 0. -1.
         21   -1    0    0  501  502  0.00000000000E+00 -0.00000000000E+00 -0.27387740096E+03  0.27387740096E+03  0.00000000000E+00 0.  1.
         24    2    1    2    0    0  0.17188213499E+02  0.43030223729E+01 -0.39211852588E+02  0.87755341062E+02  0.76481892084E+02 0.  0.
         23    2    1    2    0    0 -0.56222342159E+02 -0.38013399294E+02 -0.15681722750E+03  0.19470973413E+03  0.93350240706E+02 0.  0.
        -13    1    3    3    0    0 -0.10912956459E+02 -0.26334075303E+02  0.28102137577E+01  0.28643907592E+02  0.00000000000E+00 0.  1.
         14    1    3    3    0    0  0.28101169958E+02  0.30637097676E+02 -0.42022066346E+02  0.59111433471E+02  0.00000000000E+00 0. -1.
        -11    1    4    4    0    0  0.22903298757E+02 -0.78698954782E+01 -0.12173623697E+02  0.27105229434E+02  0.00000000000E+00 0. -1.
         11    1    4    4    0    0 -0.79125640916E+02 -0.30143503816E+02 -0.14464360380E+03  0.16760450469E+03  0.00000000000E+00 0.  1.
          3    1    1    2  501    0  0.39034128661E+02  0.33710376921E+02 -0.15427118899E+02  0.53833527750E+02  0.00000000000E+00 0. -1.
<scales pt_clust_5="13000.00000" pt_clust_6="13000.00000" pt_clust_7="13000.00000" pt_clust_8="13000.00000" pt_clust_9="51.57572"></scales>
<clustering>
<clus scale="   51.576">  2  9  1 -1</clus>
<clus scale="   76.482">  5  6 -1 -1</clus>
<clus scale="   82.364">  1  5  2 -1</clus>
<clus scale="   93.350">  7  8 -1 -1</clus>
<clus scale="   51.576">  2  5  1 -1</clus>
</clustering>
</event>
<event>
 9    2  0.4883225E-005  0.1591159E+03  0.7546771E-02  0.1212593E+00
         21   -1    0    0  501  502  0.00000000000E+00  0.00000000000E+00  0.79485209115E+02  0.79485209115E+02  0.00000000000E+00 0. -1.
         -3   -1    0    0    0  501 -0.00000000000E+00 -0.00000000000E+00 -0.78973033747E+03  0.78973033747E+03  0.00000000000E+00 0.  1.
         24    2    1    2    0    0 -0.50070749107E+02  0.24123447808E+02 -0.46301609179E+03  0.47303962907E+03  0.79332016041E+02 0.  0.
         23    2    1    2    0    0  0.14837693757E+03  0.47814477256E+02 -0.18838068515E+03  0.26088992335E+03  0.90963342778E+02 0.  0.
        -13    1    3    3    0    0 -0.71002032672E+02  0.12895813720E+02 -0.37466720286E+03  0.38155353956E+03  0.00000000000E+00 0.  1.
         14    1    3    3    0    0  0.20931283565E+02  0.11227634088E+02 -0.88348888928E+02  0.91486089509E+02  0.00000000000E+00 0. -1.
        -13    1    4    4    0    0  0.79668533900E+02  0.18777208272E+02 -0.32474241292E+02  0.88058135296E+02  0.00000000000E+00 0. -1.
         13    1    4    4    0    0  0.68708403671E+02  0.29037268984E+02 -0.15590644386E+03  0.17283178806E+03  0.00000000000E+00 0.  1.
         -4    1    1    2    0  502 -0.98306188464E+02 -0.71937925063E+02 -0.58848351422E+02  0.13528599417E+03  0.00000000000E+00 0.  1.
<scales pt_clust_5="13000.00000" pt_clust_6="13000.00000" pt_clust_7="13000.00000" pt_clust_8="13000.00000" pt_clust_9="130.55094"></scales>
<clustering>
<clus scale="   79.332">  5  6 -1 -1</clus>
<clus scale="   90.963">  7  8 -1 -1</clus>
<clus scale="   96.864">  2  5  1 -1</clus>
<clus scale="  130.551">  1  9  2 -1</clus>
<clus scale="  130.551">  1  5  2 -1</clus>
</clustering>
</event>
<event>
 9    2  0.4883225E-005  0.1102872E+03  0.7546771E-02  0.1264936E+00
          4   -1    0    0  502    0 -0.00000000000E+00  0.00000000000E+00  0.67559951923E+02  0.67559951923E+02  0.00000000000E+00 0. -1.
         21   -1    0    0  501  502  0.00000000000E+00 -0.00000000000E+00 -0.25222836496E+03  0.25222836496E+03  0.00000000000E+00 0.  1.
         24    2    1    2    0    0  0.38715014819E+02  0.51414621094E+02 -0.51540794721E+02  0.11563008038E+03  0.81065074684E+02 0.  0.
         23    2    1    2    0    0 -0.57864802641E+02 -0.13268263968E+02 -0.10845845239E+03  0.15485887867E+03  0.93239767230E+02 0.  0.
        -11    1    3    3    0    0 -0.18726380354E+02  0.40352724257E+02 -0.28060755016E+02  0.52596821654E+02  0.00000000000E+00 0.  1.
         12    1    3    3    0    0  0.57441395173E+02  0.11061896837E+02 -0.23480039705E+02  0.63033258726E+02  0.00000000000E+00 0. -1.
        -11    1    4    4    0    0 -0.73764103161E+02  0.13491342995E+02 -0.54987863224E+02  0.92988302237E+02  0.00000000000E+00 0. -1.
         11    1    4    4    0    0  0.15899300520E+02 -0.26759606963E+02 -0.53470589168E+02  0.61870576430E+02  0.00000000000E+00 0.  1.
          3    1    1    2  501    0  0.19149787822E+02 -0.38146357126E+02 -0.24669165920E+02  0.49299357833E+02  0.00000000000E+00 0. -1.
<scales pt_clust_5="13000.00000" pt_clust_6="13000.00000" pt_clust_7="13000.00000" pt_clust_8="13000.00000" pt_clust_9="42.68326"></scales>
<clustering>
<clus scale="   42.683">  2  9  1 -1</clus>
<clus scale="   81.065">  5  6 -1 -1</clus>
<clus scale="   93.240">  7  8 -1 -1</clus>
<clus scale="  100.206">  1  5  2 -1</clus>
<clus scale="   42.683">  2  5  1 -1</clus>
</clustering>
</event>
<event>
 9    2  0.4883225E-005  0.1087985E+03  0.7546771E-02  0.1265856E+00
          2   -1    0    0  502    0 -0.00000000000E+00  0.00000000000E+00  0.40437799423E+03  0.40437799423E+03  0.00000000000E+00 0. -1.
         21   -1    0    0  501  502  0.00000000000E+00 -0.00000000000E+00 -0.85806233583E+02  0.85806233583E+02  0.00000000000E+00 0. -1.
         23    2    1    2    0    0  0.16215021130E+02  0.63406561452E+02  0.33417155866E+03  0.35251909671E+03  0.91190810835E+02 0.  0.
         24    2    1    2    0    0 -0.29540659532E+02 -0.20785643892E+02 -0.24115098015E+01  0.91102848099E+02  0.83601554978E+02 0.  0.
        -13    1    4    4    0    0  0.22005739873E+02 -0.33175807704E+01 -0.23837845441E+02  0.32611375390E+02  0.00000000000E+00 0.  1.
         14    1    4    4    0    0 -0.51546399405E+02 -0.17468063121E+02  0.21426335640E+02  0.58491472710E+02  0.00000000000E+00 0. -1.
        -13    1    3    3    0    0 -0.62789879771E+01 -0.21322733343E+02  0.42550270111E+02  0.48006355140E+02  0.00000000000E+00 0.  1.
         13    1    3    3    0    0  0.22494009107E+02  0.84729294796E+02  0.29162128855E+03  0.30451274157E+03  0.00000000000E+00 0. -1.
          1    1    1    2  501    0  0.13325638402E+02 -0.42620917560E+02 -0.13188288214E+02  0.46562283004E+02  0.00000000000E+00 0. -1.
<scales pt_clust_5="13000.00000" pt_clust_6="13000.00000" pt_clust_7="13000.00000" pt_clust_8="13000.00000" pt_clust_9="44.65552"></scales>
<clustering>
<clus scale="   44.656">  2  9  1 -1</clus>
<clus scale="   83.602">  5  6 -1 -1</clus>
<clus scale="   91.191">  7  8 -1 -1</clus>
<clus scale="  102.521">  2  5  1 -1</clus>
<clus scale="   44.656">  2  5  1 -1</clus>
</clustering>
</event>
<event>
 9    2  0.4883225E-005  0.9548321E+02  0.7546771E-02  0.1297747E+00
          4   -1    0    0  502    0 -0.00000000000E+00  0.00000000000E+00  0.95449032910E+02  0.95449032910E+02  0.00000000000E+00 0. -1.
         21   -1    0    0  501  502  0.00000000000E+00 -0.00000000000E+00 -0.26696449189E+03  0.26696449189E+03  0.00000000000E+00 0.  1.
         23    2    1    2    0    0  0.11603360220E+02  0.19493626051E+02  0.41815873258E+02  0.10335953676E+03  0.91760487999E+02 0.  0.
         24    2    1    2    0    0 -0.53635039360E+02 -0.22461861734E+02 -0.18197137162E+03  0.20652856939E+03  0.78480680464E+02 0.  0.
        -11    1    4    4    0    0 -0.34780036769E+02 -0.51625200801E+02 -0.10459957895E+03  0.12172051689E+03  0.00000000000E+00 0.  1.
         12    1    4    4    0    0 -0.18855002591E+02  0.29163339067E+02 -0.77371792671E+02  0.84808052503E+02  0.00000000000E+00 0. -1.
        -13    1    3    3    0    0 -0.25584642665E+02 -0.17083184787E+02 -0.74037792903E+01  0.31642141055E+02  0.00000000000E+00 0.  1.
         13    1    3    3    0    0  0.37188002885E+02  0.36576810838E+02  0.49219652548E+02  0.71717395705E+02  0.00000000000E+00 0. -1.
          3    1    1    2  501    0  0.42031679139E+02  0.29682356830E+01 -0.31359960620E+02  0.52525418651E+02  0.00000000000E+00 0. -1.
<scales pt_clust_5="13000.00000" pt_clust_6="13000.00000" pt_clust_7="13000.00000" pt_clust_8="13000.00000" pt_clust_9="42.13636"></scales>
<clustering>
<clus scale="   42.136">  2  9  1 -1</clus>
<clus scale="   78.481">  5  6 -1 -1</clus>
<clus scale="   82.803">  2  5  1 -1</clus>
<clus scale="   91.760">  7  8 -1 -1</clus>
<clus scale="   42.136">  2  5  1 -1</clus>
</clustering>
</event>
<event>
 9    2  0.4883225E-005  0.9338743E+02  0.7546771E-02  0.1299182E+00
         21   -1    0    0  501  502  0.00000000000E+00  0.00000000000E+00  0.58606773215E+03  0.58606773215E+03  0.00000000000E+00 0.  1.
          4   -1    0    0  502    0 -0.00000000000E+00 -0.00000000000E+00 -0.29813556496E+02  0.29813556496E+02  0.00000000000E+00 0. -1.
         24    2    1    2    0    0 -0.92776834142E+01  0.35182205605E+02  0.59510839197E+02  0.10569629560E+03  0.79412240369E+02 0.  0.
         23    2    1    2    0    0 -0.90402770759E+01 -0.20679575523E+02  0.43374605426E+03  0.44299472947E+03  0.87174074678E+02 0.  0.
        -11    1    3    3    0    0  0.15685380597E+02 -0.19781273669E+02  0.27636242464E+02  0.37431161483E+02  0.00000000000E+00 0.  1.
         12    1    3    3    0    0 -0.24963064012E+02  0.54963479275E+02  0.31874596733E+02  0.68265134115E+02  0.00000000000E+00 0. -1.
        -11    1    4    4    0    0  0.26036553460E+02  0.22179570560E+02  0.14433778123E+03  0.14833485955E+03  0.00000000000E+00 0. -1.
         11    1    4    4    0    0 -0.35076830536E+02 -0.42859146083E+02  0.28940827303E+03  0.29465986992E+03  0.00000000000E+00 0.  1.
          3    1    1    2  501    0  0.18317960490E+02 -0.14502630082E+02  0.62997282193E+02  0.67190263577E+02  0.00000000000E+00 0. -1.
<scales pt_clust_5="13000.00000" pt_clust_6="13000.00000" pt_clust_7="13000.00000" pt_clust_8="13000.00000" pt_clust_9="23.36395"></scales>
<clustering>
<clus scale="   23.364">  1  9  2 -1</clus>
<clus scale="   79.412">  5  6 -1 -1</clus>
<clus scale="   86.187">  2  5  1 -1</clus>
<clus scale="   87.174">  7  8 -1 -1</clus>
<clus scale="   23.364">  1  5  2 -1</clus>
</clustering>
</event>
<event>
 9    2  0.4883225E-005  0.1334872E+03  0.7546771E-02  0.1227854E+00
         21   -1    0    0  501  502  0.00000000000E+00  0.00000000000E+00  0.80314102797E+02  0.80314102797E+02  0.00000000000E+00 0. -1.
          2   -1    0    0  502    0 -0.00000000000E+00 -0.00000000000E+00 -0.48859382574E+03  0.48859382574E+03  0.00000000000E+00 0. -1.
         24    2    1    2    0    0  0.65184313989E+02 -0.94840574079E+02 -0.32271956878E+03  0.35157048741E+03  0.78804557376E+02 0.  0.
         23    2    1    2    0    0 -0.40511492807E+02  0.61754465027E+01 -0.52850780712E+02  0.11966371864E+03  0.99231463496E+02 0.  0.
        -11    1    3    3    0    0 -0.27643717230E+01 -0.64601065586E+02 -0.13618841379E+03  0.15075882554E+03  0.00000000000E+00 0.  1.
         12    1    3    3    0    0  0.67948685712E+02 -0.30239508493E+02 -0.18653115499E+03  0.20081166187E+03  0.00000000000E+00 0. -1.
        -11    1    4    4    0    0 -0.14806775794E+02  0.45789505047E+02 -0.54122694129E+02  0.72423652225E+02  0.00000000000E+00 0.  1.
         11    1    4    4    0    0 -0.25704717014E+02 -0.39614058544E+02  0.12719134167E+01  0.47240066414E+02  0.00000000000E+00 0. -1.
          1    1    1    2  501    0 -0.24672821182E+02  0.88665127576E+02 -0.32709373454E+02  0.97673722489E+02  0.00000000000E+00 0. -1.
<scales pt_clust_5="13000.00000" pt_clust_6="13000.00000" pt_clust_7="13000.00000" pt_clust_8="13000.00000" pt_clust_9="92.03398"></scales>
<clustering>
<clus scale="   78.805">  5  6 -1 -1</clus>
<clus scale="   92.034">  1  9  2 -1</clus>
<clus scale="   99.231">  7  8 -1 -1</clus>
<clus scale="  119.089">  2  5  1 -1</clus>
<clus scale="   92.034">  1  5  2 -1</clus>
</clustering>
</event>
<event>
 9    2  0.4883225E-005  0.1237560E+03  0.7546771E-02  0.1240119E+00
         21   -1    0    0  501  502  0.00000000000E+00  0.00000000000E+00  0.29390123889E+02  0.29390123889E+02  0.00000000000E+00 0.  1.
          2   -1    0    0  502    0 -0.00000000000E+00 -0.00000000000E+00 -0.73638577336E+03  0.73638577336E+03  0.00000000000E+00 0. -1.
         24    2    1    2    0    0 -0.19275208558E+02 -0.88926900401E+02 -0.49526803045E+03  0.50975664091E+03  0.79258335082E+02 0.  0.
         23    2    1    2    0    0  0.26806262837E+02  0.64108026083E+02 -0.14378015431E+03  0.18328995509E+03  0.89966994650E+02 0.  0.
        -11    1    3    3    0    0  0.22602120738E+02 -0.62422642538E+01 -0.54186495740E+02  0.59042341124E+02  0.00000000000E+00 0.  1.
         12    1    3    3    0    0 -0.41877329296E+02 -0.82684636147E+02 -0.44108153471E+03  0.45071429978E+03  0.00000000000E+00 0. -1.
        -13    1    4    4    0    0 -0.11031339542E+02  0.58039698853E+02 -0.36677334100E+02  0.69537931604E+02  0.00000000000E+00 0.  1.
         13    1    4    4    0    0  0.37837602380E+02  0.60683272302E+01 -0.10710282021E+03  0.11375202348E+03  0.00000000000E+00 0. -1.
          1    1    1    2  501    0 -0.75310542790E+01  0.24818874318E+02 -0.67947464708E+02  0.72729301256E+02  0.00000000000E+00 0. -1.
<scales pt_clust_5="13000.00000" pt_clust_6="13000.00000" pt_clust_7="13000.00000" pt_clust_8="13000.00000" pt_clust_9="25.93634"></scales>
<clustering>
<clus scale="   25.936">  1  9  2 -1</clus>
<clus scale="   79.258">  5  6 -1 -1</clus>
<clus scale="   89.967">  7  8 -1 -1</clus>
<clus scale="  116.204">  2  5  1 -1</clus>
<clus scale="   25.936">  1  5  2 -1</clus>
</clustering>
</event>
<event>
 9    2  0.4883225E-005  0.1974471E+03  0.7546771E-02  0.1152867E+00
          2   -1    0    0  502    0 -0.00000000000E+00  0.00000000000E+00  0.80756238439E+03  0.80756238439E+03  0.00000000000E+00 0. -1.
         21   -1    0    0  501  502  0.00000000000E+00 -0.00000000000E+00 -0.87810714568E+02  0.87810714568E+02  0.00000000000E+00 0. -1.
         23    2    1    2    0    0 -0.10942109762E+03  0.14540013578E+03  0.60609324395E+03  0.63909272419E+03  0.89310210295E+02 0.  0.
         24    2    1    2    0    0  0.94219658369E+02 -0.11900170603E+03  0.38860235035E+02  0.17551695359E+03  0.79103306307E+02 0.  0.
        -13    1    4    4    0    0  0.66518804482E+02 -0.29625401312E+02  0.37567571058E+02  0.81937403839E+02  0.00000000000E+00 0.  1.
         14    1    4    4    0    0  0.27700853887E+02 -0.89376304719E+02  0.12926639772E+01  0.93579549750E+02  0.00000000000E+00 0. -1.
        -11    1    3    3    0    0 -0.70289955378E+02  0.94874027538E+02  0.24010903027E+03  0.26757074830E+03  0.00000000000E+00 0.  1.
         11    1    3    3    0    0 -0.39131142240E+02  0.50526108237E+02  0.36598421368E+03  0.37152197589E+03  0.00000000000E+00 0. -1.
          1    1    1    2  501    0  0.15201439249E+02 -0.26398429745E+02  0.74798190832E+02  0.80763421176E+02  0.00000000000E+00 0. -1.
<scales pt_clust_5="13000.00000" pt_clust_6="13000.00000" pt_clust_7="13000.00000" pt_clust_8="13000.00000" pt_clust_9="30.46247"></scales>
<clustering>
<clus scale="   30.462">  2  9  1 -1</clus>
<clus scale="   79.103">  5  6 -1 -1</clus>
<clus scale="   89.310">  7  8 -1 -1</clus>
<clus scale="  193.045">  2  5  1 -1</clus>
<clus scale="   30.462">  2  5  1 -1</clus>
</clustering>
</event>
<event>
 9    2  0.4883225E-005  0.1014225E+03  0.7546771E-02  0.1289459E+00
         21   -1    0    0  501  502  0.00000000000E+00  0.00000000000E+00  0.87663168960E+03  0.87663168960E+03  0.00000000000E+00 0.  1.
         -3   -1    0    0    0  501 -0.00000000000E+00 -0.00000000000E+00 -0.28626204169E+02  0.28626204169E+02  0.00000000000E+00 0.  1.
         23    2    1    2    0    0 -0.23556992168E+02  0.55940005145E+02  0.15355900928E+03  0.19132554882E+03  0.96648229401E+02 0.  0.
         24    2    1    2    0    0  0.14315662958E+02  0.21481174622E+02  0.23409073956E+03  0.24702031313E+03  0.74526382450E+02 0.  0.
        -11    1    4    4    0    0 -0.99704966610E+01  0.43471941882E+02  0.11052132379E+03  0.11918130535E+03  0.00000000000E+00 0.  1.
         12    1    4    4    0    0  0.24286159619E+02 -0.21990767260E+02  0.12356941578E+03  0.12783900778E+03  0.00000000000E+00 0. -1.
        -11    1    3    3    0    0 -0.12566955642E+02  0.82458953963E+02  0.97244894100E+02  0.12811704372E+03  0.00000000000E+00 0.  1.
         11    1    3    3    0    0 -0.10990036526E+02 -0.26518948818E+02  0.56314115175E+02  0.63208505102E+02  0.00000000000E+00 0. -1.
         -4    1    1    2    0  502  0.92413292100E+01 -0.77421179767E+02  0.46035573660E+03  0.46691203182E+03  0.00000000000E+00 0.  1.
<scales pt_clust_5="13000.00000" pt_clust_6="13000.00000" pt_clust_7="13000.00000" pt_clust_8="13000.00000" pt_clust_9="77.97077"></scales>
<clustering>
<clus scale="   74.526">  5  6 -1 -1</clus>
<clus scale="   77.971">  1  9  2 -1</clus>
<clus scale="   80.621">  1  5  2 -1</clus>
<clus scale="   96.648">  7  8 -1 -1</clus>
<clus scale="   77.971">  1  5  2 -1</clus>
</clustering>
</event>
<event>
 9    2  0.4883225E-005  0.1194115E+03  0.7546771E-02  0.1262221E+00
         21   -1    0    0  501  502  0.00000000000E+00  0.00000000000E+00  0.55950299348E+02  0.55950299348E+02  0.00000000000E+00 0. -1.
          2   -1    0    0  502    0 -0.00000000000E+00 -0.00000000000E+00 -0.53889590906E+03  0.53889590906E+03  0.00000000000E+00 0. -1.
         24    2    1    2    0    0  0.11987265318E+02 -0.18327406910E+02 -0.16192306563E+03  0.18206951686E+03  0.80315885178E+02 0.  0.
         23    2    1    2    0    0  0.71330103045E+02  0.33886180129E+01 -0.48301709382E+02  0.12722178446E+03  0.93556725995E+02 0.  0.
        -11    1    3    3    0    0  0.11922553639E+02  0.29643976061E+02 -0.90998738403E+02  0.96445233127E+02  0.00000000000E+00 0.  1.
         12    1    3    3    0    0  0.64711678889E-01 -0.47971382971E+02 -0.70924327224E+02  0.85624283728E+02  0.00000000000E+00 0. -1.
        -13    1    4    4    0    0  0.34082326779E+02  0.12428772733E+02  0.25306339429E+02  0.44232230394E+02  0.00000000000E+00 0. -1.
         13    1    4    4    0    0  0.37247776266E+02 -0.90401547198E+01 -0.73608048810E+02  0.82989554064E+02  0.00000000000E+00 0.  1.
          1    1    1    2  501    0 -0.83317368363E+02  0.14938788898E+02 -0.27272083470E+03  0.28555490710E+03  0.00000000000E+00 0. -1.
<scales pt_clust_5="13000.00000" pt_clust_6="13000.00000" pt_clust_7="13000.00000" pt_clust_8="13000.00000" pt_clust_9="74.20415"></scales>
<clustering>
<clus scale="   80.316">  5  6 -1 -1</clus>
<clus scale="   83.248">  2  5  1 -1</clus>
<clus scale="   74.204">  1  9  2 -1</clus>
<clus scale="   93.557">  7  8 -1 -1</clus>
<clus scale="   74.204">  1  5  2 -1</clus>
</clustering>
</event>
<event>
 9    2  0.4883225E-005  0.1205550E+03  0.7546771E-02  0.1245525E+00
         21   -1    0    0  501  502  0.00000000000E+00  0.00000000000E+00  0.34177061456E+03  0.34177061456E+03  0.00000000000E+00 0.  1.
         -1   -1    0    0    0  501 -0.00000000000E+00 -0.00000000000E+00 -0.10344529837E+03  0.10344529837E+03  0.00000000000E+00 0.  1.
         23    2    1    2    0    0 -0.27335780083E+02 -0.83438959909E+02 -0.31249995090E+02  0.13043677686E+03  0.91257249904E+02 0.  0.
         24    2    1    2    0    0  0.30491188811E+02  0.49910413551E+02  0.97226273703E+02  0.13917073429E+03  0.80590216573E+02 0.  0.
        -11    1    4    4    0    0  0.94727072026E+01 -0.22306830568E+02  0.26790335045E+02  0.36125460877E+02  0.00000000000E+00 0.  1.
         12    1    4    4    0    0  0.21018481608E+02  0.72217244119E+02  0.70435938658E+02  0.10304527341E+03  0.00000000000E+00 0. -1.
        -11    1    3    3    0    0 -0.56739783013E+02 -0.27426576431E+02 -0.20482284644E+02  0.66265707990E+02  0.00000000000E+00 0. -1.
         11    1    3    3    0    0  0.29404002930E+02 -0.56012383478E+02 -0.10767710446E+02  0.64171068866E+02  0.00000000000E+00 0.  1.
         -2    1    1    2    0  502 -0.31554087276E+01  0.33528546358E+02  0.17234903758E+03  0.17560840179E+03  0.00000000000E+00 0.  1.
<scales pt_clust_5="13000.00000" pt_clust_6="13000.00000" pt_clust_7="13000.00000" pt_clust_8="13000.00000" pt_clust_9="33.67670"></scales>
<clustering>
<clus scale="   33.677">  1  9  2 -1</clus>
<clus scale="   80.590">  5  6 -1 -1</clus>
<clus scale="   91.257">  7  8 -1 -1</clus>
<clus scale="  112.696">  1  5  2 -1</clus>
<clus scale="   33.677">  1  5  2 -1</clus>
</clustering>
</event>
<event>
 9    2  0.4883225E-005  0.1249972E+03  0.7546771E-02  0.1236494E+00
          2   -1    0    0  502    0 -0.00000000000E+00  0.00000000000E+00  0.87429762165E+03  0.87429762165E+03  0.00000000000E+00 0. -1.
         21   -1    0    0  501  502  0.00000000000E+00 -0.00000000000E+00 -0.40697246925E+02  0.40697246925E+02  0.00000000000E+00 0.  1.
         23    2    1    2    0    0 -0.59224508263E+02 -0.51525271244E+02  0.32239598772E+03  0.34377103415E+03  0.89871881384E+02 0.  0.
         24    2    1    2    0    0  0.55378360528E+02  0.99116299362E+02  0.14807254035E+03  0.20496649748E+03  0.84823253130E+02 0.  0.
        -11    1    4    4    0    0  0.13297287474E+02  0.75807731540E+02  0.40149835035E+02  0.86808059930E+02  0.00000000000E+00 0.  1.
         12    1    4    4    0    0  0.42081073054E+02  0.23308567822E+02  0.10792270531E+03  0.11815843755E+03  0.00000000000E+00 0. -1.
        -11    1    3    3    0    0 -0.11346976198E+02  0.25509444822E+02  0.60983251069E+02  0.67070429810E+02  0.00000000000E+00 0. -1.
         11    1    3    3    0    0 -0.47877532065E+02 -0.77034716067E+02  0.26141273665E+03  0.27670060434E+03  0.00000000000E+00 0.  1.
          1    1    1    2  501    0  0.38461477345E+01 -0.47591028117E+02  0.36313184666E+03  0.36625733695E+03  0.00000000000E+00 0. -1.
<scales pt_clust_5="13000.00000" pt_clust_6="13000.00000" pt_clust_7="13000.00000" pt_clust_8="13000.00000" pt_clust_9="47.74622"></scales>
<clustering>
<clus scale="   47.746">  2  9  1 -1</clus>
<clus scale="   84.823">  5  6 -1 -1</clus>
<clus scale="   89.872">  7  8 -1 -1</clus>
<clus scale="  121.418">  2  5  1 -1</clus>
<clus scale="   47.746">  2  5  1 -1</clus>
</clustering>
</event>
<event>
 9    2  0.4883225E-005  0.1170246E+03  0.7546771E-02  0.1254622E+00
         -3   -1    0    0    0  501 -0.00000000000E+00  0.00000000000E+00  0.85964522968E+02  0.85964522968E+02  0.00000000000E+00 0.  1.
         21   -1    0    0  501  502  0.00000000000E+00 -0.00000000000E+00 -0.42519778586E+03  0.42519778586E+03  0.00000000000E+00 0.  1.
         24    2    1    2    0    0 -0.56863361198E+02 -0.29556577669E+02  0.27481284381E+01  0.10276978621E+03  0.80293484282E+02 0.  0.
         23    2    1    2    0    0 -0.35746959083E+02 -0.30064636991E+02 -0.22102132456E+03  0.24479943470E+03  0.94311239196E+02 0.  0.
        -13    1    3    3    0    0 -0.46177838745E+02 -0.50875433892E+02  0.21976434746E+02  0.72136441893E+02  0.00000000000E+00 0.  1.
         14    1    3    3    0    0 -0.10685522453E+02  0.21318856223E+02 -0.19228306308E+02  0.30633344320E+02  0.00000000000E+00 0. -1.
        -11    1    4    4    0    0 -0.13641749015E+02  0.27972280023E+02 -0.13597669047E+03  0.13949267406E+03  0.00000000000E+00 0.  1.
         11    1    4    4    0    0 -0.22105210068E+02 -0.58036917014E+02 -0.85044634085E+02  0.10530676063E+03  0.00000000000E+00 0. -1.
         -4    1    1    2    0  502  0.92610320281E+02  0.59621214660E+02 -0.12096006677E+03  0.16359308791E+03  0.00000000000E+00 0.  1.
<scales pt_clust_5="13000.00000" pt_clust_6="13000.00000" pt_clust_7="13000.00000" pt_clust_8="13000.00000" pt_clust_9="69.28307"></scales>
<clustering>
<clus scale="   80.293">  5  6 -1 -1</clus>
<clus scale="   94.311">  7  8 -1 -1</clus>
<clus scale="  102.733">  1  5  2 -1</clus>
<clus scale="   69.283">  2  9  1 -1</clus>
<clus scale="   69.283">  2  5  1 -1</clus>
</clustering>
</event>
<event>
 9    2  0.4883225E-005  0.2052107E+03  0.7546771E-02  0.1182584E+00
         21   -1    0    0  501  502  0.00000000000E+00  0.00000000000E+00  0.34573698040E+03  0.34573698040E+03  0.00000000000E+00 0.  1.
          2   -1    0    0  502    0 -0.00000000000E+00 -0.00000000000E+00 -0.34766441130E+03  0.34766441130E+03  0.00000000000E+00 0. -1.
         24    2    1    2    0    0 -0.13622061680E+02  0.22221958820E+02 -0.21149055815E+03  0.22864493272E+03  0.82890729609E+02 0.  0.
         23    2    1    2    0    0 -0.17342872610E+03 -0.24146967215E+01  0.19479144039E+02  0.19733872300E+03  0.92085724966E+02 0.  0.
        -13    1    3    3    0    0  0.22448425300E+02  0.57325441519E+01 -0.13697999320E+02  0.26915219603E+02  0.00000000000E+00 0.  1.
         14    1    3    3    0    0 -0.36070486980E+02  0.16489414668E+02 -0.19779255883E+03  0.20172971312E+03  0.00000000000E+00 0. -1.
        -11    1    4    4    0    0 -0.72529962692E+02 -0.45664589000E+02 -0.75867843875E+00  0.85711293127E+02  0.00000000000E+00 0. -1.
         11    1    4    4    0    0 -0.10089876341E+03  0.43249892278E+02  0.20237822478E+02  0.11162742987E+03  0.00000000000E+00 0.  1.
          1    1    1    2  501    0  0.18705078779E+03 -0.19807262098E+02  0.19008398321E+03  0.26741773598E+03  0.00000000000E+00 0. -1.
<scales pt_clust_5="13000.00000" pt_clust_6="13000.00000" pt_clust_7="13000.00000" pt_clust_8="13000.00000" pt_clust_9="183.38932"></scales>
<clustering>
<clus scale="   82.891">  5  6 -1 -1</clus>
<clus scale="   86.892">  2  5  1 -1</clus>
<clus scale="   92.086">  7  8 -1 -1</clus>
<clus scale="  183.389">  1  9  2 -1</clus>
<clus scale="  183.389">  1  5  2 -1</clus>
</clustering>
</event>
<event>
 9    2  0.4883225E-005  0.1993093E+03  0.7546771E-02  0.1151314E+00
         21   -1    0    0  501  502  0.00000000000E+00  0.00000000000E+00  0.51077235055E+03  0.51077235055E+03  0.00000000000E+00 0. -1.
          4   -1    0    0  502    0 -0.00000000000E+00 -0.00000000000E+00 -0.53484476903E+03  0.53484476903E+03  0.00000000000E+00 0. -1.
         24    2    1    2    0    0  0.16904401754E+03 -0.53182711610E+02 -0.46456630535E+03  0.50343378000E+03  0.78863414191E+02 0.  0.
         23    2    1    2    0    0 -0.16083926398E+03  0.11309674759E+03  0.20084332160E+03  0.29502063382E+03  0.89660422659E+02 0.  0.
        -13    1    3    3    0    0  0.87444113435E+02 -0.55993369963E+02 -0.18453863269E+03  0.21174569042E+03  0.00000000000E+00 0.  1.
         14    1    3    3    0    0  0.81599904109E+02  0.28106583536E+01 -0.28002767266E+03  0.29168808958E+03  0.00000000000E+00 0. -1.
        -11    1    4    4    0    0 -0.67665659477E+02  0.10580702204E+02  0.10926798075E+03  0.12895768434E+03  0.00000000000E+00 0.  1.
         11    1    4    4    0    0 -0.93173604506E+02  0.10251604539E+03  0.91575340847E+02  0.16606294948E+03  0.00000000000E+00 0. -1.
          3    1    1    2  501    0 -0.82047535611E+01 -0.59914035983E+02  0.23965056527E+03  0.24716270577E+03  0.00000000000E+00 0. -1.
<scales pt_clust_5="13000.00000" pt_clust_6="13000.00000" pt_clust_7="13000.00000" pt_clust_8="13000.00000" pt_clust_9="60.47321"></scales>
<clustering>
<clus scale="   60.473">  1  9  2 -1</clus>
<clus scale="   78.863">  5  6 -1 -1</clus>
<clus scale="   89.660">  7  8 -1 -1</clus>
<clus scale="  194.691">  2  5  1 -1</clus>
<clus scale="   60.473">  1  5  2 -1</clus>
</clustering>
</event>
<event>
 9    2  0.4883225E-005  0.3136308E+03  0.7546771E-02  0.1097349E+00
         21   -1    0    0  501  502  0.00000000000E+00  0.00000000000E+00  0.31135435351E+03  0.31135435351E+03  0.00000000000E+00 0.  1.
          2   -1    0    0  502    0 -0.00000000000E+00 -0.00000000000E+00 -0.54866014957E+03  0.54866014957E+03  0.00000000000E+00 0. -1.
         24    2    1    2    0    0  0.68575932805E+02 -0.15886495074E+03 -0.53115523877E+02  0.19804348650E+03  0.80369350710E+02 0.  0.
         23    2    1    2    0    0  0.16353876056E+02  0.36845152197E+03 -0.21203649979E+02  0.38321620982E+03  0.10188766064E+03 0.  0.
        -13    1    3    3    0    0  0.43419458585E+02 -0.52767971747E+02 -0.56923896516E+02  0.88938395649E+02  0.00000000000E+00 0.  1.
         14    1    3    3    0    0  0.25156474221E+02 -0.10609697900E+03  0.38083726392E+01  0.10910509085E+03  0.00000000000E+00 0. -1.
        -13    1    4    4    0    0 -0.21311641159E+02  0.30298947798E+03  0.34869292601E+01  0.30375807560E+03  0.00000000000E+00 0.  1.
         13    1    4    4    0    0  0.37665517215E+02  0.65462043993E+02 -0.24690579239E+02  0.79458134222E+02  0.00000000000E+00 0. -1.
          1    1    1    2  501    0 -0.84929808862E+02 -0.20958657123E+03 -0.16298662221E+03  0.27875480676E+03  0.00000000000E+00 0. -1.
<scales pt_clust_5="13000.00000" pt_clust_6="13000.00000" pt_clust_7="13000.00000" pt_clust_8="13000.00000" pt_clust_9="296.61971"></scales>
<clustering>
<clus scale="   80.369">  5  6 -1 -1</clus>
<clus scale="  101.888">  7  8 -1 -1</clus>
<clus scale="  190.788">  2  5  1 -1</clus>
<clus scale="  296.620">  1  9  2 -1</clus>
<clus scale="  296.620">  1  5  2 -1</clus>
</clustering>
</event>
<event>
 9    2  0.4883225E-005  0.1005421E+03  0.7546771E-02  0.1283999E+00
         21   -1    0    0  501  502  0.00000000000E+00  0.00000000000E+00  0.24241022311E+03  0.24241022311E+03  0.00000000000E+00 0. -1.
          2   -1    0    0  502    0 -0.00000000000E+00 -0.00000000000E+00 -0.13420349170E+03  0.13420349170E+03  0.00000000000E+00 0. -1.
         23    2    1    2    0    0 -0.52650703867E+02 -0.74213504012E+01 -0.53321422816E+02  0.11824844546E+03  0.91172077208E+02 0.  0.
         24    2    1    2    0    0  0.45796390062E+01 -0.70501866241E+02  0.67563668006E+02  0.12717007265E+03  0.81338133163E+02 0.  0.
        -13    1    4    4    0    0  0.41982899624E+02 -0.25269589928E+02  0.28964138364E+02  0.56921325943E+02  0.00000000000E+00 0.  1.
         14    1    4    4    0    0 -0.37403260618E+02 -0.45232276313E+02  0.38599529642E+02  0.70248746707E+02  0.00000000000E+00 0. -1.
        -13    1    3    3    0    0 -0.19126708843E+02  0.59627808254E+01  0.24983276863E+02  0.32024207549E+02  0.00000000000E+00 0.  1.
         13    1    3    3    0    0 -0.33523995024E+02 -0.13384131227E+02 -0.78304699679E+02  0.86224237908E+02  0.00000000000E+00 0. -1.
          1    1    1    2  501    0  0.48071064861E+02  0.77923216643E+02  0.93964486219E+02  0.13119519671E+03  0.00000000000E+00 0. -1.
<scales pt_clust_5="13000.00000" pt_clust_6="13000.00000" pt_clust_7="13000.00000" pt_clust_8="13000.00000" pt_clust_9="91.55793"></scales>
<clustering>
<clus scale="   81.338">  5  6 -1 -1</clus>
<clus scale="   91.172">  7  8 -1 -1</clus>
<clus scale="   91.558">  1  9  2 -1</clus>
<clus scale="   91.718">  1  5  2 -1</clus>
<clus scale="   91.558">  1  5  2 -1</clus>
</clustering>
</event>
<event>
 9    2  0.4883225E-005  0.1136963E+03  0.7546771E-02  0.1258357E+00
         21   -1    0    0  501  502  0.00000000000E+00  0.00000000000E+00  0.15931265826E+03  0.15931265826E+03  0.00000000000E+00 0.  1.
          2   -1    0    0  502    0 -0.00000000000E+00 -0.00000000000E+00 -0.30422162066E+03  0.30422162066E+03  0.00000000000E+00 0. -1.
         23    2    1    2    0    0 -0.43515177092E+02 -0.47684036148E+02 -0.25261405719E+03  0.27698520661E+03  0.93485853756E+02 0.  0.
         24    2    1    2    0    0  0.67044443589E+02  0.26508891821E+02  0.47882131395E+02  0.11886746426E+03  0.81480652857E+02 0.  0.
        -13    1    4    4    0    0  0.62140870600E+02  0.89858253427E+01  0.67447262541E+02  0.92148608673E+02  0.00000000000E+00 0.  1.
         14    1    4    4    0    0  0.49035729888E+01  0.17523066479E+02 -0.19565131147E+02  0.26718855583E+02  0.00000000000E+00 0. -1.
        -13    1    3    3    0    0 -0.27592347243E+02  0.26168737658E+02 -0.81559294748E+02  0.89989216114E+02  0.00000000000E+00 0.  1.
         13    1    3    3    0    0 -0.15922829849E+02 -0.73852773806E+02 -0.17105476244E+03  0.18699599050E+03  0.00000000000E+00 0. -1.
          1    1    1    2  501    0 -0.23529266497E+02  0.21175144327E+02  0.59822963390E+02  0.67681608048E+02  0.00000000000E+00 0. -1.
<scales pt_clust_5="13000.00000" pt_clust_6="13000.00000" pt_clust_7="13000.00000" pt_clust_8="13000.00000" pt_clust_9="31.65459"></scales>
<clustering>
<clus scale="   31.655">  1  9  2 -1</clus>
<clus scale="   81.481">  5  6 -1 -1</clus>
<clus scale="   93.486">  7  8 -1 -1</clus>
<clus scale="  104.050">  1  5  2 -1</clus>
<clus scale="   31.655">  1  5  2 -1</clus>
</clustering>
</event>
<event>
 9    2  0.4883225E-005  0.9926311E+02  0.7546771E-02  0.1287377E+00
          2   -1    0    0  502    0 -0.00000000000E+00  0.00000000000E+00  0.50654369924E+03  0.50654369924E+03  0.00000000000E+00 0. -1.
         21   -1    0    0  501  502  0.00000000000E+00 -0.00000000000E+00 -0.33052648881E+02  0.33052648881E+02  0.00000000000E+00 0. -1.
         24    2    1    2    0    0 -0.20852974824E+02 -0.32770909488E+02  0.31362157702E+03  0.32619031179E+03  0.80826028390E+02 0.  0.
         23    2    1    2    0    0 -0.64796244202E+01  0.44114099630E+02  0.84219170637E+02  0.13217360904E+03  0.91591238152E+02 0.  0.
        -13    1    3    3    0    0  0.13181736227E+02  0.20906327192E+02  0.11584395008E+03  0.11845105933E+03  0.00000000000E+00 0.  1.
         14    1    3    3    0    0 -0.34034711052E+02 -0.53677236680E+02  0.19777762695E+03  0.20773925246E+03  0.00000000000E+00 0. -1.
        -13    1    4    4    0    0 -0.41912153993E+02 -0.39438629905E+01  0.32557295593E+02  0.53218043970E+02  0.00000000000E+00 0.  1.
         13    1    4    4    0    0  0.35432529573E+02  0.48057962621E+02  0.51661875044E+02  0.78955565075E+02  0.00000000000E+00 0. -1.
          1    1    1    2  501    0  0.27332599244E+02 -0.11343190142E+02  0.75650302697E+02  0.81232427282E+02  0.00000000000E+00 0. -1.
<scales pt_clust_5="13000.00000" pt_clust_6="13000.00000" pt_clust_7="13000.00000" pt_clust_8="13000.00000" pt_clust_9="29.59290"></scales>
<clustering>
<clus scale="   29.593">  2  9  1 -1</clus>
<clus scale="   80.826">  5  6 -1 -1</clus>
<clus scale="   89.426">  1  5  2 -1</clus>
<clus scale="   91.591">  7  8 -1 -1</clus>
<clus scale="   29.593">  2  5  1 -1</clus>
</clustering>
</event>
<event>
 9    2  0.4883225E-005  0.1001970E+03  0.7546771E-02  0.1282332E+00
          2   -1    0    0  502    0 -0.00000000000E+00  0.00000000000E+00  0.95341442692E+03  0.95341442692E+03  0.00000000000E+00 0. -1.
         21   -1    0    0  501  502  0.00000000000E+00 -0.00000000000E+00 -0.25383156920E+02  0.25383156920E+02  0.00000000000E+00 0. -1.
         24    2    1    2    0    0 -0.19062837592E+02  0.54945307165E+02  0.59805515612E+03  0.60637382312E+03  0.81466956801E+02 0.  0.
         23    2    1    2    0    0 -0.38956647159E+02 -0.38755773554E+02  0.26300918784E+03  0.28235195163E+03  0.86770740219E+02 0.  0.
        -13    1    3    3    0    0  0.23367579924E+01  0.67467246791E+02  0.31061309829E+03  0.31786441552E+03  0.00000000000E+00 0.  1.
         14    1    3    3    0    0 -0.21399595585E+02 -0.12521939626E+02  0.28744205783E+03  0.28850940760E+03  0.00000000000E+00 0. -1.
        -13    1    4    4    0    0  0.21509951266E+02  0.10229233930E+02  0.45792684984E+02  0.51616714622E+02  0.00000000000E+00 0.  1.
         13    1    4    4    0    0 -0.60466598425E+02 -0.48985007484E+02  0.21721650286E+03  0.23073523701E+03  0.00000000000E+00 0. -1.
          1    1    1    2  501    0  0.58019484751E+02 -0.16189533611E+02  0.66966926041E+02  0.90071809090E+02  0.00000000000E+00 0. -1.
<scales pt_clust_5="13000.00000" pt_clust_6="13000.00000" pt_clust_7="13000.00000" pt_clust_8="13000.00000" pt_clust_9="60.23588"></scales>
<clustering>
<clus scale="   60.236">  2  9  1 -1</clus>
<clus scale="   81.467">  5  6 -1 -1</clus>
<clus scale="   86.771">  7  8 -1 -1</clus>
<clus scale="   95.641">  1  5  2 -1</clus>
<clus scale="   60.236">  2  5  1 -1</clus>
</clustering>
</event>
<event>
 9    2  0.4883225E-005  0.1103349E+03  0.7546771E-02  0.1262256E+00
         21   -1    0    0  501  502  0.00000000000E+00  0.00000000000E+00  0.21848898092E+03  0.21848898092E+03  0.00000000000E+00 0.  1.
         -1   -1    0    0    0  501 -0.00000000000E+00 -0.00000000000E+00 -0.19920481776E+03  0.19920481776E+03  0.00000000000E+00 0.  1.
         23    2    1    2    0    0  0.28178261368E+02 -0.14908914830E+01 -0.50032054218E+02  0.10736858405E+03  0.90711461350E+02 0.  0.
         24    2    1    2    0    0 -0.83621207097E+02 -0.38643790980E+02 -0.73312166413E+02  0.15212417535E+03  0.96339203462E+02 0.  0.
        -11    1    4    4    0    0 -0.77054639658E+02 -0.65848817353E+02 -0.40893749619E+02  0.10929676572E+03  0.00000000000E+00 0.  1.
         12    1    4    4    0    0 -0.65665674394E+01  0.27205026372E+02 -0.32418416793E+02  0.42827409626E+02  0.00000000000E+00 0. -1.
        -13    1    3    3    0    0 -0.25239447716E+02 -0.49225702520E+00 -0.47607663505E+02  0.53886562912E+02  0.00000000000E+00 0. -1.
         13    1    3    3    0    0  0.53417709084E+02 -0.99863445780E+00 -0.24243907123E+01  0.53482021137E+02  0.00000000000E+00 0.  1.
         -2    1    1    2    0  502  0.55442945729E+02  0.40134682463E+02  0.14262838379E+03  0.15820103928E+03  0.00000000000E+00 0.  1.
<scales pt_clust_5="13000.00000" pt_clust_6="13000.00000" pt_clust_7="13000.00000" pt_clust_8="13000.00000" pt_clust_9="68.44496"></scales>
<clustering>
<clus scale="   68.445">  1  9  2 -1</clus>
<clus scale="   90.711">  7  8 -1 -1</clus>
<clus scale="   96.339">  5  6 -1 -1</clus>
<clus scale="  105.457">  2  7  1 -1</clus>
<clus scale="   68.445">  1  5  2 -1</clus>
</clustering>
</event>
<event>
 9    2  0.4883225E-005  0.1617448E+03  0.7546771E-02  0.1187894E+00
          4   -1    0    0  502    0 -0.00000000000E+00  0.00000000000E+00  0.10581845218E+04  0.10581845218E+04  0.00000000000E+00 0. -1.
         21   -1    0    0  501  502  0.00000000000E+00 -0.00000000000E+00 -0.41213537637E+02  0.41213537637E+02  0.00000000000E+00 0. -1.
         24    2    1    2    0    0 -0.12156225596E+03 -0.68217735051E+02  0.80019387615E+03  0.81643466109E+03  0.82609169958E+02 0.  0.
         23    2    1    2    0    0  0.98875426209E+02  0.67379151221E+02  0.21227043725E+03  0.25981808460E+03  0.90168723096E+02 0.  0.
        -11    1    3    3    0    0 -0.11521200760E+03 -0.78574090853E+02  0.60505745440E+03  0.62092045994E+03  0.00000000000E+00 0.  1.
         12    1    3    3    0    0 -0.63502483597E+01  0.10356355803E+02  0.19513642174E+03  0.19551420115E+03  0.00000000000E+00 0. -1.
        -11    1    4    4    0    0  0.28937090890E+02  0.74108389718E+02  0.11358380751E+03  0.13867476333E+03  0.00000000000E+00 0. -1.
         11    1    4    4    0    0  0.69938335319E+02 -0.67292384966E+01  0.98686629739E+02  0.12114332126E+03  0.00000000000E+00 0.  1.
          3    1    1    2  501    0  0.22686829748E+02  0.83858382957E+00  0.45066707551E+01  0.23145313741E+02  0.00000000000E+00 0. -1.
<scales pt_clust_5="13000.00000" pt_clust_6="13000.00000" pt_clust_7="13000.00000" pt_clust_8="13000.00000" pt_clust_9="22.70232"></scales>
<clustering>
<clus scale="   22.702">  2  9  1 -1</clus>
<clus scale="   82.609">  5  6 -1 -1</clus>
<clus scale="   90.169">  7  8 -1 -1</clus>
<clus scale="  157.656">  1  5  2 -1</clus>
<clus scale="   22.702">  2  5  1 -1</clus>
</clustering>
</event>
<event>
 9    2  0.4883225E-005  0.1007605E+03  0.7546771E-02  0.1283921E+00
          4   -1    0    0  502    0 -0.00000000000E+00  0.00000000000E+00  0.76899129445E+02  0.76899129445E+02  0.00000000000E+00 0. -1.
         21   -1    0    0  501  502  0.00000000000E+00 -0.00000000000E+00 -0.16641172265E+03  0.16641172265E+03  0.00000000000E+00 0. -1.
         23    2    1    2    0    0 -0.38508959190E+02  0.30406322092E+01 -0.26298240068E+02  0.10628818820E+03  0.95464109157E+02 0.  0.
         24    2    1    2    0    0  0.24973712298E+02  0.16214606621E+02 -0.27974317320E+02  0.94645461831E+02  0.85373305206E+02 0.  0.
        -13    1    4    4    0    0  0.51099639688E+02 -0.36646274577E+01 -0.33699444024E+02  0.61320919744E+02  0.00000000000E+00 0.  1.
         14    1    4    4    0    0 -0.26125927390E+02  0.19879234079E+02  0.57251267042E+01  0.33324542088E+02  0.00000000000E+00 0. -1.
        -11    1    3    3    0    0 -0.53351584494E+02 -0.33123528333E+02 -0.23662314895E+02  0.67107859774E+02  0.00000000000E+00 0. -1.
         11    1    3    3    0    0  0.14842625305E+02  0.36164160543E+02 -0.26359251730E+01  0.39180328421E+02  0.00000000000E+00 0.  1.
          3    1    1    2  501    0  0.13535246892E+02 -0.19255238831E+02 -0.35240035820E+02  0.42377202072E+02  0.00000000000E+00 0. -1.
<scales pt_clust_5="13000.00000" pt_clust_6="13000.00000" pt_clust_7="13000.00000" pt_clust_8="13000.00000" pt_clust_9="23.53651"></scales>
<clustering>
<clus scale="   23.537">  2  9  1 -1</clus>
<clus scale="   85.373">  5  6 -1 -1</clus>
<clus scale="   91.257">  2  5  1 -1</clus>
<clus scale="   95.464">  7  8 -1 -1</clus>
<clus scale="   23.537">  2  5  1 -1</clus>
</clustering>
</event>
<event>
 9    2  0.4883225E-005  0.1129429E+03  0.7546771E-02  0.1259606E+00
          2   -1    0    0  502    0 -0.00000000000E+00  0.00000000000E+00  0.10064283895E+04  0.10064283895E+04  0.00000000000E+00 0. -1.
         21   -1    0    0  501  502  0.00000000000E+00 -0.00000000000E+00 -0.18926696478E+02  0.18926696478E+02  0.00000000000E+00 0.  1.
         24    2    1    2    0    0  0.55864739413E+02 -0.20625704451E+02  0.55604592054E+03  0.56492636653E+03  0.80052764183E+02 0.  0.
         23    2    1    2    0    0 -0.84771206368E+02 -0.40820178660E+00  0.33625643654E+03  0.35873839244E+03  0.91861412138E+02 0.  0.
        -13    1    3    3    0    0  0.19346734894E+02  0.24781734810E+02  0.91725105876E+02  0.96963527057E+02  0.00000000000E+00 0.  1.
         14    1    3    3    0    0  0.36518004518E+02 -0.45407439261E+02  0.46432081466E+03  0.46796283947E+03  0.00000000000E+00 0. -1.
        -13    1    4    4    0    0 -0.44747560896E+02 -0.39227777870E+02  0.10341372251E+03  0.11931286924E+03  0.00000000000E+00 0.  1.
         13    1    4    4    0    0 -0.40023645472E+02  0.38819576083E+02  0.23284271404E+03  0.23942552321E+03  0.00000000000E+00 0. -1.
          1    1    1    2  501    0  0.28906466955E+02  0.21033906237E+02  0.95199335943E+02  0.10169032701E+03  0.00000000000E+00 0. -1.
<scales pt_clust_5="13000.00000" pt_clust_6="13000.00000" pt_clust_7="13000.00000" pt_clust_8="13000.00000" pt_clust_9="35.74925"></scales>
<clustering>
<clus scale="   35.749">  2  9  1 -1</clus>
<clus scale="   80.053">  5  6 -1 -1</clus>
<clus scale="   91.861">  7  8 -1 -1</clus>
<clus scale="  103.567">  1  5  2 -1</clus>
<clus scale="   35.749">  2  5  1 -1</clus>
</clustering>
</event>
<event>
 9    2  0.4883225E-005  0.1177636E+03  0.7546771E-02  0.1250498E+00
          4   -1    0    0  502    0 -0.00000000000E+00  0.00000000000E+00  0.27314242422E+03  0.27314242422E+03  0.00000000000E+00 0. -1.
         21   -1    0    0  501  502  0.00000000000E+00 -0.00000000000E+00 -0.16328155884E+03  0.16328155884E+03  0.00000000000E+00 0. -1.
         23    2    1    2    0    0 -0.35559440538E+02 -0.43211095763E+02  0.11627783310E+03  0.15967399745E+03  0.94040301905E+02 0.  0.
         24    2    1    2    0    0  0.20297370125E+02 -0.86443771907E+02 -0.70232596545E+02  0.13143739157E+03  0.66773208322E+02 0.  0.
        -13    1    4    4    0    0  0.30351675758E+02 -0.18788759911E+02 -0.34822656882E+01  0.35865971263E+02  0.00000000000E+00 0.  1.
         14    1    4    4    0    0 -0.10054305633E+02 -0.67655011996E+02 -0.66750330856E+02  0.95571420306E+02  0.00000000000E+00 0. -1.
        -11    1    3    3    0    0 -0.60471679728E+02 -0.28975617360E+02  0.39767931545E+02  0.77960880125E+02  0.00000000000E+00 0.  1.
         11    1    3    3    0    0  0.24912239190E+02 -0.14235478403E+02  0.76509901555E+02  0.81713117323E+02  0.00000000000E+00 0. -1.
          3    1    1    2  501    0  0.15262070413E+02  0.12965486767E+03  0.63815628825E+02  0.14531259404E+03  0.00000000000E+00 0. -1.
<scales pt_clust_5="13000.00000" pt_clust_6="13000.00000" pt_clust_7="13000.00000" pt_clust_8="13000.00000" pt_clust_9="97.00320"></scales>
<clustering>
<clus scale="   66.773">  5  6 -1 -1</clus>
<clus scale="   94.040">  7  8 -1 -1</clus>
<clus scale="  109.431">  1  7  2 -1</clus>
<clus scale="   97.003">  2  9  1 -1</clus>
<clus scale="   97.003">  2  5  1 -1</clus>
</clustering>
</event>
<event>
 9    2  0.4883225E-005  0.1055871E+03  0.7546771E-02  0.1271411E+00
          2   -1    0    0  502    0 -0.00000000000E+00  0.00000000000E+00  0.79840840475E+03  0.79840840475E+03  0.00000000000E+00 0. -1.
         21   -1    0    0  501  502  0.00000000000E+00 -0.00000000000E+00 -0.29047065761E+02  0.29047065761E+02  0.00000000000E+00 0. -1.
         24    2    1    2    0    0  0.68725047230E+02 -0.55069919625E+02  0.29629971647E+03  0.32061401264E+03  0.85111661692E+02 0.  0.
         23    2    1    2    0    0 -0.14067636780E+02  0.98787671048E+01  0.15086402356E+03  0.17693091612E+03  0.90824594859E+02 0.  0.
        -13    1    3    3    0    0 -0.43371148831E+01 -0.34311202538E+02  0.16795402892E+03  0.17147776828E+03  0.00000000000E+00 0.  1.
         14    1    3    3    0    0  0.73062162113E+02 -0.20758717087E+02  0.12834568755E+03  0.14913624436E+03  0.00000000000E+00 0. -1.
        -11    1    4    4    0    0 -0.36359337540E+02 -0.11527525376E+00  0.14792177117E+03  0.15232486698E+03  0.00000000000E+00 0.  1.
         11    1    4    4    0    0  0.22291700760E+02  0.99940423586E+01  0.29422523950E+01  0.24606049146E+02  0.00000000000E+00 0. -1.
          1    1    1    2  501    0 -0.54657410450E+02  0.45191152520E+02  0.32219759895E+03  0.32991054175E+03  0.00000000000E+00 0. -1.
<scales pt_clust_5="13000.00000" pt_clust_6="13000.00000" pt_clust_7="13000.00000" pt_clust_8="13000.00000" pt_clust_9="70.92022"></scales>
<clustering>
<clus scale="   70.920">  2  9  1 -1</clus>
<clus scale="   85.112">  5  6 -1 -1</clus>
<clus scale="   90.825">  7  8 -1 -1</clus>
<clus scale="  100.715">  1  5  2 -1</clus>
<clus scale="   70.920">  2  5  1 -1</clus>
</clustering>
</event>
<event>
 9    2  0.4883225E-005  0.2256578E+03  0.7546771E-02  0.1160117E+00
          2   -1    0    0  502    0 -0.00000000000E+00  0.00000000000E+00  0.67847622224E+03  0.67847622224E+03  0.00000000000E+00 0. -1.
         21   -1    0    0  501  502  0.00000000000E+00 -0.00000000000E+00 -0.29964797134E+03  0.29964797134E+03  0.00000000000E+00 0. -1.
         24    2    1    2    0    0  0.50265426216E+02  0.13847281482E+02  0.50842044145E+03  0.51999873143E+03  0.95859142102E+02 0.  0.
         23    2    1    2    0    0 -0.16840736048E+03 -0.16013381890E+03 -0.60200132885E+02  0.25769461289E+03  0.93694068607E+02 0.  0.
        -11    1    3    3    0    0 -0.68876883771E+01  0.43420335863E+02  0.17606767165E+03  0.18147338873E+03  0.00000000000E+00 0.  1.
         12    1    3    3    0    0  0.57153114593E+02 -0.29573054381E+02  0.33235276980E+03  0.33852534270E+03  0.00000000000E+00 0. -1.
        -11    1    4    4    0    0 -0.12153290155E+03 -0.12278475610E+03 -0.85353714444E+02  0.19269561245E+03  0.00000000000E+00 0.  1.
         11    1    4    4    0    0 -0.46874458938E+02 -0.37349062809E+02  0.25153581559E+02  0.64999000444E+02  0.00000000000E+00 0. -1.
          1    1    1    2  501    0  0.11814193427E+03  0.14628653742E+03 -0.69392057675E+02  0.20043084925E+03  0.00000000000E+00 0. -1.
<scales pt_clust_5="13000.00000" pt_clust_6="13000.00000" pt_clust_7="13000.00000" pt_clust_8="13000.00000" pt_clust_9="205.28729"></scales>
<clustering>
<clus scale="   93.694">  7  8 -1 -1</clus>
<clus scale="   95.859">  5  6 -1 -1</clus>
<clus scale="  109.121">  1  5  2 -1</clus>
<clus scale="  205.287">  2  9  1 -1</clus>
<clus scale="  205.287">  2  5  1 -1</clus>
</clustering>
</event>
<event>
 9    2  0.4883225E-005  0.1029322E+03  0.7546771E-02  0.1278323E+00
         21   -1    0    0  501  502  0.00000000000E+00  0.00000000000E+00  0.37157606526E+02  0.37157606526E+02  0.00000000000E+00 0.  1.
          2   -1    0    0  502    0 -0.00000000000E+00 -0.00000000000E+00 -0.42337527640E+03  0.42337527640E+03  0.00000000000E+00 0. -1.
         23    2    1    2    0    0 -0.11734588437E+02 -0.51496487165E+02 -0.27868608407E+03  0.29748532333E+03  0.89677173166E+02 0.  0.
         24    2    1    2    0    0  0.29912310876E+02  0.37563559305E+02 -0.63315800354E+02  0.11325206025E+03  0.80693068148E+02 0.  0.
        -13    1    4    4    0    0  0.50848397115E+02  0.46117282222E+02 -0.35126766097E+02  0.77111950469E+02  0.00000000000E+00 0.  1.
         14    1    4    4    0    0 -0.20936086239E+02 -0.85537229172E+01 -0.28189034257E+02  0.36140109782E+02  0.00000000000E+00 0. -1.
        -11    1    3    3    0    0 -0.33996728382E+02 -0.68216321257E+02 -0.20633114233E+03  0.21995859684E+03  0.00000000000E+00 0. -1.
         11    1    3    3    0    0  0.22262139945E+02  0.16719834092E+02 -0.72354941742E+02  0.77526726498E+02  0.00000000000E+00 0.  1.
          1    1    1    2  501    0 -0.18177722439E+02  0.13932927860E+02 -0.44215785450E+02  0.49795499343E+02  0.00000000000E+00 0. -1.
<scales pt_clust_5="13000.00000" pt_clust_6="13000.00000" pt_clust_7="13000.00000" pt_clust_8="13000.00000" pt_clust_9="22.90320"></scales>
<clustering>
<clus scale="   22.903">  1  9  2 -1</clus>
<clus scale="   80.693">  5  6 -1 -1</clus>
<clus scale="   89.677">  7  8 -1 -1</clus>
<clus scale="   95.207">  1  5  2 -1</clus>
<clus scale="   22.903">  1  5  2 -1</clus>
</clustering>
</event>
<event>
 9    2  0.4883225E-005  0.1413518E+03  0.7546771E-02  0.1233095E+00
          4   -1    0    0  502    0 -0.00000000000E+00  0.00000000000E+00  0.12655272001E+03  0.12655272001E+03  0.00000000000E+00 0. -1.
         21   -1    0    0  501  502  0.00000000000E+00 -0.00000000000E+00 -0.26905599824E+03  0.26905599824E+03  0.00000000000E+00 0. -1.
         24    2    1    2    0    0 -0.35240575302E+02 -0.14924248938E+02 -0.46875388048E+01  0.90138069768E+02  0.81475562272E+02 0.  0.
         23    2    1    2    0    0  0.93693227439E+02 -0.72876243384E+02 -0.26723500591E+02  0.15228081682E+03  0.91574745268E+02 0.  0.
        -13    1    3    3    0    0 -0.23886379251E+02 -0.21167336967E+02 -0.40783353255E+02  0.51787036706E+02  0.00000000000E+00 0.  1.
         14    1    3    3    0    0 -0.11354196050E+02  0.62430880293E+01  0.36095814451E+02  0.38351033062E+02  0.00000000000E+00 0. -1.
        -11    1    4    4    0    0  0.11233490397E+03 -0.61883480818E+02 -0.21910031668E+02  0.13011051201E+03  0.00000000000E+00 0.  1.
         11    1    4    4    0    0 -0.18641676527E+02 -0.10992762566E+02 -0.48134689231E+01  0.22170304816E+02  0.00000000000E+00 0. -1.
          3    1    1    2  501    0 -0.58452652138E+02  0.87800492322E+02 -0.11109223884E+03  0.15318983166E+03  0.00000000000E+00 0. -1.
<scales pt_clust_5="13000.00000" pt_clust_6="13000.00000" pt_clust_7="13000.00000" pt_clust_8="13000.00000" pt_clust_9="107.67730"></scales>
<clustering>
<clus scale="   81.476">  5  6 -1 -1</clus>
<clus scale="   90.016">  1  5  2 -1</clus>
<clus scale="   91.575">  7  8 -1 -1</clus>
<clus scale="  107.677">  2  9  1 -1</clus>
<clus scale="  107.677">  2  5  1 -1</clus>
</clustering>
</event>
<event>
 9    2  0.4883225E-005  0.3420467E+03  0.7546771E-02  0.1066219E+00
          2   -1    0    0  502    0 -0.00000000000E+00  0.00000000000E+00  0.24703357918E+04  0.24703357918E+04  0.00000000000E+00 0. -1.
         21   -1    0    0  501  502  0.00000000000E+00 -0.00000000000E+00 -0.11135959210E+03  0.11135959210E+03  0.00000000000E+00 0.  1.
         23    2    1    2    0    0 -0.59133520866E+02 -0.37691772123E+03  0.12219503371E+04  0.12832023544E+04  0.88780145314E+02 0.  0.
         24    2    1    2    0    0 -0.18344130245E+00  0.20996699483E+03  0.97772007212E+02  0.24424466075E+03  0.77523650200E+02 0.  0.
        -13    1    4    4    0    0  0.78537574875E+01  0.90430905217E+02  0.18835313114E+01  0.90790846539E+02  0.00000000000E+00 0.  1.
         14    1    4    4    0    0 -0.80371987900E+01  0.11953608961E+03  0.95888475900E+02  0.15345381421E+03  0.00000000000E+00 0. -1.
        -11    1    3    3    0    0 -0.31493300406E+02 -0.29824233842E+02  0.12439726635E+03  0.13174214500E+03  0.00000000000E+00 0.  1.
         11    1    3    3    0    0 -0.27640220460E+02 -0.34709348739E+03  0.10975530708E+04  0.11514602094E+04  0.00000000000E+00 0. -1.
          1    1    1    2  501    0  0.59316962168E+02  0.16695072640E+03  0.10392538554E+04  0.10542483687E+04  0.00000000000E+00 0. -1.
<scales pt_clust_5="13000.00000" pt_clust_6="13000.00000" pt_clust_7="13000.00000" pt_clust_8="13000.00000" pt_clust_9="177.17528"></scales>
<clustering>
<clus scale="   77.524">  5  6 -1 -1</clus>
<clus scale="   88.780">  7  8 -1 -1</clus>
<clus scale="  177.175">  2  9  1 -1</clus>
<clus scale="  339.299">  2  5  1 -1</clus>
<clus scale="  177.175">  2  5  1 -1</clus>
</clustering>
</event>
<event>
 9    2  0.4883225E-005  0.2445035E+03  0.7546771E-02  0.1146807E+00
          2   -1    0    0  502    0 -0.00000000000E+00  0.00000000000E+00  0.80200751789E+03  0.80200751789E+03  0.00000000000E+00 0. -1.
         21   -1    0    0  501  502  0.00000000000E+00 -0.00000000000E+00 -0.13799723035E+03  0.13799723035E+03  0.00000000000E+00 0.  1.
         23    2    1    2    0    0  0.54779014981E+02  0.49099554318E+02  0.30221267223E+03  0.32420131240E+03  0.91446623717E+02 0.  0.
         24    2    1    2    0    0 -0.16027911749E+03 -0.19950152395E+03  0.84266430602E+02  0.28297527809E+03  0.86509670681E+02 0.  0.
        -13    1    4    4    0    0 -0.16670332524E+03 -0.18880472357E+03  0.65167289008E+02  0.26016148417E+03  0.00000000000E+00 0.  1.
         14    1    4    4    0    0  0.64242077468E+01 -0.10696800386E+02  0.19099141594E+02  0.22813793926E+02  0.00000000000E+00 0. -1.
        -13    1    3    3    0    0  0.76162830446E+02  0.56387887110E+02  0.24272450567E+03  0.26056775742E+03  0.00000000000E+00 0.  1.
         13    1    3    3    0    0 -0.21383815465E+02 -0.72883327918E+01  0.59488166553E+02  0.63633554973E+02  0.00000000000E+00 0. -1.
          1    1    1    2  501    0  0.10550010251E+03  0.15040196964E+03  0.27753118471E+03  0.33282815775E+03  0.00000000000E+00 0. -1.
<scales pt_clust_5="13000.00000" pt_clust_6="13000.00000" pt_clust_7="13000.00000" pt_clust_8="13000.00000" pt_clust_9="228.68771"></scales>
<clustering>
<clus scale="   86.510">  5  6 -1 -1</clus>
<clus scale="   91.447">  7  8 -1 -1</clus>
<clus scale="  117.363">  1  7  2 -1</clus>
<clus scale="  228.688">  2  9  1 -1</clus>
<clus scale="  228.688">  2  5  1 -1</clus>
</clustering>
</event>
<event>
 9    2  0.4883225E-005  0.9199753E+02  0.7546771E-02  0.1304482E+00
          2   -1    0    0  502    0 -0.00000000000E+00  0.00000000000E+00  0.76603741498E+03  0.76603741498E+03  0.00000000000E+00 0. -1.
         21   -1    0    0  501  502  0.00000000000E+00 -0.00000000000E+00 -0.36664514649E+02  0.36664514649E+02  0.00000000000E+00 0. -1.
         24    2    1    2    0    0  0.73710643235E+01  0.24198473375E+02  0.47373116390E+03  0.48114004486E+03  0.80216135613E+02 0.  0.
         23    2    1    2    0    0  0.70035829691E+00  0.24347652567E+01  0.27374559440E+03  0.28836208151E+03  0.90606958973E+02 0.  0.
        -11    1    3    3    0    0 -0.18732568788E+02  0.39744818240E+02  0.15942854976E+03  0.16537237432E+03  0.00000000000E+00 0.  1.
         12    1    3    3    0    0  0.26103633111E+02 -0.15546344865E+02  0.31430261414E+03  0.31576767054E+03  0.00000000000E+00 0. -1.
        -11    1    4    4    0    0  0.32430998163E+02 -0.28383570773E+02  0.17383206852E+03  0.17909490439E+03  0.00000000000E+00 0. -1.
         11    1    4    4    0    0 -0.31730639866E+02  0.30818336030E+02  0.99913525876E+02  0.10926717712E+03  0.00000000000E+00 0.  1.
          1    1    1    2  501    0 -0.80714226204E+01 -0.26633238632E+02 -0.18103857971E+02  0.33199803262E+02  0.00000000000E+00 0. -1.
<scales pt_clust_5="13000.00000" pt_clust_6="13000.00000" pt_clust_7="13000.00000" pt_clust_8="13000.00000" pt_clust_9="27.82943"></scales>
<clustering>
<clus scale="   27.829">  2  9  1 -1</clus>
<clus scale="   80.216">  5  6 -1 -1</clus>
<clus scale="   81.784">  1  5  2 -1</clus>
<clus scale="   90.607">  7  8 -1 -1</clus>
<clus scale="   27.829">  2  5  1 -1</clus>
</clustering>
</event>
<event>
 9    2  0.4883225E-005  0.1260462E+03  0.7546771E-02  0.1252920E+00
         -1   -1    0    0    0  501 -0.00000000000E+00  0.00000000000E+00  0.32191366547E+03  0.32191366547E+03  0.00000000000E+00 0.  1.
         21   -1    0    0  501  502  0.00000000000E+00 -0.00000000000E+00 -0.10484794203E+03  0.10484794203E+03  0.00000000000E+00 0.  1.
         24    2    1    2    0    0 -0.20511413628E+02 -0.14820671122E+02 -0.17357928852E+02  0.86794416218E+02  0.81188685240E+02 0.  0.
         23    2    1    2    0    0 -0.50595214433E+02  0.65824516553E+02  0.21824444429E+03  0.25097667733E+03  0.92010392883E+02 0.  0.
        -13    1    3    3    0    0 -0.50867073183E+02  0.67419231082E+00 -0.12323917347E+02  0.52343028268E+02  0.00000000000E+00 0.  1.
         14    1    3    3    0    0  0.30355659555E+02 -0.15494863432E+02 -0.50340115051E+01  0.34451387950E+02  0.00000000000E+00 0. -1.
        -13    1    4    4    0    0  0.26319249714E+02  0.94422285300E+01  0.39695535458E+02  0.48555062768E+02  0.00000000000E+00 0. -1.
         13    1    4    4    0    0 -0.76914464147E+02  0.56382288023E+02  0.17854890883E+03  0.20242161456E+03  0.00000000000E+00 0.  1.
         -2    1    1    2    0  502  0.71106628061E+02 -0.51003845431E+02  0.16179208006E+02  0.88990513959E+02  0.00000000000E+00 0.  1.
<scales pt_clust_5="13000.00000" pt_clust_6="13000.00000" pt_clust_7="13000.00000" pt_clust_8="13000.00000" pt_clust_9="86.14946"></scales>
<clustering>
<clus scale="   81.189">  5  6 -1 -1</clus>
<clus scale="   85.041">  1  5  2 -1</clus>
<clus scale="   86.149">  2  9  1 -1</clus>
<clus scale="   92.010">  7  8 -1 -1</clus>
<clus scale="   86.149">  2  5  1 -1</clus>
</clustering>
</event>
<event>
 9    2  0.4883225E-005  0.1288656E+03  0.7546771E-02  0.1231896E+00
          2   -1    0    0  502    0 -0.00000000000E+00  0.00000000000E+00  0.42088847483E+03  0.42088847483E+03  0.00000000000E+00 0. -1.
         21   -1    0    0  501  502  0.00000000000E+00 -0.00000000000E+00 -0.96930470030E+02  0.96930470030E+02  0.00000000000E+00 0.  1.
         23    2    1    2    0    0  0.68792253456E+02  0.48808532284E+02  0.29233366913E+03  0.31760059969E+03  0.91085234022E+02 0.  0.
         24    2    1    2    0    0 -0.90089100641E+02 -0.73038476024E+02  0.63454893354E+02  0.15489914089E+03  0.80725183954E+02 0.  0.
        -13    1    4    4    0    0 -0.91840629320E+02 -0.48229679238E+02  0.21215275460E+02  0.10588149539E+03  0.00000000000E+00 0.  1.
         14    1    4    4    0    0  0.17515286792E+01 -0.24808796785E+02  0.42239617894E+02  0.49017645501E+02  0.00000000000E+00 0. -1.
        -11    1    3    3    0    0  0.59542949386E+02  0.78875716809E+01  0.74170700083E+02  0.95440396894E+02  0.00000000000E+00 0.  1.
         11    1    3    3    0    0  0.92493040704E+01  0.40920960604E+02  0.21816296904E+03  0.22216020279E+03  0.00000000000E+00 0. -1.
          1    1    1    2  501    0  0.21296847184E+02  0.24229943739E+02 -0.31830557687E+02  0.45319204276E+02  0.00000000000E+00 0. -1.
<scales pt_clust_5="13000.00000" pt_clust_6="13000.00000" pt_clust_7="13000.00000" pt_clust_8="13000.00000" pt_clust_9="32.25904"></scales>
<clustering>
<clus scale="   32.259">  2  9  1 -1</clus>
<clus scale="   80.725">  5  6 -1 -1</clus>
<clus scale="   91.085">  7  8 -1 -1</clus>
<clus scale="  121.764">  2  5  1 -1</clus>
<clus scale="   32.259">  2  5  1 -1</clus>
</clustering>
</event>
<event>
 9    2  0.4883225E-005  0.1128914E+03  0.7546771E-02  0.1267357E+00
         21   -1    0    0  501  502  0.00000000000E+00  0.00000000000E+00  0.73795970224E+02  0.73795970224E+02  0.00000000000E+00 0.  1.
          2   -1    0    0  502    0 -0.00000000000E+00 -0.00000000000E+00 -0.22420226197E+03  0.22420226197E+03  0.00000000000E+00 0. -1.
         24    2    1    2    0    0  0.26262183968E+02  0.49941426039E+02 -0.74563974603E+02  0.10997421850E+03  0.57885180174E+02 0.  0.
         23    2    1    2    0    0 -0.57176604044E+02 -0.76291168045E+02 -0.60945423875E+02  0.14475823390E+03  0.90283416080E+02 0.  0.
        -13    1    3    3    0    0  0.39566890676E+02  0.14101871854E+02 -0.32317568033E+02  0.52998366306E+02  0.00000000000E+00 0.  1.
         14    1    3    3    0    0 -0.13304706708E+02  0.35839554185E+02 -0.42246406569E+02  0.56975852190E+02  0.00000000000E+00 0. -1.
        -11    1    4    4    0    0 -0.79694063274E+02 -0.73689130408E+02 -0.48307740651E+02  0.11880601613E+03  0.00000000000E+00 0.  1.
         11    1    4    4    0    0  0.22517459230E+02 -0.26020376369E+01 -0.12637683224E+02  0.25952217773E+02  0.00000000000E+00 0. -1.
          1    1    1    2  501    0  0.30914420076E+02  0.26349742006E+02 -0.14896893269E+02  0.43265779797E+02  0.00000000000E+00 0. -1.
<scales pt_clust_5="13000.00000" pt_clust_6="13000.00000" pt_clust_7="13000.00000" pt_clust_8="13000.00000" pt_clust_9="40.62032"></scales>
<clustering>
<clus scale="   40.620">  1  9  2 -1</clus>
<clus scale="   57.885">  5  6 -1 -1</clus>
<clus scale="   89.129">  2  5  1 -1</clus>
<clus scale="   90.283">  7  8 -1 -1</clus>
<clus scale="   40.620">  1  5  2 -1</clus>
</clustering>
</event>
<event>
 9    2  0.4883225E-005  0.9285136E+02  0.7546771E-02  0.1302785E+00
          4   -1    0    0  502    0 -0.00000000000E+00  0.00000000000E+00  0.32157578510E+02  0.32157578510E+02  0.00000000000E+00 0. -1.
         21   -1    0    0  501  502  0.00000000000E+00 -0.00000000000E+00 -0.37743299691E+03  0.37743299691E+03  0.00000000000E+00 0.  1.
         24    2    1    2    0    0 -0.19948044533E+02  0.10449329315E+02 -0.95799654303E+02  0.12689607144E+03  0.80111960521E+02 0.  0.
         23    2    1    2    0    0 -0.53270301424E+01 -0.21711498911E+02 -0.13168415080E+03  0.16169644603E+03  0.91133191827E+02 0.  0.
        -13    1    3    3    0    0  0.10628477874E+02  0.23309282425E+02 -0.89549164132E+02  0.93141505173E+02  0.00000000000E+00 0.  1.
         14    1    3    3    0    0 -0.30576522407E+02 -0.12859953110E+02 -0.62504901714E+01  0.33754566268E+02  0.00000000000E+00 0. -1.
        -11    1    4    4    0    0 -0.37338365845E+01 -0.55753652355E+02 -0.58135422631E+02  0.80635839743E+02  0.00000000000E+00 0. -1.
         11    1    4    4    0    0 -0.15931935580E+01  0.34042153444E+02 -0.73548728171E+02  0.81060606292E+02  0.00000000000E+00 0.  1.
          3    1    1    2  501    0  0.25275074676E+02  0.11262169596E+02 -0.11779161329E+03  0.12099805794E+03  0.00000000000E+00 0. -1.
<scales pt_clust_5="13000.00000" pt_clust_6="13000.00000" pt_clust_7="13000.00000" pt_clust_8="13000.00000" pt_clust_9="27.67067"></scales>
<clustering>
<clus scale="   27.671">  2  9  1 -1</clus>
<clus scale="   80.112">  5  6 -1 -1</clus>
<clus scale="   82.061">  1  5  2 -1</clus>
<clus scale="   91.133">  7  8 -1 -1</clus>
<clus scale="   27.671">  2  5  1 -1</clus>
</clustering>
</event>
<event>
 9    2  0.4883225E-005  0.3347285E+03  0.7546771E-02  0.1069064E+00
          2   -1    0    0  502    0 -0.00000000000E+00  0.00000000000E+00  0.57995773618E+03  0.57995773618E+03  0.00000000000E+00 0. -1.
         21   -1    0    0  501  502  0.00000000000E+00 -0.00000000000E+00 -0.15850503561E+03  0.15850503561E+03  0.00000000000E+00 0. -1.
         24    2    1    2    0    0 -0.93750037534E+01 -0.11051585125E+03  0.59075513979E+02  0.15433495946E+03  0.89597540620E+02 0.  0.
         23    2    1    2    0    0  0.58437632665E+02 -0.15375976237E+03  0.13880668411E+03  0.23451014818E+03  0.93116553877E+02 0.  0.
        -13    1    3    3    0    0 -0.22570784504E+02 -0.14506594085E+02 -0.16447523936E+02  0.31470662985E+02  0.00000000000E+00 0.  1.
         14    1    3    3    0    0  0.13195780751E+02 -0.96009257165E+02  0.75523037916E+02  0.12286429647E+03  0.00000000000E+00 0. -1.
        -11    1    4    4    0    0 -0.21796643865E+02 -0.17028961212E+02  0.36637806349E+02  0.45906514329E+02  0.00000000000E+00 0. -1.
         11    1    4    4    0    0  0.80234276530E+02 -0.13673080116E+03  0.10216887777E+03  0.18860363385E+03  0.00000000000E+00 0.  1.
          1    1    1    2  501    0 -0.49062628912E+02  0.26427561362E+03  0.22357050248E+03  0.34961766416E+03  0.00000000000E+00 0. -1.
<scales pt_clust_5="13000.00000" pt_clust_6="13000.00000" pt_clust_7="13000.00000" pt_clust_8="13000.00000" pt_clust_9="268.79139"></scales>
<clustering>
<clus scale="   89.598">  5  6 -1 -1</clus>
<clus scale="   93.117">  7  8 -1 -1</clus>
<clus scale="  112.339">  5  7 -1 -1</clus>
<clus scale="  268.791">  2  9  1 -1</clus>
<clus scale="  268.791">  2  5  1 -1</clus>
</clustering>
</event>
<event>
 9    2  0.4883225E-005  0.1344252E+03  0.7546771E-02  0.1227749E+00
         21   -1    0    0  501  502  0.00000000000E+00  0.00000000000E+00  0.38119241768E+02  0.38119241768E+02  0.00000000000E+00 0.  1.
          2   -1    0    0  502    0 -0.00000000000E+00 -0.00000000000E+00 -0.63864612447E+03  0.63864612447E+03  0.00000000000E+00 0. -1.
         24    2    1    2    0    0  0.83517108225E+02  0.85458228089E+01 -0.35315372749E+03  0.37163888764E+03  0.79685438496E+02 0.  0.
         23    2    1    2    0    0 -0.90989811064E+02  0.23212467001E+02 -0.16391533183E+03  0.21551822818E+03  0.10373960830E+03 0.  0.
        -13    1    3    3    0    0  0.10053179282E+02 -0.27559491726E+02 -0.14561340408E+03  0.14853907043E+03  0.00000000000E+00 0.  1.
         14    1    3    3    0    0  0.73463928943E+02  0.36105314535E+02 -0.20754032341E+03  0.22309981720E+03  0.00000000000E+00 0. -1.
        -13    1    4    4    0    0 -0.54340188628E+02  0.64276969412E+02 -0.10959806964E+03  0.13818871794E+03  0.00000000000E+00 0.  1.
         13    1    4    4    0    0 -0.36649622437E+02 -0.41064502411E+02 -0.54317262187E+02  0.77329510243E+02  0.00000000000E+00 0. -1.
          1    1    1    2  501    0  0.74727028393E+01 -0.31758289810E+02 -0.83457823383E+02  0.89608250419E+02  0.00000000000E+00 0. -1.
<scales pt_clust_5="13000.00000" pt_clust_6="13000.00000" pt_clust_7="13000.00000" pt_clust_8="13000.00000" pt_clust_9="32.62562"></scales>
<clustering>
<clus scale="   32.626">  1  9  2 -1</clus>
<clus scale="   79.685">  5  6 -1 -1</clus>
<clus scale="  103.740">  7  8 -1 -1</clus>
<clus scale="  116.867">  2  5  1 -1</clus>
<clus scale="   32.626">  1  5  2 -1</clus>
</clustering>
</event>
<event>
 9    2  0.4883225E-005  0.9841327E+02  0.7546771E-02  0.1292352E+00
          2   -1    0    0  502    0 -0.00000000000E+00  0.00000000000E+00  0.43642993747E+03  0.43642993747E+03  0.00000000000E+00 0. -1.
         21   -1    0    0  501  502  0.00000000000E+00 -0.00000000000E+00 -0.32741033933E+02  0.32741033933E+02  0.00000000000E+00 0.  1.
         23    2    1    2    0    0 -0.20619207699E+02  0.29200940707E+01  0.29538380289E+03  0.31138023622E+03  0.96293207569E+02 0.  0.
         24    2    1    2    0    0  0.17055524899E+02  0.24891550959E+02  0.85595927277E+02  0.12170896708E+03  0.81092106039E+02 0.  0.
        -11    1    4    4    0    0  0.37114664896E+02 -0.15396614885E+02  0.29808928561E+02  0.50031253454E+02  0.00000000000E+00 0.  1.
         12    1    4    4    0    0 -0.20059139997E+02  0.40288165844E+02  0.55786998716E+02  0.71677713623E+02  0.00000000000E+00 0. -1.
        -13    1    3    3    0    0  0.21689336318E+02 -0.30661087635E+02  0.18137644138E+03  0.18522403487E+03  0.00000000000E+00 0.  1.
         13    1    3    3    0    0 -0.42308544017E+02  0.33581181705E+02  0.11400736151E+03  0.12615620135E+03  0.00000000000E+00 0. -1.
          1    1    1    2  501    0  0.35636827999E+01 -0.27811645030E+02  0.22709173370E+02  0.36081768104E+02  0.00000000000E+00 0. -1.
<scales pt_clust_5="13000.00000" pt_clust_6="13000.00000" pt_clust_7="13000.00000" pt_clust_8="13000.00000" pt_clust_9="28.03903"></scales>
<clustering>
<clus scale="   28.039">  2  9  1 -1</clus>
<clus scale="   81.092">  5  6 -1 -1</clus>
<clus scale="   83.599">  2  5  1 -1</clus>
<clus scale="   96.293">  7  8 -1 -1</clus>
<clus scale="   28.039">  2  5  1 -1</clus>
</clustering>
</event>
<event>
 9    2  0.4883225E-005  0.2587053E+03  0.7546771E-02  0.1128742E+00
         -1   -1    0    0    0  501 -0.00000000000E+00  0.00000000000E+00  0.30158501561E+03  0.30158501561E+03  0.00000000000E+00 0.  1.
         21   -1    0    0  501  502  0.00000000000E+00 -0.00000000000E+00 -0.95864645611E+03  0.95864645611E+03  0.00000000000E+00 0. -1.
         24    2    1    2    0    0 -0.54393041369E+02  0.11913315329E+03  0.20275991169E+03  0.25428192097E+03  0.79977511708E+02 0.  0.
         23    2    1    2    0    0  0.26078236637E+03 -0.11002950305E+01 -0.54929531964E+03  0.61485528335E+03  0.91175753499E+02 0.  0.
        -11    1    3    3    0    0 -0.23317833141E+02  0.50120380565E+02  0.15554570756E+03  0.16507647025E+03  0.00000000000E+00 0.  1.
         12    1    3    3    0    0 -0.31075208228E+02  0.69012772724E+02  0.47214204132E+02  0.89205450715E+02  0.00000000000E+00 0. -1.
        -11    1    4    4    0    0  0.12983162876E+03  0.42731138013E+02 -0.30513321114E+03  0.33434784062E+03  0.00000000000E+00 0. -1.
         11    1    4    4    0    0  0.13095073761E+03 -0.43831433043E+02 -0.24416210849E+03  0.28050744273E+03  0.00000000000E+00 0.  1.
         -2    1    1    2    0  502 -0.20638932500E+03 -0.11803285826E+03 -0.31052603255E+03  0.39109426740E+03  0.00000000000E+00 0.  1.
<scales pt_clust_5="13000.00000" pt_clust_6="13000.00000" pt_clust_7="13000.00000" pt_clust_8="13000.00000" pt_clust_9="242.10637"></scales>
<clustering>
<clus scale="   79.978">  5  6 -1 -1</clus>
<clus scale="   91.176">  7  8 -1 -1</clus>
<clus scale="  153.453">  1  5  2 -1</clus>
<clus scale="  242.106">  2  9  1 -1</clus>
<clus scale="  242.106">  2  5  1 -1</clus>
</clustering>
</event>
<event>
 9    2  0.4883225E-005  0.2083535E+03  0.7546771E-02  0.1173503E+00
         21   -1    0    0  501  502  0.00000000000E+00  0.00000000000E+00  0.10748043005E+03  0.10748043005E+03  0.00000000000E+00 0.  1.
         -3   -1    0    0    0  501 -0.00000000000E+00 -0.00000000000E+00 -0.76097891492E+03  0.76097891492E+03  0.00000000000E+00 0.  1.
         24    2    1    2    0    0 -0.49869999022E+02 -0.38115670236E+02 -0.32963940843E+03  0.34502721011E+03  0.80260918298E+02 0.  0.
         23    2    1    2    0    0  0.11513161633E+03 -0.14375875733E+03 -0.23102895468E+03  0.30906138686E+03  0.90679069023E+02 0.  0.
        -11    1    3    3    0    0 -0.18114340985E+01 -0.46945905233E+02 -0.22048939454E+03  0.22543906586E+03  0.00000000000E+00 0.  1.
         12    1    3    3    0    0 -0.48058564924E+02  0.88302349963E+01 -0.10915001388E+03  0.11958814424E+03  0.00000000000E+00 0. -1.
        -11    1    4    4    0    0  0.88202963942E+02 -0.13550863338E+03 -0.22965661004E+03  0.28086386579E+03  0.00000000000E+00 0.  1.
         11    1    4    4    0    0  0.26928652391E+02 -0.82501239413E+01 -0.13723446375E+01  0.28197521069E+02  0.00000000000E+00 0. -1.
         -4    1    1    2    0  502 -0.65261617310E+02  0.18187442756E+03 -0.92830121768E+02  0.21437074801E+03  0.00000000000E+00 0.  1.
<scales pt_clust_5="13000.00000" pt_clust_6="13000.00000" pt_clust_7="13000.00000" pt_clust_8="13000.00000" pt_clust_9="187.58594"></scales>
<clustering>
<clus scale="   80.261">  5  6 -1 -1</clus>
<clus scale="   90.679">  7  8 -1 -1</clus>
<clus scale="  101.890">  2  5  1 -1</clus>
<clus scale="  187.586">  1  9  2 -1</clus>
<clus scale="  187.586">  1  5  2 -1</clus>
</clustering>
</event>
<event>
 9    2  0.4883225E-005  0.1356515E+03  0.7546771E-02  0.1223589E+00
         21   -1    0    0  501  502  0.00000000000E+00  0.00000000000E+00  0.16062031465E+03  0.16062031465E+03  0.00000000000E+00 0.  1.
          2   -1    0    0  502    0 -0.00000000000E+00 -0.00000000000E+00 -0.17740726372E+03  0.17740726372E+03  0.00000000000E+00 0. -1.
         24    2    1    2    0    0  0.50044626774E+01  0.10044153383E+03 -0.95180876161E+02  0.15688666042E+03  0.73759600499E+02 0.  0.
         23    2    1    2    0    0 -0.31062323312E+02 -0.94261635284E+02  0.73203791276E+02  0.15386197448E+03  0.92003197327E+02 0.  0.
        -11    1    3    3    0    0  0.11772789202E+02  0.21602241746E+02  0.88817782671E+01  0.26156096789E+02  0.00000000000E+00 0.  1.
         12    1    3    3    0    0 -0.67683265250E+01  0.78839292081E+02 -0.10406265443E+03  0.13073056363E+03  0.00000000000E+00 0. -1.
        -11    1    4    4    0    0 -0.19313002335E+02  0.14716809584E+02  0.22459169213E+02  0.33075532124E+02  0.00000000000E+00 0. -1.
         11    1    4    4    0    0 -0.11749320977E+02 -0.10897844487E+03  0.50744622062E+02  0.12078644236E+03  0.00000000000E+00 0.  1.
          1    1    1    2  501    0  0.26057860635E+02 -0.61798985434E+01  0.51901358106E+01  0.27278943466E+02  0.00000000000E+00 0. -1.
<scales pt_clust_5="13000.00000" pt_clust_6="13000.00000" pt_clust_7="13000.00000" pt_clust_8="13000.00000" pt_clust_9="26.78065"></scales>
<clustering>
<clus scale="   26.781">  1  9  2 -1</clus>
<clus scale="   73.760">  5  6 -1 -1</clus>
<clus scale="   92.003">  7  8 -1 -1</clus>
<clus scale="  124.005">  2  5  1 -1</clus>
<clus scale="   26.781">  1  5  2 -1</clus>
</clustering>
</event>
<event>
 9    2  0.4883225E-005  0.2434658E+03  0.7546771E-02  0.1118132E+00
          2   -1    0    0  502    0 -0.00000000000E+00  0.00000000000E+00  0.26142055433E+03  0.26142055433E+03  0.00000000000E+00 0. -1.
         21   -1    0    0  501  502  0.00000000000E+00 -0.00000000000E+00 -0.31751692762E+03  0.31751692762E+03  0.00000000000E+00 0.  1.
         24    2    1    2    0    0 -0.15912213462E+03  0.18063285311E+03  0.85372145792E+02  0.26783104831E+03  0.80603882133E+02 0.  0.
         23    2    1    2    0    0  0.13739553883E+03 -0.14603891925E+03 -0.74329929302E+02  0.23251651404E+03  0.91291242110E+02 0.  0.
        -13    1    3    3    0    0 -0.10910147988E+03  0.70186448663E+02  0.23968068126E+02  0.13192323062E+03  0.00000000000E+00 0.  1.
         14    1    3    3    0    0 -0.50020654740E+02  0.11044640445E+03  0.61404077666E+02  0.13590781769E+03  0.00000000000E+00 0. -1.
        -13    1    4    4    0    0  0.65190658360E+02 -0.12655713175E+03 -0.67098230469E+02  0.15738075507E+03  0.00000000000E+00 0.  1.
         13    1    4    4    0    0  0.72204880474E+02 -0.19481787497E+02 -0.72316988333E+01  0.75135758972E+02  0.00000000000E+00 0. -1.
          1    1    1    2  501    0  0.21726595786E+02 -0.34593933861E+02 -0.67138589776E+02  0.78589919592E+02  0.00000000000E+00 0. -1.
<scales pt_clust_5="13000.00000" pt_clust_6="13000.00000" pt_clust_7="13000.00000" pt_clust_8="13000.00000" pt_clust_9="40.85077"></scales>
<clustering>
<clus scale="   40.851">  2  9  1 -1</clus>
<clus scale="   80.604">  5  6 -1 -1</clus>
<clus scale="   91.291">  7  8 -1 -1</clus>
<clus scale="  239.663">  1  5  2 -1</clus>
<clus scale="   40.851">  2  5  1 -1</clus>
</clustering>
</event>
<event>
 9    2  0.4883225E-005  0.9371368E+02  0.7546771E-02  0.1302110E+00
         21   -1    0    0  501  502  0.00000000000E+00  0.00000000000E+00  0.58332031247E+02  0.58332031247E+02  0.00000000000E+00 0. -1.
         -1   -1    0    0    0  501 -0.00000000000E+00 -0.00000000000E+00 -0.28873117502E+03  0.28873117502E+03  0.00000000000E+00 0.  1.
         23    2    1    2    0    0 -0.30851285044E+02  0.20532267634E+02 -0.10692756224E+03  0.14660498597E+03  0.93199477150E+02 0.  0.
         24    2    1    2    0    0 -0.13666233366E+02  0.30650506652E+02 -0.88776909884E+02  0.12426631738E+03  0.80215699307E+02 0.  0.
        -11    1    4    4    0    0  0.17653607325E+02  0.45960350907E+02 -0.35905296510E+02  0.60935983003E+02  0.00000000000E+00 0.  1.
         12    1    4    4    0    0 -0.31319840691E+02 -0.15309844256E+02 -0.52871613374E+02  0.63330334381E+02  0.00000000000E+00 0. -1.
        -11    1    3    3    0    0 -0.95875333117E+01 -0.32032831992E+02 -0.11050884587E+02  0.35215694947E+02  0.00000000000E+00 0.  1.
         11    1    3    3    0    0 -0.21263751732E+02  0.52565099626E+02 -0.95876677654E+02  0.11138929102E+03  0.00000000000E+00 0. -1.
         -2    1    1    2    0  502  0.44517518410E+02 -0.51182774286E+02 -0.34694671651E+02  0.76191902916E+02  0.00000000000E+00 0.  1.
<scales pt_clust_5="13000.00000" pt_clust_6="13000.00000" pt_clust_7="13000.00000" pt_clust_8="13000.00000" pt_clust_9="67.83425"></scales>
<clustering>
<clus scale="   67.834">  1  9  2 -1</clus>
<clus scale="   80.216">  5  6 -1 -1</clus>
<clus scale="   80.813">  1  5  2 -1</clus>
<clus scale="   93.199">  7  8 -1 -1</clus>
<clus scale="   67.834">  1  5  2 -1</clus>
</clustering>
</event>
<event>
 9    2  0.4883225E-005  0.1026747E+03  0.7546771E-02  0.1280760E+00
          2   -1    0    0  502    0 -0.00000000000E+00  0.00000000000E+00  0.87943761311E+03  0.87943761311E+03  0.00000000000E+00 0. -1.
         21   -1    0    0  501  502  0.00000000000E+00 -0.00000000000E+00 -0.32156658054E+02  0.32156658054E+02  0.00000000000E+00 0. -1.
         24    2    1    2    0    0  0.31782593605E+01  0.50619890069E+02  0.34496961611E+03  0.35767706937E+03  0.79726879499E+02 0.  0.
         23    2    1    2    0    0 -0.75999128303E+02 -0.74472812989E+00  0.40621380939E+03  0.42343675912E+03  0.92263795245E+02 0.  0.
        -13    1    3    3    0    0 -0.14114716359E+02 -0.14531663954E+02  0.34797709407E+02  0.40265059980E+02  0.00000000000E+00 0.  1.
         14    1    3    3    0    0  0.17292975720E+02  0.65151554023E+02  0.31017190670E+03  0.31741200939E+03  0.00000000000E+00 0. -1.
        -13    1    4    4    0    0 -0.89919046687E+02  0.21949272762E+02  0.32839980617E+03  0.34119442877E+03  0.00000000000E+00 0. -1.
         13    1    4    4    0    0  0.13919918384E+02 -0.22694000892E+02  0.77814003216E+02  0.82242330346E+02  0.00000000000E+00 0.  1.
          1    1    1    2  501    0  0.72820868943E+02 -0.49875161939E+02  0.96097529559E+02  0.13048044267E+03  0.00000000000E+00 0. -1.
<scales pt_clust_5="13000.00000" pt_clust_6="13000.00000" pt_clust_7="13000.00000" pt_clust_8="13000.00000" pt_clust_9="88.26330"></scales>
<clustering>
<clus scale="   79.727">  5  6 -1 -1</clus>
<clus scale="   88.263">  2  9  1 -1</clus>
<clus scale="   91.574">  1  5  2 -1</clus>
<clus scale="   92.264">  7  8 -1 -1</clus>
<clus scale="   88.263">  2  5  1 -1</clus>
</clustering>
</event>
<event>
 9    2  0.4883225E-005  0.1884013E+03  0.7546771E-02  0.1160817E+00
         21   -1    0    0  501  502  0.00000000000E+00  0.00000000000E+00  0.41218202930E+03  0.41218202930E+03  0.00000000000E+00 0.  1.
          2   -1    0    0  502    0 -0.00000000000E+00 -0.00000000000E+00 -0.18161404962E+03  0.18161404962E+03  0.00000000000E+00 0. -1.
         23    2    1    2    0    0  0.10546116459E+03 -0.15851267404E+03 -0.19247831817E+02  0.21145409338E+03  0.89966824503E+02 0.  0.
         24    2    1    2    0    0 -0.11004706741E+03  0.45079337312E+02  0.22327994380E+03  0.26575594581E+03  0.81423496177E+02 0.  0.
        -13    1    4    4    0    0 -0.43757633233E+01  0.34950792867E+02  0.35268323967E+02  0.49845359885E+02  0.00000000000E+00 0.  1.
         14    1    4    4    0    0 -0.10567130409E+03  0.10128544445E+02  0.18801161983E+03  0.21591058592E+03  0.00000000000E+00 0. -1.
        -13    1    3    3    0    0  0.76645563043E+02 -0.15501398351E+03 -0.37792247888E+02  0.17700884559E+03  0.00000000000E+00 0.  1.
         13    1    3    3    0    0  0.28815601552E+02 -0.34986905309E+01  0.18544416070E+02  0.34445247794E+02  0.00000000000E+00 0. -1.
          1    1    1    2  501    0  0.45859028194E+01  0.11343333673E+03  0.26535867692E+02  0.11658603973E+03  0.00000000000E+00 0. -1.
<scales pt_clust_5="13000.00000" pt_clust_6="13000.00000" pt_clust_7="13000.00000" pt_clust_8="13000.00000" pt_clust_9="113.52606"></scales>
<clustering>
<clus scale="   81.423">  5  6 -1 -1</clus>
<clus scale="   89.967">  7  8 -1 -1</clus>
<clus scale="  113.526">  1  9  2 -1</clus>
<clus scale="  184.474">  1  5  2 -1</clus>
<clus scale="  113.526">  1  5  2 -1</clus>
</clustering>
</event>
<event>
 9    2  0.4883225E-005  0.1215295E+03  0.7546771E-02  0.1244023E+00
         21   -1    0    0  501  502  0.00000000000E+00  0.00000000000E+00  0.62803304873E+02  0.62803304873E+02  0.00000000000E+00 0.  1.
          2   -1    0    0  502    0 -0.00000000000E+00 -0.00000000000E+00 -0.41109540831E+03  0.41109540831E+03  0.00000000000E+00 0. -1.
         24    2    1    2    0    0 -0.46013414298E+02  0.53570073017E+02 -0.16611243289E+03  0.19820205469E+03  0.81876291475E+02 0.  0.
         23    2    1    2    0    0  0.69098693147E+02 -0.54671501923E+02 -0.20599113554E+03  0.24251339298E+03  0.92826695177E+02 0.  0.
        -13    1    3    3    0    0  0.27154179993E+01  0.48792953793E+02 -0.40791317142E+02  0.63655772629E+02  0.00000000000E+00 0.  1.
         14    1    3    3    0    0 -0.48728832298E+02  0.47771192236E+01 -0.12532111574E+03  0.13454628206E+03  0.00000000000E+00 0. -1.
        -11    1    4    4    0    0  0.14786142597E+02 -0.16720826813E+02  0.36801995565E+01  0.22622111551E+02  0.00000000000E+00 0.  1.
         11    1    4    4    0    0  0.54312550550E+02 -0.37950675110E+02 -0.20967133510E+03  0.21989128143E+03  0.00000000000E+00 0. -1.
          1    1    1    2  501    0 -0.23085278849E+02  0.11014289061E+01  0.23811464988E+02  0.33183265512E+02  0.00000000000E+00 0. -1.
<scales pt_clust_5="13000.00000" pt_clust_6="13000.00000" pt_clust_7="13000.00000" pt_clust_8="13000.00000" pt_clust_9="23.11154"></scales>
<clustering>
<clus scale="   23.112">  1  9  2 -1</clus>
<clus scale="   81.876">  5  6 -1 -1</clus>
<clus scale="   92.827">  7  8 -1 -1</clus>
<clus scale="  113.386">  2  5  1 -1</clus>
<clus scale="   23.112">  1  5  2 -1</clus>
</clustering>
</event>
<event>
 9    2  0.4883225E-005  0.2881527E+03  0.7546771E-02  0.1091318E+00
          2   -1    0    0  502    0 -0.00000000000E+00  0.00000000000E+00  0.13388460721E+04  0.13388460721E+04  0.00000000000E+00 0. -1.
         21   -1    0    0  501  502  0.00000000000E+00 -0.00000000000E+00 -0.56070090949E+02  0.56070090949E+02  0.00000000000E+00 0. -1.
         24    2    1    2    0    0 -0.40772536798E+02  0.46516467137E+02  0.16262399419E+03  0.19031181130E+03  0.77109276760E+02 0.  0.
         23    2    1    2    0    0 -0.15570039560E+03  0.55576245357E+02  0.29679640577E+03  0.35199720412E+03  0.92100993440E+02 0.  0.
        -13    1    3    3    0    0 -0.12907324869E+02 -0.18516381529E+02  0.71302427866E+02  0.74789649282E+02  0.00000000000E+00 0.  1.
         14    1    3    3    0    0 -0.27865211929E+02  0.65032848666E+02  0.91321566320E+02  0.11552216202E+03  0.00000000000E+00 0. -1.
        -13    1    4    4    0    0 -0.11516773582E+03 -0.21538765657E+01  0.21559002930E+03  0.24443262321E+03  0.00000000000E+00 0. -1.
         13    1    4    4    0    0 -0.40532659779E+02  0.57730121923E+02  0.81206376474E+02  0.10756458091E+03  0.00000000000E+00 0.  1.
          1    1    1    2  501    0  0.19647293239E+03 -0.10209271249E+03  0.82335558115E+03  0.85260714759E+03  0.00000000000E+00 0. -1.
<scales pt_clust_5="13000.00000" pt_clust_6="13000.00000" pt_clust_7="13000.00000" pt_clust_8="13000.00000" pt_clust_9="221.41496"></scales>
<clustering>
<clus scale="   77.109">  5  6 -1 -1</clus>
<clus scale="   92.101">  7  8 -1 -1</clus>
<clus scale="   97.359">  5  7 -1 -1</clus>
<clus scale="  221.415">  2  9  1 -1</clus>
<clus scale="  221.415">  2  5  1 -1</clus>
</clustering>
</event>
<event>
 9    2  0.4883225E-005  0.1437854E+03  0.7546771E-02  0.1219110E+00
         21   -1    0    0  501  502  0.00000000000E+00  0.00000000000E+00  0.26870388520E+03  0.26870388520E+03  0.00000000000E+00 0. -1.
          2   -1    0    0  502    0 -0.00000000000E+00 -0.00000000000E+00 -0.17693521914E+03  0.17693521914E+03  0.00000000000E+00 0. -1.
         23    2    1    2    0    0 -0.64433323733E+02  0.13406087864E+02 -0.37603507237E+02  0.12039433484E+03  0.93538204524E+02 0.  0.
         24    2    1    2    0    0 -0.55686595021E+02 -0.68648568750E+02 -0.25119649712E+02  0.12190207857E+03  0.80096798327E+02 0.  0.
        -11    1    4    4    0    0 -0.23031988222E+02  0.92628858599E+01  0.14333220331E+02  0.28665567166E+02  0.00000000000E+00 0.  1.
         12    1    4    4    0    0 -0.32654606799E+02 -0.77911454610E+02 -0.39452870042E+02  0.93236511406E+02  0.00000000000E+00 0. -1.
        -13    1    3    3    0    0 -0.22042830487E+02 -0.78157000753E+01  0.29867279064E+02  0.37934494886E+02  0.00000000000E+00 0.  1.
         13    1    3    3    0    0 -0.42390493246E+02  0.21221787940E+02 -0.67470786301E+02  0.82459839953E+02  0.00000000000E+00 0. -1.
          1    1    1    2  501    0  0.12011991875E+03  0.55242480886E+02  0.15449182301E+03  0.20334269093E+03  0.00000000000E+00 0. -1.
<scales pt_clust_5="13000.00000" pt_clust_6="13000.00000" pt_clust_7="13000.00000" pt_clust_8="13000.00000" pt_clust_9="119.41002"></scales>
<clustering>
<clus scale="   80.097">  5  6 -1 -1</clus>
<clus scale="   93.538">  7  8 -1 -1</clus>
<clus scale="  114.371">  2  7  1 -1</clus>
<clus scale="  119.410">  1  9  2 -1</clus>
<clus scale="  119.410">  1  5  2 -1</clus>
</clustering>
</event>
<event>
 9    2  0.4883225E-005  0.9798950E+02  0.7546771E-02  0.1288562E+00
         -1   -1    0    0    0  501 -0.00000000000E+00  0.00000000000E+00  0.18063145425E+03  0.18063145425E+03  0.00000000000E+00 0.  1.
         21   -1    0    0  501  502  0.00000000000E+00 -0.00000000000E+00 -0.21557983281E+03  0.21557983281E+03  0.00000000000E+00 0.  1.
         24    2    1    2    0    0 -0.12746456372E+02 -0.44056699597E+02  0.11068433249E+03  0.14544694484E+03  0.82464097484E+02 0.  0.
         23    2    1    2    0    0  0.60232638439E+02 -0.32264108695E+02 -0.68219278610E+02  0.13213617192E+03  0.90206177790E+02 0.  0.
        -11    1    3    3    0    0  0.24451530368E+02 -0.50761422596E+02  0.71048682983E+02  0.90678082881E+02  0.00000000000E+00 0.  1.
         12    1    3    3    0    0 -0.37197986740E+02  0.67047229990E+01  0.39635649511E+02  0.54768861958E+02  0.00000000000E+00 0. -1.
        -13    1    4    4    0    0  0.38436655768E+02  0.12619906375E+02  0.78039247751E+01  0.41201210970E+02  0.00000000000E+00 0. -1.
         13    1    4    4    0    0  0.21795982671E+02 -0.44884015070E+02 -0.76023203385E+02  0.90934960946E+02  0.00000000000E+00 0.  1.
         -2    1    1    2    0  502 -0.47486182067E+02  0.76320808292E+02 -0.77413432452E+02  0.11862817030E+03  0.00000000000E+00 0.  1.
<scales pt_clust_5="13000.00000" pt_clust_6="13000.00000" pt_clust_7="13000.00000" pt_clust_8="13000.00000" pt_clust_9="89.88773"></scales>
<clustering>
<clus scale="   82.464">  5  6 -1 -1</clus>
<clus scale="   89.888">  2  9  1 -1</clus>
<clus scale="   90.206">  7  8 -1 -1</clus>
<clus scale="   90.913">  1  5  2 -1</clus>
<clus scale="   89.888">  2  5  1 -1</clus>
</clustering>
</event>
<event>
 9    2  0.4883225E-005  0.1299799E+03  0.7546771E-02  0.1230936E+00
         21   -1    0    0  501  502  0.00000000000E+00  0.00000000000E+00  0.16727507494E+02  0.16727507494E+02  0.00000000000E+00 0. -1.
          2   -1    0    0  502    0 -0.00000000000E+00 -0.00000000000E+00 -0.17407101739E+04  0.17407101739E+04  0.00000000000E+00 0. -1.
         24    2    1    2    0    0 -0.99772874050E+01 -0.96091672544E+02 -0.94262741179E+03  0.95099325052E+03  0.80675704333E+02 0.  0.
         23    2    1    2    0    0  0.55762871531E+02  0.64731363193E+02 -0.36414897556E+03  0.38556336929E+03  0.93568093492E+02 0.  0.
        -13    1    3    3    0    0  0.16056765797E+02 -0.24313332630E+02 -0.82698577832E+02  0.87681312986E+02  0.00000000000E+00 0.  1.
         14    1    3    3    0    0 -0.26034053202E+02 -0.71778339913E+02 -0.85992883396E+03  0.86331193753E+03  0.00000000000E+00 0. -1.
        -11    1    4    4    0    0  0.57336190810E+02  0.86440272203E+02 -0.27842275617E+03  0.29711713278E+03  0.00000000000E+00 0. -1.
         11    1    4    4    0    0 -0.15733192794E+01 -0.21708909010E+02 -0.85726219380E+02  0.88446236513E+02  0.00000000000E+00 0.  1.
          1    1    1    2  501    0 -0.45785584126E+02  0.31360309351E+02 -0.41720627909E+03  0.42088106162E+03  0.00000000000E+00 0. -1.
<scales pt_clust_5="13000.00000" pt_clust_6="13000.00000" pt_clust_7="13000.00000" pt_clust_8="13000.00000" pt_clust_9="55.49587"></scales>
<clustering>
<clus scale="   55.496">  1  9  2 -1</clus>
<clus scale="   80.676">  5  6 -1 -1</clus>
<clus scale="   93.568">  7  8 -1 -1</clus>
<clus scale="  121.030">  2  5  1 -1</clus>
<clus scale="   55.496">  1  5  2 -1</clus>
</clustering>
</event>
<event>
 9    2  0.4883225E-005  0.1764244E+03  0.7546771E-02  0.1201736E+00
         21   -1    0    0  501  502  0.00000000000E+00  0.00000000000E+00  0.86605636125E+02  0.86605636125E+02  0.00000000000E+00 0. -1.
          2   -1    0    0  502    0 -0.00000000000E+00 -0.00000000000E+00 -0.54903480670E+03  0.54903480670E+03  0.00000000000E+00 0. -1.
         24    2    1    2    0    0 -0.39237829897E+02  0.86792601740E+01 -0.17377697919E+03  0.19556306776E+03  0.80196871043E+02 0.  0.
         23    2    1    2    0    0  0.54007755173E+02 -0.15386575570E+03 -0.17046001464E+03  0.25228317968E+03  0.89435327248E+02 0.  0.
        -11    1    3    3    0    0  0.24583797877E+02  0.23584609737E+01 -0.61272799852E+02  0.66062708527E+02  0.00000000000E+00 0.  1.
         12    1    3    3    0    0 -0.63821627774E+02  0.63207992003E+01 -0.11250417933E+03  0.12950035923E+03  0.00000000000E+00 0. -1.
        -13    1    4    4    0    0  0.38971736871E+02 -0.89267712839E+01 -0.31091796143E+02  0.50647638718E+02  0.00000000000E+00 0.  1.
         13    1    4    4    0    0  0.15036018302E+02 -0.14493898442E+03 -0.13936821850E+03  0.20163554096E+03  0.00000000000E+00 0. -1.
          1    1    1    2  501    0 -0.14769925276E+02  0.14518649553E+03 -0.11819217674E+03  0.18779419538E+03  0.00000000000E+00 0. -1.
<scales pt_clust_5="13000.00000" pt_clust_6="13000.00000" pt_clust_7="13000.00000" pt_clust_8="13000.00000" pt_clust_9="152.07530"></scales>
<clustering>
<clus scale="   80.197">  5  6 -1 -1</clus>
<clus scale="   89.435">  7  8 -1 -1</clus>
<clus scale="   89.702">  2  5  1 -1</clus>
<clus scale="  152.075">  1  9  2 -1</clus>
<clus scale="  152.075">  1  5  2 -1</clus>
</clustering>
</event>
<event>
 9    2  0.4883225E-005  0.1078147E+03  0.7546771E-02  0.1268030E+00
         21   -1    0    0  501  502  0.00000000000E+00  0.00000000000E+00  0.37824411566E+03  0.37824411566E+03  0.00000000000E+00 0.  1.
          2   -1    0    0  502    0 -0.00000000000E+00 -0.00000000000E+00 -0.54303886174E+02  0.54303886174E+02  0.00000000000E+00 0. -1.
         24    2    1    2    0    0 -0.73305358393E+02 -0.41451608017E+02  0.12086200886E+03  0.16730920378E+03  0.79327379310E+02 0.  0.
         23    2    1    2    0    0  0.35370717157E+02  0.26474098543E+01  0.18533693923E+03  0.20814627782E+03  0.87846431427E+02 0.  0.
        -13    1    3    3    0    0 -0.33533715789E+02 -0.46758687677E+02  0.23776847482E+02  0.62259324154E+02  0.00000000000E+00 0.  1.
         14    1    3    3    0    0 -0.39771642604E+02  0.53070796599E+01  0.97085161382E+02  0.10504987963E+03  0.00000000000E+00 0. -1.
        -11    1    4    4    0    0 -0.24139534700E+02 -0.17182636684E+02  0.82825236616E+02  0.87965788574E+02  0.00000000000E+00 0.  1.
         11    1    4    4    0    0  0.59510251857E+02  0.19830046538E+02  0.10251170262E+03  0.12018048925E+03  0.00000000000E+00 0. -1.
          1    1    1    2  501    0  0.37934641236E+02  0.38804198163E+02  0.17741281387E+02  0.57092520228E+02  0.00000000000E+00 0. -1.
<scales pt_clust_5="13000.00000" pt_clust_6="13000.00000" pt_clust_7="13000.00000" pt_clust_8="13000.00000" pt_clust_9="54.26606"></scales>
<clustering>
<clus scale="   54.266">  1  9  2 -1</clus>
<clus scale="   79.327">  5  6 -1 -1</clus>
<clus scale="   87.846">  7  8 -1 -1</clus>
<clus scale="  100.994">  2  5  1 -1</clus>
<clus scale="   54.266">  1  5  2 -1</clus>
</clustering>
</event>
<event>
 9    2  0.4883225E-005  0.1075604E+03  0.7546771E-02  0.1273681E+00
          2   -1    0    0  502    0 -0.00000000000E+00  0.00000000000E+00  0.17078713971E+03  0.17078713971E+03  0.00000000000E+00 0. -1.
         21   -1    0    0  501  502  0.00000000000E+00 -0.00000000000E+00 -0.15653049783E+03  0.15653049783E+03  0.00000000000E+00 0. -1.
         24    2    1    2    0    0 -0.52841543326E+01 -0.26701472864E+02 -0.22556437145E+02  0.87468998748E+02  0.80007136839E+02 0.  0.
         23    2    1    2    0    0  0.61512285455E+02  0.48773470275E+02 -0.48946700364E+02  0.13495099554E+03  0.98251610961E+02 0.  0.
        -11    1    3    3    0    0 -0.14172059161E+02  0.18177765990E+02 -0.33275852521E+02  0.40479140285E+02  0.00000000000E+00 0.  1.
         12    1    3    3    0    0  0.88879048287E+01 -0.44879238853E+02  0.10719415376E+02  0.46989858462E+02  0.00000000000E+00 0. -1.
        -13    1    4    4    0    0  0.87480655125E+02  0.31406764735E+02 -0.27059191386E+02  0.96806248407E+02  0.00000000000E+00 0. -1.
         13    1    4    4    0    0 -0.25968369670E+02  0.17366705540E+02 -0.21887508978E+02  0.38144747134E+02  0.00000000000E+00 0.  1.
          1    1    1    2  501    0 -0.56228131123E+02 -0.22071997411E+02  0.85759779392E+02  0.10489764326E+03  0.00000000000E+00 0. -1.
<scales pt_clust_5="13000.00000" pt_clust_6="13000.00000" pt_clust_7="13000.00000" pt_clust_8="13000.00000" pt_clust_9="60.40513"></scales>
<clustering>
<clus scale="   60.405">  2  9  1 -1</clus>
<clus scale="   80.007">  5  6 -1 -1</clus>
<clus scale="   91.198">  1  5  2 -1</clus>
<clus scale="   98.252">  7  8 -1 -1</clus>
<clus scale="   60.405">  2  5  1 -1</clus>
</clustering>
</event>
<event>
 9    2  0.4883225E-005  0.9908485E+02  0.7546771E-02  0.1285249E+00
         21   -1    0    0  501  502  0.00000000000E+00  0.00000000000E+00  0.14966261083E+02  0.14966261083E+02  0.00000000000E+00 0.  1.
          2   -1    0    0  502    0 -0.00000000000E+00 -0.00000000000E+00 -0.83509332396E+03  0.83509332396E+03  0.00000000000E+00 0. -1.
         23    2    1    2    0    0 -0.20251215952E+02  0.45760059771E+02 -0.49104463472E+03  0.50185333468E+03  0.90707449692E+02 0.  0.
         24    2    1    2    0    0  0.14641454553E+02 -0.21260512821E+02 -0.24845539906E+03  0.26375262376E+03  0.84669827114E+02 0.  0.
        -11    1    4    4    0    0 -0.15642850850E+02  0.27166006097E+02 -0.92468142793E+02  0.97637329447E+02  0.00000000000E+00 0.  1.
         12    1    4    4    0    0  0.30284305403E+02 -0.48426518918E+02 -0.15598725627E+03  0.16611529432E+03  0.00000000000E+00 0. -1.
        -13    1    3    3    0    0  0.49551415783E+01 -0.25261260166E+02 -0.82741091634E+02  0.86653176157E+02  0.00000000000E+00 0.  1.
         13    1    3    3    0    0 -0.25206357530E+02  0.71021319937E+02 -0.40830354308E+03  0.41520015853E+03  0.00000000000E+00 0. -1.
          1    1    1    2  501    0  0.56097613986E+01 -0.24499546950E+02 -0.80627029095E+02  0.84453626591E+02  0.00000000000E+00 0. -1.
<scales pt_clust_5="13000.00000" pt_clust_6="13000.00000" pt_clust_7="13000.00000" pt_clust_8="13000.00000" pt_clust_9="25.13359"></scales>
<clustering>
<clus scale="   25.134">  1  9  2 -1</clus>
<clus scale="   84.670">  5  6 -1 -1</clus>
<clus scale="   90.707">  7  8 -1 -1</clus>
<clus scale="   93.589">  1  5  2 -1</clus>
<clus scale="   25.134">  1  5  2 -1</clus>
</clustering>
</event>
<event>
 9    2  0.4883225E-005  0.3139344E+03  0.7546771E-02  0.1078927E+00
         21   -1    0    0  501  502  0.00000000000E+00  0.00000000000E+00  0.22932399241E+03  0.22932399241E+03  0.00000000000E+00 0. -1.
          2   -1    0    0  502    0 -0.00000000000E+00 -0.00000000000E+00 -0.53042749058E+03  0.53042749058E+03  0.00000000000E+00 0. -1.
         23    2    1    2    0    0  0.29711771705E+03 -0.10080135007E+03 -0.17758450235E+03  0.37196151749E+03  0.91538325615E+02 0.  0.
         24    2    1    2    0    0 -0.28323479751E+03  0.42281236225E+02 -0.64648658664E+02  0.30362907330E+03  0.77469423830E+02 0.  0.
        -11    1    4    4    0    0 -0.63447882368E+02  0.74289974269E+01 -0.49068097581E+02  0.80551238228E+02  0.00000000000E+00 0.  1.
         12    1    4    4    0    0 -0.21978691514E+03  0.34852238798E+02 -0.15580561082E+02  0.22307783507E+03  0.00000000000E+00 0. -1.
        -11    1    3    3    0    0  0.92553561206E+02 -0.77527483787E+02 -0.59174821721E+02  0.13445568772E+03  0.00000000000E+00 0. -1.
         11    1    3    3    0    0  0.20456415585E+03 -0.23273866285E+02 -0.11840968063E+03  0.23750582977E+03  0.00000000000E+00 0.  1.
          1    1    1    2  501    0 -0.13882919544E+02  0.58520113847E+02 -0.58870337159E+02  0.84160892207E+02  0.00000000000E+00 0. -1.
<scales pt_clust_5="13000.00000" pt_clust_6="13000.00000" pt_clust_7="13000.00000" pt_clust_8="13000.00000" pt_clust_9="60.14435"></scales>
<clustering>
<clus scale="   60.144">  1  9  2 -1</clus>
<clus scale="   77.469">  5  6 -1 -1</clus>
<clus scale="   91.538">  7  8 -1 -1</clus>
<clus scale="  310.124">  1  5  2 -1</clus>
<clus scale="   60.144">  1  5  2 -1</clus>
</clustering>
</event>
<event>
 9    2  0.4883225E-005  0.9677993E+02  0.7546771E-02  0.1289051E+00
         -1   -1    0    0    0  501 -0.00000000000E+00  0.00000000000E+00  0.32009599630E+03  0.32009599630E+03  0.00000000000E+00 0.  1.
         21   -1    0    0  501  502  0.00000000000E+00 -0.00000000000E+00 -0.11543416975E+03  0.11543416975E+03  0.00000000000E+00 0. -1.
         23    2    1    2    0    0 -0.40467597804E+02  0.72660361797E+01  0.18963205433E+03  0.21385447394E+03  0.89905496156E+02 0.  0.
         24    2    1    2    0    0 -0.25710464560E+02  0.65639686777E+02 -0.30146732634E+02  0.11334427022E+03  0.83477551685E+02 0.  0.
        -11    1    4    4    0    0  0.27861593776E+02  0.28610911620E+02  0.34146162213E+01  0.40081320779E+02  0.00000000000E+00 0.  1.
         12    1    4    4    0    0 -0.53572058336E+02  0.37028775156E+02 -0.33561348856E+02  0.73262949442E+02  0.00000000000E+00 0. -1.
        -11    1    3    3    0    0  0.26020824245E+01  0.33379944369E+02  0.25267489031E+02  0.41945649607E+02  0.00000000000E+00 0. -1.
         11    1    3    3    0    0 -0.43069680228E+02 -0.26113908190E+02  0.16436456530E+03  0.17190882433E+03  0.00000000000E+00 0.  1.
         -2    1    1    2    0  502  0.66178062364E+02 -0.72905722956E+02  0.45176504846E+02  0.10833142189E+03  0.00000000000E+00 0.  1.
<scales pt_clust_5="13000.00000" pt_clust_6="13000.00000" pt_clust_7="13000.00000" pt_clust_8="13000.00000" pt_clust_9="98.46208"></scales>
<clustering>
<clus scale="   83.478">  5  6 -1 -1</clus>
<clus scale="   89.905">  7  8 -1 -1</clus>
<clus scale="   98.462">  2  9  1 -1</clus>
<clus scale="   98.462">  2  5  1 -1</clus>
<clus scale="   96.780">  2  5  1 -1</clus>
</clustering>
</event>
<event>
 9    2  0.4883225E-005  0.9378636E+02  0.7546771E-02  0.1300610E+00
          2   -1    0    0  502    0 -0.00000000000E+00  0.00000000000E+00  0.47147485889E+03  0.47147485889E+03  0.00000000000E+00 0. -1.
         21   -1    0    0  501  502  0.00000000000E+00 -0.00000000000E+00 -0.43032288909E+02  0.43032288909E+02  0.00000000000E+00 0. -1.
         24    2    1    2    0    0 -0.23260919529E+02 -0.16431598080E+02  0.21819596506E+03  0.23422202708E+03  0.80245940748E+02 0.  0.
         23    2    1    2    0    0 -0.49030183388E+02  0.30983382468E+02  0.98485833820E+02  0.14638878789E+03  0.91467419792E+02 0.  0.
        -13    1    3    3    0    0  0.12908340223E+01 -0.45234640344E+02  0.92915040871E+02  0.10334913526E+03  0.00000000000E+00 0.  1.
         14    1    3    3    0    0 -0.24551753552E+02  0.28803042263E+02  0.12528092419E+03  0.13087289182E+03  0.00000000000E+00 0. -1.
        -11    1    4    4    0    0 -0.26400488747E+02  0.54187363412E+02  0.23495672905E+02  0.64693916290E+02  0.00000000000E+00 0. -1.
         11    1    4    4    0    0 -0.22629694641E+02 -0.23203980944E+02  0.74990160915E+02  0.81694871597E+02  0.00000000000E+00 0.  1.
          1    1    1    2  501    0  0.72291102917E+02 -0.14551784388E+02  0.11176077110E+03  0.13389633284E+03  0.00000000000E+00 0. -1.
<scales pt_clust_5="13000.00000" pt_clust_6="13000.00000" pt_clust_7="13000.00000" pt_clust_8="13000.00000" pt_clust_9="73.74119"></scales>
<clustering>
<clus scale="   73.741">  2  9  1 -1</clus>
<clus scale="   80.246">  5  6 -1 -1</clus>
<clus scale="   82.879">  1  5  2 -1</clus>
<clus scale="   91.467">  7  8 -1 -1</clus>
<clus scale="   73.741">  2  5  1 -1</clus>
</clustering>
</event>
<event>
 9    2  0.4883225E-005  0.1231130E+03  0.7546771E-02  0.1240840E+00
         21   -1    0    0  501  502  0.00000000000E+00  0.00000000000E+00  0.79882580492E+02  0.79882580492E+02  0.00000000000E+00 0.  1.
         -1   -1    0    0    0  501 -0.00000000000E+00 -0.00000000000E+00 -0.29858746168E+03  0.29858746168E+03  0.00000000000E+00 0.  1.
         23    2    1    2    0    0  0.99687679543E+02  0.61763919732E+01 -0.16345376495E+03  0.21221638571E+03  0.91339366205E+02 0.  0.
         24    2    1    2    0    0 -0.53424269828E+02  0.20954115179E+02 -0.19872233612E+02  0.10200388733E+03  0.81955230539E+02 0.  0.
        -11    1    4    4    0    0 -0.69321902973E+02  0.31147913616E+02 -0.28597458087E+02  0.81200574896E+02  0.00000000000E+00 0.  1.
         12    1    4    4    0    0  0.15897633145E+02 -0.10193798436E+02  0.87252244747E+01  0.20803312436E+02  0.00000000000E+00 0. -1.
        -11    1    3    3    0    0  0.41715106581E+02  0.46913784095E+02 -0.93715766963E+02  0.11279937160E+03  0.00000000000E+00 0.  1.
         11    1    3    3    0    0  0.57972572962E+02 -0.40737392122E+02 -0.69737997987E+02  0.99417014117E+02  0.00000000000E+00 0. -1.
         -2    1    1    2    0  502 -0.46263409715E+02 -0.27130507153E+02 -0.35378882627E+02  0.64249769126E+02  0.00000000000E+00 0.  1.
<scales pt_clust_5="13000.00000" pt_clust_6="13000.00000" pt_clust_7="13000.00000" pt_clust_8="13000.00000" pt_clust_9="53.63178"></scales>
<clustering>
<clus scale="   53.632">  1  9  2 -1</clus>
<clus scale="   81.955">  5  6 -1 -1</clus>
<clus scale="   91.339">  7  8 -1 -1</clus>
<clus scale="  116.321">  1  5  2 -1</clus>
<clus scale="   53.632">  1  5  2 -1</clus>
</clustering>
</event>
<event>
 9    2  0.4883225E-005  0.1277686E+03  0.7546771E-02  0.1233332E+00
         21   -1    0    0  501  502  0.00000000000E+00  0.00000000000E+00  0.27552981135E+03  0.27552981135E+03  0.00000000000E+00 0.  1.
          2   -1    0    0  502    0 -0.00000000000E+00 -0.00000000000E+00 -0.15588934666E+03  0.15588934666E+03  0.00000000000E+00 0. -1.
         23    2    1    2    0    0 -0.88156927124E+02 -0.11702688651E+02 -0.98850276906E+02  0.15988123388E+03  0.88780825521E+02 0.  0.
         24    2    1    2    0    0  0.11149642599E+03  0.65054604953E+01  0.17868572207E+03  0.22510320688E+03  0.79177600693E+02 0.  0.
        -11    1    4    4    0    0  0.51898518273E+02 -0.18479895435E+01  0.14941368593E+03  0.15818129095E+03  0.00000000000E+00 0.  1.
         12    1    4    4    0    0  0.59597907714E+02  0.83534500388E+01  0.29272036140E+02  0.66921915926E+02  0.00000000000E+00 0. -1.
        -13    1    3    3    0    0 -0.34087947046E+02  0.14604954148E+02  0.73817206483E+01  0.37812466453E+02  0.00000000000E+00 0.  1.
         13    1    3    3    0    0 -0.54068980077E+02 -0.26307642799E+02 -0.10623199755E+03  0.12206876742E+03  0.00000000000E+00 0. -1.
          1    1    1    2  501    0 -0.23339498864E+02  0.51972281556E+01  0.39805019519E+02  0.46434717255E+02  0.00000000000E+00 0. -1.
<scales pt_clust_5="13000.00000" pt_clust_6="13000.00000" pt_clust_7="13000.00000" pt_clust_8="13000.00000" pt_clust_9="23.91116"></scales>
<clustering>
<clus scale="   23.911">  1  9  2 -1</clus>
<clus scale="   79.178">  5  6 -1 -1</clus>
<clus scale="   88.781">  7  8 -1 -1</clus>
<clus scale="  121.293">  1  5  2 -1</clus>
<clus scale="   23.911">  1  5  2 -1</clus>
</clustering>
</event>
<event>
 9    2  0.4883225E-005  0.1339919E+03  0.7546771E-02  0.1247001E+00
         21   -1    0    0  501  502  0.00000000000E+00  0.00000000000E+00  0.14998872096E+03  0.14998872096E+03  0.00000000000E+00 0. -1.
          2   -1    0    0  502    0 -0.00000000000E+00 -0.00000000000E+00 -0.16406027759E+03  0.16406027759E+03  0.00000000000E+00 0. -1.
         24    2    1    2    0    0 -0.28142233361E+01  0.35864571482E+01 -0.15267610346E+01  0.79692827074E+02  0.79547678532E+02 0.  0.
         23    2    1    2    0    0  0.23266999249E+02  0.95492329827E+02 -0.48827811170E+01  0.13289865063E+03  0.89320050819E+02 0.  0.
        -11    1    3    3    0    0 -0.25178268341E+02 -0.13236406285E+02  0.27363860898E+02  0.39470603381E+02  0.00000000000E+00 0.  1.
         12    1    3    3    0    0  0.22364045005E+02  0.16822863434E+02 -0.28890621933E+02  0.40222223692E+02  0.00000000000E+00 0. -1.
        -11    1    4    4    0    0 -0.22349451346E+02  0.72583448715E+02  0.16226092563E+02  0.77660421597E+02  0.00000000000E+00 0. -1.
         11    1    4    4    0    0  0.45616450595E+02  0.22908881112E+02 -0.21108873680E+02  0.55238229034E+02  0.00000000000E+00 0.  1.
          1    1    1    2  501    0 -0.20452775913E+02 -0.99078786975E+02 -0.76620144809E+01  0.10145752085E+03  0.00000000000E+00 0. -1.
<scales pt_clust_5="13000.00000" pt_clust_6="13000.00000" pt_clust_7="13000.00000" pt_clust_8="13000.00000" pt_clust_9="99.87881"></scales>
<clustering>
<clus scale="   79.548">  5  6 -1 -1</clus>
<clus scale="   79.678">  2  5  1 -1</clus>
<clus scale="   89.320">  7  8 -1 -1</clus>
<clus scale="   99.879">  1  9  2 -1</clus>
<clus scale="   99.879">  1  5  2 -1</clus>
</clustering>
</event>
<event>
 9    2  0.4883225E-005  0.1118233E+03  0.7546771E-02  0.1260748E+00
         21   -1    0    0  501  502  0.00000000000E+00  0.00000000000E+00  0.17156751057E+03  0.17156751057E+03  0.00000000000E+00 0.  1.
         -1   -1    0    0    0  501 -0.00000000000E+00 -0.00000000000E+00 -0.13067385129E+03  0.13067385129E+03  0.00000000000E+00 0.  1.
         24    2    1    2    0    0  0.64466591251E+02 -0.20576804126E+02 -0.63833882506E+00  0.10699176538E+03  0.82870284943E+02 0.  0.
         23    2    1    2    0    0 -0.60344954990E+02 -0.47472975781E+02  0.10595397356E+02  0.12038415922E+03  0.92113442681E+02 0.  0.
        -11    1    3    3    0    0  0.67863717015E+02 -0.27189430935E+02 -0.28265627345E+02  0.78381725746E+02  0.00000000000E+00 0.  1.
         12    1    3    3    0    0 -0.33971257638E+01  0.66126268085E+01  0.27627288520E+02  0.28610039632E+02  0.00000000000E+00 0. -1.
        -11    1    4    4    0    0 -0.83865173618E+02 -0.43345764425E+02  0.36466140584E+00  0.94405273251E+02  0.00000000000E+00 0.  1.
         11    1    4    4    0    0  0.23520218628E+02 -0.41272113556E+01  0.10230735950E+02  0.25978885965E+02  0.00000000000E+00 0. -1.
         -2    1    1    2    0  502 -0.41216362613E+01  0.68049779907E+02  0.30936600758E+02  0.74865437268E+02  0.00000000000E+00 0.  1.
<scales pt_clust_5="13000.00000" pt_clust_6="13000.00000" pt_clust_7="13000.00000" pt_clust_8="13000.00000" pt_clust_9="68.17449"></scales>
<clustering>
<clus scale="   68.174">  1  9  2 -1</clus>
<clus scale="   82.870">  5  6 -1 -1</clus>
<clus scale="   92.113">  7  8 -1 -1</clus>
<clus scale="  104.341">  2  5  1 -1</clus>
<clus scale="   68.174">  1  5  2 -1</clus>
</clustering>
</event>
<event>
 9    2  0.4883225E-005  0.1390436E+03  0.7546771E-02  0.1236877E+00
          2   -1    0    0  502    0 -0.00000000000E+00  0.00000000000E+00  0.43479372091E+03  0.43479372091E+03  0.00000000000E+00 0. -1.
         21   -1    0    0  501  502  0.00000000000E+00 -0.00000000000E+00 -0.10531860273E+03  0.10531860273E+03  0.00000000000E+00 0.  1.
         24    2    1    2    0    0  0.26683589415E+02 -0.23087182809E+02 -0.11720332344E+02  0.88307331435E+02  0.80098605736E+02 0.  0.
         23    2    1    2    0    0  0.97011494991E+02  0.69756436765E+01  0.65215330772E+02  0.14894350225E+03  0.92039327088E+02 0.  0.
        -13    1    3    3    0    0  0.54782455425E+01 -0.36943875442E+02 -0.36962773676E+02  0.52546243869E+02  0.00000000000E+00 0.  1.
         14    1    3    3    0    0  0.21205343873E+02  0.13856692633E+02  0.25242441332E+02  0.35761087566E+02  0.00000000000E+00 0. -1.
        -11    1    4    4    0    0  0.13423496449E+01 -0.26036131730E+02  0.34377312076E+02  0.43144891281E+02  0.00000000000E+00 0. -1.
         11    1    4    4    0    0  0.95669145346E+02  0.33011775407E+02  0.30838018696E+02  0.10579861097E+03  0.00000000000E+00 0.  1.
          1    1    1    2  501    0 -0.12369508441E+03  0.16111539132E+02  0.27598011975E+03  0.30286148995E+03  0.00000000000E+00 0. -1.
<scales pt_clust_5="13000.00000" pt_clust_6="13000.00000" pt_clust_7="13000.00000" pt_clust_8="13000.00000" pt_clust_9="104.22039"></scales>
<clustering>
<clus scale="   80.099">  5  6 -1 -1</clus>
<clus scale="   87.526">  1  5  2 -1</clus>
<clus scale="   92.039">  7  8 -1 -1</clus>
<clus scale="  104.220">  2  9  1 -1</clus>
<clus scale="  104.220">  2  5  1 -1</clus>
</clustering>
</event>
<event>
 9    2  0.4883225E-005  0.1088161E+03  0.7546771E-02  0.1264245E+00
          2   -1    0    0  502    0 -0.00000000000E+00  0.00000000000E+00  0.48332264336E+03  0.48332264336E+03  0.00000000000E+00 0. -1.
         21   -1    0    0  501  502  0.00000000000E+00 -0.00000000000E+00 -0.39535412260E+02  0.39535412260E+02  0.00000000000E+00 0. -1.
         24    2    1    2    0    0 -0.32830093424E+02  0.38300083594E+02  0.19813709171E+03  0.22255518854E+03  0.87907868786E+02 0.  0.
         23    2    1    2    0    0  0.67675630300E+02 -0.39317736022E+02  0.12051693877E+03  0.17040458013E+03  0.91583366921E+02 0.  0.
        -11    1    3    3    0    0  0.21793307010E+02 -0.10732335329E+02  0.78716144198E+02  0.82379382187E+02  0.00000000000E+00 0.  1.
         12    1    3    3    0    0 -0.54623400434E+02  0.49032418924E+02  0.11942094751E+03  0.14017580635E+03  0.00000000000E+00 0. -1.
        -13    1    4    4    0    0  0.30466971386E+02  0.28748929841E+02  0.32048979551E+02  0.52743477347E+02  0.00000000000E+00 0.  1.
         13    1    4    4    0    0  0.37208658915E+02 -0.68066665862E+02  0.88467959223E+02  0.11766110279E+03  0.00000000000E+00 0. -1.
          1    1    1    2  501    0 -0.34845536877E+02  0.10176524273E+01  0.12513320062E+03  0.12989828695E+03  0.00000000000E+00 0. -1.
<scales pt_clust_5="13000.00000" pt_clust_6="13000.00000" pt_clust_7="13000.00000" pt_clust_8="13000.00000" pt_clust_9="34.86041"></scales>
<clustering>
<clus scale="   34.860">  2  9  1 -1</clus>
<clus scale="   87.908">  5  6 -1 -1</clus>
<clus scale="   91.583">  7  8 -1 -1</clus>
<clus scale="  105.741">  1  5  2 -1</clus>
<clus scale="   34.860">  2  5  1 -1</clus>
</clustering>
</event>
<event>
 9    2  0.4883225E-005  0.9829756E+02  0.7546771E-02  0.1289413E+00
          2   -1    0    0  502    0 -0.00000000000E+00  0.00000000000E+00  0.64590269938E+03  0.64590269938E+03  0.00000000000E+00 0. -1.
         21   -1    0    0  501  502  0.00000000000E+00 -0.00000000000E+00 -0.38641289225E+03  0.38641289225E+03  0.00000000000E+00 0.  1.
         24    2    1    2    0    0  0.37844674191E+02 -0.93306399984E+01  0.61915414903E+03  0.62551012368E+03  0.79948573173E+02 0.  0.
         23    2    1    2    0    0  0.24203593638E+02 -0.25646435652E+02 -0.29504469971E+03  0.31063332271E+03  0.90543540622E+02 0.  0.
        -13    1    3    3    0    0  0.15459121124E+02 -0.32572197402E+02  0.11963693489E+03  0.12495170531E+03  0.00000000000E+00 0.  1.
         14    1    3    3    0    0  0.22385553068E+02  0.23241557404E+02  0.49951721414E+03  0.50055841837E+03  0.00000000000E+00 0. -1.
        -11    1    4    4    0    0  0.46495940538E+02 -0.51217999555E+01 -0.26056557514E+03  0.26473104138E+03  0.00000000000E+00 0.  1.
         11    1    4    4    0    0 -0.22292346900E+02 -0.20524635697E+02 -0.34479124562E+02  0.45902281330E+02  0.00000000000E+00 0. -1.
          1    1    1    2  501    0 -0.62048267829E+02  0.34977075651E+02 -0.64619642199E+02  0.96172145237E+02  0.00000000000E+00 0. -1.
<scales pt_clust_5="13000.00000" pt_clust_6="13000.00000" pt_clust_7="13000.00000" pt_clust_8="13000.00000" pt_clust_9="71.22769"></scales>
<clustering>
<clus scale="   71.228">  2  9  1 -1</clus>
<clus scale="   79.949">  5  6 -1 -1</clus>
<clus scale="   88.634">  1  5  2 -1</clus>
<clus scale="   90.544">  7  8 -1 -1</clus>
<clus scale="   71.228">  2  5  1 -1</clus>
</clustering>
</event>
<event>
 9    2  0.4883225E-005  0.1282507E+03  0.7546771E-02  0.1251623E+00
         21   -1    0    0  501  502  0.00000000000E+00  0.00000000000E+00  0.29247284171E+03  0.29247284171E+03  0.00000000000E+00 0. -1.
          2   -1    0    0  502    0 -0.00000000000E+00 -0.00000000000E+00 -0.23310846984E+03  0.23310846984E+03  0.00000000000E+00 0. -1.
         24    2    1    2    0    0  0.68585929642E+01  0.13636889264E+02 -0.11654950610E+03  0.14299102200E+03  0.81422601010E+02 0.  0.
         23    2    1    2    0    0 -0.70640003421E+02  0.59727820364E+02 -0.51454785053E+02  0.13531118031E+03  0.84285811396E+02 0.  0.
        -13    1    3    3    0    0 -0.29757017714E+02 -0.64667459263E+01 -0.16641359546E+02  0.34702071316E+02  0.00000000000E+00 0.  1.
         14    1    3    3    0    0  0.36615610678E+02  0.20103635190E+02 -0.99908146555E+02  0.10828895069E+03  0.00000000000E+00 0. -1.
        -11    1    4    4    0    0  0.19307909649E+02  0.15552130064E+02 -0.12822891861E+02  0.27912195905E+02  0.00000000000E+00 0.  1.
         11    1    4    4    0    0 -0.89947913071E+02  0.44175690300E+02 -0.38631893192E+02  0.10739898440E+03  0.00000000000E+00 0. -1.
          1    1    1    2  501    0  0.63781410457E+02 -0.73364709628E+02  0.22736866302E+03  0.24727910923E+03  0.00000000000E+00 0. -1.
<scales pt_clust_5="13000.00000" pt_clust_6="13000.00000" pt_clust_7="13000.00000" pt_clust_8="13000.00000" pt_clust_9="96.66506"></scales>
<clustering>
<clus scale="   81.423">  5  6 -1 -1</clus>
<clus scale="   82.841">  2  5  1 -1</clus>
<clus scale="   84.286">  7  8 -1 -1</clus>
<clus scale="   96.665">  1  9  2 -1</clus>
<clus scale="   96.665">  1  5  2 -1</clus>
</clustering>
</event>
<event>
 9    2  0.4883225E-005  0.1302344E+03  0.7546771E-02  0.1243030E+00
         21   -1    0    0  501  502  0.00000000000E+00  0.00000000000E+00  0.99109638545E+02  0.99109638545E+02  0.00000000000E+00 0.  1.
         -3   -1    0    0    0  501 -0.00000000000E+00 -0.00000000000E+00 -0.59405741197E+03  0.59405741197E+03  0.00000000000E+00 0.  1.
         23    2    1    2    0    0 -0.29927556629E+01 -0.19409925056E+02 -0.60546907615E+02  0.11181402701E+03  0.91927943722E+02 0.  0.
         24    2    1    2    0    0  0.57215795962E+02 -0.69064462370E+02 -0.45916041521E+03  0.47467176640E+03  0.80258654714E+02 0.  0.
        -11    1    4    4    0    0  0.48121749374E+02 -0.57954286025E+01 -0.28626170420E+03  0.29033610359E+03  0.00000000000E+00 0.  1.
         12    1    4    4    0    0  0.90940465884E+01 -0.63269033767E+02 -0.17289871101E+03  0.18433566282E+03  0.00000000000E+00 0. -1.
        -13    1    3    3    0    0 -0.43015888743E+02 -0.27728770116E+02 -0.22275483475E+02  0.55816203208E+02  0.00000000000E+00 0.  1.
         13    1    3    3    0    0  0.40023133080E+02  0.83188450600E+01 -0.38271424140E+02  0.55997823800E+02  0.00000000000E+00 0. -1.
         -4    1    1    2    0  502 -0.54223040299E+02  0.88474387427E+02  0.24759549401E+02  0.10668125710E+03  0.00000000000E+00 0.  1.
<scales pt_clust_5="13000.00000" pt_clust_6="13000.00000" pt_clust_7="13000.00000" pt_clust_8="13000.00000" pt_clust_9="102.56480"></scales>
<clustering>
<clus scale="   80.259">  5  6 -1 -1</clus>
<clus scale="   91.928">  7  8 -1 -1</clus>
<clus scale="   94.002">  2  7  1 -1</clus>
<clus scale="  102.565">  1  9  2 -1</clus>
<clus scale="  102.565">  1  5  2 -1</clus>
</clustering>
</event>
<event>
 9    2  0.4883225E-005  0.1079830E+03  0.7546771E-02  0.1270520E+00
         21   -1    0    0  501  502  0.00000000000E+00  0.00000000000E+00  0.37733821025E+03  0.37733821025E+03  0.00000000000E+00 0. -1.
          2   -1    0    0  502    0 -0.00000000000E+00 -0.00000000000E+00 -0.10497266566E+03  0.10497266566E+03  0.00000000000E+00 0. -1.
         24    2    1    2    0    0 -0.88406686180E+01  0.56160071130E+02 -0.64639538036E+02  0.11743398800E+03  0.79877159751E+02 0.  0.
         23    2    1    2    0    0  0.18712028303E+02 -0.16707980948E+02  0.20964865855E+03  0.23118481665E+03  0.94151807135E+02 0.  0.
        -11    1    3    3    0    0 -0.10846410807E+02  0.51259320446E+02  0.18390535069E+00  0.52394621681E+02  0.00000000000E+00 0.  1.
         12    1    3    3    0    0  0.20057421890E+01  0.49007506841E+01 -0.64823443387E+02  0.65039366322E+02  0.00000000000E+00 0. -1.
        -11    1    4    4    0    0  0.38740550099E+02 -0.41373353057E+02  0.82279358263E+02  0.99912348392E+02  0.00000000000E+00 0. -1.
         11    1    4    4    0    0 -0.20028521796E+02  0.24665372109E+02  0.12736930028E+03  0.13127246825E+03  0.00000000000E+00 0.  1.
          1    1    1    2  501    0 -0.98713596846E+01 -0.39452090181E+02  0.12735642409E+03  0.13369207126E+03  0.00000000000E+00 0. -1.
<scales pt_clust_5="13000.00000" pt_clust_6="13000.00000" pt_clust_7="13000.00000" pt_clust_8="13000.00000" pt_clust_9="40.66831"></scales>
<clustering>
<clus scale="   40.668">  1  9  2 -1</clus>
<clus scale="   79.877">  5  6 -1 -1</clus>
<clus scale="   94.152">  7  8 -1 -1</clus>
<clus scale="   95.792">  2  5  1 -1</clus>
<clus scale="   40.668">  1  5  2 -1</clus>
</clustering>
</event>
<event>
 9    2  0.4883225E-005  0.2267396E+03  0.7546771E-02  0.1141548E+00
         21   -1    0    0  501  502  0.00000000000E+00  0.00000000000E+00  0.55878033649E+03  0.55878033649E+03  0.00000000000E+00 0. -1.
          4   -1    0    0  502    0 -0.00000000000E+00 -0.00000000000E+00 -0.25814613298E+03  0.25814613298E+03  0.00000000000E+00 0. -1.
         23    2    1    2    0    0 -0.13479111095E+03  0.36251159900E+02  0.23829723456E+03  0.29093753460E+03  0.91522056642E+02 0.  0.
         24    2    1    2    0    0  0.31334199332E+03 -0.47964448215E+02 -0.23237822876E+02  0.32764412472E+03  0.79541705895E+02 0.  0.
        -13    1    4    4    0    0  0.10002457861E+03  0.34062264080E+01  0.24627686183E+02  0.10306814071E+03  0.00000000000E+00 0.  1.
         14    1    4    4    0    0  0.21331741472E+03 -0.51370674623E+02 -0.47865509058E+02  0.22457598400E+03  0.00000000000E+00 0. -1.
        -11    1    3    3    0    0 -0.76032238723E+02  0.54098064753E+02  0.19381971265E+03  0.21511295392E+03  0.00000000000E+00 0. -1.
         11    1    3    3    0    0 -0.58758872232E+02 -0.17846904853E+02  0.44477521913E+02  0.75824580673E+02  0.00000000000E+00 0.  1.
          3    1    1    2  501    0 -0.17855088237E+03  0.11713288315E+02  0.85574791826E+02  0.19834481015E+03  0.00000000000E+00 0. -1.
<scales pt_clust_5="13000.00000" pt_clust_6="13000.00000" pt_clust_7="13000.00000" pt_clust_8="13000.00000" pt_clust_9="212.32983"></scales>
<clustering>
<clus scale="   79.542">  5  6 -1 -1</clus>
<clus scale="   91.522">  7  8 -1 -1</clus>
<clus scale="  166.910">  2  7  1 -1</clus>
<clus scale="  212.330">  1  9  2 -1</clus>
<clus scale="  212.330">  1  5  2 -1</clus>
</clustering>
</event>
<event>
 9    2  0.4883225E-005  0.1349771E+03  0.7546771E-02  0.1238589E+00
          2   -1    0    0  502    0 -0.00000000000E+00  0.00000000000E+00  0.12226091189E+04  0.12226091189E+04  0.00000000000E+00 0. -1.
         21   -1    0    0  501  502  0.00000000000E+00 -0.00000000000E+00 -0.47927909709E+03  0.47927909709E+03  0.00000000000E+00 0. -1.
         24    2    1    2    0    0  0.57509381246E+01 -0.48566002185E+02  0.11783246892E+04  0.11819416820E+04  0.78392197228E+02 0.  0.
         23    2    1    2    0    0 -0.70247384446E+02 -0.34074278155E+02 -0.68135232973E+02  0.13840354529E+03  0.91746280164E+02 0.  0.
        -11    1    3    3    0    0 -0.19244143114E+02 -0.21923121090E+02  0.14160244424E+03  0.14457597482E+03  0.00000000000E+00 0.  1.
         12    1    3    3    0    0  0.24995081239E+02 -0.26642881095E+02  0.10367222450E+04  0.10373657072E+04  0.00000000000E+00 0. -1.
        -13    1    4    4    0    0 -0.78710263557E+02 -0.83826201412E+01 -0.17606159713E+02  0.81089769821E+02  0.00000000000E+00 0. -1.
         13    1    4    4    0    0  0.84628791110E+01 -0.25691658014E+02 -0.50529073260E+02  0.57313775472E+02  0.00000000000E+00 0.  1.
          1    1    1    2  501    0  0.64496446322E+02  0.82640280340E+02 -0.36685943447E+03  0.38154298865E+03  0.00000000000E+00 0. -1.
<scales pt_clust_5="13000.00000" pt_clust_6="13000.00000" pt_clust_7="13000.00000" pt_clust_8="13000.00000" pt_clust_9="99.00227"></scales>
<clustering>
<clus scale="   78.392">  5  6 -1 -1</clus>
<clus scale="   91.746">  7  8 -1 -1</clus>
<clus scale="   92.396">  1  5  2 -1</clus>
<clus scale="   99.002">  2  9  1 -1</clus>
<clus scale="   99.002">  2  5  1 -1</clus>
</clustering>
</event>
<event>
 9    2  0.4883225E-005  0.1041542E+03  0.7546771E-02  0.1276888E+00
         21   -1    0    0  501  502  0.00000000000E+00  0.00000000000E+00  0.73393571162E+02  0.73393571162E+02  0.00000000000E+00 0.  1.
          2   -1    0    0  502    0 -0.00000000000E+00 -0.00000000000E+00 -0.27715023143E+03  0.27715023143E+03  0.00000000000E+00 0. -1.
         24    2    1    2    0    0 -0.37315493798E+02  0.14131093016E+02 -0.13696008646E+03  0.16388354054E+03  0.80669794277E+02 0.  0.
         23    2    1    2    0    0  0.53159791803E+02 -0.61429545031E+02 -0.59355094599E+02  0.13622653370E+03  0.91842739304E+02 0.  0.
        -13    1    3    3    0    0  0.24342795188E+02 -0.42453980303E+01 -0.27984234004E+02  0.37332458194E+02  0.00000000000E+00 0.  1.
         14    1    3    3    0    0 -0.61658288986E+02  0.18376491046E+02 -0.10897585245E+03  0.12655108234E+03  0.00000000000E+00 0. -1.
        -11    1    4    4    0    0  0.18073411953E+02 -0.62135933916E+02  0.28841555139E+01  0.64775310545E+02  0.00000000000E+00 0.  1.
         11    1    4    4    0    0  0.35086379850E+02  0.70638888441E+00 -0.62239250113E+02  0.71451223158E+02  0.00000000000E+00 0. -1.
          1    1    1    2  501    0 -0.15844298004E+02  0.47298452016E+02 -0.74414792074E+01  0.50433728349E+02  0.00000000000E+00 0. -1.
<scales pt_clust_5="13000.00000" pt_clust_6="13000.00000" pt_clust_7="13000.00000" pt_clust_8="13000.00000" pt_clust_9="49.88171"></scales>
<clustering>
<clus scale="   49.882">  1  9  2 -1</clus>
<clus scale="   80.670">  5  6 -1 -1</clus>
<clus scale="   91.843">  7  8 -1 -1</clus>
<clus scale="   94.449">  2  5  1 -1</clus>
<clus scale="   49.882">  1  5  2 -1</clus>
</clustering>
</event>
<event>
 9    2  0.4883225E-005  0.1275448E+03  0.7546771E-02  0.1234739E+00
         21   -1    0    0  501  502  0.00000000000E+00  0.00000000000E+00  0.51897321689E+02  0.51897321689E+02  0.00000000000E+00 0.  1.
          2   -1    0    0  502    0 -0.00000000000E+00 -0.00000000000E+00 -0.40854886799E+03  0.40854886799E+03  0.00000000000E+00 0. -1.
         24    2    1    2    0    0 -0.58324920073E+02  0.67664852086E+02 -0.17258385357E+03  0.21059208572E+03  0.81138841176E+02 0.  0.
         23    2    1    2    0    0  0.29141038236E+02 -0.80993888174E+02 -0.17511364792E+03  0.21654438945E+03  0.93901399789E+02 0.  0.
        -11    1    3    3    0    0 -0.70007383116E+02  0.26272615188E+02 -0.86337878307E+02  0.11421695684E+03  0.00000000000E+00 0.  1.
         12    1    3    3    0    0  0.11682463043E+02  0.41392236898E+02 -0.86245975261E+02  0.96375128882E+02  0.00000000000E+00 0. -1.
        -13    1    4    4    0    0  0.15826712849E+02 -0.56595117491E+02 -0.24972861999E+02  0.63852454924E+02  0.00000000000E+00 0.  1.
         13    1    4    4    0    0  0.13314325386E+02 -0.24398770683E+02 -0.15014078592E+03  0.15269193453E+03  0.00000000000E+00 0. -1.
          1    1    1    2  501    0  0.29183881837E+02  0.13329036088E+02 -0.89540448126E+01  0.33309714508E+02  0.00000000000E+00 0. -1.
<scales pt_clust_5="13000.00000" pt_clust_6="13000.00000" pt_clust_7="13000.00000" pt_clust_8="13000.00000" pt_clust_9="32.08367"></scales>
<clustering>
<clus scale="   32.084">  1  9  2 -1</clus>
<clus scale="   81.139">  5  6 -1 -1</clus>
<clus scale="   93.901">  7  8 -1 -1</clus>
<clus scale="  118.464">  2  5  1 -1</clus>
<clus scale="   32.084">  1  5  2 -1</clus>
</clustering>
</event>
<event>
 9    2  0.4883225E-005  0.1158361E+03  0.7546771E-02  0.1252785E+00
          2   -1    0    0  502    0 -0.00000000000E+00  0.00000000000E+00  0.14157155588E+03  0.14157155588E+03  0.00000000000E+00 0. -1.
         21   -1    0    0  501  502  0.00000000000E+00 -0.00000000000E+00 -0.17383977796E+03  0.17383977796E+03  0.00000000000E+00 0.  1.
         24    2    1    2    0    0  0.63856391937E+02 -0.24965350226E+01  0.46536439652E+02  0.11317849769E+03  0.80992966649E+02 0.  0.
         23    2    1    2    0    0 -0.98133509301E+02  0.21901279597E+02 -0.26608786006E+02  0.13684266617E+03  0.88927139262E+02 0.  0.
        -13    1    3    3    0    0  0.16091546404E+02 -0.17478482525E+02 -0.19203673948E+02  0.30548589332E+02  0.00000000000E+00 0.  1.
         14    1    3    3    0    0  0.47764845533E+02  0.14981947503E+02  0.65740113600E+02  0.82629908362E+02  0.00000000000E+00 0. -1.
        -11    1    4    4    0    0 -0.99228287358E+02 -0.12037197399E+02 -0.23934708442E+02  0.10278140591E+03  0.00000000000E+00 0. -1.
         11    1    4    4    0    0  0.10947780571E+01  0.33938476996E+02 -0.26740775644E+01  0.34061260262E+02  0.00000000000E+00 0.  1.
          1    1    1    2  501    0  0.34277117364E+02 -0.19404744574E+02 -0.52195875717E+02  0.65390169970E+02  0.00000000000E+00 0. -1.
<scales pt_clust_5="13000.00000" pt_clust_6="13000.00000" pt_clust_7="13000.00000" pt_clust_8="13000.00000" pt_clust_9="39.38864"></scales>
<clustering>
<clus scale="   39.389">  2  9  1 -1</clus>
<clus scale="   80.993">  5  6 -1 -1</clus>
<clus scale="   88.927">  7  8 -1 -1</clus>
<clus scale="  109.863">  1  5  2 -1</clus>
<clus scale="   39.389">  2  5  1 -1</clus>
</clustering>
</event>
<event>
 9    2  0.4883225E-005  0.1237000E+03  0.7546771E-02  0.1239474E+00
         21   -1    0    0  501  502  0.00000000000E+00  0.00000000000E+00  0.43797755224E+02  0.43797755224E+02  0.00000000000E+00 0.  1.
          2   -1    0    0  502    0 -0.00000000000E+00 -0.00000000000E+00 -0.58448853775E+03  0.58448853775E+03  0.00000000000E+00 0. -1.
         23    2    1    2    0    0  0.88298979229E+02 -0.23602558055E+02 -0.21813666372E+03  0.25343471357E+03  0.91059098942E+02 0.  0.
         24    2    1    2    0    0 -0.76687597333E+02 -0.15121023517E+02 -0.10979715995E+03  0.15828781628E+03  0.83005924566E+02 0.  0.
        -11    1    4    4    0    0 -0.89137834363E+02  0.61669255373E+01 -0.85531767435E+02  0.12369020869E+03  0.00000000000E+00 0.  1.
         12    1    4    4    0    0  0.12450237030E+02 -0.21287949054E+02 -0.24265392512E+02  0.34597607588E+02  0.00000000000E+00 0. -1.
        -13    1    3    3    0    0  0.92662914723E+02 -0.21355333285E+01 -0.11353859971E+03  0.14656735616E+03  0.00000000000E+00 0.  1.
         13    1    3    3    0    0 -0.43639354942E+01 -0.21467024726E+02 -0.10459806401E+03  0.10686735740E+03  0.00000000000E+00 0. -1.
          1    1    1    2  501    0 -0.11611381897E+02  0.38723581571E+02 -0.21275695886E+03  0.21656376313E+03  0.00000000000E+00 0. -1.
<scales pt_clust_5="13000.00000" pt_clust_6="13000.00000" pt_clust_7="13000.00000" pt_clust_8="13000.00000" pt_clust_9="40.42699"></scales>
<clustering>
<clus scale="   40.427">  1  9  2 -1</clus>
<clus scale="   83.006">  5  6 -1 -1</clus>
<clus scale="   91.059">  7  8 -1 -1</clus>
<clus scale="  117.898">  1  5  2 -1</clus>
<clus scale="   40.427">  1  5  2 -1</clus>
</clustering>
</event>
<event>
 9    2  0.4883225E-005  0.9798465E+02  0.7546771E-02  0.1289248E+00
         21   -1    0    0  501  502  0.00000000000E+00  0.00000000000E+00  0.10408991008E+03  0.10408991008E+03  0.00000000000E+00 0.  1.
          2   -1    0    0  502    0 -0.00000000000E+00 -0.00000000000E+00 -0.13188028288E+03  0.13188028288E+03  0.00000000000E+00 0. -1.
         24    2    1    2    0    0  0.35677403633E+02  0.15905818516E+02 -0.28299752156E+02  0.96062844235E+02  0.83074195017E+02 0.  0.
         23    2    1    2    0    0 -0.11177383560E+02 -0.28830586629E+02  0.27960284617E+02  0.10090923578E+03  0.91895373771E+02 0.  0.
        -11    1    3    3    0    0 -0.21000295483E+02 -0.59431377791E+01  0.10257812773E+02  0.24115472625E+02  0.00000000000E+00 0.  1.
         12    1    3    3    0    0  0.56677699116E+02  0.21848956295E+02 -0.38557564929E+02  0.71947371610E+02  0.00000000000E+00 0. -1.
        -13    1    4    4    0    0  0.12996932873E+02 -0.55593191073E+02  0.30550055532E+02  0.64752058274E+02  0.00000000000E+00 0.  1.
         13    1    4    4    0    0 -0.24174316433E+02  0.26762604443E+02 -0.25897709150E+01  0.36157177503E+02  0.00000000000E+00 0. -1.
          1    1    1    2  501    0 -0.24500020074E+02  0.12924768113E+02 -0.27450905253E+02  0.38998112949E+02  0.00000000000E+00 0. -1.
<scales pt_clust_5="13000.00000" pt_clust_6="13000.00000" pt_clust_7="13000.00000" pt_clust_8="13000.00000" pt_clust_9="27.70021"></scales>
<clustering>
<clus scale="   27.700">  1  9  2 -1</clus>
<clus scale="   83.074">  5  6 -1 -1</clus>
<clus scale="   89.764">  2  5  1 -1</clus>
<clus scale="   91.895">  7  8 -1 -1</clus>
<clus scale="   27.700">  1  5  2 -1</clus>
</clustering>
</event>
<event>
 9    2  0.4883225E-005  0.9331869E+02  0.7546771E-02  0.1295109E+00
          4   -1    0    0  502    0 -0.00000000000E+00  0.00000000000E+00  0.81756786903E+02  0.81756786903E+02  0.00000000000E+00 0. -1.
         21   -1    0    0  501  502  0.00000000000E+00 -0.00000000000E+00 -0.36748594711E+03  0.36748594711E+03  0.00000000000E+00 0.  1.
         23    2    1    2    0    0  0.24853363045E+02 -0.10373601363E+02  0.61139487816E+00  0.93795239156E+02  0.89843596459E+02 0.  0.
         24    2    1    2    0    0  0.45519130467E+02  0.71792905266E+02 -0.17858546755E+03  0.21284392679E+03  0.78635586518E+02 0.  0.
        -11    1    4    4    0    0  0.62484772586E+02  0.53966907064E+02 -0.16554898636E+03  0.18499524520E+03  0.00000000000E+00 0.  1.
         12    1    4    4    0    0 -0.16965642119E+02  0.17825998202E+02 -0.13036481191E+02  0.27848681589E+02  0.00000000000E+00 0. -1.
        -13    1    3    3    0    0  0.33734917033E+02 -0.45847623666E+02 -0.33042196980E+01  0.57017252572E+02  0.00000000000E+00 0.  1.
         13    1    3    3    0    0 -0.88815539883E+01  0.35474022303E+02  0.39156145761E+01  0.36777986583E+02  0.00000000000E+00 0. -1.
          3    1    1    2  501    0 -0.70372493512E+02 -0.61419303903E+02 -0.10775508753E+03  0.14260356806E+03  0.00000000000E+00 0. -1.
<scales pt_clust_5="13000.00000" pt_clust_6="13000.00000" pt_clust_7="13000.00000" pt_clust_8="13000.00000" pt_clust_9="93.40567"></scales>
<clustering>
<clus scale="   78.636">  5  6 -1 -1</clus>
<clus scale="   89.844">  7  8 -1 -1</clus>
<clus scale="   93.406">  2  9  1 -1</clus>
<clus scale="   93.406">  2  5  1 -1</clus>
<clus scale="   93.319">  2  5  1 -1</clus>
</clustering>
</event>
<event>
 9    2  0.4883225E-005  0.1149097E+03  0.7546771E-02  0.1254073E+00
         21   -1    0    0  501  502  0.00000000000E+00  0.00000000000E+00  0.65419802800E+02  0.65419802800E+02  0.00000000000E+00 0.  1.
          2   -1    0    0  502    0 -0.00000000000E+00 -0.00000000000E+00 -0.27059418400E+03  0.27059418400E+03  0.00000000000E+00 0. -1.
         24    2    1    2    0    0 -0.49124288631E+02 -0.46826005403E+02 -0.13884753744E+03  0.17448701646E+03  0.81001294713E+02 0.  0.
         23    2    1    2    0    0  0.61888762119E+02  0.63499397939E+02 -0.48439615829E+02  0.13394279507E+03  0.87931129609E+02 0.  0.
        -13    1    3    3    0    0  0.33005073364E+00  0.20096209150E+02 -0.43602961960E+02  0.48012340574E+02  0.00000000000E+00 0.  1.
         14    1    3    3    0    0 -0.49454339364E+02 -0.66922214553E+02 -0.95244575476E+02  0.12647467588E+03  0.00000000000E+00 0. -1.
        -11    1    4    4    0    0  0.83008916333E+02  0.61449472756E+02 -0.36157843145E+02  0.10942535133E+03  0.00000000000E+00 0.  1.
         11    1    4    4    0    0 -0.21120154214E+02  0.20499251837E+01 -0.12281772683E+02  0.24517443740E+02  0.00000000000E+00 0. -1.
          1    1    1    2  501    0 -0.12764473489E+02 -0.16673392537E+02 -0.17887227931E+02  0.27584175267E+02  0.00000000000E+00 0. -1.
<scales pt_clust_5="13000.00000" pt_clust_6="13000.00000" pt_clust_7="13000.00000" pt_clust_8="13000.00000" pt_clust_9="20.99843"></scales>
<clustering>
<clus scale="   20.998">  1  9  2 -1</clus>
<clus scale="   81.001">  5  6 -1 -1</clus>
<clus scale="   87.931">  7  8 -1 -1</clus>
<clus scale="  109.698">  2  5  1 -1</clus>
<clus scale="   20.998">  1  5  2 -1</clus>
</clustering>
</event>
<event>
 9    2  0.4883225E-005  0.6242270E+03  0.7546771E-02  0.9856380E-01
          2   -1    0    0  502    0 -0.00000000000E+00  0.00000000000E+00  0.39147252967E+04  0.39147252967E+04  0.00000000000E+00 0. -1.
         21   -1    0    0  501  502  0.00000000000E+00 -0.00000000000E+00 -0.11363514272E+03  0.11363514272E+03  0.00000000000E+00 0. -1.
         24    2    1    2    0    0 -0.66669345774E+02  0.33050303271E+02  0.50968783676E+03  0.52184114297E+03  0.83662197810E+02 0.  0.
         23    2    1    2    0    0 -0.49560265785E+03  0.92341153894E+02  0.23307041956E+04  0.23863346222E+04  0.90895535879E+02 0.  0.
        -11    1    3    3    0    0 -0.14760712280E+02  0.49635903722E+02  0.16690579721E+03  0.17475453272E+03  0.00000000000E+00 0.  1.
         12    1    3    3    0    0 -0.51908633494E+02 -0.16585600451E+02  0.34278203955E+03  0.34708661025E+03  0.00000000000E+00 0. -1.
        -11    1    4    4    0    0 -0.66207809067E+02  0.45417454358E+02  0.35750737763E+03  0.36641198697E+03  0.00000000000E+00 0.  1.
         11    1    4    4    0    0 -0.42939484878E+03  0.46923699536E+02  0.19731968180E+04  0.20199226352E+04  0.00000000000E+00 0. -1.
          1    1    1    2  501    0  0.56227200362E+03 -0.12539145716E+03  0.96069812162E+03  0.11201846743E+04  0.00000000000E+00 0. -1.
<scales pt_clust_5="13000.00000" pt_clust_6="13000.00000" pt_clust_7="13000.00000" pt_clust_8="13000.00000" pt_clust_9="576.08404"></scales>
<clustering>
<clus scale="   83.662">  5  6 -1 -1</clus>
<clus scale="   90.896">  7  8 -1 -1</clus>
<clus scale="   94.321">  5  7 -1 -1</clus>
<clus scale="  576.084">  2  9  1 -1</clus>
<clus scale="  576.084">  2  5  1 -1</clus>
</clustering>
</event>
<event>
 9    2  0.4883225E-005  0.1000913E+03  0.7546771E-02  0.1285616E+00
          2   -1    0    0  502    0 -0.00000000000E+00  0.00000000000E+00  0.42087526927E+03  0.42087526927E+03  0.00000000000E+00 0. -1.
         21   -1    0    0  501  502  0.00000000000E+00 -0.00000000000E+00 -0.38563746351E+02  0.38563746351E+02  0.00000000000E+00 0. -1.
         24    2    1    2    0    0 -0.17052698232E+02  0.52937229820E+02  0.21638647671E+03  0.23749699542E+03  0.80551664856E+02 0.  0.
         23    2    1    2    0    0  0.23603298015E+02 -0.12134918965E+02  0.14988441126E+03  0.17761323838E+03  0.91524607476E+02 0.  0.
        -11    1    3    3    0    0  0.30900340079E+02  0.20085345667E+02  0.57350663566E+02  0.68171480393E+02  0.00000000000E+00 0.  1.
         12    1    3    3    0    0 -0.47953038311E+02  0.32851884154E+02  0.15903581314E+03  0.16932551502E+03  0.00000000000E+00 0. -1.
        -13    1    4    4    0    0 -0.33026599291E+02 -0.19013190710E+02  0.55349111209E+02  0.67199566913E+02  0.00000000000E+00 0.  1.
         13    1    4    4    0    0  0.56629897305E+02  0.68782717449E+01  0.94535300052E+02  0.11041367147E+03  0.00000000000E+00 0. -1.
          1    1    1    2  501    0 -0.65505997825E+01 -0.40802310855E+02  0.16040634953E+02  0.44328781827E+02  0.00000000000E+00 0. -1.
<scales pt_clust_5="13000.00000" pt_clust_6="13000.00000" pt_clust_7="13000.00000" pt_clust_8="13000.00000" pt_clust_9="41.32480"></scales>
<clustering>
<clus scale="   41.325">  2  9  1 -1</clus>
<clus scale="   80.552">  5  6 -1 -1</clus>
<clus scale="   90.167">  1  5  2 -1</clus>
<clus scale="   91.525">  7  8 -1 -1</clus>
<clus scale="   41.325">  2  5  1 -1</clus>
</clustering>
</event>
<event>
 9    2  0.4883225E-005  0.2352214E+03  0.7546771E-02  0.1123714E+00
         21   -1    0    0  501  502  0.00000000000E+00  0.00000000000E+00  0.33039965195E+03  0.33039965195E+03  0.00000000000E+00 0. -1.
          2   -1    0    0  502    0 -0.00000000000E+00 -0.00000000000E+00 -0.38005111580E+03  0.38005111580E+03  0.00000000000E+00 0. -1.
         23    2    1    2    0    0  0.17238497311E+03  0.14862902881E+03 -0.26743445995E+03  0.36277817948E+03  0.90992581985E+02 0.  0.
         24    2    1    2    0    0 -0.10542734805E+03 -0.14650492167E+03  0.12660996421E+03  0.23453392498E+03  0.79984130560E+02 0.  0.
        -13    1    4    4    0    0 -0.69665987764E+02 -0.79549090902E+02  0.26703610418E+02  0.10906186558E+03  0.00000000000E+00 0.  1.
         14    1    4    4    0    0 -0.35761360282E+02 -0.66955830763E+02  0.99906353788E+02  0.12547205940E+03  0.00000000000E+00 0. -1.
        -11    1    3    3    0    0  0.31856518485E+02  0.18413070437E+02 -0.39528843670E+01  0.37006813261E+02  0.00000000000E+00 0.  1.
         11    1    3    3    0    0  0.14052845463E+03  0.13021595837E+03 -0.26348157558E+03  0.32577136622E+03  0.00000000000E+00 0. -1.
          1    1    1    2  501    0 -0.66957625066E+02 -0.21241071425E+01  0.91173031894E+02  0.11313866329E+03  0.00000000000E+00 0. -1.
<scales pt_clust_5="13000.00000" pt_clust_6="13000.00000" pt_clust_7="13000.00000" pt_clust_8="13000.00000" pt_clust_9="66.99131"></scales>
<clustering>
<clus scale="   66.991">  1  9  2 -1</clus>
<clus scale="   79.984">  5  6 -1 -1</clus>
<clus scale="   90.993">  7  8 -1 -1</clus>
<clus scale="  231.186">  1  5  2 -1</clus>
<clus scale="   66.991">  1  5  2 -1</clus>
</clustering>
</event>
<event>
 9    2  0.4883225E-005  0.1312545E+03  0.7546771E-02  0.1228239E+00
         21   -1    0    0  501  502  0.00000000000E+00  0.00000000000E+00  0.86706525846E+02  0.86706525846E+02  0.00000000000E+00 0.  1.
          2   -1    0    0  502    0 -0.00000000000E+00 -0.00000000000E+00 -0.51631794734E+03  0.51631794734E+03  0.00000000000E+00 0. -1.
         24    2    1    2    0    0 -0.80792413185E+02 -0.56917386516E+02 -0.43512314697E+03  0.45339468436E+03  0.80421289829E+02 0.  0.
         23    2    1    2    0    0  0.63447865194E+02  0.26290469496E+02  0.91533540728E+01  0.11424472347E+03  0.90836405514E+02 0.  0.
        -11    1    3    3    0    0 -0.29655927504E+02  0.80992334029E+01 -0.44349997419E+02  0.53962893630E+02  0.00000000000E+00 0.  1.
         12    1    3    3    0    0 -0.51136485682E+02 -0.65016619919E+02 -0.39077314955E+03  0.39943179073E+03  0.00000000000E+00 0. -1.
        -13    1    4    4    0    0  0.84653467356E+02  0.33953494982E+02  0.94326316070E+01  0.91695277392E+02  0.00000000000E+00 0.  1.
         13    1    4    4    0    0 -0.21205602162E+02 -0.76630254863E+01 -0.27927753423E+00  0.22549446082E+02  0.00000000000E+00 0. -1.
          1    1    1    2  501    0  0.17344547991E+02  0.30626917020E+02 -0.36416285938E+01  0.35385065352E+02  0.00000000000E+00 0. -1.
<scales pt_clust_5="13000.00000" pt_clust_6="13000.00000" pt_clust_7="13000.00000" pt_clust_8="13000.00000" pt_clust_9="35.19718"></scales>
<clustering>
<clus scale="   35.197">  1  9  2 -1</clus>
<clus scale="   80.421">  5  6 -1 -1</clus>
<clus scale="   90.836">  7  8 -1 -1</clus>
<clus scale="  124.274">  2  5  1 -1</clus>
<clus scale="   35.197">  1  5  2 -1</clus>
</clustering>
</event>
<event>
 9    2  0.4883225E-005  0.2499707E+03  0.7546771E-02  0.1113769E+00
          2   -1    0    0  502    0 -0.00000000000E+00  0.00000000000E+00  0.73875179268E+03  0.73875179268E+03  0.00000000000E+00 0. -1.
         21   -1    0    0  501  502  0.00000000000E+00 -0.00000000000E+00 -0.35671013455E+03  0.35671013455E+03  0.00000000000E+00 0. -1.
         24    2    1    2    0    0  0.22930165367E+03  0.71811309323E+02  0.59591897229E+03  0.64798810598E+03  0.83863290136E+02 0.  0.
         23    2    1    2    0    0 -0.20564765525E+03  0.78353952461E+02 -0.10531177608E+03  0.26067019830E+03  0.91804586620E+02 0.  0.
        -11    1    3    3    0    0  0.63953240214E+02 -0.17849171015E+02  0.15334813968E+03  0.16710554085E+03  0.00000000000E+00 0.  1.
         12    1    3    3    0    0  0.16534841346E+03  0.89660480338E+02  0.44257083261E+03  0.48088256513E+03  0.00000000000E+00 0. -1.
        -11    1    4    4    0    0 -0.12334852134E+03 -0.11545589718E+01 -0.64331627220E+02  0.13912134626E+03  0.00000000000E+00 0. -1.
         11    1    4    4    0    0 -0.82299133905E+02  0.79508511432E+02 -0.40980148862E+02  0.12154885204E+03  0.00000000000E+00 0.  1.
          1    1    1    2  501    0 -0.23653998426E+02 -0.15016526178E+03 -0.10856553808E+03  0.18680362295E+03  0.00000000000E+00 0. -1.
<scales pt_clust_5="13000.00000" pt_clust_6="13000.00000" pt_clust_7="13000.00000" pt_clust_8="13000.00000" pt_clust_9="152.01683"></scales>
<clustering>
<clus scale="   83.863">  5  6 -1 -1</clus>
<clus scale="   91.805">  7  8 -1 -1</clus>
<clus scale="  152.017">  2  9  1 -1</clus>
<clus scale="  247.165">  1  5  2 -1</clus>
<clus scale="  152.017">  2  5  1 -1</clus>
</clustering>
</event>
<event>
 9    2  0.4883225E-005  0.9149624E+02  0.7546771E-02  0.1303415E+00
         21   -1    0    0  501  502  0.00000000000E+00  0.00000000000E+00  0.31689957187E+02  0.31689957187E+02  0.00000000000E+00 0.  1.
          2   -1    0    0  502    0 -0.00000000000E+00 -0.00000000000E+00 -0.66930173348E+03  0.66930173348E+03  0.00000000000E+00 0. -1.
         24    2    1    2    0    0 -0.16043753446E+02  0.24460074587E+02 -0.36596932080E+03  0.37607070960E+03  0.81485812162E+02 0.  0.
         23    2    1    2    0    0 -0.16834568025E+02 -0.21357223352E+02 -0.27646868412E+03  0.29154577783E+03  0.88456054644E+02 0.  0.
        -13    1    3    3    0    0  0.33454775151E+02  0.96741017061E+01 -0.15595092821E+03  0.15979205935E+03  0.00000000000E+00 0.  1.
         14    1    3    3    0    0 -0.49498528597E+02  0.14785972881E+02 -0.21001839259E+03  0.21627865025E+03  0.00000000000E+00 0. -1.
        -13    1    4    4    0    0  0.36466565172E+02 -0.69544077172E+01 -0.12079275452E+03  0.12636876080E+03  0.00000000000E+00 0.  1.
         13    1    4    4    0    0 -0.53301133197E+02 -0.14402815634E+02 -0.15567592960E+03  0.16517701703E+03  0.00000000000E+00 0. -1.
          1    1    1    2  501    0  0.32878321471E+02 -0.31028512357E+01  0.48262286152E+01  0.33375203238E+02  0.00000000000E+00 0. -1.
<scales pt_clust_5="13000.00000" pt_clust_6="13000.00000" pt_clust_7="13000.00000" pt_clust_8="13000.00000" pt_clust_9="33.02441"></scales>
<clustering>
<clus scale="   33.024">  1  9  2 -1</clus>
<clus scale="   81.486">  5  6 -1 -1</clus>
<clus scale="   84.776">  2  5  1 -1</clus>
<clus scale="   88.456">  7  8 -1 -1</clus>
<clus scale="   33.024">  1  5  2 -1</clus>
</clustering>
</event>
<event>
 9    2  0.4883225E-005  0.3703055E+03  0.7546771E-02  0.1104869E+00
         21   -1    0    0  501  502  0.00000000000E+00  0.00000000000E+00  0.39570598386E+03  0.39570598386E+03  0.00000000000E+00 0. -1.
          2   -1    0    0  502    0 -0.00000000000E+00 -0.00000000000E+00 -0.67392515364E+03  0.67392515364E+03  0.00000000000E+00 0. -1.
         24    2    1    2    0    0  0.30984409792E+02  0.18598848906E+02  0.13531736690E+03  0.16556689105E+03  0.88293005376E+02 0.  0.
         23    2    1    2    0    0  0.12746273267E+03  0.31260465236E+03 -0.40712105380E+03  0.53685529418E+03  0.92182631459E+02 0.  0.
        -13    1    3    3    0    0  0.29499600864E+02 -0.98685513855E+01  0.42026190970E+01  0.31389118574E+02  0.00000000000E+00 0.  1.
         14    1    3    3    0    0  0.14848089281E+01  0.28467400291E+02  0.13111474780E+03  0.13417777248E+03  0.00000000000E+00 0. -1.
        -11    1    4    4    0    0  0.50523732571E+02  0.53314849968E+02 -0.13196459120E+03  0.15102905055E+03  0.00000000000E+00 0.  1.
         11    1    4    4    0    0  0.76939000102E+02  0.25928980239E+03 -0.27515646260E+03  0.38582624363E+03  0.00000000000E+00 0. -1.
          1    1    1    2  501    0 -0.15844714247E+03 -0.33120350126E+03 -0.64154828710E+01  0.36720895227E+03  0.00000000000E+00 0. -1.
<scales pt_clust_5="13000.00000" pt_clust_6="13000.00000" pt_clust_7="13000.00000" pt_clust_8="13000.00000" pt_clust_9="358.64815"></scales>
<clustering>
<clus scale="   88.293">  5  6 -1 -1</clus>
<clus scale="   92.183">  7  8 -1 -1</clus>
<clus scale="   95.402">  2  5  1 -1</clus>
<clus scale="  358.648">  1  9  2 -1</clus>
<clus scale="  358.648">  1  5  2 -1</clus>
</clustering>
</event>
<event>
 9    2  0.4883225E-005  0.1188498E+03  0.7546771E-02  0.1249094E+00
         -1   -1    0    0    0  501 -0.00000000000E+00  0.00000000000E+00  0.82014358317E+02  0.82014358317E+02  0.00000000000E+00 0.  1.
         21   -1    0    0  501  502  0.00000000000E+00 -0.00000000000E+00 -0.38725254531E+03  0.38725254531E+03  0.00000000000E+00 0.  1.
         23    2    1    2    0    0 -0.62878668078E+02 -0.65639399698E+02 -0.45685285592E+01  0.12945925351E+03  0.92068285385E+02 0.  0.
         24    2    1    2    0    0  0.35631006965E+02  0.22545027330E+01 -0.19470392029E+03  0.21336075272E+03  0.79614965860E+02 0.  0.
        -11    1    4    4    0    0  0.39722443868E+02  0.17253376305E+02 -0.43579642271E+02  0.61438886393E+02  0.00000000000E+00 0.  1.
         12    1    4    4    0    0 -0.40914369028E+01 -0.14998873572E+02 -0.15112427801E+03  0.15192186633E+03  0.00000000000E+00 0. -1.
        -13    1    3    3    0    0 -0.58677043525E+02 -0.88429780679E+02 -0.54695706244E+01  0.10626729389E+03  0.00000000000E+00 0.  1.
         13    1    3    3    0    0 -0.42016245534E+01  0.22790380981E+02  0.90104206510E+00  0.23191959619E+02  0.00000000000E+00 0. -1.
         -2    1    1    2    0  502  0.27247661113E+02  0.63384896965E+02 -0.10596573815E+03  0.12644689740E+03  0.00000000000E+00 0.  1.
<scales pt_clust_5="13000.00000" pt_clust_6="13000.00000" pt_clust_7="13000.00000" pt_clust_8="13000.00000" pt_clust_9="68.99333"></scales>
<clustering>
<clus scale="   68.993">  2  9  1 -1</clus>
<clus scale="   79.615">  5  6 -1 -1</clus>
<clus scale="   92.068">  7  8 -1 -1</clus>
<clus scale="  109.486">  2  5  1 -1</clus>
<clus scale="   68.993">  2  5  1 -1</clus>
</clustering>
</event>
<event>
 9    2  0.4883225E-005  0.1044831E+03  0.7546771E-02  0.1276931E+00
         21   -1    0    0  501  502  0.00000000000E+00  0.00000000000E+00  0.25093581689E+03  0.25093581689E+03  0.00000000000E+00 0. -1.
         -3   -1    0    0    0  501 -0.00000000000E+00 -0.00000000000E+00 -0.60741210840E+02  0.60741210840E+02  0.00000000000E+00 0.  1.
         23    2    1    2    0    0  0.41698582923E+02  0.37295074270E+02  0.25305938526E+02  0.11134808514E+03  0.92888703061E+02 0.  0.
         24    2    1    2    0    0 -0.30177565221E+02 -0.12882862719E+02  0.12436470258E+03  0.15163724251E+03  0.80315754839E+02 0.  0.
        -13    1    4    4    0    0 -0.42987860941E+02  0.19492206984E+02  0.46103454901E+02  0.65980534063E+02  0.00000000000E+00 0.  1.
         14    1    4    4    0    0  0.12810295721E+02 -0.32375069703E+02  0.78261247675E+02  0.85656708449E+02  0.00000000000E+00 0. -1.
        -13    1    3    3    0    0 -0.25135871762E+02 -0.10637569654E+01  0.23256416028E+02  0.34260830617E+02  0.00000000000E+00 0. -1.
         13    1    3    3    0    0  0.66834454685E+02  0.38358831235E+02  0.20495224980E+01  0.77087254519E+02  0.00000000000E+00 0.  1.
         -4    1    1    2    0  502 -0.11521017702E+02 -0.24412211551E+02  0.40523964946E+02  0.48691700080E+02  0.00000000000E+00 0.  1.
<scales pt_clust_5="13000.00000" pt_clust_6="13000.00000" pt_clust_7="13000.00000" pt_clust_8="13000.00000" pt_clust_9="26.99426"></scales>
<clustering>
<clus scale="   26.994">  1  9  2 -1</clus>
<clus scale="   80.316">  5  6 -1 -1</clus>
<clus scale="   92.889">  7  8 -1 -1</clus>
<clus scale="   93.483">  1  5  2 -1</clus>
<clus scale="   26.994">  1  5  2 -1</clus>
</clustering>
</event>
<event>
 9    2  0.4883225E-005  0.9412515E+02  0.7546771E-02  0.1301560E+00
         21   -1    0    0  501  502  0.00000000000E+00  0.00000000000E+00  0.63565783014E+02  0.63565783014E+02  0.00000000000E+00 0. -1.
          4   -1    0    0  502    0 -0.00000000000E+00 -0.00000000000E+00 -0.20195117010E+03  0.20195117010E+03  0.00000000000E+00 0. -1.
         24    2    1    2    0    0 -0.16726027336E+01 -0.71808632846E+01 -0.84453403774E+02  0.11648338177E+03  0.79885157713E+02 0.  0.
         23    2    1    2    0    0 -0.25301928796E+02  0.13343257723E+02 -0.11658753608E+02  0.98510048047E+02  0.93541824351E+02 0.  0.
        -13    1    3    3    0    0  0.78599974243E+01  0.26725721491E+02 -0.75013487445E+02  0.80019166750E+02  0.00000000000E+00 0.  1.
         14    1    3    3    0    0 -0.95326001580E+01 -0.33906584775E+02 -0.94399163283E+01  0.36464215022E+02  0.00000000000E+00 0. -1.
        -11    1    4    4    0    0  0.40030783864E+01 -0.23517597333E+02 -0.37763905213E+02  0.44667824637E+02  0.00000000000E+00 0.  1.
         11    1    4    4    0    0 -0.29305007183E+02  0.36860855055E+02  0.26105151605E+02  0.53842223410E+02  0.00000000000E+00 0. -1.
          3    1    1    2  501    0  0.26974531530E+02 -0.61623944381E+01 -0.42273229707E+02  0.50523523297E+02  0.00000000000E+00 0. -1.
<scales pt_clust_5="13000.00000" pt_clust_6="13000.00000" pt_clust_7="13000.00000" pt_clust_8="13000.00000" pt_clust_9="27.66950"></scales>
<clustering>
<clus scale="   27.669">  1  9  2 -1</clus>
<clus scale="   79.885">  5  6 -1 -1</clus>
<clus scale="   80.567">  2  5  1 -1</clus>
<clus scale="   93.542">  7  8 -1 -1</clus>
<clus scale="   27.669">  1  5  2 -1</clus>
</clustering>
</event>
<event>
 9    2  0.4883225E-005  0.3896740E+03  0.7546771E-02  0.1047415E+00
          2   -1    0    0  502    0 -0.00000000000E+00  0.00000000000E+00  0.42098793752E+03  0.42098793752E+03  0.00000000000E+00 0. -1.
         21   -1    0    0  501  502  0.00000000000E+00 -0.00000000000E+00 -0.31909257352E+03  0.31909257352E+03  0.00000000000E+00 0. -1.
         24    2    1    2    0    0 -0.88155881492E+02 -0.65644975608E+02  0.18503908029E+02  0.13715963112E+03  0.79935270885E+02 0.  0.
         23    2    1    2    0    0 -0.14364404905E+03 -0.18761589145E+03  0.32154966048E+02  0.25579345018E+03  0.92536542826E+02 0.  0.
        -11    1    3    3    0    0  0.10885275292E+02 -0.26309672230E+02 -0.23589936521E+01  0.28570140393E+02  0.00000000000E+00 0.  1.
         12    1    3    3    0    0 -0.99041156784E+02 -0.39335303378E+02  0.20862901681E+02  0.10858949072E+03  0.00000000000E+00 0. -1.
        -13    1    4    4    0    0 -0.11078459956E+02 -0.76640034217E+02  0.29565936251E+02  0.82888911841E+02  0.00000000000E+00 0. -1.
         13    1    4    4    0    0 -0.13256558910E+03 -0.11097585723E+03  0.25890297976E+01  0.17290453833E+03  0.00000000000E+00 0.  1.
          1    1    1    2  501    0  0.23179993055E+03  0.25326086706E+03  0.51236489918E+02  0.34712742975E+03  0.00000000000E+00 0. -1.
<scales pt_clust_5="13000.00000" pt_clust_6="13000.00000" pt_clust_7="13000.00000" pt_clust_8="13000.00000" pt_clust_9="343.32549"></scales>
<clustering>
<clus scale="   79.935">  5  6 -1 -1</clus>
<clus scale="   92.537">  7  8 -1 -1</clus>
<clus scale="   97.402">  5  7 -1 -1</clus>
<clus scale="  343.325">  2  9  1 -1</clus>
<clus scale="  343.325">  2  5  1 -1</clus>
</clustering>
</event>
<event>
 9    2  0.4883225E-005  0.3498140E+03  0.7546771E-02  0.1062691E+00
          2   -1    0    0  502    0 -0.00000000000E+00  0.00000000000E+00  0.17077456691E+03  0.17077456691E+03  0.00000000000E+00 0. -1.
         21   -1    0    0  501  502  0.00000000000E+00 -0.00000000000E+00 -0.68325210704E+03  0.68325210704E+03  0.00000000000E+00 0.  1.
         24    2    1    2    0    0 -0.61601563144E+02 -0.16756960249E+03 -0.27129378891E+03  0.33471053711E+03  0.80972214327E+02 0.  0.
         23    2    1    2    0    0 -0.10445416651E+03 -0.62221304091E+02 -0.16736598195E+03  0.22635294947E+03  0.91881022172E+02 0.  0.
        -13    1    3    3    0    0 -0.71959334506E+01 -0.10068145173E+03 -0.95714454394E+02  0.13910353324E+03  0.00000000000E+00 0.  1.
         14    1    3    3    0    0 -0.54405629693E+02 -0.66888150760E+02 -0.17557933451E+03  0.19560700387E+03  0.00000000000E+00 0. -1.
        -11    1    4    4    0    0 -0.11913183383E+03 -0.43793240062E+02 -0.15285764559E+03  0.19868493028E+03  0.00000000000E+00 0.  1.
         11    1    4    4    0    0  0.14677667319E+02 -0.18428064029E+02 -0.14508336364E+02  0.27668019189E+02  0.00000000000E+00 0. -1.
          1    1    1    2  501    0  0.16605572965E+03  0.22979090658E+03 -0.73817769266E+02  0.29296318737E+03  0.00000000000E+00 0. -1.
<scales pt_clust_5="13000.00000" pt_clust_6="13000.00000" pt_clust_7="13000.00000" pt_clust_8="13000.00000" pt_clust_9="283.51093"></scales>
<clustering>
<clus scale="   80.972">  5  6 -1 -1</clus>
<clus scale="   91.881">  7  8 -1 -1</clus>
<clus scale="  124.112">  5  7 -1 -1</clus>
<clus scale="  283.511">  2  9  1 -1</clus>
<clus scale="  283.511">  2  5  1 -1</clus>
</clustering>
</event>
<event>
 9    2  0.4883225E-005  0.2319248E+03  0.7546771E-02  0.1155950E+00
         21   -1    0    0  501  502  0.00000000000E+00  0.00000000000E+00  0.15131929647E+03  0.15131929647E+03  0.00000000000E+00 0.  1.
         -1   -1    0    0    0  501 -0.00000000000E+00 -0.00000000000E+00 -0.69781951594E+03  0.69781951594E+03  0.00000000000E+00 0.  1.
         24    2    1    2    0    0  0.51458704261E+02  0.56859762147E+02 -0.26943438013E+03  0.29132210643E+03  0.79954072465E+02 0.  0.
         23    2    1    2    0    0 -0.22265090984E+03  0.35436811329E+02 -0.33491857627E+02  0.24612180181E+03  0.92871101791E+02 0.  0.
        -13    1    3    3    0    0  0.12390165935E+02  0.67667591759E+02 -0.19140128774E+03  0.20338847592E+03  0.00000000000E+00 0.  1.
         14    1    3    3    0    0  0.39068538325E+02 -0.10807829612E+02 -0.78033092387E+02  0.87933630513E+02  0.00000000000E+00 0. -1.
        -13    1    4    4    0    0 -0.17699041574E+03  0.46852188673E+02  0.81653595756E+01  0.18326867694E+03  0.00000000000E+00 0.  1.
         13    1    4    4    0    0 -0.45660494093E+02 -0.11415377345E+02 -0.41657217203E+02  0.62853124869E+02  0.00000000000E+00 0. -1.
         -2    1    1    2    0  502  0.17119220558E+03 -0.92296573475E+02 -0.24357398171E+03  0.31169490418E+03  0.00000000000E+00 0.  1.
<scales pt_clust_5="13000.00000" pt_clust_6="13000.00000" pt_clust_7="13000.00000" pt_clust_8="13000.00000" pt_clust_9="212.51852"></scales>
<clustering>
<clus scale="   79.954">  5  6 -1 -1</clus>
<clus scale="   92.871">  7  8 -1 -1</clus>
<clus scale="  110.787">  2  5  1 -1</clus>
<clus scale="  212.519">  1  9  2 -1</clus>
<clus scale="  212.519">  1  5  2 -1</clus>
</clustering>
</event>
<event>
 9    2  0.4883225E-005  0.1810728E+03  0.7546771E-02  0.1168204E+00
         21   -1    0    0  501  502  0.00000000000E+00  0.00000000000E+00  0.18752923201E+03  0.18752923201E+03  0.00000000000E+00 0.  1.
          2   -1    0    0  502    0 -0.00000000000E+00 -0.00000000000E+00 -0.35973567182E+03  0.35973567182E+03  0.00000000000E+00 0. -1.
         24    2    1    2    0    0  0.13730363790E+03 -0.74215000363E+02 -0.97120014661E+02  0.20019907804E+03  0.79291981567E+02 0.  0.
         23    2    1    2    0    0 -0.18019140714E+03 -0.34198797707E+02  0.59696454437E+01  0.20506935069E+03  0.91538521691E+02 0.  0.
        -13    1    3    3    0    0 -0.23650039358E+01 -0.25350473949E+02 -0.51494703839E+01  0.25976081658E+02  0.00000000000E+00 0.  1.
         14    1    3    3    0    0  0.13966864183E+03 -0.48864526414E+02 -0.91970544277E+02  0.17422299638E+03  0.00000000000E+00 0. -1.
        -13    1    4    4    0    0 -0.15298848526E+03  0.59380128321E+01  0.20457552023E+02  0.15446439089E+03  0.00000000000E+00 0.  1.
         13    1    4    4    0    0 -0.27202921882E+02 -0.40136810540E+02 -0.14487906579E+02  0.50604959799E+02  0.00000000000E+00 0. -1.
          1    1    1    2  501    0  0.42887769249E+02  0.10841379807E+03 -0.81056070586E+02  0.14199647510E+03  0.00000000000E+00 0. -1.
<scales pt_clust_5="13000.00000" pt_clust_6="13000.00000" pt_clust_7="13000.00000" pt_clust_8="13000.00000" pt_clust_9="116.58870"></scales>
<clustering>
<clus scale="   79.292">  5  6 -1 -1</clus>
<clus scale="   91.539">  7  8 -1 -1</clus>
<clus scale="  116.589">  1  9  2 -1</clus>
<clus scale="  175.201">  2  5  1 -1</clus>
<clus scale="  116.589">  1  5  2 -1</clus>
</clustering>
</event>
<event>
 9    2  0.4883225E-005  0.1428982E+03  0.7546771E-02  0.1215243E+00
         -1   -1    0    0    0  501 -0.00000000000E+00  0.00000000000E+00  0.67730007549E+03  0.67730007549E+03  0.00000000000E+00 0.  1.
         21   -1    0    0  501  502  0.00000000000E+00 -0.00000000000E+00 -0.53222965357E+02  0.53222965357E+02  0.00000000000E+00 0.  1.
         23    2    1    2    0    0 -0.17941755847E+02 -0.95407721887E+02  0.40815619410E+03  0.43250003238E+03  0.10507263787E+03 0.  0.
         24    2    1    2    0    0 -0.49265534420E+02  0.10006628890E+03  0.14188372853E+03  0.19792292233E+03  0.81253527335E+02 0.  0.
        -13    1    4    4    0    0 -0.54086755084E+02  0.65158658598E+02  0.47318990421E+02  0.97005745811E+02  0.00000000000E+00 0.  1.
         14    1    4    4    0    0  0.48212206647E+01  0.34907630302E+02  0.94564738111E+02  0.10091717652E+03  0.00000000000E+00 0. -1.
        -11    1    3    3    0    0 -0.49734715031E+02 -0.69752470481E+02  0.35646217114E+03  0.36661182260E+03  0.00000000000E+00 0.  1.
         11    1    3    3    0    0  0.31792959183E+02 -0.25655251406E+02  0.51694022964E+02  0.65888209784E+02  0.00000000000E+00 0. -1.
         -2    1    1    2    0  502  0.67207290267E+02 -0.46585670127E+01  0.74037187498E+02  0.10010008614E+03  0.00000000000E+00 0.  1.
<scales pt_clust_5="13000.00000" pt_clust_6="13000.00000" pt_clust_7="13000.00000" pt_clust_8="13000.00000" pt_clust_9="67.36855"></scales>
<clustering>
<clus scale="   67.369">  2  9  1 -1</clus>
<clus scale="   81.254">  5  6 -1 -1</clus>
<clus scale="  105.073">  7  8 -1 -1</clus>
<clus scale="  126.419">  2  5  1 -1</clus>
<clus scale="   67.369">  2  5  1 -1</clus>
</clustering>
</event>
<event>
 9    2  0.4883225E-005  0.1287388E+03  0.7546771E-02  0.1232233E+00
          2   -1    0    0  502    0 -0.00000000000E+00  0.00000000000E+00  0.35995065520E+03  0.35995065520E+03  0.00000000000E+00 0. -1.
         21   -1    0    0  501  502  0.00000000000E+00 -0.00000000000E+00 -0.10862000885E+03  0.10862000885E+03  0.00000000000E+00 0. -1.
         24    2    1    2    0    0  0.52502998260E+02  0.10388374960E+03  0.17820252278E+03  0.22797660493E+03  0.81662690463E+02 0.  0.
         23    2    1    2    0    0  0.32620240282E+02 -0.42508704449E+02 -0.92350857083E+01  0.10719031048E+03  0.92376435434E+02 0.  0.
        -11    1    3    3    0    0 -0.81346976201E+01  0.46052717916E+02  0.11138490389E+03  0.12080406842E+03  0.00000000000E+00 0.  1.
         12    1    3    3    0    0  0.60637695880E+02  0.57831031687E+02  0.66817618883E+02  0.10717253650E+03  0.00000000000E+00 0. -1.
        -11    1    4    4    0    0  0.30859711286E+02  0.14030443722E+02  0.24043844055E+02  0.41560577097E+02  0.00000000000E+00 0.  1.
         11    1    4    4    0    0  0.17605289960E+01 -0.56539148171E+02 -0.33278929763E+02  0.65629733386E+02  0.00000000000E+00 0. -1.
          1    1    1    2  501    0 -0.85123238542E+02 -0.61375045154E+02  0.82363209283E+02  0.13340374864E+03  0.00000000000E+00 0. -1.
<scales pt_clust_5="13000.00000" pt_clust_6="13000.00000" pt_clust_7="13000.00000" pt_clust_8="13000.00000" pt_clust_9="104.94224"></scales>
<clustering>
<clus scale="   81.663">  5  6 -1 -1</clus>
<clus scale="   92.376">  7  8 -1 -1</clus>
<clus scale="  104.942">  2  9  1 -1</clus>
<clus scale="  121.281">  1  5  2 -1</clus>
<clus scale="  104.942">  2  5  1 -1</clus>
</clustering>
</event>
<event>
 9    2  0.4883225E-005  0.1752071E+03  0.7546771E-02  0.1173872E+00
         21   -1    0    0  501  502  0.00000000000E+00  0.00000000000E+00  0.19363499819E+03  0.19363499819E+03  0.00000000000E+00 0. -1.
          2   -1    0    0  502    0 -0.00000000000E+00 -0.00000000000E+00 -0.72008741117E+03  0.72008741117E+03  0.00000000000E+00 0. -1.
         24    2    1    2    0    0 -0.57800517052E+02 -0.13822417232E+03 -0.41330188953E+03  0.44686690742E+03  0.80154597316E+02 0.  0.
         23    2    1    2    0    0 -0.13272937825E+03  0.53703719050E+02  0.73147156800E+02  0.18729839921E+03  0.96067718349E+02 0.  0.
        -13    1    3    3    0    0 -0.33043896430E+02 -0.15418651792E+02 -0.45459003120E+02  0.58276537981E+02  0.00000000000E+00 0.  1.
         14    1    3    3    0    0 -0.24756620622E+02 -0.12280552053E+03 -0.36784288641E+03  0.38859036943E+03  0.00000000000E+00 0. -1.
        -11    1    4    4    0    0 -0.68349635059E+02  0.67371660825E+02  0.74461451675E+02  0.12147065934E+03  0.00000000000E+00 0. -1.
         11    1    4    4    0    0 -0.64379743186E+02 -0.13667941775E+02 -0.13142948746E+01  0.65827739868E+02  0.00000000000E+00 0.  1.
          1    1    1    2  501    0  0.19052989530E+03  0.84520453275E+02 -0.18629768026E+03  0.27955710274E+03  0.00000000000E+00 0. -1.
<scales pt_clust_5="13000.00000" pt_clust_6="13000.00000" pt_clust_7="13000.00000" pt_clust_8="13000.00000" pt_clust_9="146.52148"></scales>
<clustering>
<clus scale="   80.155">  5  6 -1 -1</clus>
<clus scale="   96.068">  7  8 -1 -1</clus>
<clus scale="  169.916">  2  5  1 -1</clus>
<clus scale="  146.521">  1  9  2 -1</clus>
<clus scale="  146.521">  1  5  2 -1</clus>
</clustering>
</event>
<event>
 9    2  0.4883225E-005  0.1248268E+03  0.7546771E-02  0.1249672E+00
          2   -1    0    0  502    0 -0.00000000000E+00  0.00000000000E+00  0.68252051823E+03  0.68252051823E+03  0.00000000000E+00 0. -1.
         21   -1    0    0  501  502  0.00000000000E+00 -0.00000000000E+00 -0.47269691848E+02  0.47269691848E+02  0.00000000000E+00 0.  1.
         24    2    1    2    0    0  0.63493063507E+01 -0.46962103129E+02  0.40096201273E+03  0.41170011138E+03  0.80502753009E+02 0.  0.
         23    2    1    2    0    0 -0.42207112016E+02 -0.48152833052E+02  0.14364345337E+03  0.18189459711E+03  0.91389644513E+02 0.  0.
        -13    1    3    3    0    0  0.39855724932E+02 -0.59360478145E+01  0.16176550231E+03  0.16670870767E+03  0.00000000000E+00 0.  1.
         14    1    3    3    0    0 -0.33506418581E+02 -0.41026055315E+02  0.23919651042E+03  0.24499140372E+03  0.00000000000E+00 0. -1.
        -13    1    4    4    0    0 -0.38183304222E+02 -0.18467852462E+02  0.14581588987E+03  0.15185947463E+03  0.00000000000E+00 0. -1.
         13    1    4    4    0    0 -0.40238077932E+01 -0.29684980590E+02 -0.21724365004E+01  0.30035122475E+02  0.00000000000E+00 0.  1.
          1    1    1    2  501    0  0.35857805665E+02  0.95114936181E+02  0.90645360282E+02  0.13619550159E+03  0.00000000000E+00 0. -1.
<scales pt_clust_5="13000.00000" pt_clust_6="13000.00000" pt_clust_7="13000.00000" pt_clust_8="13000.00000" pt_clust_9="85.02752"></scales>
<clustering>
<clus scale="   80.503">  5  6 -1 -1</clus>
<clus scale="   91.390">  7  8 -1 -1</clus>
<clus scale="   93.415">  1  5  2 -1</clus>
<clus scale="   85.028">  2  9  1 -1</clus>
<clus scale="   85.028">  2  5  1 -1</clus>
</clustering>
</event>
<event>
 9    2  0.4883225E-005  0.1048085E+03  0.7546771E-02  0.1275509E+00
         21   -1    0    0  501  502  0.00000000000E+00  0.00000000000E+00  0.56869653007E+02  0.56869653007E+02  0.00000000000E+00 0. -1.
          2   -1    0    0  502    0 -0.00000000000E+00 -0.00000000000E+00 -0.43520744294E+03  0.43520744294E+03  0.00000000000E+00 0. -1.
         24    2    1    2    0    0  0.34985235732E+02  0.54167626917E+02 -0.22831350064E+03  0.25051296445E+03  0.80446207249E+02 0.  0.
         23    2    1    2    0    0 -0.15302171885E+02  0.63369292096E+01 -0.17781150731E+02  0.94811032679E+02  0.91644145804E+02 0.  0.
        -13    1    3    3    0    0  0.37597619728E+02 -0.98116234117E+01 -0.78570191238E+02  0.87653430705E+02  0.00000000000E+00 0.  1.
         14    1    3    3    0    0 -0.26123839965E+01  0.63979250328E+02 -0.14974330940E+03  0.16285953375E+03  0.00000000000E+00 0. -1.
        -13    1    4    4    0    0 -0.10217065684E+02  0.39721365091E+02  0.18720118022E+02  0.45084566036E+02  0.00000000000E+00 0. -1.
         13    1    4    4    0    0 -0.50851062008E+01 -0.33384435882E+02 -0.36501268753E+02  0.49726466643E+02  0.00000000000E+00 0.  1.
          1    1    1    2  501    0 -0.19683063846E+02 -0.60504556126E+02 -0.13224313856E+03  0.14675309881E+03  0.00000000000E+00 0. -1.
<scales pt_clust_5="13000.00000" pt_clust_6="13000.00000" pt_clust_7="13000.00000" pt_clust_8="13000.00000" pt_clust_9="63.62569"></scales>
<clustering>
<clus scale="   63.626">  1  9  2 -1</clus>
<clus scale="   80.446">  5  6 -1 -1</clus>
<clus scale="   91.644">  7  8 -1 -1</clus>
<clus scale="   95.172">  2  5  1 -1</clus>
<clus scale="   63.626">  1  5  2 -1</clus>
</clustering>
</event>
<event>
 9    2  0.4883225E-005  0.1098632E+03  0.7546771E-02  0.1262101E+00
          2   -1    0    0  502    0 -0.00000000000E+00  0.00000000000E+00  0.89068392522E+03  0.89068392522E+03  0.00000000000E+00 0. -1.
         21   -1    0    0  501  502  0.00000000000E+00 -0.00000000000E+00 -0.78878782135E+02  0.78878782135E+02  0.00000000000E+00 0.  1.
         24    2    1    2    0    0 -0.64698140971E+02  0.31788362682E+02  0.77940288369E+03  0.78688375810E+03  0.80751744260E+02 0.  0.
         23    2    1    2    0    0  0.85455216646E+02 -0.69791225221E+02  0.35830781823E+02  0.13924130985E+03  0.77012260537E+02 0.  0.
        -13    1    3    3    0    0 -0.33858396348E+02  0.39790091792E+02  0.20348325112E+03  0.21008349743E+03  0.00000000000E+00 0.  1.
         14    1    3    3    0    0 -0.30839744623E+02 -0.80017291099E+01  0.57591963257E+03  0.57680026066E+03  0.00000000000E+00 0. -1.
        -13    1    4    4    0    0  0.38535798896E+02  0.91238412264E+01  0.24910472185E+02  0.46784440787E+02  0.00000000000E+00 0. -1.
         13    1    4    4    0    0  0.46919417749E+02 -0.78915066448E+02  0.10920309638E+02  0.92456869063E+02  0.00000000000E+00 0.  1.
          1    1    1    2  501    0 -0.20757075675E+02  0.38002862539E+02 -0.34285224252E+01  0.43437639413E+02  0.00000000000E+00 0. -1.
<scales pt_clust_5="13000.00000" pt_clust_6="13000.00000" pt_clust_7="13000.00000" pt_clust_8="13000.00000" pt_clust_9="43.30212"></scales>
<clustering>
<clus scale="   43.302">  2  9  1 -1</clus>
<clus scale="   77.012">  7  8 -1 -1</clus>
<clus scale="   80.752">  5  6 -1 -1</clus>
<clus scale="  107.145">  2  7  1 -1</clus>
<clus scale="   43.302">  2  5  1 -1</clus>
</clustering>
</event>
<event>
 9    2  0.4883225E-005  0.9202245E+02  0.7546771E-02  0.1304169E+00
          2   -1    0    0  502    0 -0.00000000000E+00  0.00000000000E+00  0.16701938598E+03  0.16701938598E+03  0.00000000000E+00 0. -1.
         21   -1    0    0  501  502  0.00000000000E+00 -0.00000000000E+00 -0.13598689389E+03  0.13598689389E+03  0.00000000000E+00 0.  1.
         24    2    1    2    0    0 -0.13124078191E+02 -0.18222361599E+02  0.69100983206E+02  0.10793005178E+03  0.79810114068E+02 0.  0.
         23    2    1    2    0    0 -0.23872488452E+02  0.17329291236E+02 -0.90477773313E+02  0.13091801443E+03  0.89906056524E+02 0.  0.
        -11    1    3    3    0    0  0.32468802715E+02 -0.33471300407E+01  0.40778080445E+02  0.52232923277E+02  0.00000000000E+00 0.  1.
         12    1    3    3    0    0 -0.45592880906E+02 -0.14875231559E+02  0.28322902761E+02  0.55697128508E+02  0.00000000000E+00 0. -1.
        -11    1    4    4    0    0  0.72193212882E+01  0.38246537810E+02 -0.84417276264E+02  0.92958016255E+02  0.00000000000E+00 0.  1.
         11    1    4    4    0    0 -0.31091809741E+02 -0.20917246573E+02 -0.60604970494E+01  0.37959998178E+02  0.00000000000E+00 0. -1.
          1    1    1    2  501    0  0.36996566643E+02  0.89307036310E+00  0.52409282196E+02  0.64158213647E+02  0.00000000000E+00 0. -1.
<scales pt_clust_5="13000.00000" pt_clust_6="13000.00000" pt_clust_7="13000.00000" pt_clust_8="13000.00000" pt_clust_9="37.00736"></scales>
<clustering>
<clus scale="   37.007">  2  9  1 -1</clus>
<clus scale="   79.810">  5  6 -1 -1</clus>
<clus scale="   82.187">  1  5  2 -1</clus>
<clus scale="   89.906">  7  8 -1 -1</clus>
<clus scale="   37.007">  2  5  1 -1</clus>
</clustering>
</event>
<event>
 9    2  0.4883225E-005  0.9275784E+02  0.7546771E-02  0.1301939E+00
         21   -1    0    0  501  502  0.00000000000E+00  0.00000000000E+00  0.33341033984E+02  0.33341033984E+02  0.00000000000E+00 0. -1.
          2   -1    0    0  502    0 -0.00000000000E+00 -0.00000000000E+00 -0.44126908540E+03  0.44126908540E+03  0.00000000000E+00 0. -1.
         24    2    1    2    0    0 -0.17350219445E+02 -0.27554013895E+02 -0.17801641200E+03  0.19762556824E+03  0.79408869034E+02 0.  0.
         23    2    1    2    0    0 -0.21452647008E+02  0.21598300701E+02 -0.84760573072E+02  0.12661844784E+03  0.89000977122E+02 0.  0.
        -13    1    3    3    0    0  0.99195339211E+01 -0.47120657279E+02 -0.13318304583E+03  0.14162089250E+03  0.00000000000E+00 0.  1.
         14    1    3    3    0    0 -0.27269753366E+02  0.19566643384E+02 -0.44833366174E+02  0.56004675737E+02  0.00000000000E+00 0. -1.
        -13    1    4    4    0    0 -0.37077011783E+02 -0.24833085478E+02 -0.46591124005E+02  0.64514492737E+02  0.00000000000E+00 0.  1.
         13    1    4    4    0    0  0.15624364775E+02  0.46431386179E+02 -0.38169449067E+02  0.62103955101E+02  0.00000000000E+00 0. -1.
          1    1    1    2  501    0  0.38802866453E+02  0.59557131942E+01 -0.14515106634E+03  0.15036610331E+03  0.00000000000E+00 0. -1.
<scales pt_clust_5="13000.00000" pt_clust_6="13000.00000" pt_clust_7="13000.00000" pt_clust_8="13000.00000" pt_clust_9="39.25729"></scales>
<clustering>
<clus scale="   39.257">  1  9  2 -1</clus>
<clus scale="   79.409">  5  6 -1 -1</clus>
<clus scale="   83.598">  2  5  1 -1</clus>
<clus scale="   89.001">  7  8 -1 -1</clus>
<clus scale="   39.257">  1  5  2 -1</clus>
</clustering>
</event>
<event>
 9    2  0.4883225E-005  0.9464888E+02  0.7546771E-02  0.1298844E+00
          4   -1    0    0  502    0 -0.00000000000E+00  0.00000000000E+00  0.32950390735E+03  0.32950390735E+03  0.00000000000E+00 0. -1.
         21   -1    0    0  501  502  0.00000000000E+00 -0.00000000000E+00 -0.77754510713E+02  0.77754510713E+02  0.00000000000E+00 0. -1.
         24    2    1    2    0    0 -0.11619985027E+02 -0.33954198617E+01  0.20731305675E+03  0.22269304964E+03  0.80417273834E+02 0.  0.
         23    2    1    2    0    0  0.63498074809E+02 -0.94982900670E-01  0.64137268047E+02  0.12896279941E+03  0.92118401817E+02 0.  0.
        -11    1    3    3    0    0  0.14450621647E+02 -0.29284235907E+02  0.15719011660E+03  0.16054631636E+03  0.00000000000E+00 0.  1.
         12    1    3    3    0    0 -0.26070606674E+02  0.25888816046E+02  0.50122940146E+02  0.62146733280E+02  0.00000000000E+00 0. -1.
        -11    1    4    4    0    0  0.35035952767E+00  0.30644245683E+02  0.47921822188E+02  0.56883157323E+02  0.00000000000E+00 0.  1.
         11    1    4    4    0    0  0.63147715281E+02 -0.30739228583E+02  0.16215445859E+02  0.72079642088E+02  0.00000000000E+00 0. -1.
          3    1    1    2  501    0 -0.51878089782E+02  0.34904027624E+01 -0.19700928157E+02  0.55602569015E+02  0.00000000000E+00 0. -1.
<scales pt_clust_5="13000.00000" pt_clust_6="13000.00000" pt_clust_7="13000.00000" pt_clust_8="13000.00000" pt_clust_9="51.99538"></scales>
<clustering>
<clus scale="   51.995">  2  9  1 -1</clus>
<clus scale="   80.417">  5  6 -1 -1</clus>
<clus scale="   83.304">  1  5  2 -1</clus>
<clus scale="   92.118">  7  8 -1 -1</clus>
<clus scale="   51.995">  2  5  1 -1</clus>
</clustering>
</event>
<event>
 9    2  0.4883225E-005  0.8791014E+02  0.7546771E-02  0.1311904E+00
         21   -1    0    0  501  502  0.00000000000E+00  0.00000000000E+00  0.61181339559E+02  0.61181339559E+02  0.00000000000E+00 0.  1.
          2   -1    0    0  502    0 -0.00000000000E+00 -0.00000000000E+00 -0.23529328905E+03  0.23529328905E+03  0.00000000000E+00 0. -1.
         24    2    1    2    0    0  0.14506816887E+02  0.30141582484E+02 -0.12039103904E+03  0.14793335352E+03  0.79191616167E+02 0.  0.
         23    2    1    2    0    0 -0.16160670303E+02  0.19156851600E+02 -0.37896303912E+02  0.96738871610E+02  0.85405662589E+02 0.  0.
        -13    1    3    3    0    0 -0.12778098178E+02 -0.22480435815E+02 -0.27557384427E+02  0.37789670864E+02  0.00000000000E+00 0.  1.
         14    1    3    3    0    0  0.27284915065E+02  0.52622018299E+02 -0.92833654611E+02  0.11014368265E+03  0.00000000000E+00 0. -1.
        -13    1    4    4    0    0  0.32689592373E+02 -0.71172712165E+01 -0.12231300961E+02  0.35621197654E+02  0.00000000000E+00 0. -1.
         13    1    4    4    0    0 -0.48850262677E+02  0.26274122816E+02 -0.25665002951E+02  0.61117673956E+02  0.00000000000E+00 0.  1.
          1    1    1    2  501    0  0.16538534166E+01 -0.49298434084E+02 -0.15824606538E+02  0.51802403480E+02  0.00000000000E+00 0. -1.
<scales pt_clust_5="13000.00000" pt_clust_6="13000.00000" pt_clust_7="13000.00000" pt_clust_8="13000.00000" pt_clust_9="49.32617"></scales>
<clustering>
<clus scale="   49.326">  1  9  2 -1</clus>
<clus scale="   79.192">  5  6 -1 -1</clus>
<clus scale="   81.886">  2  5  1 -1</clus>
<clus scale="   85.406">  7  8 -1 -1</clus>
<clus scale="   49.326">  1  5  2 -1</clus>
</clustering>
</event>
<event>
 9    2  0.4883225E-005  0.2928997E+03  0.7546771E-02  0.1089481E+00
          2   -1    0    0  502    0 -0.00000000000E+00  0.00000000000E+00  0.14046502434E+04  0.14046502434E+04  0.00000000000E+00 0. -1.
         21   -1    0    0  501  502  0.00000000000E+00 -0.00000000000E+00 -0.78047976401E+02  0.78047976401E+02  0.00000000000E+00 0. -1.
         23    2    1    2    0    0  0.23592870616E+03 -0.17824997365E+03  0.70264464637E+03  0.76833714220E+03  0.95901290516E+02 0.  0.
         24    2    1    2    0    0 -0.19338677307E+03  0.16158565360E+03  0.36074636259E+03  0.44721377368E+03  0.79711064441E+02 0.  0.
        -11    1    4    4    0    0 -0.65469788096E+02  0.17551198158E+02  0.13014480071E+03  0.14673788489E+03  0.00000000000E+00 0.  1.
         12    1    4    4    0    0 -0.12791698498E+03  0.14403445544E+03  0.23060156188E+03  0.30047588878E+03  0.00000000000E+00 0. -1.
        -11    1    3    3    0    0  0.35847051472E+02  0.54570534945E-01  0.40919046778E+02  0.54400206492E+02  0.00000000000E+00 0.  1.
         11    1    3    3    0    0  0.20008165469E+03 -0.17830454419E+03  0.66172559959E+03  0.71393693571E+03  0.00000000000E+00 0. -1.
          1    1    1    2  501    0 -0.42541933090E+02  0.16664320057E+02  0.26321125809E+03  0.26714730397E+03  0.00000000000E+00 0. -1.
<scales pt_clust_5="13000.00000" pt_clust_6="13000.00000" pt_clust_7="13000.00000" pt_clust_8="13000.00000" pt_clust_9="45.68936"></scales>
<clustering>
<clus scale="   45.689">  2  9  1 -1</clus>
<clus scale="   79.711">  5  6 -1 -1</clus>
<clus scale="   95.901">  7  8 -1 -1</clus>
<clus scale="  288.005">  2  5  1 -1</clus>
<clus scale="   45.689">  2  5  1 -1</clus>
</clustering>
</event>
<event>
 9    2  0.4883225E-005  0.1021121E+03  0.7546771E-02  0.1281418E+00
          2   -1    0    0  502    0 -0.00000000000E+00  0.00000000000E+00  0.67534104368E+03  0.67534104368E+03  0.00000000000E+00 0. -1.
         21   -1    0    0  501  502  0.00000000000E+00 -0.00000000000E+00 -0.34793922667E+02  0.34793922667E+02  0.00000000000E+00 0.  1.
         24    2    1    2    0    0  0.18621997858E+02 -0.45794978296E+02  0.52497942413E+03  0.53330718363E+03  0.79807252258E+02 0.  0.
         23    2    1    2    0    0 -0.15830792358E+01  0.21754310067E+02  0.53396632908E+02  0.10802720370E+03  0.91339587186E+02 0.  0.
        -13    1    3    3    0    0  0.20894058989E+02  0.38561482602E+01  0.35956020133E+02  0.41764422231E+02  0.00000000000E+00 0.  1.
         14    1    3    3    0    0 -0.22720611306E+01 -0.49651126556E+02  0.48902340400E+03  0.49154276140E+03  0.00000000000E+00 0. -1.
        -11    1    4    4    0    0  0.12726821826E+02  0.42412954669E+02 -0.48931682226E+01  0.44550800361E+02  0.00000000000E+00 0.  1.
         11    1    4    4    0    0 -0.14309901062E+02 -0.20658644603E+02  0.58289801130E+02  0.63476403340E+02  0.00000000000E+00 0. -1.
          1    1    1    2  501    0 -0.17038918623E+02  0.24040668229E+02  0.62171063975E+02  0.68800579013E+02  0.00000000000E+00 0. -1.
<scales pt_clust_5="13000.00000" pt_clust_6="13000.00000" pt_clust_7="13000.00000" pt_clust_8="13000.00000" pt_clust_9="29.46658"></scales>
<clustering>
<clus scale="   29.467">  2  9  1 -1</clus>
<clus scale="   79.807">  5  6 -1 -1</clus>
<clus scale="   91.340">  7  8 -1 -1</clus>
<clus scale="   91.941">  1  5  2 -1</clus>
<clus scale="   29.467">  2  5  1 -1</clus>
</clustering>
</event>
<event>
 9    2  0.4883225E-005  0.1301916E+03  0.7546771E-02  0.1247177E+00
         21   -1    0    0  501  502  0.00000000000E+00  0.00000000000E+00  0.89378884102E+02  0.89378884102E+02  0.00000000000E+00 0.  1.
          2   -1    0    0  502    0 -0.00000000000E+00 -0.00000000000E+00 -0.17176781241E+03  0.17176781241E+03  0.00000000000E+00 0. -1.
         24    2    1    2    0    0 -0.86599290551E+01 -0.26701758526E+02 -0.22807446806E+02  0.88114115242E+02  0.80348860573E+02 0.  0.
         23    2    1    2    0    0  0.32645454919E+02  0.26832142315E+02 -0.32688316776E+02  0.13699697721E+03  0.12615052962E+03 0.  0.
        -11    1    3    3    0    0  0.36071662802E+02 -0.11503083827E+02 -0.95991200658E+01  0.39059299800E+02  0.00000000000E+00 0.  1.
         12    1    3    3    0    0 -0.44731591858E+02 -0.15198674699E+02 -0.13208326740E+02  0.49054815441E+02  0.00000000000E+00 0. -1.
        -11    1    4    4    0    0  0.33192460864E+02  0.85822117741E+00 -0.77995942959E+02  0.84769352480E+02  0.00000000000E+00 0. -1.
         11    1    4    4    0    0 -0.54700594488E+00  0.25973921138E+02  0.45307626183E+02  0.52227624732E+02  0.00000000000E+00 0.  1.
          1    1    1    2  501    0 -0.23985525864E+02 -0.13038378944E+00 -0.26893164725E+02  0.36035604057E+02  0.00000000000E+00 0. -1.
<scales pt_clust_5="13000.00000" pt_clust_6="13000.00000" pt_clust_7="13000.00000" pt_clust_8="13000.00000" pt_clust_9="23.98589"></scales>
<clustering>
<clus scale="   23.986">  1  9  2 -1</clus>
<clus scale="   80.349">  5  6 -1 -1</clus>
<clus scale="   86.555">  2  5  1 -1</clus>
<clus scale="  126.151">  7  8 -1 -1</clus>
<clus scale="   23.986">  1  5  2 -1</clus>
</clustering>
</event>
<event>
 9    2  0.4883225E-005  0.9285494E+02  0.7546771E-02  0.1303305E+00
          2   -1    0    0  502    0 -0.00000000000E+00  0.00000000000E+00  0.24566117658E+03  0.24566117658E+03  0.00000000000E+00 0. -1.
         21   -1    0    0  501  502  0.00000000000E+00 -0.00000000000E+00 -0.90356726128E+02  0.90356726128E+02  0.00000000000E+00 0. -1.
         24    2    1    2    0    0 -0.40878277899E+01 -0.31359230329E+01  0.14252943225E+03  0.16414455943E+03  0.81254249017E+02 0.  0.
         23    2    1    2    0    0 -0.12002721634E+02 -0.12210793405E+02  0.65331896623E+02  0.11480625156E+03  0.92838838208E+02 0.  0.
        -13    1    3    3    0    0  0.99825676781E+01 -0.40373281111E+02  0.70946173917E+02  0.82237540567E+02  0.00000000000E+00 0.  1.
         14    1    3    3    0    0 -0.14070395468E+02  0.37237358078E+02  0.71583258338E+02  0.81907018866E+02  0.00000000000E+00 0. -1.
        -11    1    4    4    0    0  0.13668721476E+02 -0.36069821647E+02 -0.22912582814E+01  0.38640857197E+02  0.00000000000E+00 0.  1.
         11    1    4    4    0    0 -0.25671443110E+02  0.23859028241E+02  0.67623154904E+02  0.76165394367E+02  0.00000000000E+00 0. -1.
          1    1    1    2  501    0  0.16090549424E+02  0.15346716438E+02 -0.52556878426E+02  0.57067091709E+02  0.00000000000E+00 0. -1.
<scales pt_clust_5="13000.00000" pt_clust_6="13000.00000" pt_clust_7="13000.00000" pt_clust_8="13000.00000" pt_clust_9="22.23573"></scales>
<clustering>
<clus scale="   22.236">  2  9  1 -1</clus>
<clus scale="   81.254">  5  6 -1 -1</clus>
<clus scale="   81.273">  1  5  2 -1</clus>
<clus scale="   92.839">  7  8 -1 -1</clus>
<clus scale="   22.236">  2  5  1 -1</clus>
</clustering>
</event>
<event>
 9    2  0.4883225E-005  0.1392600E+03  0.7546771E-02  0.1217389E+00
          2   -1    0    0  502    0 -0.00000000000E+00  0.00000000000E+00  0.50999985842E+03  0.50999985842E+03  0.00000000000E+00 0. -1.
         21   -1    0    0  501  502  0.00000000000E+00 -0.00000000000E+00 -0.71696525237E+02  0.71696525237E+02  0.00000000000E+00 0.  1.
         24    2    1    2    0    0 -0.40382023091E+02  0.88287457622E+02  0.31333518331E+03  0.34136445778E+03  0.94474192115E+02 0.  0.
         23    2    1    2    0    0  0.91557791056E+02 -0.81349389329E+02  0.11762796424E+03  0.18816896638E+03  0.81059667472E+02 0.  0.
        -11    1    3    3    0    0  0.28547244671E+02  0.47351908089E+02  0.12935883910E+03  0.14067998305E+03  0.00000000000E+00 0.  1.
         12    1    3    3    0    0 -0.68929267762E+02  0.40935549533E+02  0.18397634421E+03  0.20068447473E+03  0.00000000000E+00 0. -1.
        -11    1    4    4    0    0  0.47311412049E+02 -0.61826009657E+02  0.21827446186E+02  0.80853339988E+02  0.00000000000E+00 0.  1.
         11    1    4    4    0    0  0.44246379007E+02 -0.19523379671E+02  0.95800518050E+02  0.10731562639E+03  0.00000000000E+00 0. -1.
          1    1    1    2  501    0 -0.51175767965E+02 -0.69380682936E+01  0.73401856412E+01  0.52162959499E+02  0.00000000000E+00 0. -1.
<scales pt_clust_5="13000.00000" pt_clust_6="13000.00000" pt_clust_7="13000.00000" pt_clust_8="13000.00000" pt_clust_9="51.64393"></scales>
<clustering>
<clus scale="   51.644">  2  9  1 -1</clus>
<clus scale="   81.060">  7  8 -1 -1</clus>
<clus scale="   94.474">  5  6 -1 -1</clus>
<clus scale="  130.532">  2  7  1 -1</clus>
<clus scale="   51.644">  2  5  1 -1</clus>
</clustering>
</event>
<event>
 9    2  0.4883225E-005  0.9677193E+02  0.7546771E-02  0.1292960E+00
         21   -1    0    0  501  502  0.00000000000E+00  0.00000000000E+00  0.11794635332E+03  0.11794635332E+03  0.00000000000E+00 0. -1.
         -1   -1    0    0    0  501 -0.00000000000E+00 -0.00000000000E+00 -0.14927368199E+03  0.14927368199E+03  0.00000000000E+00 0.  1.
         24    2    1    2    0    0 -0.82615632876E+01  0.62225074166E+02 -0.23462610566E+02  0.10283905752E+03  0.78007463575E+02 0.  0.
         23    2    1    2    0    0  0.96653349913E-02 -0.11671279076E+01  0.27918298544E+02  0.93130778485E+02  0.88840014783E+02 0.  0.
        -11    1    3    3    0    0  0.33890497348E+02  0.39223772911E+02 -0.15951876473E+02  0.54235897106E+02  0.00000000000E+00 0.  1.
         12    1    3    3    0    0 -0.42152060636E+02  0.23001301255E+02 -0.75107340930E+01  0.48603160411E+02  0.00000000000E+00 0. -1.
        -11    1    4    4    0    0 -0.21735632810E+02  0.35686057337E+02 -0.45744289911E+00  0.41786860087E+02  0.00000000000E+00 0.  1.
         11    1    4    4    0    0  0.21745298145E+02 -0.36853185244E+02  0.28375741443E+02  0.51343918398E+02  0.00000000000E+00 0. -1.
         -2    1    1    2    0  502  0.82518979526E+01 -0.61057946258E+02 -0.35783016653E+02  0.71250199311E+02  0.00000000000E+00 0.  1.
<scales pt_clust_5="13000.00000" pt_clust_6="13000.00000" pt_clust_7="13000.00000" pt_clust_8="13000.00000" pt_clust_9="61.61307"></scales>
<clustering>
<clus scale="   61.613">  1  9  2 -1</clus>
<clus scale="   78.007">  5  6 -1 -1</clus>
<clus scale="   86.933">  2  5  1 -1</clus>
<clus scale="   88.840">  7  8 -1 -1</clus>
<clus scale="   61.613">  1  5  2 -1</clus>
</clustering>
</event>
<event>
 9    2  0.4949296E-005  0.1036011E+03  0.7546771E-02  0.1277531E+00
         21   -1    0    0  501  502  0.00000000000E+00  0.00000000000E+00  0.55893591218E+02  0.55893591218E+02  0.00000000000E+00 0. -1.
          2   -1    0    0  502    0 -0.00000000000E+00 -0.00000000000E+00 -0.68630896906E+03  0.68630896906E+03  0.00000000000E+00 0. -1.
         23    2    1    2    0    0 -0.50799813007E+02 -0.26910043888E+02 -0.17972279031E+03  0.21058527938E+03  0.93493887878E+02 0.  0.
         24    2    1    2    0    0  0.27581765429E+02 -0.40370075921E+02 -0.25045848323E+02  0.10006098231E+03  0.83632582455E+02 0.  0.
        -11    1    4    4    0    0  0.54707664195E+02 -0.93684107881E+01 -0.11370780360E+02  0.56656776191E+02  0.00000000000E+00 0.  1.
         12    1    4    4    0    0 -0.27125898765E+02 -0.31001665133E+02 -0.13675067962E+02  0.43404206117E+02  0.00000000000E+00 0. -1.
        -13    1    3    3    0    0 -0.65649376255E+02 -0.45210373876E+02 -0.16373447486E+03  0.18210655333E+03  0.00000000000E+00 0.  1.
         13    1    3    3    0    0  0.14849563249E+02  0.18300329988E+02 -0.15988315452E+02  0.28478726048E+02  0.00000000000E+00 0. -1.
          1    1    1    2  501    0  0.23218047577E+02  0.67280119810E+02 -0.42564673921E+03  0.43155629859E+03  0.00000000000E+00 0. -1.
<scales pt_clust_5="13000.00000" pt_clust_6="13000.00000" pt_clust_7="13000.00000" pt_clust_8="13000.00000" pt_clust_9="71.17371"></scales>
<clustering>
<clus scale="   71.174">  1  9  2 -1</clus>
<clus scale="   83.633">  5  6 -1 -1</clus>
<clus scale="   93.494">  7  8 -1 -1</clus>
<clus scale="   94.797">  1  5  2 -1</clus>
<clus scale="   71.174">  1  5  2 -1</clus>
</clustering>
</event>
<event>
 9    2  0.4883225E-005  0.2671205E+03  0.7546771E-02  0.1103377E+00
          2   -1    0    0  502    0 -0.00000000000E+00  0.00000000000E+00  0.55928641502E+03  0.55928641502E+03  0.00000000000E+00 0. -1.
         21   -1    0    0  501  502  0.00000000000E+00 -0.00000000000E+00 -0.55632638848E+03  0.55632638848E+03  0.00000000000E+00 0. -1.
         23    2    1    2    0    0 -0.62757938190E+01  0.19781830269E+03 -0.45587332342E+02  0.22299412612E+03  0.92069044452E+02 0.  0.
         24    2    1    2    0    0  0.25575286228E+02 -0.40439415913E+03 -0.28324606891E+03  0.50129664427E+03  0.82953353123E+02 0.  0.
        -11    1    4    4    0    0 -0.26851944970E+02 -0.21855093336E+03 -0.16065556396E+03  0.27257246312E+03  0.00000000000E+00 0.  1.
         12    1    4    4    0    0  0.52427231197E+02 -0.18584322577E+03 -0.12259050495E+03  0.22872418115E+03  0.00000000000E+00 0. -1.
        -11    1    3    3    0    0 -0.12511080456E+02  0.26009768439E+02 -0.42091989719E+02  0.51036955110E+02  0.00000000000E+00 0.  1.
         11    1    3    3    0    0  0.62352866370E+01  0.17180853426E+03 -0.34953426223E+01  0.17195717101E+03  0.00000000000E+00 0. -1.
          1    1    1    2  501    0 -0.19299492409E+02  0.20657585644E+03  0.33179342780E+03  0.39132203311E+03  0.00000000000E+00 0. -1.
<scales pt_clust_5="13000.00000" pt_clust_6="13000.00000" pt_clust_7="13000.00000" pt_clust_8="13000.00000" pt_clust_9="207.47554"></scales>
<clustering>
<clus scale="   82.953">  5  6 -1 -1</clus>
<clus scale="   92.069">  7  8 -1 -1</clus>
<clus scale="  207.476">  2  9  1 -1</clus>
<clus scale="  264.117">  2  5  1 -1</clus>
<clus scale="  207.476">  2  5  1 -1</clus>
</clustering>
</event>
<event>
 9    2  0.4883225E-005  0.1150083E+03  0.7546771E-02  0.1256197E+00
          2   -1    0    0  502    0 -0.00000000000E+00  0.00000000000E+00  0.97750639688E+03  0.97750639688E+03  0.00000000000E+00 0. -1.
         21   -1    0    0  501  502  0.00000000000E+00 -0.00000000000E+00 -0.30047017652E+02  0.30047017652E+02  0.00000000000E+00 0.  1.
         23    2    1    2    0    0  0.48852192678E+02  0.17054998370E+02  0.42127865068E+03  0.43420921715E+03  0.91567095866E+02 0.  0.
         24    2    1    2    0    0 -0.84494819234E+02 -0.23375310936E+02  0.52403026777E+03  0.53708171455E+03  0.78506477005E+02 0.  0.
        -13    1    4    4    0    0 -0.51339932575E+02 -0.52577992651E+02  0.32327623493E+03  0.33152338992E+03  0.00000000000E+00 0.  1.
         14    1    4    4    0    0 -0.33154886658E+02  0.29202681715E+02  0.20075403284E+03  0.20555832464E+03  0.00000000000E+00 0. -1.
        -13    1    3    3    0    0 -0.20061223504E+01 -0.32544850095E+02  0.16911886043E+03  0.17223350646E+03  0.00000000000E+00 0.  1.
         13    1    3    3    0    0  0.50858315028E+02  0.49599848464E+02  0.25215979025E+03  0.26197571069E+03  0.00000000000E+00 0. -1.
          1    1    1    2  501    0  0.35642626556E+02  0.63203125667E+01  0.21504607765E+01  0.36262482820E+02  0.00000000000E+00 0. -1.
<scales pt_clust_5="13000.00000" pt_clust_6="13000.00000" pt_clust_7="13000.00000" pt_clust_8="13000.00000" pt_clust_9="36.19866"></scales>
<clustering>
<clus scale="   36.199">  2  9  1 -1</clus>
<clus scale="   78.506">  5  6 -1 -1</clus>
<clus scale="   91.567">  7  8 -1 -1</clus>
<clus scale="  104.908">  2  5  1 -1</clus>
<clus scale="   36.199">  2  5  1 -1</clus>
</clustering>
</event>
<event>
 9    2  0.4883225E-005  0.1492727E+03  0.7546771E-02  0.1203454E+00
         21   -1    0    0  501  502  0.00000000000E+00  0.00000000000E+00  0.95390976905E+02  0.95390976905E+02  0.00000000000E+00 0. -1.
          2   -1    0    0  502    0 -0.00000000000E+00 -0.00000000000E+00 -0.19946012377E+04  0.19946012377E+04  0.00000000000E+00 0. -1.
         24    2    1    2    0    0  0.66294037599E+02 -0.12983078188E+03 -0.14999412364E+04  0.15091671388E+04  0.80689582401E+02 0.  0.
         23    2    1    2    0    0 -0.79560613340E+02  0.27787882886E+02 -0.44939910548E+03  0.46636206741E+03  0.91825727779E+02 0.  0.
        -13    1    3    3    0    0  0.19068314130E+02 -0.31148321440E+02 -0.13513277614E+03  0.13998101914E+03  0.00000000000E+00 0.  1.
         14    1    3    3    0    0  0.47225723469E+02 -0.98682460444E+02 -0.13648084603E+04  0.13691861196E+04  0.00000000000E+00 0. -1.
        -11    1    4    4    0    0 -0.61983325294E+02  0.58713748827E+02 -0.26023122662E+03  0.27387867428E+03  0.00000000000E+00 0.  1.
         11    1    4    4    0    0 -0.17577288045E+02 -0.30925865941E+02 -0.18916787886E+03  0.19248339313E+03  0.00000000000E+00 0. -1.
          1    1    1    2  501    0  0.13266575741E+02  0.10204289900E+03  0.50130081095E+02  0.11446300843E+03  0.00000000000E+00 0. -1.
<scales pt_clust_5="13000.00000" pt_clust_6="13000.00000" pt_clust_7="13000.00000" pt_clust_8="13000.00000" pt_clust_9="102.90168"></scales>
<clustering>
<clus scale="   80.690">  5  6 -1 -1</clus>
<clus scale="   91.826">  7  8 -1 -1</clus>
<clus scale="  102.902">  1  9  2 -1</clus>
<clus scale="  142.693">  2  5  1 -1</clus>
<clus scale="  102.902">  1  5  2 -1</clus>
</clustering>
</event>
<event>
 9    2  0.4964867E-005  0.1012123E+03  0.7546771E-02  0.1283804E+00
          2   -1    0    0  502    0 -0.00000000000E+00  0.00000000000E+00  0.26835586156E+03  0.26835586156E+03  0.00000000000E+00 0. -1.
         21   -1    0    0  501  502  0.00000000000E+00 -0.00000000000E+00 -0.94809067744E+02  0.94809067744E+02  0.00000000000E+00 0.  1.
         23    2    1    2    0    0 -0.21592210806E+02  0.35108525198E+02  0.21078679673E+03  0.23367590872E+03  0.92057180770E+02 0.  0.
         24    2    1    2    0    0  0.47370294420E+02 -0.24428109232E+02 -0.31244997413E+02  0.10094920680E+03  0.79836177119E+02 0.  0.
        -11    1    4    4    0    0  0.35706343797E+02 -0.53643714358E+02 -0.23078441120E+02  0.68448561139E+02  0.00000000000E+00 0.  1.
         12    1    4    4    0    0  0.11663950623E+02  0.29215605126E+02 -0.81665562931E+01  0.32500645666E+02  0.00000000000E+00 0. -1.
        -13    1    3    3    0    0  0.17110418791E+02 -0.24440603232E+02  0.61078251349E+02  0.67975453698E+02  0.00000000000E+00 0.  1.
         13    1    3    3    0    0 -0.38702629596E+02  0.59549128430E+02  0.14970854538E+03  0.16570045502E+03  0.00000000000E+00 0. -1.
          1    1    1    2  501    0 -0.25778083614E+02 -0.10680415966E+02 -0.59950054955E+01  0.28539813786E+02  0.00000000000E+00 0. -1.
<scales pt_clust_5="13000.00000" pt_clust_6="13000.00000" pt_clust_7="13000.00000" pt_clust_8="13000.00000" pt_clust_9="27.90306"></scales>
<clustering>
<clus scale="   27.903">  2  9  1 -1</clus>
<clus scale="   79.836">  5  6 -1 -1</clus>
<clus scale="   90.240">  2  5  1 -1</clus>
<clus scale="   92.057">  7  8 -1 -1</clus>
<clus scale="   27.903">  2  5  1 -1</clus>
</clustering>
</event>
<event>
 9    2  0.4883225E-005  0.1167927E+03  0.7546771E-02  0.1258761E+00
         21   -1    0    0  501  502  0.00000000000E+00  0.00000000000E+00  0.16132770812E+03  0.16132770812E+03  0.00000000000E+00 0.  1.
          2   -1    0    0  502    0 -0.00000000000E+00 -0.00000000000E+00 -0.17477541933E+03  0.17477541933E+03  0.00000000000E+00 0. -1.
         24    2    1    2    0    0  0.11582222738E+02  0.41603817499E+02 -0.42355791715E+02  0.10273915163E+03  0.83043932184E+02 0.  0.
         23    2    1    2    0    0  0.55894645356E+02 -0.48580913248E+02 -0.40456642755E+02  0.13634195551E+03  0.10708908617E+03 0.  0.
        -13    1    3    3    0    0  0.47558741425E+02  0.24368631951E+02 -0.20364415767E+02  0.57187179845E+02  0.00000000000E+00 0.  1.
         14    1    3    3    0    0 -0.35976518687E+02  0.17235185548E+02 -0.21991375948E+02  0.45551971789E+02  0.00000000000E+00 0. -1.
        -13    1    4    4    0    0  0.65577270512E+02 -0.10970975267E+02  0.15459279562E+02  0.68262215249E+02  0.00000000000E+00 0.  1.
         13    1    4    4    0    0 -0.96826251563E+01 -0.37609937981E+02 -0.55915922317E+02  0.68079740257E+02  0.00000000000E+00 0. -1.
          1    1    1    2  501    0 -0.67476868094E+02  0.69770957488E+01  0.69364723257E+02  0.97022020312E+02  0.00000000000E+00 0. -1.
<scales pt_clust_5="13000.00000" pt_clust_6="13000.00000" pt_clust_7="13000.00000" pt_clust_8="13000.00000" pt_clust_9="67.83662"></scales>
<clustering>
<clus scale="   67.837">  1  9  2 -1</clus>
<clus scale="   83.044">  5  6 -1 -1</clus>
<clus scale="   95.230">  2  5  1 -1</clus>
<clus scale="  107.089">  7  8 -1 -1</clus>
<clus scale="   67.837">  1  5  2 -1</clus>
</clustering>
</event>
<event>
 9    2  0.4883225E-005  0.9722085E+02  0.7546771E-02  0.1292386E+00
          2   -1    0    0  502    0 -0.00000000000E+00  0.00000000000E+00  0.37222701261E+03  0.37222701261E+03  0.00000000000E+00 0. -1.
         21   -1    0    0  501  502  0.00000000000E+00 -0.00000000000E+00 -0.39402469126E+02  0.39402469126E+02  0.00000000000E+00 0.  1.
         24    2    1    2    0    0  0.37107453508E+02  0.27264921605E+02  0.12807535559E+03  0.15786447539E+03  0.79984728699E+02 0.  0.
         23    2    1    2    0    0 -0.11860756756E+02 -0.75994070496E+01  0.71804558598E+02  0.11702290376E+03  0.91323802110E+02 0.  0.
        -11    1    3    3    0    0  0.39954385714E+02  0.46773373006E+02  0.12297155113E+03  0.13749946817E+03  0.00000000000E+00 0.  1.
         12    1    3    3    0    0 -0.28469322065E+01 -0.19508451402E+02  0.51038044599E+01  0.20365007219E+02  0.00000000000E+00 0. -1.
        -13    1    4    4    0    0  0.21204323877E+02 -0.28460420523E+02  0.25878221507E+00  0.35492053416E+02  0.00000000000E+00 0.  1.
         13    1    4    4    0    0 -0.33065080633E+02  0.20861013473E+02  0.71545776383E+02  0.81530850349E+02  0.00000000000E+00 0. -1.
          1    1    1    2  501    0 -0.25246696751E+02 -0.19665514555E+02  0.13294462929E+03  0.13674210258E+03  0.00000000000E+00 0. -1.
<scales pt_clust_5="13000.00000" pt_clust_6="13000.00000" pt_clust_7="13000.00000" pt_clust_8="13000.00000" pt_clust_9="32.00202"></scales>
<clustering>
<clus scale="   32.002">  2  9  1 -1</clus>
<clus scale="   79.985">  5  6 -1 -1</clus>
<clus scale="   86.657">  1  5  2 -1</clus>
<clus scale="   91.324">  7  8 -1 -1</clus>
<clus scale="   32.002">  2  5  1 -1</clus>
</clustering>
</event>
<event>
 9    2  0.4883225E-005  0.9856085E+02  0.7546771E-02  0.1290445E+00
          2   -1    0    0  502    0 -0.00000000000E+00  0.00000000000E+00  0.32119261721E+03  0.32119261721E+03  0.00000000000E+00 0. -1.
         21   -1    0    0  501  502  0.00000000000E+00 -0.00000000000E+00 -0.22493933146E+03  0.22493933146E+03  0.00000000000E+00 0. -1.
         24    2    1    2    0    0  0.39066046566E+02 -0.10253693025E+02  0.22632583580E+03  0.24351941081E+03  0.80293370066E+02 0.  0.
         23    2    1    2    0    0 -0.48803928119E+01 -0.24025898153E+00  0.58739769058E+02  0.11044366994E+03  0.93400041772E+02 0.  0.
        -11    1    3    3    0    0  0.67002267434E+01 -0.32839521062E+02  0.36170892078E+02  0.49311870941E+02  0.00000000000E+00 0.  1.
         12    1    3    3    0    0  0.32365819823E+02  0.22585828036E+02  0.19015494372E+03  0.19420753987E+03  0.00000000000E+00 0. -1.
        -13    1    4    4    0    0 -0.39575870925E+02  0.32387100970E+01  0.63861634226E+02  0.75200047397E+02  0.00000000000E+00 0.  1.
         13    1    4    4    0    0  0.34695478113E+02 -0.34789690786E+01 -0.51218651676E+01  0.35243622545E+02  0.00000000000E+00 0. -1.
          1    1    1    2  501    0 -0.34185653755E+02  0.10493952007E+02 -0.18881231910E+03  0.19216886791E+03  0.00000000000E+00 0. -1.
<scales pt_clust_5="13000.00000" pt_clust_6="13000.00000" pt_clust_7="13000.00000" pt_clust_8="13000.00000" pt_clust_9="35.76006"></scales>
<clustering>
<clus scale="   35.760">  2  9  1 -1</clus>
<clus scale="   80.293">  5  6 -1 -1</clus>
<clus scale="   86.242">  1  5  2 -1</clus>
<clus scale="   93.400">  7  8 -1 -1</clus>
<clus scale="   35.760">  2  5  1 -1</clus>
</clustering>
</event>
<event>
 9    2  0.4883225E-005  0.1377861E+03  0.7546771E-02  0.1220016E+00
         -3   -1    0    0    0  501 -0.00000000000E+00  0.00000000000E+00  0.26970065433E+03  0.26970065433E+03  0.00000000000E+00 0.  1.
         21   -1    0    0  501  502  0.00000000000E+00 -0.00000000000E+00 -0.11686902858E+03  0.11686902858E+03  0.00000000000E+00 0. -1.
         23    2    1    2    0    0 -0.29487486261E+02  0.94827266337E+02  0.15993970602E+03  0.21000953584E+03  0.93067573798E+02 0.  0.
         24    2    1    2    0    0  0.62562411360E+02 -0.91039250085E+02  0.16580754867E+02  0.13570111322E+03  0.77056280243E+02 0.  0.
        -13    1    4    4    0    0  0.98201110478E+01 -0.54014689237E+02  0.39142505640E+02  0.67425195455E+02  0.00000000000E+00 0.  1.
         14    1    4    4    0    0  0.52742300312E+02 -0.37024560848E+02 -0.22561750772E+02  0.68275917761E+02  0.00000000000E+00 0. -1.
        -11    1    3    3    0    0 -0.54678738244E+02  0.39998975969E+02  0.11951539754E+03  0.13738126780E+03  0.00000000000E+00 0.  1.
         11    1    3    3    0    0  0.25191251982E+02  0.54828290369E+02  0.40424308487E+02  0.72628268035E+02  0.00000000000E+00 0. -1.
         -4    1    1    2    0  502 -0.33074925098E+02 -0.37880162523E+01 -0.23688835139E+02  0.40859033856E+02  0.00000000000E+00 0.  1.
<scales pt_clust_5="13000.00000" pt_clust_6="13000.00000" pt_clust_7="13000.00000" pt_clust_8="13000.00000" pt_clust_9="33.29114"></scales>
<clustering>
<clus scale="   33.291">  2  9  1 -1</clus>
<clus scale="   77.056">  5  6 -1 -1</clus>
<clus scale="   93.068">  7  8 -1 -1</clus>
<clus scale="  127.519">  2  5  1 -1</clus>
<clus scale="   33.291">  2  5  1 -1</clus>
</clustering>
</event>
<event>
 9    2  0.4883225E-005  0.2210411E+03  0.7546771E-02  0.1133243E+00
         21   -1    0    0  501  502  0.00000000000E+00  0.00000000000E+00  0.61181210023E+03  0.61181210023E+03  0.00000000000E+00 0. -1.
          2   -1    0    0  502    0 -0.00000000000E+00 -0.00000000000E+00 -0.25413401465E+03  0.25413401465E+03  0.00000000000E+00 0. -1.
         24    2    1    2    0    0  0.18013923265E+02 -0.22482589624E+03  0.55489195604E+02  0.24611161443E+03  0.81367627927E+02 0.  0.
         23    2    1    2    0    0 -0.12322366326E+03  0.12870016095E+03  0.40084860728E+03  0.44650537366E+03  0.83304502468E+02 0.  0.
        -11    1    3    3    0    0  0.32905419762E+02 -0.65976043386E+02  0.44660091350E+02  0.86198194354E+02  0.00000000000E+00 0.  1.
         12    1    3    3    0    0 -0.14891496497E+02 -0.15884985286E+03  0.10829104254E+02  0.15991342007E+03  0.00000000000E+00 0. -1.
        -13    1    4    4    0    0 -0.17091334584E+02  0.76534642362E+02  0.16223805959E+03  0.18019670690E+03  0.00000000000E+00 0.  1.
         13    1    4    4    0    0 -0.10613232867E+03  0.52165518584E+02  0.23861054769E+03  0.26630866675E+03  0.00000000000E+00 0. -1.
          1    1    1    2  501    0  0.10520973999E+03  0.96125735296E+02 -0.98659717313E+02  0.17332912679E+03  0.00000000000E+00 0. -1.
<scales pt_clust_5="13000.00000" pt_clust_6="13000.00000" pt_clust_7="13000.00000" pt_clust_8="13000.00000" pt_clust_9="142.51058"></scales>
<clustering>
<clus scale="   81.368">  5  6 -1 -1</clus>
<clus scale="   83.305">  7  8 -1 -1</clus>
<clus scale="  142.511">  1  9  2 -1</clus>
<clus scale="  220.318">  2  5  1 -1</clus>
<clus scale="  142.511">  1  5  2 -1</clus>
</clustering>
</event>
<event>
 9    2  0.4883225E-005  0.1674171E+03  0.7546771E-02  0.1182851E+00
         21   -1    0    0  501  502  0.00000000000E+00  0.00000000000E+00  0.33007631261E+02  0.33007631261E+02  0.00000000000E+00 0. -1.
          2   -1    0    0  502    0 -0.00000000000E+00 -0.00000000000E+00 -0.17397388744E+04  0.17397388744E+04  0.00000000000E+00 0. -1.
         24    2    1    2    0    0  0.15454671065E+03 -0.46704034845E+02 -0.11150839804E+04  0.11291642058E+04  0.74387954213E+02 0.  0.
         23    2    1    2    0    0 -0.63336390946E+02  0.98633462958E+02 -0.34789692837E+03  0.37819538714E+03  0.90881349307E+02 0.  0.
        -11    1    3    3    0    0  0.36347055524E+02 -0.20771240367E+02 -0.12756876274E+03  0.13426221396E+03  0.00000000000E+00 0.  1.
         12    1    3    3    0    0  0.11819965512E+03 -0.25932794479E+02 -0.98751521763E+03  0.99490199183E+03  0.00000000000E+00 0. -1.
        -11    1    4    4    0    0 -0.51143787512E+02  0.40216592994E+02 -0.28150446910E+03  0.28892529740E+03  0.00000000000E+00 0.  1.
         11    1    4    4    0    0 -0.12192603433E+02  0.58416869964E+02 -0.66392459275E+02  0.89270089747E+02  0.00000000000E+00 0. -1.
          1    1    1    2  501    0 -0.91210319703E+02 -0.51929428113E+02 -0.24375033436E+03  0.26538691269E+03  0.00000000000E+00 0. -1.
<scales pt_clust_5="13000.00000" pt_clust_6="13000.00000" pt_clust_7="13000.00000" pt_clust_8="13000.00000" pt_clust_9="104.95708"></scales>
<clustering>
<clus scale="   74.388">  5  6 -1 -1</clus>
<clus scale="   90.881">  7  8 -1 -1</clus>
<clus scale="  104.957">  1  9  2 -1</clus>
<clus scale="  159.068">  2  5  1 -1</clus>
<clus scale="  104.957">  1  5  2 -1</clus>
</clustering>
</event>
<event>
 9    2  0.4883225E-005  0.1080467E+03  0.7546771E-02  0.1270400E+00
         21   -1    0    0  501  502  0.00000000000E+00  0.00000000000E+00  0.18661931170E+03  0.18661931170E+03  0.00000000000E+00 0. -1.
          2   -1    0    0  502    0 -0.00000000000E+00 -0.00000000000E+00 -0.39995290063E+03  0.39995290063E+03  0.00000000000E+00 0. -1.
         24    2    1    2    0    0 -0.26964839979E+02  0.66017173671E+02 -0.22314572615E+03  0.24704263869E+03  0.78426273788E+02 0.  0.
         23    2    1    2    0    0 -0.24325347017E+02 -0.38991346470E+02 -0.14268797100E+03  0.17638129253E+03  0.92943292819E+02 0.  0.
        -11    1    3    3    0    0 -0.48018286856E+02  0.25455126360E+02 -0.79492608687E+02  0.96295348623E+02  0.00000000000E+00 0.  1.
         12    1    3    3    0    0  0.21053446877E+02  0.40562047311E+02 -0.14365311746E+03  0.15074729007E+03  0.00000000000E+00 0. -1.
        -13    1    4    4    0    0  0.15739377942E+02 -0.40093321635E+02 -0.20335111578E+02  0.47631074107E+02  0.00000000000E+00 0.  1.
         13    1    4    4    0    0 -0.40064724960E+02  0.11019751649E+01 -0.12235285943E+03  0.12875021843E+03  0.00000000000E+00 0. -1.
          1    1    1    2  501    0  0.51290186996E+02 -0.27025827201E+02  0.15250010823E+03  0.16314828110E+03  0.00000000000E+00 0. -1.
<scales pt_clust_5="13000.00000" pt_clust_6="13000.00000" pt_clust_7="13000.00000" pt_clust_8="13000.00000" pt_clust_9="57.97481"></scales>
<clustering>
<clus scale="   57.975">  1  9  2 -1</clus>
<clus scale="   78.426">  5  6 -1 -1</clus>
<clus scale="   92.943">  7  8 -1 -1</clus>
<clus scale="   95.845">  2  5  1 -1</clus>
<clus scale="   57.975">  1  5  2 -1</clus>
</clustering>
</event>
<event>
 9    2  0.4883225E-005  0.1003028E+03  0.7546771E-02  0.1285199E+00
         21   -1    0    0  501  502  0.00000000000E+00  0.00000000000E+00  0.23359223540E+02  0.23359223540E+02  0.00000000000E+00 0. -1.
          2   -1    0    0  502    0 -0.00000000000E+00 -0.00000000000E+00 -0.10587503466E+04  0.10587503466E+04  0.00000000000E+00 0. -1.
         24    2    1    2    0    0 -0.19259626008E+02 -0.45611227603E+02 -0.77620570501E+03  0.78174171112E+03  0.78571554292E+02 0.  0.
         23    2    1    2    0    0  0.33377780392E+02  0.14295864546E+02 -0.24448671199E+03  0.26300442491E+03  0.89883965292E+02 0.  0.
        -11    1    3    3    0    0  0.89393663336E+01 -0.23132201884E+02 -0.64199984153E+02  0.68823317268E+02  0.00000000000E+00 0.  1.
         12    1    3    3    0    0 -0.28198992342E+02 -0.22479025720E+02 -0.71200572085E+03  0.71291839385E+03  0.00000000000E+00 0. -1.
        -11    1    4    4    0    0  0.17564960952E+01  0.43582736322E+02 -0.64050228952E+02  0.77491754482E+02  0.00000000000E+00 0.  1.
         11    1    4    4    0    0  0.31621284297E+02 -0.29286871776E+02 -0.18043648304E+03  0.18551267043E+03  0.00000000000E+00 0. -1.
          1    1    1    2  501    0 -0.14118154384E+02  0.31315363057E+02 -0.14698706024E+02  0.37363434068E+02  0.00000000000E+00 0. -1.
<scales pt_clust_5="13000.00000" pt_clust_6="13000.00000" pt_clust_7="13000.00000" pt_clust_8="13000.00000" pt_clust_9="34.35075"></scales>
<clustering>
<clus scale="   34.351">  1  9  2 -1</clus>
<clus scale="   78.572">  5  6 -1 -1</clus>
<clus scale="   89.884">  7  8 -1 -1</clus>
<clus scale="   90.305">  2  5  1 -1</clus>
<clus scale="   34.351">  1  5  2 -1</clus>
</clustering>
</event>
<event>
 9    2  0.4883225E-005  0.1264345E+03  0.7546771E-02  0.1234062E+00
          2   -1    0    0  502    0 -0.00000000000E+00  0.00000000000E+00  0.12673607517E+04  0.12673607517E+04  0.00000000000E+00 0. -1.
         21   -1    0    0  501  502  0.00000000000E+00 -0.00000000000E+00 -0.25726395927E+02  0.25726395927E+02  0.00000000000E+00 0.  1.
         24    2    1    2    0    0 -0.74799613347E+02  0.53213553256E+02  0.85039012149E+03  0.85926519326E+03  0.82137988926E+02 0.  0.
         23    2    1    2    0    0  0.92475618920E+02 -0.26647044158E+02  0.37743007284E+03  0.39905053457E+03  0.86752891556E+02 0.  0.
        -13    1    3    3    0    0 -0.40370511997E+02  0.11087638159E+02  0.12473254922E+03  0.13157098006E+03  0.00000000000E+00 0.  1.
         14    1    3    3    0    0 -0.34429101350E+02  0.42125915098E+02  0.72565757227E+03  0.72769421320E+03  0.00000000000E+00 0. -1.
        -11    1    4    4    0    0  0.43603641027E+02 -0.32130150291E+02  0.31477102321E+03  0.31939696479E+03  0.00000000000E+00 0. -1.
         11    1    4    4    0    0  0.48871977893E+02  0.54831061332E+01  0.62659049636E+02  0.79653569771E+02  0.00000000000E+00 0.  1.
          1    1    1    2  501    0 -0.17676005573E+02 -0.26566509099E+02  0.13814161449E+02  0.34771419805E+02  0.00000000000E+00 0. -1.
<scales pt_clust_5="13000.00000" pt_clust_6="13000.00000" pt_clust_7="13000.00000" pt_clust_8="13000.00000" pt_clust_9="31.90957"></scales>
<clustering>
<clus scale="   31.910">  2  9  1 -1</clus>
<clus scale="   82.138">  5  6 -1 -1</clus>
<clus scale="   86.753">  7  8 -1 -1</clus>
<clus scale="  123.314">  1  5  2 -1</clus>
<clus scale="   31.910">  2  5  1 -1</clus>
</clustering>
</event>
<event>
 9    2  0.4883225E-005  0.1028707E+03  0.7546771E-02  0.1280252E+00
         -1   -1    0    0    0  501 -0.00000000000E+00  0.00000000000E+00  0.97777791261E+02  0.97777791261E+02  0.00000000000E+00 0.  1.
         21   -1    0    0  501  502  0.00000000000E+00 -0.00000000000E+00 -0.17139361165E+03  0.17139361165E+03  0.00000000000E+00 0.  1.
         23    2    1    2    0    0 -0.25414439742E+02  0.49226774263E+02  0.27956703576E+02  0.11181245954E+03  0.93012256085E+02 0.  0.
         24    2    1    2    0    0  0.17918617201E+01 -0.21957779087E+02 -0.64926199333E+02  0.10593348859E+03  0.80753562239E+02 0.  0.
        -13    1    4    4    0    0  0.23286344907E+02 -0.27444663877E+01 -0.72440208250E+02  0.76140460507E+02  0.00000000000E+00 0.  1.
         14    1    4    4    0    0 -0.21494483187E+02 -0.19213312699E+02  0.75140089172E+01  0.29793028083E+02  0.00000000000E+00 0. -1.
        -11    1    3    3    0    0  0.13333119179E+02  0.52677582216E+02  0.43815362864E+02  0.69803193036E+02  0.00000000000E+00 0.  1.
         11    1    3    3    0    0 -0.38747558921E+02 -0.34508079526E+01 -0.15858659288E+02  0.42009266505E+02  0.00000000000E+00 0. -1.
         -2    1    1    2    0  502  0.23622578022E+02 -0.27268995177E+02 -0.36646324631E+02  0.51425454779E+02  0.00000000000E+00 0.  1.
<scales pt_clust_5="13000.00000" pt_clust_6="13000.00000" pt_clust_7="13000.00000" pt_clust_8="13000.00000" pt_clust_9="36.07803"></scales>
<clustering>
<clus scale="   36.078">  2  9  1 -1</clus>
<clus scale="   80.754">  5  6 -1 -1</clus>
<clus scale="   91.936">  2  5  1 -1</clus>
<clus scale="   93.012">  7  8 -1 -1</clus>
<clus scale="   36.078">  2  5  1 -1</clus>
</clustering>
</event>
<event>
 9    2  0.4883225E-005  0.1133196E+03  0.7546771E-02  0.1261621E+00
         21   -1    0    0  501  502  0.00000000000E+00  0.00000000000E+00  0.34237448089E+03  0.34237448089E+03  0.00000000000E+00 0.  1.
          2   -1    0    0  502    0 -0.00000000000E+00 -0.00000000000E+00 -0.13213312034E+03  0.13213312034E+03  0.00000000000E+00 0. -1.
         23    2    1    2    0    0 -0.45358294471E+02  0.54681760221E+02 -0.95124579725E+02  0.14936786470E+03  0.90634450177E+02 0.  0.
         24    2    1    2    0    0  0.27300172190E+02 -0.32833860023E+02  0.21936677537E+03  0.23458984482E+03  0.71324970305E+02 0.  0.
        -13    1    4    4    0    0  0.45316325520E+02 -0.86252399568E+00  0.10193419679E+03  0.11155668416E+03  0.00000000000E+00 0.  1.
         14    1    4    4    0    0 -0.18016153330E+02 -0.31971336027E+02  0.11743257859E+03  0.12303316066E+03  0.00000000000E+00 0. -1.
        -13    1    3    3    0    0 -0.35505400429E+02  0.32660602387E+02  0.29858031286E+01  0.48334909002E+02  0.00000000000E+00 0.  1.
         13    1    3    3    0    0 -0.98528940428E+01  0.22021157834E+02 -0.98110382854E+02  0.10103295570E+03  0.00000000000E+00 0. -1.
          1    1    1    2  501    0  0.18058122282E+02 -0.21847900199E+02  0.85999164911E+02  0.90549891710E+02  0.00000000000E+00 0. -1.
<scales pt_clust_5="13000.00000" pt_clust_6="13000.00000" pt_clust_7="13000.00000" pt_clust_8="13000.00000" pt_clust_9="28.34478"></scales>
<clustering>
<clus scale="   28.345">  1  9  2 -1</clus>
<clus scale="   71.325">  5  6 -1 -1</clus>
<clus scale="   90.634">  7  8 -1 -1</clus>
<clus scale="   98.560">  1  5  2 -1</clus>
<clus scale="   28.345">  1  5  2 -1</clus>
</clustering>
</event>
<event>
 9    2  0.4883225E-005  0.9230987E+02  0.7546771E-02  0.1302230E+00
          2   -1    0    0  502    0 -0.00000000000E+00  0.00000000000E+00  0.47311017208E+03  0.47311017208E+03  0.00000000000E+00 0. -1.
         21   -1    0    0  501  502  0.00000000000E+00 -0.00000000000E+00 -0.48202007402E+02  0.48202007402E+02  0.00000000000E+00 0. -1.
         24    2    1    2    0    0 -0.47708492491E+01  0.11712729650E+02  0.28933193915E+03  0.30070558385E+03  0.80937803946E+02 0.  0.
         23    2    1    2    0    0  0.31497099454E+02 -0.55298949169E+02  0.12869836190E+03  0.16901826372E+03  0.89184438450E+02 0.  0.
        -13    1    3    3    0    0 -0.35666795902E+02 -0.14306471235E+02  0.10038271361E+03  0.10748713710E+03  0.00000000000E+00 0.  1.
         14    1    3    3    0    0  0.30895946653E+02  0.26019200884E+02  0.18894922554E+03  0.19321844675E+03  0.00000000000E+00 0. -1.
        -13    1    4    4    0    0  0.48255448684E+02 -0.24420262549E+02  0.12172640854E+03  0.13320006039E+03  0.00000000000E+00 0.  1.
         13    1    4    4    0    0 -0.16758349230E+02 -0.30878686620E+02  0.69719533571E+01  0.35818203331E+02  0.00000000000E+00 0. -1.
          1    1    1    2  501    0 -0.26726250205E+02  0.43586219519E+02  0.68778636336E+01  0.51588331919E+02  0.00000000000E+00 0. -1.
<scales pt_clust_5="13000.00000" pt_clust_6="13000.00000" pt_clust_7="13000.00000" pt_clust_8="13000.00000" pt_clust_9="51.12779"></scales>
<clustering>
<clus scale="   51.128">  2  9  1 -1</clus>
<clus scale="   80.938">  5  6 -1 -1</clus>
<clus scale="   84.369">  1  5  2 -1</clus>
<clus scale="   89.184">  7  8 -1 -1</clus>
<clus scale="   51.128">  2  5  1 -1</clus>
</clustering>
</event>
<event>
 9    2  0.4883225E-005  0.1813586E+03  0.7546771E-02  0.1167523E+00
          2   -1    0    0  502    0 -0.00000000000E+00  0.00000000000E+00  0.12522897963E+04  0.12522897963E+04  0.00000000000E+00 0. -1.
         21   -1    0    0  501  502  0.00000000000E+00 -0.00000000000E+00 -0.91167442431E+02  0.91167442431E+02  0.00000000000E+00 0. -1.
         24    2    1    2    0    0 -0.14126531341E+03 -0.57995353409E+02  0.97912525138E+03  0.99425891974E+03  0.80902359632E+02 0.  0.
         23    2    1    2    0    0  0.15455579405E+03  0.11351772812E+03  0.19800609550E+03  0.28990532757E+03  0.89804883071E+02 0.  0.
        -13    1    3    3    0    0 -0.22364232263E+01 -0.27032040690E+02  0.97532943488E+02  0.10123442042E+03  0.00000000000E+00 0.  1.
         14    1    3    3    0    0 -0.13902889018E+03 -0.30963312719E+02  0.88159230789E+03  0.89302449932E+03  0.00000000000E+00 0. -1.
        -11    1    4    4    0    0  0.96084396554E+02  0.11535199986E+03  0.16357427012E+03  0.22202440627E+03  0.00000000000E+00 0. -1.
         11    1    4    4    0    0  0.58471397491E+02 -0.18342717340E+01  0.34431825382E+02  0.67880921300E+02  0.00000000000E+00 0.  1.
          1    1    1    2  501    0 -0.13290480636E+02 -0.55522374713E+02 -0.16008993056E+02  0.59292991390E+02  0.00000000000E+00 0. -1.
<scales pt_clust_5="13000.00000" pt_clust_6="13000.00000" pt_clust_7="13000.00000" pt_clust_8="13000.00000" pt_clust_9="57.09090"></scales>
<clustering>
<clus scale="   57.091">  2  9  1 -1</clus>
<clus scale="   80.902">  5  6 -1 -1</clus>
<clus scale="   89.805">  7  8 -1 -1</clus>
<clus scale="  177.119">  1  5  2 -1</clus>
<clus scale="   57.091">  2  5  1 -1</clus>
</clustering>
</event>
<event>
 9    2  0.4883225E-005  0.9560905E+02  0.7546771E-02  0.1294466E+00
          2   -1    0    0  502    0 -0.00000000000E+00  0.00000000000E+00  0.40996305137E+03  0.40996305137E+03  0.00000000000E+00 0. -1.
         21   -1    0    0  501  502  0.00000000000E+00 -0.00000000000E+00 -0.53019259274E+02  0.53019259274E+02  0.00000000000E+00 0. -1.
         24    2    1    2    0    0  0.24303711283E+02  0.23663328942E+02  0.29069843881E+03  0.30437286105E+03  0.83586079573E+02 0.  0.
         23    2    1    2    0    0 -0.89806416740E+01  0.22840185149E+02  0.42130938527E+02  0.10403034843E+03  0.91896525668E+02 0.  0.
        -11    1    3    3    0    0 -0.12142597917E+02  0.20614500815E+02  0.19909945819E+02  0.31125652933E+02  0.00000000000E+00 0.  1.
         12    1    3    3    0    0  0.36446309200E+02  0.30488281276E+01  0.27078849299E+03  0.27324720812E+03  0.00000000000E+00 0. -1.
        -11    1    4    4    0    0  0.48922010848E+00 -0.24447620751E+02 -0.15447470457E+02  0.28923171337E+02  0.00000000000E+00 0. -1.
         11    1    4    4    0    0 -0.94698617825E+01  0.47287805901E+02  0.57578408984E+02  0.75107177088E+02  0.00000000000E+00 0.  1.
          1    1    1    2  501    0 -0.15323069609E+02 -0.46503514092E+02  0.24114414759E+02  0.54579101168E+02  0.00000000000E+00 0. -1.
<scales pt_clust_5="13000.00000" pt_clust_6="13000.00000" pt_clust_7="13000.00000" pt_clust_8="13000.00000" pt_clust_9="48.96298"></scales>
<clustering>
<clus scale="   48.963">  2  9  1 -1</clus>
<clus scale="   83.586">  5  6 -1 -1</clus>
<clus scale="   87.651">  1  5  2 -1</clus>
<clus scale="   91.897">  7  8 -1 -1</clus>
<clus scale="   48.963">  2  5  1 -1</clus>
</clustering>
</event>
<event>
 9    2  0.4883225E-005  0.2580942E+03  0.7546771E-02  0.1108711E+00
          2   -1    0    0  502    0 -0.00000000000E+00  0.00000000000E+00  0.10641031241E+04  0.10641031241E+04  0.00000000000E+00 0. -1.
         21   -1    0    0  501  502  0.00000000000E+00 -0.00000000000E+00 -0.93670842681E+02  0.93670842681E+02  0.00000000000E+00 0.  1.
         23    2    1    2    0    0 -0.19296520869E+03  0.15313267592E+03  0.74668962377E+03  0.79126823265E+03  0.88740258938E+02 0.  0.
         24    2    1    2    0    0  0.16520572519E+03 -0.16149480581E+03  0.14923638391E+03  0.28655763243E+03  0.80438016394E+02 0.  0.
        -11    1    4    4    0    0  0.11089084531E+03 -0.15318668511E+03  0.12363659025E+03  0.22594013923E+03  0.00000000000E+00 0.  1.
         12    1    4    4    0    0  0.54314879878E+02 -0.83081206992E+01  0.25599793668E+02  0.60617493198E+02  0.00000000000E+00 0. -1.
        -13    1    3    3    0    0 -0.27576350162E+02  0.59115763964E+02  0.12324738737E+03  0.13944549878E+03  0.00000000000E+00 0.  1.
         13    1    3    3    0    0 -0.16538885853E+03  0.94016911961E+02  0.62344223640E+03  0.65182273387E+03  0.00000000000E+00 0. -1.
          1    1    1    2  501    0  0.27759483501E+02  0.83621298807E+01  0.74506273772E+02  0.79948101739E+02  0.00000000000E+00 0. -1.
<scales pt_clust_5="13000.00000" pt_clust_6="13000.00000" pt_clust_7="13000.00000" pt_clust_8="13000.00000" pt_clust_9="28.99164"></scales>
<clustering>
<clus scale="   28.992">  2  9  1 -1</clus>
<clus scale="   80.438">  5  6 -1 -1</clus>
<clus scale="   88.740">  7  8 -1 -1</clus>
<clus scale="  255.359">  2  5  1 -1</clus>
<clus scale="   28.992">  2  5  1 -1</clus>
</clustering>
</event>
<event>
 9    2  0.4883225E-005  0.3125833E+03  0.7546771E-02  0.1128337E+00
          2   -1    0    0  502    0 -0.00000000000E+00  0.00000000000E+00  0.71918772433E+03  0.71918772433E+03  0.00000000000E+00 0. -1.
         21   -1    0    0  501  502  0.00000000000E+00 -0.00000000000E+00 -0.44216230465E+03  0.44216230465E+03  0.00000000000E+00 0. -1.
         24    2    1    2    0    0  0.39523561164E+02 -0.14395991562E+02  0.41733234010E+03  0.42648196830E+03  0.77144220294E+02 0.  0.
         23    2    1    2    0    0  0.47805145817E+02 -0.27732979631E+03  0.13415969968E+03  0.32491420483E+03  0.91505560461E+02 0.  0.
        -11    1    3    3    0    0  0.26252179293E+02  0.60642459955E+01  0.39215531710E+02  0.47579511603E+02  0.00000000000E+00 0.  1.
         12    1    3    3    0    0  0.13271381871E+02 -0.20460237558E+02  0.37811680839E+03  0.37890245669E+03  0.00000000000E+00 0. -1.
        -13    1    4    4    0    0  0.66579549689E+02 -0.20837581564E+03  0.12735769108E+03  0.25312704016E+03  0.00000000000E+00 0. -1.
         13    1    4    4    0    0 -0.18774403872E+02 -0.68953980670E+02  0.68020085930E+01  0.71787164673E+02  0.00000000000E+00 0.  1.
          1    1    1    2  501    0 -0.87328706981E+02  0.29172578787E+03 -0.27446662010E+03  0.40995385585E+03  0.00000000000E+00 0. -1.
<scales pt_clust_5="13000.00000" pt_clust_6="13000.00000" pt_clust_7="13000.00000" pt_clust_8="13000.00000" pt_clust_9="298.88966"></scales>
<clustering>
<clus scale="   77.144">  5  6 -1 -1</clus>
<clus scale="   87.867">  1  5  2 -1</clus>
<clus scale="   91.506">  7  8 -1 -1</clus>
<clus scale="  298.890">  2  9  1 -1</clus>
<clus scale="  298.890">  2  5  1 -1</clus>
</clustering>
</event>
<event>
 9    2  0.4883225E-005  0.1267012E+03  0.7546771E-02  0.1234763E+00
         21   -1    0    0  501  502  0.00000000000E+00  0.00000000000E+00  0.20086403946E+02  0.20086403946E+02  0.00000000000E+00 0.  1.
          2   -1    0    0  502    0 -0.00000000000E+00 -0.00000000000E+00 -0.16490732798E+04  0.16490732798E+04  0.00000000000E+00 0. -1.
         24    2    1    2    0    0  0.34667808371E+01  0.84943380131E+02 -0.61557769632E+03  0.62638030902E+03  0.78670165357E+02 0.  0.
         23    2    1    2    0    0  0.87282787107E+02 -0.91076193036E+02 -0.58369437248E+03  0.60354377636E+03  0.87480350099E+02 0.  0.
        -13    1    3    3    0    0 -0.32201905670E+02  0.44242076489E+02 -0.20214144510E+03  0.20941701910E+03  0.00000000000E+00 0.  1.
         14    1    3    3    0    0  0.35668686507E+02  0.40701303643E+02 -0.41343625122E+03  0.41696328992E+03  0.00000000000E+00 0. -1.
        -11    1    4    4    0    0 -0.13826380332E+01 -0.58135313529E+02 -0.19353580116E+03  0.20208347953E+03  0.00000000000E+00 0.  1.
         11    1    4    4    0    0  0.88665425140E+02 -0.32940879508E+02 -0.39015857132E+03  0.40146029683E+03  0.00000000000E+00 0. -1.
          1    1    1    2  501    0 -0.90749567944E+02  0.61328129050E+01 -0.42971480702E+03  0.43923559834E+03  0.00000000000E+00 0. -1.
<scales pt_clust_5="13000.00000" pt_clust_6="13000.00000" pt_clust_7="13000.00000" pt_clust_8="13000.00000" pt_clust_9="90.95660"></scales>
<clustering>
<clus scale="   78.670">  5  6 -1 -1</clus>
<clus scale="   87.480">  7  8 -1 -1</clus>
<clus scale="   90.957">  1  9  2 -1</clus>
<clus scale="  120.787">  2  5  1 -1</clus>
<clus scale="   90.957">  1  5  2 -1</clus>
</clustering>
</event>
<event>
 9    2  0.4883225E-005  0.1383784E+03  0.7546771E-02  0.1237737E+00
         -3   -1    0    0    0  501 -0.00000000000E+00  0.00000000000E+00  0.13368187585E+03  0.13368187585E+03  0.00000000000E+00 0.  1.
         21   -1    0    0  501  502  0.00000000000E+00 -0.00000000000E+00 -0.21240920072E+03  0.21240920072E+03  0.00000000000E+00 0. -1.
         24    2    1    2    0    0  0.17231967277E+02  0.28159225873E+02 -0.21646872036E+02  0.89895278213E+02  0.80763180212E+02 0.  0.
         23    2    1    2    0    0 -0.68128591638E+02  0.71712051906E+02 -0.50952750191E+02  0.14393588906E+03  0.91308455353E+02 0.  0.
        -11    1    3    3    0    0  0.36883219886E+02 -0.14594567081E+02 -0.49812016549E+01  0.39977314409E+02  0.00000000000E+00 0.  1.
         12    1    3    3    0    0 -0.19651252609E+02  0.42753792953E+02 -0.16665670381E+02  0.49917963803E+02  0.00000000000E+00 0. -1.
        -11    1    4    4    0    0 -0.39795781346E+02  0.26171581795E+02 -0.71992121238E+02  0.86322195448E+02  0.00000000000E+00 0. -1.
         11    1    4    4    0    0 -0.28332810292E+02  0.45540470111E+02  0.21039371047E+02  0.57613693607E+02  0.00000000000E+00 0.  1.
         -4    1    1    2    0  502  0.50896624361E+02 -0.99871277779E+02 -0.61277026438E+01  0.11225990930E+03  0.00000000000E+00 0.  1.
<scales pt_clust_5="13000.00000" pt_clust_6="13000.00000" pt_clust_7="13000.00000" pt_clust_8="13000.00000" pt_clust_9="103.97763"></scales>
<clustering>
<clus scale="   80.763">  5  6 -1 -1</clus>
<clus scale="   87.250">  1  5  2 -1</clus>
<clus scale="   91.308">  7  8 -1 -1</clus>
<clus scale="  103.978">  2  9  1 -1</clus>
<clus scale="  103.978">  2  5  1 -1</clus>
</clustering>
</event>
<event>
 9    2  0.4883225E-005  0.1615093E+03  0.7546771E-02  0.1188333E+00
         21   -1    0    0  501  502  0.00000000000E+00  0.00000000000E+00  0.18806647464E+03  0.18806647464E+03  0.00000000000E+00 0. -1.
         -1   -1    0    0    0  501 -0.00000000000E+00 -0.00000000000E+00 -0.17131060219E+03  0.17131060219E+03  0.00000000000E+00 0.  1.
         23    2    1    2    0    0  0.13680322339E+03  0.18524697514E+02 -0.13414570084E+02  0.16515137822E+03  0.89647870526E+02 0.  0.
         24    2    1    2    0    0 -0.12484466274E+03 -0.42248167933E+02  0.82655109896E+00  0.15464193696E+03  0.80884782079E+02 0.  0.
        -11    1    4    4    0    0 -0.41304961843E+02 -0.42327040514E+02 -0.29088315886E+02  0.65907574319E+02  0.00000000000E+00 0.  1.
         12    1    4    4    0    0 -0.83539700894E+02  0.78872580756E-01  0.29914866985E+02  0.88734362640E+02  0.00000000000E+00 0. -1.
        -11    1    3    3    0    0  0.13500182048E+03 -0.63368018263E+01 -0.25361710308E+02  0.13750950127E+03  0.00000000000E+00 0. -1.
         11    1    3    3    0    0  0.18014029119E+01  0.24861499340E+02  0.11947140224E+02  0.27641876951E+02  0.00000000000E+00 0.  1.
         -2    1    1    2    0  502 -0.11958560650E+02  0.23723470419E+02  0.29343891436E+02  0.39583761648E+02  0.00000000000E+00 0.  1.
<scales pt_clust_5="13000.00000" pt_clust_6="13000.00000" pt_clust_7="13000.00000" pt_clust_8="13000.00000" pt_clust_9="26.56709"></scales>
<clustering>
<clus scale="   26.567">  1  9  2 -1</clus>
<clus scale="   80.885">  5  6 -1 -1</clus>
<clus scale="   89.648">  7  8 -1 -1</clus>
<clus scale="  156.815">  1  5  2 -1</clus>
<clus scale="   26.567">  1  5  2 -1</clus>
</clustering>
</event>
<event>
 9    2  0.4883225E-005  0.9187740E+02  0.7546771E-02  0.1299998E+00
         21   -1    0    0  501  502  0.00000000000E+00  0.00000000000E+00  0.27561843928E+02  0.27561843928E+02  0.00000000000E+00 0. -1.
          2   -1    0    0  502    0 -0.00000000000E+00 -0.00000000000E+00 -0.51497768745E+03  0.51497768745E+03  0.00000000000E+00 0. -1.
         23    2    1    2    0    0 -0.19683598118E+02  0.11336759490E+01 -0.34741716203E+03  0.35956692359E+03  0.90559145390E+02 0.  0.
         24    2    1    2    0    0  0.20277583693E+01 -0.16889692930E+02 -0.12877810357E+03  0.15678325657E+03  0.87794168658E+02 0.  0.
        -13    1    4    4    0    0  0.43101141133E+02 -0.20690842806E+02 -0.76177870390E+02  0.89938241478E+02  0.00000000000E+00 0.  1.
         14    1    4    4    0    0 -0.41073382764E+02  0.38011498763E+01 -0.52600233177E+02  0.66845015090E+02  0.00000000000E+00 0. -1.
        -13    1    3    3    0    0 -0.47926486750E+02 -0.24628866902E+02 -0.22246651844E+03  0.22889928144E+03  0.00000000000E+00 0. -1.
         13    1    3    3    0    0  0.28242888632E+02  0.25762542851E+02 -0.12495064359E+03  0.13066764215E+03  0.00000000000E+00 0.  1.
          1    1    1    2  501    0  0.17655839748E+02  0.15756016981E+02 -0.11220577931E+02  0.26189351222E+02  0.00000000000E+00 0. -1.
<scales pt_clust_5="13000.00000" pt_clust_6="13000.00000" pt_clust_7="13000.00000" pt_clust_8="13000.00000" pt_clust_9="23.66391"></scales>
<clustering>
<clus scale="   23.664">  1  9  2 -1</clus>
<clus scale="   87.794">  5  6 -1 -1</clus>
<clus scale="   89.153">  1  5  2 -1</clus>
<clus scale="   90.559">  7  8 -1 -1</clus>
<clus scale="   23.664">  1  5  2 -1</clus>
</clustering>
</event>
<event>
 9    2  0.4883225E-005  0.1180375E+03  0.7546771E-02  0.1250658E+00
         21   -1    0    0  501  502  0.00000000000E+00  0.00000000000E+00  0.30320438759E+03  0.30320438759E+03  0.00000000000E+00 0. -1.
          2   -1    0    0  502    0 -0.00000000000E+00 -0.00000000000E+00 -0.93544711246E+02  0.93544711246E+02  0.00000000000E+00 0. -1.
         23    2    1    2    0    0 -0.73375604407E+02 -0.13956788307E+01 -0.14550339559E+02  0.11907308495E+03  0.92632391397E+02 0.  0.
         24    2    1    2    0    0  0.68212064063E+02  0.47996131794E+02  0.17527957383E+03  0.20990837761E+03  0.79887944263E+02 0.  0.
        -13    1    4    4    0    0 -0.11136546444E+02  0.32337019481E+02  0.60456100816E+02  0.69459669028E+02  0.00000000000E+00 0.  1.
         14    1    4    4    0    0  0.79348610506E+02  0.15659112313E+02  0.11482347301E+03  0.14044870858E+03  0.00000000000E+00 0. -1.
        -13    1    3    3    0    0 -0.36021087931E+02  0.32331390399E+02 -0.39893848696E+02  0.62724450932E+02  0.00000000000E+00 0. -1.
         13    1    3    3    0    0 -0.37354516476E+02 -0.33727069230E+02  0.25343509137E+02  0.56348634015E+02  0.00000000000E+00 0.  1.
          1    1    1    2  501    0  0.51635403443E+01 -0.46600452963E+02  0.48930442077E+02  0.67767636281E+02  0.00000000000E+00 0. -1.
<scales pt_clust_5="13000.00000" pt_clust_6="13000.00000" pt_clust_7="13000.00000" pt_clust_8="13000.00000" pt_clust_9="46.88565"></scales>
<clustering>
<clus scale="   46.886">  1  9  2 -1</clus>
<clus scale="   79.888">  5  6 -1 -1</clus>
<clus scale="   92.632">  7  8 -1 -1</clus>
<clus scale="  108.324">  1  5  2 -1</clus>
<clus scale="   46.886">  1  5  2 -1</clus>
</clustering>
</event>
<event>
 9    2  0.4883225E-005  0.1614167E+03  0.7546771E-02  0.1189205E+00
          2   -1    0    0  502    0 -0.00000000000E+00  0.00000000000E+00  0.34808276062E+03  0.34808276062E+03  0.00000000000E+00 0. -1.
         21   -1    0    0  501  502  0.00000000000E+00 -0.00000000000E+00 -0.11879566778E+03  0.11879566778E+03  0.00000000000E+00 0. -1.
         23    2    1    2    0    0 -0.15335463075E+03 -0.19227651736E+02  0.12192193529E+03  0.21722034688E+03  0.91827966499E+02 0.  0.
         24    2    1    2    0    0  0.10594997549E+03 -0.21724454590E+02  0.99569946447E+01  0.13384518693E+03  0.78217920502E+02 0.  0.
        -13    1    4    4    0    0  0.72267320890E+02 -0.51219774474E+02  0.38767648639E+01  0.88662620487E+02  0.00000000000E+00 0.  1.
         14    1    4    4    0    0  0.33682654602E+02  0.29495319884E+02  0.60802297807E+01  0.45182566442E+02  0.00000000000E+00 0. -1.
        -11    1    3    3    0    0 -0.10082825613E+03  0.32409085254E+02  0.66710733862E+02  0.12516791942E+03  0.00000000000E+00 0. -1.
         11    1    3    3    0    0 -0.52526374625E+02 -0.51636736990E+02  0.55211201427E+02  0.92052427460E+02  0.00000000000E+00 0.  1.
          1    1    1    2  501    0  0.47404655260E+02  0.40952106326E+02  0.97408162907E+02  0.11581289459E+03  0.00000000000E+00 0. -1.
<scales pt_clust_5="13000.00000" pt_clust_6="13000.00000" pt_clust_7="13000.00000" pt_clust_8="13000.00000" pt_clust_9="62.64408"></scales>
<clustering>
<clus scale="   62.644">  2  9  1 -1</clus>
<clus scale="   78.218">  5  6 -1 -1</clus>
<clus scale="   91.828">  7  8 -1 -1</clus>
<clus scale="  154.081">  2  5  1 -1</clus>
<clus scale="   62.644">  2  5  1 -1</clus>
</clustering>
</event>
<event>
 9    2  0.4883225E-005  0.1326917E+03  0.7546771E-02  0.1243029E+00
          4   -1    0    0  502    0 -0.00000000000E+00  0.00000000000E+00  0.91567811419E+03  0.91567811419E+03  0.00000000000E+00 0. -1.
         21   -1    0    0  501  502  0.00000000000E+00 -0.00000000000E+00 -0.36903399230E+02  0.36903399230E+02  0.00000000000E+00 0. -1.
         23    2    1    2    0    0  0.34967470399E+00 -0.11495526444E+02  0.94795738734E+02  0.12994424412E+03  0.88130613845E+02 0.  0.
         24    2    1    2    0    0 -0.10498918314E+03  0.12379954936E+02  0.55619109743E+03  0.57196312491E+03  0.81346711911E+02 0.  0.
        -11    1    4    4    0    0 -0.52124946236E+02  0.70387315475E+00  0.10192496554E+03  0.11448233076E+03  0.00000000000E+00 0.  1.
         12    1    4    4    0    0 -0.52864236903E+02  0.11676081781E+02  0.45426613190E+03  0.45748079415E+03  0.00000000000E+00 0. -1.
        -11    1    3    3    0    0 -0.23669200448E+02  0.48755952459E+01  0.97781769583E+02  0.10072376553E+03  0.00000000000E+00 0.  1.
         11    1    3    3    0    0  0.24018875152E+02 -0.16371121690E+02 -0.29860308491E+01  0.29220478592E+02  0.00000000000E+00 0. -1.
          3    1    1    2  501    0  0.10463950844E+03 -0.88442849183E+00  0.22778787879E+03  0.25067414439E+03  0.00000000000E+00 0. -1.
<scales pt_clust_5="13000.00000" pt_clust_6="13000.00000" pt_clust_7="13000.00000" pt_clust_8="13000.00000" pt_clust_9="104.83219"></scales>
<clustering>
<clus scale="   81.347">  5  6 -1 -1</clus>
<clus scale="   88.131">  7  8 -1 -1</clus>
<clus scale="   88.878">  1  7  2 -1</clus>
<clus scale="  104.832">  2  9  1 -1</clus>
<clus scale="  104.832">  2  5  1 -1</clus>
</clustering>
</event>
<event>
 9    2  0.4883225E-005  0.1394207E+03  0.7546771E-02  0.1236679E+00
          2   -1    0    0  502    0 -0.00000000000E+00  0.00000000000E+00  0.15723262701E+04  0.15723262701E+04  0.00000000000E+00 0. -1.
         21   -1    0    0  501  502  0.00000000000E+00 -0.00000000000E+00 -0.21301875898E+02  0.21301875898E+02  0.00000000000E+00 0.  1.
         24    2    1    2    0    0  0.15629330604E+02  0.28208942939E+02  0.64832946296E+03  0.65416326615E+03  0.80984355301E+02 0.  0.
         23    2    1    2    0    0 -0.66682882294E+02 -0.10097258079E+03  0.36710315470E+03  0.39654724039E+03  0.88560255244E+02 0.  0.
        -11    1    3    3    0    0  0.79177677373E+01 -0.24073710977E+02  0.95216768841E+02  0.98531556745E+02  0.00000000000E+00 0.  1.
         12    1    3    3    0    0  0.77115628667E+01  0.52282653916E+02  0.55311269412E+03  0.55563170940E+03  0.00000000000E+00 0. -1.
        -11    1    4    4    0    0 -0.30285742272E+02 -0.30442947228E+02  0.25845246637E+03  0.26199556598E+03  0.00000000000E+00 0. -1.
         11    1    4    4    0    0 -0.36397140021E+02 -0.70529633560E+02  0.10865068833E+03  0.13455167441E+03  0.00000000000E+00 0.  1.
          1    1    1    2  501    0  0.51053551690E+02  0.72763637849E+02  0.53559177653E+03  0.54291763944E+03  0.00000000000E+00 0. -1.
<scales pt_clust_5="13000.00000" pt_clust_6="13000.00000" pt_clust_7="13000.00000" pt_clust_8="13000.00000" pt_clust_9="107.68114"></scales>
<clustering>
<clus scale="   80.984">  5  6 -1 -1</clus>
<clus scale="   87.169">  1  5  2 -1</clus>
<clus scale="   88.560">  7  8 -1 -1</clus>
<clus scale="  107.681">  2  9  1 -1</clus>
<clus scale="  107.681">  2  5  1 -1</clus>
</clustering>
</event>
<event>
 9    2  0.4883225E-005  0.9469600E+02  0.7546771E-02  0.1297579E+00
         -3   -1    0    0    0  501 -0.00000000000E+00  0.00000000000E+00  0.13873852294E+03  0.13873852294E+03  0.00000000000E+00 0.  1.
         21   -1    0    0  501  502  0.00000000000E+00 -0.00000000000E+00 -0.17801437352E+03  0.17801437352E+03  0.00000000000E+00 0.  1.
         24    2    1    2    0    0 -0.33558099029E+01 -0.16438666269E+02  0.73738778533E+02  0.11125691200E+03  0.81603932499E+02 0.  0.
         23    2    1    2    0    0  0.24586990380E+02  0.44975750215E+02 -0.21181793052E+02  0.10701553988E+03  0.91522233449E+02 0.  0.
        -13    1    3    3    0    0 -0.38775023686E+02 -0.18941276186E+02  0.21818469493E+02  0.48356178679E+02  0.00000000000E+00 0.  1.
         14    1    3    3    0    0  0.35419213783E+02  0.25026099170E+01  0.51920309040E+02  0.62900733320E+02  0.00000000000E+00 0. -1.
        -11    1    4    4    0    0  0.50044186222E+02  0.14774486937E+01 -0.25947904328E+02  0.56390576946E+02  0.00000000000E+00 0. -1.
         11    1    4    4    0    0 -0.25457195842E+02  0.43498301521E+02  0.47661112762E+01  0.50624962934E+02  0.00000000000E+00 0.  1.
         -4    1    1    2    0  502 -0.21231180477E+02 -0.28537083946E+02 -0.91832836066E+02  0.98480444579E+02  0.00000000000E+00 0.  1.
<scales pt_clust_5="13000.00000" pt_clust_6="13000.00000" pt_clust_7="13000.00000" pt_clust_8="13000.00000" pt_clust_9="35.56864"></scales>
<clustering>
<clus scale="   35.569">  2  9  1 -1</clus>
<clus scale="   81.604">  5  6 -1 -1</clus>
<clus scale="   85.148">  1  5  2 -1</clus>
<clus scale="   91.522">  7  8 -1 -1</clus>
<clus scale="   35.569">  2  5  1 -1</clus>
</clustering>
</event>
<event>
 9    2  0.4883225E-005  0.1180564E+03  0.7546771E-02  0.1247379E+00
         21   -1    0    0  501  502  0.00000000000E+00  0.00000000000E+00  0.16144276713E+03  0.16144276713E+03  0.00000000000E+00 0. -1.
          2   -1    0    0  502    0 -0.00000000000E+00 -0.00000000000E+00 -0.13568410056E+03  0.13568410056E+03  0.00000000000E+00 0. -1.
         24    2    1    2    0    0 -0.93921238117E+02  0.38307998294E+01 -0.55079555336E+02  0.13470327739E+03  0.79217053260E+02 0.  0.
         23    2    1    2    0    0  0.61498520144E+02 -0.18993031582E+02  0.55914982535E+02  0.11880829741E+03  0.82741301861E+02 0.  0.
        -13    1    3    3    0    0 -0.84969610212E+02  0.15217366000E+02 -0.94584604185E+01  0.86838156136E+02  0.00000000000E+00 0.  1.
         14    1    3    3    0    0 -0.89516279047E+01 -0.11386566171E+02 -0.45621094918E+02  0.47865121256E+02  0.00000000000E+00 0. -1.
        -13    1    4    4    0    0  0.48209421268E+02  0.26630734454E+02  0.17766955470E+02  0.57870623145E+02  0.00000000000E+00 0.  1.
         13    1    4    4    0    0  0.13289098877E+02 -0.45623766035E+02  0.38148027065E+02  0.60937674268E+02  0.00000000000E+00 0. -1.
          1    1    1    2  501    0  0.32422717973E+02  0.15162231752E+02  0.24923239372E+02  0.43615292883E+02  0.00000000000E+00 0. -1.
<scales pt_clust_5="13000.00000" pt_clust_6="13000.00000" pt_clust_7="13000.00000" pt_clust_8="13000.00000" pt_clust_9="35.79282"></scales>
<clustering>
<clus scale="   35.793">  1  9  2 -1</clus>
<clus scale="   79.217">  5  6 -1 -1</clus>
<clus scale="   82.741">  7  8 -1 -1</clus>
<clus scale="  115.614">  2  5  1 -1</clus>
<clus scale="   35.793">  1  5  2 -1</clus>
</clustering>
</event>
<event>
 9    2  0.4883225E-005  0.1077989E+03  0.7546771E-02  0.1268758E+00
          2   -1    0    0  502    0 -0.00000000000E+00  0.00000000000E+00  0.11493073959E+04  0.11493073959E+04  0.00000000000E+00 0. -1.
         21   -1    0    0  501  502  0.00000000000E+00 -0.00000000000E+00 -0.23926895660E+02  0.23926895660E+02  0.00000000000E+00 0.  1.
         24    2    1    2    0    0 -0.11075821993E+02  0.57113932068E+02  0.76806235679E+03  0.77460560116E+03  0.81910795143E+02 0.  0.
         23    2    1    2    0    0  0.44014163605E+02 -0.42192264701E+02  0.34212666269E+03  0.35940660997E+03  0.91678918866E+02 0.  0.
        -13    1    3    3    0    0 -0.20142540093E+02  0.22287415906E+02  0.77687954415E+02  0.83293871866E+02  0.00000000000E+00 0.  1.
         14    1    3    3    0    0  0.90667180997E+01  0.34826516162E+02  0.69037440238E+03  0.69131172930E+03  0.00000000000E+00 0. -1.
        -11    1    4    4    0    0  0.68239686522E+02 -0.40290951803E+02  0.19841787687E+03  0.21365783271E+03  0.00000000000E+00 0. -1.
         11    1    4    4    0    0 -0.24225522917E+02 -0.19013128975E+01  0.14370878582E+03  0.14574877726E+03  0.00000000000E+00 0.  1.
          1    1    1    2  501    0 -0.32938341612E+02 -0.14921667367E+02  0.15191480743E+02  0.39222080418E+02  0.00000000000E+00 0. -1.
<scales pt_clust_5="13000.00000" pt_clust_6="13000.00000" pt_clust_7="13000.00000" pt_clust_8="13000.00000" pt_clust_9="36.16062"></scales>
<clustering>
<clus scale="   36.161">  2  9  1 -1</clus>
<clus scale="   81.911">  5  6 -1 -1</clus>
<clus scale="   91.679">  7  8 -1 -1</clus>
<clus scale="   99.624">  1  5  2 -1</clus>
<clus scale="   36.161">  2  5  1 -1</clus>
</clustering>
</event>
<event>
 9    2  0.4883225E-005  0.1719218E+03  0.7546771E-02  0.1211703E+00
          2   -1    0    0  502    0 -0.00000000000E+00  0.00000000000E+00  0.23331119290E+04  0.23331119290E+04  0.00000000000E+00 0. -1.
         21   -1    0    0  501  502  0.00000000000E+00 -0.00000000000E+00 -0.22354889372E+02  0.22354889372E+02  0.00000000000E+00 0. -1.
         24    2    1    2    0    0  0.59538634403E+00 -0.25009466580E+02  0.10831226083E+04  0.10859461945E+04  0.74153387759E+02 0.  0.
         23    2    1    2    0    0  0.13476831062E+03  0.69202220444E+02  0.77615407805E+03  0.79611716024E+03  0.91847346698E+02 0.  0.
        -13    1    3    3    0    0 -0.20685343095E+02  0.80250272622E+01  0.12074128401E+03  0.12276295103E+03  0.00000000000E+00 0.  1.
         14    1    3    3    0    0  0.21280729439E+02 -0.33034493842E+02  0.96238132427E+03  0.96318324348E+03  0.00000000000E+00 0. -1.
        -13    1    4    4    0    0  0.13900793992E+02  0.51611629344E+02  0.19015995655E+03  0.19752924196E+03  0.00000000000E+00 0.  1.
         13    1    4    4    0    0  0.12086751662E+03  0.17590591100E+02  0.58599412150E+03  0.59858791827E+03  0.00000000000E+00 0. -1.
          1    1    1    2  501    0 -0.13536369696E+03 -0.44192753864E+02  0.45148035334E+03  0.47340346366E+03  0.00000000000E+00 0. -1.
<scales pt_clust_5="13000.00000" pt_clust_6="13000.00000" pt_clust_7="13000.00000" pt_clust_8="13000.00000" pt_clust_9="145.33129"></scales>
<clustering>
<clus scale="   74.153">  5  6 -1 -1</clus>
<clus scale="   78.260">  1  5  2 -1</clus>
<clus scale="   91.847">  7  8 -1 -1</clus>
<clus scale="  145.331">  2  9  1 -1</clus>
<clus scale="  145.331">  2  5  1 -1</clus>
</clustering>
</event>
<event>
 9    2  0.4883225E-005  0.4151270E+03  0.7546771E-02  0.1091353E+00
          2   -1    0    0  502    0 -0.00000000000E+00  0.00000000000E+00  0.15324409151E+04  0.15324409151E+04  0.00000000000E+00 0. -1.
         21   -1    0    0  501  502  0.00000000000E+00 -0.00000000000E+00 -0.30182940294E+03  0.30182940294E+03  0.00000000000E+00 0. -1.
         23    2    1    2    0    0 -0.24272501814E+02  0.22572084623E+02 -0.15720111923E+03  0.18434244664E+03  0.90395201182E+02 0.  0.
         24    2    1    2    0    0  0.15778958019E+03 -0.39768216375E+03  0.10149328877E+04  0.11044247230E+04  0.81342161088E+02 0.  0.
        -11    1    4    4    0    0  0.24418319813E+02 -0.24683028404E+02  0.45900025450E+02  0.57552745981E+02  0.00000000000E+00 0.  1.
         12    1    4    4    0    0  0.13337126037E+03 -0.37299913534E+03  0.96903286229E+03  0.10468719770E+04  0.00000000000E+00 0. -1.
        -11    1    3    3    0    0  0.33099819179E+02  0.19283138954E+02 -0.53785114440E+02  0.66032386092E+02  0.00000000000E+00 0.  1.
         11    1    3    3    0    0 -0.57372320993E+02  0.32889456690E+01 -0.10341600479E+03  0.11831006055E+03  0.00000000000E+00 0. -1.
          1    1    1    2  501    0 -0.13351707837E+03  0.37511007912E+03  0.37287974363E+03  0.54550314838E+03  0.00000000000E+00 0. -1.
<scales pt_clust_5="13000.00000" pt_clust_6="13000.00000" pt_clust_7="13000.00000" pt_clust_8="13000.00000" pt_clust_9="407.07973"></scales>
<clustering>
<clus scale="   81.342">  5  6 -1 -1</clus>
<clus scale="   90.395">  7  8 -1 -1</clus>
<clus scale="   96.281">  1  7  2 -1</clus>
<clus scale="  407.080">  2  9  1 -1</clus>
<clus scale="  407.080">  2  5  1 -1</clus>
</clustering>
</event>
<event>
 9    2  0.4883225E-005  0.1670147E+03  0.7546771E-02  0.1182244E+00
         21   -1    0    0  501  502  0.00000000000E+00  0.00000000000E+00  0.86852480259E+02  0.86852480259E+02  0.00000000000E+00 0. -1.
          2   -1    0    0  502    0 -0.00000000000E+00 -0.00000000000E+00 -0.54206197126E+03  0.54206197126E+03  0.00000000000E+00 0. -1.
         23    2    1    2    0    0 -0.71680911731E+02  0.12087997794E+03 -0.37823612661E+03  0.41315722283E+03  0.88804285558E+02 0.  0.
         24    2    1    2    0    0  0.10190679800E+03 -0.10632249230E+03 -0.69676854235E+02  0.18142410111E+03  0.79814613931E+02 0.  0.
        -13    1    4    4    0    0  0.97952433166E+02 -0.10965346998E+03 -0.41500276963E+02  0.15277707822E+03  0.00000000000E+00 0.  1.
         14    1    4    4    0    0  0.39543648362E+01  0.33309776726E+01 -0.28176577272E+02  0.28647022886E+02  0.00000000000E+00 0. -1.
        -11    1    3    3    0    0 -0.59061030315E+02  0.43038725936E+02 -0.26689460786E+03  0.27671875422E+03  0.00000000000E+00 0. -1.
         11    1    3    3    0    0 -0.12619881416E+02  0.77841252001E+02 -0.11134151875E+03  0.13643846862E+03  0.00000000000E+00 0.  1.
          1    1    1    2  501    0 -0.30225886272E+02 -0.14557485632E+02 -0.72965101551E+01  0.34333127578E+02  0.00000000000E+00 0. -1.
<scales pt_clust_5="13000.00000" pt_clust_6="13000.00000" pt_clust_7="13000.00000" pt_clust_8="13000.00000" pt_clust_9="33.54884"></scales>
<clustering>
<clus scale="   33.549">  1  9  2 -1</clus>
<clus scale="   79.815">  5  6 -1 -1</clus>
<clus scale="   88.804">  7  8 -1 -1</clus>
<clus scale="  162.413">  1  5  2 -1</clus>
<clus scale="   33.549">  1  5  2 -1</clus>
</clustering>
</event>
<event>
 9    2  0.4883225E-005  0.1458058E+03  0.7546771E-02  0.1230179E+00
         21   -1    0    0  501  502  0.00000000000E+00  0.00000000000E+00  0.25355450816E+03  0.25355450816E+03  0.00000000000E+00 0.  1.
         -1   -1    0    0    0  501 -0.00000000000E+00 -0.00000000000E+00 -0.21162887789E+03  0.21162887789E+03  0.00000000000E+00 0.  1.
         24    2    1    2    0    0 -0.31970640772E+02 -0.74767927109E+01 -0.11518064943E+03  0.14440123244E+03  0.80666657471E+02 0.  0.
         23    2    1    2    0    0  0.71430387313E+02 -0.96368118614E+02  0.34753543021E+02  0.15552166415E+03  0.92682602196E+02 0.  0.
        -13    1    3    3    0    0 -0.33701912359E+02 -0.90865845653E+01 -0.12732810716E+03  0.13202587545E+03  0.00000000000E+00 0.  1.
         14    1    3    3    0    0  0.17312715870E+01  0.16097918544E+01  0.12147457736E+02  0.12375356988E+02  0.00000000000E+00 0. -1.
        -13    1    4    4    0    0 -0.21132297819E+02 -0.56868935000E+01  0.28207743626E+01  0.22065165687E+02  0.00000000000E+00 0. -1.
         13    1    4    4    0    0  0.92562685132E+02 -0.90681225114E+02  0.31932768659E+02  0.13345649846E+03  0.00000000000E+00 0.  1.
         -2    1    1    2    0  502 -0.39459746540E+02  0.10384491132E+03  0.12235273668E+03  0.16526048946E+03  0.00000000000E+00 0.  1.
<scales pt_clust_5="13000.00000" pt_clust_6="13000.00000" pt_clust_7="13000.00000" pt_clust_8="13000.00000" pt_clust_9="112.55787"></scales>
<clustering>
<clus scale="   80.667">  5  6 -1 -1</clus>
<clus scale="   87.093">  2  5  1 -1</clus>
<clus scale="   92.683">  7  8 -1 -1</clus>
<clus scale="  112.558">  1  9  2 -1</clus>
<clus scale="  112.558">  1  5  2 -1</clus>
</clustering>
</event>
<event>
 9    2  0.4883225E-005  0.9764221E+02  0.7546771E-02  0.1290251E+00
         21   -1    0    0  501  502  0.00000000000E+00  0.00000000000E+00  0.90872775042E+02  0.90872775042E+02  0.00000000000E+00 0. -1.
          2   -1    0    0  502    0 -0.00000000000E+00 -0.00000000000E+00 -0.21399508460E+03  0.21399508460E+03  0.00000000000E+00 0. -1.
         23    2    1    2    0    0  0.12464904835E+02  0.68115963634E+02 -0.52705383066E+02  0.12576295824E+03  0.90792653376E+02 0.  0.
         24    2    1    2    0    0  0.26457980158E+02 -0.38289492172E+01 -0.18318896557E+02  0.87660842427E+02  0.81450326935E+02 0.  0.
        -11    1    4    4    0    0 -0.24127733800E+02 -0.12918502041E+02 -0.23408234647E+02  0.36013618016E+02  0.00000000000E+00 0.  1.
         12    1    4    4    0    0  0.50585713958E+02  0.90895528243E+01  0.50893380902E+01  0.51647224411E+02  0.00000000000E+00 0. -1.
        -11    1    3    3    0    0  0.46010921389E+02  0.60252991747E+02 -0.50793726922E+02  0.91254756567E+02  0.00000000000E+00 0.  1.
         11    1    3    3    0    0 -0.33546016554E+02  0.78629718871E+01 -0.19116561440E+01  0.34508201674E+02  0.00000000000E+00 0. -1.
          1    1    1    2  501    0 -0.38922884992E+02 -0.64287014417E+02 -0.52098029938E+02  0.91444058977E+02  0.00000000000E+00 0. -1.
<scales pt_clust_5="13000.00000" pt_clust_6="13000.00000" pt_clust_7="13000.00000" pt_clust_8="13000.00000" pt_clust_9="75.15196"></scales>
<clustering>
<clus scale="   75.152">  1  9  2 -1</clus>
<clus scale="   81.450">  5  6 -1 -1</clus>
<clus scale="   89.022">  1  5  2 -1</clus>
<clus scale="   90.793">  7  8 -1 -1</clus>
<clus scale="   75.152">  1  5  2 -1</clus>
</clustering>
</event>
<event>
 9    2  0.4883225E-005  0.1803532E+03  0.7546771E-02  0.1168439E+00
         21   -1    0    0  501  502  0.00000000000E+00  0.00000000000E+00  0.74546340780E+02  0.74546340780E+02  0.00000000000E+00 0.  1.
         -3   -1    0    0    0  501 -0.00000000000E+00 -0.00000000000E+00 -0.54671441565E+03  0.54671441565E+03  0.00000000000E+00 0.  1.
         23    2    1    2    0    0  0.93414874243E+02  0.11387017623E+03 -0.26118011751E+03  0.31284195384E+03  0.89231600540E+02 0.  0.
         24    2    1    2    0    0 -0.12563267424E+03 -0.11934877471E+03 -0.16885885847E+03  0.25510030063E+03  0.80840277324E+02 0.  0.
        -13    1    4    4    0    0 -0.62876034481E+02 -0.11573040171E+02 -0.77697472675E+02  0.10061922396E+03  0.00000000000E+00 0.  1.
         14    1    4    4    0    0 -0.62756639758E+02 -0.10777573453E+03 -0.91161385793E+02  0.15448107667E+03  0.00000000000E+00 0. -1.
        -11    1    3    3    0    0  0.49227629919E+02  0.11793727793E+03 -0.19114515792E+03  0.22993266943E+03  0.00000000000E+00 0.  1.
         11    1    3    3    0    0  0.44187244324E+02 -0.40671017007E+01 -0.70034959588E+02  0.82909284412E+02  0.00000000000E+00 0. -1.
         -4    1    1    2    0  502  0.32217799997E+02  0.54785984784E+01 -0.42129098887E+02  0.53318501957E+02  0.00000000000E+00 0.  1.
<scales pt_clust_5="13000.00000" pt_clust_6="13000.00000" pt_clust_7="13000.00000" pt_clust_8="13000.00000" pt_clust_9="32.68031"></scales>
<clustering>
<clus scale="   32.680">  1  9  2 -1</clus>
<clus scale="   80.840">  5  6 -1 -1</clus>
<clus scale="   89.232">  7  8 -1 -1</clus>
<clus scale="  176.352">  1  5  2 -1</clus>
<clus scale="   32.680">  1  5  2 -1</clus>
</clustering>
</event>
<event>
 9    2  0.4883225E-005  0.9998846E+02  0.7546771E-02  0.1291889E+00
         21   -1    0    0  501  502  0.00000000000E+00  0.00000000000E+00  0.30091043661E+02  0.30091043661E+02  0.00000000000E+00 0. -1.
          2   -1    0    0  502    0 -0.00000000000E+00 -0.00000000000E+00 -0.10803161056E+04  0.10803161056E+04  0.00000000000E+00 0. -1.
         24    2    1    2    0    0  0.98174936064E+01  0.14488722894E+02 -0.85745363255E+03  0.86123357107E+03  0.78677987276E+02 0.  0.
         23    2    1    2    0    0 -0.21079159766E+02  0.33766159279E+01 -0.20225508437E+03  0.22602330463E+03  0.98608734751E+02 0.  0.
        -11    1    3    3    0    0 -0.24031724803E+02  0.43401288264E+01 -0.99368752335E+02  0.10232550736E+03  0.00000000000E+00 0.  1.
         12    1    3    3    0    0  0.33849218409E+02  0.10148594067E+02 -0.75808488022E+03  0.75890806371E+03  0.00000000000E+00 0. -1.
        -11    1    4    4    0    0 -0.29757080250E+02 -0.34830796040E+02 -0.45960162169E+02  0.64892254425E+02  0.00000000000E+00 0.  1.
         11    1    4    4    0    0  0.86779204841E+01  0.38207411967E+02 -0.15629492220E+03  0.16113105020E+03  0.00000000000E+00 0. -1.
          1    1    1    2  501    0  0.11261666160E+02 -0.17865338822E+02  0.94836549608E+01  0.23150273591E+02  0.00000000000E+00 0. -1.
<scales pt_clust_5="13000.00000" pt_clust_6="13000.00000" pt_clust_7="13000.00000" pt_clust_8="13000.00000" pt_clust_9="21.11860"></scales>
<clustering>
<clus scale="   21.119">  1  9  2 -1</clus>
<clus scale="   78.678">  5  6 -1 -1</clus>
<clus scale="   80.400">  2  5  1 -1</clus>
<clus scale="   98.609">  7  8 -1 -1</clus>
<clus scale="   21.119">  1  5  2 -1</clus>
</clustering>
</event>
<event>
 9    2  0.4883225E-005  0.1171026E+03  0.7546771E-02  0.1251692E+00
         21   -1    0    0  501  502  0.00000000000E+00  0.00000000000E+00  0.98930315649E+02  0.98930315649E+02  0.00000000000E+00 0.  1.
         -1   -1    0    0    0  501 -0.00000000000E+00 -0.00000000000E+00 -0.37261654384E+03  0.37261654384E+03  0.00000000000E+00 0.  1.
         24    2    1    2    0    0  0.70026474257E+02  0.67320048526E+02 -0.23548486769E+03  0.26337336956E+03  0.66908242036E+02 0.  0.
         23    2    1    2    0    0 -0.53826736630E+02  0.13582675443E+02  0.29283958010E+02  0.10158103964E+03  0.79870838038E+02 0.  0.
        -11    1    3    3    0    0  0.79059760597E+02  0.63709803866E+02 -0.17674743938E+03  0.20383582164E+03  0.00000000000E+00 0.  1.
         12    1    3    3    0    0 -0.90332863395E+01  0.36102446604E+01 -0.58737428304E+02  0.59537547921E+02  0.00000000000E+00 0. -1.
        -13    1    4    4    0    0 -0.35474628972E+02  0.46510058233E+02  0.10373741954E+02  0.59407485553E+02  0.00000000000E+00 0.  1.
         13    1    4    4    0    0 -0.18352107658E+02 -0.32927382791E+02  0.18910216055E+02  0.42173554085E+02  0.00000000000E+00 0. -1.
         -2    1    1    2    0  502 -0.16199737627E+02 -0.80902723969E+02 -0.67485318515E+02  0.10659245029E+03  0.00000000000E+00 0.  1.
<scales pt_clust_5="13000.00000" pt_clust_6="13000.00000" pt_clust_7="13000.00000" pt_clust_8="13000.00000" pt_clust_9="82.50872"></scales>
<clustering>
<clus scale="   66.908">  5  6 -1 -1</clus>
<clus scale="   79.871">  7  8 -1 -1</clus>
<clus scale="   82.509">  1  9  2 -1</clus>
<clus scale="  108.676">  2  5  1 -1</clus>
<clus scale="   82.509">  1  5  2 -1</clus>
</clustering>
</event>
<event>
 9    2  0.4883225E-005  0.2196504E+03  0.7546771E-02  0.1134973E+00
         21   -1    0    0  501  502  0.00000000000E+00  0.00000000000E+00  0.64197279168E+03  0.64197279168E+03  0.00000000000E+00 0.  1.
          2   -1    0    0  502    0 -0.00000000000E+00 -0.00000000000E+00 -0.14461314281E+04  0.14461314281E+04  0.00000000000E+00 0. -1.
         24    2    1    2    0    0  0.13374290167E+03  0.14615712758E+03 -0.13716357535E+04  0.13882427692E+04  0.81143553616E+02 0.  0.
         23    2    1    2    0    0 -0.10636764326E+03 -0.24336286991E+03  0.28696783521E+03  0.40172755741E+03  0.92167944270E+02 0.  0.
        -13    1    3    3    0    0  0.67398396009E+01  0.36100947251E+02 -0.12351799795E+03  0.12886194026E+03  0.00000000000E+00 0.  1.
         14    1    3    3    0    0  0.12700306207E+03  0.11005618032E+03 -0.12481177555E+04  0.12593808289E+04  0.00000000000E+00 0. -1.
        -11    1    4    4    0    0  0.10991754172E+02 -0.27659527771E+02  0.95933529466E+01  0.31271401584E+02  0.00000000000E+00 0.  1.
         11    1    4    4    0    0 -0.11735939744E+03 -0.21570334214E+03  0.27737448226E+03  0.37045615582E+03  0.00000000000E+00 0. -1.
          1    1    1    2  501    0 -0.27375258409E+02  0.97205742336E+02  0.28050928180E+03  0.29813389323E+03  0.00000000000E+00 0. -1.
<scales pt_clust_5="13000.00000" pt_clust_6="13000.00000" pt_clust_7="13000.00000" pt_clust_8="13000.00000" pt_clust_9="100.98694"></scales>
<clustering>
<clus scale="   81.144">  5  6 -1 -1</clus>
<clus scale="   92.168">  7  8 -1 -1</clus>
<clus scale="  100.987">  1  9  2 -1</clus>
<clus scale="  215.257">  2  5  1 -1</clus>
<clus scale="  100.987">  1  5  2 -1</clus>
</clustering>
</event>
<event>
 9    2  0.4883225E-005  0.1039791E+03  0.7546771E-02  0.1278014E+00
         21   -1    0    0  501  502  0.00000000000E+00  0.00000000000E+00  0.26091013831E+02  0.26091013831E+02  0.00000000000E+00 0.  1.
          2   -1    0    0  502    0 -0.00000000000E+00 -0.00000000000E+00 -0.80112905461E+03  0.80112905461E+03  0.00000000000E+00 0. -1.
         23    2    1    2    0    0 -0.10053270741E+02 -0.43206217410E+02 -0.41864471042E+03  0.43115310973E+03  0.93068603662E+02 0.  0.
         24    2    1    2    0    0  0.59456929491E+02  0.22451180540E+02 -0.30512983897E+03  0.32190875888E+03  0.80509927595E+02 0.  0.
        -11    1    4    4    0    0  0.77085417087E+02  0.82911458933E+01 -0.26173408569E+03  0.27297552315E+03  0.00000000000E+00 0.  1.
         12    1    4    4    0    0 -0.17628487596E+02  0.14160034647E+02 -0.43395753282E+02  0.48933235730E+02  0.00000000000E+00 0. -1.
        -11    1    3    3    0    0 -0.39703068174E+02 -0.56224333176E+02 -0.24354484417E+03  0.25308417649E+03  0.00000000000E+00 0. -1.
         11    1    3    3    0    0  0.29649797433E+02  0.13018115766E+02 -0.17509986625E+03  0.17806893324E+03  0.00000000000E+00 0.  1.
          1    1    1    2  501    0 -0.49403658750E+02  0.20755036870E+02 -0.51263491384E+02  0.74158199831E+02  0.00000000000E+00 0. -1.
<scales pt_clust_5="13000.00000" pt_clust_6="13000.00000" pt_clust_7="13000.00000" pt_clust_8="13000.00000" pt_clust_9="53.58631"></scales>
<clustering>
<clus scale="   53.586">  1  9  2 -1</clus>
<clus scale="   80.510">  5  6 -1 -1</clus>
<clus scale="   92.907">  1  5  2 -1</clus>
<clus scale="   93.069">  7  8 -1 -1</clus>
<clus scale="   53.586">  1  5  2 -1</clus>
</clustering>
</event>
<event>
 9    2  0.6148549E-005  0.9526106E+02  0.7546771E-02  0.1294823E+00
         21   -1    0    0  501  502  0.00000000000E+00  0.00000000000E+00  0.68291584332E+02  0.68291584332E+02  0.00000000000E+00 0.  1.
          2   -1    0    0  502    0 -0.00000000000E+00 -0.00000000000E+00 -0.58395358557E+03  0.58395358557E+03  0.00000000000E+00 0. -1.
         23    2    1    2    0    0 -0.11624971991E+02  0.28804791076E+02 -0.41988028000E+03  0.43065245838E+03  0.90538579708E+02 0.  0.
         24    2    1    2    0    0 -0.37287843966E+02 -0.27174528190E+02  0.19052030655E+02  0.96765182922E+02  0.82895611849E+02 0.  0.
        -11    1    4    4    0    0  0.23479398004E+02 -0.21267222579E+02  0.16354939891E+02  0.35651941682E+02  0.00000000000E+00 0.  1.
         12    1    4    4    0    0 -0.60767241970E+02 -0.59073056111E+01  0.26970907648E+01  0.61113241240E+02  0.00000000000E+00 0. -1.
        -13    1    3    3    0    0 -0.21099062036E+02 -0.25753500672E+02 -0.86149658494E+02  0.92358956654E+02  0.00000000000E+00 0. -1.
         13    1    3    3    0    0  0.94740900458E+01  0.54558291748E+02 -0.33373062151E+03  0.33829350173E+03  0.00000000000E+00 0.  1.
          1    1    1    2  501    0  0.48912815956E+02 -0.16302628858E+01 -0.11483375189E+03  0.12482752859E+03  0.00000000000E+00 0. -1.
<scales pt_clust_5="13000.00000" pt_clust_6="13000.00000" pt_clust_7="13000.00000" pt_clust_8="13000.00000" pt_clust_9="48.94000"></scales>
<clustering>
<clus scale="   48.940">  1  9  2 -1</clus>
<clus scale="   82.896">  5  6 -1 -1</clus>
<clus scale="   88.029">  1  5  2 -1</clus>
<clus scale="   90.539">  7  8 -1 -1</clus>
<clus scale="   48.940">  1  5  2 -1</clus>
</clustering>
</event>
<event>
 9    2  0.4883225E-005  0.2196885E+03  0.7546771E-02  0.1134410E+00
          2   -1    0    0  502    0 -0.00000000000E+00  0.00000000000E+00  0.55231310694E+03  0.55231310694E+03  0.00000000000E+00 0. -1.
         21   -1    0    0  501  502  0.00000000000E+00 -0.00000000000E+00 -0.21026487200E+03  0.21026487200E+03  0.00000000000E+00 0.  1.
         24    2    1    2    0    0 -0.20455847442E+03  0.24297698712E+02  0.45876482206E+03  0.50925794486E+03  0.80274185249E+02 0.  0.
         23    2    1    2    0    0  0.18031733007E+03 -0.22573946231E+02 -0.10678738354E+03  0.22706753923E+03  0.84452350565E+02 0.  0.
        -13    1    3    3    0    0 -0.15198379576E+03 -0.14667169407E+02  0.28057148673E+03  0.31942848840E+03  0.00000000000E+00 0.  1.
         14    1    3    3    0    0 -0.52574678661E+02  0.38964868119E+02  0.17819333533E+03  0.18982945646E+03  0.00000000000E+00 0. -1.
        -13    1    4    4    0    0  0.95380669311E+02 -0.15188891329E+02 -0.10376328158E+03  0.14175680972E+03  0.00000000000E+00 0.  1.
         13    1    4    4    0    0  0.84936660759E+02 -0.73850549025E+01 -0.30241019640E+01  0.85310729510E+02  0.00000000000E+00 0. -1.
          1    1    1    2  501    0  0.24241144354E+02 -0.17237524805E+01 -0.99292035835E+01  0.26252494853E+02  0.00000000000E+00 0. -1.
<scales pt_clust_5="13000.00000" pt_clust_6="13000.00000" pt_clust_7="13000.00000" pt_clust_8="13000.00000" pt_clust_9="24.30235"></scales>
<clustering>
<clus scale="   24.302">  2  9  1 -1</clus>
<clus scale="   80.274">  5  6 -1 -1</clus>
<clus scale="   84.452">  7  8 -1 -1</clus>
<clus scale="  218.116">  1  5  2 -1</clus>
<clus scale="   24.302">  2  5  1 -1</clus>
</clustering>
</event>
<event>
 9    2  0.4883225E-005  0.1144954E+03  0.7546771E-02  0.1256807E+00
         -3   -1    0    0    0  501 -0.00000000000E+00  0.00000000000E+00  0.80212249479E+02  0.80212249479E+02  0.00000000000E+00 0.  1.
         21   -1    0    0  501  502  0.00000000000E+00 -0.00000000000E+00 -0.22011643692E+03  0.22011643692E+03  0.00000000000E+00 0.  1.
         24    2    1    2    0    0  0.62573748851E+02  0.29041288955E+01 -0.56074474771E+02  0.11634906456E+03  0.80429161961E+02 0.  0.
         23    2    1    2    0    0 -0.73354370610E+02  0.25160620679E+02 -0.93237050588E+02  0.15247803488E+03  0.92425553821E+02 0.  0.
        -13    1    3    3    0    0  0.80238578807E+02  0.88053834543E+01 -0.55033142846E+02  0.97695502037E+02  0.00000000000E+00 0.  1.
         14    1    3    3    0    0 -0.17664829956E+02 -0.59012545588E+01 -0.10413319251E+01  0.18653562526E+02  0.00000000000E+00 0. -1.
        -11    1    4    4    0    0  0.14803885068E+02  0.28123661090E+02 -0.17896693543E+02  0.36474470057E+02  0.00000000000E+00 0. -1.
         11    1    4    4    0    0 -0.88158255678E+02 -0.29630404108E+01 -0.75340357046E+02  0.11600356483E+03  0.00000000000E+00 0.  1.
         -4    1    1    2    0  502  0.10780621759E+02 -0.28064749574E+02  0.94073379135E+01  0.31501586957E+02  0.00000000000E+00 0.  1.
<scales pt_clust_5="13000.00000" pt_clust_6="13000.00000" pt_clust_7="13000.00000" pt_clust_8="13000.00000" pt_clust_9="30.06415"></scales>
<clustering>
<clus scale="   30.064">  2  9  1 -1</clus>
<clus scale="   80.429">  5  6 -1 -1</clus>
<clus scale="   92.426">  7  8 -1 -1</clus>
<clus scale="  105.050">  1  5  2 -1</clus>
<clus scale="   30.064">  2  5  1 -1</clus>
</clustering>
</event>
<event>
 9    2  0.4883225E-005  0.9620800E+02  0.7546771E-02  0.1294105E+00
         21   -1    0    0  501  502  0.00000000000E+00  0.00000000000E+00  0.22765017037E+03  0.22765017037E+03  0.00000000000E+00 0.  1.
          2   -1    0    0  502    0 -0.00000000000E+00 -0.00000000000E+00 -0.38571656988E+03  0.38571656988E+03  0.00000000000E+00 0. -1.
         24    2    1    2    0    0 -0.25597263864E+02 -0.20297827818E+02 -0.33679833336E+03  0.34772278621E+03  0.80067452604E+02 0.  0.
         23    2    1    2    0    0 -0.67015002666E+01  0.76403780362E+02  0.15830142784E+03  0.19775806706E+03  0.90368486061E+02 0.  0.
        -13    1    3    3    0    0 -0.29885555364E+02 -0.31607540638E+02 -0.83636709837E+02  0.94272383427E+02  0.00000000000E+00 0.  1.
         14    1    3    3    0    0  0.42882914993E+01  0.11309712820E+02 -0.25316162352E+03  0.25345040278E+03  0.00000000000E+00 0. -1.
        -13    1    4    4    0    0 -0.23680224700E+01  0.42919771178E+02  0.15826109346E+03  0.16399478038E+03  0.00000000000E+00 0.  1.
         13    1    4    4    0    0 -0.43334777966E+01  0.33484009184E+02  0.40334379495E-01  0.33763286684E+02  0.00000000000E+00 0. -1.
          1    1    1    2  501    0  0.32298764131E+02 -0.56105952544E+02  0.20430506006E+02  0.67885886979E+02  0.00000000000E+00 0. -1.
<scales pt_clust_5="13000.00000" pt_clust_6="13000.00000" pt_clust_7="13000.00000" pt_clust_8="13000.00000" pt_clust_9="64.73861"></scales>
<clustering>
<clus scale="   64.739">  1  9  2 -1</clus>
<clus scale="   80.067">  5  6 -1 -1</clus>
<clus scale="   86.604">  2  5  1 -1</clus>
<clus scale="   90.368">  7  8 -1 -1</clus>
<clus scale="   64.739">  1  5  2 -1</clus>
</clustering>
</event>
<event>
 9    2  0.4883225E-005  0.9182697E+02  0.7546771E-02  0.1305343E+00
         21   -1    0    0  501  502  0.00000000000E+00  0.00000000000E+00  0.19332357781E+03  0.19332357781E+03  0.00000000000E+00 0.  1.
          2   -1    0    0  502    0 -0.00000000000E+00 -0.00000000000E+00 -0.16571140383E+03  0.16571140383E+03  0.00000000000E+00 0. -1.
         23    2    1    2    0    0 -0.75839292432E+01  0.53173983564E+01 -0.10936941901E+03  0.14207278787E+03  0.90206521551E+02 0.  0.
         24    2    1    2    0    0  0.33467814215E+02 -0.27678171792E+02  0.16531644837E+02  0.91749695594E+02  0.79110906824E+02 0.  0.
        -11    1    4    4    0    0  0.26562494513E+02 -0.54955028451E+02  0.17810521958E+02  0.63583299373E+02  0.00000000000E+00 0.  1.
         12    1    4    4    0    0  0.69053197022E+01  0.27276856659E+02 -0.12788771209E+01  0.28166396221E+02  0.00000000000E+00 0. -1.
        -13    1    3    3    0    0 -0.41321255519E+02  0.20963857340E+02 -0.87284133394E+02  0.98820288477E+02  0.00000000000E+00 0. -1.
         13    1    3    3    0    0  0.33737326276E+02 -0.15646458984E+02 -0.22085285619E+02  0.43252499395E+02  0.00000000000E+00 0.  1.
          1    1    1    2  501    0 -0.25883884972E+02  0.22360773435E+02  0.12044994816E+03  0.12521249818E+03  0.00000000000E+00 0. -1.
<scales pt_clust_5="13000.00000" pt_clust_6="13000.00000" pt_clust_7="13000.00000" pt_clust_8="13000.00000" pt_clust_9="34.20497"></scales>
<clustering>
<clus scale="   34.205">  1  9  2 -1</clus>
<clus scale="   79.111">  5  6 -1 -1</clus>
<clus scale="   80.954">  1  5  2 -1</clus>
<clus scale="   90.207">  7  8 -1 -1</clus>
<clus scale="   34.205">  1  5  2 -1</clus>
</clustering>
</event>
<event>
 9    2  0.4883225E-005  0.2353872E+03  0.7546771E-02  0.1151131E+00
         21   -1    0    0  501  502  0.00000000000E+00  0.00000000000E+00  0.23439111032E+03  0.23439111032E+03  0.00000000000E+00 0. -1.
          2   -1    0    0  502    0 -0.00000000000E+00 -0.00000000000E+00 -0.63682135342E+03  0.63682135342E+03  0.00000000000E+00 0. -1.
         23    2    1    2    0    0 -0.23755203185E+02 -0.72721629480E+02  0.95403141371E+02  0.15228930767E+03  0.90760832823E+02 0.  0.
         24    2    1    2    0    0 -0.14093800168E+03  0.20730211611E+03 -0.41275872724E+03  0.48985230150E+03  0.82145132023E+02 0.  0.
        -11    1    4    4    0    0 -0.51377996884E+02  0.13737481160E+03 -0.19245341871E+03  0.24197077468E+03  0.00000000000E+00 0.  1.
         12    1    4    4    0    0 -0.89560004792E+02  0.69927304511E+02 -0.22030530852E+03  0.24788152682E+03  0.00000000000E+00 0. -1.
        -13    1    3    3    0    0 -0.37696332014E+02 -0.89328887321E+02  0.79843290500E+02  0.12560101351E+03  0.00000000000E+00 0. -1.
         13    1    3    3    0    0  0.13941128829E+02  0.16607257840E+02  0.15559850871E+02  0.26688294159E+02  0.00000000000E+00 0.  1.
          1    1    1    2  501    0  0.16469320486E+03 -0.13458048663E+03 -0.85074657235E+02  0.22907085457E+03  0.00000000000E+00 0. -1.
<scales pt_clust_5="13000.00000" pt_clust_6="13000.00000" pt_clust_7="13000.00000" pt_clust_8="13000.00000" pt_clust_9="220.58860"></scales>
<clustering>
<clus scale="   82.145">  5  6 -1 -1</clus>
<clus scale="   90.761">  7  8 -1 -1</clus>
<clus scale="  118.703">  2  7  1 -1</clus>
<clus scale="  220.589">  1  9  2 -1</clus>
<clus scale="  220.589">  1  5  2 -1</clus>
</clustering>
</event>
<event>
 9    2  0.4883225E-005  0.1100016E+03  0.7546771E-02  0.1266132E+00
          2   -1    0    0  502    0 -0.00000000000E+00  0.00000000000E+00  0.10086388946E+03  0.10086388946E+03  0.00000000000E+00 0. -1.
         21   -1    0    0  501  502  0.00000000000E+00 -0.00000000000E+00 -0.14008511072E+03  0.14008511072E+03  0.00000000000E+00 0.  1.
         23    2    1    2    0    0 -0.13778167519E+02  0.66236532898E+02 -0.76986906673E+00  0.11402577096E+03  0.91783264019E+02 0.  0.
         24    2    1    2    0    0 -0.72929784533E+00 -0.52114429196E+02 -0.47170159056E+02  0.10487968237E+03  0.77834942431E+02 0.  0.
        -13    1    4    4    0    0 -0.24130701328E+02 -0.47794023355E+02 -0.57825861340E+02  0.78806025498E+02  0.00000000000E+00 0.  1.
         14    1    4    4    0    0  0.23401403483E+02 -0.43204058414E+01  0.10655702284E+02  0.26073656874E+02  0.00000000000E+00 0. -1.
        -11    1    3    3    0    0 -0.33618100099E+02 -0.85358063624E+01  0.95631033811E+01  0.35979015979E+02  0.00000000000E+00 0. -1.
         11    1    3    3    0    0  0.19839932581E+02  0.74772339261E+02 -0.10332972448E+02  0.78046754980E+02  0.00000000000E+00 0.  1.
          1    1    1    2  501    0  0.14507465364E+02 -0.14122103702E+02  0.87188068621E+01  0.22043546842E+02  0.00000000000E+00 0. -1.
<scales pt_clust_5="13000.00000" pt_clust_6="13000.00000" pt_clust_7="13000.00000" pt_clust_8="13000.00000" pt_clust_9="20.24601"></scales>
<clustering>
<clus scale="   20.246">  2  9  1 -1</clus>
<clus scale="   77.835">  5  6 -1 -1</clus>
<clus scale="   91.783">  7  8 -1 -1</clus>
<clus scale="   98.663">  2  5  1 -1</clus>
<clus scale="   20.246">  2  5  1 -1</clus>
</clustering>
</event>
<event>
 9    2  0.4883225E-005  0.1885388E+03  0.7546771E-02  0.1160556E+00
         21   -1    0    0  501  502  0.00000000000E+00  0.00000000000E+00  0.48199587563E+02  0.48199587563E+02  0.00000000000E+00 0. -1.
          2   -1    0    0  502    0 -0.00000000000E+00 -0.00000000000E+00 -0.16017935013E+04  0.16017935013E+04  0.00000000000E+00 0. -1.
         24    2    1    2    0    0 -0.15983847223E+03 -0.70313892300E+02 -0.12912743029E+04  0.13056706921E+04  0.83031621896E+02 0.  0.
         23    2    1    2    0    0  0.10533105410E+03  0.59752028953E+02 -0.12447839645E+03  0.19571953013E+03  0.90257007316E+02 0.  0.
        -11    1    3    3    0    0 -0.42920565731E+02 -0.59449479555E+02 -0.39628164293E+03  0.40300813404E+03  0.00000000000E+00 0.  1.
         12    1    3    3    0    0 -0.11691790650E+03 -0.10864412745E+02 -0.89499265993E+03  0.90266255802E+03  0.00000000000E+00 0. -1.
        -11    1    4    4    0    0  0.69302921697E+02  0.18237051308E+02 -0.14998581955E+02  0.73215042558E+02  0.00000000000E+00 0. -1.
         11    1    4    4    0    0  0.36028132407E+02  0.41514977645E+02 -0.10947981450E+03  0.12250448758E+03  0.00000000000E+00 0.  1.
          1    1    1    2  501    0  0.54507418122E+02  0.10561863347E+02 -0.13784121445E+03  0.14860286669E+03  0.00000000000E+00 0. -1.
<scales pt_clust_5="13000.00000" pt_clust_6="13000.00000" pt_clust_7="13000.00000" pt_clust_8="13000.00000" pt_clust_9="55.52127"></scales>
<clustering>
<clus scale="   55.521">  1  9  2 -1</clus>
<clus scale="   83.032">  5  6 -1 -1</clus>
<clus scale="   90.257">  7  8 -1 -1</clus>
<clus scale="  185.189">  2  5  1 -1</clus>
<clus scale="   55.521">  1  5  2 -1</clus>
</clustering>
</event>
<event>
 9    2  0.4883225E-005  0.1122527E+03  0.7546771E-02  0.1263865E+00
          2   -1    0    0  502    0 -0.00000000000E+00  0.00000000000E+00  0.13622337573E+04  0.13622337573E+04  0.00000000000E+00 0. -1.
         21   -1    0    0  501  502  0.00000000000E+00 -0.00000000000E+00 -0.87524225807E+02  0.87524225807E+02  0.00000000000E+00 0.  1.
         24    2    1    2    0    0  0.25528138910E+02  0.47174762060E+02  0.12789649804E+04  0.12826106585E+04  0.80383682193E+02 0.  0.
         23    2    1    2    0    0 -0.61618918407E+02 -0.57132459381E+02  0.15421276114E+01  0.12926181286E+03  0.98210127205E+02 0.  0.
        -11    1    3    3    0    0  0.28591513360E+02  0.81904069700E+01  0.14742119175E+03  0.15039137336E+03  0.00000000000E+00 0.  1.
         12    1    3    3    0    0 -0.30633744504E+01  0.38984355090E+02  0.11315437886E+04  0.11322192852E+04  0.00000000000E+00 0. -1.
        -11    1    4    4    0    0  0.15334085345E+02 -0.20556282685E+02 -0.29033983759E+02  0.38738445298E+02  0.00000000000E+00 0. -1.
         11    1    4    4    0    0 -0.76953003752E+02 -0.36576176697E+02  0.30576111370E+02  0.90523367562E+02  0.00000000000E+00 0.  1.
          1    1    1    2  501    0  0.36090779497E+02  0.99576973219E+01 -0.57975765199E+01  0.37885511666E+02  0.00000000000E+00 0. -1.
<scales pt_clust_5="13000.00000" pt_clust_6="13000.00000" pt_clust_7="13000.00000" pt_clust_8="13000.00000" pt_clust_9="37.43929"></scales>
<clustering>
<clus scale="   37.439">  2  9  1 -1</clus>
<clus scale="   80.384">  5  6 -1 -1</clus>
<clus scale="   97.041">  1  5  2 -1</clus>
<clus scale="   98.210">  7  8 -1 -1</clus>
<clus scale="   37.439">  2  5  1 -1</clus>
</clustering>
</event>
<event>
 9    2  0.4883225E-005  0.9169266E+02  0.7546771E-02  0.1305322E+00
         21   -1    0    0  501  502  0.00000000000E+00  0.00000000000E+00  0.15666673571E+03  0.15666673571E+03  0.00000000000E+00 0. -1.
          2   -1    0    0  502    0 -0.00000000000E+00 -0.00000000000E+00 -0.64631641585E+03  0.64631641585E+03  0.00000000000E+00 0. -1.
         24    2    1    2    0    0 -0.24652546997E+01  0.61115276710E+01 -0.57300633215E+03  0.57871538491E+03  0.80819625037E+02 0.  0.
         23    2    1    2    0    0  0.60916767244E+02 -0.58847616717E+02  0.26813859910E+02  0.12734118751E+03  0.91229931645E+02 0.  0.
        -11    1    3    3    0    0  0.33739087997E+02  0.47904106895E+01 -0.13579226564E+03  0.14000290533E+03  0.00000000000E+00 0.  1.
         12    1    3    3    0    0 -0.36204342697E+02  0.13211169815E+01 -0.43721406652E+03  0.43871247958E+03  0.00000000000E+00 0. -1.
        -11    1    4    4    0    0 -0.16173519785E+02 -0.31336372182E+02  0.28700531626E+02  0.45467257223E+02  0.00000000000E+00 0.  1.
         11    1    4    4    0    0  0.77090287029E+02 -0.27511244535E+02 -0.18866717155E+01  0.81873930285E+02  0.00000000000E+00 0. -1.
          1    1    1    2  501    0 -0.58451512544E+02  0.52736089046E+02  0.56542792101E+02  0.96926579147E+02  0.00000000000E+00 0. -1.
<scales pt_clust_5="13000.00000" pt_clust_6="13000.00000" pt_clust_7="13000.00000" pt_clust_8="13000.00000" pt_clust_9="78.72531"></scales>
<clustering>
<clus scale="   78.725">  1  9  2 -1</clus>
<clus scale="   80.820">  5  6 -1 -1</clus>
<clus scale="   81.342">  2  5  1 -1</clus>
<clus scale="   91.230">  7  8 -1 -1</clus>
<clus scale="   78.725">  1  5  2 -1</clus>
</clustering>
</event>
<event>
 9    2  0.4883225E-005  0.1150502E+03  0.7546771E-02  0.1255848E+00
         -1   -1    0    0    0  501 -0.00000000000E+00  0.00000000000E+00  0.29487300440E+03  0.29487300440E+03  0.00000000000E+00 0.  1.
         21   -1    0    0  501  502  0.00000000000E+00 -0.00000000000E+00 -0.82890685183E+02  0.82890685183E+02  0.00000000000E+00 0.  1.
         23    2    1    2    0    0  0.53341094544E+02  0.26010301262E+02  0.12485215649E+03  0.16606539138E+03  0.92020894886E+02 0.  0.
         24    2    1    2    0    0 -0.63507137717E+02 -0.76626301759E+02  0.23405826977E+02  0.12968537905E+03  0.79785450688E+02 0.  0.
        -13    1    4    4    0    0 -0.82041711985E+02 -0.69909271096E+02  0.21145114677E+02  0.10984199818E+03  0.00000000000E+00 0.  1.
         14    1    4    4    0    0  0.18534574267E+02 -0.67170306634E+01  0.22607123002E+01  0.19843380869E+02  0.00000000000E+00 0. -1.
        -11    1    3    3    0    0  0.34045470140E+02  0.82893607383E+01  0.13385344345E+03  0.13836383870E+03  0.00000000000E+00 0. -1.
         11    1    3    3    0    0  0.19295624404E+02  0.17720940523E+02 -0.90012869515E+01  0.27701552681E+02  0.00000000000E+00 0.  1.
         -2    1    1    2    0  502  0.10166043173E+02  0.50616000498E+02  0.63724335747E+02  0.82012919144E+02  0.00000000000E+00 0.  1.
<scales pt_clust_5="13000.00000" pt_clust_6="13000.00000" pt_clust_7="13000.00000" pt_clust_8="13000.00000" pt_clust_9="51.62684"></scales>
<clustering>
<clus scale="   51.627">  2  9  1 -1</clus>
<clus scale="   79.785">  5  6 -1 -1</clus>
<clus scale="   92.021">  7  8 -1 -1</clus>
<clus scale="  105.520">  2  5  1 -1</clus>
<clus scale="   51.627">  2  5  1 -1</clus>
</clustering>
</event>
<event>
 9    2  0.4883225E-005  0.1061880E+03  0.7546771E-02  0.1271235E+00
          2   -1    0    0  502    0 -0.00000000000E+00  0.00000000000E+00  0.39291626038E+03  0.39291626038E+03  0.00000000000E+00 0. -1.
         21   -1    0    0  501  502  0.00000000000E+00 -0.00000000000E+00 -0.50885804704E+02  0.50885804704E+02  0.00000000000E+00 0. -1.
         24    2    1    2    0    0 -0.37564014649E+02 -0.40237497512E+02  0.11500143076E+03  0.15184303536E+03  0.82467368745E+02 0.  0.
         23    2    1    2    0    0  0.72173697674E+02 -0.11927084778E+02  0.11516374992E+03  0.16376849359E+03  0.90587704522E+02 0.  0.
        -13    1    3    3    0    0 -0.47055667780E+02  0.41049395442E+01  0.85694563335E+02  0.97850112846E+02  0.00000000000E+00 0.  1.
         14    1    3    3    0    0  0.94916531313E+01 -0.44342437056E+02  0.29306867427E+02  0.53992922514E+02  0.00000000000E+00 0. -1.
        -13    1    4    4    0    0 -0.17865717654E+02 -0.99353739265E+01  0.45590353451E+02  0.49963745357E+02  0.00000000000E+00 0.  1.
         13    1    4    4    0    0  0.90039415327E+02 -0.19917108515E+01  0.69573396474E+02  0.11380474824E+03  0.00000000000E+00 0. -1.
          1    1    1    2  501    0 -0.34609683025E+02  0.52164582290E+02  0.11186527499E+03  0.12819053613E+03  0.00000000000E+00 0. -1.
<scales pt_clust_5="13000.00000" pt_clust_6="13000.00000" pt_clust_7="13000.00000" pt_clust_8="13000.00000" pt_clust_9="62.60174"></scales>
<clustering>
<clus scale="   62.602">  2  9  1 -1</clus>
<clus scale="   82.467">  5  6 -1 -1</clus>
<clus scale="   90.588">  7  8 -1 -1</clus>
<clus scale="   99.351">  1  5  2 -1</clus>
<clus scale="   62.602">  2  5  1 -1</clus>
</clustering>
</event>
<event>
 9    2  0.4883225E-005  0.3720877E+03  0.7546771E-02  0.1054131E+00
         21   -1    0    0  501  502  0.00000000000E+00  0.00000000000E+00  0.79434536471E+03  0.79434536471E+03  0.00000000000E+00 0. -1.
          2   -1    0    0  502    0 -0.00000000000E+00 -0.00000000000E+00 -0.83541307039E+03  0.83541307039E+03  0.00000000000E+00 0. -1.
         23    2    1    2    0    0  0.35313558148E+03  0.82926934728E+02 -0.68323937774E+03  0.77896554165E+03  0.91595045603E+02 0.  0.
         24    2    1    2    0    0 -0.34885498106E+03 -0.29375269911E+02  0.21188843115E+03  0.41716889531E+03  0.81058470687E+02 0.  0.
        -13    1    4    4    0    0 -0.33192991706E+03 -0.43978151960E+02  0.20880703030E+03  0.39460350174E+03  0.00000000000E+00 0.  1.
         14    1    4    4    0    0 -0.16925064004E+02  0.14602882050E+02  0.30814008464E+01  0.22565393568E+02  0.00000000000E+00 0. -1.
        -13    1    3    3    0    0  0.99863096667E+02 -0.17748189463E+02 -0.17558147265E+03  0.20277201445E+03  0.00000000000E+00 0.  1.
         13    1    3    3    0    0  0.25327248481E+03  0.10067512419E+03 -0.50765790508E+03  0.57619352720E+03  0.00000000000E+00 0. -1.
          1    1    1    2  501    0 -0.42806004164E+01 -0.53551664818E+02  0.43028324091E+03  0.43362399813E+03  0.00000000000E+00 0. -1.
<scales pt_clust_5="13000.00000" pt_clust_6="13000.00000" pt_clust_7="13000.00000" pt_clust_8="13000.00000" pt_clust_9="53.72248"></scales>
<clustering>
<clus scale="   53.722">  1  9  2 -1</clus>
<clus scale="   81.058">  5  6 -1 -1</clus>
<clus scale="   91.595">  7  8 -1 -1</clus>
<clus scale="  369.635">  1  5  2 -1</clus>
<clus scale="   53.722">  1  5  2 -1</clus>
</clustering>
</event>
<event>
 9    2  0.4883225E-005  0.1113984E+03  0.7546771E-02  0.1269249E+00
          2   -1    0    0  502    0 -0.00000000000E+00  0.00000000000E+00  0.41409168895E+03  0.41409168895E+03  0.00000000000E+00 0. -1.
         21   -1    0    0  501  502  0.00000000000E+00 -0.00000000000E+00 -0.57290137126E+02  0.57290137126E+02  0.00000000000E+00 0.  1.
         23    2    1    2    0    0 -0.19670832894E+02  0.28745819112E+02  0.32568605158E+03  0.34419077633E+03  0.10574791974E+03 0.  0.
         24    2    1    2    0    0  0.23299689559E+01 -0.39771342433E+02  0.45497956643E+02  0.10210872970E+03  0.82273569196E+02 0.  0.
        -13    1    4    4    0    0  0.40705557161E+02 -0.98383009255E+01  0.28063320137E+02  0.50411154380E+02  0.00000000000E+00 0.  1.
         14    1    4    4    0    0 -0.38375588205E+02 -0.29933041507E+02  0.17434636506E+02  0.51697575320E+02  0.00000000000E+00 0. -1.
        -11    1    3    3    0    0  0.25482771641E+02  0.53918825564E+02  0.17571324756E+03  0.18555796068E+03  0.00000000000E+00 0.  1.
         11    1    3    3    0    0 -0.45153604535E+02 -0.25173006452E+02  0.14997280402E+03  0.15863281565E+03  0.00000000000E+00 0. -1.
          1    1    1    2  501    0  0.17340863938E+02  0.11025523321E+02 -0.14382456404E+02  0.25082320045E+02  0.00000000000E+00 0. -1.
<scales pt_clust_5="13000.00000" pt_clust_6="13000.00000" pt_clust_7="13000.00000" pt_clust_8="13000.00000" pt_clust_9="20.54915"></scales>
<clustering>
<clus scale="   20.549">  2  9  1 -1</clus>
<clus scale="   82.274">  5  6 -1 -1</clus>
<clus scale="   89.420">  2  5  1 -1</clus>
<clus scale="  105.748">  7  8 -1 -1</clus>
<clus scale="   20.549">  2  5  1 -1</clus>
</clustering>
</event>
<event>
 9    2  0.4883225E-005  0.8945703E+02  0.7546771E-02  0.1306899E+00
         21   -1    0    0  501  502  0.00000000000E+00  0.00000000000E+00  0.25567628338E+03  0.25567628338E+03  0.00000000000E+00 0.  1.
          2   -1    0    0  502    0 -0.00000000000E+00 -0.00000000000E+00 -0.18258715402E+03  0.18258715402E+03  0.00000000000E+00 0. -1.
         24    2    1    2    0    0  0.14392181866E+02 -0.76870380777E+01 -0.15740781150E+03  0.17891839730E+03  0.83476633352E+02 0.  0.
         23    2    1    2    0    0 -0.28855939445E+02 -0.11624708614E+02  0.16472652384E+03  0.18928869422E+03  0.87906672162E+02 0.  0.
        -11    1    3    3    0    0 -0.98914019255E+01 -0.41762225757E+02 -0.72239225018E+02  0.84026358742E+02  0.00000000000E+00 0.  1.
         12    1    3    3    0    0  0.24283583792E+02  0.34075187680E+02 -0.85168586487E+02  0.94892038556E+02  0.00000000000E+00 0. -1.
        -13    1    4    4    0    0 -0.30357988435E+02  0.16885234244E+02  0.16717171129E+02  0.38551036405E+02  0.00000000000E+00 0. -1.
         13    1    4    4    0    0  0.15020489900E+01 -0.28509942859E+02  0.14800935271E+03  0.15073765781E+03  0.00000000000E+00 0.  1.
          1    1    1    2  501    0  0.14463757579E+02  0.19311746692E+02  0.65770417017E+02  0.70056345881E+02  0.00000000000E+00 0. -1.
<scales pt_clust_5="13000.00000" pt_clust_6="13000.00000" pt_clust_7="13000.00000" pt_clust_8="13000.00000" pt_clust_9="24.12766"></scales>
<clustering>
<clus scale="   24.128">  1  9  2 -1</clus>
<clus scale="   83.477">  5  6 -1 -1</clus>
<clus scale="   85.108">  2  5  1 -1</clus>
<clus scale="   87.907">  7  8 -1 -1</clus>
<clus scale="   24.128">  1  5  2 -1</clus>
</clustering>
</event>
<event>
 9    2  0.4883225E-005  0.1033982E+03  0.7546771E-02  0.1277849E+00
          2   -1    0    0  502    0 -0.00000000000E+00  0.00000000000E+00  0.66070793407E+03  0.66070793407E+03  0.00000000000E+00 0. -1.
         21   -1    0    0  501  502  0.00000000000E+00 -0.00000000000E+00 -0.28643110705E+02  0.28643110705E+02  0.00000000000E+00 0. -1.
         24    2    1    2    0    0  0.44111442536E+02 -0.24495740979E+02  0.40772802316E+03  0.41894746421E+03  0.82030337162E+02 0.  0.
         23    2    1    2    0    0 -0.11022768546E+02  0.50108413043E+02  0.13027374695E+03  0.16745346009E+03  0.91853457571E+02 0.  0.
        -13    1    3    3    0    0 -0.13483531720E+02 -0.22787516651E+02  0.49706462153E+02  0.56318814996E+02  0.00000000000E+00 0.  1.
         14    1    3    3    0    0  0.57594974257E+02 -0.17082243282E+01  0.35802156100E+03  0.36262864922E+03  0.00000000000E+00 0. -1.
        -11    1    4    4    0    0  0.31611066890E+02  0.50550087845E+01  0.84511378999E+02  0.90371377350E+02  0.00000000000E+00 0.  1.
         11    1    4    4    0    0 -0.42633835436E+02  0.45053404259E+02  0.45762367953E+02  0.77082082743E+02  0.00000000000E+00 0. -1.
          1    1    1    2  501    0 -0.33088673990E+02 -0.25612672064E+02  0.94063053252E+02  0.10295012047E+03  0.00000000000E+00 0. -1.
<scales pt_clust_5="13000.00000" pt_clust_6="13000.00000" pt_clust_7="13000.00000" pt_clust_8="13000.00000" pt_clust_9="41.84339"></scales>
<clustering>
<clus scale="   41.843">  2  9  1 -1</clus>
<clus scale="   82.030">  5  6 -1 -1</clus>
<clus scale="   91.853">  7  8 -1 -1</clus>
<clus scale="   94.779">  1  5  2 -1</clus>
<clus scale="   41.843">  2  5  1 -1</clus>
</clustering>
</event>
<event>
 9    2  0.4883225E-005  0.1096487E+03  0.7546771E-02  0.1263699E+00
          2   -1    0    0  502    0 -0.00000000000E+00  0.00000000000E+00  0.42766146344E+03  0.42766146344E+03  0.00000000000E+00 0. -1.
         21   -1    0    0  501  502  0.00000000000E+00 -0.00000000000E+00 -0.38654376500E+02  0.38654376500E+02  0.00000000000E+00 0.  1.
         24    2    1    2    0    0  0.52936078105E+02 -0.14164989885E+02  0.16562217197E+03  0.19318950706E+03  0.82997629415E+02 0.  0.
         23    2    1    2    0    0 -0.59369655512E+02  0.49220438592E+02  0.19312205715E+03  0.22637041383E+03  0.89442874110E+02 0.  0.
        -11    1    3    3    0    0  0.45076482680E+02 -0.32129164121E+01  0.24461341730E+02  0.51386470611E+02  0.00000000000E+00 0.  1.
         12    1    3    3    0    0  0.78595954255E+01 -0.10952073473E+02  0.14116083024E+03  0.14180303645E+03  0.00000000000E+00 0. -1.
        -13    1    4    4    0    0 -0.50694647839E+02  0.10636510417E+02  0.32954669634E+02  0.61392938715E+02  0.00000000000E+00 0.  1.
         13    1    4    4    0    0 -0.86750076727E+01  0.38583928175E+02  0.16016738752E+03  0.16497747512E+03  0.00000000000E+00 0. -1.
          1    1    1    2  501    0  0.64335774070E+01 -0.35055448707E+02  0.30262857820E+02  0.46755919045E+02  0.00000000000E+00 0. -1.
<scales pt_clust_5="13000.00000" pt_clust_6="13000.00000" pt_clust_7="13000.00000" pt_clust_8="13000.00000" pt_clust_9="35.64092"></scales>
<clustering>
<clus scale="   35.641">  2  9  1 -1</clus>
<clus scale="   82.998">  5  6 -1 -1</clus>
<clus scale="   89.443">  7  8 -1 -1</clus>
<clus scale="  104.458">  1  5  2 -1</clus>
<clus scale="   35.641">  2  5  1 -1</clus>
</clustering>
</event>
<event>
 9    2  0.4883225E-005  0.9063175E+02  0.7546771E-02  0.1306339E+00
          2   -1    0    0  502    0 -0.00000000000E+00  0.00000000000E+00  0.50043701396E+03  0.50043701396E+03  0.00000000000E+00 0. -1.
         21   -1    0    0  501  502  0.00000000000E+00 -0.00000000000E+00 -0.81267678902E+02  0.81267678902E+02  0.00000000000E+00 0. -1.
         24    2    1    2    0    0  0.26758572583E+02 -0.83520634350E-01  0.42900560591E+03  0.43687909069E+03  0.78112110450E+02 0.  0.
         23    2    1    2    0    0 -0.30455118174E+02 -0.41949783735E+02 -0.16298133943E+02  0.10213814733E+03  0.86482792463E+02 0.  0.
        -13    1    3    3    0    0  0.17163301817E+02  0.14251555895E+02  0.29422575752E+02  0.36923891162E+02  0.00000000000E+00 0.  1.
         14    1    3    3    0    0  0.95952707664E+01 -0.14335076530E+02  0.39958303016E+03  0.39995519953E+03  0.00000000000E+00 0. -1.
        -13    1    4    4    0    0  0.20558917706E+02  0.13612149526E+02  0.12720780327E+01  0.24689631315E+02  0.00000000000E+00 0.  1.
         13    1    4    4    0    0 -0.51014035880E+02 -0.55561933261E+02 -0.17570211976E+02  0.77448516018E+02  0.00000000000E+00 0. -1.
          1    1    1    2  501    0  0.36965455913E+01  0.42033304369E+02  0.64618630872E+01  0.42687454832E+02  0.00000000000E+00 0. -1.
<scales pt_clust_5="13000.00000" pt_clust_6="13000.00000" pt_clust_7="13000.00000" pt_clust_8="13000.00000" pt_clust_9="42.19553"></scales>
<clustering>
<clus scale="   42.196">  2  9  1 -1</clus>
<clus scale="   78.112">  5  6 -1 -1</clus>
<clus scale="   82.682">  1  5  2 -1</clus>
<clus scale="   86.483">  7  8 -1 -1</clus>
<clus scale="   42.196">  2  5  1 -1</clus>
</clustering>
</event>
<event>
 9    2  0.4883225E-005  0.9713757E+02  0.7546771E-02  0.1290857E+00
          2   -1    0    0  502    0 -0.00000000000E+00  0.00000000000E+00  0.16524930826E+03  0.16524930826E+03  0.00000000000E+00 0. -1.
         21   -1    0    0  501  502  0.00000000000E+00 -0.00000000000E+00 -0.86430477895E+02  0.86430477895E+02  0.00000000000E+00 0. -1.
         24    2    1    2    0    0 -0.34316777180E+02  0.17668283490E+02  0.39678235410E+02  0.10149401239E+03  0.85069752255E+02 0.  0.
         23    2    1    2    0    0  0.49172797063E+00 -0.16686777400E+02 -0.47407093741E+01  0.94772181767E+02  0.93169747103E+02 0.  0.
        -13    1    3    3    0    0  0.19929327477E+02  0.31026468223E+02  0.21794261195E+02  0.42834678067E+02  0.00000000000E+00 0.  1.
         14    1    3    3    0    0 -0.54246104656E+02 -0.13358184733E+02  0.17883974215E+02  0.58659334325E+02  0.00000000000E+00 0. -1.
        -13    1    4    4    0    0  0.17599412435E+02 -0.35741055423E+02 -0.36461233102E+02  0.54005406027E+02  0.00000000000E+00 0. -1.
         13    1    4    4    0    0 -0.17107684464E+02  0.19054278023E+02  0.31720523728E+02  0.40766775741E+02  0.00000000000E+00 0.  1.
          1    1    1    2  501    0  0.33825049209E+02 -0.98150609033E+00  0.43881304328E+02  0.55413591994E+02  0.00000000000E+00 0. -1.
<scales pt_clust_5="13000.00000" pt_clust_6="13000.00000" pt_clust_7="13000.00000" pt_clust_8="13000.00000" pt_clust_9="33.83930"></scales>
<clustering>
<clus scale="   33.839">  2  9  1 -1</clus>
<clus scale="   85.070">  5  6 -1 -1</clus>
<clus scale="   89.398">  1  5  2 -1</clus>
<clus scale="   93.170">  7  8 -1 -1</clus>
<clus scale="   33.839">  2  5  1 -1</clus>
</clustering>
</event>
<event>
 9    2  0.4883225E-005  0.1059120E+03  0.7546771E-02  0.1273563E+00
          2   -1    0    0  502    0 -0.00000000000E+00  0.00000000000E+00  0.20156302697E+04  0.20156302697E+04  0.00000000000E+00 0. -1.
         21   -1    0    0  501  502  0.00000000000E+00 -0.00000000000E+00 -0.11250635261E+02  0.11250635261E+02  0.00000000000E+00 0.  1.
         24    2    1    2    0    0  0.51788272470E+02  0.19351032146E+02  0.16361446976E+04  0.16390532917E+04  0.80434656769E+02 0.  0.
         23    2    1    2    0    0 -0.33459994558E+02 -0.11321185738E+02  0.33241302437E+03  0.34679575223E+03  0.92309991423E+02 0.  0.
        -11    1    3    3    0    0  0.11507872749E+02 -0.17107960541E+02  0.10843470093E+03  0.11037752404E+03  0.00000000000E+00 0.  1.
         12    1    3    3    0    0  0.40280399721E+02  0.36458992687E+02  0.15277099967E+04  0.15286757677E+04  0.00000000000E+00 0. -1.
        -13    1    4    4    0    0 -0.43783455514E+02  0.30775321248E+02  0.14865317518E+03  0.15799328424E+03  0.00000000000E+00 0.  1.
         13    1    4    4    0    0  0.10323460956E+02 -0.42096506986E+02  0.18375984919E+03  0.18880246799E+03  0.00000000000E+00 0. -1.
          1    1    1    2  501    0 -0.18328277912E+02 -0.80298464081E+01  0.35821912494E+02  0.41031861027E+02  0.00000000000E+00 0. -1.
<scales pt_clust_5="13000.00000" pt_clust_6="13000.00000" pt_clust_7="13000.00000" pt_clust_8="13000.00000" pt_clust_9="20.01010"></scales>
<clustering>
<clus scale="   20.010">  2  9  1 -1</clus>
<clus scale="   80.435">  5  6 -1 -1</clus>
<clus scale="   92.310">  7  8 -1 -1</clus>
<clus scale="   95.739">  1  5  2 -1</clus>
<clus scale="   20.010">  2  5  1 -1</clus>
</clustering>
</event>
<event>
 9    2  0.4883225E-005  0.1445787E+03  0.7546771E-02  0.1226944E+00
         21   -1    0    0  501  502  0.00000000000E+00  0.00000000000E+00  0.11332837451E+03  0.11332837451E+03  0.00000000000E+00 0. -1.
          2   -1    0    0  502    0 -0.00000000000E+00 -0.00000000000E+00 -0.43892118431E+03  0.43892118431E+03  0.00000000000E+00 0. -1.
         23    2    1    2    0    0 -0.63571197465E+01 -0.24557157766E+02 -0.18157219275E+03  0.20516234835E+03  0.92085074962E+02 0.  0.
         24    2    1    2    0    0  0.10495362286E+03  0.89671182220E+02 -0.16322242932E+03  0.22738000016E+03  0.77484960914E+02 0.  0.
        -13    1    4    4    0    0  0.36981591830E+02  0.50360559556E+02 -0.22829489762E+02  0.66520746357E+02  0.00000000000E+00 0.  1.
         14    1    4    4    0    0  0.67972031026E+02  0.39310622664E+02 -0.14039293956E+03  0.16085925380E+03  0.00000000000E+00 0. -1.
        -11    1    3    3    0    0  0.32711890217E+02  0.95090452969E+01 -0.11966562975E+03  0.12442006529E+03  0.00000000000E+00 0.  1.
         11    1    3    3    0    0 -0.39069009963E+02 -0.34066203063E+02 -0.61906563004E+02  0.80742283060E+02  0.00000000000E+00 0. -1.
          1    1    1    2  501    0 -0.98596503109E+02 -0.65114024453E+02  0.19201812276E+02  0.11970721031E+03  0.00000000000E+00 0. -1.
<scales pt_clust_5="13000.00000" pt_clust_6="13000.00000" pt_clust_7="13000.00000" pt_clust_8="13000.00000" pt_clust_9="122.06179"></scales>
<clustering>
<clus scale="   77.485">  5  6 -1 -1</clus>
<clus scale="   92.085">  7  8 -1 -1</clus>
<clus scale="   95.515">  2  7  1 -1</clus>
<clus scale="  122.062">  1  9  2 -1</clus>
<clus scale="  122.062">  1  5  2 -1</clus>
</clustering>
</event>
<event>
 9    2  0.4883225E-005  0.1092548E+03  0.7546771E-02  0.1264103E+00
          4   -1    0    0  502    0 -0.00000000000E+00  0.00000000000E+00  0.11427970873E+03  0.11427970873E+03  0.00000000000E+00 0. -1.
         21   -1    0    0  501  502  0.00000000000E+00 -0.00000000000E+00 -0.32746615531E+03  0.32746615531E+03  0.00000000000E+00 0. -1.
         24    2    1    2    0    0 -0.15361629799E+02  0.62524764538E+02  0.24984435989E+02  0.11068428769E+03  0.86495454506E+02 0.  0.
         23    2    1    2    0    0  0.37779253936E+02 -0.40950309873E+02 -0.18305269624E+02  0.10900551423E+03  0.91885359709E+02 0.  0.
        -11    1    3    3    0    0 -0.27054463457E+02  0.89916113982E+00 -0.19863486224E+02  0.33575445919E+02  0.00000000000E+00 0.  1.
         12    1    3    3    0    0  0.11692833658E+02  0.61625603399E+02  0.44847922213E+02  0.77108841776E+02  0.00000000000E+00 0. -1.
        -13    1    4    4    0    0  0.30584896384E+02 -0.18216682078E+02  0.35425127822E+02  0.50221739058E+02  0.00000000000E+00 0. -1.
         13    1    4    4    0    0  0.71943575520E+01 -0.22733627795E+02 -0.53730397446E+02  0.58783775168E+02  0.00000000000E+00 0.  1.
          3    1    1    2  501    0 -0.22417624137E+02 -0.21574454665E+02 -0.21986561295E+03  0.22205606212E+03  0.00000000000E+00 0. -1.
<scales pt_clust_5="13000.00000" pt_clust_6="13000.00000" pt_clust_7="13000.00000" pt_clust_8="13000.00000" pt_clust_9="31.11281"></scales>
<clustering>
<clus scale="   31.113">  2  9  1 -1</clus>
<clus scale="   86.495">  5  6 -1 -1</clus>
<clus scale="   91.885">  7  8 -1 -1</clus>
<clus scale="  104.762">  1  5  2 -1</clus>
<clus scale="   31.113">  2  5  1 -1</clus>
</clustering>
</event>
<event>
 9    2  0.4883225E-005  0.1320835E+03  0.7546771E-02  0.1225577E+00
          2   -1    0    0  502    0 -0.00000000000E+00  0.00000000000E+00  0.51193573903E+03  0.51193573903E+03  0.00000000000E+00 0. -1.
         21   -1    0    0  501  502  0.00000000000E+00 -0.00000000000E+00 -0.57493696067E+02  0.57493696067E+02  0.00000000000E+00 0. -1.
         23    2    1    2    0    0  0.92541717630E+02  0.59639483223E+02  0.33487192921E+03  0.36290101181E+03  0.86238610502E+02 0.  0.
         24    2    1    2    0    0 -0.59443068267E+02 -0.40380522347E+02  0.35464380792E+02  0.11411520734E+03  0.81243419991E+02 0.  0.
        -13    1    4    4    0    0  0.18105928815E+02 -0.15958685311E+02  0.20020063883E+02  0.31357730355E+02  0.00000000000E+00 0.  1.
         14    1    4    4    0    0 -0.77548997082E+02 -0.24421837036E+02  0.15444316909E+02  0.82757476988E+02  0.00000000000E+00 0. -1.
        -13    1    3    3    0    0  0.88997235195E+02  0.19809890432E+02  0.28350143267E+03  0.29780195089E+03  0.00000000000E+00 0. -1.
         13    1    3    3    0    0  0.35444824346E+01  0.39829592791E+02  0.51370496542E+02  0.65099060920E+02  0.00000000000E+00 0.  1.
          1    1    1    2  501    0 -0.33098649363E+02 -0.19258960876E+02  0.84105732965E+02  0.92413215945E+02  0.00000000000E+00 0. -1.
<scales pt_clust_5="13000.00000" pt_clust_6="13000.00000" pt_clust_7="13000.00000" pt_clust_8="13000.00000" pt_clust_9="38.29399"></scales>
<clustering>
<clus scale="   38.294">  2  9  1 -1</clus>
<clus scale="   81.243">  5  6 -1 -1</clus>
<clus scale="   86.239">  7  8 -1 -1</clus>
<clus scale="  128.878">  2  5  1 -1</clus>
<clus scale="   38.294">  2  5  1 -1</clus>
</clustering>
</event>
<event>
 9    2  0.4883225E-005  0.3233453E+03  0.7546771E-02  0.1107031E+00
         21   -1    0    0  501  502  0.00000000000E+00  0.00000000000E+00  0.52412149867E+03  0.52412149867E+03  0.00000000000E+00 0. -1.
          2   -1    0    0  502    0 -0.00000000000E+00 -0.00000000000E+00 -0.40060212451E+03  0.40060212451E+03  0.00000000000E+00 0. -1.
         23    2    1    2    0    0 -0.48228215338E+02  0.87470936013E+02  0.20144678190E+03  0.24281254668E+03  0.91651522002E+02 0.  0.
         24    2    1    2    0    0  0.20674985353E+03 -0.31785262729E+03 -0.10305077456E+03  0.40113355424E+03  0.80702364237E+02 0.  0.
        -11    1    4    4    0    0  0.10762660871E+03 -0.10578149055E+03 -0.63495953290E+02  0.16372216322E+03  0.00000000000E+00 0.  1.
         12    1    4    4    0    0  0.99123244815E+02 -0.21207113674E+03 -0.39554821269E+02  0.23741139102E+03  0.00000000000E+00 0. -1.
        -13    1    3    3    0    0 -0.10897806736E+02  0.96112373523E+02  0.13440293891E+03  0.16559136609E+03  0.00000000000E+00 0.  1.
         13    1    3    3    0    0 -0.37330408602E+02 -0.86414375108E+01  0.67043842989E+02  0.77221180588E+02  0.00000000000E+00 0. -1.
          1    1    1    2  501    0 -0.15852163819E+03  0.23038169128E+03  0.25123366813E+02  0.28077752226E+03  0.00000000000E+00 0. -1.
<scales pt_clust_5="13000.00000" pt_clust_6="13000.00000" pt_clust_7="13000.00000" pt_clust_8="13000.00000" pt_clust_9="313.11229"></scales>
<clustering>
<clus scale="   80.702">  5  6 -1 -1</clus>
<clus scale="   91.652">  7  8 -1 -1</clus>
<clus scale="  135.562">  2  7  1 -1</clus>
<clus scale="  313.112">  1  9  2 -1</clus>
<clus scale="  313.112">  1  5  2 -1</clus>
</clustering>
</event>
<event>
 9    2  0.4883225E-005  0.9149239E+02  0.7546771E-02  0.1304891E+00
         21   -1    0    0  501  502  0.00000000000E+00  0.00000000000E+00  0.39255311105E+02  0.39255311105E+02  0.00000000000E+00 0. -1.
          2   -1    0    0  502    0 -0.00000000000E+00 -0.00000000000E+00 -0.80208070522E+03  0.80208070522E+03  0.00000000000E+00 0. -1.
         24    2    1    2    0    0  0.16830327926E+02  0.16305801724E+02 -0.66125484342E+03  0.66639559458E+03  0.79221092051E+02 0.  0.
         23    2    1    2    0    0  0.18941437988E+01 -0.30054154908E+02 -0.11491468830E+03  0.14815070235E+03  0.88523471536E+02 0.  0.
        -11    1    3    3    0    0 -0.12329147052E+02  0.24903981905E+02 -0.86862057041E+02  0.91198865866E+02  0.00000000000E+00 0.  1.
         12    1    3    3    0    0  0.29159474978E+02 -0.85981801808E+01 -0.57439278638E+03  0.57519672872E+03  0.00000000000E+00 0. -1.
        -11    1    4    4    0    0 -0.16605686438E+02 -0.57186303453E+02 -0.84617825657E+02  0.10347076178E+03  0.00000000000E+00 0. -1.
         11    1    4    4    0    0  0.18499830237E+02  0.27132148546E+02 -0.30296862645E+02  0.44679940573E+02  0.00000000000E+00 0.  1.
          1    1    1    2  501    0 -0.18724471725E+02  0.13748353184E+02  0.13344137604E+02  0.26789719390E+02  0.00000000000E+00 0. -1.
<scales pt_clust_5="13000.00000" pt_clust_6="13000.00000" pt_clust_7="13000.00000" pt_clust_8="13000.00000" pt_clust_9="23.22979"></scales>
<clustering>
<clus scale="   23.230">  1  9  2 -1</clus>
<clus scale="   79.221">  5  6 -1 -1</clus>
<clus scale="   82.525">  2  5  1 -1</clus>
<clus scale="   88.523">  7  8 -1 -1</clus>
<clus scale="   23.230">  1  5  2 -1</clus>
</clustering>
</event>
<event>
 9    2  0.4883225E-005  0.1742126E+03  0.7546771E-02  0.1174905E+00
         -3   -1    0    0    0  501 -0.00000000000E+00  0.00000000000E+00  0.92491694933E+03  0.92491694933E+03  0.00000000000E+00 0.  1.
         21   -1    0    0  501  502  0.00000000000E+00 -0.00000000000E+00 -0.45310603967E+02  0.45310603967E+02  0.00000000000E+00 0. -1.
         23    2    1    2    0    0 -0.12479027208E+03  0.53526545976E+02  0.44953323251E+03  0.47859750295E+03  0.92399889440E+02 0.  0.
         24    2    1    2    0    0  0.13884281444E+03 -0.89647191875E+02  0.40622309340E+03  0.44612182653E+03  0.81814035244E+02 0.  0.
        -13    1    4    4    0    0  0.79796207428E+02 -0.14338128373E+02  0.25101189079E+03  0.26378018493E+03  0.00000000000E+00 0.  1.
         14    1    4    4    0    0  0.59046607016E+02 -0.75309063502E+02  0.15521120261E+03  0.18234164160E+03  0.00000000000E+00 0. -1.
        -11    1    3    3    0    0 -0.94346577304E+02  0.59932839331E+02  0.42359198763E+03  0.43809062288E+03  0.00000000000E+00 0.  1.
         11    1    3    3    0    0 -0.30443694780E+02 -0.64062933542E+01  0.25941244881E+02  0.40506880062E+02  0.00000000000E+00 0. -1.
         -4    1    1    2    0  502 -0.14052542360E+02  0.36120645899E+02  0.23850019455E+02  0.45508223816E+02  0.00000000000E+00 0.  1.
<scales pt_clust_5="13000.00000" pt_clust_6="13000.00000" pt_clust_7="13000.00000" pt_clust_8="13000.00000" pt_clust_9="38.75790"></scales>
<clustering>
<clus scale="   38.758">  2  9  1 -1</clus>
<clus scale="   81.814">  5  6 -1 -1</clus>
<clus scale="   92.400">  7  8 -1 -1</clus>
<clus scale="  168.837">  2  5  1 -1</clus>
<clus scale="   38.758">  2  5  1 -1</clus>
</clustering>
</event>
<event>
 9    2  0.6540595E-005  0.1983696E+03  0.7546771E-02  0.1176293E+00
         21   -1    0    0  501  502  0.00000000000E+00  0.00000000000E+00  0.67279344802E+03  0.67279344802E+03  0.00000000000E+00 0. -1.
          2   -1    0    0  502    0 -0.00000000000E+00 -0.00000000000E+00 -0.81516855707E+03  0.81516855707E+03  0.00000000000E+00 0. -1.
         24    2    1    2    0    0  0.74587752029E+02 -0.11541963934E+02 -0.63622464016E+03  0.64580431434E+03  0.81147211866E+02 0.  0.
         23    2    1    2    0    0  0.10644595536E+03  0.11151238915E+02 -0.13029786238E+03  0.19228591519E+03  0.92418876315E+02 0.  0.
        -13    1    3    3    0    0 -0.11693855276E+01  0.25909174901E+02 -0.12795225759E+03  0.13055432979E+03  0.00000000000E+00 0.  1.
         14    1    3    3    0    0  0.75757137557E+02 -0.37451138835E+02 -0.50827238257E+03  0.51524998455E+03  0.00000000000E+00 0. -1.
        -11    1    4    4    0    0  0.52511826007E+01  0.28530595614E+02 -0.63447274810E+02  0.69764794027E+02  0.00000000000E+00 0.  1.
         11    1    4    4    0    0  0.10119477276E+03 -0.17379356699E+02 -0.66850587566E+02  0.12252112117E+03  0.00000000000E+00 0. -1.
          1    1    1    2  501    0 -0.18103370739E+03  0.39072501964E+00  0.62414739348E+03  0.64987177556E+03  0.00000000000E+00 0. -1.
<scales pt_clust_5="13000.00000" pt_clust_6="13000.00000" pt_clust_7="13000.00000" pt_clust_8="13000.00000" pt_clust_9="175.52562"></scales>
<clustering>
<clus scale="   81.147">  5  6 -1 -1</clus>
<clus scale="   92.419">  7  8 -1 -1</clus>
<clus scale="  110.822">  2  5  1 -1</clus>
<clus scale="  175.526">  1  9  2 -1</clus>
<clus scale="  175.526">  1  5  2 -1</clus>
</clustering>
</event>
<event>
 9    2  0.4883225E-005  0.1057880E+03  0.7546771E-02  0.1270522E+00
          2   -1    0    0  502    0 -0.00000000000E+00  0.00000000000E+00  0.47169027778E+03  0.47169027778E+03  0.00000000000E+00 0. -1.
         21   -1    0    0  501  502  0.00000000000E+00 -0.00000000000E+00 -0.33979325418E+02  0.33979325418E+02  0.00000000000E+00 0. -1.
         23    2    1    2    0    0  0.11342112652E+02 -0.49362606533E+02  0.21429944773E+03  0.23727701171E+03  0.88378824088E+02 0.  0.
         24    2    1    2    0    0  0.17033963443E+02  0.69166915842E+02  0.19410691147E+03  0.22304756373E+03  0.83657064540E+02 0.  0.
        -11    1    4    4    0    0 -0.24532328905E+02  0.37176302194E+02  0.14314897407E+03  0.14991844911E+03  0.00000000000E+00 0.  1.
         12    1    4    4    0    0  0.41566292348E+02  0.31990613648E+02  0.50957937408E+02  0.73129114626E+02  0.00000000000E+00 0. -1.
        -13    1    3    3    0    0  0.40760543289E+02 -0.57090650665E+02  0.16579802464E+03  0.18002707923E+03  0.00000000000E+00 0. -1.
         13    1    3    3    0    0 -0.29418430637E+02  0.77280441324E+01  0.48501423088E+02  0.57249932479E+02  0.00000000000E+00 0.  1.
          1    1    1    2  501    0 -0.28376076095E+02 -0.19804309309E+02  0.29304593162E+02  0.45345027755E+02  0.00000000000E+00 0. -1.
<scales pt_clust_5="13000.00000" pt_clust_6="13000.00000" pt_clust_7="13000.00000" pt_clust_8="13000.00000" pt_clust_9="34.60365"></scales>
<clustering>
<clus scale="   34.604">  2  9  1 -1</clus>
<clus scale="   83.657">  5  6 -1 -1</clus>
<clus scale="   88.379">  7  8 -1 -1</clus>
<clus scale="  101.876">  2  5  1 -1</clus>
<clus scale="   34.604">  2  5  1 -1</clus>
</clustering>
</event>
<event>
 9    2  0.4883225E-005  0.4763072E+03  0.7546771E-02  0.1020155E+00
         21   -1    0    0  501  502  0.00000000000E+00  0.00000000000E+00  0.26501399431E+03  0.26501399431E+03  0.00000000000E+00 0. -1.
          2   -1    0    0  502    0 -0.00000000000E+00 -0.00000000000E+00 -0.80912989107E+03  0.80912989107E+03  0.00000000000E+00 0. -1.
         24    2    1    2    0    0 -0.10613396126E+03 -0.45858728253E+02 -0.16306175880E+03  0.21566368674E+03  0.80958309679E+02 0.  0.
         23    2    1    2    0    0 -0.31328841316E+03 -0.45367536970E+02 -0.23501146734E+03  0.40508652724E+03  0.93042256700E+02 0.  0.
        -11    1    3    3    0    0 -0.54632163611E+02  0.38936472665E+01 -0.12049536447E+03  0.13235923334E+03  0.00000000000E+00 0.  1.
         12    1    3    3    0    0 -0.51501797649E+02 -0.49752375519E+02 -0.42566394323E+02  0.83304453401E+02  0.00000000000E+00 0. -1.
        -13    1    4    4    0    0 -0.18532490622E+02 -0.17187279147E+02 -0.49759291614E+02  0.55810777409E+02  0.00000000000E+00 0.  1.
         13    1    4    4    0    0 -0.29475592254E+03 -0.28180257823E+02 -0.18525217573E+03  0.34927574983E+03  0.00000000000E+00 0. -1.
          1    1    1    2  501    0  0.41942237442E+03  0.91226265222E+02 -0.14604267062E+03  0.45339367141E+03  0.00000000000E+00 0. -1.
<scales pt_clust_5="13000.00000" pt_clust_6="13000.00000" pt_clust_7="13000.00000" pt_clust_8="13000.00000" pt_clust_9="429.22880"></scales>
<clustering>
<clus scale="   80.958">  5  6 -1 -1</clus>
<clus scale="   93.042">  7  8 -1 -1</clus>
<clus scale="  108.787">  5  7 -1 -1</clus>
<clus scale="  429.229">  1  9  2 -1</clus>
<clus scale="  429.229">  1  5  2 -1</clus>
</clustering>
</event>
<event>
 9    2  0.4883225E-005  0.9733369E+02  0.7546771E-02  0.1287303E+00
          4   -1    0    0  502    0 -0.00000000000E+00  0.00000000000E+00  0.33665099066E+03  0.33665099066E+03  0.00000000000E+00 0. -1.
         21   -1    0    0  501  502  0.00000000000E+00 -0.00000000000E+00 -0.29833090966E+03  0.29833090966E+03  0.00000000000E+00 0. -1.
         24    2    1    2    0    0 -0.57053698762E+02  0.39073885612E+01  0.27395439983E+03  0.29099260853E+03  0.79720090338E+02 0.  0.
         23    2    1    2    0    0  0.25736173764E+02 -0.19233197169E+02  0.15979014360E+02  0.89971699443E+02  0.82506431795E+02 0.  0.
        -11    1    3    3    0    0  0.16556326848E+02 -0.14699043876E+02  0.58213649940E+02  0.62281641669E+02  0.00000000000E+00 0.  1.
         12    1    3    3    0    0 -0.73610025610E+02  0.18606432437E+02  0.21574074989E+03  0.22871096686E+03  0.00000000000E+00 0. -1.
        -11    1    4    4    0    0 -0.14078790437E+02 -0.39130913564E+02  0.18225447002E+02  0.45404929853E+02  0.00000000000E+00 0.  1.
         11    1    4    4    0    0  0.39814964202E+02  0.19897716395E+02 -0.22464326421E+01  0.44566769591E+02  0.00000000000E+00 0. -1.
          3    1    1    2  501    0  0.31317524998E+02  0.15325808608E+02 -0.25161333319E+03  0.25401759235E+03  0.00000000000E+00 0. -1.
<scales pt_clust_5="13000.00000" pt_clust_6="13000.00000" pt_clust_7="13000.00000" pt_clust_8="13000.00000" pt_clust_9="34.86643"></scales>
<clustering>
<clus scale="   34.866">  2  9  1 -1</clus>
<clus scale="   79.720">  5  6 -1 -1</clus>
<clus scale="   82.506">  7  8 -1 -1</clus>
<clus scale="   94.983">  1  5  2 -1</clus>
<clus scale="   34.866">  2  5  1 -1</clus>
</clustering>
</event>
<event>
 9    2  0.4883225E-005  0.9273739E+02  0.7546771E-02  0.1303347E+00
         21   -1    0    0  501  502  0.00000000000E+00  0.00000000000E+00  0.16815743557E+03  0.16815743557E+03  0.00000000000E+00 0. -1.
          2   -1    0    0  502    0 -0.00000000000E+00 -0.00000000000E+00 -0.54533185727E+03  0.54533185727E+03  0.00000000000E+00 0. -1.
         24    2    1    2    0    0  0.45685531543E+01  0.15672856544E+02 -0.51237117912E+03  0.51879921973E+03  0.79761488766E+02 0.  0.
         23    2    1    2    0    0  0.20699486356E+02 -0.39956044490E+02  0.80367172772E+02  0.12961757209E+03  0.91196920492E+02 0.  0.
        -13    1    3    3    0    0 -0.37749567862E+01  0.37943138529E+02 -0.12470486231E+03  0.13040412088E+03  0.00000000000E+00 0.  1.
         14    1    3    3    0    0  0.83435099406E+01 -0.22270281985E+02 -0.38766631681E+03  0.38839509885E+03  0.00000000000E+00 0. -1.
        -13    1    4    4    0    0 -0.93796367840E+01 -0.53965477349E+02  0.15774814387E+02  0.57000834211E+02  0.00000000000E+00 0. -1.
         13    1    4    4    0    0  0.30079123140E+02  0.14009432859E+02  0.64592358384E+02  0.72616737875E+02  0.00000000000E+00 0.  1.
          1    1    1    2  501    0 -0.25268039510E+02  0.24283187946E+02  0.54829584648E+02  0.65072501029E+02  0.00000000000E+00 0. -1.
<scales pt_clust_5="13000.00000" pt_clust_6="13000.00000" pt_clust_7="13000.00000" pt_clust_8="13000.00000" pt_clust_9="35.04493"></scales>
<clustering>
<clus scale="   35.045">  1  9  2 -1</clus>
<clus scale="   79.761">  5  6 -1 -1</clus>
<clus scale="   81.518">  2  5  1 -1</clus>
<clus scale="   91.197">  7  8 -1 -1</clus>
<clus scale="   35.045">  1  5  2 -1</clus>
</clustering>
</event>
<event>
 9    2  0.4883225E-005  0.9826005E+02  0.7546771E-02  0.1291409E+00
         -1   -1    0    0    0  501 -0.00000000000E+00  0.00000000000E+00  0.27305786983E+02  0.27305786983E+02  0.00000000000E+00 0.  1.
         21   -1    0    0  501  502  0.00000000000E+00 -0.00000000000E+00 -0.61763914409E+03  0.61763914409E+03  0.00000000000E+00 0. -1.
         24    2    1    2    0    0  0.27889832564E+02  0.97008432546E+01 -0.71720741561E+02  0.11159525551E+03  0.80235199018E+02 0.  0.
         23    2    1    2    0    0 -0.18247990761E+02 -0.31548028378E+02 -0.42560160652E+03  0.43732201075E+03  0.93731245306E+02 0.  0.
        -11    1    3    3    0    0 -0.14684846989E+02  0.33590259408E+02 -0.31874097599E+02  0.48578887965E+02  0.00000000000E+00 0.  1.
         12    1    3    3    0    0  0.42574679553E+02 -0.23889416153E+02 -0.39846643962E+02  0.63016367542E+02  0.00000000000E+00 0. -1.
        -11    1    4    4    0    0  0.32307135078E+01  0.28862297202E+02 -0.66849336612E+02  0.72885550797E+02  0.00000000000E+00 0.  1.
         11    1    4    4    0    0 -0.21478704269E+02 -0.60410325580E+02 -0.35875226991E+03  0.36443645995E+03  0.00000000000E+00 0. -1.
         -2    1    1    2    0  502 -0.96418418028E+01  0.21847185123E+02 -0.93011009026E+02  0.96027664822E+02  0.00000000000E+00 0.  1.
<scales pt_clust_5="13000.00000" pt_clust_6="13000.00000" pt_clust_7="13000.00000" pt_clust_8="13000.00000" pt_clust_9="23.88021"></scales>
<clustering>
<clus scale="   23.880">  2  9  1 -1</clus>
<clus scale="   80.235">  5  6 -1 -1</clus>
<clus scale="   85.482">  1  5  2 -1</clus>
<clus scale="   93.731">  7  8 -1 -1</clus>
<clus scale="   23.880">  2  5  1 -1</clus>
</clustering>
</event>
<event>
 9    2  0.4883225E-005  0.9560035E+02  0.7546771E-02  0.1294347E+00
         21   -1    0    0  501  502  0.00000000000E+00  0.00000000000E+00  0.65593044798E+03  0.65593044798E+03  0.00000000000E+00 0. -1.
          4   -1    0    0  502    0 -0.00000000000E+00 -0.00000000000E+00 -0.79687226058E+02  0.79687226058E+02  0.00000000000E+00 0. -1.
         23    2    1    2    0    0  0.10376226181E+01 -0.35364584685E+02  0.19753175144E+01  0.96526693183E+02  0.89787360507E+02 0.  0.
         24    2    1    2    0    0 -0.65661558073E+02 -0.52141249645E+00  0.62278831349E+02  0.12179332113E+03  0.81506123436E+02 0.  0.
        -11    1    4    4    0    0 -0.36656617024E+02  0.23759896399E+02 -0.56452014800E+01  0.44046663305E+02  0.00000000000E+00 0.  1.
         12    1    4    4    0    0 -0.29004941049E+02 -0.24281308895E+02  0.67924032829E+02  0.77746657823E+02  0.00000000000E+00 0. -1.
        -13    1    3    3    0    0  0.15213005553E+02 -0.60426399927E+02  0.16240554814E+02  0.64393640732E+02  0.00000000000E+00 0.  1.
         13    1    3    3    0    0 -0.14175382935E+02  0.25061815242E+02 -0.14265237299E+02  0.32133052451E+02  0.00000000000E+00 0. -1.
          3    1    1    2  501    0  0.64623935455E+02  0.35885997181E+02  0.51198907306E+03  0.51729765973E+03  0.00000000000E+00 0. -1.
<scales pt_clust_5="13000.00000" pt_clust_6="13000.00000" pt_clust_7="13000.00000" pt_clust_8="13000.00000" pt_clust_9="73.91927"></scales>
<clustering>
<clus scale="   73.919">  1  9  2 -1</clus>
<clus scale="   81.506">  5  6 -1 -1</clus>
<clus scale="   87.869">  1  5  2 -1</clus>
<clus scale="   89.787">  7  8 -1 -1</clus>
<clus scale="   73.919">  1  5  2 -1</clus>
</clustering>
</event>
<event>
 9    2  0.4883225E-005  0.1270026E+03  0.7546771E-02  0.1246077E+00
         21   -1    0    0  501  502  0.00000000000E+00  0.00000000000E+00  0.39844894410E+02  0.39844894410E+02  0.00000000000E+00 0.  1.
          2   -1    0    0  502    0 -0.00000000000E+00 -0.00000000000E+00 -0.64977894970E+03  0.64977894970E+03  0.00000000000E+00 0. -1.
         24    2    1    2    0    0 -0.79367459508E+01 -0.51231854761E+02 -0.19310372061E+03  0.21535034133E+03  0.79993923017E+02 0.  0.
         23    2    1    2    0    0  0.74653057185E+02 -0.22004404926E+02 -0.18389399823E+03  0.22114517019E+03  0.95031105079E+02 0.  0.
        -11    1    3    3    0    0 -0.38128693234E+02 -0.41491839153E+02 -0.79808370005E+02  0.97697215349E+02  0.00000000000E+00 0.  1.
         12    1    3    3    0    0  0.30191947283E+02 -0.97400156077E+01 -0.11329535061E+03  0.11765312598E+03  0.00000000000E+00 0. -1.
        -13    1    4    4    0    0  0.83461418722E+02  0.10175640332E+02 -0.98736953238E+02  0.12968553507E+03  0.00000000000E+00 0.  1.
         13    1    4    4    0    0 -0.88083615373E+01 -0.32180045258E+02 -0.85157044991E+02  0.91459635126E+02  0.00000000000E+00 0. -1.
          1    1    1    2  501    0 -0.66716311234E+02  0.73236259687E+02 -0.23293633645E+03  0.25312833259E+03  0.00000000000E+00 0. -1.
<scales pt_clust_5="13000.00000" pt_clust_6="13000.00000" pt_clust_7="13000.00000" pt_clust_8="13000.00000" pt_clust_9="84.25414"></scales>
<clustering>
<clus scale="   79.994">  5  6 -1 -1</clus>
<clus scale="   95.031">  7  8 -1 -1</clus>
<clus scale="   95.324">  2  5  1 -1</clus>
<clus scale="   84.254">  1  9  2 -1</clus>
<clus scale="   84.254">  1  5  2 -1</clus>
</clustering>
</event>
<event>
 9    2  0.4883225E-005  0.1124474E+03  0.7546771E-02  0.1266395E+00
          2   -1    0    0  502    0 -0.00000000000E+00  0.00000000000E+00  0.10981980647E+04  0.10981980647E+04  0.00000000000E+00 0. -1.
         21   -1    0    0  501  502  0.00000000000E+00 -0.00000000000E+00 -0.40022012391E+02  0.40022012391E+02  0.00000000000E+00 0.  1.
         24    2    1    2    0    0 -0.59734402010E+02  0.11595193675E+02  0.59553724169E+03  0.60258522345E+03  0.68859988215E+02 0.  0.
         23    2    1    2    0    0 -0.25904651006E+02  0.47664991522E+02  0.68421808982E+02  0.12789368411E+03  0.93446498762E+02 0.  0.
        -11    1    3    3    0    0 -0.35354882872E+02  0.37994093230E+02  0.25999663350E+03  0.26512594799E+03  0.00000000000E+00 0.  1.
         12    1    3    3    0    0 -0.24379519138E+02 -0.26398899556E+02  0.33554060819E+03  0.33745927546E+03  0.00000000000E+00 0. -1.
        -11    1    4    4    0    0  0.22298413928E+02  0.40008001918E+02  0.64255179908E+02  0.78908729722E+02  0.00000000000E+00 0. -1.
         11    1    4    4    0    0 -0.48203064934E+02  0.76569896040E+01  0.41666290740E+01  0.48984954391E+02  0.00000000000E+00 0.  1.
          1    1    1    2  501    0  0.85639053016E+02 -0.59260185197E+02  0.39421700161E+03  0.40774116950E+03  0.00000000000E+00 0. -1.
<scales pt_clust_5="13000.00000" pt_clust_6="13000.00000" pt_clust_7="13000.00000" pt_clust_8="13000.00000" pt_clust_9="62.54745"></scales>
<clustering>
<clus scale="   68.860">  5  6 -1 -1</clus>
<clus scale="   91.893">  1  5  2 -1</clus>
<clus scale="   62.547">  2  9  1 -1</clus>
<clus scale="   93.446">  7  8 -1 -1</clus>
<clus scale="   62.547">  2  5  1 -1</clus>
</clustering>
</event>
<event>
 9    2  0.4883225E-005  0.3667483E+03  0.7546771E-02  0.1055943E+00
         21   -1    0    0  501  502  0.00000000000E+00  0.00000000000E+00  0.19661103667E+04  0.19661103667E+04  0.00000000000E+00 0. -1.
          4   -1    0    0  502    0 -0.00000000000E+00 -0.00000000000E+00 -0.60372494502E+02  0.60372494502E+02  0.00000000000E+00 0. -1.
         24    2    1    2    0    0 -0.20569831334E+02  0.60111783972E+02  0.25777920535E+03  0.27803293075E+03  0.82556933912E+02 0.  0.
         23    2    1    2    0    0 -0.15724220335E+03  0.17788731777E+03  0.10581204257E+04  0.10880183724E+04  0.88295725544E+02 0.  0.
        -11    1    3    3    0    0 -0.42181864799E+02  0.12573400241E+02  0.17257072593E+03  0.17809563599E+03  0.00000000000E+00 0.  1.
         12    1    3    3    0    0  0.21612033465E+02  0.47538383732E+02  0.85208479419E+02  0.99937294757E+02  0.00000000000E+00 0. -1.
        -13    1    4    4    0    0 -0.12979762992E+03  0.14348157027E+03  0.97451958124E+03  0.99354053765E+03  0.00000000000E+00 0. -1.
         13    1    4    4    0    0 -0.27444573421E+02  0.34405747496E+02  0.83600844427E+02  0.94477834755E+02  0.00000000000E+00 0.  1.
          3    1    1    2  501    0  0.17781203468E+03 -0.23799910174E+03  0.58983824123E+03  0.66043155809E+03  0.00000000000E+00 0. -1.
<scales pt_clust_5="13000.00000" pt_clust_6="13000.00000" pt_clust_7="13000.00000" pt_clust_8="13000.00000" pt_clust_9="297.08716"></scales>
<clustering>
<clus scale="   82.557">  5  6 -1 -1</clus>
<clus scale="   88.296">  7  8 -1 -1</clus>
<clus scale="   99.308">  5  7 -1 -1</clus>
<clus scale="  297.087">  1  9  2 -1</clus>
<clus scale="  297.087">  1  5  2 -1</clus>
</clustering>
</event>
<event>
 9    2  0.4883225E-005  0.9666587E+02  0.7546771E-02  0.1289174E+00
          2   -1    0    0  502    0 -0.00000000000E+00  0.00000000000E+00  0.25449258047E+03  0.25449258047E+03  0.00000000000E+00 0. -1.
         21   -1    0    0  501  502  0.00000000000E+00 -0.00000000000E+00 -0.67722452871E+02  0.67722452871E+02  0.00000000000E+00 0.  1.
         23    2    1    2    0    0  0.37766169431E+01 -0.59492126020E+02  0.16048502080E+03  0.19054759927E+03  0.83662236351E+02 0.  0.
         24    2    1    2    0    0 -0.22336242232E+02  0.21496911238E+02  0.24543597936E+02  0.89345703357E+02  0.80120169738E+02 0.  0.
        -11    1    4    4    0    0  0.25468121723E+02 -0.11372309509E+02  0.76512627067E+01  0.28922248679E+02  0.00000000000E+00 0.  1.
         12    1    4    4    0    0 -0.47804363955E+02  0.32869220747E+02  0.16892335230E+02  0.60423454677E+02  0.00000000000E+00 0. -1.
        -13    1    3    3    0    0 -0.19093428011E+02  0.12672290778E+02  0.63547628404E+02  0.67553290242E+02  0.00000000000E+00 0.  1.
         13    1    3    3    0    0  0.22870044954E+02 -0.72164416798E+02  0.96937392399E+02  0.12299430903E+03  0.00000000000E+00 0. -1.
          1    1    1    2  501    0  0.18559625289E+02  0.37995214782E+02  0.17415088552E+01  0.42321730710E+02  0.00000000000E+00 0. -1.
<scales pt_clust_5="13000.00000" pt_clust_6="13000.00000" pt_clust_7="13000.00000" pt_clust_8="13000.00000" pt_clust_9="42.28588"></scales>
<clustering>
<clus scale="   42.286">  2  9  1 -1</clus>
<clus scale="   80.120">  5  6 -1 -1</clus>
<clus scale="   83.662">  7  8 -1 -1</clus>
<clus scale="   93.617">  2  5  1 -1</clus>
<clus scale="   42.286">  2  5  1 -1</clus>
</clustering>
</event>
<event>
 9    2  0.4883225E-005  0.2393768E+03  0.7546771E-02  0.1157150E+00
          2   -1    0    0  502    0 -0.00000000000E+00  0.00000000000E+00  0.15094685511E+03  0.15094685511E+03  0.00000000000E+00 0. -1.
         21   -1    0    0  501  502  0.00000000000E+00 -0.00000000000E+00 -0.68233152270E+03  0.68233152270E+03  0.00000000000E+00 0. -1.
         24    2    1    2    0    0  0.96535187816E+01 -0.52692503211E+02  0.15185180559E+02  0.99137028179E+02  0.82023596166E+02 0.  0.
         23    2    1    2    0    0 -0.24152862100E+02 -0.20139913998E+03 -0.33964964805E+03  0.40613408858E+03  0.91858805523E+02 0.  0.
        -13    1    3    3    0    0  0.40038500798E+02 -0.55807362365E+01  0.14876102503E+02  0.43075800500E+02  0.00000000000E+00 0.  1.
         14    1    3    3    0    0 -0.30384982016E+02 -0.47111766974E+02  0.30907805553E+00  0.56061227678E+02  0.00000000000E+00 0. -1.
        -13    1    4    4    0    0 -0.15974397310E+02 -0.11408636679E+03 -0.10591283632E+03  0.15648772908E+03  0.00000000000E+00 0.  1.
         13    1    4    4    0    0 -0.81784647896E+01 -0.87312773182E+02 -0.23373681174E+03  0.24964635949E+03  0.00000000000E+00 0. -1.
          1    1    1    2  501    0  0.14499343318E+02  0.25409164319E+03 -0.20692020010E+03  0.32800726105E+03  0.00000000000E+00 0. -1.
<scales pt_clust_5="13000.00000" pt_clust_6="13000.00000" pt_clust_7="13000.00000" pt_clust_8="13000.00000" pt_clust_9="221.05031"></scales>
<clustering>
<clus scale="   82.024">  5  6 -1 -1</clus>
<clus scale="   91.859">  7  8 -1 -1</clus>
<clus scale="   97.967">  1  5  2 -1</clus>
<clus scale="  221.050">  2  9  1 -1</clus>
<clus scale="  221.050">  2  5  1 -1</clus>
</clustering>
</event>
<event>
 9    2  0.4883225E-005  0.1518688E+03  0.7546771E-02  0.1199115E+00
         21   -1    0    0  501  502  0.00000000000E+00  0.00000000000E+00  0.66437106661E+02  0.66437106661E+02  0.00000000000E+00 0.  1.
          2   -1    0    0  502    0 -0.00000000000E+00 -0.00000000000E+00 -0.15329532811E+04  0.15329532811E+04  0.00000000000E+00 0. -1.
         24    2    1    2    0    0  0.78134393626E+02 -0.92591364333E+02 -0.11850320097E+04  0.11943017135E+04  0.85892808408E+02 0.  0.
         23    2    1    2    0    0 -0.94633730779E+02  0.80860070696E+02 -0.32354445234E+03  0.35840978001E+03  0.91009140903E+02 0.  0.
        -11    1    3    3    0    0  0.66493962747E+02 -0.44287993850E+02 -0.41200913115E+03  0.41968368759E+03  0.00000000000E+00 0.  1.
         12    1    3    3    0    0  0.11640430879E+02 -0.48303370484E+02 -0.77302287855E+03  0.77461802586E+03  0.00000000000E+00 0. -1.
        -11    1    4    4    0    0 -0.63886652526E+02  0.38998077997E+02 -0.80678006357E+02  0.11005132970E+03  0.00000000000E+00 0.  1.
         11    1    4    4    0    0 -0.30747078253E+02  0.41861992699E+02 -0.24286644599E+03  0.24835845031E+03  0.00000000000E+00 0. -1.
          1    1    1    2  501    0  0.16499337154E+02  0.11731293637E+02  0.42060287618E+02  0.46678894283E+02  0.00000000000E+00 0. -1.
<scales pt_clust_5="13000.00000" pt_clust_6="13000.00000" pt_clust_7="13000.00000" pt_clust_8="13000.00000" pt_clust_9="20.24479"></scales>
<clustering>
<clus scale="   20.245">  1  9  2 -1</clus>
<clus scale="   85.893">  5  6 -1 -1</clus>
<clus scale="   91.009">  7  8 -1 -1</clus>
<clus scale="  148.859">  2  5  1 -1</clus>
<clus scale="   20.245">  1  5  2 -1</clus>
</clustering>
</event>
<event>
 9    2  0.4883225E-005  0.1188848E+03  0.7546771E-02  0.1245386E+00
          2   -1    0    0  502    0 -0.00000000000E+00  0.00000000000E+00  0.13788360506E+04  0.13788360506E+04  0.00000000000E+00 0. -1.
         21   -1    0    0  501  502  0.00000000000E+00 -0.00000000000E+00 -0.44807309776E+02  0.44807309776E+02  0.00000000000E+00 0. -1.
         24    2    1    2    0    0 -0.27686745783E+01  0.81877013184E+02  0.99080067801E+03  0.99851909797E+03  0.92967169603E+02 0.  0.
         23    2    1    2    0    0 -0.33729539914E+01 -0.58406992205E+02  0.37195910478E+03  0.38752061560E+03  0.91629134717E+02 0.  0.
        -13    1    3    3    0    0 -0.20440397405E+02  0.51346359521E+02  0.21740739764E+03  0.22432172215E+03  0.00000000000E+00 0.  1.
         14    1    3    3    0    0  0.17671722826E+02  0.30530653664E+02  0.77339328038E+03  0.77419737582E+03  0.00000000000E+00 0. -1.
        -13    1    4    4    0    0 -0.37936631865E+02  0.16505503959E+01  0.10293101793E+03  0.10971192646E+03  0.00000000000E+00 0. -1.
         13    1    4    4    0    0  0.34563677873E+02 -0.60057542601E+02  0.26902808685E+03  0.27780868914E+03  0.00000000000E+00 0.  1.
          1    1    1    2  501    0  0.61416285697E+01 -0.23470020980E+02 -0.28731041922E+02  0.37603646847E+02  0.00000000000E+00 0. -1.
<scales pt_clust_5="13000.00000" pt_clust_6="13000.00000" pt_clust_7="13000.00000" pt_clust_8="13000.00000" pt_clust_9="24.26029"></scales>
<clustering>
<clus scale="   24.260">  2  9  1 -1</clus>
<clus scale="   91.629">  7  8 -1 -1</clus>
<clus scale="   92.967">  5  6 -1 -1</clus>
<clus scale="  117.841">  2  7  1 -1</clus>
<clus scale="   24.260">  2  5  1 -1</clus>
</clustering>
</event>
<event>
 9    2  0.4883225E-005  0.1153522E+03  0.7546771E-02  0.1253054E+00
         -3   -1    0    0    0  501 -0.00000000000E+00  0.00000000000E+00  0.36846689722E+03  0.36846689722E+03  0.00000000000E+00 0.  1.
         21   -1    0    0  501  502  0.00000000000E+00 -0.00000000000E+00 -0.13239615387E+03  0.13239615387E+03  0.00000000000E+00 0. -1.
         23    2    1    2    0    0 -0.10713391301E+02  0.79982673182E+02  0.28351594939E+03  0.30772537690E+03  0.88326718882E+02 0.  0.
         24    2    1    2    0    0  0.50441114130E+02 -0.41438926717E+02  0.19063448827E+02  0.10660841022E+03  0.82100227803E+02 0.  0.
        -11    1    4    4    0    0  0.36874870348E+02 -0.41462477021E+02  0.48818717879E+02  0.73906429215E+02  0.00000000000E+00 0.  1.
         12    1    4    4    0    0  0.13566243782E+02  0.23550303939E-01 -0.29755269052E+02  0.32701981000E+02  0.00000000000E+00 0. -1.
        -11    1    3    3    0    0  0.27913458484E+02 -0.28588675460E+01  0.73883631011E+02  0.79032431442E+02  0.00000000000E+00 0. -1.
         11    1    3    3    0    0 -0.38626849785E+02  0.82841540728E+02  0.20963231838E+03  0.22869294546E+03  0.00000000000E+00 0.  1.
         -4    1    1    2    0  502 -0.39727722830E+02 -0.38543746465E+02 -0.66508654865E+02  0.86529263979E+02  0.00000000000E+00 0.  1.
<scales pt_clust_5="13000.00000" pt_clust_6="13000.00000" pt_clust_7="13000.00000" pt_clust_8="13000.00000" pt_clust_9="55.35262"></scales>
<clustering>
<clus scale="   55.353">  2  9  1 -1</clus>
<clus scale="   82.100">  5  6 -1 -1</clus>
<clus scale="   88.327">  7  8 -1 -1</clus>
<clus scale="  110.657">  2  5  1 -1</clus>
<clus scale="   55.353">  2  5  1 -1</clus>
</clustering>
</event>
<event>
 9    2  0.7941888E-005  0.9882888E+02  0.7546771E-02  0.1289090E+00
          4   -1    0    0  502    0 -0.00000000000E+00  0.00000000000E+00  0.40768130015E+03  0.40768130015E+03  0.00000000000E+00 0. -1.
         21   -1    0    0  501  502  0.00000000000E+00 -0.00000000000E+00 -0.17101705274E+03  0.17101705274E+03  0.00000000000E+00 0. -1.
         24    2    1    2    0    0  0.26330736866E+02  0.35803504318E+02  0.30807608533E+03  0.32136711231E+03  0.79942153453E+02 0.  0.
         23    2    1    2    0    0 -0.18620663079E+01 -0.71096227998E+01  0.66901523205E+02  0.11396931906E+03  0.91973788939E+02 0.  0.
        -11    1    3    3    0    0  0.36903306232E+02 -0.50921997570E+01  0.67378218845E+02  0.76990966248E+02  0.00000000000E+00 0.  1.
         12    1    3    3    0    0 -0.10572569365E+02  0.40895704075E+02  0.24069786648E+03  0.24437614606E+03  0.00000000000E+00 0. -1.
        -13    1    4    4    0    0 -0.53187566142E+01 -0.40330802136E+02  0.17057422145E+01  0.40715750384E+02  0.00000000000E+00 0.  1.
         13    1    4    4    0    0  0.34566903063E+01  0.33221179336E+02  0.65195780990E+02  0.73253568673E+02  0.00000000000E+00 0. -1.
          3    1    1    2  501    0 -0.24468670558E+02 -0.28693881518E+02 -0.13831336113E+03  0.14336192152E+03  0.00000000000E+00 0. -1.
<scales pt_clust_5="13000.00000" pt_clust_6="13000.00000" pt_clust_7="13000.00000" pt_clust_8="13000.00000" pt_clust_9="37.71014"></scales>
<clustering>
<clus scale="   37.710">  2  9  1 -1</clus>
<clus scale="   79.942">  5  6 -1 -1</clus>
<clus scale="   87.742">  1  5  2 -1</clus>
<clus scale="   91.974">  7  8 -1 -1</clus>
<clus scale="   37.710">  2  5  1 -1</clus>
</clustering>
</event>
<event>
 9    2  0.4883225E-005  0.2930577E+03  0.7546771E-02  0.1127152E+00
         21   -1    0    0  501  502  0.00000000000E+00  0.00000000000E+00  0.10254181210E+03  0.10254181210E+03  0.00000000000E+00 0. -1.
          2   -1    0    0  502    0 -0.00000000000E+00 -0.00000000000E+00 -0.18006761751E+04  0.18006761751E+04  0.00000000000E+00 0. -1.
         24    2    1    2    0    0 -0.55390849452E+02  0.48476747369E+02 -0.11959608335E+03  0.16234847069E+03  0.81459569993E+02 0.  0.
         23    2    1    2    0    0  0.96264609520E+02 -0.27521330561E+03 -0.25535581611E+03  0.39777906427E+03  0.89511745151E+02 0.  0.
        -11    1    3    3    0    0  0.43261728157E+01  0.37487195241E+02 -0.13447948179E+02  0.40060615179E+02  0.00000000000E+00 0.  1.
         12    1    3    3    0    0 -0.59717022267E+02  0.10989552127E+02 -0.10614813518E+03  0.12228785551E+03  0.00000000000E+00 0. -1.
        -13    1    4    4    0    0  0.29863826445E+02 -0.98985335614E+01 -0.28205069438E+02  0.42253461854E+02  0.00000000000E+00 0.  1.
         13    1    4    4    0    0  0.66400783075E+02 -0.26531477205E+03 -0.22715074667E+03  0.35552560242E+03  0.00000000000E+00 0. -1.
          1    1    1    2  501    0 -0.40873760068E+02  0.22673655824E+03 -0.13231824635E+04  0.13430904522E+04  0.00000000000E+00 0. -1.
<scales pt_clust_5="13000.00000" pt_clust_6="13000.00000" pt_clust_7="13000.00000" pt_clust_8="13000.00000" pt_clust_9="279.05294"></scales>
<clustering>
<clus scale="   81.460">  5  6 -1 -1</clus>
<clus scale="   89.512">  7  8 -1 -1</clus>
<clus scale="  109.790">  2  5  1 -1</clus>
<clus scale="  279.053">  1  9  2 -1</clus>
<clus scale="  279.053">  1  5  2 -1</clus>
</clustering>
</event>
<event>
 9    2  0.4883225E-005  0.1161591E+03  0.7546771E-02  0.1253351E+00
         21   -1    0    0  501  502  0.00000000000E+00  0.00000000000E+00  0.67557498585E+03  0.67557498585E+03  0.00000000000E+00 0. -1.
         -3   -1    0    0    0  501 -0.00000000000E+00 -0.00000000000E+00 -0.41922740867E+02  0.41922740867E+02  0.00000000000E+00 0.  1.
         24    2    1    2    0    0  0.25864786655E+02 -0.70542106707E+02  0.56919720390E+02  0.12387709678E+03  0.80377263760E+02 0.  0.
         23    2    1    2    0    0 -0.44987702050E+01  0.53491073826E+02  0.51946937991E+03  0.53016740212E+03  0.91364674234E+02 0.  0.
        -11    1    3    3    0    0  0.47185686980E+02 -0.42296244957E+02  0.61363685001E+02  0.88209768337E+02  0.00000000000E+00 0.  1.
         12    1    3    3    0    0 -0.21320900324E+02 -0.28245861751E+02 -0.44439646106E+01  0.35667328441E+02  0.00000000000E+00 0. -1.
        -11    1    4    4    0    0 -0.30887720026E+02 -0.10766644836E+02  0.10695747514E+03  0.11184754525E+03  0.00000000000E+00 0.  1.
         11    1    4    4    0    0  0.26388949821E+02  0.64257718662E+02  0.41251190477E+03  0.41831985688E+03  0.00000000000E+00 0. -1.
         -4    1    1    2    0  502 -0.21366016450E+02  0.17051032881E+02  0.57263144684E+02  0.63453227817E+02  0.00000000000E+00 0.  1.
<scales pt_clust_5="13000.00000" pt_clust_6="13000.00000" pt_clust_7="13000.00000" pt_clust_8="13000.00000" pt_clust_9="27.33577"></scales>
<clustering>
<clus scale="   27.336">  1  9  2 -1</clus>
<clus scale="   80.377">  5  6 -1 -1</clus>
<clus scale="   91.365">  7  8 -1 -1</clus>
<clus scale="  107.731">  2  5  1 -1</clus>
<clus scale="   27.336">  1  5  2 -1</clus>
</clustering>
</event>
<event>
 9    2  0.4883225E-005  0.1952126E+03  0.7546771E-02  0.1155216E+00
         21   -1    0    0  501  502  0.00000000000E+00  0.00000000000E+00  0.59738313417E+02  0.59738313417E+02  0.00000000000E+00 0.  1.
         -1   -1    0    0    0  501 -0.00000000000E+00 -0.00000000000E+00 -0.70395902442E+03  0.70395902442E+03  0.00000000000E+00 0.  1.
         24    2    1    2    0    0  0.16154034487E+03 -0.18724446667E+02 -0.32766398492E+03  0.37473643309E+03  0.81349980635E+02 0.  0.
         23    2    1    2    0    0 -0.17957778209E+03  0.29105048921E+02 -0.28554615081E+03  0.35161439456E+03  0.94872517226E+02 0.  0.
        -11    1    3    3    0    0  0.14709226179E+03  0.11542424099E+02 -0.25287070693E+03  0.29276775003E+03  0.00000000000E+00 0.  1.
         12    1    3    3    0    0  0.14448083074E+02 -0.30266870767E+02 -0.74793277989E+02  0.81968683061E+02  0.00000000000E+00 0. -1.
        -13    1    4    4    0    0 -0.42577795508E+02  0.50935029535E+02 -0.88539816646E+02  0.11066410907E+03  0.00000000000E+00 0. -1.
         13    1    4    4    0    0 -0.13699998658E+03 -0.21829980614E+02 -0.19700633417E+03  0.24095028549E+03  0.00000000000E+00 0.  1.
         -2    1    1    2    0  502  0.18037437217E+02 -0.10380602253E+02 -0.31010575273E+02  0.37346510188E+02  0.00000000000E+00 0.  1.
<scales pt_clust_5="13000.00000" pt_clust_6="13000.00000" pt_clust_7="13000.00000" pt_clust_8="13000.00000" pt_clust_9="20.81120"></scales>
<clustering>
<clus scale="   20.811">  1  9  2 -1</clus>
<clus scale="   81.350">  5  6 -1 -1</clus>
<clus scale="   94.873">  7  8 -1 -1</clus>
<clus scale="  189.011">  2  5  1 -1</clus>
<clus scale="   20.811">  1  5  2 -1</clus>
</clustering>
</event>
<event>
 9    2  0.4883225E-005  0.1210728E+03  0.7546771E-02  0.1245015E+00
         21   -1    0    0  501  502  0.00000000000E+00  0.00000000000E+00  0.74725614552E+02  0.74725614552E+02  0.00000000000E+00 0. -1.
          2   -1    0    0  502    0 -0.00000000000E+00 -0.00000000000E+00 -0.45584959093E+03  0.45584959093E+03  0.00000000000E+00 0. -1.
         24    2    1    2    0    0 -0.96664291739E+02  0.28208640544E+02 -0.29322614080E+03  0.32016457160E+03  0.79900378979E+02 0.  0.
         23    2    1    2    0    0  0.18992191611E+02  0.14836522175E+02 -0.15997750858E+02  0.96150127342E+02  0.91695655420E+02 0.  0.
        -11    1    3    3    0    0 -0.70356711811E+01 -0.21902231130E+02 -0.31424522460E+02  0.38944948444E+02  0.00000000000E+00 0.  1.
         12    1    3    3    0    0 -0.89628620558E+02  0.50110871674E+02 -0.26180161834E+03  0.28121962315E+03  0.00000000000E+00 0. -1.
        -11    1    4    4    0    0  0.20995357251E+01  0.26051471337E+02  0.33599753684E+02  0.42567953400E+02  0.00000000000E+00 0.  1.
         11    1    4    4    0    0  0.16892655886E+02 -0.11214949162E+02 -0.49597504542E+02  0.53582173942E+02  0.00000000000E+00 0. -1.
          1    1    1    2  501    0  0.77672100128E+02 -0.43045162718E+02 -0.71900084718E+02  0.11426050654E+03  0.00000000000E+00 0. -1.
<scales pt_clust_5="13000.00000" pt_clust_6="13000.00000" pt_clust_7="13000.00000" pt_clust_8="13000.00000" pt_clust_9="88.80226"></scales>
<clustering>
<clus scale="   79.900">  5  6 -1 -1</clus>
<clus scale="   88.802">  1  9  2 -1</clus>
<clus scale="   91.696">  7  8 -1 -1</clus>
<clus scale="  112.404">  2  5  1 -1</clus>
<clus scale="   88.802">  1  5  2 -1</clus>
</clustering>
</event>
<event>
 9    2  0.4883225E-005  0.8313645E+02  0.7546771E-02  0.1320809E+00
          4   -1    0    0  502    0 -0.00000000000E+00  0.00000000000E+00  0.23896437008E+03  0.23896437008E+03  0.00000000000E+00 0. -1.
         21   -1    0    0  501  502  0.00000000000E+00 -0.00000000000E+00 -0.17487576759E+03  0.17487576759E+03  0.00000000000E+00 0. -1.
         24    2    1    2    0    0 -0.22812150108E+02 -0.10966085953E+02  0.19719224888E+03  0.21424152678E+03  0.79837331793E+02 0.  0.
         23    2    1    2    0    0 -0.52483865979E+01 -0.59661262116E+01 -0.22089143789E+02  0.83847527453E+02  0.80494331246E+02 0.  0.
        -11    1    3    3    0    0  0.30088071185E+02 -0.46029931414E+01  0.74644432421E+02  0.80611853130E+02  0.00000000000E+00 0.  1.
         12    1    3    3    0    0 -0.52900221292E+02 -0.63630928117E+01  0.12254781646E+03  0.13362967365E+03  0.00000000000E+00 0. -1.
        -11    1    4    4    0    0  0.20431899211E+02  0.13605088308E+02 -0.39994820483E+02  0.46927034839E+02  0.00000000000E+00 0. -1.
         11    1    4    4    0    0 -0.25680285809E+02 -0.19571214520E+02  0.17905676694E+02  0.36920492614E+02  0.00000000000E+00 0.  1.
          3    1    1    2  501    0  0.28060536706E+02  0.16932212165E+02 -0.11101450260E+03  0.11575108344E+03  0.00000000000E+00 0. -1.
<scales pt_clust_5="13000.00000" pt_clust_6="13000.00000" pt_clust_7="13000.00000" pt_clust_8="13000.00000" pt_clust_9="32.77337"></scales>
<clustering>
<clus scale="   32.773">  2  9  1 -1</clus>
<clus scale="   79.837">  5  6 -1 -1</clus>
<clus scale="   80.494">  7  8 -1 -1</clus>
<clus scale="   82.500">  1  5  2 -1</clus>
<clus scale="   32.773">  2  5  1 -1</clus>
</clustering>
</event>
<event>
 9    2  0.4883225E-005  0.1321802E+03  0.7546771E-02  0.1227184E+00
         21   -1    0    0  501  502  0.00000000000E+00  0.00000000000E+00  0.40156249342E+02  0.40156249342E+02  0.00000000000E+00 0. -1.
         -1   -1    0    0    0  501 -0.00000000000E+00 -0.00000000000E+00 -0.10115417432E+04  0.10115417432E+04  0.00000000000E+00 0.  1.
         23    2    1    2    0    0  0.73630552984E+02 -0.35746312950E+02 -0.49606333906E+03  0.51096380214E+03  0.91136784683E+02 0.  0.
         24    2    1    2    0    0 -0.11082827841E+03  0.10087658040E+03 -0.24092529072E+03  0.29462951266E+03  0.79388678368E+02 0.  0.
        -11    1    4    4    0    0 -0.33570642824E+02 -0.93955023888E+01 -0.45766971188E+02  0.57531549401E+02  0.00000000000E+00 0.  1.
         12    1    4    4    0    0 -0.77257635584E+02  0.11027208279E+03 -0.19515831953E+03  0.23709796326E+03  0.00000000000E+00 0. -1.
        -13    1    3    3    0    0  0.85320192643E+02 -0.53802536624E+02 -0.41711050694E+03  0.42913333968E+03  0.00000000000E+00 0. -1.
         13    1    3    3    0    0 -0.11689639659E+02  0.18056223674E+02 -0.78952832114E+02  0.81830462467E+02  0.00000000000E+00 0.  1.
         -2    1    1    2    0  502  0.37197725425E+02 -0.65130267448E+02 -0.23439686406E+03  0.24610467772E+03  0.00000000000E+00 0.  1.
<scales pt_clust_5="13000.00000" pt_clust_6="13000.00000" pt_clust_7="13000.00000" pt_clust_8="13000.00000" pt_clust_9="75.00419"></scales>
<clustering>
<clus scale="   75.004">  1  9  2 -1</clus>
<clus scale="   79.389">  5  6 -1 -1</clus>
<clus scale="   91.137">  7  8 -1 -1</clus>
<clus scale="  124.371">  1  5  2 -1</clus>
<clus scale="   75.004">  1  5  2 -1</clus>
</clustering>
</event>
<event>
 9    2  0.4883225E-005  0.9176765E+02  0.7546771E-02  0.1303541E+00
          2   -1    0    0  502    0 -0.00000000000E+00  0.00000000000E+00  0.12937289672E+04  0.12937289672E+04  0.00000000000E+00 0. -1.
         21   -1    0    0  501  502  0.00000000000E+00 -0.00000000000E+00 -0.17144865682E+03  0.17144865682E+03  0.00000000000E+00 0.  1.
         24    2    1    2    0    0  0.14571328006E+02  0.18939002409E+02  0.12698265516E+04  0.12725981863E+04  0.80471506977E+02 0.  0.
         23    2    1    2    0    0  0.47382196612E+01  0.93258654719E+01 -0.10155474835E+03  0.13524725827E+03  0.88707561480E+02 0.  0.
        -13    1    3    3    0    0  0.87124567547E+01  0.29585829280E+02  0.17452630494E+03  0.17723052590E+03  0.00000000000E+00 0.  1.
         14    1    3    3    0    0  0.58588712518E+01 -0.10646826870E+02  0.10953002466E+04  0.10953676604E+04  0.00000000000E+00 0. -1.
        -11    1    4    4    0    0  0.20619525594E+02  0.32039341664E+02 -0.97195931977E+01  0.39321174218E+02  0.00000000000E+00 0. -1.
         11    1    4    4    0    0 -0.15881305933E+02 -0.22713476192E+02 -0.91835155154E+02  0.95926084049E+02  0.00000000000E+00 0.  1.
          1    1    1    2  501    0 -0.19309547668E+02 -0.28264867881E+02 -0.45991492810E+02  0.57332179431E+02  0.00000000000E+00 0. -1.
<scales pt_clust_5="13000.00000" pt_clust_6="13000.00000" pt_clust_7="13000.00000" pt_clust_8="13000.00000" pt_clust_9="34.23100"></scales>
<clustering>
<clus scale="   34.231">  2  9  1 -1</clus>
<clus scale="   80.472">  5  6 -1 -1</clus>
<clus scale="   83.833">  1  5  2 -1</clus>
<clus scale="   88.708">  7  8 -1 -1</clus>
<clus scale="   34.231">  2  5  1 -1</clus>
</clustering>
</event>
<event>
 9    2  0.4883225E-005  0.9324314E+02  0.7546771E-02  0.1304419E+00
         21   -1    0    0  501  502  0.00000000000E+00  0.00000000000E+00  0.24770109486E+03  0.24770109486E+03  0.00000000000E+00 0. -1.
          2   -1    0    0  502    0 -0.00000000000E+00 -0.00000000000E+00 -0.84820746283E+02  0.84820746283E+02  0.00000000000E+00 0. -1.
         23    2    1    2    0    0  0.13195028771E+02  0.24727939169E+02  0.87577353181E+02  0.13077494015E+03  0.92987700374E+02 0.  0.
         24    2    1    2    0    0  0.33176999194E+01  0.35951746235E+02  0.10186696138E+03  0.13348022743E+03  0.78336186429E+02 0.  0.
        -11    1    4    4    0    0 -0.13259988013E+02  0.38661960920E+02  0.10809560026E+03  0.11556484457E+03  0.00000000000E+00 0.  1.
         12    1    4    4    0    0  0.16577687933E+02 -0.27102146849E+01 -0.62286388805E+01  0.17915382863E+02  0.00000000000E+00 0. -1.
        -11    1    3    3    0    0 -0.15485631656E+01 -0.35223375946E+02  0.35055227424E+02  0.49718741242E+02  0.00000000000E+00 0.  1.
         11    1    3    3    0    0  0.14743591937E+02  0.59951315115E+02  0.52522125757E+02  0.81056198907E+02  0.00000000000E+00 0. -1.
          1    1    1    2  501    0 -0.16512728690E+02 -0.60679685405E+02 -0.26563965989E+02  0.68266673558E+02  0.00000000000E+00 0. -1.
<scales pt_clust_5="13000.00000" pt_clust_6="13000.00000" pt_clust_7="13000.00000" pt_clust_8="13000.00000" pt_clust_9="62.88639"></scales>
<clustering>
<clus scale="   62.886">  1  9  2 -1</clus>
<clus scale="   78.336">  5  6 -1 -1</clus>
<clus scale="   78.639">  1  5  2 -1</clus>
<clus scale="   92.988">  7  8 -1 -1</clus>
<clus scale="   62.886">  1  5  2 -1</clus>
</clustering>
</event>
<event>
 9    2  0.4883225E-005  0.1735243E+03  0.7546771E-02  0.1175709E+00
         21   -1    0    0  501  502  0.00000000000E+00  0.00000000000E+00  0.17745900185E+03  0.17745900185E+03  0.00000000000E+00 0.  1.
          2   -1    0    0  502    0 -0.00000000000E+00 -0.00000000000E+00 -0.77064262744E+03  0.77064262744E+03  0.00000000000E+00 0. -1.
         24    2    1    2    0    0 -0.13771238196E+03  0.25579358498E+02 -0.49092924934E+03  0.51709502527E+03  0.82199352653E+02 0.  0.
         23    2    1    2    0    0  0.21507955067E+03 -0.44823510213E+02  0.63543284619E+02  0.24703682249E+03  0.93386735997E+02 0.  0.
        -11    1    3    3    0    0 -0.17164914624E+02  0.37528605604E+02 -0.12491205179E+03  0.13155246564E+03  0.00000000000E+00 0.  1.
         12    1    3    3    0    0 -0.12054746734E+03 -0.11949247106E+02 -0.36601719755E+03  0.38554255963E+03  0.00000000000E+00 0. -1.
        -13    1    4    4    0    0  0.15040475407E+03 -0.53615719435E+02  0.81597117196E+02  0.17931627074E+03  0.00000000000E+00 0.  1.
         13    1    4    4    0    0  0.64674796603E+02  0.87922092219E+01 -0.18053832576E+02  0.67720551750E+02  0.00000000000E+00 0. -1.
          1    1    1    2  501    0 -0.77367168707E+02  0.19244151716E+02 -0.16579766087E+03  0.18396978154E+03  0.00000000000E+00 0. -1.
<scales pt_clust_5="13000.00000" pt_clust_6="13000.00000" pt_clust_7="13000.00000" pt_clust_8="13000.00000" pt_clust_9="79.72467"></scales>
<clustering>
<clus scale="   79.725">  1  9  2 -1</clus>
<clus scale="   82.199">  5  6 -1 -1</clus>
<clus scale="   93.387">  7  8 -1 -1</clus>
<clus scale="  167.769">  2  5  1 -1</clus>
<clus scale="   79.725">  1  5  2 -1</clus>
</clustering>
</event>
<event>
 9    2  0.4883225E-005  0.1292391E+03  0.7546771E-02  0.1231693E+00
         21   -1    0    0  501  502  0.00000000000E+00  0.00000000000E+00  0.82469881881E+02  0.82469881881E+02  0.00000000000E+00 0. -1.
          2   -1    0    0  502    0 -0.00000000000E+00 -0.00000000000E+00 -0.79624542498E+03  0.79624542498E+03  0.00000000000E+00 0. -1.
         24    2    1    2    0    0 -0.94947806010E+02 -0.72430071737E+01 -0.67738457823E+03  0.68870029867E+03  0.79941775964E+02 0.  0.
         23    2    1    2    0    0  0.68525606229E+02  0.11150829796E+02 -0.79158375555E+02  0.13959224412E+03  0.91650676401E+02 0.  0.
        -11    1    3    3    0    0 -0.52688948240E+02  0.35394234514E+02 -0.30838287628E+03  0.31484738444E+03  0.00000000000E+00 0.  1.
         12    1    3    3    0    0 -0.42258857770E+02 -0.42637241687E+02 -0.36900170195E+03  0.37385291423E+03  0.00000000000E+00 0. -1.
        -13    1    4    4    0    0  0.24354226809E+02 -0.34478917881E+02 -0.58747128304E+01  0.42619671427E+02  0.00000000000E+00 0.  1.
         13    1    4    4    0    0  0.44171379420E+02  0.45629747678E+02 -0.73283662725E+02  0.96972572696E+02  0.00000000000E+00 0. -1.
          1    1    1    2  501    0  0.26422199781E+02 -0.39078226226E+01  0.42767410689E+02  0.50422764065E+02  0.00000000000E+00 0. -1.
<scales pt_clust_5="13000.00000" pt_clust_6="13000.00000" pt_clust_7="13000.00000" pt_clust_8="13000.00000" pt_clust_9="26.70962"></scales>
<clustering>
<clus scale="   26.710">  1  9  2 -1</clus>
<clus scale="   79.942">  5  6 -1 -1</clus>
<clus scale="   91.651">  7  8 -1 -1</clus>
<clus scale="  121.217">  2  5  1 -1</clus>
<clus scale="   26.710">  1  5  2 -1</clus>
</clustering>
</event>
<event>
 9    2  0.4883225E-005  0.9741593E+02  0.7546771E-02  0.1292009E+00
          2   -1    0    0  502    0 -0.00000000000E+00  0.00000000000E+00  0.61823614603E+03  0.61823614603E+03  0.00000000000E+00 0. -1.
         21   -1    0    0  501  502  0.00000000000E+00 -0.00000000000E+00 -0.26973162575E+02  0.26973162575E+02  0.00000000000E+00 0.  1.
         24    2    1    2    0    0 -0.27007979954E+02 -0.15336763742E+02  0.41502954439E+03  0.42379780804E+03  0.79940053038E+02 0.  0.
         23    2    1    2    0    0  0.22570955196E+02  0.42947866895E+02  0.15467197929E+03  0.18609922574E+03  0.91408606554E+02 0.  0.
        -13    1    3    3    0    0  0.64412293298E+01 -0.31402924849E+02  0.72585830361E+02  0.79349454273E+02  0.00000000000E+00 0.  1.
         14    1    3    3    0    0 -0.33449209284E+02  0.16066161107E+02  0.34244371403E+03  0.34444835377E+03  0.00000000000E+00 0. -1.
        -11    1    4    4    0    0  0.23519438119E+02  0.71319816613E+02  0.11185697159E+03  0.13472810510E+03  0.00000000000E+00 0.  1.
         11    1    4    4    0    0 -0.94848292272E+00 -0.28371949718E+02  0.42815007699E+02  0.51371120631E+02  0.00000000000E+00 0. -1.
          1    1    1    2  501    0  0.44370247575E+01 -0.27611103153E+02  0.21561459770E+02  0.35312274827E+02  0.00000000000E+00 0. -1.
<scales pt_clust_5="13000.00000" pt_clust_6="13000.00000" pt_clust_7="13000.00000" pt_clust_8="13000.00000" pt_clust_9="27.96534"></scales>
<clustering>
<clus scale="   27.965">  2  9  1 -1</clus>
<clus scale="   79.940">  5  6 -1 -1</clus>
<clus scale="   86.745">  1  5  2 -1</clus>
<clus scale="   91.409">  7  8 -1 -1</clus>
<clus scale="   27.965">  2  5  1 -1</clus>
</clustering>
</event>
<event>
 9    2  0.4883225E-005  0.1587768E+03  0.7546771E-02  0.1193823E+00
          2   -1    0    0  502    0 -0.00000000000E+00  0.00000000000E+00  0.11792544589E+04  0.11792544589E+04  0.00000000000E+00 0. -1.
         21   -1    0    0  501  502  0.00000000000E+00 -0.00000000000E+00 -0.36463574256E+02  0.36463574256E+02  0.00000000000E+00 0. -1.
         24    2    1    2    0    0  0.18486313173E+02 -0.14604634741E+03  0.81665871451E+03  0.83261694702E+03  0.68178039774E+02 0.  0.
         23    2    1    2    0    0 -0.30247377841E+02  0.92293805484E+02  0.28349077198E+03  0.31348824794E+03  0.92058749736E+02 0.  0.
        -11    1    3    3    0    0  0.38497274992E+02 -0.51205281993E+02  0.27590842672E+03  0.28324809094E+03  0.00000000000E+00 0.  1.
         12    1    3    3    0    0 -0.20010961819E+02 -0.94841065420E+02  0.54075028780E+03  0.54936885608E+03  0.00000000000E+00 0. -1.
        -13    1    4    4    0    0  0.29535868865E+02  0.39909911318E+02  0.15131793894E+03  0.15925541502E+03  0.00000000000E+00 0.  1.
         13    1    4    4    0    0 -0.59783246706E+02  0.52383894166E+02  0.13217283304E+03  0.15423283292E+03  0.00000000000E+00 0. -1.
          1    1    1    2  501    0  0.11761064668E+02  0.53752541930E+02  0.42641398169E+02  0.69612838211E+02  0.00000000000E+00 0. -1.
<scales pt_clust_5="13000.00000" pt_clust_6="13000.00000" pt_clust_7="13000.00000" pt_clust_8="13000.00000" pt_clust_9="55.02416"></scales>
<clustering>
<clus scale="   55.024">  2  9  1 -1</clus>
<clus scale="   68.178">  5  6 -1 -1</clus>
<clus scale="   92.059">  7  8 -1 -1</clus>
<clus scale="  146.231">  1  5  2 -1</clus>
<clus scale="   55.024">  2  5  1 -1</clus>
</clustering>
</event>
<event>
 9    2  0.4883225E-005  0.2219653E+03  0.7546771E-02  0.1158249E+00
          2   -1    0    0  502    0 -0.00000000000E+00  0.00000000000E+00  0.11280366383E+03  0.11280366383E+03  0.00000000000E+00 0. -1.
         21   -1    0    0  501  502  0.00000000000E+00 -0.00000000000E+00 -0.71308387329E+03  0.71308387329E+03  0.00000000000E+00 0. -1.
         24    2    1    2    0    0  0.79269179236E+02  0.16420502324E+02 -0.21939089722E+03  0.24994966768E+03  0.88256642338E+02 0.  0.
         23    2    1    2    0    0  0.17205046544E+02 -0.20229054069E+03 -0.19210008588E+03  0.29398695282E+03  0.91150474222E+02 0.  0.
        -11    1    3    3    0    0  0.86925966743E+02  0.39152235000E+02 -0.16624282943E+03  0.19163950411E+03  0.00000000000E+00 0.  1.
         12    1    3    3    0    0 -0.76567875069E+01 -0.22731732676E+02 -0.53148067788E+02  0.58310163565E+02  0.00000000000E+00 0. -1.
        -13    1    4    4    0    0 -0.36454215896E+02 -0.93821329757E+02 -0.10025254302E+03  0.14206309921E+03  0.00000000000E+00 0.  1.
         13    1    4    4    0    0  0.53659262440E+02 -0.10846921093E+03 -0.91847542863E+02  0.15192385361E+03  0.00000000000E+00 0. -1.
          1    1    1    2  501    0 -0.96474225780E+02  0.18587003836E+03 -0.18878922635E+03  0.28195091663E+03  0.00000000000E+00 0. -1.
<scales pt_clust_5="13000.00000" pt_clust_6="13000.00000" pt_clust_7="13000.00000" pt_clust_8="13000.00000" pt_clust_9="202.38630"></scales>
<clustering>
<clus scale="   88.257">  5  6 -1 -1</clus>
<clus scale="   91.150">  7  8 -1 -1</clus>
<clus scale="  119.760">  1  5  2 -1</clus>
<clus scale="  202.386">  2  9  1 -1</clus>
<clus scale="  202.386">  2  5  1 -1</clus>
</clustering>
</event>
<event>
 9    2  0.4883225E-005  0.1423874E+03  0.7546771E-02  0.1229529E+00
          2   -1    0    0  502    0 -0.00000000000E+00  0.00000000000E+00  0.10726670512E+04  0.10726670512E+04  0.00000000000E+00 0. -1.
         21   -1    0    0  501  502  0.00000000000E+00 -0.00000000000E+00 -0.30602211565E+02  0.30602211565E+02  0.00000000000E+00 0. -1.
         24    2    1    2    0    0  0.39540365480E+02 -0.21171211246E+02  0.41139509083E+03  0.42217212824E+03  0.83496852725E+02 0.  0.
         23    2    1    2    0    0  0.82956970134E+02 -0.10318919843E+02  0.39217487441E+03  0.41113967362E+03  0.90809471446E+02 0.  0.
        -11    1    3    3    0    0 -0.14733938300E+01  0.25530862962E+02  0.58503530932E+02  0.63848719521E+02  0.00000000000E+00 0.  1.
         12    1    3    3    0    0  0.41013759310E+02 -0.46702074208E+02  0.35289155990E+03  0.35832340872E+03  0.00000000000E+00 0. -1.
        -11    1    4    4    0    0 -0.53939334573E+01 -0.27192660402E+02  0.15543939613E+03  0.15789218210E+03  0.00000000000E+00 0.  1.
         11    1    4    4    0    0  0.88350903592E+02  0.16873740559E+02  0.23673547828E+03  0.25324749152E+03  0.00000000000E+00 0. -1.
          1    1    1    2  501    0 -0.12249733561E+03  0.31490131088E+02  0.23849487442E+03  0.26995746093E+03  0.00000000000E+00 0. -1.
<scales pt_clust_5="13000.00000" pt_clust_6="13000.00000" pt_clust_7="13000.00000" pt_clust_8="13000.00000" pt_clust_9="109.67132"></scales>
<clustering>
<clus scale="   83.497">  5  6 -1 -1</clus>
<clus scale="   90.809">  7  8 -1 -1</clus>
<clus scale="   94.781">  1  5  2 -1</clus>
<clus scale="  109.671">  2  9  1 -1</clus>
<clus scale="  109.671">  2  5  1 -1</clus>
</clustering>
</event>
<event>
 9    2  0.4883225E-005  0.1676183E+03  0.7546771E-02  0.1193527E+00
          2   -1    0    0  502    0 -0.00000000000E+00  0.00000000000E+00  0.31827207229E+03  0.31827207229E+03  0.00000000000E+00 0. -1.
         21   -1    0    0  501  502  0.00000000000E+00 -0.00000000000E+00 -0.19299801486E+03  0.19299801486E+03  0.00000000000E+00 0. -1.
         23    2    1    2    0    0  0.41657978654E+02 -0.76037804010E+02  0.12990074374E+02  0.12577211393E+03  0.90181748634E+02 0.  0.
         24    2    1    2    0    0  0.11163587633E+03  0.26844731464E+02  0.16449266903E+03  0.21625048799E+03  0.80766496122E+02 0.  0.
        -11    1    4    4    0    0 -0.37059416895E+01  0.24733282862E+02  0.30255476036E+02  0.39253829304E+02  0.00000000000E+00 0.  1.
         12    1    4    4    0    0  0.11534181802E+03  0.21114486022E+01  0.13423719300E+03  0.17699665868E+03  0.00000000000E+00 0. -1.
        -11    1    3    3    0    0  0.53042730319E+02 -0.45702402406E+02 -0.26346752336E+02  0.74809038117E+02  0.00000000000E+00 0. -1.
         11    1    3    3    0    0 -0.11384751665E+02 -0.30335401604E+02  0.39336826711E+02  0.50963075816E+02  0.00000000000E+00 0.  1.
          1    1    1    2  501    0 -0.15329385499E+03  0.49193072546E+02 -0.52208685982E+02  0.16924748523E+03  0.00000000000E+00 0. -1.
<scales pt_clust_5="13000.00000" pt_clust_6="13000.00000" pt_clust_7="13000.00000" pt_clust_8="13000.00000" pt_clust_9="146.87632"></scales>
<clustering>
<clus scale="   80.766">  5  6 -1 -1</clus>
<clus scale="   90.182">  7  8 -1 -1</clus>
<clus scale="  125.100">  1  7  2 -1</clus>
<clus scale="  146.876">  2  9  1 -1</clus>
<clus scale="  146.876">  2  5  1 -1</clus>
</clustering>
</event>
<event>
 9    2  0.4883225E-005  0.1001350E+03  0.7546771E-02  0.1290013E+00
          2   -1    0    0  502    0 -0.00000000000E+00  0.00000000000E+00  0.60494509635E+02  0.60494509635E+02  0.00000000000E+00 0. -1.
         21   -1    0    0  501  502  0.00000000000E+00 -0.00000000000E+00 -0.32299153057E+03  0.32299153057E+03  0.00000000000E+00 0. -1.
         24    2    1    2    0    0  0.17163821483E+02 -0.68529400567E+02 -0.58828818436E+02  0.11719881171E+03  0.72690137416E+02 0.  0.
         23    2    1    2    0    0 -0.87056372350E+01 -0.95912797460E+01 -0.11673280076E+03  0.14910299044E+03  0.91855180680E+02 0.  0.
        -13    1    3    3    0    0 -0.21309527900E+02 -0.51190428413E+02 -0.48703766272E+02  0.73801170651E+02  0.00000000000E+00 0.  1.
         14    1    3    3    0    0  0.38473349383E+02 -0.17338972154E+02 -0.10125052164E+02  0.43397641058E+02  0.00000000000E+00 0. -1.
        -11    1    4    4    0    0  0.16155269348E+02 -0.17575572823E+02 -0.12039224593E+03  0.12273624716E+03  0.00000000000E+00 0. -1.
         11    1    4    4    0    0 -0.24860906583E+02  0.79842930772E+01  0.36594451680E+01  0.26366743277E+02  0.00000000000E+00 0.  1.
          1    1    1    2  501    0 -0.84581842477E+01  0.78120680313E+02 -0.86935401736E+02  0.11718423805E+03  0.00000000000E+00 0. -1.
<scales pt_clust_5="13000.00000" pt_clust_6="13000.00000" pt_clust_7="13000.00000" pt_clust_8="13000.00000" pt_clust_9="78.57723"></scales>
<clustering>
<clus scale="   72.690">  5  6 -1 -1</clus>
<clus scale="   78.577">  2  9  1 -1</clus>
<clus scale="   82.907">  1  5  2 -1</clus>
<clus scale="   91.855">  7  8 -1 -1</clus>
<clus scale="   78.577">  2  5  1 -1</clus>
</clustering>
</event>
<event>
 9    2  0.4883225E-005  0.1282118E+03  0.7546771E-02  0.1233428E+00
         21   -1    0    0  501  502  0.00000000000E+00  0.00000000000E+00  0.63581319393E+02  0.63581319393E+02  0.00000000000E+00 0.  1.
          2   -1    0    0  502    0 -0.00000000000E+00 -0.00000000000E+00 -0.69449655877E+03  0.69449655877E+03  0.00000000000E+00 0. -1.
         24    2    1    2    0    0 -0.62929184459E+02 -0.94222261401E+02 -0.31620764614E+03  0.34528110881E+03  0.79961564653E+02 0.  0.
         23    2    1    2    0    0  0.72150970285E+02 -0.23051857648E+02 -0.62763477011E+02  0.13474264147E+03  0.92082434429E+02 0.  0.
        -11    1    3    3    0    0 -0.68801717540E+02 -0.56129610203E+02 -0.27444293511E+03  0.28844953477E+03  0.00000000000E+00 0.  1.
         12    1    3    3    0    0  0.58725330815E+01 -0.38092651198E+02 -0.41764711034E+02  0.56831574040E+02  0.00000000000E+00 0. -1.
        -13    1    4    4    0    0  0.27638627371E+02 -0.39661677763E+02 -0.71625633190E+02  0.86412810021E+02  0.00000000000E+00 0. -1.
         13    1    4    4    0    0  0.44512342914E+02  0.16609820115E+02  0.88621561786E+01  0.48329831451E+02  0.00000000000E+00 0.  1.
          1    1    1    2  501    0 -0.92217858258E+01  0.11727411905E+03 -0.25194411623E+03  0.27805412788E+03  0.00000000000E+00 0. -1.
<scales pt_clust_5="13000.00000" pt_clust_6="13000.00000" pt_clust_7="13000.00000" pt_clust_8="13000.00000" pt_clust_9="117.63619"></scales>
<clustering>
<clus scale="   79.962">  5  6 -1 -1</clus>
<clus scale="   92.082">  7  8 -1 -1</clus>
<clus scale="  117.636">  1  9  2 -1</clus>
<clus scale="  119.804">  2  5  1 -1</clus>
<clus scale="  117.636">  1  5  2 -1</clus>
</clustering>
</event>
<event>
 9    2  0.4883225E-005  0.1016119E+03  0.7546771E-02  0.1281658E+00
          2   -1    0    0  502    0 -0.00000000000E+00  0.00000000000E+00  0.67553684271E+03  0.67553684271E+03  0.00000000000E+00 0. -1.
         21   -1    0    0  501  502  0.00000000000E+00 -0.00000000000E+00 -0.88011450642E+02  0.88011450642E+02  0.00000000000E+00 0.  1.
         24    2    1    2    0    0  0.34436071441E+02  0.26970756591E+02  0.48296220649E+03  0.49161790004E+03  0.80761389369E+02 0.  0.
         23    2    1    2    0    0 -0.47513041225E+02 -0.75995705774E+02 -0.27530035598E+02  0.13042748924E+03  0.90667473253E+02 0.  0.
        -13    1    3    3    0    0  0.11347732539E+02  0.41003810863E+02  0.11420704373E+03  0.12187424821E+03  0.00000000000E+00 0.  1.
         14    1    3    3    0    0  0.23088338901E+02 -0.14033054272E+02  0.36875516276E+03  0.36974365183E+03  0.00000000000E+00 0. -1.
        -13    1    4    4    0    0 -0.22521120132E+02  0.18176113988E+02  0.82850225682E+00  0.28952692236E+02  0.00000000000E+00 0. -1.
         13    1    4    4    0    0 -0.24991921094E+02 -0.94171819762E+02 -0.28358537855E+02  0.10147479700E+03  0.00000000000E+00 0.  1.
          1    1    1    2  501    0  0.13076969785E+02  0.49024949183E+02  0.13209322117E+03  0.14150290407E+03  0.00000000000E+00 0. -1.
<scales pt_clust_5="13000.00000" pt_clust_6="13000.00000" pt_clust_7="13000.00000" pt_clust_8="13000.00000" pt_clust_9="50.73909"></scales>
<clustering>
<clus scale="   50.739">  2  9  1 -1</clus>
<clus scale="   80.761">  5  6 -1 -1</clus>
<clus scale="   90.667">  7  8 -1 -1</clus>
<clus scale="   92.880">  1  5  2 -1</clus>
<clus scale="   50.739">  2  5  1 -1</clus>
</clustering>
</event>
<event>
 9    2  0.4883225E-005  0.1794452E+03  0.7546771E-02  0.1169275E+00
          2   -1    0    0  502    0 -0.00000000000E+00  0.00000000000E+00  0.15215201988E+04  0.15215201988E+04  0.00000000000E+00 0. -1.
         21   -1    0    0  501  502  0.00000000000E+00 -0.00000000000E+00 -0.12703156587E+03  0.12703156587E+03  0.00000000000E+00 0. -1.
         24    2    1    2    0    0 -0.60679189489E+02 -0.13911217142E+03  0.11414739496E+04  0.11545010051E+04  0.82919435936E+02 0.  0.
         23    2    1    2    0    0  0.21529530810E+03  0.96992170154E+02  0.20830111224E+03  0.32767906104E+03  0.90689927346E+02 0.  0.
        -11    1    3    3    0    0 -0.22470685643E+02  0.47878094075E+01  0.11359727095E+03  0.11589734595E+03  0.00000000000E+00 0.  1.
         12    1    3    3    0    0 -0.38208503846E+02 -0.14389998083E+03  0.10278766786E+04  0.10386036591E+04  0.00000000000E+00 0. -1.
        -11    1    4    4    0    0  0.97530518580E+02  0.88211435636E+02  0.13615750064E+03  0.18929427992E+03  0.00000000000E+00 0.  1.
         11    1    4    4    0    0  0.11776478952E+03  0.87807345180E+01  0.72143611603E+02  0.13838478112E+03  0.00000000000E+00 0. -1.
          1    1    1    2  501    0 -0.15461611862E+03  0.42120001264E+02  0.44713571111E+02  0.16637169857E+03  0.00000000000E+00 0. -1.
<scales pt_clust_5="13000.00000" pt_clust_6="13000.00000" pt_clust_7="13000.00000" pt_clust_8="13000.00000" pt_clust_9="160.25055"></scales>
<clustering>
<clus scale="   82.919">  5  6 -1 -1</clus>
<clus scale="   90.690">  7  8 -1 -1</clus>
<clus scale="  160.251">  2  9  1 -1</clus>
<clus scale="  175.646">  1  5  2 -1</clus>
<clus scale="  160.251">  2  5  1 -1</clus>
</clustering>
</event>
<event>
 9    2  0.4883225E-005  0.9487493E+02  0.7546771E-02  0.1297339E+00
          2   -1    0    0  502    0 -0.00000000000E+00  0.00000000000E+00  0.10452515236E+04  0.10452515236E+04  0.00000000000E+00 0. -1.
         21   -1    0    0  501  502  0.00000000000E+00 -0.00000000000E+00 -0.21766096164E+02  0.21766096164E+02  0.00000000000E+00 0. -1.
         24    2    1    2    0    0 -0.33841056941E+02  0.49054474378E+02  0.45967949821E+03  0.47043867261E+03  0.80347651007E+02 0.  0.
         23    2    1    2    0    0 -0.18802293412E+02  0.27209741418E+02  0.21505990009E+03  0.23573085476E+03  0.90688361939E+02 0.  0.
        -13    1    3    3    0    0 -0.19201780649E+02  0.74296419707E+01  0.20521492442E+02  0.29069565046E+02  0.00000000000E+00 0.  1.
         14    1    3    3    0    0 -0.14639276292E+02  0.41624832408E+02  0.43915800577E+03  0.44136910757E+03  0.00000000000E+00 0. -1.
        -13    1    4    4    0    0 -0.36994540497E+02  0.50787652540E+02  0.17408311439E+03  0.18507542353E+03  0.00000000000E+00 0. -1.
         13    1    4    4    0    0  0.18192247085E+02 -0.23577911122E+02  0.40976785703E+02  0.50655431233E+02  0.00000000000E+00 0.  1.
          1    1    1    2  501    0  0.52643350353E+02 -0.76264215797E+02  0.34874602908E+03  0.36084809234E+03  0.00000000000E+00 0. -1.
<scales pt_clust_5="13000.00000" pt_clust_6="13000.00000" pt_clust_7="13000.00000" pt_clust_8="13000.00000" pt_clust_9="92.66910"></scales>
<clustering>
<clus scale="   80.348">  5  6 -1 -1</clus>
<clus scale="   90.688">  7  8 -1 -1</clus>
<clus scale="   92.669">  2  9  1 -1</clus>
<clus scale="   85.045">  1  5  2 -1</clus>
<clus scale="   92.669">  2  5  1 -1</clus>
</clustering>
</event>
<event>
 9    2  0.4883225E-005  0.1573213E+03  0.7546771E-02  0.1193672E+00
         -1   -1    0    0    0  501 -0.00000000000E+00  0.00000000000E+00  0.24841679750E+03  0.24841679750E+03  0.00000000000E+00 0.  1.
         21   -1    0    0  501  502  0.00000000000E+00 -0.00000000000E+00 -0.18568884389E+03  0.18568884389E+03  0.00000000000E+00 0.  1.
         23    2    1    2    0    0 -0.66913787263E+02 -0.44675438319E+02  0.10169017039E+01  0.12259405222E+03  0.92492798838E+02 0.  0.
         24    2    1    2    0    0  0.14039424498E+03  0.10029157206E+03  0.95732980773E+02  0.21327705531E+03  0.80952796504E+02 0.  0.
        -13    1    4    4    0    0  0.15024779614E+03  0.98572578982E+02  0.94960748170E+02  0.20324491941E+03  0.00000000000E+00 0.  1.
         14    1    4    4    0    0 -0.98535511535E+01  0.17189930777E+01  0.77223260240E+00  0.10032135901E+02  0.00000000000E+00 0. -1.
        -11    1    3    3    0    0 -0.39595834488E+01 -0.52890648505E+02 -0.18502326212E+02  0.56173259436E+02  0.00000000000E+00 0.  1.
         11    1    3    3    0    0 -0.62954203814E+02  0.82152101862E+01  0.19519227916E+02  0.66420792789E+02  0.00000000000E+00 0. -1.
         -2    1    1    2    0  502 -0.73480457720E+02 -0.55616133741E+02 -0.34021928860E+02  0.98234533858E+02  0.00000000000E+00 0.  1.
<scales pt_clust_5="13000.00000" pt_clust_6="13000.00000" pt_clust_7="13000.00000" pt_clust_8="13000.00000" pt_clust_9="92.15493"></scales>
<clustering>
<clus scale="   80.953">  5  6 -1 -1</clus>
<clus scale="   92.155">  2  9  1 -1</clus>
<clus scale="   92.493">  7  8 -1 -1</clus>
<clus scale="  150.826">  2  5  1 -1</clus>
<clus scale="   92.155">  2  5  1 -1</clus>
</clustering>
</event>
<event>
 9    2  0.5369240E-005  0.1127548E+03  0.7546771E-02  0.1266207E+00
          2   -1    0    0  502    0 -0.00000000000E+00  0.00000000000E+00  0.55082179903E+03  0.55082179903E+03  0.00000000000E+00 0. -1.
         21   -1    0    0  501  502  0.00000000000E+00 -0.00000000000E+00 -0.86172900240E+02  0.86172900240E+02  0.00000000000E+00 0.  1.
         23    2    1    2    0    0 -0.19148969857E+02 -0.43125214208E+02  0.47937776305E+03  0.49285947655E+03  0.10431182468E+03 0.  0.
         24    2    1    2    0    0 -0.50202422320E+01  0.27073809146E+02  0.30257407232E+02  0.90604268684E+02  0.80841999218E+02 0.  0.
        -13    1    4    4    0    0 -0.15386858580E+02  0.25905181941E+02 -0.22005370541E+02  0.37310456993E+02  0.00000000000E+00 0.  1.
         14    1    4    4    0    0  0.10366616348E+02  0.11686272053E+01  0.52262777773E+02  0.53293811691E+02  0.00000000000E+00 0. -1.
        -11    1    3    3    0    0 -0.18959624969E+02 -0.77030128118E+02  0.30036977334E+03  0.31066880879E+03  0.00000000000E+00 0. -1.
         11    1    3    3    0    0 -0.18934488755E+00  0.33904913909E+02  0.17900798971E+03  0.18219066776E+03  0.00000000000E+00 0.  1.
          1    1    1    2  501    0  0.24169212089E+02  0.16051405062E+02 -0.44986271492E+02  0.53530954038E+02  0.00000000000E+00 0. -1.
<scales pt_clust_5="13000.00000" pt_clust_6="13000.00000" pt_clust_7="13000.00000" pt_clust_8="13000.00000" pt_clust_9="29.01376"></scales>
<clustering>
<clus scale="   29.014">  2  9  1 -1</clus>
<clus scale="   80.842">  5  6 -1 -1</clus>
<clus scale="   91.477">  2  5  1 -1</clus>
<clus scale="  104.312">  7  8 -1 -1</clus>
<clus scale="   29.014">  2  5  1 -1</clus>
</clustering>
</event>
<event>
 9    2  0.4883225E-005  0.2603049E+03  0.7546771E-02  0.1107311E+00
         21   -1    0    0  501  502  0.00000000000E+00  0.00000000000E+00  0.35060099790E+03  0.35060099790E+03  0.00000000000E+00 0.  1.
         -3   -1    0    0    0  501 -0.00000000000E+00 -0.00000000000E+00 -0.30094964773E+03  0.30094964773E+03  0.00000000000E+00 0.  1.
         24    2    1    2    0    0 -0.10309596392E+02  0.25811211720E+03 -0.14189135707E+03  0.30559471348E+03  0.80788729856E+02 0.  0.
         23    2    1    2    0    0  0.17089238023E+02 -0.21361467640E+03  0.11858864901E+03  0.26023382069E+03  0.87949427116E+02 0.  0.
        -13    1    3    3    0    0  0.29469429408E+02  0.11902495021E+03 -0.89210137277E+02  0.15163718091E+03  0.00000000000E+00 0.  1.
         14    1    3    3    0    0 -0.39779025799E+02  0.13908716699E+03 -0.52681219791E+02  0.15395753257E+03  0.00000000000E+00 0. -1.
        -11    1    4    4    0    0 -0.28256603391E+02 -0.29844627047E+02  0.31993960835E+02  0.52084075577E+02  0.00000000000E+00 0.  1.
         11    1    4    4    0    0  0.45345841415E+02 -0.18377004935E+03  0.86594688174E+02  0.20814974512E+03  0.00000000000E+00 0. -1.
         -4    1    1    2    0  502 -0.67796416313E+01 -0.44497440807E+02  0.72954058237E+02  0.85722111455E+02  0.00000000000E+00 0.  1.
<scales pt_clust_5="13000.00000" pt_clust_6="13000.00000" pt_clust_7="13000.00000" pt_clust_8="13000.00000" pt_clust_9="45.01095"></scales>
<clustering>
<clus scale="   45.011">  1  9  2 -1</clus>
<clus scale="   80.789">  5  6 -1 -1</clus>
<clus scale="   87.949">  7  8 -1 -1</clus>
<clus scale="  257.974">  2  5  1 -1</clus>
<clus scale="   45.011">  1  5  2 -1</clus>
</clustering>
</event>
<event>
 9    2  0.4883225E-005  0.9551009E+02  0.7546771E-02  0.1294883E+00
         21   -1    0    0  501  502  0.00000000000E+00  0.00000000000E+00  0.79850230127E+02  0.79850230127E+02  0.00000000000E+00 0. -1.
          2   -1    0    0  502    0 -0.00000000000E+00 -0.00000000000E+00 -0.21802764313E+03  0.21802764313E+03  0.00000000000E+00 0. -1.
         24    2    1    2    0    0  0.44392327298E+00 -0.12955248771E+02 -0.23313819096E+02  0.83700415140E+02  0.79335930039E+02 0.  0.
         23    2    1    2    0    0 -0.54004096641E+02  0.44427903727E+02 -0.46742384517E+02  0.12198353560E+03  0.88345069825E+02 0.  0.
        -11    1    3    3    0    0 -0.18631731295E+02 -0.17806885425E+02 -0.46574306651E+02  0.53229621637E+02  0.00000000000E+00 0.  1.
         12    1    3    3    0    0  0.19075654568E+02  0.48516366545E+01  0.23260487555E+02  0.30470793503E+02  0.00000000000E+00 0. -1.
        -11    1    4    4    0    0 -0.94101616165E+01  0.20005890343E+02  0.25432333306E+02  0.33698521740E+02  0.00000000000E+00 0.  1.
         11    1    4    4    0    0 -0.44593935025E+02  0.24422013384E+02 -0.72174717823E+02  0.88285013856E+02  0.00000000000E+00 0. -1.
          1    1    1    2  501    0  0.53560173368E+02 -0.31472654956E+02 -0.68121209391E+02  0.92193922522E+02  0.00000000000E+00 0. -1.
<scales pt_clust_5="13000.00000" pt_clust_6="13000.00000" pt_clust_7="13000.00000" pt_clust_8="13000.00000" pt_clust_9="62.12265"></scales>
<clustering>
<clus scale="   62.123">  1  9  2 -1</clus>
<clus scale="   79.336">  5  6 -1 -1</clus>
<clus scale="   87.244">  2  5  1 -1</clus>
<clus scale="   88.345">  7  8 -1 -1</clus>
<clus scale="   62.123">  1  5  2 -1</clus>
</clustering>
</event>
<event>
 9    2  0.4883225E-005  0.9640691E+02  0.7546771E-02  0.1294578E+00
         21   -1    0    0  501  502  0.00000000000E+00  0.00000000000E+00  0.60485563598E+02  0.60485563598E+02  0.00000000000E+00 0. -1.
         -1   -1    0    0    0  501 -0.00000000000E+00 -0.00000000000E+00 -0.33607757449E+03  0.33607757449E+03  0.00000000000E+00 0.  1.
         24    2    1    2    0    0 -0.19693894077E+02  0.27936286280E+02 -0.24828635106E+03  0.26276836926E+03  0.78948199499E+02 0.  0.
         23    2    1    2    0    0 -0.73997319551E+01 -0.32479122541E+02 -0.38517326618E+02  0.10412317628E+03  0.90820713246E+02 0.  0.
        -13    1    3    3    0    0 -0.42989626271E+02  0.28397644658E+02 -0.22081657981E+03  0.22674764852E+03  0.00000000000E+00 0.  1.
         14    1    3    3    0    0  0.23295732194E+02 -0.46135837868E+00 -0.27469771246E+02  0.36020720736E+02  0.00000000000E+00 0. -1.
        -11    1    4    4    0    0 -0.27464633437E+02 -0.57859694727E+02 -0.29641787893E+02  0.70573975042E+02  0.00000000000E+00 0. -1.
         11    1    4    4    0    0  0.20064901482E+02  0.25380572186E+02 -0.88755387240E+01  0.33549201236E+02  0.00000000000E+00 0.  1.
         -2    1    1    2    0  502  0.27093626032E+02  0.45428362617E+01  0.11211666780E+02  0.29671592557E+02  0.00000000000E+00 0.  1.
<scales pt_clust_5="13000.00000" pt_clust_6="13000.00000" pt_clust_7="13000.00000" pt_clust_8="13000.00000" pt_clust_9="27.47184"></scales>
<clustering>
<clus scale="   27.472">  1  9  2 -1</clus>
<clus scale="   78.948">  5  6 -1 -1</clus>
<clus scale="   85.315">  2  5  1 -1</clus>
<clus scale="   90.821">  7  8 -1 -1</clus>
<clus scale="   27.472">  1  5  2 -1</clus>
</clustering>
</event>
<event>
 9    2  0.4883225E-005  0.1361834E+03  0.7546771E-02  0.1243026E+00
          2   -1    0    0  502    0 -0.00000000000E+00  0.00000000000E+00  0.45114282830E+03  0.45114282830E+03  0.00000000000E+00 0. -1.
         21   -1    0    0  501  502  0.00000000000E+00 -0.00000000000E+00 -0.65699571121E+02  0.65699571121E+02  0.00000000000E+00 0. -1.
         24    2    1    2    0    0 -0.52342012534E+01  0.20506180484E+01  0.19633014496E+03  0.21285140795E+03  0.82028008319E+02 0.  0.
         23    2    1    2    0    0 -0.85203541680E+02  0.49599985616E+02  0.10827343335E+03  0.17215084627E+03  0.90515056293E+02 0.  0.
        -13    1    3    3    0    0  0.20681369192E+02 -0.13507770470E+02  0.14745682379E+02  0.28768281901E+02  0.00000000000E+00 0.  1.
         14    1    3    3    0    0 -0.25915570445E+02  0.15558388519E+02  0.18158446258E+03  0.18408312604E+03  0.00000000000E+00 0. -1.
        -11    1    4    4    0    0 -0.66774927563E+02  0.74009251437E+01  0.10668395924E+03  0.12607589699E+03  0.00000000000E+00 0.  1.
         11    1    4    4    0    0 -0.18428614117E+02  0.42199060472E+02  0.15894741066E+01  0.46074949278E+02  0.00000000000E+00 0. -1.
          1    1    1    2  501    0  0.90437742934E+02 -0.51650603664E+02  0.80839678875E+02  0.13184014520E+03  0.00000000000E+00 0. -1.
<scales pt_clust_5="13000.00000" pt_clust_6="13000.00000" pt_clust_7="13000.00000" pt_clust_8="13000.00000" pt_clust_9="101.74949"></scales>
<clustering>
<clus scale="   82.028">  5  6 -1 -1</clus>
<clus scale="   82.220">  1  5  2 -1</clus>
<clus scale="   90.515">  7  8 -1 -1</clus>
<clus scale="  101.749">  2  9  1 -1</clus>
<clus scale="  101.749">  2  5  1 -1</clus>
</clustering>
</event>
<event>
 9    2  0.4883225E-005  0.1154289E+03  0.7546771E-02  0.1256482E+00
         21   -1    0    0  501  502  0.00000000000E+00  0.00000000000E+00  0.25409592276E+03  0.25409592276E+03  0.00000000000E+00 0.  1.
         -1   -1    0    0    0  501 -0.00000000000E+00 -0.00000000000E+00 -0.84925649252E+02  0.84925649252E+02  0.00000000000E+00 0.  1.
         24    2    1    2    0    0  0.77435163976E+02  0.22139081947E+02  0.36685554355E+02  0.11953421910E+03  0.80350831162E+02 0.  0.
         23    2    1    2    0    0 -0.49517162369E+02  0.28941263129E+02  0.60198570286E+02  0.12667623405E+03  0.95569107599E+02 0.  0.
        -13    1    3    3    0    0  0.88165561988E+02 -0.95789513851E+00  0.26086258685E+02  0.91948772563E+02  0.00000000000E+00 0.  1.
         14    1    3    3    0    0 -0.10730398012E+02  0.23096977086E+02  0.10599295670E+02  0.27585446538E+02  0.00000000000E+00 0. -1.
        -13    1    4    4    0    0 -0.54907953879E+02  0.58761527014E+02  0.50019247054E+02  0.94708634939E+02  0.00000000000E+00 0.  1.
         13    1    4    4    0    0  0.53907915100E+01 -0.29820263885E+02  0.10179323232E+02  0.31967599108E+02  0.00000000000E+00 0. -1.
         -2    1    1    2    0  502 -0.27918001607E+02 -0.51080345076E+02  0.72286148868E+02  0.92811118865E+02  0.00000000000E+00 0.  1.
<scales pt_clust_5="13000.00000" pt_clust_6="13000.00000" pt_clust_7="13000.00000" pt_clust_8="13000.00000" pt_clust_9="58.21182"></scales>
<clustering>
<clus scale="   58.212">  1  9  2 -1</clus>
<clus scale="   80.351">  5  6 -1 -1</clus>
<clus scale="   95.569">  7  8 -1 -1</clus>
<clus scale="  103.182">  2  5  1 -1</clus>
<clus scale="   58.212">  1  5  2 -1</clus>
</clustering>
</event>
<event>
 9    2  0.4883225E-005  0.1065241E+03  0.7546771E-02  0.1279612E+00
         21   -1    0    0  501  502  0.00000000000E+00  0.00000000000E+00  0.73774831948E+02  0.73774831948E+02  0.00000000000E+00 0.  1.
          4   -1    0    0  502    0 -0.00000000000E+00 -0.00000000000E+00 -0.28232966584E+03  0.28232966584E+03  0.00000000000E+00 0. -1.
         24    2    1    2    0    0  0.40534573171E+01 -0.38707544885E+02 -0.41576285809E+02  0.93557743595E+02  0.74227752881E+02 0.  0.
         23    2    1    2    0    0  0.57211528695E+02 -0.21211974125E+02 -0.40639342878E+02  0.10988588153E+03  0.81855017614E+02 0.  0.
        -13    1    3    3    0    0 -0.22113263805E+02  0.13148023071E+02 -0.13042671827E+02  0.28844032921E+02  0.00000000000E+00 0.  1.
         14    1    3    3    0    0  0.26166721122E+02 -0.51855567956E+02 -0.28533613982E+02  0.64713710674E+02  0.00000000000E+00 0. -1.
        -13    1    4    4    0    0  0.32863989502E+02 -0.92866087867E-01 -0.62725856701E+02  0.70813724158E+02  0.00000000000E+00 0. -1.
         13    1    4    4    0    0  0.24347539192E+02 -0.21119108037E+02  0.22086513824E+02  0.39072157374E+02  0.00000000000E+00 0.  1.
          3    1    1    2  501    0 -0.61264986012E+02  0.59919519010E+02 -0.12633920520E+03  0.15266087266E+03  0.00000000000E+00 0. -1.
<scales pt_clust_5="13000.00000" pt_clust_6="13000.00000" pt_clust_7="13000.00000" pt_clust_8="13000.00000" pt_clust_9="68.17002"></scales>
<clustering>
<clus scale="   74.228">  5  6 -1 -1</clus>
<clus scale="   81.855">  7  8 -1 -1</clus>
<clus scale="   83.812">  2  5  1 -1</clus>
<clus scale="   68.170">  1  9  2 -1</clus>
<clus scale="   68.170">  1  5  2 -1</clus>
</clustering>
</event>
<event>
 9    2  0.4883225E-005  0.1006264E+03  0.7546771E-02  0.1285353E+00
         21   -1    0    0  501  502  0.00000000000E+00  0.00000000000E+00  0.20096849057E+02  0.20096849057E+02  0.00000000000E+00 0.  1.
          2   -1    0    0  502    0 -0.00000000000E+00 -0.00000000000E+00 -0.12568135029E+04  0.12568135029E+04  0.00000000000E+00 0. -1.
         24    2    1    2    0    0 -0.40589528420E+02 -0.46452712421E+01 -0.98814080076E+03  0.99228320646E+03  0.80837066669E+02 0.  0.
         23    2    1    2    0    0  0.12257105129E+02  0.47559212522E+00 -0.11794506656E+03  0.15089414723E+03  0.93314211837E+02 0.  0.
        -11    1    3    3    0    0 -0.12152607456E+02  0.20100500388E+02 -0.80420432769E+02  0.83780439188E+02  0.00000000000E+00 0.  1.
         12    1    3    3    0    0 -0.28436920964E+02 -0.24745771630E+02 -0.90772036799E+03  0.90850276728E+03  0.00000000000E+00 0. -1.
        -13    1    4    4    0    0  0.43446965368E+02 -0.27717109129E+02 -0.56867788831E+02  0.76745177990E+02  0.00000000000E+00 0.  1.
         13    1    4    4    0    0 -0.31189860239E+02  0.28192701254E+02 -0.61077277726E+02  0.74148969245E+02  0.00000000000E+00 0. -1.
          1    1    1    2  501    0  0.28332423291E+02  0.41696791169E+01 -0.13063078648E+03  0.13373299821E+03  0.00000000000E+00 0. -1.
<scales pt_clust_5="13000.00000" pt_clust_6="13000.00000" pt_clust_7="13000.00000" pt_clust_8="13000.00000" pt_clust_9="28.63762"></scales>
<clustering>
<clus scale="   28.638">  1  9  2 -1</clus>
<clus scale="   80.837">  5  6 -1 -1</clus>
<clus scale="   89.178">  2  5  1 -1</clus>
<clus scale="   93.314">  7  8 -1 -1</clus>
<clus scale="   28.638">  1  5  2 -1</clus>
</clustering>
</event>
<event>
 9    2  0.4883225E-005  0.1903767E+03  0.7546771E-02  0.1158317E+00
         21   -1    0    0  501  502  0.00000000000E+00  0.00000000000E+00  0.32049643362E+03  0.32049643362E+03  0.00000000000E+00 0. -1.
          2   -1    0    0  502    0 -0.00000000000E+00 -0.00000000000E+00 -0.27445549459E+03  0.27445549459E+03  0.00000000000E+00 0. -1.
         24    2    1    2    0    0  0.15254588571E+03  0.81698398998E+02  0.11168263125E+01  0.19081461213E+03  0.80399584931E+02 0.  0.
         23    2    1    2    0    0  0.20310979333E+02 -0.17079923011E+03 -0.27103166304E+02  0.19675751277E+03  0.91618908087E+02 0.  0.
        -11    1    3    3    0    0  0.10893740564E+02  0.26194840747E+02  0.23754493901E+02  0.37001611393E+02  0.00000000000E+00 0.  1.
         12    1    3    3    0    0  0.14165214515E+03  0.55503558252E+02 -0.22637667588E+02  0.15381300074E+03  0.00000000000E+00 0. -1.
        -13    1    4    4    0    0  0.53737216768E+01 -0.46321987465E+02  0.33587978800E+02  0.57469606987E+02  0.00000000000E+00 0.  1.
         13    1    4    4    0    0  0.14937257656E+02 -0.12447724265E+03 -0.60691145103E+02  0.13928790578E+03  0.00000000000E+00 0. -1.
          1    1    1    2  501    0 -0.17285686504E+03  0.89100831116E+02  0.72027279023E+02  0.20737980331E+03  0.00000000000E+00 0. -1.
<scales pt_clust_5="13000.00000" pt_clust_6="13000.00000" pt_clust_7="13000.00000" pt_clust_8="13000.00000" pt_clust_9="166.38601"></scales>
<clustering>
<clus scale="   80.400">  5  6 -1 -1</clus>
<clus scale="   91.619">  7  8 -1 -1</clus>
<clus scale="  190.811">  2  5  1 -1</clus>
<clus scale="  166.386">  1  9  2 -1</clus>
<clus scale="  166.386">  1  5  2 -1</clus>
</clustering>
</event>
<event>
 9    2  0.4883225E-005  0.3396018E+03  0.7546771E-02  0.1088015E+00
         21   -1    0    0  501  502  0.00000000000E+00  0.00000000000E+00  0.55060337674E+03  0.55060337674E+03  0.00000000000E+00 0.  1.
         -1   -1    0    0    0  501 -0.00000000000E+00 -0.00000000000E+00 -0.71352990745E+03  0.71352990745E+03  0.00000000000E+00 0.  1.
         24    2    1    2    0    0  0.13129568980E+02  0.17500542955E+03 -0.21472547563E+03  0.28811328370E+03  0.78121369727E+02 0.  0.
         23    2    1    2    0    0  0.28740135183E+03 -0.17891275835E+03  0.38957740141E+03  0.52388242490E+03  0.89849492487E+02 0.  0.
        -11    1    3    3    0    0  0.12986635951E+02  0.17032276875E+03 -0.22159972070E+03  0.27979445041E+03  0.00000000000E+00 0.  1.
         12    1    3    3    0    0  0.14293302933E+00  0.46826608040E+01  0.68742450699E+01  0.83188332918E+01  0.00000000000E+00 0. -1.
        -11    1    4    4    0    0  0.17250495277E+03 -0.55273625866E+02  0.19024480010E+03  0.26269034320E+03  0.00000000000E+00 0.  1.
         11    1    4    4    0    0  0.11489639906E+03 -0.12363913249E+03  0.19933260131E+03  0.26119208170E+03  0.00000000000E+00 0. -1.
         -2    1    1    2    0  502 -0.30053092081E+03  0.39073288025E+01 -0.33777845649E+03  0.45213757558E+03  0.00000000000E+00 0.  1.
<scales pt_clust_5="13000.00000" pt_clust_6="13000.00000" pt_clust_7="13000.00000" pt_clust_8="13000.00000" pt_clust_9="327.50046"></scales>
<clustering>
<clus scale="   78.121">  5  6 -1 -1</clus>
<clus scale="   89.849">  7  8 -1 -1</clus>
<clus scale="  192.100">  2  5  1 -1</clus>
<clus scale="  327.500">  1  9  2 -1</clus>
<clus scale="  327.500">  1  5  2 -1</clus>
</clustering>
</event>
<event>
 9    2  0.4883225E-005  0.1118235E+03  0.7546771E-02  0.1261713E+00
         21   -1    0    0  501  502  0.00000000000E+00  0.00000000000E+00  0.20446216456E+03  0.20446216456E+03  0.00000000000E+00 0.  1.
         -1   -1    0    0    0  501 -0.00000000000E+00 -0.00000000000E+00 -0.13956271255E+03  0.13956271255E+03  0.00000000000E+00 0.  1.
         24    2    1    2    0    0  0.46722521288E+02 -0.47500712029E+02 -0.13141458108E+02  0.10524044148E+03  0.80396150172E+02 0.  0.
         23    2    1    2    0    0 -0.17442437081E+02  0.54807742119E+02  0.13564004245E+03  0.17375847109E+03  0.92117631073E+02 0.  0.
        -11    1    3    3    0    0  0.50540736741E+02 -0.66794161940E+02 -0.48631265890E+01  0.83901586039E+02  0.00000000000E+00 0.  1.
         12    1    3    3    0    0 -0.38182154531E+01  0.19293449911E+02 -0.82783315187E+01  0.21338855439E+02  0.00000000000E+00 0. -1.
        -11    1    4    4    0    0  0.22042691566E+02 -0.15234514163E+02  0.46860513886E+02  0.53980352304E+02  0.00000000000E+00 0. -1.
         11    1    4    4    0    0 -0.39485128647E+02  0.70042256282E+02  0.88779528562E+02  0.11977811879E+03  0.00000000000E+00 0.  1.
         -2    1    1    2    0  502 -0.29280084207E+02 -0.73070300900E+01 -0.57599132322E+02  0.65025964538E+02  0.00000000000E+00 0.  1.
<scales pt_clust_5="13000.00000" pt_clust_6="13000.00000" pt_clust_7="13000.00000" pt_clust_8="13000.00000" pt_clust_9="30.17809"></scales>
<clustering>
<clus scale="   30.178">  1  9  2 -1</clus>
<clus scale="   80.396">  5  6 -1 -1</clus>
<clus scale="   92.118">  7  8 -1 -1</clus>
<clus scale="  102.384">  2  5  1 -1</clus>
<clus scale="   30.178">  1  5  2 -1</clus>
</clustering>
</event>
<event>
 9    2  0.4883225E-005  0.1029078E+03  0.7546771E-02  0.1278314E+00
         21   -1    0    0  501  502  0.00000000000E+00  0.00000000000E+00  0.21373270862E+02  0.21373270862E+02  0.00000000000E+00 0. -1.
          2   -1    0    0  502    0 -0.00000000000E+00 -0.00000000000E+00 -0.11778562824E+04  0.11778562824E+04  0.00000000000E+00 0. -1.
         24    2    1    2    0    0 -0.41554566548E+02  0.39397699304E+02 -0.76262854648E+03  0.76912113860E+03  0.81645974908E+02 0.  0.
         23    2    1    2    0    0 -0.14394642237E+02 -0.29471908499E+02 -0.13924286558E+03  0.16923315353E+03  0.90418391496E+02 0.  0.
        -13    1    3    3    0    0  0.17542034988E+02  0.20878953143E+02 -0.10153939185E+03  0.10513753741E+03  0.00000000000E+00 0.  1.
         14    1    3    3    0    0 -0.59096601536E+02  0.18518746161E+02 -0.66108915463E+03  0.66398360118E+03  0.00000000000E+00 0. -1.
        -11    1    4    4    0    0 -0.11066370148E+01 -0.54611289390E+02 -0.44930524788E+02  0.70727431963E+02  0.00000000000E+00 0. -1.
         11    1    4    4    0    0 -0.13288005223E+02  0.25139380891E+02 -0.94312340796E+02  0.98505721564E+02  0.00000000000E+00 0.  1.
          1    1    1    2  501    0  0.55949208786E+02 -0.99257908053E+01 -0.25461159943E+03  0.26087526109E+03  0.00000000000E+00 0. -1.
<scales pt_clust_5="13000.00000" pt_clust_6="13000.00000" pt_clust_7="13000.00000" pt_clust_8="13000.00000" pt_clust_9="56.82287"></scales>
<clustering>
<clus scale="   56.823">  1  9  2 -1</clus>
<clus scale="   81.646">  5  6 -1 -1</clus>
<clus scale="   90.418">  7  8 -1 -1</clus>
<clus scale="   95.292">  2  5  1 -1</clus>
<clus scale="   56.823">  1  5  2 -1</clus>
</clustering>
</event>
<event>
 9    2  0.4883225E-005  0.1094945E+03  0.7546771E-02  0.1265551E+00
          2   -1    0    0  502    0 -0.00000000000E+00  0.00000000000E+00  0.11627104745E+04  0.11627104745E+04  0.00000000000E+00 0. -1.
         21   -1    0    0  501  502  0.00000000000E+00 -0.00000000000E+00 -0.35516398263E+02  0.35516398263E+02  0.00000000000E+00 0. -1.
         24    2    1    2    0    0 -0.57776612755E+02 -0.16986943742E+02  0.89443502619E+03  0.90011396664E+03  0.81021254226E+02 0.  0.
         23    2    1    2    0    0  0.42411510346E+02  0.66482023672E+02  0.20859933204E+03  0.24093300333E+03  0.91194490422E+02 0.  0.
        -13    1    3    3    0    0 -0.15430702244E+02  0.20047643248E+02  0.83953563623E+02  0.87682469265E+02  0.00000000000E+00 0.  1.
         14    1    3    3    0    0 -0.42345910511E+02 -0.37034586990E+02  0.81048146256E+03  0.81243149738E+03  0.00000000000E+00 0. -1.
        -11    1    4    4    0    0  0.59407619571E+02  0.98250148458E+01  0.12213154901E+03  0.13616868745E+03  0.00000000000E+00 0.  1.
         11    1    4    4    0    0 -0.16996109225E+02  0.56657008827E+02  0.86467783031E+02  0.10476431587E+03  0.00000000000E+00 0. -1.
          1    1    1    2  501    0  0.15365102409E+02 -0.49495079931E+02  0.24159718013E+02  0.57179902797E+02  0.00000000000E+00 0. -1.
<scales pt_clust_5="13000.00000" pt_clust_6="13000.00000" pt_clust_7="13000.00000" pt_clust_8="13000.00000" pt_clust_9="51.82518"></scales>
<clustering>
<clus scale="   51.825">  2  9  1 -1</clus>
<clus scale="   81.021">  5  6 -1 -1</clus>
<clus scale="   91.194">  7  8 -1 -1</clus>
<clus scale="  101.178">  1  5  2 -1</clus>
<clus scale="   51.825">  2  5  1 -1</clus>
</clustering>
</event>
<event>
 9    2  0.4883225E-005  0.1540315E+03  0.7546771E-02  0.1200171E+00
         21   -1    0    0  501  502  0.00000000000E+00  0.00000000000E+00  0.60344197161E+02  0.60344197161E+02  0.00000000000E+00 0.  1.
          2   -1    0    0  502    0 -0.00000000000E+00 -0.00000000000E+00 -0.84550538746E+03  0.84550538746E+03  0.00000000000E+00 0. -1.
         24    2    1    2    0    0 -0.10562938180E+03 -0.28134901210E+02 -0.53681698278E+03  0.55351112646E+03  0.79075629326E+02 0.  0.
         23    2    1    2    0    0  0.11277014699E+03  0.90052044601E+02 -0.22370505686E+03  0.28531748444E+03  0.10264325439E+03 0.  0.
        -13    1    3    3    0    0 -0.24548335174E+02 -0.43251556414E+00 -0.26797444545E+02  0.36344337436E+02  0.00000000000E+00 0.  1.
         14    1    3    3    0    0 -0.81081046623E+02 -0.27702385646E+02 -0.51001953823E+03  0.51716678903E+03  0.00000000000E+00 0. -1.
        -13    1    4    4    0    0  0.85831282934E+02  0.10730418731E+03 -0.14211941517E+03  0.19768440988E+03  0.00000000000E+00 0.  1.
         13    1    4    4    0    0  0.26938864051E+02 -0.17252142708E+02 -0.81585641697E+02  0.87633074552E+02  0.00000000000E+00 0. -1.
          1    1    1    2  501    0 -0.71407651882E+01 -0.61917143391E+02 -0.24639150655E+02  0.67020973719E+02  0.00000000000E+00 0. -1.
<scales pt_clust_5="13000.00000" pt_clust_6="13000.00000" pt_clust_7="13000.00000" pt_clust_8="13000.00000" pt_clust_9="62.32755"></scales>
<clustering>
<clus scale="   62.328">  1  9  2 -1</clus>
<clus scale="   79.076">  5  6 -1 -1</clus>
<clus scale="  102.643">  7  8 -1 -1</clus>
<clus scale="  139.438">  2  5  1 -1</clus>
<clus scale="   62.328">  1  5  2 -1</clus>
</clustering>
</event>
<event>
 9    2  0.4883225E-005  0.1014941E+03  0.7546771E-02  0.1283105E+00
         21   -1    0    0  501  502  0.00000000000E+00  0.00000000000E+00  0.59563482157E+02  0.59563482157E+02  0.00000000000E+00 0. -1.
         -1   -1    0    0    0  501 -0.00000000000E+00 -0.00000000000E+00 -0.37642490705E+03  0.37642490705E+03  0.00000000000E+00 0.  1.
         24    2    1    2    0    0  0.38251727831E+02  0.22089130227E+01 -0.28320446390E+03  0.29704086990E+03  0.80996518664E+02 0.  0.
         23    2    1    2    0    0 -0.57892094045E+02  0.83516865152E+01 -0.17022044665E+02  0.11112683117E+03  0.92941795657E+02 0.  0.
        -13    1    3    3    0    0  0.57330206130E+02  0.22641681739E+02 -0.19303603879E+03  0.20263837385E+03  0.00000000000E+00 0.  1.
         14    1    3    3    0    0 -0.19078478298E+02 -0.20432768716E+02 -0.90168425114E+02  0.94402496043E+02  0.00000000000E+00 0. -1.
        -13    1    4    4    0    0 -0.34603840416E+02  0.33858318843E+02 -0.45441840118E+02  0.66398587031E+02  0.00000000000E+00 0.  1.
         13    1    4    4    0    0 -0.23288253629E+02 -0.25506632328E+02  0.28419795453E+02  0.44728244135E+02  0.00000000000E+00 0. -1.
         -2    1    1    2    0  502  0.19640366214E+02 -0.10560599538E+02 -0.16634916324E+02  0.27820688142E+02  0.00000000000E+00 0.  1.
<scales pt_clust_5="13000.00000" pt_clust_6="13000.00000" pt_clust_7="13000.00000" pt_clust_8="13000.00000" pt_clust_9="22.29956"></scales>
<clustering>
<clus scale="   22.300">  1  9  2 -1</clus>
<clus scale="   80.997">  5  6 -1 -1</clus>
<clus scale="   90.682">  2  5  1 -1</clus>
<clus scale="   92.942">  7  8 -1 -1</clus>
<clus scale="   22.300">  1  5  2 -1</clus>
</clustering>
</event>
<event>
 9    2  0.4883225E-005  0.1841184E+03  0.7546771E-02  0.1196404E+00
          2   -1    0    0  502    0 -0.00000000000E+00  0.00000000000E+00  0.84417906851E+02  0.84417906851E+02  0.00000000000E+00 0. -1.
         21   -1    0    0  501  502  0.00000000000E+00 -0.00000000000E+00 -0.59865916546E+03  0.59865916546E+03  0.00000000000E+00 0.  1.
         23    2    1    2    0    0 -0.19005763563E+02 -0.97953001516E+01 -0.95649337625E+02  0.13039577121E+03  0.86006362595E+02 0.  0.
         24    2    1    2    0    0  0.16201931680E+03 -0.56598061599E+02 -0.30240732856E+03  0.35682468414E+03  0.80125297188E+02 0.  0.
        -13    1    4    4    0    0  0.13204321528E+03 -0.10008918363E+02 -0.23319985594E+03  0.26817487198E+03  0.00000000000E+00 0.  1.
         14    1    4    4    0    0  0.29976101513E+02 -0.46589143235E+02 -0.69207472623E+02  0.88649812161E+02  0.00000000000E+00 0. -1.
        -13    1    3    3    0    0  0.11371939977E+02  0.30113495501E+02 -0.15211323896E+02  0.35602359540E+02  0.00000000000E+00 0. -1.
         13    1    3    3    0    0 -0.30377703540E+02 -0.39908795653E+02 -0.80438013729E+02  0.94793411667E+02  0.00000000000E+00 0.  1.
          1    1    1    2  501    0 -0.14301355323E+03  0.66393361750E+02 -0.11618459242E+03  0.19585661696E+03  0.00000000000E+00 0. -1.
<scales pt_clust_5="13000.00000" pt_clust_6="13000.00000" pt_clust_7="13000.00000" pt_clust_8="13000.00000" pt_clust_9="165.76960"></scales>
<clustering>
<clus scale="   80.125">  5  6 -1 -1</clus>
<clus scale="   86.006">  7  8 -1 -1</clus>
<clus scale="   88.624">  1  7  2 -1</clus>
<clus scale="  165.770">  2  9  1 -1</clus>
<clus scale="  165.770">  2  5  1 -1</clus>
</clustering>
</event>
<event>
 9    2  0.4883225E-005  0.1358817E+03  0.7546771E-02  0.1219795E+00
          2   -1    0    0  502    0 -0.00000000000E+00  0.00000000000E+00  0.52383529049E+03  0.52383529049E+03  0.00000000000E+00 0. -1.
         21   -1    0    0  501  502  0.00000000000E+00 -0.00000000000E+00 -0.48191790133E+02  0.48191790133E+02  0.00000000000E+00 0.  1.
         24    2    1    2    0    0 -0.57891505544E+02  0.99833640248E+02  0.27942482812E+03  0.31311787855E+03  0.81525389651E+02 0.  0.
         23    2    1    2    0    0  0.56891216752E+02 -0.78607737684E+02  0.97545834987E+02  0.15797423129E+03  0.77620106027E+02 0.  0.
        -11    1    3    3    0    0 -0.55294275936E+02  0.11083227910E+03  0.27376108945E+03  0.30047692946E+03  0.00000000000E+00 0.  1.
         12    1    3    3    0    0 -0.25972296083E+01 -0.10998638851E+02  0.56637386773E+01  0.12640949094E+02  0.00000000000E+00 0. -1.
        -13    1    4    4    0    0  0.24067416031E+02  0.10145764818E+02  0.38201582829E+02  0.46276754303E+02  0.00000000000E+00 0. -1.
         13    1    4    4    0    0  0.32823800721E+02 -0.88753502502E+02  0.59344252158E+02  0.11169747698E+03  0.00000000000E+00 0.  1.
          1    1    1    2  501    0  0.10002887920E+01 -0.21225902564E+02  0.98672837246E+02  0.10093497079E+03  0.00000000000E+00 0. -1.
<scales pt_clust_5="13000.00000" pt_clust_6="13000.00000" pt_clust_7="13000.00000" pt_clust_8="13000.00000" pt_clust_9="21.24947"></scales>
<clustering>
<clus scale="   21.249">  2  9  1 -1</clus>
<clus scale="   77.620">  7  8 -1 -1</clus>
<clus scale="   81.525">  5  6 -1 -1</clus>
<clus scale="  133.575">  2  7  1 -1</clus>
<clus scale="   21.249">  2  5  1 -1</clus>
</clustering>
</event>
<event>
 9    2  0.4883225E-005  0.1396694E+03  0.7546771E-02  0.1216614E+00
          2   -1    0    0  502    0 -0.00000000000E+00  0.00000000000E+00  0.10548056096E+03  0.10548056096E+03  0.00000000000E+00 0. -1.
         21   -1    0    0  501  502  0.00000000000E+00 -0.00000000000E+00 -0.28580925844E+03  0.28580925844E+03  0.00000000000E+00 0.  1.
         24    2    1    2    0    0  0.10987599205E+03  0.20602075738E+02  0.17347268885E+02  0.13878758631E+03  0.80398303599E+02 0.  0.
         23    2    1    2    0    0 -0.79246961350E+02 -0.25505067529E+02 -0.14515045945E+03  0.19150136648E+03  0.93131778315E+02 0.  0.
        -13    1    3    3    0    0  0.65330216146E+02 -0.27053110064E+02 -0.20245331534E+01  0.70739003670E+02  0.00000000000E+00 0.  1.
         14    1    3    3    0    0  0.44545775902E+02  0.47655185802E+02  0.19371802038E+02  0.68048582636E+02  0.00000000000E+00 0. -1.
        -13    1    4    4    0    0 -0.57356692855E+02 -0.38077005382E+02 -0.32634329425E+02  0.76188240636E+02  0.00000000000E+00 0. -1.
         13    1    4    4    0    0 -0.21890268495E+02  0.12571937852E+02 -0.11251613003E+03  0.11531312584E+03  0.00000000000E+00 0.  1.
          1    1    1    2  501    0 -0.30629030697E+02  0.49029917913E+01 -0.52525506918E+02  0.61000866608E+02  0.00000000000E+00 0. -1.
<scales pt_clust_5="13000.00000" pt_clust_6="13000.00000" pt_clust_7="13000.00000" pt_clust_8="13000.00000" pt_clust_9="31.01898"></scales>
<clustering>
<clus scale="   31.019">  2  9  1 -1</clus>
<clus scale="   80.398">  5  6 -1 -1</clus>
<clus scale="   93.132">  7  8 -1 -1</clus>
<clus scale="  131.522">  1  5  2 -1</clus>
<clus scale="   31.019">  2  5  1 -1</clus>
</clustering>
</event>
<event>
 9    2  0.4883225E-005  0.1551466E+03  0.7546771E-02  0.1194354E+00
         21   -1    0    0  501  502  0.00000000000E+00  0.00000000000E+00  0.18543492057E+03  0.18543492057E+03  0.00000000000E+00 0. -1.
          2   -1    0    0  502    0 -0.00000000000E+00 -0.00000000000E+00 -0.41446294549E+03  0.41446294549E+03  0.00000000000E+00 0. -1.
         23    2    1    2    0    0  0.93450480841E+02 -0.10936544141E+03 -0.33569750408E+03  0.37591924733E+03  0.89043102611E+02 0.  0.
         24    2    1    2    0    0 -0.43748787229E+02  0.47626683442E+02  0.31571713861E+02  0.11479250727E+03  0.89433155204E+02 0.  0.
        -11    1    4    4    0    0 -0.43641782189E+02 -0.14403333569E+02  0.25261152811E+02  0.52442225466E+02  0.00000000000E+00 0.  1.
         12    1    4    4    0    0 -0.10700503949E+00  0.62030017010E+02  0.63105610498E+01  0.62350281805E+02  0.00000000000E+00 0. -1.
        -11    1    3    3    0    0 -0.67849879550E+01 -0.47199210099E+02 -0.13443946790E+03  0.14264561691E+03  0.00000000000E+00 0.  1.
         11    1    3    3    0    0  0.10023546880E+03 -0.62166231310E+02 -0.20125803618E+03  0.23327363042E+03  0.00000000000E+00 0. -1.
          1    1    1    2  501    0 -0.49701693612E+02  0.61738757967E+02  0.75097765304E+02  0.10918611147E+03  0.00000000000E+00 0. -1.
<scales pt_clust_5="13000.00000" pt_clust_6="13000.00000" pt_clust_7="13000.00000" pt_clust_8="13000.00000" pt_clust_9="79.25864"></scales>
<clustering>
<clus scale="   79.259">  1  9  2 -1</clus>
<clus scale="   89.043">  7  8 -1 -1</clus>
<clus scale="   89.433">  5  6 -1 -1</clus>
<clus scale="  154.922">  2  7  1 -1</clus>
<clus scale="   79.259">  1  5  2 -1</clus>
</clustering>
</event>
<event>
 9    2  0.4883225E-005  0.9343999E+02  0.7546771E-02  0.1301808E+00
         -1   -1    0    0    0  501 -0.00000000000E+00  0.00000000000E+00  0.26603391384E+03  0.26603391384E+03  0.00000000000E+00 0.  1.
         21   -1    0    0  501  502  0.00000000000E+00 -0.00000000000E+00 -0.59918484754E+02  0.59918484754E+02  0.00000000000E+00 0. -1.
         23    2    1    2    0    0  0.73359779751E+01  0.10915157523E+02  0.18075429968E+03  0.20381850695E+03  0.93257223237E+02 0.  0.
         24    2    1    2    0    0  0.25064407143E+01  0.11133231968E+02  0.42175387596E+02  0.92710704126E+02  0.81769678007E+02 0.  0.
        -11    1    4    4    0    0  0.68391964530E+01 -0.34524235232E+02  0.27147830062E+02  0.44448870666E+02  0.00000000000E+00 0.  1.
         12    1    4    4    0    0 -0.43327557387E+01  0.45657467200E+02  0.15027557535E+02  0.48261833459E+02  0.00000000000E+00 0. -1.
        -13    1    3    3    0    0 -0.24104079814E+02 -0.31389120882E+02  0.57883990500E+02  0.70120182043E+02  0.00000000000E+00 0.  1.
         13    1    3    3    0    0  0.31440057789E+02  0.42304278405E+02  0.12287030918E+03  0.13369832491E+03  0.00000000000E+00 0. -1.
         -2    1    1    2    0  502 -0.98424186894E+01 -0.22048389491E+02 -0.16814258195E+02  0.29423187514E+02  0.00000000000E+00 0.  1.
<scales pt_clust_5="13000.00000" pt_clust_6="13000.00000" pt_clust_7="13000.00000" pt_clust_8="13000.00000" pt_clust_9="24.14549"></scales>
<clustering>
<clus scale="   24.145">  2  9  1 -1</clus>
<clus scale="   81.770">  5  6 -1 -1</clus>
<clus scale="   81.978">  2  5  1 -1</clus>
<clus scale="   93.257">  7  8 -1 -1</clus>
<clus scale="   24.145">  2  5  1 -1</clus>
</clustering>
</event>
<event>
 9    2  0.4883225E-005  0.2861427E+03  0.7546771E-02  0.1092868E+00
          2   -1    0    0  502    0 -0.00000000000E+00  0.00000000000E+00  0.40174815372E+03  0.40174815372E+03  0.00000000000E+00 0. -1.
         21   -1    0    0  501  502  0.00000000000E+00 -0.00000000000E+00 -0.34480469159E+03  0.34480469159E+03  0.00000000000E+00 0. -1.
         24    2    1    2    0    0 -0.27725043194E+03  0.94607973057E+02  0.21602364847E+03  0.37270411056E+03  0.80147780680E+02 0.  0.
         23    2    1    2    0    0  0.19282831699E+03 -0.73185801554E+02 -0.17442401038E+03  0.28540985268E+03  0.92174439110E+02 0.  0.
        -11    1    3    3    0    0 -0.62319014847E+02  0.58981369429E+02  0.58164536448E+02  0.10366086461E+03  0.00000000000E+00 0.  1.
         12    1    3    3    0    0 -0.21493141710E+03  0.35626603628E+02  0.15785911202E+03  0.26904324595E+03  0.00000000000E+00 0. -1.
        -11    1    4    4    0    0  0.74831549432E+02  0.15191055445E+02 -0.78584260110E+02  0.10957196217E+03  0.00000000000E+00 0.  1.
         11    1    4    4    0    0  0.11799676756E+03 -0.88376856999E+02 -0.95839750271E+02  0.17583789051E+03  0.00000000000E+00 0. -1.
          1    1    1    2  501    0  0.84422114956E+02 -0.21422171503E+02  0.15343824041E+02  0.88438882069E+02  0.00000000000E+00 0. -1.
<scales pt_clust_5="13000.00000" pt_clust_6="13000.00000" pt_clust_7="13000.00000" pt_clust_8="13000.00000" pt_clust_9="87.09771"></scales>
<clustering>
<clus scale="   80.148">  5  6 -1 -1</clus>
<clus scale="   87.098">  2  9  1 -1</clus>
<clus scale="   92.174">  7  8 -1 -1</clus>
<clus scale="  282.498">  1  5  2 -1</clus>
<clus scale="   87.098">  2  5  1 -1</clus>
</clustering>
</event>
<event>
 9    2  0.4883225E-005  0.1009353E+03  0.7546771E-02  0.1285829E+00
         21   -1    0    0  501  502  0.00000000000E+00  0.00000000000E+00  0.11849050484E+03  0.11849050484E+03  0.00000000000E+00 0. -1.
          2   -1    0    0  502    0 -0.00000000000E+00 -0.00000000000E+00 -0.24683679720E+03  0.24683679720E+03  0.00000000000E+00 0. -1.
         24    2    1    2    0    0 -0.21926137483E+02 -0.33062572407E+02 -0.17321058217E+03  0.19556964648E+03  0.81680423893E+02 0.  0.
         23    2    1    2    0    0 -0.60019766404E+01 -0.22889555609E+02  0.41558227784E+02  0.10713537331E+03  0.95869423893E+02 0.  0.
        -13    1    3    3    0    0 -0.47798605009E+01  0.27331514623E+02 -0.46240158645E+02  0.53925977316E+02  0.00000000000E+00 0.  1.
         14    1    3    3    0    0 -0.17146276982E+02 -0.60394087030E+02 -0.12697042353E+03  0.14164366916E+03  0.00000000000E+00 0. -1.
        -13    1    4    4    0    0 -0.23095278322E+02  0.10321605829E+02 -0.21926977183E+02  0.33477152747E+02  0.00000000000E+00 0.  1.
         13    1    4    4    0    0  0.17093301681E+02 -0.33211161438E+02  0.63485204967E+02  0.73658220561E+02  0.00000000000E+00 0. -1.
          1    1    1    2  501    0  0.27928114123E+02  0.55952128016E+02  0.33060620298E+01  0.62622282250E+02  0.00000000000E+00 0. -1.
<scales pt_clust_5="13000.00000" pt_clust_6="13000.00000" pt_clust_7="13000.00000" pt_clust_8="13000.00000" pt_clust_9="62.53495"></scales>
<clustering>
<clus scale="   62.535">  1  9  2 -1</clus>
<clus scale="   81.680">  5  6 -1 -1</clus>
<clus scale="   87.571">  2  5  1 -1</clus>
<clus scale="   95.869">  7  8 -1 -1</clus>
<clus scale="   62.535">  1  5  2 -1</clus>
</clustering>
</event>
<event>
 9    2  0.4883225E-005  0.1972837E+03  0.7546771E-02  0.1187537E+00
          2   -1    0    0  502    0 -0.00000000000E+00  0.00000000000E+00  0.14103213053E+04  0.14103213053E+04  0.00000000000E+00 0. -1.
         21   -1    0    0  501  502  0.00000000000E+00 -0.00000000000E+00 -0.18819915813E+03  0.18819915813E+03  0.00000000000E+00 0. -1.
         23    2    1    2    0    0 -0.52552790094E+00 -0.96405358381E+01  0.25500550555E+02  0.91211190429E+02  0.87040146312E+02 0.  0.
         24    2    1    2    0    0  0.57048949434E+02  0.18129990364E+03  0.12883467711E+04  0.13046387439E+04  0.78234337752E+02 0.  0.
        -13    1    4    4    0    0  0.12633648904E+02  0.11718664846E+03  0.56922852254E+03  0.58130321738E+03  0.00000000000E+00 0.  1.
         14    1    4    4    0    0  0.44415300530E+02  0.64113255171E+02  0.71911824859E+03  0.72333552648E+03  0.00000000000E+00 0. -1.
        -11    1    3    3    0    0  0.37925588824E+02 -0.42725163201E+01  0.34399617433E+02  0.51380330506E+02  0.00000000000E+00 0. -1.
         11    1    3    3    0    0 -0.38451116725E+02 -0.53680195180E+01 -0.88990668781E+01  0.39830859923E+02  0.00000000000E+00 0.  1.
          1    1    1    2  501    0 -0.56523421533E+02 -0.17165936780E+03 -0.91725174534E+02  0.20267052913E+03  0.00000000000E+00 0. -1.
<scales pt_clust_5="13000.00000" pt_clust_6="13000.00000" pt_clust_7="13000.00000" pt_clust_8="13000.00000" pt_clust_9="181.10835"></scales>
<clustering>
<clus scale="   78.234">  5  6 -1 -1</clus>
<clus scale="   87.040">  7  8 -1 -1</clus>
<clus scale="   87.574">  1  7  2 -1</clus>
<clus scale="  181.108">  2  9  1 -1</clus>
<clus scale="  181.108">  2  5  1 -1</clus>
</clustering>
</event>
<event>
 9    2  0.4883225E-005  0.1140331E+03  0.7546771E-02  0.1255509E+00
         21   -1    0    0  501  502  0.00000000000E+00  0.00000000000E+00  0.20471510318E+02  0.20471510318E+02  0.00000000000E+00 0.  1.
          2   -1    0    0  502    0 -0.00000000000E+00 -0.00000000000E+00 -0.13744521478E+04  0.13744521478E+04  0.00000000000E+00 0. -1.
         24    2    1    2    0    0 -0.18872004382E+01  0.57792019303E+02 -0.10170283442E+04  0.10231678788E+04  0.95824716105E+02 0.  0.
         23    2    1    2    0    0  0.15976319484E+02 -0.74333804223E+02 -0.32757392088E+03  0.34808960530E+03  0.89894062347E+02 0.  0.
        -11    1    3    3    0    0 -0.36569765578E+01  0.24290168667E+02 -0.51513567090E+02  0.57070424615E+02  0.00000000000E+00 0.  1.
         12    1    3    3    0    0  0.17697761196E+01  0.33501850636E+02 -0.96551477712E+03  0.96609745417E+03  0.00000000000E+00 0. -1.
        -13    1    4    4    0    0 -0.29741948463E+02 -0.58826587832E+02 -0.14570267587E+03  0.15992004467E+03  0.00000000000E+00 0.  1.
         13    1    4    4    0    0  0.45718267947E+02 -0.15507216391E+02 -0.18187124501E+03  0.18816956063E+03  0.00000000000E+00 0. -1.
          1    1    1    2  501    0 -0.14089119046E+02  0.16541784920E+02 -0.93783723599E+01  0.23666174003E+02  0.00000000000E+00 0. -1.
<scales pt_clust_5="13000.00000" pt_clust_6="13000.00000" pt_clust_7="13000.00000" pt_clust_8="13000.00000" pt_clust_9="21.72864"></scales>
<clustering>
<clus scale="   21.729">  1  9  2 -1</clus>
<clus scale="   89.894">  7  8 -1 -1</clus>
<clus scale="   95.825">  5  6 -1 -1</clus>
<clus scale="  109.097">  1  7  2 -1</clus>
<clus scale="   21.729">  1  5  2 -1</clus>
</clustering>
</event>
<event>
 9    2  0.4883225E-005  0.9688070E+02  0.7546771E-02  0.1293000E+00
          2   -1    0    0  502    0 -0.00000000000E+00  0.00000000000E+00  0.40601259036E+03  0.40601259036E+03  0.00000000000E+00 0. -1.
         21   -1    0    0  501  502  0.00000000000E+00 -0.00000000000E+00 -0.36286903393E+02  0.36286903393E+02  0.00000000000E+00 0. -1.
         23    2    1    2    0    0 -0.33911740871E+02  0.20796396250E+02  0.30350586759E+03  0.31923111043E+03  0.90610120504E+02 0.  0.
         24    2    1    2    0    0  0.13740669461E+02 -0.14620276931E+02  0.57989475423E+02  0.10042428623E+03  0.79496537722E+02 0.  0.
        -11    1    4    4    0    0 -0.21107551975E+02  0.17060346796E+02  0.43277654420E+02  0.51083652525E+02  0.00000000000E+00 0.  1.
         12    1    4    4    0    0  0.34848221437E+02 -0.31680623727E+02  0.14711821003E+02  0.49340633703E+02  0.00000000000E+00 0. -1.
        -11    1    3    3    0    0 -0.48539368128E+02 -0.20226244280E+02  0.12753023907E+03  0.13794612388E+03  0.00000000000E+00 0. -1.
         11    1    3    3    0    0  0.14627627256E+02  0.41022640530E+02  0.17597562853E+03  0.18128498656E+03  0.00000000000E+00 0.  1.
          1    1    1    2  501    0  0.20171071410E+02 -0.61761193189E+01  0.82303439529E+01  0.22644097095E+02  0.00000000000E+00 0. -1.
<scales pt_clust_5="13000.00000" pt_clust_6="13000.00000" pt_clust_7="13000.00000" pt_clust_8="13000.00000" pt_clust_9="21.09542"></scales>
<clustering>
<clus scale="   21.095">  2  9  1 -1</clus>
<clus scale="   79.497">  5  6 -1 -1</clus>
<clus scale="   86.576">  2  5  1 -1</clus>
<clus scale="   90.610">  7  8 -1 -1</clus>
<clus scale="   21.095">  2  5  1 -1</clus>
</clustering>
</event>
<event>
 9    2  0.4883225E-005  0.9667399E+02  0.7546771E-02  0.1288700E+00
         21   -1    0    0  501  502  0.00000000000E+00  0.00000000000E+00  0.53391794720E+03  0.53391794720E+03  0.00000000000E+00 0.  1.
          4   -1    0    0  502    0 -0.00000000000E+00 -0.00000000000E+00 -0.62932677907E+02  0.62932677907E+02  0.00000000000E+00 0. -1.
         24    2    1    2    0    0 -0.21489097691E+02  0.44236533055E+02 -0.36426765773E+01  0.94491775522E+02  0.80602570507E+02 0.  0.
         23    2    1    2    0    0 -0.21902424610E+02 -0.62962098078E+02  0.40046896465E+03  0.41442122687E+03  0.83220307829E+02 0.  0.
        -11    1    3    3    0    0  0.30762018959E+02  0.18653027134E+02  0.20624672150E+01  0.36034580651E+02  0.00000000000E+00 0.  1.
         12    1    3    3    0    0 -0.52251116650E+02  0.25583505921E+02 -0.57051437923E+01  0.58457194870E+02  0.00000000000E+00 0. -1.
        -11    1    4    4    0    0  0.10914674636E+02 -0.71340711320E+02  0.29203536103E+03  0.30082100875E+03  0.00000000000E+00 0.  1.
         11    1    4    4    0    0 -0.32817099247E+02  0.83786132427E+01  0.10843360362E+03  0.11360021812E+03  0.00000000000E+00 0. -1.
          3    1    1    2  501    0  0.43391522301E+02  0.18725565022E+02  0.74158981219E+02  0.87937622714E+02  0.00000000000E+00 0. -1.
<scales pt_clust_5="13000.00000" pt_clust_6="13000.00000" pt_clust_7="13000.00000" pt_clust_8="13000.00000" pt_clust_9="47.25961"></scales>
<clustering>
<clus scale="   47.260">  1  9  2 -1</clus>
<clus scale="   80.603">  5  6 -1 -1</clus>
<clus scale="   83.220">  7  8 -1 -1</clus>
<clus scale="   94.430">  2  5  1 -1</clus>
<clus scale="   47.260">  1  5  2 -1</clus>
</clustering>
</event>
<event>
 9    2  0.4883225E-005  0.1029085E+03  0.7546771E-02  0.1280419E+00
          2   -1    0    0  502    0 -0.00000000000E+00  0.00000000000E+00  0.76981642752E+03  0.76981642752E+03  0.00000000000E+00 0. -1.
         21   -1    0    0  501  502  0.00000000000E+00 -0.00000000000E+00 -0.28141846612E+02  0.28141846612E+02  0.00000000000E+00 0. -1.
         24    2    1    2    0    0  0.46122987146E+02  0.47195561498E+02  0.36587972728E+03  0.38024144993E+03  0.79754839624E+02 0.  0.
         23    2    1    2    0    0  0.64817056987E+01 -0.17412864504E+01  0.11484920000E+03  0.14766871927E+03  0.92577898673E+02 0.  0.
        -13    1    3    3    0    0  0.38272172408E+02 -0.14747804626E+02  0.13867050983E+03  0.14460901500E+03  0.00000000000E+00 0.  1.
         14    1    3    3    0    0  0.78508147381E+01  0.61943366123E+02  0.22720921745E+03  0.23563243493E+03  0.00000000000E+00 0. -1.
        -11    1    4    4    0    0 -0.37247211426E+02 -0.22310698212E+02  0.65626974645E+02  0.78689400905E+02  0.00000000000E+00 0.  1.
         11    1    4    4    0    0  0.43728917125E+02  0.20569411762E+02  0.49222225357E+02  0.68979318366E+02  0.00000000000E+00 0. -1.
          1    1    1    2  501    0 -0.52604692845E+02 -0.45454275047E+02  0.26094565363E+03  0.27004810493E+03  0.00000000000E+00 0. -1.
<scales pt_clust_5="13000.00000" pt_clust_6="13000.00000" pt_clust_7="13000.00000" pt_clust_8="13000.00000" pt_clust_9="69.52230"></scales>
<clustering>
<clus scale="   69.522">  2  9  1 -1</clus>
<clus scale="   79.755">  5  6 -1 -1</clus>
<clus scale="   91.544">  1  5  2 -1</clus>
<clus scale="   92.578">  7  8 -1 -1</clus>
<clus scale="   69.522">  2  5  1 -1</clus>
</clustering>
</event>
<event>
 9    2  0.4883225E-005  0.1501717E+03  0.7546771E-02  0.1202450E+00
          2   -1    0    0  502    0 -0.00000000000E+00  0.00000000000E+00  0.61131187354E+03  0.61131187354E+03  0.00000000000E+00 0. -1.
         21   -1    0    0  501  502  0.00000000000E+00 -0.00000000000E+00 -0.21232878149E+03  0.21232878149E+03  0.00000000000E+00 0. -1.
         24    2    1    2    0    0  0.85643092286E+02 -0.79086379118E+02  0.25851188824E+03  0.29456164589E+03  0.79679183280E+02 0.  0.
         23    2    1    2    0    0  0.25384901705E+02  0.16205813201E+03  0.27688426984E+03  0.33460522733E+03  0.91588906986E+02 0.  0.
        -13    1    3    3    0    0  0.21656766218E+02 -0.42931076996E+02  0.35549168619E+02  0.59798296670E+02  0.00000000000E+00 0.  1.
         14    1    3    3    0    0  0.63986326068E+02 -0.36155302122E+02  0.22296271962E+03  0.23476334922E+03  0.00000000000E+00 0. -1.
        -13    1    4    4    0    0 -0.30708295020E+02  0.98121352279E+02  0.15234072250E+03  0.18378926761E+03  0.00000000000E+00 0.  1.
         13    1    4    4    0    0  0.56093196725E+02  0.63936779734E+02  0.12454354734E+03  0.15081595971E+03  0.00000000000E+00 0. -1.
          1    1    1    2  501    0 -0.11102799399E+03 -0.82971752895E+02 -0.13641306603E+03  0.19447378181E+03  0.00000000000E+00 0. -1.
<scales pt_clust_5="13000.00000" pt_clust_6="13000.00000" pt_clust_7="13000.00000" pt_clust_8="13000.00000" pt_clust_9="138.60565"></scales>
<clustering>
<clus scale="   79.679">  5  6 -1 -1</clus>
<clus scale="   91.589">  7  8 -1 -1</clus>
<clus scale="  138.606">  2  9  1 -1</clus>
<clus scale="  143.219">  1  5  2 -1</clus>
<clus scale="  138.606">  2  5  1 -1</clus>
</clustering>
</event>
<event>
 9    2  0.4883225E-005  0.1286985E+03  0.7546771E-02  0.1233226E+00
          2   -1    0    0  502    0 -0.00000000000E+00  0.00000000000E+00  0.11911132589E+03  0.11911132589E+03  0.00000000000E+00 0. -1.
         21   -1    0    0  501  502  0.00000000000E+00 -0.00000000000E+00 -0.30767466854E+03  0.30767466854E+03  0.00000000000E+00 0.  1.
         24    2    1    2    0    0  0.15406891457E+02  0.83309201429E+02  0.39357455497E+02  0.12152262909E+03  0.77723514661E+02 0.  0.
         23    2    1    2    0    0 -0.30824918215E+02 -0.10330594125E+03 -0.96501709236E+02  0.17144048955E+03  0.91961777331E+02 0.  0.
        -11    1    3    3    0    0 -0.62428435513E+01  0.66059869719E+02 -0.78305968151E+01  0.66814652056E+02  0.00000000000E+00 0.  1.
         12    1    3    3    0    0  0.21649735008E+02  0.17249331710E+02  0.47188052313E+02  0.54707977036E+02  0.00000000000E+00 0. -1.
        -11    1    4    4    0    0 -0.44154538320E+02 -0.49230637160E+02 -0.94968935504E+02  0.11572544059E+03  0.00000000000E+00 0.  1.
         11    1    4    4    0    0  0.13329620105E+02 -0.54075304094E+02 -0.15327737328E+01  0.55715048957E+02  0.00000000000E+00 0. -1.
          1    1    1    2  501    0  0.15418026758E+02  0.19996739824E+02 -0.13141908891E+03  0.13382287578E+03  0.00000000000E+00 0. -1.
<scales pt_clust_5="13000.00000" pt_clust_6="13000.00000" pt_clust_7="13000.00000" pt_clust_8="13000.00000" pt_clust_9="25.25045"></scales>
<clustering>
<clus scale="   25.250">  2  9  1 -1</clus>
<clus scale="   77.724">  5  6 -1 -1</clus>
<clus scale="   91.962">  7  8 -1 -1</clus>
<clus scale="  118.942">  1  5  2 -1</clus>
<clus scale="   25.250">  2  5  1 -1</clus>
</clustering>
</event>
<event>
 9    2  0.4883225E-005  0.1761256E+03  0.7546771E-02  0.1172435E+00
          2   -1    0    0  502    0 -0.00000000000E+00  0.00000000000E+00  0.10537295721E+04  0.10537295721E+04  0.00000000000E+00 0. -1.
         21   -1    0    0  501  502  0.00000000000E+00 -0.00000000000E+00 -0.16716591259E+03  0.16716591259E+03  0.00000000000E+00 0. -1.
         24    2    1    2    0    0  0.81118090914E+01 -0.12988067799E+03  0.15708695079E+03  0.22100521312E+03  0.85042355062E+02 0.  0.
         23    2    1    2    0    0  0.91929685514E+01  0.23470409022E+03 -0.10510788395E+02  0.25231492489E+03  0.91552302051E+02 0.  0.
        -13    1    3    3    0    0  0.22009126589E+02 -0.13305574132E+03  0.11729002539E+03  0.17873215158E+03  0.00000000000E+00 0.  1.
         14    1    3    3    0    0 -0.13897317498E+02  0.31750633284E+01  0.39796925399E+02  0.42273061540E+02  0.00000000000E+00 0. -1.
        -13    1    4    4    0    0  0.11261012297E+02  0.18559382843E+03 -0.46178453160E+02  0.19158373909E+03  0.00000000000E+00 0. -1.
         13    1    4    4    0    0 -0.20680437457E+01  0.49110261796E+02  0.35667664764E+02  0.60731185797E+02  0.00000000000E+00 0.  1.
          1    1    1    2  501    0 -0.17304777643E+02 -0.10482341223E+03  0.73998749713E+03  0.74757534670E+03  0.00000000000E+00 0. -1.
<scales pt_clust_5="13000.00000" pt_clust_6="13000.00000" pt_clust_7="13000.00000" pt_clust_8="13000.00000" pt_clust_9="106.24224"></scales>
<clustering>
<clus scale="   85.042">  5  6 -1 -1</clus>
<clus scale="   91.552">  7  8 -1 -1</clus>
<clus scale="  106.242">  2  9  1 -1</clus>
<clus scale="  172.831">  1  5  2 -1</clus>
<clus scale="  106.242">  2  5  1 -1</clus>
</clustering>
</event>
<event>
 9    2  0.4883225E-005  0.1065980E+03  0.7546771E-02  0.1270875E+00
          2   -1    0    0  502    0 -0.00000000000E+00  0.00000000000E+00  0.49184090287E+03  0.49184090287E+03  0.00000000000E+00 0. -1.
         21   -1    0    0  501  502  0.00000000000E+00 -0.00000000000E+00 -0.42794571272E+02  0.42794571272E+02  0.00000000000E+00 0.  1.
         24    2    1    2    0    0  0.52387467216E+02  0.41521568797E+02  0.29147924504E+03  0.31047011489E+03  0.83444919259E+02 0.  0.
         23    2    1    2    0    0 -0.38128759775E+02  0.32498169768E+01  0.14383863140E+03  0.17521376885E+03  0.92444303666E+02 0.  0.
        -13    1    3    3    0    0  0.12556618487E+02  0.28022798746E+02  0.22113802640E+02  0.37841329054E+02  0.00000000000E+00 0.  1.
         14    1    3    3    0    0  0.39830848729E+02  0.13498770051E+02  0.26936544240E+03  0.27262878583E+03  0.00000000000E+00 0. -1.
        -13    1    4    4    0    0 -0.55222638523E+02 -0.11192044153E+02  0.40273630395E+02  0.69258695937E+02  0.00000000000E+00 0.  1.
         13    1    4    4    0    0  0.17093878748E+02  0.14441861130E+02  0.10356500100E+03  0.10595507291E+03  0.00000000000E+00 0. -1.
          1    1    1    2  501    0 -0.14258707440E+02 -0.44771385774E+02  0.13728455156E+02  0.48951590403E+02  0.00000000000E+00 0. -1.
<scales pt_clust_5="13000.00000" pt_clust_6="13000.00000" pt_clust_7="13000.00000" pt_clust_8="13000.00000" pt_clust_9="46.98710"></scales>
<clustering>
<clus scale="   46.987">  2  9  1 -1</clus>
<clus scale="   83.445">  5  6 -1 -1</clus>
<clus scale="   92.444">  7  8 -1 -1</clus>
<clus scale="   98.895">  1  5  2 -1</clus>
<clus scale="   46.987">  2  5  1 -1</clus>
</clustering>
</event>
<event>
 9    2  0.4883225E-005  0.3194471E+03  0.7546771E-02  0.1075904E+00
          4   -1    0    0  502    0 -0.00000000000E+00  0.00000000000E+00  0.13493815524E+03  0.13493815524E+03  0.00000000000E+00 0. -1.
         21   -1    0    0  501  502  0.00000000000E+00 -0.00000000000E+00 -0.74169819482E+03  0.74169819482E+03  0.00000000000E+00 0. -1.
         24    2    1    2    0    0  0.63833690039E+02 -0.77152557542E+02 -0.80892399003E+02  0.15215755248E+03  0.81123877130E+02 0.  0.
         23    2    1    2    0    0  0.10815942723E+02 -0.16503743976E+03 -0.66094786219E+02  0.19948390230E+03  0.89838551702E+02 0.  0.
        -13    1    3    3    0    0  0.46693954482E+02 -0.67465004161E+02 -0.15027022392E+02  0.83412610399E+02  0.00000000000E+00 0.  1.
         14    1    3    3    0    0  0.17139735557E+02 -0.96875533817E+01 -0.65865376611E+02  0.68744942080E+02  0.00000000000E+00 0. -1.
        -11    1    4    4    0    0 -0.16016435907E+02 -0.60418721577E+02 -0.66791121126E+02  0.91476783926E+02  0.00000000000E+00 0. -1.
         11    1    4    4    0    0  0.26832378630E+02 -0.10461871818E+03  0.69633490738E+00  0.10800711837E+03  0.00000000000E+00 0.  1.
          3    1    1    2  501    0 -0.74649632762E+02  0.24218999730E+03 -0.45977285436E+03  0.52499489528E+03  0.00000000000E+00 0. -1.
<scales pt_clust_5="13000.00000" pt_clust_6="13000.00000" pt_clust_7="13000.00000" pt_clust_8="13000.00000" pt_clust_9="253.43355"></scales>
<clustering>
<clus scale="   81.124">  5  6 -1 -1</clus>
<clus scale="   89.839">  7  8 -1 -1</clus>
<clus scale="  111.576">  5  7 -1 -1</clus>
<clus scale="  253.434">  2  9  1 -1</clus>
<clus scale="  253.434">  2  5  1 -1</clus>
</clustering>
</event>
<event>
 9    2  0.4883225E-005  0.2398933E+03  0.7546771E-02  0.1140222E+00
         21   -1    0    0  501  502  0.00000000000E+00  0.00000000000E+00  0.77527573489E+03  0.77527573489E+03  0.00000000000E+00 0.  1.
          2   -1    0    0  502    0 -0.00000000000E+00 -0.00000000000E+00 -0.20520903126E+03  0.20520903126E+03  0.00000000000E+00 0. -1.
         24    2    1    2    0    0 -0.86429864347E+02 -0.84265754899E+02 -0.33157130650E+02  0.14923441893E+03  0.81244554157E+02 0.  0.
         23    2    1    2    0    0 -0.18442037792E+03  0.10224834417E+03  0.48086544113E+03  0.53350078195E+03  0.94477045836E+02 0.  0.
        -11    1    3    3    0    0  0.93096825129E+01 -0.29806622330E+02  0.69929429363E+01  0.32000096471E+02  0.00000000000E+00 0.  1.
         12    1    3    3    0    0 -0.95739546860E+02 -0.54459132569E+02 -0.40150073586E+02  0.11723432246E+03  0.00000000000E+00 0. -1.
        -13    1    4    4    0    0 -0.13690290534E+03  0.48884918721E+02  0.22524105371E+03  0.26807773694E+03  0.00000000000E+00 0.  1.
         13    1    4    4    0    0 -0.47517472578E+02  0.53363425449E+02  0.25562438742E+03  0.26542304500E+03  0.00000000000E+00 0. -1.
          1    1    1    2  501    0  0.27085024226E+03 -0.17982589271E+02  0.12235839315E+03  0.29774956528E+03  0.00000000000E+00 0. -1.
<scales pt_clust_5="13000.00000" pt_clust_6="13000.00000" pt_clust_7="13000.00000" pt_clust_8="13000.00000" pt_clust_9="220.50609"></scales>
<clustering>
<clus scale="   81.245">  5  6 -1 -1</clus>
<clus scale="   94.477">  7  8 -1 -1</clus>
<clus scale="  145.504">  2  5  1 -1</clus>
<clus scale="  220.506">  1  9  2 -1</clus>
<clus scale="  220.506">  1  5  2 -1</clus>
</clustering>
</event>
<event>
 9    2  0.4883225E-005  0.1019133E+03  0.7546771E-02  0.1281905E+00
         21   -1    0    0  501  502  0.00000000000E+00  0.00000000000E+00  0.13973009869E+03  0.13973009869E+03  0.00000000000E+00 0. -1.
          2   -1    0    0  502    0 -0.00000000000E+00 -0.00000000000E+00 -0.28948394671E+03  0.28948394671E+03  0.00000000000E+00 0. -1.
         23    2    1    2    0    0  0.43306262154E+02  0.18649534905E+01 -0.17681611612E+03  0.20274795915E+03  0.89240605245E+02 0.  0.
         24    2    1    2    0    0 -0.61883164825E+02 -0.88327813320E+02 -0.39722051378E+01  0.13274273818E+03  0.77288598333E+02 0.  0.
        -11    1    4    4    0    0 -0.27691471761E+02  0.93208888586E+01 -0.47976939296E+00  0.29222025188E+02  0.00000000000E+00 0.  1.
         12    1    4    4    0    0 -0.34191693064E+02 -0.97648702179E+02 -0.34924357449E+01  0.10352071300E+03  0.00000000000E+00 0. -1.
        -13    1    3    3    0    0  0.23760281516E+02 -0.39405373578E+02 -0.12743912467E+03  0.13549193681E+03  0.00000000000E+00 0. -1.
         13    1    3    3    0    0  0.19545980639E+02  0.41270327068E+02 -0.49376991454E+02  0.67256022337E+02  0.00000000000E+00 0.  1.
          1    1    1    2  501    0  0.18576902671E+02  0.86462859829E+02  0.31034473240E+02  0.93723348062E+02  0.00000000000E+00 0. -1.
<scales pt_clust_5="13000.00000" pt_clust_6="13000.00000" pt_clust_7="13000.00000" pt_clust_8="13000.00000" pt_clust_9="88.43601"></scales>
<clustering>
<clus scale="   77.289">  5  6 -1 -1</clus>
<clus scale="   88.436">  1  9  2 -1</clus>
<clus scale="   89.241">  7  8 -1 -1</clus>
<clus scale="   91.629">  1  5  2 -1</clus>
<clus scale="   88.436">  1  5  2 -1</clus>
</clustering>
</event>
<event>
 9    2  0.4883225E-005  0.1878329E+03  0.7546771E-02  0.1161376E+00
         21   -1    0    0  501  502  0.00000000000E+00  0.00000000000E+00  0.79007771423E+03  0.79007771423E+03  0.00000000000E+00 0. -1.
          2   -1    0    0  502    0 -0.00000000000E+00 -0.00000000000E+00 -0.36146584320E+03  0.36146584320E+03  0.00000000000E+00 0. -1.
         23    2    1    2    0    0 -0.13283911412E+03 -0.16115931672E+03 -0.19589737795E+03  0.30030370678E+03  0.90487446696E+02 0.  0.
         24    2    1    2    0    0 -0.13837779809E+02  0.13867439191E+03 -0.43225556376E+02  0.16721539690E+03  0.81672939919E+02 0.  0.
        -13    1    4    4    0    0 -0.15743598742E+02  0.10790487336E+03 -0.67262792673E+02  0.12812340096E+03  0.00000000000E+00 0.  1.
         14    1    4    4    0    0  0.19058189334E+01  0.30769518554E+02  0.24037236297E+02  0.39091995941E+02  0.00000000000E+00 0. -1.
        -11    1    3    3    0    0 -0.20917052540E+02  0.89337231151E+01 -0.30093605298E+02  0.37722136412E+02  0.00000000000E+00 0.  1.
         11    1    3    3    0    0 -0.11192206158E+03 -0.17009303984E+03 -0.16580377265E+03  0.26258157036E+03  0.00000000000E+00 0. -1.
          1    1    1    2  501    0  0.14667689393E+03  0.22484924810E+02  0.66773480535E+03  0.68402445375E+03  0.00000000000E+00 0. -1.
<scales pt_clust_5="13000.00000" pt_clust_6="13000.00000" pt_clust_7="13000.00000" pt_clust_8="13000.00000" pt_clust_9="148.39031"></scales>
<clustering>
<clus scale="   81.673">  5  6 -1 -1</clus>
<clus scale="   90.487">  7  8 -1 -1</clus>
<clus scale="  148.390">  1  9  2 -1</clus>
<clus scale="  183.749">  1  5  2 -1</clus>
<clus scale="  148.390">  1  5  2 -1</clus>
</clustering>
</event>
<event>
 9    2  0.4883225E-005  0.1077068E+03  0.7546771E-02  0.1269360E+00
         21   -1    0    0  501  502  0.00000000000E+00  0.00000000000E+00  0.43169362044E+02  0.43169362044E+02  0.00000000000E+00 0. -1.
          4   -1    0    0  502    0 -0.00000000000E+00 -0.00000000000E+00 -0.45069543807E+03  0.45069543807E+03  0.00000000000E+00 0. -1.
         23    2    1    2    0    0  0.36401181766E+02 -0.21755911233E+02 -0.21263636289E+03  0.23541319406E+03  0.91688512939E+02 0.  0.
         24    2    1    2    0    0 -0.59761515284E+02  0.44204766347E+02 -0.19742745783E+03  0.22595396882E+03  0.80945011236E+02 0.  0.
        -13    1    4    4    0    0 -0.63338419070E+02 -0.43073952743E+00 -0.13507442496E+03  0.14918793901E+03  0.00000000000E+00 0.  1.
         14    1    4    4    0    0  0.35769037861E+01  0.44635505874E+02 -0.62353032867E+02  0.76766029812E+02  0.00000000000E+00 0. -1.
        -11    1    3    3    0    0 -0.29660472278E+02 -0.13485943645E+02 -0.92376311055E+02  0.97954056250E+02  0.00000000000E+00 0.  1.
         11    1    3    3    0    0  0.66061654044E+02 -0.82699675880E+01 -0.12026005184E+03  0.13745913781E+03  0.00000000000E+00 0. -1.
          3    1    1    2  501    0  0.23360333518E+02 -0.22448855114E+02  0.25377446919E+01  0.32497637239E+02  0.00000000000E+00 0. -1.
<scales pt_clust_5="13000.00000" pt_clust_6="13000.00000" pt_clust_7="13000.00000" pt_clust_8="13000.00000" pt_clust_9="32.39840"></scales>
<clustering>
<clus scale="   32.398">  1  9  2 -1</clus>
<clus scale="   80.945">  5  6 -1 -1</clus>
<clus scale="   91.689">  7  8 -1 -1</clus>
<clus scale="   98.722">  1  5  2 -1</clus>
<clus scale="   32.398">  1  5  2 -1</clus>
</clustering>
</event>
<event>
 9    2  0.6714183E-005  0.1192881E+03  0.7546771E-02  0.1272039E+00
         21   -1    0    0  501  502  0.00000000000E+00  0.00000000000E+00  0.18535417321E+03  0.18535417321E+03  0.00000000000E+00 0. -1.
          2   -1    0    0  502    0 -0.00000000000E+00 -0.00000000000E+00 -0.28927123173E+03  0.28927123173E+03  0.00000000000E+00 0. -1.
         24    2    1    2    0    0 -0.36056166494E+01 -0.11052676094E+02  0.81878749532E+02  0.10707745294E+03  0.68016830144E+02 0.  0.
         23    2    1    2    0    0 -0.74423655372E+02  0.69580927376E+01 -0.24359122835E+03  0.27035925146E+03  0.90388842155E+02 0.  0.
        -13    1    3    3    0    0  0.31672481494E+02  0.33415148917E+00  0.42368050983E+02  0.52899049947E+02  0.00000000000E+00 0.  1.
         14    1    3    3    0    0 -0.35278098143E+02 -0.11386827583E+02  0.39510698549E+02  0.54178402992E+02  0.00000000000E+00 0. -1.
        -11    1    4    4    0    0  0.88658762026E+01  0.28464777712E+02 -0.45510812139E+02  0.54406629675E+02  0.00000000000E+00 0.  1.
         11    1    4    4    0    0 -0.83289531575E+02 -0.21506684974E+02 -0.19808041621E+03  0.21595262178E+03  0.00000000000E+00 0. -1.
          1    1    1    2  501    0  0.78029272022E+02  0.40945833567E+01  0.57795420303E+02  0.97188700543E+02  0.00000000000E+00 0. -1.
<scales pt_clust_5="13000.00000" pt_clust_6="13000.00000" pt_clust_7="13000.00000" pt_clust_8="13000.00000" pt_clust_9="77.84289"></scales>
<clustering>
<clus scale="   68.017">  5  6 -1 -1</clus>
<clus scale="   69.003">  2  5  1 -1</clus>
<clus scale="   77.843">  1  9  2 -1</clus>
<clus scale="   90.389">  7  8 -1 -1</clus>
<clus scale="   77.843">  1  5  2 -1</clus>
</clustering>
</event>
<event>
 9    2  0.4883225E-005  0.1535437E+03  0.7546771E-02  0.1210816E+00
          2   -1    0    0  502    0 -0.00000000000E+00  0.00000000000E+00  0.31845484037E+03  0.31845484037E+03  0.00000000000E+00 0. -1.
         21   -1    0    0  501  502  0.00000000000E+00 -0.00000000000E+00 -0.14908915871E+03  0.14908915871E+03  0.00000000000E+00 0. -1.
         24    2    1    2    0    0 -0.18813851524E+02 -0.74625513197E+02 -0.36932056670E+02  0.11788752128E+03  0.81305366586E+02 0.  0.
         23    2    1    2    0    0 -0.57016978180E+02 -0.56764641970E+02  0.11994003785E+03  0.17509605834E+03  0.98994225019E+02 0.  0.
        -13    1    3    3    0    0  0.28878286041E+02 -0.46112552674E+02 -0.72461404788E+01  0.54889247313E+02  0.00000000000E+00 0.  1.
         14    1    3    3    0    0 -0.47692137565E+02 -0.28512960523E+02 -0.29685916191E+02  0.62998273971E+02  0.00000000000E+00 0. -1.
        -13    1    4    4    0    0 -0.16210432068E+02  0.26690384281E+02  0.14080453009E+02  0.34255129220E+02  0.00000000000E+00 0.  1.
         13    1    4    4    0    0 -0.40806546112E+02 -0.83455026251E+02  0.10585958484E+03  0.14084092912E+03  0.00000000000E+00 0. -1.
          1    1    1    2  501    0  0.75830829703E+02  0.13139015517E+03  0.86357700482E+02  0.17456041946E+03  0.00000000000E+00 0. -1.
<scales pt_clust_5="13000.00000" pt_clust_6="13000.00000" pt_clust_7="13000.00000" pt_clust_8="13000.00000" pt_clust_9="117.37042"></scales>
<clustering>
<clus scale="   81.305">  5  6 -1 -1</clus>
<clus scale="   98.994">  7  8 -1 -1</clus>
<clus scale="  111.953">  1  5  2 -1</clus>
<clus scale="  117.370">  2  9  1 -1</clus>
<clus scale="  117.370">  2  5  1 -1</clus>
</clustering>
</event>
<event>
 9    2  0.4883225E-005  0.9694579E+02  0.7546771E-02  0.1291925E+00
         21   -1    0    0  501  502  0.00000000000E+00  0.00000000000E+00  0.23634712301E+03  0.23634712301E+03  0.00000000000E+00 0. -1.
         -3   -1    0    0    0  501 -0.00000000000E+00 -0.00000000000E+00 -0.20724706084E+03  0.20724706084E+03  0.00000000000E+00 0.  1.
         24    2    1    2    0    0 -0.17534697956E+02  0.21558561561E+02 -0.18024086333E+03  0.20058702857E+03  0.83523350060E+02 0.  0.
         23    2    1    2    0    0  0.38141380630E+02 -0.14586605841E+02  0.17852234323E+03  0.20528410463E+03  0.92756684916E+02 0.  0.
        -13    1    3    3    0    0 -0.20776365035E+02  0.49922044469E+02 -0.81535282834E+02  0.97835935192E+02  0.00000000000E+00 0.  1.
         14    1    3    3    0    0  0.32416670783E+01 -0.28363482908E+02 -0.98705580498E+02  0.10275109337E+03  0.00000000000E+00 0. -1.
        -11    1    4    4    0    0  0.42469863707E+02  0.32853800396E+02  0.96414764824E+02  0.11035791045E+03  0.00000000000E+00 0. -1.
         11    1    4    4    0    0 -0.43284830773E+01 -0.47440406237E+02  0.82107578404E+02  0.94926194177E+02  0.00000000000E+00 0.  1.
         -4    1    1    2    0  502 -0.20606682673E+02 -0.69719557195E+01  0.30818582272E+02  0.37723050654E+02  0.00000000000E+00 0.  1.
<scales pt_clust_5="13000.00000" pt_clust_6="13000.00000" pt_clust_7="13000.00000" pt_clust_8="13000.00000" pt_clust_9="21.75416"></scales>
<clustering>
<clus scale="   21.754">  1  9  2 -1</clus>
<clus scale="   83.523">  5  6 -1 -1</clus>
<clus scale="   88.152">  2  5  1 -1</clus>
<clus scale="   92.757">  7  8 -1 -1</clus>
<clus scale="   21.754">  1  5  2 -1</clus>
</clustering>
</event>
<event>
 9    2  0.6590436E-005  0.9960971E+02  0.7546771E-02  0.1285693E+00
         21   -1    0    0  501  502  0.00000000000E+00  0.00000000000E+00  0.67007058801E+02  0.67007058801E+02  0.00000000000E+00 0. -1.
          4   -1    0    0  502    0 -0.00000000000E+00 -0.00000000000E+00 -0.74236211837E+03  0.74236211837E+03  0.00000000000E+00 0. -1.
         24    2    1    2    0    0  0.24526545900E+02 -0.29640008321E+02 -0.63424803294E+03  0.64101613070E+03  0.84563768759E+02 0.  0.
         23    2    1    2    0    0 -0.95929424184E+01  0.33405797358E+01 -0.76945297606E+02  0.12145897303E+03  0.93426544880E+02 0.  0.
        -13    1    3    3    0    0 -0.25325741270E+02 -0.54637128615E+01 -0.81996910869E+02  0.85992666670E+02  0.00000000000E+00 0.  1.
         14    1    3    3    0    0  0.49852287169E+02 -0.24176295459E+02 -0.55225112207E+03  0.55502346403E+03  0.00000000000E+00 0. -1.
        -13    1    4    4    0    0  0.19393344837E+02 -0.14578717689E+02 -0.83328197154E+02  0.86788416707E+02  0.00000000000E+00 0. -1.
         13    1    4    4    0    0 -0.28986287255E+02  0.17919297424E+02  0.63828995480E+01  0.34670556322E+02  0.00000000000E+00 0.  1.
          3    1    1    2  501    0 -0.14933603481E+02  0.26299428585E+02  0.35838270979E+02  0.46894073438E+02  0.00000000000E+00 0. -1.
<scales pt_clust_5="13000.00000" pt_clust_6="13000.00000" pt_clust_7="13000.00000" pt_clust_8="13000.00000" pt_clust_9="30.24355"></scales>
<clustering>
<clus scale="   30.244">  1  9  2 -1</clus>
<clus scale="   84.564">  5  6 -1 -1</clus>
<clus scale="   91.349">  2  5  1 -1</clus>
<clus scale="   93.427">  7  8 -1 -1</clus>
<clus scale="   30.244">  1  5  2 -1</clus>
</clustering>
</event>
<event>
 9    2  0.4883225E-005  0.1065980E+03  0.7546771E-02  0.1270508E+00
         21   -1    0    0  501  502  0.00000000000E+00  0.00000000000E+00  0.54371521562E+02  0.54371521562E+02  0.00000000000E+00 0. -1.
          2   -1    0    0  502    0 -0.00000000000E+00 -0.00000000000E+00 -0.43288260014E+03  0.43288260014E+03  0.00000000000E+00 0. -1.
         24    2    1    2    0    0 -0.55240519535E+02  0.24410662234E+02 -0.14134314939E+03  0.17342450787E+03  0.80316739363E+02 0.  0.
         23    2    1    2    0    0  0.64799254566E+02  0.25466143611E+02 -0.56635142691E+02  0.12628987890E+03  0.88848895675E+02 0.  0.
        -11    1    3    3    0    0 -0.38549574756E+02  0.52454349556E+02 -0.11196990583E+03  0.12951752126E+03  0.00000000000E+00 0.  1.
         12    1    3    3    0    0 -0.16690944778E+02 -0.28043687323E+02 -0.29373243560E+02  0.43906986613E+02  0.00000000000E+00 0. -1.
        -11    1    4    4    0    0  0.45181799920E+01  0.34827213661E+02 -0.55010239896E+02  0.65264655482E+02  0.00000000000E+00 0.  1.
         11    1    4    4    0    0  0.60281074574E+02 -0.93610700506E+01 -0.16249027950E+01  0.61025223419E+02  0.00000000000E+00 0. -1.
          1    1    1    2  501    0 -0.95587350312E+01 -0.49876805844E+02 -0.18053278649E+03  0.18753973493E+03  0.00000000000E+00 0. -1.
<scales pt_clust_5="13000.00000" pt_clust_6="13000.00000" pt_clust_7="13000.00000" pt_clust_8="13000.00000" pt_clust_9="50.78452"></scales>
<clustering>
<clus scale="   50.785">  1  9  2 -1</clus>
<clus scale="   80.317">  5  6 -1 -1</clus>
<clus scale="   88.849">  7  8 -1 -1</clus>
<clus scale="   99.598">  2  5  1 -1</clus>
<clus scale="   50.785">  1  5  2 -1</clus>
</clustering>
</event>
<event>
 9    2  0.4883225E-005  0.9411699E+02  0.7546771E-02  0.1294507E+00
         21   -1    0    0  501  502  0.00000000000E+00  0.00000000000E+00  0.63825664620E+02  0.63825664620E+02  0.00000000000E+00 0.  1.
         -3   -1    0    0    0  501 -0.00000000000E+00 -0.00000000000E+00 -0.33180242143E+03  0.33180242143E+03  0.00000000000E+00 0.  1.
         24    2    1    2    0    0 -0.30141872640E+02 -0.78242940862E+01 -0.19461448319E+03  0.21473254915E+03  0.85238011070E+02 0.  0.
         23    2    1    2    0    0  0.22760754976E+02  0.61078507972E+02 -0.34638832620E+02  0.11463848386E+03  0.87712582646E+02 0.  0.
        -13    1    3    3    0    0 -0.47483057090E+02  0.48802122750E+01 -0.18522107972E+03  0.19127285630E+03  0.00000000000E+00 0.  1.
         14    1    3    3    0    0  0.17341184450E+02 -0.12704506361E+02 -0.93934034737E+01  0.23459692855E+02  0.00000000000E+00 0. -1.
        -13    1    4    4    0    0  0.38685034266E+02  0.53926273306E+00 -0.34803817758E+02  0.52039681120E+02  0.00000000000E+00 0. -1.
         13    1    4    4    0    0 -0.15924279291E+02  0.60539245239E+02  0.16498513822E+00  0.62598802745E+02  0.00000000000E+00 0.  1.
         -4    1    1    2    0  502  0.73811176640E+01 -0.53254213886E+02 -0.38723440998E+02  0.66257053038E+02  0.00000000000E+00 0.  1.
<scales pt_clust_5="13000.00000" pt_clust_6="13000.00000" pt_clust_7="13000.00000" pt_clust_8="13000.00000" pt_clust_9="53.76330"></scales>
<clustering>
<clus scale="   53.763">  1  9  2 -1</clus>
<clus scale="   85.238">  5  6 -1 -1</clus>
<clus scale="   87.713">  7  8 -1 -1</clus>
<clus scale="   91.815">  2  5  1 -1</clus>
<clus scale="   53.763">  1  5  2 -1</clus>
</clustering>
</event>
<event>
 9    2  0.4883225E-005  0.1142347E+03  0.7546771E-02  0.1255818E+00
          4   -1    0    0  502    0 -0.00000000000E+00  0.00000000000E+00  0.10130161096E+03  0.10130161096E+03  0.00000000000E+00 0. -1.
         21   -1    0    0  501  502  0.00000000000E+00 -0.00000000000E+00 -0.36337836228E+03  0.36337836228E+03  0.00000000000E+00 0.  1.
         23    2    1    2    0    0 -0.42541371658E+02  0.60242559559E+02  0.52224585921E+02  0.12743472570E+03  0.89851364234E+02 0.  0.
         24    2    1    2    0    0  0.21158335360E+02 -0.43887883323E+02 -0.25449175934E+03  0.27165641248E+03  0.81592459282E+02 0.  0.
        -11    1    4    4    0    0 -0.22639747432E+02 -0.45632337333E+02 -0.12672918377E+03  0.13658387311E+03  0.00000000000E+00 0.  1.
         12    1    4    4    0    0  0.43798082792E+02  0.17444540096E+01 -0.12776257557E+03  0.13507253937E+03  0.00000000000E+00 0. -1.
        -13    1    3    3    0    0  0.13251663562E+02  0.54204387055E+02  0.43257373935E+02  0.70603984044E+02  0.00000000000E+00 0. -1.
         13    1    3    3    0    0 -0.55793035220E+02  0.60381725041E+01  0.89672119856E+01  0.56830741655E+02  0.00000000000E+00 0.  1.
          3    1    1    2  501    0  0.21383036298E+02 -0.16354676235E+02 -0.59809577903E+02  0.65588835063E+02  0.00000000000E+00 0. -1.
<scales pt_clust_5="13000.00000" pt_clust_6="13000.00000" pt_clust_7="13000.00000" pt_clust_8="13000.00000" pt_clust_9="26.92043"></scales>
<clustering>
<clus scale="   26.920">  2  9  1 -1</clus>
<clus scale="   81.592">  5  6 -1 -1</clus>
<clus scale="   89.851">  7  8 -1 -1</clus>
<clus scale="  107.859">  2  5  1 -1</clus>
<clus scale="   26.920">  2  5  1 -1</clus>
</clustering>
</event>
<event>
 9    2  0.4883225E-005  0.1786495E+03  0.7546771E-02  0.1170824E+00
         21   -1    0    0  501  502  0.00000000000E+00  0.00000000000E+00  0.35685672925E+03  0.35685672925E+03  0.00000000000E+00 0.  1.
         -3   -1    0    0    0  501 -0.00000000000E+00 -0.00000000000E+00 -0.15706263477E+03  0.15706263477E+03  0.00000000000E+00 0.  1.
         23    2    1    2    0    0  0.15325952724E+03 -0.45531482637E+02 -0.61665379169E+02  0.19398123444E+03  0.90909304955E+02 0.  0.
         24    2    1    2    0    0 -0.12186224334E+03  0.48181015142E+02  0.22870320597E+03  0.27448724916E+03  0.76591624588E+02 0.  0.
        -11    1    4    4    0    0 -0.21805598313E+02 -0.22942261352E+01  0.10627031383E+03  0.10850865032E+03  0.00000000000E+00 0.  1.
         12    1    4    4    0    0 -0.10005664503E+03  0.50475241277E+02  0.12243289214E+03  0.16597859884E+03  0.00000000000E+00 0. -1.
        -11    1    3    3    0    0  0.27676419630E+02  0.12538302837E+02  0.17006179954E+02  0.34819583545E+02  0.00000000000E+00 0. -1.
         11    1    3    3    0    0  0.12558310761E+03 -0.58069785474E+02 -0.78671559124E+02  0.15916165090E+03  0.00000000000E+00 0.  1.
         -4    1    1    2    0  502 -0.31397283894E+02 -0.26495325051E+01  0.32756267681E+02  0.45450880419E+02  0.00000000000E+00 0.  1.
<scales pt_clust_5="13000.00000" pt_clust_6="13000.00000" pt_clust_7="13000.00000" pt_clust_8="13000.00000" pt_clust_9="31.50888"></scales>
<clustering>
<clus scale="   31.509">  1  9  2 -1</clus>
<clus scale="   76.592">  5  6 -1 -1</clus>
<clus scale="   90.909">  7  8 -1 -1</clus>
<clus scale="  171.806">  1  5  2 -1</clus>
<clus scale="   31.509">  1  5  2 -1</clus>
</clustering>
</event>
<event>
 9    2  0.4883225E-005  0.1493998E+03  0.7546771E-02  0.1222662E+00
         21   -1    0    0  501  502  0.00000000000E+00  0.00000000000E+00  0.28393322478E+03  0.28393322478E+03  0.00000000000E+00 0. -1.
         -1   -1    0    0    0  501 -0.00000000000E+00 -0.00000000000E+00 -0.29952742165E+03  0.29952742165E+03  0.00000000000E+00 0.  1.
         24    2    1    2    0    0 -0.48090547454E+02 -0.73400945274E+01  0.65691343988E+02  0.11520340842E+03  0.81178167599E+02 0.  0.
         23    2    1    2    0    0  0.13110769651E+03  0.87234996352E+02 -0.22153963796E+03  0.28674620768E+03  0.91347708010E+02 0.  0.
        -11    1    3    3    0    0  0.91408928779E+01 -0.28175742286E+02  0.66107464112E+01  0.30350129227E+02  0.00000000000E+00 0.  1.
         12    1    3    3    0    0 -0.57231440331E+02  0.20835647759E+02  0.59080597576E+02  0.84853279194E+02  0.00000000000E+00 0. -1.
        -11    1    4    4    0    0  0.41531120653E+02  0.82480542695E+02 -0.11135687533E+03  0.14466591717E+03  0.00000000000E+00 0. -1.
         11    1    4    4    0    0  0.89576575860E+02  0.47544536569E+01 -0.11018276263E+03  0.14208029051E+03  0.00000000000E+00 0.  1.
         -2    1    1    2    0  502 -0.83017149060E+02 -0.79894901824E+02  0.14025409710E+03  0.18151103033E+03  0.00000000000E+00 0.  1.
<scales pt_clust_5="13000.00000" pt_clust_6="13000.00000" pt_clust_7="13000.00000" pt_clust_8="13000.00000" pt_clust_9="118.21964"></scales>
<clustering>
<clus scale="   81.178">  5  6 -1 -1</clus>
<clus scale="   91.348">  7  8 -1 -1</clus>
<clus scale="   94.639">  2  5  1 -1</clus>
<clus scale="  118.220">  1  9  2 -1</clus>
<clus scale="  118.220">  1  5  2 -1</clus>
</clustering>
</event>
<event>
 9    2  0.4883225E-005  0.9896672E+02  0.7546771E-02  0.1282892E+00
         21   -1    0    0  501  502  0.00000000000E+00  0.00000000000E+00  0.10554987973E+03  0.10554987973E+03  0.00000000000E+00 0.  1.
          2   -1    0    0  502    0 -0.00000000000E+00 -0.00000000000E+00 -0.13452178979E+03  0.13452178979E+03  0.00000000000E+00 0. -1.
         23    2    1    2    0    0  0.23755648791E+02 -0.12329938279E+02 -0.30848402794E+02  0.10036227391E+03  0.91676626476E+02 0.  0.
         24    2    1    2    0    0 -0.34210380473E+02  0.43798964069E+02  0.14324364241E+00  0.10650389680E+03  0.90853509169E+02 0.  0.
        -13    1    4    4    0    0  0.17869399002E+02 -0.16925437849E+02  0.85717644857E+01  0.26062636350E+02  0.00000000000E+00 0.  1.
         14    1    4    4    0    0 -0.52079779476E+02  0.60724401918E+02 -0.84285208433E+01  0.80441260446E+02  0.00000000000E+00 0. -1.
        -13    1    3    3    0    0  0.27197626724E+02  0.29350349508E+02 -0.41037383386E+02  0.57316845262E+02  0.00000000000E+00 0.  1.
         13    1    3    3    0    0 -0.34419779326E+01 -0.41680287786E+02  0.10188980592E+02  0.43045428648E+02  0.00000000000E+00 0. -1.
          1    1    1    2  501    0  0.10454731682E+02 -0.31469025790E+02  0.17332490919E+01  0.33205498809E+02  0.00000000000E+00 0. -1.
<scales pt_clust_5="13000.00000" pt_clust_6="13000.00000" pt_clust_7="13000.00000" pt_clust_8="13000.00000" pt_clust_9="33.16023"></scales>
<clustering>
<clus scale="   33.160">  1  9  2 -1</clus>
<clus scale="   90.854">  5  6 -1 -1</clus>
<clus scale="   91.677">  7  8 -1 -1</clus>
<clus scale="   98.205">  1  5  2 -1</clus>
<clus scale="   33.160">  1  5  2 -1</clus>
</clustering>
</event>
<event>
 9    2  0.4883225E-005  0.9555457E+02  0.7546771E-02  0.1293772E+00
          2   -1    0    0  502    0 -0.00000000000E+00  0.00000000000E+00  0.79885271943E+02  0.79885271943E+02  0.00000000000E+00 0. -1.
         21   -1    0    0  501  502  0.00000000000E+00 -0.00000000000E+00 -0.57783620255E+03  0.57783620255E+03  0.00000000000E+00 0.  1.
         24    2    1    2    0    0  0.23223626134E+02  0.30030707652E+02  0.40143744175E+02  0.98471853435E+02  0.81510769287E+02 0.  0.
         23    2    1    2    0    0  0.30571634069E+02 -0.27513349412E+02 -0.37281232456E+03  0.38541486501E+03  0.88679082239E+02 0.  0.
        -11    1    3    3    0    0  0.32224691251E+02  0.76750987266E+01  0.59140006155E+02  0.67785530865E+02  0.00000000000E+00 0.  1.
         12    1    3    3    0    0 -0.90010651172E+01  0.22355608925E+02 -0.18996261980E+02  0.30686322570E+02  0.00000000000E+00 0. -1.
        -13    1    4    4    0    0  0.29949456817E+02  0.27936240189E+02 -0.12765393022E+03  0.13406315444E+03  0.00000000000E+00 0. -1.
         13    1    4    4    0    0  0.62217725260E+00 -0.55449589601E+02 -0.24515839434E+03  0.25135171057E+03  0.00000000000E+00 0.  1.
          1    1    1    2  501    0 -0.53795260203E+02 -0.25173582399E+01 -0.16528235022E+03  0.17383475604E+03  0.00000000000E+00 0. -1.
<scales pt_clust_5="13000.00000" pt_clust_6="13000.00000" pt_clust_7="13000.00000" pt_clust_8="13000.00000" pt_clust_9="53.85413"></scales>
<clustering>
<clus scale="   53.854">  2  9  1 -1</clus>
<clus scale="   81.511">  5  6 -1 -1</clus>
<clus scale="   88.679">  7  8 -1 -1</clus>
<clus scale="   88.942">  1  5  2 -1</clus>
<clus scale="   53.854">  2  5  1 -1</clus>
</clustering>
</event>
<event>
 9    2  0.4883225E-005  0.9970105E+02  0.7546771E-02  0.1286921E+00
         21   -1    0    0  501  502  0.00000000000E+00  0.00000000000E+00  0.22932027610E+02  0.22932027610E+02  0.00000000000E+00 0. -1.
          2   -1    0    0  502    0 -0.00000000000E+00 -0.00000000000E+00 -0.51202872684E+03  0.51202872684E+03  0.00000000000E+00 0. -1.
         24    2    1    2    0    0 -0.14039629021E+02 -0.18636564776E+02 -0.21426132040E+03  0.23197405717E+03  0.85788210435E+02 0.  0.
         23    2    1    2    0    0 -0.51098025369E+01  0.29087372944E+02 -0.18880587976E+03  0.21423426165E+03  0.96832191375E+02 0.  0.
        -11    1    3    3    0    0  0.18925106724E+02  0.21279111567E+02 -0.12998495285E+03  0.13306783316E+03  0.00000000000E+00 0.  1.
         12    1    3    3    0    0 -0.32964735744E+02 -0.39915676343E+02 -0.84276367542E+02  0.98906224004E+02  0.00000000000E+00 0. -1.
        -13    1    4    4    0    0  0.17012721226E+01  0.60922515440E+02 -0.79440121163E+02  0.10012582117E+03  0.00000000000E+00 0. -1.
         13    1    4    4    0    0 -0.68110746595E+01 -0.31835142496E+02 -0.10936575860E+03  0.11410844049E+03  0.00000000000E+00 0.  1.
          1    1    1    2  501    0  0.19149431558E+02 -0.10450808168E+02 -0.86029499071E+02  0.88752435633E+02  0.00000000000E+00 0. -1.
<scales pt_clust_5="13000.00000" pt_clust_6="13000.00000" pt_clust_7="13000.00000" pt_clust_8="13000.00000" pt_clust_9="21.81560"></scales>
<clustering>
<clus scale="   21.816">  1  9  2 -1</clus>
<clus scale="   85.788">  5  6 -1 -1</clus>
<clus scale="   89.014">  2  5  1 -1</clus>
<clus scale="   96.832">  7  8 -1 -1</clus>
<clus scale="   21.816">  1  5  2 -1</clus>
</clustering>
</event>
<event>
 9    2  0.4883225E-005  0.1104632E+03  0.7546771E-02  0.1263632E+00
         21   -1    0    0  501  502  0.00000000000E+00  0.00000000000E+00  0.20354572069E+03  0.20354572069E+03  0.00000000000E+00 0. -1.
          2   -1    0    0  502    0 -0.00000000000E+00 -0.00000000000E+00 -0.73754590031E+03  0.73754590031E+03  0.00000000000E+00 0. -1.
         24    2    1    2    0    0  0.46116711195E+02 -0.41949565225E+02 -0.69074646718E+03  0.69823768076E+03  0.80738217972E+02 0.  0.
         23    2    1    2    0    0 -0.42229558477E+02  0.62470186282E+02  0.40622817948E+02  0.12486722049E+03  0.90861155784E+02 0.  0.
        -11    1    3    3    0    0  0.11983228129E+02 -0.19815307677E+02 -0.39990198724E+02  0.46211039468E+02  0.00000000000E+00 0.  1.
         12    1    3    3    0    0  0.34133483066E+02 -0.22134257548E+02 -0.65075626846E+03  0.65202664130E+03  0.00000000000E+00 0. -1.
        -13    1    4    4    0    0  0.18487230903E+01  0.59319264988E+02  0.52360406173E+02  0.79144204528E+02  0.00000000000E+00 0.  1.
         13    1    4    4    0    0 -0.44078281567E+02  0.31509212943E+01 -0.11737588225E+02  0.45723015958E+02  0.00000000000E+00 0. -1.
          1    1    1    2  501    0 -0.38871527182E+01 -0.20520621057E+02  0.11612346961E+03  0.11798671976E+03  0.00000000000E+00 0. -1.
<scales pt_clust_5="13000.00000" pt_clust_6="13000.00000" pt_clust_7="13000.00000" pt_clust_8="13000.00000" pt_clust_9="20.88554"></scales>
<clustering>
<clus scale="   20.886">  1  9  2 -1</clus>
<clus scale="   80.738">  5  6 -1 -1</clus>
<clus scale="   90.861">  7  8 -1 -1</clus>
<clus scale="  102.299">  2  5  1 -1</clus>
<clus scale="   20.886">  1  5  2 -1</clus>
</clustering>
</event>
<event>
 9    2  0.4883225E-005  0.9521827E+02  0.7546771E-02  0.1296939E+00
         21   -1    0    0  501  502  0.00000000000E+00  0.00000000000E+00  0.62687748614E+02  0.62687748614E+02  0.00000000000E+00 0. -1.
          2   -1    0    0  502    0 -0.00000000000E+00 -0.00000000000E+00 -0.50925563312E+03  0.50925563312E+03  0.00000000000E+00 0. -1.
         24    2    1    2    0    0  0.35828368069E+02 -0.13769252439E+01 -0.33869157531E+03  0.34988293416E+03  0.80128125827E+02 0.  0.
         23    2    1    2    0    0 -0.16804296574E+01 -0.30689105968E+02 -0.13664084920E+03  0.16709035738E+03  0.91125302684E+02 0.  0.
        -11    1    3    3    0    0 -0.25324934624E+02 -0.16676621466E+01 -0.12818578970E+03  0.13067413704E+03  0.00000000000E+00 0.  1.
         12    1    3    3    0    0  0.61153302694E+02  0.29073690272E+00 -0.21050578561E+03  0.21920879712E+03  0.00000000000E+00 0. -1.
        -13    1    4    4    0    0 -0.35299435996E+02  0.55322838049E+01 -0.21273238684E+02  0.41583735160E+02  0.00000000000E+00 0.  1.
         13    1    4    4    0    0  0.33619006338E+02 -0.36221389773E+02 -0.11536761052E+03  0.12550662222E+03  0.00000000000E+00 0. -1.
          1    1    1    2  501    0 -0.34147938412E+02  0.32066031212E+02  0.28764540000E+02  0.54970090202E+02  0.00000000000E+00 0. -1.
<scales pt_clust_5="13000.00000" pt_clust_6="13000.00000" pt_clust_7="13000.00000" pt_clust_8="13000.00000" pt_clust_9="46.84348"></scales>
<clustering>
<clus scale="   46.843">  1  9  2 -1</clus>
<clus scale="   80.128">  5  6 -1 -1</clus>
<clus scale="   84.754">  2  5  1 -1</clus>
<clus scale="   91.125">  7  8 -1 -1</clus>
<clus scale="   46.843">  1  5  2 -1</clus>
</clustering>
</event>
<event>
 9    2  0.4883225E-005  0.2004622E+03  0.7546771E-02  0.1165924E+00
          2   -1    0    0  502    0 -0.00000000000E+00  0.00000000000E+00  0.64959681379E+03  0.64959681379E+03  0.00000000000E+00 0. -1.
         21   -1    0    0  501  502  0.00000000000E+00 -0.00000000000E+00 -0.17220795227E+03  0.17220795227E+03  0.00000000000E+00 0. -1.
         24    2    1    2    0    0  0.10433478526E+03  0.67921401843E+02  0.13552753948E+03  0.19204857223E+03  0.54916990945E+02 0.  0.
         23    2    1    2    0    0 -0.18045142396E+03  0.61525688496E+02 -0.43353317010E+02  0.21630654754E+03  0.92525054214E+02 0.  0.
        -11    1    3    3    0    0  0.19768472584E+02  0.41716009678E+02  0.59806710300E+02  0.75550384305E+02  0.00000000000E+00 0.  1.
         12    1    3    3    0    0  0.84566312675E+02  0.26205392166E+02  0.75720829182E+02  0.11649818793E+03  0.00000000000E+00 0. -1.
        -11    1    4    4    0    0 -0.10266933399E+03 -0.50774275469E+01  0.53069911641E+01  0.10293170827E+03  0.00000000000E+00 0.  1.
         11    1    4    4    0    0 -0.77782089968E+02  0.66603116043E+02 -0.48660308174E+02  0.11337483926E+03  0.00000000000E+00 0. -1.
          1    1    1    2  501    0  0.76116638700E+02 -0.12944709034E+03  0.38521463905E+03  0.41344964630E+03  0.00000000000E+00 0. -1.
<scales pt_clust_5="13000.00000" pt_clust_6="13000.00000" pt_clust_7="13000.00000" pt_clust_8="13000.00000" pt_clust_9="177.83209"></scales>
<clustering>
<clus scale="   54.917">  5  6 -1 -1</clus>
<clus scale="   92.525">  7  8 -1 -1</clus>
<clus scale="  136.070">  1  5  2 -1</clus>
<clus scale="  177.832">  2  9  1 -1</clus>
<clus scale="  177.832">  2  5  1 -1</clus>
</clustering>
</event>
<event>
 9    2  0.4883225E-005  0.1216236E+03  0.7546771E-02  0.1248702E+00
         -1   -1    0    0    0  501 -0.00000000000E+00  0.00000000000E+00  0.40397319125E+02  0.40397319125E+02  0.00000000000E+00 0.  1.
         21   -1    0    0  501  502  0.00000000000E+00 -0.00000000000E+00 -0.82660232000E+03  0.82660232000E+03  0.00000000000E+00 0.  1.
         23    2    1    2    0    0  0.59603410667E+02  0.28339467403E+01 -0.25952866111E+03  0.28563647029E+03  0.10330764445E+03 0.  0.
         24    2    1    2    0    0 -0.37231375278E+02 -0.95546334144E+02 -0.41239358703E+03  0.43251209455E+03  0.80516855581E+02 0.  0.
        -11    1    4    4    0    0 -0.61823091676E+02 -0.66110969610E+02 -0.31778336502E+03  0.33042249023E+03  0.00000000000E+00 0.  1.
         12    1    4    4    0    0  0.24591716398E+02 -0.29435364534E+02 -0.94610222013E+02  0.10208960432E+03  0.00000000000E+00 0. -1.
        -11    1    3    3    0    0 -0.60951109186E+01 -0.31832798884E+02 -0.29197738420E+02  0.43623220775E+02  0.00000000000E+00 0. -1.
         11    1    3    3    0    0  0.65698521586E+02  0.34666745624E+02 -0.23033092269E+03  0.24201324951E+03  0.00000000000E+00 0.  1.
         -2    1    1    2    0  502 -0.22372035389E+02  0.92712387404E+02 -0.11428275273E+03  0.14885107429E+03  0.00000000000E+00 0.  1.
<scales pt_clust_5="13000.00000" pt_clust_6="13000.00000" pt_clust_7="13000.00000" pt_clust_8="13000.00000" pt_clust_9="95.37350"></scales>
<clustering>
<clus scale="   80.517">  5  6 -1 -1</clus>
<clus scale="   95.373">  2  9  1 -1</clus>
<clus scale="  102.970">  2  5  1 -1</clus>
<clus scale="  103.308">  7  8 -1 -1</clus>
<clus scale="   95.373">  2  5  1 -1</clus>
</clustering>
</event>
<event>
 9    2  0.4883225E-005  0.2132549E+03  0.7546771E-02  0.1163079E+00
         21   -1    0    0  501  502  0.00000000000E+00  0.00000000000E+00  0.69117335982E+03  0.69117335982E+03  0.00000000000E+00 0. -1.
          2   -1    0    0  502    0 -0.00000000000E+00 -0.00000000000E+00 -0.36682659540E+03  0.36682659540E+03  0.00000000000E+00 0. -1.
         23    2    1    2    0    0  0.77110504076E+02 -0.15318441121E+02  0.17601349617E+02  0.12197255332E+03  0.91579537992E+02 0.  0.
         24    2    1    2    0    0  0.11924658319E+03  0.95427093949E+01 -0.27959314598E+03  0.31765666144E+03  0.91774813388E+02 0.  0.
        -13    1    4    4    0    0  0.31027754896E+02 -0.11311749639E+02 -0.12019743329E+02  0.35144721986E+02  0.00000000000E+00 0.  1.
         14    1    4    4    0    0  0.88218828292E+02  0.20854459034E+02 -0.26757340265E+03  0.28251193946E+03  0.00000000000E+00 0. -1.
        -11    1    3    3    0    0  0.77138425017E+02  0.21554816954E+02  0.25900076854E+02  0.84176960798E+02  0.00000000000E+00 0. -1.
         11    1    3    3    0    0 -0.27920941450E-01 -0.36873258075E+02 -0.82987272365E+01  0.37795592526E+02  0.00000000000E+00 0.  1.
          1    1    1    2  501    0 -0.19635708726E+03  0.57757317262E+01  0.58633856078E+03  0.61837074046E+03  0.00000000000E+00 0. -1.
<scales pt_clust_5="13000.00000" pt_clust_6="13000.00000" pt_clust_7="13000.00000" pt_clust_8="13000.00000" pt_clust_9="192.49679"></scales>
<clustering>
<clus scale="   91.580">  7  8 -1 -1</clus>
<clus scale="   91.775">  5  6 -1 -1</clus>
<clus scale="  120.696">  2  7  1 -1</clus>
<clus scale="  192.497">  1  9  2 -1</clus>
<clus scale="  192.497">  1  5  2 -1</clus>
</clustering>
</event>
<event>
 9    2  0.4883225E-005  0.1874240E+03  0.7546771E-02  0.1199283E+00
          2   -1    0    0  502    0 -0.00000000000E+00  0.00000000000E+00  0.41854821187E+03  0.41854821187E+03  0.00000000000E+00 0. -1.
         21   -1    0    0  501  502  0.00000000000E+00 -0.00000000000E+00 -0.57867775284E+03  0.57867775284E+03  0.00000000000E+00 0. -1.
         24    2    1    2    0    0 -0.19801884081E+02  0.20021034771E+02  0.33475961895E+03  0.34393372383E+03  0.73711922125E+02 0.  0.
         23    2    1    2    0    0 -0.71294704127E+02  0.12335764531E+03 -0.47951275380E+02  0.17516097551E+03  0.89899939039E+02 0.  0.
        -11    1    3    3    0    0 -0.11735012651E+02 -0.27542138596E+02  0.10625201958E+03  0.11038918238E+03  0.00000000000E+00 0.  1.
         12    1    3    3    0    0 -0.80668714301E+01  0.47563173367E+02  0.22850759937E+03  0.23354454146E+03  0.00000000000E+00 0. -1.
        -11    1    4    4    0    0  0.80380254118E+01  0.18609393044E+02 -0.38390763316E+02  0.43413938659E+02  0.00000000000E+00 0.  1.
         11    1    4    4    0    0 -0.79332729539E+02  0.10474825226E+03 -0.95605120645E+01  0.13174703685E+03  0.00000000000E+00 0. -1.
          1    1    1    2  501    0  0.91096588207E+02 -0.14337868008E+03 -0.44693788454E+03  0.47813126536E+03  0.00000000000E+00 0. -1.
<scales pt_clust_5="13000.00000" pt_clust_6="13000.00000" pt_clust_7="13000.00000" pt_clust_8="13000.00000" pt_clust_9="164.45593"></scales>
<clustering>
<clus scale="   73.712">  5  6 -1 -1</clus>
<clus scale="   78.908">  1  5  2 -1</clus>
<clus scale="   89.900">  7  8 -1 -1</clus>
<clus scale="  164.456">  2  9  1 -1</clus>
<clus scale="  164.456">  2  5  1 -1</clus>
</clustering>
</event>
<event>
 9    2  0.4883225E-005  0.2790574E+03  0.7546771E-02  0.1096566E+00
         21   -1    0    0  501  502  0.00000000000E+00  0.00000000000E+00  0.30183833586E+03  0.30183833586E+03  0.00000000000E+00 0.  1.
          2   -1    0    0  502    0 -0.00000000000E+00 -0.00000000000E+00 -0.48166057202E+03  0.48166057202E+03  0.00000000000E+00 0. -1.
         24    2    1    2    0    0  0.75316558906E+01 -0.25772637552E+03 -0.31260788243E+03  0.41373696617E+03  0.83516336972E+02 0.  0.
         23    2    1    2    0    0 -0.28197442258E+02  0.28529422448E+03  0.88727866023E+02  0.31383208365E+03  0.91815315981E+02 0.  0.
        -11    1    3    3    0    0 -0.30280134472E+02 -0.19404453384E+03 -0.23867838874E+03  0.30909147660E+03  0.00000000000E+00 0.  1.
         12    1    3    3    0    0  0.37811790362E+02 -0.63681841683E+02 -0.73929493690E+02  0.10464548957E+03  0.00000000000E+00 0. -1.
        -13    1    4    4    0    0 -0.40445975195E+02  0.79728495860E+02  0.55530055787E+02  0.10524303805E+03  0.00000000000E+00 0.  1.
         13    1    4    4    0    0  0.12248532937E+02  0.20556572862E+03  0.33197810236E+02  0.20858904560E+03  0.00000000000E+00 0. -1.
          1    1    1    2  501    0  0.20665786367E+02 -0.27567848958E+02  0.44057780249E+02  0.55929858062E+02  0.00000000000E+00 0. -1.
<scales pt_clust_5="13000.00000" pt_clust_6="13000.00000" pt_clust_7="13000.00000" pt_clust_8="13000.00000" pt_clust_9="34.45375"></scales>
<clustering>
<clus scale="   34.454">  1  9  2 -1</clus>
<clus scale="   83.516">  5  6 -1 -1</clus>
<clus scale="   91.815">  7  8 -1 -1</clus>
<clus scale="  276.438">  2  5  1 -1</clus>
<clus scale="   34.454">  1  5  2 -1</clus>
</clustering>
</event>
<event>
 9    2  0.4883225E-005  0.2526651E+03  0.7546771E-02  0.1112277E+00
         21   -1    0    0  501  502  0.00000000000E+00  0.00000000000E+00  0.76739815367E+02  0.76739815367E+02  0.00000000000E+00 0.  1.
          2   -1    0    0  502    0 -0.00000000000E+00 -0.00000000000E+00 -0.16260176643E+04  0.16260176643E+04  0.00000000000E+00 0. -1.
         24    2    1    2    0    0 -0.46406300262E+02 -0.15429283807E+03 -0.27790726899E+03  0.33182654922E+03  0.83166002824E+02 0.  0.
         23    2    1    2    0    0  0.32910078523E+02  0.32574536215E+03 -0.83301401903E+03  0.90004390524E+03  0.94728882748E+02 0.  0.
        -11    1    3    3    0    0 -0.36633252981E+02 -0.10212449378E+03 -0.24849062558E+03  0.27114387040E+03  0.00000000000E+00 0.  1.
         12    1    3    3    0    0 -0.97730472812E+01 -0.52168344293E+02 -0.29416643409E+02  0.60682678821E+02  0.00000000000E+00 0. -1.
        -13    1    4    4    0    0 -0.14627168204E+02  0.26554328630E+02 -0.14736243835E+03  0.15044857811E+03  0.00000000000E+00 0. -1.
         13    1    4    4    0    0  0.47537246728E+02  0.29919103352E+03 -0.68565158068E+03  0.74959532713E+03  0.00000000000E+00 0.  1.
          1    1    1    2  501    0  0.13496221739E+02 -0.17145252408E+03 -0.43835656095E+03  0.47088702524E+03  0.00000000000E+00 0. -1.
<scales pt_clust_5="13000.00000" pt_clust_6="13000.00000" pt_clust_7="13000.00000" pt_clust_8="13000.00000" pt_clust_9="171.98298"></scales>
<clustering>
<clus scale="   83.166">  5  6 -1 -1</clus>
<clus scale="   94.729">  7  8 -1 -1</clus>
<clus scale="  171.983">  1  9  2 -1</clus>
<clus scale="  248.561">  2  5  1 -1</clus>
<clus scale="  171.983">  1  5  2 -1</clus>
</clustering>
</event>
<event>
 9    2  0.4883225E-005  0.1042455E+03  0.7546771E-02  0.1275876E+00
         21   -1    0    0  501  502  0.00000000000E+00  0.00000000000E+00  0.34212738886E+02  0.34212738886E+02  0.00000000000E+00 0.  1.
          2   -1    0    0  502    0 -0.00000000000E+00 -0.00000000000E+00 -0.81200086913E+03  0.81200086913E+03  0.00000000000E+00 0. -1.
         24    2    1    2    0    0 -0.54373596515E+02  0.73866053184E+01 -0.56065622794E+03  0.56906765502E+03  0.80570094550E+02 0.  0.
         23    2    1    2    0    0  0.41153493398E+02 -0.26589731686E+02 -0.22902607765E+03  0.25097339875E+03  0.90189127879E+02 0.  0.
        -13    1    3    3    0    0  0.20822238201E+02 -0.71839405038E+00 -0.90515270220E+02  0.92882161025E+02  0.00000000000E+00 0.  1.
         14    1    3    3    0    0 -0.75195834716E+02  0.81049993687E+01 -0.47014095772E+03  0.47618549400E+03  0.00000000000E+00 0. -1.
        -11    1    4    4    0    0 -0.15819497686E+02 -0.40926423853E+02 -0.99831045506E+02  0.10904800009E+03  0.00000000000E+00 0.  1.
         11    1    4    4    0    0  0.56972991084E+02  0.14336692167E+02 -0.12919503214E+03  0.14192539866E+03  0.00000000000E+00 0. -1.
          1    1    1    2  501    0  0.13220103116E+02  0.19203126367E+02  0.11894175337E+02  0.26172554244E+02  0.00000000000E+00 0. -1.
<scales pt_clust_5="13000.00000" pt_clust_6="13000.00000" pt_clust_7="13000.00000" pt_clust_8="13000.00000" pt_clust_9="23.31376"></scales>
<clustering>
<clus scale="   23.314">  1  9  2 -1</clus>
<clus scale="   80.570">  5  6 -1 -1</clus>
<clus scale="   90.189">  7  8 -1 -1</clus>
<clus scale="   96.045">  2  5  1 -1</clus>
<clus scale="   23.314">  1  5  2 -1</clus>
</clustering>
</event>
<event>
 9    2  0.6307028E-005  0.1358156E+03  0.7546771E-02  0.1234391E+00
          2   -1    0    0  502    0 -0.00000000000E+00  0.00000000000E+00  0.94824050084E+03  0.94824050084E+03  0.00000000000E+00 0. -1.
         21   -1    0    0  501  502  0.00000000000E+00 -0.00000000000E+00 -0.79888668773E+02  0.79888668773E+02  0.00000000000E+00 0. -1.
         24    2    1    2    0    0 -0.48767672016E+02 -0.32429961462E+02  0.10201134136E+03  0.14202368610E+03  0.79589103602E+02 0.  0.
         23    2    1    2    0    0 -0.34486501318E+02 -0.89331497411E+02  0.30620777724E+02  0.13574516586E+03  0.91212295347E+02 0.  0.
        -13    1    3    3    0    0 -0.74976922466E+01 -0.52422997386E+02  0.54963426920E+02  0.76324074463E+02  0.00000000000E+00 0.  1.
         14    1    3    3    0    0 -0.41269979769E+02  0.19993035923E+02  0.47047914443E+02  0.65699611635E+02  0.00000000000E+00 0. -1.
        -11    1    4    4    0    0 -0.33581567642E+02  0.65522517617E+01  0.19052461196E+02  0.39161843241E+02  0.00000000000E+00 0.  1.
         11    1    4    4    0    0 -0.90493367612E+00 -0.95883749173E+02  0.11568316528E+02  0.96583322617E+02  0.00000000000E+00 0. -1.
          1    1    1    2  501    0  0.83254173334E+02  0.12176145887E+03  0.73571971298E+03  0.75036031766E+03  0.00000000000E+00 0. -1.
<scales pt_clust_5="13000.00000" pt_clust_6="13000.00000" pt_clust_7="13000.00000" pt_clust_8="13000.00000" pt_clust_9="100.62900"></scales>
<clustering>
<clus scale="   79.589">  5  6 -1 -1</clus>
<clus scale="   91.212">  7  8 -1 -1</clus>
<clus scale="   98.815">  1  5  2 -1</clus>
<clus scale="  100.629">  2  9  1 -1</clus>
<clus scale="  100.629">  2  5  1 -1</clus>
</clustering>
</event>
<event>
 9    2  0.4883225E-005  0.1016997E+03  0.7546771E-02  0.1282258E+00
          4   -1    0    0  502    0 -0.00000000000E+00  0.00000000000E+00  0.14094652474E+03  0.14094652474E+03  0.00000000000E+00 0. -1.
         21   -1    0    0  501  502  0.00000000000E+00 -0.00000000000E+00 -0.12844647972E+03  0.12844647972E+03  0.00000000000E+00 0. -1.
         23    2    1    2    0    0 -0.14193733936E+02 -0.25324625076E+02  0.12026720066E+02  0.96128631284E+02  0.90847526321E+02 0.  0.
         24    2    1    2    0    0  0.39565777240E+02  0.64232594886E+02 -0.34844323855E+02  0.11491279210E+03  0.79369678768E+02 0.  0.
        -11    1    4    4    0    0  0.49652285092E+02  0.55931938070E+02  0.30264030097E+01  0.74852456381E+02  0.00000000000E+00 0.  1.
         12    1    4    4    0    0 -0.10086507852E+02  0.83006568163E+01 -0.37870726865E+02  0.40060335714E+02  0.00000000000E+00 0. -1.
        -13    1    3    3    0    0 -0.43991826701E+02  0.34894005663E+00  0.29625403102E+02  0.53038354844E+02  0.00000000000E+00 0.  1.
         13    1    3    3    0    0  0.29798092765E+02 -0.25673565133E+02 -0.17598683036E+02  0.43090276440E+02  0.00000000000E+00 0. -1.
          3    1    1    2  501    0 -0.25372043304E+02 -0.38907969810E+02  0.35317648811E+02  0.58351581073E+02  0.00000000000E+00 0. -1.
<scales pt_clust_5="13000.00000" pt_clust_6="13000.00000" pt_clust_7="13000.00000" pt_clust_8="13000.00000" pt_clust_9="46.44968"></scales>
<clustering>
<clus scale="   46.450">  2  9  1 -1</clus>
<clus scale="   79.370">  5  6 -1 -1</clus>
<clus scale="   90.848">  7  8 -1 -1</clus>
<clus scale="   91.592">  2  5  1 -1</clus>
<clus scale="   46.450">  2  5  1 -1</clus>
</clustering>
</event>
<event>
 9    2  0.4883225E-005  0.1435986E+03  0.7546771E-02  0.1224773E+00
         21   -1    0    0  501  502  0.00000000000E+00  0.00000000000E+00  0.51112418871E+02  0.51112418871E+02  0.00000000000E+00 0. -1.
          2   -1    0    0  502    0 -0.00000000000E+00 -0.00000000000E+00 -0.78953438175E+03  0.78953438175E+03  0.00000000000E+00 0. -1.
         24    2    1    2    0    0 -0.60899017841E+02 -0.15762667463E+02 -0.35175889332E+03  0.36624463212E+03  0.80272407841E+02 0.  0.
         23    2    1    2    0    0 -0.10961952662E+02  0.10829141176E+03 -0.28887883494E+03  0.32180032008E+03  0.90869524370E+02 0.  0.
        -11    1    3    3    0    0 -0.11326303883E+02 -0.38276066663E+02 -0.22145175972E+03  0.22502049756E+03  0.00000000000E+00 0.  1.
         12    1    3    3    0    0 -0.49572713958E+02  0.22513399200E+02 -0.13030713360E+03  0.14122413455E+03  0.00000000000E+00 0. -1.
        -11    1    4    4    0    0  0.19516091333E+02  0.27220281307E+02 -0.17789650825E+03  0.18102206822E+03  0.00000000000E+00 0.  1.
         11    1    4    4    0    0 -0.30478043995E+02  0.81071130458E+02 -0.11098232670E+03  0.14077825187E+03  0.00000000000E+00 0. -1.
          1    1    1    2  501    0  0.71860970503E+02 -0.92528744301E+02 -0.97784234607E+02  0.15260184842E+03  0.00000000000E+00 0. -1.
<scales pt_clust_5="13000.00000" pt_clust_6="13000.00000" pt_clust_7="13000.00000" pt_clust_8="13000.00000" pt_clust_9="111.19029"></scales>
<clustering>
<clus scale="   80.272">  5  6 -1 -1</clus>
<clus scale="   90.870">  7  8 -1 -1</clus>
<clus scale="  101.984">  2  5  1 -1</clus>
<clus scale="  111.190">  1  9  2 -1</clus>
<clus scale="  111.190">  1  5  2 -1</clus>
</clustering>
</event>
<event>
 9    2  0.4883225E-005  0.1300799E+03  0.7546771E-02  0.1230740E+00
         21   -1    0    0  501  502  0.00000000000E+00  0.00000000000E+00  0.18585528984E+03  0.18585528984E+03  0.00000000000E+00 0.  1.
          2   -1    0    0  502    0 -0.00000000000E+00 -0.00000000000E+00 -0.90014136972E+03  0.90014136972E+03  0.00000000000E+00 0. -1.
         24    2    1    2    0    0  0.82479241867E+02 -0.38726892213E+02 -0.85215649334E+03  0.86083002101E+03  0.80963191716E+02 0.  0.
         23    2    1    2    0    0 -0.58148178514E+02  0.91499603285E+01  0.14871814996E+03  0.18536125034E+03  0.93684430738E+02 0.  0.
        -13    1    3    3    0    0  0.80413297386E+01  0.21733205481E+02 -0.10386914726E+03  0.10642271824E+03  0.00000000000E+00 0.  1.
         14    1    3    3    0    0  0.74437912129E+02 -0.60460097694E+02 -0.74828734608E+03  0.75440730277E+03  0.00000000000E+00 0. -1.
        -11    1    4    4    0    0 -0.66726901749E+02 -0.27153607576E+02  0.11087270367E+03  0.13222161034E+03  0.00000000000E+00 0.  1.
         11    1    4    4    0    0  0.85787232352E+01  0.36303567904E+02  0.37845446291E+02  0.53139640005E+02  0.00000000000E+00 0. -1.
          1    1    1    2  501    0 -0.24331063353E+02  0.29576931884E+02 -0.10847736499E+02  0.39805388213E+02  0.00000000000E+00 0. -1.
<scales pt_clust_5="13000.00000" pt_clust_6="13000.00000" pt_clust_7="13000.00000" pt_clust_8="13000.00000" pt_clust_9="38.29877"></scales>
<clustering>
<clus scale="   38.299">  1  9  2 -1</clus>
<clus scale="   80.963">  5  6 -1 -1</clus>
<clus scale="   93.684">  7  8 -1 -1</clus>
<clus scale="  121.240">  2  5  1 -1</clus>
<clus scale="   38.299">  1  5  2 -1</clus>
</clustering>
</event>
<event>
 9    2  0.4883225E-005  0.9421796E+02  0.7546771E-02  0.1300330E+00
         21   -1    0    0  501  502  0.00000000000E+00  0.00000000000E+00  0.10225741678E+03  0.10225741678E+03  0.00000000000E+00 0. -1.
         -1   -1    0    0    0  501 -0.00000000000E+00 -0.00000000000E+00 -0.11202190524E+03  0.11202190524E+03  0.00000000000E+00 0.  1.
         23    2    1    2    0    0  0.26693526995E+02  0.82734119655E+01 -0.31239038531E+02  0.98968803817E+02  0.89654631066E+02 0.  0.
         24    2    1    2    0    0 -0.31749855038E+02  0.16751096997E+02  0.51711724992E+01  0.85018726864E+02  0.76894670472E+02 0.  0.
        -11    1    4    4    0    0 -0.10227728546E+02 -0.24097347661E+02  0.23657442101E+02  0.35284035515E+02  0.00000000000E+00 0.  1.
         12    1    4    4    0    0 -0.21522126493E+02  0.40848444658E+02 -0.18486269602E+02  0.49734691348E+02  0.00000000000E+00 0. -1.
        -11    1    3    3    0    0  0.27598201182E+02  0.31006056236E+02  0.17603255416E+02  0.45087812467E+02  0.00000000000E+00 0. -1.
         11    1    3    3    0    0 -0.90467418686E+00 -0.22732644270E+02 -0.48842293946E+02  0.53880991350E+02  0.00000000000E+00 0.  1.
         -2    1    1    2    0  502  0.50563280430E+01 -0.25024508963E+02  0.16303377580E+02  0.30291791341E+02  0.00000000000E+00 0.  1.
<scales pt_clust_5="13000.00000" pt_clust_6="13000.00000" pt_clust_7="13000.00000" pt_clust_8="13000.00000" pt_clust_9="25.53023"></scales>
<clustering>
<clus scale="   25.530">  1  9  2 -1</clus>
<clus scale="   76.895">  5  6 -1 -1</clus>
<clus scale="   82.170">  1  5  2 -1</clus>
<clus scale="   89.655">  7  8 -1 -1</clus>
<clus scale="   25.530">  1  5  2 -1</clus>
</clustering>
</event>
<event>
 9    2  0.4883225E-005  0.9132912E+02  0.7546771E-02  0.1301201E+00
          2   -1    0    0  502    0 -0.00000000000E+00  0.00000000000E+00  0.12404278094E+04  0.12404278094E+04  0.00000000000E+00 0. -1.
         21   -1    0    0  501  502  0.00000000000E+00 -0.00000000000E+00 -0.45114822002E+02  0.45114822002E+02  0.00000000000E+00 0. -1.
         24    2    1    2    0    0  0.28203596328E+02  0.25088961050E+02  0.11387827718E+04  0.11422669898E+04  0.80763704731E+02 0.  0.
         23    2    1    2    0    0 -0.38919897241E+02  0.11258387947E+02  0.47567410483E+02  0.10433593486E+03  0.83557280134E+02 0.  0.
        -11    1    3    3    0    0 -0.26085710869E+01  0.28561101789E+02  0.13534783991E+03  0.13835309518E+03  0.00000000000E+00 0.  1.
         12    1    3    3    0    0  0.30812167415E+02 -0.34721407390E+01  0.10034349318E+04  0.10039138946E+04  0.00000000000E+00 0. -1.
        -11    1    4    4    0    0 -0.17682849929E+02  0.47120324180E+02  0.18948943178E+02  0.53777974860E+02  0.00000000000E+00 0. -1.
         11    1    4    4    0    0 -0.21237047312E+02 -0.35861936233E+02  0.28618467305E+02  0.50557960004E+02  0.00000000000E+00 0.  1.
          1    1    1    2  501    0  0.10716300913E+02 -0.36347348998E+02  0.89628052002E+01  0.38939706746E+02  0.00000000000E+00 0. -1.
<scales pt_clust_5="13000.00000" pt_clust_6="13000.00000" pt_clust_7="13000.00000" pt_clust_8="13000.00000" pt_clust_9="37.89418"></scales>
<clustering>
<clus scale="   37.894">  2  9  1 -1</clus>
<clus scale="   80.764">  5  6 -1 -1</clus>
<clus scale="   83.557">  7  8 -1 -1</clus>
<clus scale="   88.780">  1  5  2 -1</clus>
<clus scale="   37.894">  2  5  1 -1</clus>
</clustering>
</event>
<event>
 9    2  0.4883225E-005  0.1196383E+03  0.7546771E-02  0.1247854E+00
          2   -1    0    0  502    0 -0.00000000000E+00  0.00000000000E+00  0.97187562169E+03  0.97187562169E+03  0.00000000000E+00 0. -1.
         21   -1    0    0  501  502  0.00000000000E+00 -0.00000000000E+00 -0.49166817461E+02  0.49166817461E+02  0.00000000000E+00 0. -1.
         24    2    1    2    0    0  0.83079408372E+02 -0.54749394624E+02  0.56337578832E+03  0.57754903113E+03  0.79189141912E+02 0.  0.
         23    2    1    2    0    0  0.15575366703E+01  0.67819525776E+02  0.33571105366E+03  0.35465513982E+03  0.92067598300E+02 0.  0.
        -13    1    3    3    0    0  0.41752032763E+02 -0.67225334559E+02  0.28248423704E+03  0.29335954394E+03  0.00000000000E+00 0.  1.
         14    1    3    3    0    0  0.41327375609E+02  0.12475939935E+02  0.28089155128E+03  0.28418948720E+03  0.00000000000E+00 0. -1.
        -11    1    4    4    0    0 -0.40856013003E+02  0.13565677159E+02  0.95234297141E+02  0.10451226123E+03  0.00000000000E+00 0.  1.
         11    1    4    4    0    0  0.42413549673E+02  0.54253848618E+02  0.24047675652E+03  0.25014287859E+03  0.00000000000E+00 0. -1.
          1    1    1    2  501    0 -0.84636945042E+02 -0.13070131153E+02  0.23621962252E+02  0.88838268190E+02  0.00000000000E+00 0. -1.
<scales pt_clust_5="13000.00000" pt_clust_6="13000.00000" pt_clust_7="13000.00000" pt_clust_8="13000.00000" pt_clust_9="85.64018"></scales>
<clustering>
<clus scale="   79.189">  5  6 -1 -1</clus>
<clus scale="   85.640">  2  9  1 -1</clus>
<clus scale="   92.068">  7  8 -1 -1</clus>
<clus scale="  110.035">  1  5  2 -1</clus>
<clus scale="   85.640">  2  5  1 -1</clus>
</clustering>
</event>
<event>
 9    2  0.4883225E-005  0.1012457E+03  0.7546771E-02  0.1278423E+00
         21   -1    0    0  501  502  0.00000000000E+00  0.00000000000E+00  0.18214361581E+03  0.18214361581E+03  0.00000000000E+00 0. -1.
         -1   -1    0    0    0  501 -0.00000000000E+00 -0.00000000000E+00 -0.16987316218E+03  0.16987316218E+03  0.00000000000E+00 0.  1.
         23    2    1    2    0    0  0.33927579168E+02 -0.40573589695E+02 -0.91074386654E+02  0.13755897709E+03  0.88490855263E+02 0.  0.
         24    2    1    2    0    0 -0.56003676416E+02 -0.33024350177E+02  0.60441511996E+02  0.12645378734E+03  0.90057562059E+02 0.  0.
        -13    1    4    4    0    0 -0.87910891142E+01  0.30222526696E+02  0.11103548192E+02  0.33376236309E+02  0.00000000000E+00 0.  1.
         14    1    4    4    0    0 -0.47212587302E+02 -0.63246876873E+02  0.49337963804E+02  0.93077551033E+02  0.00000000000E+00 0. -1.
        -13    1    3    3    0    0 -0.11729532142E+00  0.27005657405E+02 -0.18689405091E+02  0.32842246463E+02  0.00000000000E+00 0.  1.
         13    1    3    3    0    0  0.34044874490E+02 -0.67579247100E+02 -0.72384981564E+02  0.10471673063E+03  0.00000000000E+00 0. -1.
         -2    1    1    2    0  502  0.22076097248E+02  0.73597939872E+02  0.42903328296E+02  0.88004013556E+02  0.00000000000E+00 0.  1.
<scales pt_clust_5="13000.00000" pt_clust_6="13000.00000" pt_clust_7="13000.00000" pt_clust_8="13000.00000" pt_clust_9="76.83756"></scales>
<clustering>
<clus scale="   76.838">  1  9  2 -1</clus>
<clus scale="   88.491">  7  8 -1 -1</clus>
<clus scale="   90.058">  5  6 -1 -1</clus>
<clus scale="   99.855">  2  7  1 -1</clus>
<clus scale="   76.838">  1  5  2 -1</clus>
</clustering>
</event>
<event>
 9    2  0.4883225E-005  0.1248713E+03  0.7546771E-02  0.1256317E+00
          2   -1    0    0  502    0 -0.00000000000E+00  0.00000000000E+00  0.39613433586E+03  0.39613433586E+03  0.00000000000E+00 0. -1.
         21   -1    0    0  501  502  0.00000000000E+00 -0.00000000000E+00 -0.11301525104E+03  0.11301525104E+03  0.00000000000E+00 0.  1.
         24    2    1    2    0    0  0.12948907811E+02  0.68373206125E+01  0.18781225616E+03  0.20483949913E+03  0.80444724334E+02 0.  0.
         23    2    1    2    0    0  0.21559867917E+02  0.81233859833E+02 -0.48150515121E+02  0.13247470750E+03  0.90373160473E+02 0.  0.
        -13    1    3    3    0    0  0.30382034803E+02 -0.28421098151E+02  0.11104266680E+03  0.11858035549E+03  0.00000000000E+00 0.  1.
         14    1    3    3    0    0 -0.17433126992E+02  0.35258418763E+02  0.76769589366E+02  0.86259143641E+02  0.00000000000E+00 0. -1.
        -13    1    4    4    0    0  0.34958040671E+02  0.96305190058E+02 -0.45617987029E+02  0.11215059064E+03  0.00000000000E+00 0.  1.
         13    1    4    4    0    0 -0.13398172753E+02 -0.15071330225E+02 -0.25325280926E+01  0.20324116867E+02  0.00000000000E+00 0. -1.
          1    1    1    2  501    0 -0.34508775729E+02 -0.88071180445E+02  0.14345734378E+03  0.17183538027E+03  0.00000000000E+00 0. -1.
<scales pt_clust_5="13000.00000" pt_clust_6="13000.00000" pt_clust_7="13000.00000" pt_clust_8="13000.00000" pt_clust_9="86.17160"></scales>
<clustering>
<clus scale="   80.445">  5  6 -1 -1</clus>
<clus scale="   81.767">  1  5  2 -1</clus>
<clus scale="   86.172">  2  9  1 -1</clus>
<clus scale="   90.373">  7  8 -1 -1</clus>
<clus scale="   86.172">  2  5  1 -1</clus>
</clustering>
</event>
<event>
 9    2  0.4883225E-005  0.1244364E+03  0.7546771E-02  0.1241456E+00
         21   -1    0    0  501  502  0.00000000000E+00  0.00000000000E+00  0.76307927181E+02  0.76307927181E+02  0.00000000000E+00 0.  1.
          2   -1    0    0  502    0 -0.00000000000E+00 -0.00000000000E+00 -0.13350599095E+04  0.13350599095E+04  0.00000000000E+00 0. -1.
         24    2    1    2    0    0  0.26216840173E+02  0.75426161331E+02 -0.12442674648E+04  0.12492158909E+04  0.77216511139E+02 0.  0.
         23    2    1    2    0    0 -0.48774960902E+02 -0.74739513011E+02  0.73829528280E+01  0.13072701052E+03  0.95236818880E+02 0.  0.
        -13    1    3    3    0    0  0.41398217908E+01  0.45302831992E+02 -0.24114559926E+03  0.24539903169E+03  0.00000000000E+00 0.  1.
         14    1    3    3    0    0  0.22077018382E+02  0.30123329339E+02 -0.10031218655E+04  0.10038168592E+04  0.00000000000E+00 0. -1.
        -11    1    4    4    0    0 -0.48309011361E+02 -0.94803102758E+02  0.18170629221E+02  0.10794239500E+03  0.00000000000E+00 0.  1.
         11    1    4    4    0    0 -0.46594954166E+00  0.20063589747E+02 -0.10787676393E+02  0.22784615522E+02  0.00000000000E+00 0. -1.
          1    1    1    2  501    0  0.22558120729E+02 -0.68664832033E+00 -0.21867470338E+02  0.31424935254E+02  0.00000000000E+00 0. -1.
<scales pt_clust_5="13000.00000" pt_clust_6="13000.00000" pt_clust_7="13000.00000" pt_clust_8="13000.00000" pt_clust_9="22.56857"></scales>
<clustering>
<clus scale="   22.569">  1  9  2 -1</clus>
<clus scale="   77.217">  5  6 -1 -1</clus>
<clus scale="   95.237">  7  8 -1 -1</clus>
<clus scale="  111.251">  2  5  1 -1</clus>
<clus scale="   22.569">  1  5  2 -1</clus>
</clustering>
</event>
<event>
 9    2  0.4883225E-005  0.8948144E+02  0.7546771E-02  0.1304808E+00
          2   -1    0    0  502    0 -0.00000000000E+00  0.00000000000E+00  0.84676627225E+03  0.84676627225E+03  0.00000000000E+00 0. -1.
         21   -1    0    0  501  502  0.00000000000E+00 -0.00000000000E+00 -0.30321414396E+02  0.30321414396E+02  0.00000000000E+00 0. -1.
         24    2    1    2    0    0  0.29710941994E+02 -0.25936258330E+02  0.51989733649E+03  0.52773907394E+03  0.81607965951E+02 0.  0.
         23    2    1    2    0    0 -0.47303498997E+01  0.29488097544E+02  0.30893636510E+03  0.32123937948E+03  0.82831981381E+02 0.  0.
        -11    1    3    3    0    0  0.30688393319E+02 -0.44464426536E+02  0.19597126086E+03  0.20328206462E+03  0.00000000000E+00 0.  1.
         12    1    3    3    0    0 -0.97745132576E+00  0.18528168206E+02  0.32392607563E+03  0.32445700932E+03  0.00000000000E+00 0. -1.
        -13    1    4    4    0    0 -0.36872788184E+02  0.36492798093E+02  0.14413910547E+03  0.15319075869E+03  0.00000000000E+00 0.  1.
         13    1    4    4    0    0  0.32142438284E+02 -0.70047005487E+01  0.16479725963E+03  0.16804862079E+03  0.00000000000E+00 0. -1.
          1    1    1    2  501    0 -0.24980592094E+02 -0.35518392139E+01 -0.12388843738E+02  0.28109233222E+02  0.00000000000E+00 0. -1.
<scales pt_clust_5="13000.00000" pt_clust_6="13000.00000" pt_clust_7="13000.00000" pt_clust_8="13000.00000" pt_clust_9="25.23184"></scales>
<clustering>
<clus scale="   25.232">  2  9  1 -1</clus>
<clus scale="   81.608">  5  6 -1 -1</clus>
<clus scale="   82.832">  7  8 -1 -1</clus>
<clus scale="   88.350">  1  5  2 -1</clus>
<clus scale="   25.232">  2  5  1 -1</clus>
</clustering>
</event>
<event>
 9    2  0.4883225E-005  0.1099253E+03  0.7546771E-02  0.1261958E+00
          2   -1    0    0  502    0 -0.00000000000E+00  0.00000000000E+00  0.25472560265E+04  0.25472560265E+04  0.00000000000E+00 0. -1.
         21   -1    0    0  501  502  0.00000000000E+00 -0.00000000000E+00 -0.32305233581E+02  0.32305233581E+02  0.00000000000E+00 0.  1.
         24    2    1    2    0    0 -0.19915179693E+02 -0.57346136322E+02  0.22605174783E+04  0.22632965054E+04  0.94268806527E+02 0.  0.
         23    2    1    2    0    0 -0.24196602446E+02 -0.53727391422E+01  0.73283372115E+02  0.11955479477E+03  0.91151272221E+02 0.  0.
        -13    1    3    3    0    0  0.10158279583E+02 -0.21090694275E+02  0.12006898806E+03  0.12232975894E+03  0.00000000000E+00 0.  1.
         14    1    3    3    0    0 -0.30073459275E+02 -0.36255442047E+02  0.21404484903E+04  0.21409667465E+04  0.00000000000E+00 0. -1.
        -13    1    4    4    0    0 -0.48834920550E+02 -0.31619886455E+02  0.40718421520E+02  0.71011664786E+02  0.00000000000E+00 0.  1.
         13    1    4    4    0    0  0.24638318104E+02  0.26247147313E+02  0.32564950595E+02  0.48543129981E+02  0.00000000000E+00 0. -1.
          1    1    1    2  501    0  0.44111782139E+02  0.62718875464E+02  0.18114994248E+03  0.19670995990E+03  0.00000000000E+00 0. -1.
<scales pt_clust_5="13000.00000" pt_clust_6="13000.00000" pt_clust_7="13000.00000" pt_clust_8="13000.00000" pt_clust_9="76.67794"></scales>
<clustering>
<clus scale="   76.678">  2  9  1 -1</clus>
<clus scale="   91.151">  7  8 -1 -1</clus>
<clus scale="   94.269">  5  6 -1 -1</clus>
<clus scale="  107.264">  2  7  1 -1</clus>
<clus scale="   76.678">  2  5  1 -1</clus>
</clustering>
</event>
<event>
 9    2  0.4883225E-005  0.9962722E+02  0.7546771E-02  0.1285637E+00
          2   -1    0    0  502    0 -0.00000000000E+00  0.00000000000E+00  0.26590850547E+03  0.26590850547E+03  0.00000000000E+00 0. -1.
         21   -1    0    0  501  502  0.00000000000E+00 -0.00000000000E+00 -0.47745711771E+02  0.47745711771E+02  0.00000000000E+00 0.  1.
         24    2    1    2    0    0 -0.29827037924E+02  0.26840582305E+02  0.10992799228E+03  0.14236598899E+03  0.81079234617E+02 0.  0.
         23    2    1    2    0    0  0.50219627626E+02 -0.61130930425E+01  0.80364712374E+02  0.13101133178E+03  0.90255754130E+02 0.  0.
        -13    1    3    3    0    0  0.17166826466E+02  0.28751894575E+02  0.15556756346E+02  0.36924030665E+02  0.00000000000E+00 0.  1.
         14    1    3    3    0    0 -0.46993864390E+02 -0.19113122699E+01  0.94371235930E+02  0.10544195833E+03  0.00000000000E+00 0. -1.
        -13    1    4    4    0    0  0.75399523055E+02  0.36278699821E+01  0.50880149655E+02  0.91033176076E+02  0.00000000000E+00 0.  1.
         13    1    4    4    0    0 -0.25179895430E+02 -0.97409630246E+01  0.29484562719E+02  0.39978155701E+02  0.00000000000E+00 0. -1.
          1    1    1    2  501    0 -0.20392589702E+02 -0.20727489262E+02  0.27870089050E+02  0.40276896473E+02  0.00000000000E+00 0. -1.
<scales pt_clust_5="13000.00000" pt_clust_6="13000.00000" pt_clust_7="13000.00000" pt_clust_8="13000.00000" pt_clust_9="29.07725"></scales>
<clustering>
<clus scale="   29.077">  2  9  1 -1</clus>
<clus scale="   81.079">  5  6 -1 -1</clus>
<clus scale="   90.256">  7  8 -1 -1</clus>
<clus scale="   91.397">  1  5  2 -1</clus>
<clus scale="   29.077">  2  5  1 -1</clus>
</clustering>
</event>
<event>
 9    2  0.4883225E-005  0.9382174E+02  0.7546771E-02  0.1300254E+00
         21   -1    0    0  501  502  0.00000000000E+00  0.00000000000E+00  0.28549292688E+03  0.28549292688E+03  0.00000000000E+00 0.  1.
         -3   -1    0    0    0  501 -0.00000000000E+00 -0.00000000000E+00 -0.75966461038E+02  0.75966461038E+02  0.00000000000E+00 0.  1.
         23    2    1    2    0    0  0.56953398593E+01  0.93370601293E+01  0.11395330706E+03  0.14627773505E+03  0.91061528615E+02 0.  0.
         24    2    1    2    0    0  0.27951243524E+02  0.48168783673E+02  0.10991875218E+03  0.14702880484E+03  0.80211181498E+02 0.  0.
        -11    1    4    4    0    0  0.54009424527E+02  0.33440931170E+02  0.53044379024E+02  0.82758805944E+02  0.00000000000E+00 0.  1.
         12    1    4    4    0    0 -0.26058181003E+02  0.14727852503E+02  0.56874373151E+02  0.64269998894E+02  0.00000000000E+00 0. -1.
        -11    1    3    3    0    0  0.12235530855E+02  0.46103023089E+02  0.90155973642E+02  0.10199655159E+03  0.00000000000E+00 0. -1.
         11    1    3    3    0    0 -0.65401909955E+01 -0.36765962960E+02  0.23797333414E+02  0.44281183456E+02  0.00000000000E+00 0.  1.
         -4    1    1    2    0  502 -0.33646583383E+02 -0.57505843803E+02 -0.14345593391E+02  0.68152848030E+02  0.00000000000E+00 0.  1.
<scales pt_clust_5="13000.00000" pt_clust_6="13000.00000" pt_clust_7="13000.00000" pt_clust_8="13000.00000" pt_clust_9="66.62596"></scales>
<clustering>
<clus scale="   66.626">  1  9  2 -1</clus>
<clus scale="   80.211">  5  6 -1 -1</clus>
<clus scale="   83.332">  1  5  2 -1</clus>
<clus scale="   91.062">  7  8 -1 -1</clus>
<clus scale="   66.626">  1  5  2 -1</clus>
</clustering>
</event>
<event>
 9    2  0.4883225E-005  0.1067574E+03  0.7546771E-02  0.1271663E+00
         21   -1    0    0  501  502  0.00000000000E+00  0.00000000000E+00  0.45561896874E+02  0.45561896874E+02  0.00000000000E+00 0.  1.
          2   -1    0    0  502    0 -0.00000000000E+00 -0.00000000000E+00 -0.75912813463E+03  0.75912813463E+03  0.00000000000E+00 0. -1.
         24    2    1    2    0    0 -0.13008663296E+02 -0.52567387537E+02 -0.61203359684E+03  0.61964599393E+03  0.80271281233E+02 0.  0.
         23    2    1    2    0    0  0.51276884109E+02  0.44048215242E+02 -0.64060160049E+02  0.13081102324E+03  0.91859978146E+02 0.  0.
        -13    1    3    3    0    0  0.22594412878E+02  0.91559533036E+01 -0.11723408688E+03  0.11974209828E+03  0.00000000000E+00 0.  1.
         14    1    3    3    0    0 -0.35603076173E+02 -0.61723340841E+02 -0.49479950996E+03  0.49990389565E+03  0.00000000000E+00 0. -1.
        -13    1    4    4    0    0 -0.40326711963E+00  0.57244500811E+02 -0.49090000004E+02  0.75411694040E+02  0.00000000000E+00 0. -1.
         13    1    4    4    0    0  0.51680151229E+02 -0.13196285569E+02 -0.14970160045E+02  0.55399329198E+02  0.00000000000E+00 0.  1.
          1    1    1    2  501    0 -0.38268220813E+02  0.85191722950E+01 -0.37472480869E+02  0.54233014330E+02  0.00000000000E+00 0. -1.
<scales pt_clust_5="13000.00000" pt_clust_6="13000.00000" pt_clust_7="13000.00000" pt_clust_8="13000.00000" pt_clust_9="39.20501"></scales>
<clustering>
<clus scale="   39.205">  1  9  2 -1</clus>
<clus scale="   80.271">  5  6 -1 -1</clus>
<clus scale="   91.860">  7  8 -1 -1</clus>
<clus scale="   96.966">  2  5  1 -1</clus>
<clus scale="   39.205">  1  5  2 -1</clus>
</clustering>
</event>
<event>
 9    2  0.4883225E-005  0.1600479E+03  0.7546771E-02  0.1190827E+00
          2   -1    0    0  502    0 -0.00000000000E+00  0.00000000000E+00  0.26413729565E+03  0.26413729565E+03  0.00000000000E+00 0. -1.
         21   -1    0    0  501  502  0.00000000000E+00 -0.00000000000E+00 -0.31927416449E+03  0.31927416449E+03  0.00000000000E+00 0. -1.
         24    2    1    2    0    0  0.13214794343E+03  0.13451930131E+01  0.15424618565E+03  0.21760225237E+03  0.78063858167E+02 0.  0.
         23    2    1    2    0    0 -0.11764973611E+03 -0.10205258052E+03 -0.71558524301E+02  0.19449727871E+03  0.91936823017E+02 0.  0.
        -11    1    3    3    0    0  0.24345229044E+02  0.28134870782E+02  0.16643118040E+02  0.40758490026E+02  0.00000000000E+00 0.  1.
         12    1    3    3    0    0  0.10780271438E+03 -0.26789677769E+02  0.13760306761E+03  0.17684376234E+03  0.00000000000E+00 0. -1.
        -13    1    4    4    0    0  0.25087319568E+01 -0.49581453930E+02 -0.22479584182E+02  0.54497211074E+02  0.00000000000E+00 0.  1.
         13    1    4    4    0    0 -0.12015846807E+03 -0.52471126591E+02 -0.49078940120E+02  0.14000006763E+03  0.00000000000E+00 0. -1.
          1    1    1    2  501    0 -0.14498207315E+02  0.10070738751E+03 -0.13782453019E+03  0.17131192906E+03  0.00000000000E+00 0. -1.
<scales pt_clust_5="13000.00000" pt_clust_6="13000.00000" pt_clust_7="13000.00000" pt_clust_8="13000.00000" pt_clust_9="101.74564"></scales>
<clustering>
<clus scale="   78.064">  5  6 -1 -1</clus>
<clus scale="   91.937">  7  8 -1 -1</clus>
<clus scale="  101.746">  2  9  1 -1</clus>
<clus scale="  152.502">  1  5  2 -1</clus>
<clus scale="  101.746">  2  5  1 -1</clus>
</clustering>
</event>
<event>
 9    2  0.4883225E-005  0.1099791E+03  0.7546771E-02  0.1265264E+00
         21   -1    0    0  501  502  0.00000000000E+00  0.00000000000E+00  0.22156022152E+03  0.22156022152E+03  0.00000000000E+00 0. -1.
          2   -1    0    0  502    0 -0.00000000000E+00 -0.00000000000E+00 -0.47294821363E+03  0.47294821363E+03  0.00000000000E+00 0. -1.
         24    2    1    2    0    0 -0.18154056428E+02 -0.62665482707E+02 -0.41772722869E+03  0.43015245044E+03  0.79237368333E+02 0.  0.
         23    2    1    2    0    0  0.28473318935E+02  0.24405491528E+02  0.54229220531E+01  0.98632195272E+02  0.91063406221E+02 0.  0.
        -13    1    3    3    0    0 -0.39958870196E+02 -0.10289407763E+02 -0.11557001901E+03  0.12271516823E+03  0.00000000000E+00 0.  1.
         14    1    3    3    0    0  0.21804813768E+02 -0.52376074943E+02 -0.30215720968E+03  0.30743728221E+03  0.00000000000E+00 0. -1.
        -13    1    4    4    0    0  0.55838549251E+02  0.26668141501E+02 -0.15872813959E+02  0.63883327845E+02  0.00000000000E+00 0.  1.
         13    1    4    4    0    0 -0.27365230316E+02 -0.22626499729E+01  0.21295736012E+02  0.34748867427E+02  0.00000000000E+00 0. -1.
          1    1    1    2  501    0 -0.10319262507E+02  0.38259991178E+02  0.16091631453E+03  0.16572378944E+03  0.00000000000E+00 0. -1.
<scales pt_clust_5="13000.00000" pt_clust_6="13000.00000" pt_clust_7="13000.00000" pt_clust_8="13000.00000" pt_clust_9="39.62719"></scales>
<clustering>
<clus scale="   39.627">  1  9  2 -1</clus>
<clus scale="   79.237">  5  6 -1 -1</clus>
<clus scale="   91.063">  7  8 -1 -1</clus>
<clus scale="  100.406">  2  5  1 -1</clus>
<clus scale="   39.627">  1  5  2 -1</clus>
</clustering>
</event>
<event>
 9    2  0.4883225E-005  0.9724284E+02  0.7546771E-02  0.1292199E+00
         -3   -1    0    0    0  501 -0.00000000000E+00  0.00000000000E+00  0.22939663057E+03  0.22939663057E+03  0.00000000000E+00 0.  1.
         21   -1    0    0  501  502  0.00000000000E+00 -0.00000000000E+00 -0.12550845143E+03  0.12550845143E+03  0.00000000000E+00 0. -1.
         23    2    1    2    0    0  0.20804085594E+02 -0.16213994101E+02  0.16722046559E+03  0.19310441327E+03  0.92902781060E+02 0.  0.
         24    2    1    2    0    0 -0.24244124809E+02  0.45201312092E+02 -0.82284726487E+02  0.12699702729E+03  0.82015440771E+02 0.  0.
        -11    1    4    4    0    0  0.29208039082E+02  0.45595672355E+01 -0.23857275890E+02  0.37987745567E+02  0.00000000000E+00 0.  1.
         12    1    4    4    0    0 -0.53452163891E+02  0.40641744857E+02 -0.58427450597E+02  0.89009281723E+02  0.00000000000E+00 0. -1.
        -13    1    3    3    0    0 -0.91175701330E+01 -0.48573687430E+02  0.63943784627E+02  0.80816711070E+02  0.00000000000E+00 0.  1.
         13    1    3    3    0    0  0.29921655727E+02  0.32359693329E+02  0.10327668097E+03  0.11228770220E+03  0.00000000000E+00 0. -1.
         -4    1    1    2    0  502  0.34400392145E+01 -0.28987317991E+02  0.18952440031E+02  0.34803641436E+02  0.00000000000E+00 0.  1.
<scales pt_clust_5="13000.00000" pt_clust_6="13000.00000" pt_clust_7="13000.00000" pt_clust_8="13000.00000" pt_clust_9="29.19074"></scales>
<clustering>
<clus scale="   29.191">  2  9  1 -1</clus>
<clus scale="   82.015">  5  6 -1 -1</clus>
<clus scale="   86.901">  2  5  1 -1</clus>
<clus scale="   92.903">  7  8 -1 -1</clus>
<clus scale="   29.191">  2  5  1 -1</clus>
</clustering>
</event>
<event>
 9    2  0.4883225E-005  0.1125040E+03  0.7546771E-02  0.1264680E+00
         21   -1    0    0  501  502  0.00000000000E+00  0.00000000000E+00  0.32756902384E+02  0.32756902384E+02  0.00000000000E+00 0. -1.
          2   -1    0    0  502    0 -0.00000000000E+00 -0.00000000000E+00 -0.11190479008E+04  0.11190479008E+04  0.00000000000E+00 0. -1.
         24    2    1    2    0    0  0.29082453730E+02  0.73916911489E+02 -0.61545347405E+03  0.62551259019E+03  0.78571768762E+02 0.  0.
         23    2    1    2    0    0 -0.34850711262E+02 -0.38290272547E+01 -0.43467221294E+03  0.44721304976E+03  0.99148099568E+02 0.  0.
        -11    1    3    3    0    0  0.24847001569E+02 -0.10598521253E+02 -0.13826122170E+03  0.14087536181E+03  0.00000000000E+00 0.  1.
         12    1    3    3    0    0  0.42354521620E+01  0.84515432742E+02 -0.47719225235E+03  0.48463722838E+03  0.00000000000E+00 0. -1.
        -11    1    4    4    0    0 -0.49588801274E+01 -0.49062061806E+02 -0.24658786915E+03  0.25147018434E+03  0.00000000000E+00 0.  1.
         11    1    4    4    0    0 -0.29891831134E+02  0.45233034551E+02 -0.18808434379E+03  0.19574286542E+03  0.00000000000E+00 0. -1.
          1    1    1    2  501    0  0.57682575314E+01 -0.70087884234E+02 -0.36165311472E+02  0.79079163281E+02  0.00000000000E+00 0. -1.
<scales pt_clust_5="13000.00000" pt_clust_6="13000.00000" pt_clust_7="13000.00000" pt_clust_8="13000.00000" pt_clust_9="70.32485"></scales>
<clustering>
<clus scale="   70.325">  1  9  2 -1</clus>
<clus scale="   78.572">  5  6 -1 -1</clus>
<clus scale="   94.870">  2  5  1 -1</clus>
<clus scale="   99.148">  7  8 -1 -1</clus>
<clus scale="   70.325">  1  5  2 -1</clus>
</clustering>
</event>
<event>
 9    2  0.4883225E-005  0.1020886E+03  0.7546771E-02  0.1280314E+00
          2   -1    0    0  502    0 -0.00000000000E+00  0.00000000000E+00  0.64366105631E+03  0.64366105631E+03  0.00000000000E+00 0. -1.
         21   -1    0    0  501  502  0.00000000000E+00 -0.00000000000E+00 -0.30253140531E+02  0.30253140531E+02  0.00000000000E+00 0.  1.
         24    2    1    2    0    0  0.41657919384E+02 -0.15362674814E+01  0.43892436715E+03  0.44851200492E+03  0.82284118230E+02 0.  0.
         23    2    1    2    0    0 -0.63518389142E+02  0.12440089533E+00  0.10691882211E+03  0.15437497337E+03  0.91462542319E+02 0.  0.
        -11    1    3    3    0    0 -0.98022338308E+01  0.23408484692E+02  0.57866129779E+02  0.63186469432E+02  0.00000000000E+00 0.  1.
         12    1    3    3    0    0  0.51460153215E+02 -0.24944752173E+02  0.38105823737E+03  0.38532553549E+03  0.00000000000E+00 0. -1.
        -13    1    4    4    0    0 -0.43022419510E+02  0.38384239349E+02  0.91817068420E+02  0.10841887504E+03  0.00000000000E+00 0. -1.
         13    1    4    4    0    0 -0.20495969632E+02 -0.38259838454E+02  0.15101753688E+02  0.45956098334E+02  0.00000000000E+00 0.  1.
          1    1    1    2  501    0  0.21860469758E+02  0.14118665861E+01  0.67564726519E+02  0.71027218550E+02  0.00000000000E+00 0. -1.
<scales pt_clust_5="13000.00000" pt_clust_6="13000.00000" pt_clust_7="13000.00000" pt_clust_8="13000.00000" pt_clust_9="21.90603"></scales>
<clustering>
<clus scale="   21.906">  2  9  1 -1</clus>
<clus scale="   82.284">  5  6 -1 -1</clus>
<clus scale="   91.463">  7  8 -1 -1</clus>
<clus scale="   93.954">  1  5  2 -1</clus>
<clus scale="   21.906">  2  5  1 -1</clus>
</clustering>
</event>
<event>
 9    2  0.4883225E-005  0.3559727E+03  0.7546771E-02  0.1114203E+00
         21   -1    0    0  501  502  0.00000000000E+00  0.00000000000E+00  0.81094722565E+02  0.81094722565E+02  0.00000000000E+00 0.  1.
          2   -1    0    0  502    0 -0.00000000000E+00 -0.00000000000E+00 -0.21555977151E+04  0.21555977151E+04  0.00000000000E+00 0. -1.
         24    2    1    2    0    0  0.20881374138E+02  0.10644478713E+02 -0.76805368775E+02  0.11430376589E+03  0.81344634190E+02 0.  0.
         23    2    1    2    0    0 -0.22147150049E+03  0.26576940277E+03 -0.78900460632E+03  0.86637121844E+03  0.91585033571E+02 0.  0.
        -11    1    3    3    0    0  0.44629542903E+02 -0.33483101334E+01 -0.74153323480E+02  0.86612485611E+02  0.00000000000E+00 0.  1.
         12    1    3    3    0    0 -0.23748168765E+02  0.13992788846E+02 -0.26520452950E+01  0.27691280281E+02  0.00000000000E+00 0. -1.
        -13    1    4    4    0    0 -0.27484404189E+02  0.75475722437E+02 -0.12125576057E+03  0.14544736719E+03  0.00000000000E+00 0. -1.
         13    1    4    4    0    0 -0.19398709630E+03  0.19029368033E+03 -0.66774884574E+03  0.72092385125E+03  0.00000000000E+00 0.  1.
          1    1    1    2  501    0  0.20059012635E+03 -0.27641388148E+03 -0.12086930175E+04  0.12560174534E+04  0.00000000000E+00 0. -1.
<scales pt_clust_5="13000.00000" pt_clust_6="13000.00000" pt_clust_7="13000.00000" pt_clust_8="13000.00000" pt_clust_9="343.98965"></scales>
<clustering>
<clus scale="   81.345">  5  6 -1 -1</clus>
<clus scale="   84.654">  2  5  1 -1</clus>
<clus scale="   91.585">  7  8 -1 -1</clus>
<clus scale="  343.990">  1  9  2 -1</clus>
<clus scale="  343.990">  1  5  2 -1</clus>
</clustering>
</event>
<event>
 9    2  0.4883225E-005  0.1032123E+03  0.7546771E-02  0.1277570E+00
          2   -1    0    0  502    0 -0.00000000000E+00  0.00000000000E+00  0.47243672368E+02  0.47243672368E+02  0.00000000000E+00 0. -1.
         21   -1    0    0  501  502  0.00000000000E+00 -0.00000000000E+00 -0.49516262412E+03  0.49516262412E+03  0.00000000000E+00 0.  1.
         23    2    1    2    0    0  0.82626792283E+01 -0.59600927822E+02 -0.62965838535E+02  0.12689947806E+03  0.92294302339E+02 0.  0.
         24    2    1    2    0    0 -0.27992565677E+02 -0.71057108499E+00 -0.27100527710E+03  0.28508115118E+03  0.83924453535E+02 0.  0.
        -13    1    4    4    0    0 -0.17226369578E+02  0.36115717501E+02 -0.20383472204E+03  0.20772502682E+03  0.00000000000E+00 0.  1.
         14    1    4    4    0    0 -0.10766196099E+02 -0.36826288586E+02 -0.67170555059E+02  0.77356124362E+02  0.00000000000E+00 0. -1.
        -13    1    3    3    0    0 -0.35436454964E+02 -0.50870542647E+02 -0.52222312654E+02  0.81060004864E+02  0.00000000000E+00 0.  1.
         13    1    3    3    0    0  0.43699134193E+02 -0.87303851749E+01 -0.10743525881E+02  0.45839473196E+02  0.00000000000E+00 0. -1.
          1    1    1    2  501    0  0.19729886449E+02  0.60311498907E+02 -0.11394783612E+03  0.13042566725E+03  0.00000000000E+00 0. -1.
<scales pt_clust_5="13000.00000" pt_clust_6="13000.00000" pt_clust_7="13000.00000" pt_clust_8="13000.00000" pt_clust_9="63.45664"></scales>
<clustering>
<clus scale="   63.457">  2  9  1 -1</clus>
<clus scale="   83.924">  5  6 -1 -1</clus>
<clus scale="   92.294">  7  8 -1 -1</clus>
<clus scale="   95.801">  2  5  1 -1</clus>
<clus scale="   63.457">  2  5  1 -1</clus>
</clustering>
</event>
<event>
 9    2  0.4883225E-005  0.1803051E+03  0.7546771E-02  0.1170917E+00
         21   -1    0    0  501  502  0.00000000000E+00  0.00000000000E+00  0.24875473484E+03  0.24875473484E+03  0.00000000000E+00 0. -1.
          2   -1    0    0  502    0 -0.00000000000E+00 -0.00000000000E+00 -0.34683248633E+03  0.34683248633E+03  0.00000000000E+00 0. -1.
         24    2    1    2    0    0 -0.10025548028E+03 -0.15914598619E+03 -0.22568732644E+03  0.30368737947E+03  0.76893750632E+02 0.  0.
         23    2    1    2    0    0  0.62418726560E+02  0.43021138014E+02  0.20673726437E+02  0.12956723256E+03  0.10302110971E+03 0.  0.
        -11    1    3    3    0    0 -0.28441251609E+02  0.79499577006E-01 -0.34810319431E+02  0.44951857049E+02  0.00000000000E+00 0.  1.
         12    1    3    3    0    0 -0.71814228676E+02 -0.15922548576E+03 -0.19087700701E+03  0.25873552242E+03  0.00000000000E+00 0. -1.
        -13    1    4    4    0    0  0.25479027297E+02  0.69269807804E+02 -0.10519711064E+02  0.74553010845E+02  0.00000000000E+00 0. -1.
         13    1    4    4    0    0  0.36939699263E+02 -0.26248669789E+02  0.31193437501E+02  0.55014221711E+02  0.00000000000E+00 0.  1.
          1    1    1    2  501    0  0.37836753724E+02  0.11612484817E+03  0.10693584852E+03  0.16233260915E+03  0.00000000000E+00 0. -1.
<scales pt_clust_5="13000.00000" pt_clust_6="13000.00000" pt_clust_7="13000.00000" pt_clust_8="13000.00000" pt_clust_9="122.13353"></scales>
<clustering>
<clus scale="   76.894">  5  6 -1 -1</clus>
<clus scale="  103.021">  7  8 -1 -1</clus>
<clus scale="  122.134">  1  9  2 -1</clus>
<clus scale="  166.761">  2  5  1 -1</clus>
<clus scale="  122.134">  1  5  2 -1</clus>
</clustering>
</event>
<event>
 9    2  0.4883225E-005  0.9422007E+02  0.7546771E-02  0.1299423E+00
         21   -1    0    0  501  502  0.00000000000E+00  0.00000000000E+00  0.15360364664E+03  0.15360364664E+03  0.00000000000E+00 0. -1.
          2   -1    0    0  502    0 -0.00000000000E+00 -0.00000000000E+00 -0.14196530113E+03  0.14196530113E+03  0.00000000000E+00 0. -1.
         24    2    1    2    0    0 -0.34360289874E+02  0.91873093421E+01 -0.65181484971E+02  0.10903690528E+03  0.79846005265E+02 0.  0.
         23    2    1    2    0    0 -0.69066018377E+00 -0.13420554926E+02 -0.10314083639E+02  0.92517105060E+02  0.90952988413E+02 0.  0.
        -11    1    3    3    0    0 -0.21159661522E+02  0.28487066476E+02  0.42823021486E+01  0.35743283898E+02  0.00000000000E+00 0.  1.
         12    1    3    3    0    0 -0.13200628353E+02 -0.19299757134E+02 -0.69463787120E+02  0.73293621383E+02  0.00000000000E+00 0. -1.
        -11    1    4    4    0    0  0.36047178646E+02  0.35960626895E+01  0.20511967755E+02  0.41630176271E+02  0.00000000000E+00 0.  1.
         11    1    4    4    0    0 -0.36737838829E+02 -0.17016617616E+02 -0.30826051395E+02  0.50886928788E+02  0.00000000000E+00 0. -1.
          1    1    1    2  501    0  0.35050950058E+02  0.42332455839E+01  0.87133914123E+02  0.94014937422E+02  0.00000000000E+00 0. -1.
<scales pt_clust_5="13000.00000" pt_clust_6="13000.00000" pt_clust_7="13000.00000" pt_clust_8="13000.00000" pt_clust_9="35.30566"></scales>
<clustering>
<clus scale="   35.306">  1  9  2 -1</clus>
<clus scale="   79.846">  5  6 -1 -1</clus>
<clus scale="   83.549">  2  5  1 -1</clus>
<clus scale="   90.953">  7  8 -1 -1</clus>
<clus scale="   35.306">  1  5  2 -1</clus>
</clustering>
</event>
<event>
 9    2  0.4883225E-005  0.1692135E+03  0.7546771E-02  0.1206926E+00
          2   -1    0    0  502    0 -0.00000000000E+00  0.00000000000E+00  0.11969937196E+03  0.11969937196E+03  0.00000000000E+00 0. -1.
         21   -1    0    0  501  502  0.00000000000E+00 -0.00000000000E+00 -0.48490132951E+03  0.48490132951E+03  0.00000000000E+00 0.  1.
         24    2    1    2    0    0  0.27208142420E+02  0.40311927419E+02 -0.18089279583E+03  0.20244859731E+03  0.76797763399E+02 0.  0.
         23    2    1    2    0    0 -0.48681365942E+02 -0.14678874067E+03 -0.22277920704E+03  0.28692035734E+03  0.93679808869E+02 0.  0.
        -11    1    3    3    0    0 -0.13468659809E+02  0.39693454173E+02 -0.13382737405E+03  0.14023815866E+03  0.00000000000E+00 0.  1.
         12    1    3    3    0    0  0.40676802230E+02  0.61847324586E+00 -0.47065421783E+02  0.62210438645E+02  0.00000000000E+00 0. -1.
        -11    1    4    4    0    0 -0.29246817734E+02 -0.38373650368E+01 -0.74089118722E+02  0.79745214471E+02  0.00000000000E+00 0. -1.
         11    1    4    4    0    0 -0.19434548208E+02 -0.14295137563E+03 -0.14869008832E+03  0.20717514287E+03  0.00000000000E+00 0.  1.
          1    1    1    2  501    0  0.21473223521E+02  0.10647681325E+03  0.38470045327E+02  0.11523174682E+03  0.00000000000E+00 0. -1.
<scales pt_clust_5="13000.00000" pt_clust_6="13000.00000" pt_clust_7="13000.00000" pt_clust_8="13000.00000" pt_clust_9="140.91605"></scales>
<clustering>
<clus scale="   76.798">  5  6 -1 -1</clus>
<clus scale="   90.902">  1  5  2 -1</clus>
<clus scale="   93.680">  7  8 -1 -1</clus>
<clus scale="  140.916">  2  9  1 -1</clus>
<clus scale="  140.916">  2  5  1 -1</clus>
</clustering>
</event>
<event>
 9    2  0.4883225E-005  0.1032370E+03  0.7546771E-02  0.1277596E+00
         21   -1    0    0  501  502  0.00000000000E+00  0.00000000000E+00  0.54105652218E+02  0.54105652218E+02  0.00000000000E+00 0.  1.
          2   -1    0    0  502    0 -0.00000000000E+00 -0.00000000000E+00 -0.54893602146E+03  0.54893602146E+03  0.00000000000E+00 0. -1.
         24    2    1    2    0    0 -0.39139132589E+02  0.34060944220E+02 -0.40173910771E+03  0.41278683038E+03  0.79414337801E+02 0.  0.
         23    2    1    2    0    0  0.22730708445E+02 -0.61917049418E+02 -0.10827227478E+03  0.15453843051E+03  0.88367612293E+02 0.  0.
        -11    1    3    3    0    0 -0.45106232588E+02 -0.26533555128E+01 -0.11358983061E+03  0.12224672647E+03  0.00000000000E+00 0.  1.
         12    1    3    3    0    0  0.59670999996E+01  0.36714299733E+02 -0.28814927710E+03  0.29054010391E+03  0.00000000000E+00 0. -1.
        -11    1    4    4    0    0  0.31529104735E+02 -0.36670565448E+02 -0.58849836226E+01  0.48718044377E+02  0.00000000000E+00 0.  1.
         11    1    4    4    0    0 -0.87983962900E+01 -0.25246483969E+02 -0.10238729116E+03  0.10582038613E+03  0.00000000000E+00 0. -1.
          1    1    1    2  501    0  0.16408424143E+02  0.27856105197E+02  0.15181013247E+02  0.35716412794E+02  0.00000000000E+00 0. -1.
<scales pt_clust_5="13000.00000" pt_clust_6="13000.00000" pt_clust_7="13000.00000" pt_clust_8="13000.00000" pt_clust_9="32.32954"></scales>
<clustering>
<clus scale="   32.330">  1  9  2 -1</clus>
<clus scale="   79.414">  5  6 -1 -1</clus>
<clus scale="   88.368">  7  8 -1 -1</clus>
<clus scale="   95.685">  2  5  1 -1</clus>
<clus scale="   32.330">  1  5  2 -1</clus>
</clustering>
</event>
<event>
 9    2  0.4883225E-005  0.1642326E+03  0.7546771E-02  0.1190106E+00
         -1   -1    0    0    0  501 -0.00000000000E+00  0.00000000000E+00  0.20607616271E+03  0.20607616271E+03  0.00000000000E+00 0.  1.
         21   -1    0    0  501  502  0.00000000000E+00 -0.00000000000E+00 -0.34927064936E+03  0.34927064936E+03  0.00000000000E+00 0.  1.
         24    2    1    2    0    0 -0.45775096694E+01 -0.11860943121E+03 -0.76947777364E+01  0.14361018551E+03  0.80470646885E+02 0.  0.
         23    2    1    2    0    0  0.34927917835E+02 -0.10107375399E+03 -0.12413828246E+03  0.18967597911E+03  0.95555223241E+02 0.  0.
        -11    1    3    3    0    0 -0.10868450427E+02 -0.82037246533E+02  0.32497510000E+02  0.88906249441E+02  0.00000000000E+00 0.  1.
         12    1    3    3    0    0  0.62909407578E+01 -0.36572184679E+02 -0.40192287736E+02  0.54703936068E+02  0.00000000000E+00 0. -1.
        -13    1    4    4    0    0  0.49646271087E+02 -0.19456610839E+02 -0.20949312577E+02  0.57290362502E+02  0.00000000000E+00 0. -1.
         13    1    4    4    0    0 -0.14718353252E+02 -0.81617143148E+02 -0.10318896989E+03  0.13238561661E+03  0.00000000000E+00 0.  1.
         -2    1    1    2    0  502 -0.30350408166E+02  0.21968318520E+03 -0.11361426453E+02  0.22206064745E+03  0.00000000000E+00 0.  1.
<scales pt_clust_5="13000.00000" pt_clust_6="13000.00000" pt_clust_7="13000.00000" pt_clust_8="13000.00000" pt_clust_9="133.57231"></scales>
<clustering>
<clus scale="   80.471">  5  6 -1 -1</clus>
<clus scale="   95.555">  7  8 -1 -1</clus>
<clus scale="  143.404">  1  5  2 -1</clus>
<clus scale="  133.572">  2  9  1 -1</clus>
<clus scale="  133.572">  2  5  1 -1</clus>
</clustering>
</event>
<event>
 9    2  0.4883225E-005  0.1550779E+03  0.7546771E-02  0.1196214E+00
          2   -1    0    0  502    0 -0.00000000000E+00  0.00000000000E+00  0.12813915452E+04  0.12813915452E+04  0.00000000000E+00 0. -1.
         21   -1    0    0  501  502  0.00000000000E+00 -0.00000000000E+00 -0.77461472730E+02  0.77461472730E+02  0.00000000000E+00 0. -1.
         24    2    1    2    0    0  0.10447592900E+03 -0.79736728775E+02  0.11179824009E+04  0.11285063891E+04  0.79805111593E+02 0.  0.
         23    2    1    2    0    0 -0.97389454230E+02 -0.37725877740E+00  0.57954575580E+02  0.14518746876E+03  0.90751419457E+02 0.  0.
        -13    1    3    3    0    0  0.88902333637E+02 -0.49492168219E+02  0.53864644707E+03  0.54817250441E+03  0.00000000000E+00 0.  1.
         14    1    3    3    0    0  0.15573595360E+02 -0.30244560556E+02  0.57933595382E+03  0.58033388468E+03  0.00000000000E+00 0. -1.
        -11    1    4    4    0    0 -0.74279712201E+02 -0.13410649612E+02  0.80513364647E+02  0.11036178258E+03  0.00000000000E+00 0.  1.
         11    1    4    4    0    0 -0.23109742029E+02  0.13033390834E+02 -0.22558789067E+02  0.34825686174E+02  0.00000000000E+00 0. -1.
          1    1    1    2  501    0 -0.70864747666E+01  0.80113987552E+02  0.27993096014E+02  0.85159160110E+02  0.00000000000E+00 0. -1.
<scales pt_clust_5="13000.00000" pt_clust_6="13000.00000" pt_clust_7="13000.00000" pt_clust_8="13000.00000" pt_clust_9="80.42679"></scales>
<clustering>
<clus scale="   79.805">  5  6 -1 -1</clus>
<clus scale="   80.427">  2  9  1 -1</clus>
<clus scale="   90.751">  7  8 -1 -1</clus>
<clus scale="  148.937">  1  5  2 -1</clus>
<clus scale="   80.427">  2  5  1 -1</clus>
</clustering>
</event>
<event>
 9    2  0.4883225E-005  0.1040595E+03  0.7546771E-02  0.1277277E+00
         21   -1    0    0  501  502  0.00000000000E+00  0.00000000000E+00  0.25108559993E+02  0.25108559993E+02  0.00000000000E+00 0. -1.
          2   -1    0    0  502    0 -0.00000000000E+00 -0.00000000000E+00 -0.61645134758E+03  0.61645134758E+03  0.00000000000E+00 0. -1.
         23    2    1    2    0    0 -0.35674962565E+02  0.14704790864E+02 -0.28564891178E+03  0.30269358095E+03  0.92407625864E+02 0.  0.
         24    2    1    2    0    0  0.66287721475E+02  0.37287855758E+01 -0.18030229845E+03  0.20848233444E+03  0.80919707634E+02 0.  0.
        -11    1    4    4    0    0  0.33042423361E+02 -0.69186649482E+01 -0.16817073384E+03  0.17152569891E+03  0.00000000000E+00 0.  1.
         12    1    4    4    0    0  0.33245298114E+02  0.10647450524E+02 -0.12131564613E+02  0.36956635524E+02  0.00000000000E+00 0. -1.
        -13    1    3    3    0    0  0.30112542057E+02 -0.65925388750E+01 -0.96298619617E+02  0.10111207098E+03  0.00000000000E+00 0.  1.
         13    1    3    3    0    0 -0.65787504622E+02  0.21297329739E+02 -0.18935029217E+03  0.20158150997E+03  0.00000000000E+00 0. -1.
          1    1    1    2  501    0 -0.30612758910E+02 -0.18433576440E+02 -0.12539157735E+03  0.13038399218E+03  0.00000000000E+00 0. -1.
<scales pt_clust_5="13000.00000" pt_clust_6="13000.00000" pt_clust_7="13000.00000" pt_clust_8="13000.00000" pt_clust_9="35.73428"></scales>
<clustering>
<clus scale="   35.734">  1  9  2 -1</clus>
<clus scale="   80.920">  5  6 -1 -1</clus>
<clus scale="   92.408">  7  8 -1 -1</clus>
<clus scale="   94.006">  1  5  2 -1</clus>
<clus scale="   35.734">  1  5  2 -1</clus>
</clustering>
</event>
<event>
 9    2  0.4883225E-005  0.9987369E+02  0.7546771E-02  0.1286464E+00
         21   -1    0    0  501  502  0.00000000000E+00  0.00000000000E+00  0.37374259278E+03  0.37374259278E+03  0.00000000000E+00 0. -1.
          2   -1    0    0  502    0 -0.00000000000E+00 -0.00000000000E+00 -0.31410239284E+03  0.31410239284E+03  0.00000000000E+00 0. -1.
         24    2    1    2    0    0 -0.36404327197E+02 -0.17527797748E+02 -0.28912782887E+03  0.30291491447E+03  0.80808695384E+02 0.  0.
         23    2    1    2    0    0 -0.10231336182E+02 -0.28918087897E+01  0.12692865359E+03  0.15732393366E+03  0.92341183662E+02 0.  0.
        -13    1    3    3    0    0 -0.12957992039E+02  0.22598069743E+02 -0.30346524811E+02  0.39993673024E+02  0.00000000000E+00 0.  1.
         14    1    3    3    0    0 -0.23446335158E+02 -0.40125867491E+02 -0.25878130406E+03  0.26292124145E+03  0.00000000000E+00 0. -1.
        -13    1    4    4    0    0  0.17840450385E+02 -0.26030469694E+02  0.11467324650E+03  0.11893620342E+03  0.00000000000E+00 0.  1.
         13    1    4    4    0    0 -0.28071786566E+02  0.23138660904E+02  0.12255407096E+02  0.38387730234E+02  0.00000000000E+00 0. -1.
          1    1    1    2  501    0  0.46635663379E+02  0.20419606537E+02  0.22183937522E+03  0.22760613750E+03  0.00000000000E+00 0. -1.
<scales pt_clust_5="13000.00000" pt_clust_6="13000.00000" pt_clust_7="13000.00000" pt_clust_8="13000.00000" pt_clust_9="50.91017"></scales>
<clustering>
<clus scale="   50.910">  1  9  2 -1</clus>
<clus scale="   80.809">  5  6 -1 -1</clus>
<clus scale="   89.319">  2  5  1 -1</clus>
<clus scale="   92.341">  7  8 -1 -1</clus>
<clus scale="   50.910">  1  5  2 -1</clus>
</clustering>
</event>
<event>
 9    2  0.4883225E-005  0.1469699E+03  0.7546771E-02  0.1224097E+00
         -3   -1    0    0    0  501 -0.00000000000E+00  0.00000000000E+00  0.64558174378E+03  0.64558174378E+03  0.00000000000E+00 0.  1.
         21   -1    0    0  501  502  0.00000000000E+00 -0.00000000000E+00 -0.57426052078E+02  0.57426052078E+02  0.00000000000E+00 0. -1.
         24    2    1    2    0    0 -0.31632833030E+02 -0.44086860276E+02  0.27107349829E+03  0.28773009570E+03  0.79771417944E+02 0.  0.
         23    2    1    2    0    0  0.15774626647E+02  0.13989618588E+03  0.16704222565E+03  0.23655192836E+03  0.90740993986E+02 0.  0.
        -13    1    3    3    0    0 -0.24795423186E+02 -0.65704659120E+02  0.16610446804E+03  0.18034026047E+03  0.00000000000E+00 0.  1.
         14    1    3    3    0    0 -0.68374098437E+01  0.21617798844E+02  0.10496903025E+03  0.10738983523E+03  0.00000000000E+00 0. -1.
        -11    1    4    4    0    0 -0.26148595354E+02  0.16496296125E+02  0.61556796324E+02  0.68884802377E+02  0.00000000000E+00 0.  1.
         11    1    4    4    0    0  0.41923222001E+02  0.12339988975E+03  0.10548542933E+03  0.16766712598E+03  0.00000000000E+00 0. -1.
         -4    1    1    2    0  502  0.15858206383E+02 -0.95809325601E+02  0.15003996776E+03  0.17872577181E+03  0.00000000000E+00 0.  1.
<scales pt_clust_5="13000.00000" pt_clust_6="13000.00000" pt_clust_7="13000.00000" pt_clust_8="13000.00000" pt_clust_9="115.61243"></scales>
<clustering>
<clus scale="   79.771">  5  6 -1 -1</clus>
<clus scale="   90.741">  7  8 -1 -1</clus>
<clus scale="   96.477">  1  5  2 -1</clus>
<clus scale="  115.612">  2  9  1 -1</clus>
<clus scale="  115.612">  2  5  1 -1</clus>
</clustering>
</event>
<event>
 9    2  0.4883225E-005  0.9935659E+02  0.7546771E-02  0.1288671E+00
         21   -1    0    0  501  502  0.00000000000E+00  0.00000000000E+00  0.47585099694E+02  0.47585099694E+02  0.00000000000E+00 0. -1.
         -3   -1    0    0    0  501 -0.00000000000E+00 -0.00000000000E+00 -0.69976685724E+03  0.69976685724E+03  0.00000000000E+00 0.  1.
         24    2    1    2    0    0 -0.35380218536E+02 -0.29333755042E+01 -0.49145542537E+03  0.49919106206E+03  0.80018227642E+02 0.  0.
         23    2    1    2    0    0  0.17931407246E+02  0.22387975859E+02 -0.13359277179E+02  0.98494628176E+02  0.93273601110E+02 0.  0.
        -13    1    3    3    0    0 -0.54732877863E+02  0.91516409593E+01 -0.22428024725E+03  0.23104343695E+03  0.00000000000E+00 0.  1.
         14    1    3    3    0    0  0.19352659327E+02 -0.12085016463E+02 -0.26717517813E+03  0.26814762511E+03  0.00000000000E+00 0. -1.
        -11    1    4    4    0    0 -0.20262310401E+01  0.26415612833E+02 -0.49995415145E+02  0.56581196074E+02  0.00000000000E+00 0.  1.
         11    1    4    4    0    0  0.19957638286E+02 -0.40276369748E+01  0.36636137966E+02  0.41913432103E+02  0.00000000000E+00 0. -1.
         -4    1    1    2    0  502  0.17448811290E+02 -0.19454600354E+02 -0.14736705499E+03  0.14966626670E+03  0.00000000000E+00 0.  1.
<scales pt_clust_5="13000.00000" pt_clust_6="13000.00000" pt_clust_7="13000.00000" pt_clust_8="13000.00000" pt_clust_9="26.13318"></scales>
<clustering>
<clus scale="   26.133">  1  9  2 -1</clus>
<clus scale="   80.018">  5  6 -1 -1</clus>
<clus scale="   87.033">  2  5  1 -1</clus>
<clus scale="   93.274">  7  8 -1 -1</clus>
<clus scale="   26.133">  1  5  2 -1</clus>
</clustering>
</event>
<event>
 9    2  0.4883225E-005  0.9642237E+02  0.7546771E-02  0.1292615E+00
         -1   -1    0    0    0  501 -0.00000000000E+00  0.00000000000E+00  0.13637864482E+03  0.13637864482E+03  0.00000000000E+00 0.  1.
         21   -1    0    0  501  502  0.00000000000E+00 -0.00000000000E+00 -0.21530951860E+03  0.21530951860E+03  0.00000000000E+00 0.  1.
         24    2    1    2    0    0  0.31480793681E+02  0.26390188102E+02  0.74126737334E+02  0.11736236378E+03  0.81189093136E+02 0.  0.
         23    2    1    2    0    0  0.14877652225E+02 -0.36132682905E+02 -0.29951037125E+02  0.10241958194E+03  0.89809747969E+02 0.  0.
        -13    1    3    3    0    0  0.26799140288E+02  0.13036176506E+02  0.90757940275E+02  0.95525596261E+02  0.00000000000E+00 0.  1.
         14    1    3    3    0    0  0.46816533935E+01  0.13354011596E+02 -0.16631202941E+02  0.21836767514E+02  0.00000000000E+00 0. -1.
        -11    1    4    4    0    0  0.40319472260E+02 -0.29724190108E+01  0.13020888058E+02  0.42473976078E+02  0.00000000000E+00 0.  1.
         11    1    4    4    0    0 -0.25441820035E+02 -0.33160263894E+02 -0.42971925182E+02  0.59945605862E+02  0.00000000000E+00 0. -1.
         -2    1    1    2    0  502 -0.46358445906E+02  0.97424948034E+01 -0.12310657399E+03  0.13190621771E+03  0.00000000000E+00 0.  1.
<scales pt_clust_5="13000.00000" pt_clust_6="13000.00000" pt_clust_7="13000.00000" pt_clust_8="13000.00000" pt_clust_9="47.37111"></scales>
<clustering>
<clus scale="   47.371">  2  9  1 -1</clus>
<clus scale="   81.189">  5  6 -1 -1</clus>
<clus scale="   88.449">  1  5  2 -1</clus>
<clus scale="   89.810">  7  8 -1 -1</clus>
<clus scale="   47.371">  2  5  1 -1</clus>
</clustering>
</event>
<event>
 9    2  0.4883225E-005  0.9629592E+02  0.7546771E-02  0.1295327E+00
          2   -1    0    0  502    0 -0.00000000000E+00  0.00000000000E+00  0.64031601902E+03  0.64031601902E+03  0.00000000000E+00 0. -1.
         21   -1    0    0  501  502  0.00000000000E+00 -0.00000000000E+00 -0.42923479113E+02  0.42923479113E+02  0.00000000000E+00 0. -1.
         24    2    1    2    0    0 -0.14918658627E+02 -0.36858978335E+02  0.35669038579E+03  0.36787505721E+03  0.80764322189E+02 0.  0.
         23    2    1    2    0    0  0.15778377850E+02 -0.77546939887E+01  0.25209411957E+03  0.26931125697E+03  0.93102177883E+02 0.  0.
        -13    1    3    3    0    0 -0.11662392200E+02 -0.16960707997E+02  0.14706735730E+02  0.25297531172E+02  0.00000000000E+00 0.  1.
         14    1    3    3    0    0 -0.32562664273E+01 -0.19898270338E+02  0.34198365006E+03  0.34257752604E+03  0.00000000000E+00 0. -1.
        -11    1    4    4    0    0 -0.23928780908E+02  0.23958872039E+02  0.16531831907E+03  0.16875058733E+03  0.00000000000E+00 0.  1.
         11    1    4    4    0    0  0.39707158758E+02 -0.31713566028E+02  0.86775800495E+02  0.10056066964E+03  0.00000000000E+00 0. -1.
          1    1    1    2  501    0 -0.85971922266E+00  0.44613672324E+02 -0.11391965452E+02  0.46053183953E+02  0.00000000000E+00 0. -1.
<scales pt_clust_5="13000.00000" pt_clust_6="13000.00000" pt_clust_7="13000.00000" pt_clust_8="13000.00000" pt_clust_9="44.62196"></scales>
<clustering>
<clus scale="   44.622">  2  9  1 -1</clus>
<clus scale="   80.764">  5  6 -1 -1</clus>
<clus scale="   84.426">  1  5  2 -1</clus>
<clus scale="   93.102">  7  8 -1 -1</clus>
<clus scale="   44.622">  2  5  1 -1</clus>
</clustering>
</event>
<event>
 9    2  0.4883225E-005  0.1965354E+03  0.7546771E-02  0.1176767E+00
         21   -1    0    0  501  502  0.00000000000E+00  0.00000000000E+00  0.21208808660E+03  0.21208808660E+03  0.00000000000E+00 0. -1.
          2   -1    0    0  502    0 -0.00000000000E+00 -0.00000000000E+00 -0.70692362394E+03  0.70692362394E+03  0.00000000000E+00 0. -1.
         24    2    1    2    0    0  0.74236887262E+02 -0.22737628968E+02  0.12119296672E+03  0.16552340963E+03  0.81744411138E+02 0.  0.
         23    2    1    2    0    0  0.11286026372E+03  0.11374553741E+02 -0.52364731967E+03  0.54451761728E+03  0.97088107057E+02 0.  0.
        -11    1    3    3    0    0  0.19843853025E+02 -0.47131270416E+02  0.40688811613E+02  0.65350704238E+02  0.00000000000E+00 0.  1.
         12    1    3    3    0    0  0.54393034237E+02  0.24393641448E+02  0.80504155103E+02  0.10017270539E+03  0.00000000000E+00 0. -1.
        -11    1    4    4    0    0  0.10064235796E+03  0.44024116786E+02 -0.33130131376E+03  0.34903806036E+03  0.00000000000E+00 0. -1.
         11    1    4    4    0    0  0.12217905763E+02 -0.32649563045E+02 -0.19234600591E+03  0.19547955693E+03  0.00000000000E+00 0.  1.
          1    1    1    2  501    0 -0.18709715098E+03  0.11363075228E+02 -0.92381184386E+02  0.20897068362E+03  0.00000000000E+00 0. -1.
<scales pt_clust_5="13000.00000" pt_clust_6="13000.00000" pt_clust_7="13000.00000" pt_clust_8="13000.00000" pt_clust_9="170.88027"></scales>
<clustering>
<clus scale="   81.744">  5  6 -1 -1</clus>
<clus scale="   97.088">  7  8 -1 -1</clus>
<clus scale="  112.740">  2  5  1 -1</clus>
<clus scale="  170.880">  1  9  2 -1</clus>
<clus scale="  170.880">  1  5  2 -1</clus>
</clustering>
</event>
<event>
 9    2  0.4883225E-005  0.1249321E+03  0.7546771E-02  0.1246512E+00
          2   -1    0    0  502    0 -0.00000000000E+00  0.00000000000E+00  0.15269640395E+03  0.15269640395E+03  0.00000000000E+00 0. -1.
         21   -1    0    0  501  502  0.00000000000E+00 -0.00000000000E+00 -0.16495523931E+03  0.16495523931E+03  0.00000000000E+00 0. -1.
         24    2    1    2    0    0 -0.15926106191E+02  0.54759025301E+02  0.25795957972E+01  0.99304287025E+02  0.81255740700E+02 0.  0.
         23    2    1    2    0    0  0.22364569978E+02  0.53129867721E+02 -0.79293066805E+00  0.10935770930E+03  0.92927514820E+02 0.  0.
        -13    1    3    3    0    0  0.22394320631E+02  0.33764155811E+02  0.27533538223E+02  0.48985911660E+02  0.00000000000E+00 0.  1.
         14    1    3    3    0    0 -0.38320426822E+02  0.20994869490E+02 -0.24953942426E+02  0.50318375364E+02  0.00000000000E+00 0. -1.
        -11    1    4    4    0    0 -0.11551077613E+02  0.66755185567E+02  0.15248732901E+02  0.69442105737E+02  0.00000000000E+00 0. -1.
         11    1    4    4    0    0  0.33915647591E+02 -0.13625317846E+02 -0.16041663570E+02  0.39915603565E+02  0.00000000000E+00 0.  1.
          1    1    1    2  501    0 -0.64384637870E+01 -0.10788889302E+03 -0.14045500487E+02  0.10898964693E+03  0.00000000000E+00 0. -1.
<scales pt_clust_5="13000.00000" pt_clust_6="13000.00000" pt_clust_7="13000.00000" pt_clust_8="13000.00000" pt_clust_9="83.50165"></scales>
<clustering>
<clus scale="   81.256">  5  6 -1 -1</clus>
<clus scale="   92.928">  7  8 -1 -1</clus>
<clus scale="   99.271">  1  5  2 -1</clus>
<clus scale="   83.502">  2  9  1 -1</clus>
<clus scale="   83.502">  2  5  1 -1</clus>
</clustering>
</event>
<event>
 9    2  0.4883225E-005  0.1412524E+03  0.7546771E-02  0.1229517E+00
          2   -1    0    0  502    0 -0.00000000000E+00  0.00000000000E+00  0.19169033886E+03  0.19169033886E+03  0.00000000000E+00 0. -1.
         21   -1    0    0  501  502  0.00000000000E+00 -0.00000000000E+00 -0.16910222432E+03  0.16910222432E+03  0.00000000000E+00 0. -1.
         24    2    1    2    0    0  0.43362981229E+02 -0.39874994884E+02  0.34578752047E+02  0.10308100472E+03  0.77198705190E+02 0.  0.
         23    2    1    2    0    0  0.19124334967E+02 -0.74320737363E+02  0.27299397099E+02  0.12173716099E+03  0.90473018598E+02 0.  0.
        -13    1    3    3    0    0  0.38644564712E+02  0.14031535456E+02  0.50115096486E+01  0.41417406945E+02  0.00000000000E+00 0.  1.
         14    1    3    3    0    0  0.47184165167E+01 -0.53906530339E+02  0.29567242399E+02  0.61663597776E+02  0.00000000000E+00 0. -1.
        -11    1    4    4    0    0  0.93702106949E+01 -0.25337986929E+02  0.57388619144E+02  0.63429236456E+02  0.00000000000E+00 0.  1.
         11    1    4    4    0    0  0.97541242722E+01 -0.48982750434E+02 -0.30089222045E+02  0.58307924536E+02  0.00000000000E+00 0. -1.
          1    1    1    2  501    0 -0.62487316196E+02  0.11419573225E+03 -0.39290034604E+02  0.13597439747E+03  0.00000000000E+00 0. -1.
<scales pt_clust_5="13000.00000" pt_clust_6="13000.00000" pt_clust_7="13000.00000" pt_clust_8="13000.00000" pt_clust_9="108.47527"></scales>
<clustering>
<clus scale="   77.199">  5  6 -1 -1</clus>
<clus scale="   90.473">  7  8 -1 -1</clus>
<clus scale="   97.108">  1  5  2 -1</clus>
<clus scale="  108.475">  2  9  1 -1</clus>
<clus scale="  108.475">  2  5  1 -1</clus>
</clustering>
</event>
<event>
 9    2  0.4883225E-005  0.1095246E+03  0.7546771E-02  0.1287878E+00
          4   -1    0    0  502    0 -0.00000000000E+00  0.00000000000E+00  0.37045872736E+03  0.37045872736E+03  0.00000000000E+00 0. -1.
         21   -1    0    0  501  502  0.00000000000E+00 -0.00000000000E+00 -0.22681165842E+03  0.22681165842E+03  0.00000000000E+00 0. -1.
         24    2    1    2    0    0  0.22719701569E+02 -0.13457681740E+02  0.28684375798E+03  0.30755702229E+03  0.10777145461E+03 0.  0.
         23    2    1    2    0    0 -0.10813028365E+02 -0.43613322839E+02  0.47168302839E+02  0.90621177399E+02  0.62994487766E+02 0.  0.
        -13    1    3    3    0    0 -0.25573832503E+02  0.27734457952E+02  0.17440650048E+03  0.17844004168E+03  0.00000000000E+00 0.  1.
         14    1    3    3    0    0  0.48293534072E+02 -0.41192139692E+02  0.11243725750E+03  0.12911698061E+03  0.00000000000E+00 0. -1.
        -13    1    4    4    0    0 -0.28774495684E+02  0.25376388607E+00  0.25711839984E+02  0.38589308277E+02  0.00000000000E+00 0. -1.
         13    1    4    4    0    0  0.17961467319E+02 -0.43867086725E+02  0.21456462855E+02  0.52031869121E+02  0.00000000000E+00 0.  1.
          3    1    1    2  501    0 -0.11906673204E+02  0.57071004579E+02 -0.19036499188E+03  0.19909218610E+03  0.00000000000E+00 0. -1.
<scales pt_clust_5="13000.00000" pt_clust_6="13000.00000" pt_clust_7="13000.00000" pt_clust_8="13000.00000" pt_clust_9="58.29982"></scales>
<clustering>
<clus scale="   58.300">  2  9  1 -1</clus>
<clus scale="   62.994">  7  8 -1 -1</clus>
<clus scale="   65.949">  2  7  1 -1</clus>
<clus scale="  107.771">  5  6 -1 -1</clus>
<clus scale="   58.300">  2  5  1 -1</clus>
</clustering>
</event>
<event>
 9    2  0.4883225E-005  0.9849452E+02  0.7546771E-02  0.1291899E+00
          2   -1    0    0  502    0 -0.00000000000E+00  0.00000000000E+00  0.49169878991E+03  0.49169878991E+03  0.00000000000E+00 0. -1.
         21   -1    0    0  501  502  0.00000000000E+00 -0.00000000000E+00 -0.14817422744E+03  0.14817422744E+03  0.00000000000E+00 0. -1.
         24    2    1    2    0    0 -0.14296273472E+02  0.26148597981E+02  0.43682505671E+03  0.44492416785E+03  0.79077508508E+02 0.  0.
         23    2    1    2    0    0 -0.12263762463E+02  0.43339525255E+01 -0.11484889102E+03  0.14913449806E+03  0.94242494279E+02 0.  0.
        -13    1    3    3    0    0 -0.39703570318E+02  0.20276168577E+01  0.12580048824E+03  0.13193273880E+03  0.00000000000E+00 0.  1.
         14    1    3    3    0    0  0.25407296846E+02  0.24120981124E+02  0.31102456848E+03  0.31299142905E+03  0.00000000000E+00 0. -1.
        -11    1    4    4    0    0 -0.98568828627E+01 -0.34945524611E+02 -0.10783092953E+02  0.37876416459E+02  0.00000000000E+00 0.  1.
         11    1    4    4    0    0 -0.24068796000E+01  0.39279477137E+02 -0.10406579807E+03  0.11125808160E+03  0.00000000000E+00 0. -1.
          1    1    1    2  501    0  0.26560035934E+02 -0.30482550507E+02  0.21548396778E+02  0.45814351441E+02  0.00000000000E+00 0. -1.
<scales pt_clust_5="13000.00000" pt_clust_6="13000.00000" pt_clust_7="13000.00000" pt_clust_8="13000.00000" pt_clust_9="40.43045"></scales>
<clustering>
<clus scale="   40.430">  2  9  1 -1</clus>
<clus scale="   79.078">  5  6 -1 -1</clus>
<clus scale="   84.100">  1  5  2 -1</clus>
<clus scale="   94.242">  7  8 -1 -1</clus>
<clus scale="   40.430">  2  5  1 -1</clus>
</clustering>
</event>
<event>
 9    2  0.4883225E-005  0.1664603E+03  0.7546771E-02  0.1182702E+00
         21   -1    0    0  501  502  0.00000000000E+00  0.00000000000E+00  0.10849465217E+03  0.10849465217E+03  0.00000000000E+00 0.  1.
          2   -1    0    0  502    0 -0.00000000000E+00 -0.00000000000E+00 -0.82004751975E+03  0.82004751975E+03  0.00000000000E+00 0. -1.
         23    2    1    2    0    0 -0.81312096128E+01  0.14826019437E+03 -0.72426935981E+03  0.74469057749E+03  0.89166971730E+02 0.  0.
         24    2    1    2    0    0 -0.19612670774E+01 -0.85975628447E+02  0.21135176177E+02  0.12019549121E+03  0.81268722020E+02 0.  0.
        -11    1    4    4    0    0 -0.57339132957E+01 -0.97956923757E+02  0.30449203953E+01  0.98171830042E+02  0.00000000000E+00 0.  1.
         12    1    4    4    0    0  0.37726462183E+01  0.11981295310E+02  0.18090255782E+02  0.22023661163E+02  0.00000000000E+00 0. -1.
        -13    1    3    3    0    0  0.38466686145E+02  0.70263153952E+02 -0.39950468953E+03  0.40745624759E+03  0.00000000000E+00 0. -1.
         13    1    3    3    0    0 -0.46597895758E+02  0.77997040415E+02 -0.32476467028E+03  0.33723432990E+03  0.00000000000E+00 0.  1.
          1    1    1    2  501    0  0.10092476690E+02 -0.62284565919E+02 -0.84186839569E+01  0.63656103219E+02  0.00000000000E+00 0. -1.
<scales pt_clust_5="13000.00000" pt_clust_6="13000.00000" pt_clust_7="13000.00000" pt_clust_8="13000.00000" pt_clust_9="63.09695"></scales>
<clustering>
<clus scale="   63.097">  1  9  2 -1</clus>
<clus scale="   81.269">  5  6 -1 -1</clus>
<clus scale="   89.167">  7  8 -1 -1</clus>
<clus scale="  162.366">  1  5  2 -1</clus>
<clus scale="   63.097">  1  5  2 -1</clus>
</clustering>
</event>
<event>
 9    2  0.4883225E-005  0.1025466E+03  0.7546771E-02  0.1284806E+00
          2   -1    0    0  502    0 -0.00000000000E+00  0.00000000000E+00  0.41400903394E+03  0.41400903394E+03  0.00000000000E+00 0. -1.
         21   -1    0    0  501  502  0.00000000000E+00 -0.00000000000E+00 -0.20863597482E+03  0.20863597482E+03  0.00000000000E+00 0.  1.
         24    2    1    2    0    0  0.42234749874E+02  0.81658836678E+01  0.35903729057E+03  0.36873293496E+03  0.72150852766E+02 0.  0.
         23    2    1    2    0    0 -0.81590549140E+02 -0.67396531534E+01 -0.33798772224E+02  0.12774297542E+03  0.92051453719E+02 0.  0.
        -13    1    3    3    0    0  0.10406655492E+02  0.37001841869E+02  0.12459510677E+03  0.13038932245E+03  0.00000000000E+00 0.  1.
         14    1    3    3    0    0  0.31828094382E+02 -0.28835958201E+02  0.23444218380E+03  0.23834361251E+03  0.00000000000E+00 0. -1.
        -11    1    4    4    0    0  0.10461215928E+02 -0.23774670387E+02 -0.20704935654E+02  0.33216958788E+02  0.00000000000E+00 0. -1.
         11    1    4    4    0    0 -0.92051765068E+02  0.17035017233E+02 -0.13093836571E+02  0.94526016633E+02  0.00000000000E+00 0.  1.
          1    1    1    2  501    0  0.39355799266E+02 -0.14262305143E+01 -0.11986545922E+03  0.12616909837E+03  0.00000000000E+00 0. -1.
<scales pt_clust_5="13000.00000" pt_clust_6="13000.00000" pt_clust_7="13000.00000" pt_clust_8="13000.00000" pt_clust_9="39.38163"></scales>
<clustering>
<clus scale="   39.382">  2  9  1 -1</clus>
<clus scale="   72.151">  5  6 -1 -1</clus>
<clus scale="   85.136">  1  5  2 -1</clus>
<clus scale="   92.051">  7  8 -1 -1</clus>
<clus scale="   39.382">  2  5  1 -1</clus>
</clustering>
</event>
<event>
 9    2  0.4883225E-005  0.2346900E+03  0.7546771E-02  0.1156669E+00
         21   -1    0    0  501  502  0.00000000000E+00  0.00000000000E+00  0.29282811677E+03  0.29282811677E+03  0.00000000000E+00 0. -1.
          4   -1    0    0  502    0 -0.00000000000E+00 -0.00000000000E+00 -0.27850583665E+03  0.27850583665E+03  0.00000000000E+00 0. -1.
         24    2    1    2    0    0  0.49808341493E+02 -0.45557415972E+02  0.38450277760E+02  0.11194044276E+03  0.80597083277E+02 0.  0.
         23    2    1    2    0    0 -0.22441346181E+03  0.10931059651E+03  0.29934978946E+02  0.26581091458E+03  0.86308348367E+02 0.  0.
        -11    1    3    3    0    0  0.31677347611E+02 -0.66930229990E+02  0.39438332942E+02  0.83895721842E+02  0.00000000000E+00 0.  1.
         12    1    3    3    0    0  0.18130993882E+02  0.21372814019E+02 -0.98805518153E+00  0.28044720916E+02  0.00000000000E+00 0. -1.
        -11    1    4    4    0    0 -0.40986849633E+02  0.53649181076E+02  0.30597055973E+02  0.74123790426E+02  0.00000000000E+00 0.  1.
         11    1    4    4    0    0 -0.18342661217E+03  0.55661415433E+02 -0.66207702668E+00  0.19168712416E+03  0.00000000000E+00 0. -1.
          3    1    1    2  501    0  0.17460512031E+03 -0.63753180537E+02 -0.54062976582E+02  0.19358259608E+03  0.00000000000E+00 0. -1.
<scales pt_clust_5="13000.00000" pt_clust_6="13000.00000" pt_clust_7="13000.00000" pt_clust_8="13000.00000" pt_clust_9="218.24365"></scales>
<clustering>
<clus scale="   80.597">  5  6 -1 -1</clus>
<clus scale="   86.308">  7  8 -1 -1</clus>
<clus scale="  105.130">  2  5  1 -1</clus>
<clus scale="  218.244">  1  9  2 -1</clus>
<clus scale="  218.244">  1  5  2 -1</clus>
</clustering>
</event>
<event>
 9    2  0.4883225E-005  0.1005554E+03  0.7546771E-02  0.1285579E+00
          2   -1    0    0  502    0 -0.00000000000E+00  0.00000000000E+00  0.60454924794E+03  0.60454924794E+03  0.00000000000E+00 0. -1.
         21   -1    0    0  501  502  0.00000000000E+00 -0.00000000000E+00 -0.35073748615E+02  0.35073748615E+02  0.00000000000E+00 0.  1.
         24    2    1    2    0    0 -0.47324859595E+01  0.59164994721E+02  0.20575152162E+03  0.22820863072E+03  0.78883442263E+02 0.  0.
         23    2    1    2    0    0 -0.57695360955E+02 -0.34026892413E+01  0.21294823639E+03  0.23896148836E+03  0.91734990946E+02 0.  0.
        -13    1    3    3    0    0 -0.37760648175E+02  0.19414005767E+02  0.12790677477E+03  0.13476985272E+03  0.00000000000E+00 0.  1.
         14    1    3    3    0    0  0.33028162215E+02  0.39750988954E+02  0.77844746851E+02  0.93438778001E+02  0.00000000000E+00 0. -1.
        -11    1    4    4    0    0 -0.55529388067E+02  0.34395956197E+02  0.96624356491E+02  0.11663130373E+03  0.00000000000E+00 0.  1.
         11    1    4    4    0    0 -0.21659728888E+01 -0.37798645438E+02  0.11632387990E+03  0.12233018463E+03  0.00000000000E+00 0. -1.
          1    1    1    2  501    0  0.62427846915E+02 -0.55762305480E+02  0.15077574131E+03  0.17245287748E+03  0.00000000000E+00 0. -1.
<scales pt_clust_5="13000.00000" pt_clust_6="13000.00000" pt_clust_7="13000.00000" pt_clust_8="13000.00000" pt_clust_9="83.70586"></scales>
<clustering>
<clus scale="   78.883">  5  6 -1 -1</clus>
<clus scale="   83.706">  2  9  1 -1</clus>
<clus scale="   88.987">  1  5  2 -1</clus>
<clus scale="   91.735">  7  8 -1 -1</clus>
<clus scale="   83.706">  2  5  1 -1</clus>
</clustering>
</event>
<event>
 9    2  0.4883225E-005  0.9522242E+02  0.7546771E-02  0.1295605E+00
         21   -1    0    0  501  502  0.00000000000E+00  0.00000000000E+00  0.52936075127E+03  0.52936075127E+03  0.00000000000E+00 0.  1.
          4   -1    0    0  502    0 -0.00000000000E+00 -0.00000000000E+00 -0.40112740948E+02  0.40112740948E+02  0.00000000000E+00 0. -1.
         24    2    1    2    0    0 -0.27873224591E+02 -0.13209604017E+02  0.25554636105E+02  0.90541584640E+02  0.81199315485E+02 0.  0.
         23    2    1    2    0    0  0.18200162032E+02  0.31536939274E+02  0.34404957348E+03  0.35750662845E+03  0.90083605259E+02 0.  0.
        -11    1    3    3    0    0  0.26844125215E+02  0.44449513414E+01  0.17827355342E+02  0.32529667220E+02  0.00000000000E+00 0.  1.
         12    1    3    3    0    0 -0.54717349806E+02 -0.17654555358E+02  0.77272807630E+01  0.58011917420E+02  0.00000000000E+00 0. -1.
        -11    1    4    4    0    0  0.16750534316E+02 -0.24550026385E+02  0.50111780835E+02  0.58262121261E+02  0.00000000000E+00 0. -1.
         11    1    4    4    0    0  0.14496277160E+01  0.56086965659E+02  0.29393779265E+03  0.29924450719E+03  0.00000000000E+00 0.  1.
          3    1    1    2  501    0  0.96730625595E+01 -0.18327335257E+02  0.11964380073E+03  0.12142527912E+03  0.00000000000E+00 0. -1.
<scales pt_clust_5="13000.00000" pt_clust_6="13000.00000" pt_clust_7="13000.00000" pt_clust_8="13000.00000" pt_clust_9="20.72340"></scales>
<clustering>
<clus scale="   20.723">  1  9  2 -1</clus>
<clus scale="   81.199">  5  6 -1 -1</clus>
<clus scale="   86.865">  2  5  1 -1</clus>
<clus scale="   90.084">  7  8 -1 -1</clus>
<clus scale="   20.723">  1  5  2 -1</clus>
</clustering>
</event>
<event>
 9    2  0.4883225E-005  0.1003531E+03  0.7546771E-02  0.1289260E+00
         21   -1    0    0  501  502  0.00000000000E+00  0.00000000000E+00  0.88884752983E+02  0.88884752983E+02  0.00000000000E+00 0. -1.
          2   -1    0    0  502    0 -0.00000000000E+00 -0.00000000000E+00 -0.28055154927E+03  0.28055154927E+03  0.00000000000E+00 0. -1.
         23    2    1    2    0    0  0.18386911849E+02  0.88567598218E+01 -0.10048319461E+03  0.14225390448E+03  0.98604159231E+02 0.  0.
         24    2    1    2    0    0 -0.71100026983E+01  0.63019559988E+02  0.87362946032E+01  0.10358078087E+03  0.81428731066E+02 0.  0.
        -11    1    4    4    0    0  0.30434251333E+02  0.45937300081E+02 -0.13482138256E+02  0.56729597609E+02  0.00000000000E+00 0.  1.
         12    1    4    4    0    0 -0.37544254032E+02  0.17082259907E+02  0.22218432859E+02  0.46851183262E+02  0.00000000000E+00 0. -1.
        -11    1    3    3    0    0  0.50454285454E+02 -0.13959275204E+02 -0.27017009871E+02  0.58910229224E+02  0.00000000000E+00 0.  1.
         11    1    3    3    0    0 -0.32067373605E+02  0.22816035025E+02 -0.73466184740E+02  0.83343675252E+02  0.00000000000E+00 0. -1.
          1    1    1    2  501    0 -0.11276909151E+02 -0.71876319809E+02 -0.99919896275E+02  0.12360161690E+03  0.00000000000E+00 0. -1.
<scales pt_clust_5="13000.00000" pt_clust_6="13000.00000" pt_clust_7="13000.00000" pt_clust_8="13000.00000" pt_clust_9="72.75561"></scales>
<clustering>
<clus scale="   72.756">  1  9  2 -1</clus>
<clus scale="   81.429">  5  6 -1 -1</clus>
<clus scale="   83.538">  1  5  2 -1</clus>
<clus scale="   98.604">  7  8 -1 -1</clus>
<clus scale="   72.756">  1  5  2 -1</clus>
</clustering>
</event>
<event>
 9    2  0.4883225E-005  0.9731856E+02  0.7546771E-02  0.1292775E+00
         21   -1    0    0  501  502  0.00000000000E+00  0.00000000000E+00  0.60010641147E+02  0.60010641147E+02  0.00000000000E+00 0. -1.
         -1   -1    0    0    0  501 -0.00000000000E+00 -0.00000000000E+00 -0.25320246128E+03  0.25320246128E+03  0.00000000000E+00 0.  1.
         23    2    1    2    0    0  0.28327542278E+02 -0.86149335893E+01 -0.15866739701E+03  0.18530565225E+03  0.91028430446E+02 0.  0.
         24    2    1    2    0    0 -0.34916603348E+02  0.37180963314E+02 -0.29191297203E+02  0.98110201780E+02  0.78561355885E+02 0.  0.
        -13    1    4    4    0    0  0.15819333321E+02 -0.14156685521E+02 -0.36144574463E+01  0.21534329669E+02  0.00000000000E+00 0.  1.
         14    1    4    4    0    0 -0.50735936669E+02  0.51337648835E+02 -0.25576839757E+02  0.76575872111E+02  0.00000000000E+00 0. -1.
        -11    1    3    3    0    0 -0.42971190843E+01 -0.43167864676E+02 -0.10507909883E+03  0.11368177859E+03  0.00000000000E+00 0. -1.
         11    1    3    3    0    0  0.32624661362E+02  0.34552931087E+02 -0.53588298178E+02  0.71623873654E+02  0.00000000000E+00 0.  1.
         -2    1    1    2    0  502  0.65890610706E+01 -0.28566029725E+02 -0.53331259211E+01  0.29797248399E+02  0.00000000000E+00 0.  1.
<scales pt_clust_5="13000.00000" pt_clust_6="13000.00000" pt_clust_7="13000.00000" pt_clust_8="13000.00000" pt_clust_9="29.31610"></scales>
<clustering>
<clus scale="   29.316">  1  9  2 -1</clus>
<clus scale="   78.561">  5  6 -1 -1</clus>
<clus scale="   85.771">  1  5  2 -1</clus>
<clus scale="   91.028">  7  8 -1 -1</clus>
<clus scale="   29.316">  1  5  2 -1</clus>
</clustering>
</event>
<event>
 9    2  0.4883225E-005  0.2957539E+03  0.7546771E-02  0.1087766E+00
          2   -1    0    0  502    0 -0.00000000000E+00  0.00000000000E+00  0.42767929143E+03  0.42767929143E+03  0.00000000000E+00 0. -1.
         21   -1    0    0  501  502  0.00000000000E+00 -0.00000000000E+00 -0.60684362246E+03  0.60684362246E+03  0.00000000000E+00 0. -1.
         23    2    1    2    0    0 -0.67336658190E+02  0.27717960098E+03  0.32165829020E+03  0.43958746678E+03  0.91707843458E+02 0.  0.
         24    2    1    2    0    0  0.90903699885E+02 -0.23765136550E+03 -0.37101491943E+03  0.45721135226E+03  0.81538310119E+02 0.  0.
        -11    1    4    4    0    0  0.34516715610E+02 -0.18972768589E+03 -0.27833170322E+03  0.33860970964E+03  0.00000000000E+00 0.  1.
         12    1    4    4    0    0  0.56386984276E+02 -0.47923679610E+02 -0.92683216210E+02  0.11860164261E+03  0.00000000000E+00 0. -1.
        -11    1    3    3    0    0 -0.43136183723E+02  0.48815263869E+02  0.41085297958E+02  0.77017284041E+02  0.00000000000E+00 0.  1.
         11    1    3    3    0    0 -0.24200474467E+02  0.22836433712E+03  0.28057299225E+03  0.36257018273E+03  0.00000000000E+00 0. -1.
          1    1    1    2  501    0 -0.23567041695E+02 -0.39528235486E+02 -0.12980770181E+03  0.13772409486E+03  0.00000000000E+00 0. -1.
<scales pt_clust_5="13000.00000" pt_clust_6="13000.00000" pt_clust_7="13000.00000" pt_clust_8="13000.00000" pt_clust_9="46.02050"></scales>
<clustering>
<clus scale="   46.021">  2  9  1 -1</clus>
<clus scale="   81.538">  5  6 -1 -1</clus>
<clus scale="   91.708">  7  8 -1 -1</clus>
<clus scale="  292.760">  2  5  1 -1</clus>
<clus scale="   46.021">  2  5  1 -1</clus>
</clustering>
</event>
<event>
 9    2  0.4883225E-005  0.2760740E+03  0.7546771E-02  0.1138403E+00
         21   -1    0    0  501  502  0.00000000000E+00  0.00000000000E+00  0.13974900589E+03  0.13974900589E+03  0.00000000000E+00 0. -1.
          2   -1    0    0  502    0 -0.00000000000E+00 -0.00000000000E+00 -0.76210524161E+03  0.76210524161E+03  0.00000000000E+00 0. -1.
         24    2    1    2    0    0  0.21097612796E+02 -0.54222098277E+02 -0.17145676710E+03  0.19836446811E+03  0.81030204339E+02 0.  0.
         23    2    1    2    0    0  0.24860655003E+03  0.52286311292E+02 -0.22043208281E+03  0.34872323836E+03  0.92078872580E+02 0.  0.
        -11    1    3    3    0    0 -0.20297342959E+02 -0.54550925247E+02 -0.10558040904E+03  0.12056122241E+03  0.00000000000E+00 0.  1.
         12    1    3    3    0    0  0.41394955755E+02  0.32882697072E+00 -0.65876358061E+02  0.77803245694E+02  0.00000000000E+00 0. -1.
        -11    1    4    4    0    0  0.77589745761E+01  0.22716885262E+02 -0.56397815390E+01  0.24658988185E+02  0.00000000000E+00 0.  1.
         11    1    4    4    0    0  0.24084757545E+03  0.29569426029E+02 -0.21479230127E+03  0.32406425018E+03  0.00000000000E+00 0. -1.
          1    1    1    2  501    0 -0.26970416282E+03  0.19357869850E+01 -0.23046738581E+03  0.35476654103E+03  0.00000000000E+00 0. -1.
<scales pt_clust_5="13000.00000" pt_clust_6="13000.00000" pt_clust_7="13000.00000" pt_clust_8="13000.00000" pt_clust_9="260.26599"></scales>
<clustering>
<clus scale="   81.030">  5  6 -1 -1</clus>
<clus scale="   92.079">  7  8 -1 -1</clus>
<clus scale="   99.755">  2  5  1 -1</clus>
<clus scale="  260.266">  1  9  2 -1</clus>
<clus scale="  260.266">  1  5  2 -1</clus>
</clustering>
</event>
<event>
 9    2  0.4883225E-005  0.3663610E+03  0.7546771E-02  0.1078821E+00
          2   -1    0    0  502    0 -0.00000000000E+00  0.00000000000E+00  0.25693387498E+04  0.25693387498E+04  0.00000000000E+00 0. -1.
         21   -1    0    0  501  502  0.00000000000E+00 -0.00000000000E+00 -0.11085387730E+03  0.11085387730E+03  0.00000000000E+00 0. -1.
         23    2    1    2    0    0 -0.40280325450E+02 -0.16886041141E+03  0.60164690463E+03  0.63267162306E+03  0.90321877820E+02 0.  0.
         24    2    1    2    0    0 -0.30293998026E+03  0.18220131026E+02  0.14868267418E+04  0.15208323106E+04  0.10085907103E+03 0.  0.
        -13    1    4    4    0    0 -0.21060777158E+03  0.44010701508E+02  0.84886882985E+03  0.87571163380E+03  0.00000000000E+00 0.  1.
         14    1    4    4    0    0 -0.92332208683E+02 -0.25790570481E+02  0.63795791191E+03  0.64512067682E+03  0.00000000000E+00 0. -1.
        -13    1    3    3    0    0 -0.41065043409E+02 -0.52665385973E+02  0.33830064227E+03  0.34482938569E+03  0.00000000000E+00 0. -1.
         13    1    3    3    0    0  0.78471795930E+00 -0.11619502544E+03  0.26334626235E+03  0.28784223737E+03  0.00000000000E+00 0.  1.
          1    1    1    2  501    0  0.34322030571E+03  0.15064028038E+03  0.37001122611E+03  0.52668869342E+03  0.00000000000E+00 0. -1.
<scales pt_clust_5="13000.00000" pt_clust_6="13000.00000" pt_clust_7="13000.00000" pt_clust_8="13000.00000" pt_clust_9="352.20427"></scales>
<clustering>
<clus scale="   90.322">  7  8 -1 -1</clus>
<clus scale="  100.859">  5  6 -1 -1</clus>
<clus scale="  195.690">  1  7  2 -1</clus>
<clus scale="  352.204">  2  9  1 -1</clus>
<clus scale="  352.204">  2  5  1 -1</clus>
</clustering>
</event>
<event>
 9    2  0.4883225E-005  0.9866126E+02  0.7546771E-02  0.1287513E+00
         21   -1    0    0  501  502  0.00000000000E+00  0.00000000000E+00  0.12648365619E+03  0.12648365619E+03  0.00000000000E+00 0. -1.
         -1   -1    0    0    0  501 -0.00000000000E+00 -0.00000000000E+00 -0.12821121398E+03  0.12821121398E+03  0.00000000000E+00 0.  1.
         24    2    1    2    0    0 -0.45185545600E+02 -0.16225589349E+02 -0.46424021497E+02  0.10507642047E+03  0.81122506651E+02 0.  0.
         23    2    1    2    0    0  0.19350133468E+02  0.23740709596E+01  0.66212169626E+02  0.11325557464E+03  0.89792593811E+02 0.  0.
        -13    1    3    3    0    0 -0.59311204192E+02  0.35052207989E-01 -0.55938989129E+02  0.81529078716E+02  0.00000000000E+00 0.  1.
         14    1    3    3    0    0  0.14125658593E+02 -0.16260641557E+02  0.95149676320E+01  0.23547341751E+02  0.00000000000E+00 0. -1.
        -13    1    4    4    0    0  0.22141004091E+02 -0.37000170016E+02  0.94907177244E+01  0.44150995077E+02  0.00000000000E+00 0.  1.
         13    1    4    4    0    0 -0.27908706234E+01  0.39374240976E+02  0.56721451902E+02  0.69104579567E+02  0.00000000000E+00 0. -1.
         -2    1    1    2    0  502  0.25835412132E+02  0.13851518389E+02 -0.21515705914E+02  0.36362875060E+02  0.00000000000E+00 0.  1.
<scales pt_clust_5="13000.00000" pt_clust_6="13000.00000" pt_clust_7="13000.00000" pt_clust_8="13000.00000" pt_clust_9="29.31440"></scales>
<clustering>
<clus scale="   29.314">  1  9  2 -1</clus>
<clus scale="   81.123">  5  6 -1 -1</clus>
<clus scale="   89.793">  7  8 -1 -1</clus>
<clus scale="   90.842">  2  5  1 -1</clus>
<clus scale="   29.314">  1  5  2 -1</clus>
</clustering>
</event>
<event>
 9    2  0.4883225E-005  0.9219772E+02  0.7546771E-02  0.1301078E+00
          2   -1    0    0  502    0 -0.00000000000E+00  0.00000000000E+00  0.29438269453E+03  0.29438269453E+03  0.00000000000E+00 0. -1.
         21   -1    0    0  501  502  0.00000000000E+00 -0.00000000000E+00 -0.13276421304E+03  0.13276421304E+03  0.00000000000E+00 0. -1.
         24    2    1    2    0    0 -0.23914636883E+02 -0.42202529330E+01  0.19735846447E+03  0.21633795094E+03  0.85217516549E+02 0.  0.
         23    2    1    2    0    0 -0.26188597486E+02  0.23504733991E+02  0.50008284353E+02  0.10964082599E+03  0.91005313374E+02 0.  0.
        -11    1    3    3    0    0  0.24622807312E+02 -0.18667421305E+02  0.37174457999E+02  0.48339379243E+02  0.00000000000E+00 0.  1.
         12    1    3    3    0    0 -0.48537444195E+02  0.14447168372E+02  0.16018400647E+03  0.16799857170E+03  0.00000000000E+00 0. -1.
        -11    1    4    4    0    0  0.29804692074E+02  0.19070780434E+01 -0.24033391543E+01  0.29962187093E+02  0.00000000000E+00 0.  1.
         11    1    4    4    0    0 -0.55993289561E+02  0.21597655948E+02  0.52411623507E+02  0.79678638900E+02  0.00000000000E+00 0. -1.
          1    1    1    2  501    0  0.50103234369E+02 -0.19284481058E+02 -0.85748267337E+02  0.10116813063E+03  0.00000000000E+00 0. -1.
<scales pt_clust_5="13000.00000" pt_clust_6="13000.00000" pt_clust_7="13000.00000" pt_clust_8="13000.00000" pt_clust_9="53.68636"></scales>
<clustering>
<clus scale="   53.686">  2  9  1 -1</clus>
<clus scale="   85.218">  5  6 -1 -1</clus>
<clus scale="   86.490">  1  5  2 -1</clus>
<clus scale="   91.005">  7  8 -1 -1</clus>
<clus scale="   53.686">  2  5  1 -1</clus>
</clustering>
</event>
<event>
 9    2  0.4883225E-005  0.1736061E+03  0.7546771E-02  0.1207627E+00
         21   -1    0    0  501  502  0.00000000000E+00  0.00000000000E+00  0.38080496863E+02  0.38080496863E+02  0.00000000000E+00 0. -1.
          2   -1    0    0  502    0 -0.00000000000E+00 -0.00000000000E+00 -0.10823459294E+04  0.10823459294E+04  0.00000000000E+00 0. -1.
         24    2    1    2    0    0  0.89544719969E+01  0.15326826765E+02 -0.15860709180E+03  0.17897434466E+03  0.80996989379E+02 0.  0.
         23    2    1    2    0    0 -0.13535884753E+03 -0.72199864015E+02 -0.49108973590E+03  0.52324520405E+03  0.95297307826E+02 0.  0.
        -11    1    3    3    0    0  0.40535184479E+02  0.26890327642E+02 -0.10450202041E+03  0.11526865650E+03  0.00000000000E+00 0.  1.
         12    1    3    3    0    0 -0.31580712482E+02 -0.11563500876E+02 -0.54105071393E+02  0.63705688160E+02  0.00000000000E+00 0. -1.
        -11    1    4    4    0    0 -0.34393080584E+02  0.23265624852E+02 -0.10498738337E+03  0.11290050469E+03  0.00000000000E+00 0.  1.
         11    1    4    4    0    0 -0.10096576694E+03 -0.95465488867E+02 -0.38610235253E+03  0.41034469936E+03  0.00000000000E+00 0. -1.
          1    1    1    2  501    0  0.12640437553E+03  0.56873037250E+02 -0.39456860485E+03  0.41820687758E+03  0.00000000000E+00 0. -1.
<scales pt_clust_5="13000.00000" pt_clust_6="13000.00000" pt_clust_7="13000.00000" pt_clust_8="13000.00000" pt_clust_9="145.11204"></scales>
<clustering>
<clus scale="   80.997">  5  6 -1 -1</clus>
<clus scale="   82.919">  2  5  1 -1</clus>
<clus scale="   95.297">  7  8 -1 -1</clus>
<clus scale="  145.112">  1  9  2 -1</clus>
<clus scale="  145.112">  1  5  2 -1</clus>
</clustering>
</event>
<event>
 9    2  0.4883225E-005  0.9647109E+02  0.7546771E-02  0.1294274E+00
          2   -1    0    0  502    0 -0.00000000000E+00  0.00000000000E+00  0.14699524829E+04  0.14699524829E+04  0.00000000000E+00 0. -1.
         21   -1    0    0  501  502  0.00000000000E+00 -0.00000000000E+00 -0.39154001086E+02  0.39154001086E+02  0.00000000000E+00 0. -1.
         24    2    1    2    0    0 -0.19371836363E+02 -0.13997812572E+02  0.13246407305E+04  0.13274547807E+04  0.83017606252E+02 0.  0.
         23    2    1    2    0    0 -0.17186191239E+02 -0.14517595615E+02  0.91016438775E+02  0.13287796828E+03  0.94161757503E+02 0.  0.
        -13    1    3    3    0    0 -0.63165582639E+01  0.21416114651E+02  0.11079993052E+03  0.11302731298E+03  0.00000000000E+00 0.  1.
         14    1    3    3    0    0 -0.13055278099E+02 -0.35413927224E+02  0.12138408000E+04  0.12144274677E+04  0.00000000000E+00 0. -1.
        -13    1    4    4    0    0  0.26818202293E+02 -0.23640944982E+02  0.53627643059E+01  0.36150649992E+02  0.00000000000E+00 0. -1.
         13    1    4    4    0    0 -0.44004393532E+02  0.91233493674E+01  0.85653674469E+02  0.96727318292E+02  0.00000000000E+00 0.  1.
          1    1    1    2  501    0  0.36558027603E+02  0.28515408187E+02  0.15141312536E+02  0.48773735059E+02  0.00000000000E+00 0. -1.
<scales pt_clust_5="13000.00000" pt_clust_6="13000.00000" pt_clust_7="13000.00000" pt_clust_8="13000.00000" pt_clust_9="46.36397"></scales>
<clustering>
<clus scale="   46.364">  2  9  1 -1</clus>
<clus scale="   83.018">  5  6 -1 -1</clus>
<clus scale="   85.628">  1  5  2 -1</clus>
<clus scale="   94.162">  7  8 -1 -1</clus>
<clus scale="   46.364">  2  5  1 -1</clus>
</clustering>
</event>
<event>
 9    2  0.4883225E-005  0.1055208E+03  0.7546771E-02  0.1270485E+00
          2   -1    0    0  502    0 -0.00000000000E+00  0.00000000000E+00  0.83466185750E+03  0.83466185750E+03  0.00000000000E+00 0. -1.
         21   -1    0    0  501  502  0.00000000000E+00 -0.00000000000E+00 -0.28982255241E+02  0.28982255241E+02  0.00000000000E+00 0.  1.
         24    2    1    2    0    0  0.53732551432E+02  0.85010895606E+00  0.43592086441E+03  0.44749831289E+03  0.85672809234E+02 0.  0.
         23    2    1    2    0    0 -0.71597013265E+02 -0.12052278162E+02  0.37793689292E+03  0.39352921717E+03  0.82204379549E+02 0.  0.
        -11    1    3    3    0    0  0.48272480059E+02 -0.30202433344E+02  0.16095222385E+03  0.17072796395E+03  0.00000000000E+00 0.  1.
         12    1    3    3    0    0  0.54600713730E+01  0.31052542300E+02  0.27496864056E+03  0.27677034894E+03  0.00000000000E+00 0. -1.
        -11    1    4    4    0    0 -0.52562007289E+02  0.27705523995E+02  0.27838234953E+03  0.28465258334E+03  0.00000000000E+00 0. -1.
         11    1    4    4    0    0 -0.19035005977E+02 -0.39757802156E+02  0.99554543389E+02  0.10887663383E+03  0.00000000000E+00 0.  1.
          1    1    1    2  501    0  0.17864461834E+02  0.11202169206E+02 -0.81781550787E+01  0.22616582678E+02  0.00000000000E+00 0. -1.
<scales pt_clust_5="13000.00000" pt_clust_6="13000.00000" pt_clust_7="13000.00000" pt_clust_8="13000.00000" pt_clust_9="21.08619"></scales>
<clustering>
<clus scale="   21.086">  2  9  1 -1</clus>
<clus scale="   82.204">  7  8 -1 -1</clus>
<clus scale="   85.673">  5  6 -1 -1</clus>
<clus scale="  102.725">  2  7  1 -1</clus>
<clus scale="   21.086">  2  5  1 -1</clus>
</clustering>
</event>
<event>
 9    2  0.5871261E-005  0.9800781E+02  0.7546771E-02  0.1289801E+00
         21   -1    0    0  501  502  0.00000000000E+00  0.00000000000E+00  0.29612771012E+03  0.29612771012E+03  0.00000000000E+00 0.  1.
         -3   -1    0    0    0  501 -0.00000000000E+00 -0.00000000000E+00 -0.12210675902E+03  0.12210675902E+03  0.00000000000E+00 0.  1.
         23    2    1    2    0    0  0.21547372170E+02 -0.31347570678E+02 -0.78935583994E+02  0.12613667012E+03  0.90734082314E+02 0.  0.
         24    2    1    2    0    0  0.11313079806E+02  0.43483299901E+02  0.10400509100E+03  0.13908270851E+03  0.80673153573E+02 0.  0.
        -11    1    4    4    0    0  0.19092147677E+02  0.63061222957E+02  0.96233625642E+02  0.11662820691E+03  0.00000000000E+00 0.  1.
         12    1    4    4    0    0 -0.77790678717E+01 -0.19577923055E+02  0.77714653588E+01  0.22454501596E+02  0.00000000000E+00 0. -1.
        -11    1    3    3    0    0  0.28174569956E+02  0.80212143794E+01 -0.81026377105E+02  0.86159271464E+02  0.00000000000E+00 0.  1.
         11    1    3    3    0    0 -0.66271977861E+01 -0.39368785057E+02  0.20907931116E+01  0.39977398655E+02  0.00000000000E+00 0. -1.
         -4    1    1    2    0  502 -0.32860451976E+02 -0.12135729224E+02  0.14895144410E+03  0.15301509052E+03  0.00000000000E+00 0.  1.
<scales pt_clust_5="13000.00000" pt_clust_6="13000.00000" pt_clust_7="13000.00000" pt_clust_8="13000.00000" pt_clust_9="35.02978"></scales>
<clustering>
<clus scale="   35.030">  1  9  2 -1</clus>
<clus scale="   80.673">  5  6 -1 -1</clus>
<clus scale="   88.775">  1  5  2 -1</clus>
<clus scale="   90.734">  7  8 -1 -1</clus>
<clus scale="   35.030">  1  5  2 -1</clus>
</clustering>
</event>
<event>
 9    2  0.4883225E-005  0.9404192E+02  0.7546771E-02  0.1302174E+00
          4   -1    0    0  502    0 -0.00000000000E+00  0.00000000000E+00  0.78473519290E+03  0.78473519290E+03  0.00000000000E+00 0. -1.
         21   -1    0    0  501  502  0.00000000000E+00 -0.00000000000E+00 -0.48595792696E+02  0.48595792696E+02  0.00000000000E+00 0. -1.
         24    2    1    2    0    0  0.12060490627E+02  0.22411444280E+02  0.59989116858E+03  0.60543674710E+03  0.77694995574E+02 0.  0.
         23    2    1    2    0    0  0.16669512689E+02  0.76928380906E+01  0.15576266352E+03  0.18193236342E+03  0.92197207671E+02 0.  0.
        -13    1    3    3    0    0 -0.18475566650E+02 -0.20536063688E+02  0.15579789003E+03  0.15822787053E+03  0.00000000000E+00 0.  1.
         14    1    3    3    0    0  0.30536057277E+02  0.42947507968E+02  0.44409327854E+03  0.44720887657E+03  0.00000000000E+00 0. -1.
        -13    1    4    4    0    0 -0.22278979113E+02 -0.31415944034E+02  0.56976412309E+02  0.68772276460E+02  0.00000000000E+00 0.  1.
         13    1    4    4    0    0  0.38948491802E+02  0.39108782125E+02  0.98786251207E+02  0.11316008696E+03  0.00000000000E+00 0. -1.
          3    1    1    2  501    0 -0.28730003316E+02 -0.30104282371E+02 -0.19514431895E+02  0.45961875068E+02  0.00000000000E+00 0. -1.
<scales pt_clust_5="13000.00000" pt_clust_6="13000.00000" pt_clust_7="13000.00000" pt_clust_8="13000.00000" pt_clust_9="41.61347"></scales>
<clustering>
<clus scale="   41.613">  2  9  1 -1</clus>
<clus scale="   77.695">  5  6 -1 -1</clus>
<clus scale="   79.875">  1  5  2 -1</clus>
<clus scale="   92.197">  7  8 -1 -1</clus>
<clus scale="   41.613">  2  5  1 -1</clus>
</clustering>
</event>
<event>
 9    2  0.4883225E-005  0.9156490E+02  0.7546771E-02  0.1310439E+00
         21   -1    0    0  501  502  0.00000000000E+00  0.00000000000E+00  0.15351166371E+03  0.15351166371E+03  0.00000000000E+00 0. -1.
          2   -1    0    0  502    0 -0.00000000000E+00 -0.00000000000E+00 -0.64305169672E+03  0.64305169672E+03  0.00000000000E+00 0. -1.
         24    2    1    2    0    0  0.67720385784E+01 -0.17866174999E+01 -0.55449953379E+03  0.55948066759E+03  0.74160851699E+02 0.  0.
         23    2    1    2    0    0  0.10617614547E+02  0.18140277075E+02 -0.59052760013E+02  0.11079380558E+03  0.91357733651E+02 0.  0.
        -13    1    3    3    0    0 -0.44613411557E+01  0.32503036824E+02 -0.15966489963E+03  0.16300070902E+03  0.00000000000E+00 0.  1.
         14    1    3    3    0    0  0.11233379734E+02 -0.34289654324E+02 -0.39483463416E+03  0.39647995857E+03  0.00000000000E+00 0. -1.
        -13    1    4    4    0    0 -0.29533543924E+02  0.57267324433E+01 -0.61742397128E+02  0.68681506130E+02  0.00000000000E+00 0. -1.
         13    1    4    4    0    0  0.40151158471E+02  0.12413544632E+02  0.26896371144E+01  0.42112299447E+02  0.00000000000E+00 0.  1.
          1    1    1    2  501    0 -0.17389653126E+02 -0.16353659575E+02  0.12401226080E+03  0.12628888726E+03  0.00000000000E+00 0. -1.
<scales pt_clust_5="13000.00000" pt_clust_6="13000.00000" pt_clust_7="13000.00000" pt_clust_8="13000.00000" pt_clust_9="23.87137"></scales>
<clustering>
<clus scale="   23.871">  1  9  2 -1</clus>
<clus scale="   74.161">  5  6 -1 -1</clus>
<clus scale="   74.416">  2  5  1 -1</clus>
<clus scale="   91.358">  7  8 -1 -1</clus>
<clus scale="   23.871">  1  5  2 -1</clus>
</clustering>
</event>
<event>
 9    2  0.4883225E-005  0.1809236E+03  0.7546771E-02  0.1168664E+00
          4   -1    0    0  502    0 -0.00000000000E+00  0.00000000000E+00  0.73512035679E+02  0.73512035679E+02  0.00000000000E+00 0. -1.
         21   -1    0    0  501  502  0.00000000000E+00 -0.00000000000E+00 -0.73598684073E+03  0.73598684073E+03  0.00000000000E+00 0.  1.
         24    2    1    2    0    0 -0.42526093493E+02 -0.15319858823E+03 -0.91167877706E+02  0.20083699275E+03  0.82131843209E+02 0.  0.
         23    2    1    2    0    0  0.44150721369E+02  0.12350687229E+03 -0.54561551622E+03  0.56936447895E+03  0.96313989913E+02 0.  0.
        -13    1    3    3    0    0  0.15933562615E+02 -0.93004153280E+02 -0.56985776906E+02  0.11023170921E+03  0.00000000000E+00 0.  1.
         14    1    3    3    0    0 -0.58459656108E+02 -0.60194434946E+02 -0.34182100800E+02  0.90605283543E+02  0.00000000000E+00 0. -1.
        -13    1    4    4    0    0  0.60940911241E+02  0.63819424229E+02 -0.20552047370E+03  0.22366353901E+03  0.00000000000E+00 0. -1.
         13    1    4    4    0    0 -0.16790189872E+02  0.59687448058E+02 -0.34009504252E+03  0.34570093994E+03  0.00000000000E+00 0.  1.
          3    1    1    2  501    0 -0.16246278756E+01  0.29691715939E+02 -0.25691411125E+02  0.39297404707E+02  0.00000000000E+00 0. -1.
<scales pt_clust_5="13000.00000" pt_clust_6="13000.00000" pt_clust_7="13000.00000" pt_clust_8="13000.00000" pt_clust_9="29.73614"></scales>
<clustering>
<clus scale="   29.736">  2  9  1 -1</clus>
<clus scale="   82.132">  5  6 -1 -1</clus>
<clus scale="   96.314">  7  8 -1 -1</clus>
<clus scale="  173.789">  1  5  2 -1</clus>
<clus scale="   29.736">  2  5  1 -1</clus>
</clustering>
</event>
<event>
 9    2  0.4883225E-005  0.1024146E+03  0.7546771E-02  0.1281818E+00
         21   -1    0    0  501  502  0.00000000000E+00  0.00000000000E+00  0.97901575407E+02  0.97901575407E+02  0.00000000000E+00 0.  1.
          4   -1    0    0  502    0 -0.00000000000E+00 -0.00000000000E+00 -0.57582686010E+03  0.57582686010E+03  0.00000000000E+00 0. -1.
         23    2    1    2    0    0  0.42221947500E+02 -0.98950328986E+01 -0.32780472559E+03  0.34313970912E+03  0.91696877414E+02 0.  0.
         24    2    1    2    0    0 -0.22135521843E+02  0.59914654635E+02 -0.22017989170E+03  0.24219338072E+03  0.78094185372E+02 0.  0.
        -11    1    4    4    0    0 -0.78739989123E+01  0.21238734764E+02 -0.51255666379E+01  0.23224020897E+02  0.00000000000E+00 0.  1.
         12    1    4    4    0    0 -0.14261522931E+02  0.38675919871E+02 -0.21505432506E+03  0.21896935982E+03  0.00000000000E+00 0. -1.
        -11    1    3    3    0    0 -0.15883143453E+02  0.27625739118E+02 -0.11805226161E+03  0.12227752115E+03  0.00000000000E+00 0.  1.
         11    1    3    3    0    0  0.58105090953E+02 -0.37520772017E+02 -0.20975246398E+03  0.22086218796E+03  0.00000000000E+00 0. -1.
          3    1    1    2  501    0 -0.20086425656E+02 -0.50019621737E+02  0.70059332589E+02  0.88395345676E+02  0.00000000000E+00 0. -1.
<scales pt_clust_5="13000.00000" pt_clust_6="13000.00000" pt_clust_7="13000.00000" pt_clust_8="13000.00000" pt_clust_9="53.90201"></scales>
<clustering>
<clus scale="   53.902">  1  9  2 -1</clus>
<clus scale="   78.094">  5  6 -1 -1</clus>
<clus scale="   90.439">  1  5  2 -1</clus>
<clus scale="   91.697">  7  8 -1 -1</clus>
<clus scale="   53.902">  1  5  2 -1</clus>
</clustering>
</event>
<event>
 9    2  0.4883225E-005  0.9716454E+02  0.7546771E-02  0.1290953E+00
         -1   -1    0    0    0  501 -0.00000000000E+00  0.00000000000E+00  0.10272691357E+03  0.10272691357E+03  0.00000000000E+00 0.  1.
         21   -1    0    0  501  502  0.00000000000E+00 -0.00000000000E+00 -0.22374447035E+03  0.22374447035E+03  0.00000000000E+00 0.  1.
         23    2    1    2    0    0  0.28755480835E+02 -0.11596479106E+02  0.43971277981E+02  0.10444254734E+03  0.89517687650E+02 0.  0.
         24    2    1    2    0    0 -0.69614583604E+02  0.47902784720E+01 -0.11112063094E+03  0.15407610280E+03  0.80762081546E+02 0.  0.
        -13    1    4    4    0    0 -0.73423907837E+02  0.29210442131E+02 -0.67435041924E+02  0.10388361300E+03  0.00000000000E+00 0.  1.
         14    1    4    4    0    0  0.38093242328E+01 -0.24420163659E+02 -0.43685589019E+02  0.50192489799E+02  0.00000000000E+00 0. -1.
        -11    1    3    3    0    0  0.36835312580E+02  0.32973015882E+02  0.22617670939E+02  0.54365605560E+02  0.00000000000E+00 0.  1.
         11    1    3    3    0    0 -0.80798317442E+01 -0.44569494988E+02  0.21353607042E+02  0.50076941782E+02  0.00000000000E+00 0. -1.
         -2    1    1    2    0  502  0.40859102769E+02  0.68062006342E+01 -0.53868203815E+02  0.67952733782E+02  0.00000000000E+00 0.  1.
<scales pt_clust_5="13000.00000" pt_clust_6="13000.00000" pt_clust_7="13000.00000" pt_clust_8="13000.00000" pt_clust_9="41.42210"></scales>
<clustering>
<clus scale="   41.422">  2  9  1 -1</clus>
<clus scale="   80.762">  5  6 -1 -1</clus>
<clus scale="   89.163">  2  5  1 -1</clus>
<clus scale="   89.518">  7  8 -1 -1</clus>
<clus scale="   41.422">  2  5  1 -1</clus>
</clustering>
</event>
<event>
 9    2  0.4883225E-005  0.2202319E+03  0.7546771E-02  0.1150013E+00
         21   -1    0    0  501  502  0.00000000000E+00  0.00000000000E+00  0.35114784328E+03  0.35114784328E+03  0.00000000000E+00 0. -1.
          2   -1    0    0  502    0 -0.00000000000E+00 -0.00000000000E+00 -0.67889028464E+03  0.67889028464E+03  0.00000000000E+00 0. -1.
         24    2    1    2    0    0 -0.12442074732E+03 -0.19110776511E+02 -0.52581942904E+03  0.54647342749E+03  0.79381300456E+02 0.  0.
         23    2    1    2    0    0 -0.10609717155E+03 -0.96748930162E+02  0.17351682273E+02  0.16856689319E+03  0.86583781982E+02 0.  0.
        -13    1    3    3    0    0 -0.52193127556E+02  0.14224661288E+02 -0.10410122192E+03  0.11731806322E+03  0.00000000000E+00 0.  1.
         14    1    3    3    0    0 -0.72227619768E+02 -0.33335437799E+02 -0.42171820712E+03  0.42915536428E+03  0.00000000000E+00 0. -1.
        -13    1    4    4    0    0 -0.31096722424E+02 -0.56849836148E+02 -0.29891703554E+02  0.71361221661E+02  0.00000000000E+00 0.  1.
         13    1    4    4    0    0 -0.75000449125E+02 -0.39899094014E+02  0.47243385827E+02  0.97205671525E+02  0.00000000000E+00 0. -1.
          1    1    1    2  501    0  0.23051791887E+03  0.11585970667E+03  0.18072530540E+03  0.31499780724E+03  0.00000000000E+00 0. -1.
<scales pt_clust_5="13000.00000" pt_clust_6="13000.00000" pt_clust_7="13000.00000" pt_clust_8="13000.00000" pt_clust_9="202.49773"></scales>
<clustering>
<clus scale="   79.381">  5  6 -1 -1</clus>
<clus scale="   86.584">  7  8 -1 -1</clus>
<clus scale="  148.819">  2  5  1 -1</clus>
<clus scale="  202.498">  1  9  2 -1</clus>
<clus scale="  202.498">  1  5  2 -1</clus>
</clustering>
</event>
<event>
 9    2  0.4883225E-005  0.9840870E+02  0.7546771E-02  0.1289082E+00
         21   -1    0    0  501  502  0.00000000000E+00  0.00000000000E+00  0.13032549928E+03  0.13032549928E+03  0.00000000000E+00 0.  1.
          4   -1    0    0  502    0 -0.00000000000E+00 -0.00000000000E+00 -0.35241419701E+03  0.35241419701E+03  0.00000000000E+00 0. -1.
         23    2    1    2    0    0  0.19244002866E+02  0.34509398565E+02 -0.26741913208E+03  0.28564248213E+03  0.92289789033E+02 0.  0.
         24    2    1    2    0    0  0.62736569277E+02 -0.14958312697E+02  0.42728378798E+02  0.11277740711E+03  0.82057302876E+02 0.  0.
        -13    1    4    4    0    0  0.71488338630E+02  0.76388401343E+00  0.55671741043E+02  0.90611858107E+02  0.00000000000E+00 0.  1.
         14    1    4    4    0    0 -0.87517693528E+01 -0.15722196711E+02 -0.12943362245E+02  0.22165548999E+02  0.00000000000E+00 0. -1.
        -13    1    3    3    0    0  0.52577099409E+02  0.35106515770E+00 -0.13422999979E+03  0.14416021460E+03  0.00000000000E+00 0.  1.
         13    1    3    3    0    0 -0.33333096544E+02  0.34158333407E+02 -0.13318913229E+03  0.14148226754E+03  0.00000000000E+00 0. -1.
          3    1    1    2  501    0 -0.81980572143E+02 -0.19551085868E+02  0.26020555591E+01  0.84319807048E+02  0.00000000000E+00 0. -1.
<scales pt_clust_5="13000.00000" pt_clust_6="13000.00000" pt_clust_7="13000.00000" pt_clust_8="13000.00000" pt_clust_9="84.27965"></scales>
<clustering>
<clus scale="   82.057">  5  6 -1 -1</clus>
<clus scale="   84.280">  1  9  2 -1</clus>
<clus scale="   88.883">  1  5  2 -1</clus>
<clus scale="   92.290">  7  8 -1 -1</clus>
<clus scale="   84.280">  1  5  2 -1</clus>
</clustering>
</event>
<event>
 9    2  0.4883225E-005  0.2042200E+03  0.7546771E-02  0.1147799E+00
         21   -1    0    0  501  502  0.00000000000E+00  0.00000000000E+00  0.63888711459E+02  0.63888711459E+02  0.00000000000E+00 0.  1.
          2   -1    0    0  502    0 -0.00000000000E+00 -0.00000000000E+00 -0.96349670956E+03  0.96349670956E+03  0.00000000000E+00 0. -1.
         24    2    1    2    0    0  0.11767269893E+03 -0.15745847159E+03 -0.41478876289E+03  0.46598171450E+03  0.80306949086E+02 0.  0.
         23    2    1    2    0    0 -0.60609474350E+02  0.14735655733E+03 -0.21188912878E+03  0.28238918493E+03  0.97258344093E+02 0.  0.
        -11    1    3    3    0    0  0.12781867903E+03 -0.15372364830E+03 -0.40371923260E+03  0.45050837231E+03  0.00000000000E+00 0.  1.
         12    1    3    3    0    0 -0.10145980103E+02 -0.37348232957E+01 -0.11069530298E+02  0.15473342184E+02  0.00000000000E+00 0. -1.
        -11    1    4    4    0    0 -0.53183972045E+02  0.39296992640E+02 -0.13253787170E+03  0.14811845242E+03  0.00000000000E+00 0.  1.
         11    1    4    4    0    0 -0.74255023048E+01  0.10805956469E+03 -0.79351257084E+02  0.13427073250E+03  0.00000000000E+00 0. -1.
          1    1    1    2  501    0 -0.57063224577E+02  0.10101914260E+02 -0.27293010643E+03  0.27901452160E+03  0.00000000000E+00 0. -1.
<scales pt_clust_5="13000.00000" pt_clust_6="13000.00000" pt_clust_7="13000.00000" pt_clust_8="13000.00000" pt_clust_9="57.95053"></scales>
<clustering>
<clus scale="   57.951">  1  9  2 -1</clus>
<clus scale="   80.307">  5  6 -1 -1</clus>
<clus scale="   97.258">  7  8 -1 -1</clus>
<clus scale="  196.713">  2  5  1 -1</clus>
<clus scale="   57.951">  1  5  2 -1</clus>
</clustering>
</event>
<event>
 9    2  0.4883225E-005  0.5131340E+03  0.7546771E-02  0.1010406E+00
          2   -1    0    0  502    0 -0.00000000000E+00  0.00000000000E+00  0.21922405232E+04  0.21922405232E+04  0.00000000000E+00 0. -1.
         21   -1    0    0  501  502  0.00000000000E+00 -0.00000000000E+00 -0.11996003234E+03  0.11996003234E+03  0.00000000000E+00 0. -1.
         24    2    1    2    0    0 -0.19896916133E+03  0.12300044431E+03  0.43830286783E+03  0.50386609822E+03  0.83986930703E+02 0.  0.
         23    2    1    2    0    0 -0.23434078712E+03  0.64145481326E+02  0.31633090074E+03  0.40870093612E+03  0.89112115542E+02 0.  0.
        -13    1    3    3    0    0 -0.33990292916E+02  0.46854183819E+02  0.17199866876E+03  0.18147781300E+03  0.00000000000E+00 0.  1.
         14    1    3    3    0    0 -0.16497886841E+03  0.76146260492E+02  0.26630419906E+03  0.32238828522E+03  0.00000000000E+00 0. -1.
        -13    1    4    4    0    0 -0.17018538496E+03  0.63706347781E+02  0.16964403177E+03  0.24859738840E+03  0.00000000000E+00 0. -1.
         13    1    4    4    0    0 -0.64155402162E+02  0.43913354426E+00  0.14668686897E+03  0.16010354772E+03  0.00000000000E+00 0.  1.
          1    1    1    2  501    0  0.43330994845E+03 -0.18714592564E+03  0.13176467223E+04  0.13996335212E+04  0.00000000000E+00 0. -1.
<scales pt_clust_5="13000.00000" pt_clust_6="13000.00000" pt_clust_7="13000.00000" pt_clust_8="13000.00000" pt_clust_9="471.99717"></scales>
<clustering>
<clus scale="   83.987">  5  6 -1 -1</clus>
<clus scale="   89.112">  7  8 -1 -1</clus>
<clus scale="  134.463">  5  7 -1 -1</clus>
<clus scale="  471.997">  2  9  1 -1</clus>
<clus scale="  471.997">  2  5  1 -1</clus>
</clustering>
</event>
<event>
 9    2  0.4883225E-005  0.1876879E+03  0.7546771E-02  0.1182207E+00
         21   -1    0    0  501  502  0.00000000000E+00  0.00000000000E+00  0.47954144483E+03  0.47954144483E+03  0.00000000000E+00 0.  1.
          4   -1    0    0  502    0 -0.00000000000E+00 -0.00000000000E+00 -0.23453954251E+03  0.23453954251E+03  0.00000000000E+00 0. -1.
         23    2    1    2    0    0 -0.49375489671E+02 -0.50251593610E+02  0.24710165314E+03  0.27235479092E+03  0.90303618487E+02 0.  0.
         24    2    1    2    0    0  0.17949960267E+03  0.35769388929E+02  0.14350075219E+03  0.24591627453E+03  0.79892375451E+02 0.  0.
        -11    1    4    4    0    0  0.10495886295E+03  0.56610130544E+02  0.65611127658E+02  0.13610984485E+03  0.00000000000E+00 0.  1.
         12    1    4    4    0    0  0.74540739713E+02 -0.20840741615E+02  0.77889624534E+02  0.10980642968E+03  0.00000000000E+00 0. -1.
        -11    1    3    3    0    0 -0.75844039440E+02 -0.32152705000E+02  0.18264990380E+03  0.20036741780E+03  0.00000000000E+00 0.  1.
         11    1    3    3    0    0  0.26468549769E+02 -0.18098888610E+02  0.64451749339E+02  0.71987373119E+02  0.00000000000E+00 0. -1.
          3    1    1    2  501    0 -0.13012411299E+03  0.14482204681E+02 -0.14560050301E+03  0.19580992189E+03  0.00000000000E+00 0. -1.
<scales pt_clust_5="13000.00000" pt_clust_6="13000.00000" pt_clust_7="13000.00000" pt_clust_8="13000.00000" pt_clust_9="169.83517"></scales>
<clustering>
<clus scale="   79.892">  5  6 -1 -1</clus>
<clus scale="   90.304">  7  8 -1 -1</clus>
<clus scale="  114.533">  2  7  1 -1</clus>
<clus scale="  169.835">  1  9  2 -1</clus>
<clus scale="  169.835">  1  5  2 -1</clus>
</clustering>
</event>
<event>
 9    2  0.4883225E-005  0.9611382E+02  0.7546771E-02  0.1293048E+00
         21   -1    0    0  501  502  0.00000000000E+00  0.00000000000E+00  0.74085905710E+02  0.74085905710E+02  0.00000000000E+00 0. -1.
         -1   -1    0    0    0  501 -0.00000000000E+00 -0.00000000000E+00 -0.31843548874E+03  0.31843548874E+03  0.00000000000E+00 0.  1.
         24    2    1    2    0    0  0.94090682525E+01  0.47414868812E+02 -0.15179418976E+03  0.17847624849E+03  0.80471081021E+02 0.  0.
         23    2    1    2    0    0 -0.28177418105E+01  0.92726616189E+01  0.16713209657E+02  0.90770861228E+02  0.88691013911E+02 0.  0.
        -13    1    3    3    0    0 -0.28888438821E+02  0.35949171943E+02 -0.11594240958E+03  0.12477791151E+03  0.00000000000E+00 0.  1.
         14    1    3    3    0    0  0.38297507074E+02  0.11465696869E+02 -0.35851780183E+02  0.53698336986E+02  0.00000000000E+00 0. -1.
        -11    1    4    4    0    0 -0.44318007176E+02 -0.16064744091E+01  0.17970709203E+02  0.47849899784E+02  0.00000000000E+00 0. -1.
         11    1    4    4    0    0  0.41500265365E+02  0.10879136028E+02 -0.12574995466E+01  0.42920961443E+02  0.00000000000E+00 0.  1.
         -2    1    1    2    0  502 -0.65913264420E+01 -0.56687530431E+02 -0.10926860292E+03  0.12327428473E+03  0.00000000000E+00 0.  1.
<scales pt_clust_5="13000.00000" pt_clust_6="13000.00000" pt_clust_7="13000.00000" pt_clust_8="13000.00000" pt_clust_9="57.06947"></scales>
<clustering>
<clus scale="   57.069">  1  9  2 -1</clus>
<clus scale="   80.471">  5  6 -1 -1</clus>
<clus scale="   88.585">  2  5  1 -1</clus>
<clus scale="   88.691">  7  8 -1 -1</clus>
<clus scale="   57.069">  1  5  2 -1</clus>
</clustering>
</event>
<event>
 9    2  0.4883225E-005  0.1367883E+03  0.7546771E-02  0.1221588E+00
         21   -1    0    0  501  502  0.00000000000E+00  0.00000000000E+00  0.15216345515E+03  0.15216345515E+03  0.00000000000E+00 0.  1.
          2   -1    0    0  502    0 -0.00000000000E+00 -0.00000000000E+00 -0.34721444542E+03  0.34721444542E+03  0.00000000000E+00 0. -1.
         24    2    1    2    0    0  0.48604335760E+02  0.68021055159E+02 -0.22435731863E+03  0.26182729923E+03  0.10596264812E+03 0.  0.
         23    2    1    2    0    0 -0.31133172253E+02 -0.10686058601E+03  0.85007275665E+02  0.16743393969E+03  0.91757441051E+02 0.  0.
        -13    1    3    3    0    0  0.46449357986E+02  0.47215336585E+01 -0.25650918605E+02  0.53271055580E+02  0.00000000000E+00 0.  1.
         14    1    3    3    0    0  0.21549777739E+01  0.63299521500E+02 -0.19870640003E+03  0.20855624365E+03  0.00000000000E+00 0. -1.
        -13    1    4    4    0    0 -0.41081890421E+01 -0.40090901114E+02 -0.16010686578E+02  0.43364728225E+02  0.00000000000E+00 0. -1.
         13    1    4    4    0    0 -0.27024983211E+02 -0.66769684899E+02  0.10101796224E+03  0.12406921147E+03  0.00000000000E+00 0.  1.
          1    1    1    2  501    0 -0.17471163507E+02  0.38839530854E+02 -0.55700947299E+02  0.70116661652E+02  0.00000000000E+00 0. -1.
<scales pt_clust_5="13000.00000" pt_clust_6="13000.00000" pt_clust_7="13000.00000" pt_clust_8="13000.00000" pt_clust_9="42.58817"></scales>
<clustering>
<clus scale="   42.588">  1  9  2 -1</clus>
<clus scale="   91.757">  7  8 -1 -1</clus>
<clus scale="  105.963">  5  6 -1 -1</clus>
<clus scale="  126.105">  1  7  2 -1</clus>
<clus scale="   42.588">  1  5  2 -1</clus>
</clustering>
</event>
<event>
 9    2  0.4883225E-005  0.1066288E+03  0.7546771E-02  0.1271285E+00
          2   -1    0    0  502    0 -0.00000000000E+00  0.00000000000E+00  0.47719395122E+03  0.47719395122E+03  0.00000000000E+00 0. -1.
         21   -1    0    0  501  502  0.00000000000E+00 -0.00000000000E+00 -0.71579373021E+02  0.71579373021E+02  0.00000000000E+00 0.  1.
         23    2    1    2    0    0 -0.15415214263E+02  0.54227390619E+02  0.39748105130E+03  0.41178361166E+03  0.91631424571E+02 0.  0.
         24    2    1    2    0    0  0.30547293594E+02 -0.31625899570E+02 -0.23261329025E+02  0.95451246055E+02  0.81464816184E+02 0.  0.
        -11    1    4    4    0    0 -0.31187904769E+00 -0.44654856718E+02 -0.38208144927E+02  0.58770875745E+02  0.00000000000E+00 0.  1.
         12    1    4    4    0    0  0.30859172642E+02  0.13028957148E+02  0.14946815902E+02  0.36680370310E+02  0.00000000000E+00 0. -1.
        -11    1    3    3    0    0 -0.29401351735E+02  0.75661456982E+02  0.27892965729E+03  0.29050103145E+03  0.00000000000E+00 0. -1.
         11    1    3    3    0    0  0.13986137472E+02 -0.21434066363E+02  0.11855139401E+03  0.12128258021E+03  0.00000000000E+00 0.  1.
          1    1    1    2  501    0 -0.15132079331E+02 -0.22601491048E+02  0.31394855926E+02  0.41538466524E+02  0.00000000000E+00 0. -1.
<scales pt_clust_5="13000.00000" pt_clust_6="13000.00000" pt_clust_7="13000.00000" pt_clust_8="13000.00000" pt_clust_9="27.19941"></scales>
<clustering>
<clus scale="   27.199">  2  9  1 -1</clus>
<clus scale="   81.465">  5  6 -1 -1</clus>
<clus scale="   91.631">  7  8 -1 -1</clus>
<clus scale="   98.030">  2  5  1 -1</clus>
<clus scale="   27.199">  2  5  1 -1</clus>
</clustering>
</event>
<event>
 9    2  0.4883225E-005  0.1128142E+03  0.7546771E-02  0.1267242E+00
         21   -1    0    0  501  502  0.00000000000E+00  0.00000000000E+00  0.35586095850E+02  0.35586095850E+02  0.00000000000E+00 0. -1.
         -3   -1    0    0    0  501 -0.00000000000E+00 -0.00000000000E+00 -0.63161765886E+03  0.63161765886E+03  0.00000000000E+00 0.  1.
         23    2    1    2    0    0  0.36018943212E+01  0.35766324761E+02 -0.25661655768E+03  0.28002009174E+03  0.10614608081E+03 0.  0.
         24    2    1    2    0    0  0.70348384039E+02 -0.10546538229E+02 -0.18400173253E+03  0.21323549062E+03  0.80948207392E+02 0.  0.
        -13    1    4    4    0    0  0.87850528801E+01 -0.37220032022E+02 -0.89600331421E+02  0.97420364034E+02  0.00000000000E+00 0.  1.
         14    1    4    4    0    0  0.61563331159E+02  0.26673493793E+02 -0.94401401111E+02  0.11581512659E+03  0.00000000000E+00 0. -1.
        -11    1    3    3    0    0 -0.37493703007E+02  0.44556865462E+02 -0.20681151350E+03  0.21485365750E+03  0.00000000000E+00 0.  1.
         11    1    3    3    0    0  0.41095597329E+02 -0.87905407010E+01 -0.49805044181E+02  0.65166434240E+02  0.00000000000E+00 0. -1.
         -4    1    1    2    0  502 -0.73950278361E+02 -0.25219786532E+02 -0.15541327279E+03  0.17394817235E+03  0.00000000000E+00 0.  1.
<scales pt_clust_5="13000.00000" pt_clust_6="13000.00000" pt_clust_7="13000.00000" pt_clust_8="13000.00000" pt_clust_9="78.13250"></scales>
<clustering>
<clus scale="   78.132">  1  9  2 -1</clus>
<clus scale="   80.948">  5  6 -1 -1</clus>
<clus scale="   89.513">  1  5  2 -1</clus>
<clus scale="  106.146">  7  8 -1 -1</clus>
<clus scale="   78.132">  1  5  2 -1</clus>
</clustering>
</event>
<event>
 9    2  0.4883225E-005  0.2556118E+03  0.7546771E-02  0.1121524E+00
          2   -1    0    0  502    0 -0.00000000000E+00  0.00000000000E+00  0.14436698063E+04  0.14436698063E+04  0.00000000000E+00 0. -1.
         21   -1    0    0  501  502  0.00000000000E+00 -0.00000000000E+00 -0.12344490325E+03  0.12344490325E+03  0.00000000000E+00 0. -1.
         23    2    1    2    0    0  0.14656180048E+03 -0.61078120273E+02  0.30157052668E+03  0.35656666859E+03  0.10480509744E+03 0.  0.
         24    2    1    2    0    0 -0.51981120863E+02  0.25312531109E+03  0.13792756859E+03  0.30417762088E+03  0.82009455723E+02 0.  0.
        -13    1    4    4    0    0  0.93354840797E+01  0.15554728979E+03  0.81790109161E+02  0.17598787623E+03  0.00000000000E+00 0.  1.
         14    1    4    4    0    0 -0.61316604943E+02  0.97578021301E+02  0.56137459429E+02  0.12818974465E+03  0.00000000000E+00 0. -1.
        -13    1    3    3    0    0  0.14134059261E+03 -0.18333235761E+02  0.19424273427E+03  0.24092220833E+03  0.00000000000E+00 0. -1.
         13    1    3    3    0    0  0.52212078727E+01 -0.42744884512E+02  0.10732779241E+03  0.11564446025E+03  0.00000000000E+00 0.  1.
          1    1    1    2  501    0 -0.94580679618E+02 -0.19204719081E+03  0.88072680774E+03  0.90637042004E+03  0.00000000000E+00 0. -1.
<scales pt_clust_5="13000.00000" pt_clust_6="13000.00000" pt_clust_7="13000.00000" pt_clust_8="13000.00000" pt_clust_9="242.09900"></scales>
<clustering>
<clus scale="   82.009">  5  6 -1 -1</clus>
<clus scale="  104.805">  7  8 -1 -1</clus>
<clus scale="  190.250">  1  7  2 -1</clus>
<clus scale="  242.099">  2  9  1 -1</clus>
<clus scale="  242.099">  2  5  1 -1</clus>
</clustering>
</event>
<event>
 9    2  0.4883225E-005  0.1655064E+03  0.7546771E-02  0.1183806E+00
          2   -1    0    0  502    0 -0.00000000000E+00  0.00000000000E+00  0.18400484588E+03  0.18400484588E+03  0.00000000000E+00 0. -1.
         21   -1    0    0  501  502  0.00000000000E+00 -0.00000000000E+00 -0.19361393018E+03  0.19361393018E+03  0.00000000000E+00 0. -1.
         24    2    1    2    0    0  0.12989495793E+03 -0.79201601930E+02  0.35544253858E+02  0.17648501783E+03  0.82085161208E+02 0.  0.
         23    2    1    2    0    0 -0.11644572448E+03  0.37456419603E+02 -0.37607429762E+02  0.15663114189E+03  0.90312821454E+02 0.  0.
        -11    1    3    3    0    0  0.87788237352E+02 -0.93287330997E+02  0.31404594252E+02  0.13189218810E+03  0.00000000000E+00 0.  1.
         12    1    3    3    0    0  0.42106720579E+02  0.14085729066E+02  0.41396596055E+01  0.44592829725E+02  0.00000000000E+00 0. -1.
        -11    1    4    4    0    0 -0.25697068701E+02  0.50815370514E+02 -0.30581825192E+02  0.64635820196E+02  0.00000000000E+00 0.  1.
         11    1    4    4    0    0 -0.90748655776E+02 -0.13358950912E+02 -0.70256045696E+01  0.91995321697E+02  0.00000000000E+00 0. -1.
          1    1    1    2  501    0 -0.13449233453E+02  0.41745182328E+02 -0.75459083975E+01  0.44502616345E+02  0.00000000000E+00 0. -1.
<scales pt_clust_5="13000.00000" pt_clust_6="13000.00000" pt_clust_7="13000.00000" pt_clust_8="13000.00000" pt_clust_9="43.85820"></scales>
<clustering>
<clus scale="   43.858">  2  9  1 -1</clus>
<clus scale="   82.085">  5  6 -1 -1</clus>
<clus scale="   90.313">  7  8 -1 -1</clus>
<clus scale="  161.164">  1  5  2 -1</clus>
<clus scale="   43.858">  2  5  1 -1</clus>
</clustering>
</event>
<event>
 9    2  0.4883225E-005  0.1013820E+03  0.7546771E-02  0.1278533E+00
         21   -1    0    0  501  502  0.00000000000E+00  0.00000000000E+00  0.84643851598E+02  0.84643851598E+02  0.00000000000E+00 0. -1.
          2   -1    0    0  502    0 -0.00000000000E+00 -0.00000000000E+00 -0.35596649674E+03  0.35596649674E+03  0.00000000000E+00 0. -1.
         24    2    1    2    0    0 -0.14194675332E+02 -0.32861982778E+02 -0.28486779528E+03  0.30288353808E+03  0.96474753861E+02 0.  0.
         23    2    1    2    0    0 -0.13219256809E+02  0.14513571554E+02 -0.10622735766E+02  0.96833356276E+02  0.94225600888E+02 0.  0.
        -11    1    3    3    0    0 -0.35086786851E+02  0.11352923406E+01 -0.34030768847E+02  0.48892379043E+02  0.00000000000E+00 0.  1.
         12    1    3    3    0    0  0.20892111518E+02 -0.33997275119E+02 -0.25083702643E+03  0.25399115903E+03  0.00000000000E+00 0. -1.
        -11    1    4    4    0    0  0.16553083721E+01  0.47566603889E+02  0.17756002530E+02  0.50799581467E+02  0.00000000000E+00 0.  1.
         11    1    4    4    0    0 -0.14874565182E+02 -0.33053032336E+02 -0.28378738296E+02  0.46033774809E+02  0.00000000000E+00 0. -1.
          1    1    1    2  501    0  0.27413932142E+02  0.18348411225E+02  0.24167885900E+02  0.40893453985E+02  0.00000000000E+00 0. -1.
<scales pt_clust_5="13000.00000" pt_clust_6="13000.00000" pt_clust_7="13000.00000" pt_clust_8="13000.00000" pt_clust_9="32.98769"></scales>
<clustering>
<clus scale="   32.988">  1  9  2 -1</clus>
<clus scale="   94.226">  7  8 -1 -1</clus>
<clus scale="   96.475">  5  6 -1 -1</clus>
<clus scale="   99.244">  1  7  2 -1</clus>
<clus scale="   32.988">  1  5  2 -1</clus>
</clustering>
</event>
<event>
 9    2  0.4883225E-005  0.9603027E+02  0.7546771E-02  0.1294890E+00
         -1   -1    0    0    0  501 -0.00000000000E+00  0.00000000000E+00  0.69149533674E+02  0.69149533674E+02  0.00000000000E+00 0.  1.
         21   -1    0    0  501  502  0.00000000000E+00 -0.00000000000E+00 -0.18843050867E+03  0.18843050867E+03  0.00000000000E+00 0. -1.
         23    2    1    2    0    0 -0.36150478710E+02 -0.27323637659E+02 -0.29567962865E+02  0.10423703694E+03  0.89093530385E+02 0.  0.
         24    2    1    2    0    0  0.16314242755E+02  0.11463360161E+02 -0.97823051652E+02  0.12668222146E+03  0.77983797401E+02 0.  0.
        -11    1    4    4    0    0  0.37571154136E+02 -0.76190418660E+01 -0.18885992386E+02  0.42735490292E+02  0.00000000000E+00 0.  1.
         12    1    4    4    0    0 -0.21256911381E+02  0.19082402027E+02 -0.78937059265E+02  0.83946731169E+02  0.00000000000E+00 0. -1.
        -11    1    3    3    0    0  0.64351767770E+01 -0.49722454725E+02 -0.24650784250E+02  0.55869447538E+02  0.00000000000E+00 0. -1.
         11    1    3    3    0    0 -0.42585655487E+02  0.22398817066E+02 -0.49171786148E+01  0.48367589404E+02  0.00000000000E+00 0.  1.
         -2    1    1    2    0  502  0.19836235955E+02  0.15860277498E+02  0.81100395237E+01  0.26660783939E+02  0.00000000000E+00 0.  1.
<scales pt_clust_5="13000.00000" pt_clust_6="13000.00000" pt_clust_7="13000.00000" pt_clust_8="13000.00000" pt_clust_9="25.39735"></scales>
<clustering>
<clus scale="   25.397">  2  9  1 -1</clus>
<clus scale="   77.984">  5  6 -1 -1</clus>
<clus scale="   85.823">  2  5  1 -1</clus>
<clus scale="   89.094">  7  8 -1 -1</clus>
<clus scale="   25.397">  2  5  1 -1</clus>
</clustering>
</event>
<event>
 9    2  0.4883225E-005  0.1041851E+03  0.7546771E-02  0.1277606E+00
         21   -1    0    0  501  502  0.00000000000E+00  0.00000000000E+00  0.26937260031E+03  0.26937260031E+03  0.00000000000E+00 0.  1.
          4   -1    0    0  502    0 -0.00000000000E+00 -0.00000000000E+00 -0.64480577276E+02  0.64480577276E+02  0.00000000000E+00 0. -1.
         24    2    1    2    0    0 -0.49677652665E+02 -0.56199713687E+01  0.52796110487E+01  0.94564398633E+02  0.80094306561E+02 0.  0.
         23    2    1    2    0    0  0.34099353290E+02  0.29622891260E+02  0.15115793555E+03  0.18301569603E+03  0.92767138220E+02 0.  0.
        -13    1    3    3    0    0  0.20527798119E+02 -0.12078160835E+02 -0.53181488773E+00  0.23823418979E+02  0.00000000000E+00 0.  1.
         14    1    3    3    0    0 -0.70205450784E+02  0.64581894662E+01  0.58114259364E+01  0.70740979654E+02  0.00000000000E+00 0. -1.
        -11    1    4    4    0    0 -0.91388873717E+01  0.36815873546E+02  0.12787613606E+03  0.13338378455E+03  0.00000000000E+00 0.  1.
         11    1    4    4    0    0  0.43238240661E+02 -0.71929822859E+01  0.23281799482E+02  0.49631911476E+02  0.00000000000E+00 0. -1.
          3    1    1    2  501    0  0.15578299375E+02 -0.24002919892E+02  0.48454476444E+02  0.56273082928E+02  0.00000000000E+00 0. -1.
<scales pt_clust_5="13000.00000" pt_clust_6="13000.00000" pt_clust_7="13000.00000" pt_clust_8="13000.00000" pt_clust_9="28.61509"></scales>
<clustering>
<clus scale="   28.615">  1  9  2 -1</clus>
<clus scale="   80.094">  5  6 -1 -1</clus>
<clus scale="   92.767">  7  8 -1 -1</clus>
<clus scale="   93.080">  2  5  1 -1</clus>
<clus scale="   28.615">  1  5  2 -1</clus>
</clustering>
</event>
<event>
 9    2  0.4883225E-005  0.1049212E+03  0.7546771E-02  0.1275695E+00
         21   -1    0    0  501  502  0.00000000000E+00  0.00000000000E+00  0.30560928214E+03  0.30560928214E+03  0.00000000000E+00 0. -1.
         -3   -1    0    0    0  501 -0.00000000000E+00 -0.00000000000E+00 -0.72277297580E+02  0.72277297580E+02  0.00000000000E+00 0.  1.
         23    2    1    2    0    0 -0.17362599231E+02  0.43855388383E+02 -0.70360238304E+01  0.10447594120E+03  0.92956773369E+02 0.  0.
         24    2    1    2    0    0  0.46049006659E+02 -0.38595849284E+02  0.17925463840E+03  0.20569493345E+03  0.81043381356E+02 0.  0.
        -13    1    4    4    0    0 -0.47314446281E+01  0.21586364361E+02  0.41855913320E+02  0.47331545236E+02  0.00000000000E+00 0.  1.
         14    1    4    4    0    0  0.50780451287E+02 -0.60182213644E+02  0.13739872508E+03  0.15836338821E+03  0.00000000000E+00 0. -1.
        -11    1    3    3    0    0  0.83503721704E+01 -0.18225460235E+02  0.23311093362E+02  0.30745783287E+02  0.00000000000E+00 0. -1.
         11    1    3    3    0    0 -0.25712971402E+02  0.62080848618E+02 -0.30347117193E+02  0.73730157909E+02  0.00000000000E+00 0.  1.
         -4    1    1    2    0  502 -0.28686407428E+02 -0.52595390988E+01  0.61113369994E+02  0.67715705081E+02  0.00000000000E+00 0.  1.
<scales pt_clust_5="13000.00000" pt_clust_6="13000.00000" pt_clust_7="13000.00000" pt_clust_8="13000.00000" pt_clust_9="29.16458"></scales>
<clustering>
<clus scale="   29.165">  1  9  2 -1</clus>
<clus scale="   81.043">  5  6 -1 -1</clus>
<clus scale="   92.957">  7  8 -1 -1</clus>
<clus scale="   94.528">  1  5  2 -1</clus>
<clus scale="   29.165">  1  5  2 -1</clus>
</clustering>
</event>
<event>
 9    2  0.4883225E-005  0.1073357E+03  0.7546771E-02  0.1274813E+00
         21   -1    0    0  501  502  0.00000000000E+00  0.00000000000E+00  0.38440842159E+03  0.38440842159E+03  0.00000000000E+00 0.  1.
         -1   -1    0    0    0  501 -0.00000000000E+00 -0.00000000000E+00 -0.35281369048E+03  0.35281369048E+03  0.00000000000E+00 0.  1.
         24    2    1    2    0    0  0.10244253797E+02  0.39619266374E+02 -0.21019029148E+03  0.22865863136E+03  0.80188403541E+02 0.  0.
         23    2    1    2    0    0 -0.22958087263E+02 -0.14464681256E+02  0.36649241756E+03  0.38071071743E+03  0.99436700794E+02 0.  0.
        -11    1    3    3    0    0 -0.12090139855E+01  0.52388647934E+02 -0.20367744153E+03  0.21031056164E+03  0.00000000000E+00 0.  1.
         12    1    3    3    0    0  0.11453267782E+02 -0.12769381560E+02 -0.65128499449E+01  0.18348069727E+02  0.00000000000E+00 0. -1.
        -13    1    4    4    0    0 -0.85477039328E+00  0.33191660052E+02  0.50873000499E+02  0.60749313653E+02  0.00000000000E+00 0. -1.
         13    1    4    4    0    0 -0.22103316870E+02 -0.47656341308E+02  0.31561941706E+03  0.31996140378E+03  0.00000000000E+00 0.  1.
         -2    1    1    2    0  502  0.12713833467E+02 -0.25154585117E+02 -0.12470739498E+03  0.12785276327E+03  0.00000000000E+00 0.  1.
<scales pt_clust_5="13000.00000" pt_clust_6="13000.00000" pt_clust_7="13000.00000" pt_clust_8="13000.00000" pt_clust_9="28.18502"></scales>
<clustering>
<clus scale="   28.185">  1  9  2 -1</clus>
<clus scale="   80.188">  5  6 -1 -1</clus>
<clus scale="   89.797">  2  5  1 -1</clus>
<clus scale="   99.437">  7  8 -1 -1</clus>
<clus scale="   28.185">  1  5  2 -1</clus>
</clustering>
</event>
<event>
 9    2  0.4883225E-005  0.1031829E+03  0.7546771E-02  0.1278870E+00
         21   -1    0    0  501  502  0.00000000000E+00  0.00000000000E+00  0.24193015763E+03  0.24193015763E+03  0.00000000000E+00 0.  1.
          2   -1    0    0  502    0 -0.00000000000E+00 -0.00000000000E+00 -0.21242999829E+03  0.21242999829E+03  0.00000000000E+00 0. -1.
         24    2    1    2    0    0  0.41659918619E+02 -0.34703097176E+01 -0.17937538679E+03  0.20245904692E+03  0.84062740994E+02 0.  0.
         23    2    1    2    0    0 -0.30304093353E+02  0.21508492531E+02  0.10625551260E+03  0.14709079421E+03  0.94681119859E+02 0.  0.
        -11    1    3    3    0    0  0.15613202107E+02 -0.24135870583E+02 -0.10913936158E+02  0.30747785795E+02  0.00000000000E+00 0.  1.
         12    1    3    3    0    0  0.26046716512E+02  0.20665560865E+02 -0.16846145063E+03  0.17171126112E+03  0.00000000000E+00 0. -1.
        -11    1    4    4    0    0 -0.59421995791E+02  0.94598126703E+01  0.97176546375E+02  0.11429673138E+03  0.00000000000E+00 0.  1.
         11    1    4    4    0    0  0.29117902437E+02  0.12048679861E+02  0.90789662223E+01  0.32794062822E+02  0.00000000000E+00 0. -1.
          1    1    1    2  501    0 -0.11355825265E+02 -0.18038182814E+02  0.10262003353E+03  0.10481031480E+03  0.00000000000E+00 0. -1.
<scales pt_clust_5="13000.00000" pt_clust_6="13000.00000" pt_clust_7="13000.00000" pt_clust_8="13000.00000" pt_clust_9="21.31504"></scales>
<clustering>
<clus scale="   21.315">  1  9  2 -1</clus>
<clus scale="   84.063">  5  6 -1 -1</clus>
<clus scale="   93.535">  2  5  1 -1</clus>
<clus scale="   94.681">  7  8 -1 -1</clus>
<clus scale="   21.315">  1  5  2 -1</clus>
</clustering>
</event>
<event>
 9    2  0.4883225E-005  0.1795412E+03  0.7546771E-02  0.1169393E+00
          2   -1    0    0  502    0 -0.00000000000E+00  0.00000000000E+00  0.99739672144E+03  0.99739672144E+03  0.00000000000E+00 0. -1.
         21   -1    0    0  501  502  0.00000000000E+00 -0.00000000000E+00 -0.76586945982E+02  0.76586945982E+02  0.00000000000E+00 0.  1.
         24    2    1    2    0    0 -0.16922806664E+03 -0.29431243520E+02  0.79705538524E+03  0.81937212580E+03  0.81049717841E+02 0.  0.
         23    2    1    2    0    0  0.80423400592E+02  0.37322536807E+02  0.41804530091E+02  0.13351521304E+03  0.90652072566E+02 0.  0.
        -11    1    3    3    0    0 -0.97893269281E+02  0.84556089047E+01  0.29689870343E+03  0.31273539868E+03  0.00000000000E+00 0.  1.
         12    1    3    3    0    0 -0.71334797357E+02 -0.37886852424E+02  0.50015668181E+03  0.50663672711E+03  0.00000000000E+00 0. -1.
        -11    1    4    4    0    0  0.17142084117E+02  0.53326804500E+02  0.22561199720E-01  0.56014280635E+02  0.00000000000E+00 0.  1.
         11    1    4    4    0    0  0.63281316475E+02 -0.16004267693E+02  0.41781968891E+02  0.77500932405E+02  0.00000000000E+00 0. -1.
          1    1    1    2  501    0  0.88804666047E+02 -0.78912932878E+01  0.81949860128E+02  0.12109632858E+03  0.00000000000E+00 0. -1.
<scales pt_clust_5="13000.00000" pt_clust_6="13000.00000" pt_clust_7="13000.00000" pt_clust_8="13000.00000" pt_clust_9="89.15459"></scales>
<clustering>
<clus scale="   81.050">  5  6 -1 -1</clus>
<clus scale="   89.155">  2  9  1 -1</clus>
<clus scale="   90.652">  7  8 -1 -1</clus>
<clus scale="  174.889">  1  5  2 -1</clus>
<clus scale="   89.155">  2  5  1 -1</clus>
</clustering>
</event>
<event>
 9    2  0.4883225E-005  0.1217820E+03  0.7546771E-02  0.1243479E+00
          2   -1    0    0  502    0 -0.00000000000E+00  0.00000000000E+00  0.72158838906E+03  0.72158838906E+03  0.00000000000E+00 0. -1.
         21   -1    0    0  501  502  0.00000000000E+00 -0.00000000000E+00 -0.34564374220E+02  0.34564374220E+02  0.00000000000E+00 0.  1.
         24    2    1    2    0    0 -0.81041468515E+02  0.93312653715E+01  0.52752282883E+03  0.53959401479E+03  0.78908641691E+02 0.  0.
         23    2    1    2    0    0  0.81054769753E+02 -0.30876679100E+02  0.13442658864E+03  0.18349909842E+03  0.89878620222E+02 0.  0.
        -13    1    3    3    0    0 -0.71954724772E+02  0.21109802215E+02  0.23458635120E+03  0.24628004859E+03  0.00000000000E+00 0.  1.
         14    1    3    3    0    0 -0.90867437437E+01 -0.11778536843E+02  0.29293647763E+03  0.29331396620E+03  0.00000000000E+00 0. -1.
        -13    1    4    4    0    0  0.80506366469E+02 -0.11585050025E+01  0.13074651751E+03  0.15354891409E+03  0.00000000000E+00 0. -1.
         13    1    4    4    0    0  0.54840328418E+00 -0.29718174098E+02  0.36800711335E+01  0.29950184330E+02  0.00000000000E+00 0.  1.
          1    1    1    2  501    0 -0.13301237716E-01  0.21545413729E+02  0.25074597373E+02  0.33059650075E+02  0.00000000000E+00 0. -1.
<scales pt_clust_5="13000.00000" pt_clust_6="13000.00000" pt_clust_7="13000.00000" pt_clust_8="13000.00000" pt_clust_9="21.54542"></scales>
<clustering>
<clus scale="   21.545">  2  9  1 -1</clus>
<clus scale="   78.909">  5  6 -1 -1</clus>
<clus scale="   89.879">  7  8 -1 -1</clus>
<clus scale="  113.927">  1  5  2 -1</clus>
<clus scale="   21.545">  2  5  1 -1</clus>
</clustering>
</event>
<event>
 9    2  0.4883225E-005  0.9472754E+02  0.7546771E-02  0.1293308E+00
          4   -1    0    0  502    0 -0.00000000000E+00  0.00000000000E+00  0.32445581769E+03  0.32445581769E+03  0.00000000000E+00 0. -1.
         21   -1    0    0  501  502  0.00000000000E+00 -0.00000000000E+00 -0.86970825056E+02  0.86970825056E+02  0.00000000000E+00 0. -1.
         23    2    1    2    0    0 -0.46774491266E+02  0.13875116081E+02  0.98735623570E+02  0.14325828447E+03  0.91617906694E+02 0.  0.
         24    2    1    2    0    0 -0.45262479012E+02 -0.16842869185E+02 -0.88863966781E+01  0.94168557181E+02  0.80351570407E+02 0.  0.
        -13    1    4    4    0    0 -0.35352235558E+02  0.27007047657E+02 -0.18525713813E+02  0.48190904270E+02  0.00000000000E+00 0.  1.
         14    1    4    4    0    0 -0.99102434537E+01 -0.43849916842E+02  0.96393171351E+01  0.45977652910E+02  0.00000000000E+00 0. -1.
        -13    1    3    3    0    0 -0.67574681393E+02  0.33213083483E+02  0.68811913795E+02  0.10200257820E+03  0.00000000000E+00 0. -1.
         13    1    3    3    0    0  0.20800190128E+02 -0.19337967402E+02  0.29923709775E+02  0.41255706263E+02  0.00000000000E+00 0.  1.
          3    1    1    2  501    0  0.92036970278E+02  0.29677531037E+01  0.14763576574E+03  0.17399980110E+03  0.00000000000E+00 0. -1.
<scales pt_clust_5="13000.00000" pt_clust_6="13000.00000" pt_clust_7="13000.00000" pt_clust_8="13000.00000" pt_clust_9="92.08485"></scales>
<clustering>
<clus scale="   80.352">  5  6 -1 -1</clus>
<clus scale="   91.618">  7  8 -1 -1</clus>
<clus scale="   92.085">  2  9  1 -1</clus>
<clus scale="   92.085">  2  5  1 -1</clus>
<clus scale="   92.085">  2  5  1 -1</clus>
</clustering>
</event>
<event>
 9    2  0.4883225E-005  0.1068511E+03  0.7546771E-02  0.1270440E+00
         21   -1    0    0  501  502  0.00000000000E+00  0.00000000000E+00  0.21193994959E+02  0.21193994959E+02  0.00000000000E+00 0. -1.
          2   -1    0    0  502    0 -0.00000000000E+00 -0.00000000000E+00 -0.70927837935E+03  0.70927837935E+03  0.00000000000E+00 0. -1.
         23    2    1    2    0    0 -0.47231393624E+02  0.30896263232E+02 -0.28196719807E+03  0.30187839632E+03  0.91867740556E+02 0.  0.
         24    2    1    2    0    0  0.56620937873E+02 -0.26352505555E+01 -0.24416600111E+03  0.26392754312E+03  0.82630725336E+02 0.  0.
        -13    1    4    4    0    0  0.43366924782E+01 -0.35924704075E+02 -0.65721073200E+02  0.75024334233E+02  0.00000000000E+00 0.  1.
         14    1    4    4    0    0  0.52284245394E+02  0.33289453519E+02 -0.17844492791E+03  0.18890320889E+03  0.00000000000E+00 0. -1.
        -13    1    3    3    0    0 -0.22287730763E+02  0.62586850736E+02 -0.19520593713E+03  0.20620187855E+03  0.00000000000E+00 0. -1.
         13    1    3    3    0    0 -0.24943662861E+02 -0.31690587504E+02 -0.86761260939E+02  0.95676517772E+02  0.00000000000E+00 0.  1.
          1    1    1    2  501    0 -0.93895442488E+01 -0.28261012677E+02 -0.16195118522E+03  0.16466643487E+03  0.00000000000E+00 0. -1.
<scales pt_clust_5="13000.00000" pt_clust_6="13000.00000" pt_clust_7="13000.00000" pt_clust_8="13000.00000" pt_clust_9="29.78001"></scales>
<clustering>
<clus scale="   29.780">  1  9  2 -1</clus>
<clus scale="   82.631">  5  6 -1 -1</clus>
<clus scale="   91.868">  7  8 -1 -1</clus>
<clus scale="   99.022">  1  5  2 -1</clus>
<clus scale="   29.780">  1  5  2 -1</clus>
</clustering>
</event>
<event>
 9    2  0.4883225E-005  0.9340954E+02  0.7546771E-02  0.1300526E+00
         21   -1    0    0  501  502  0.00000000000E+00  0.00000000000E+00  0.26831233655E+03  0.26831233655E+03  0.00000000000E+00 0.  1.
          4   -1    0    0  502    0 -0.00000000000E+00 -0.00000000000E+00 -0.41791930039E+02  0.41791930039E+02  0.00000000000E+00 0. -1.
         24    2    1    2    0    0  0.10285451165E+02  0.14923481609E+02  0.68630495511E+02  0.10767928816E+03  0.80970262286E+02 0.  0.
         23    2    1    2    0    0  0.24933542052E+01 -0.34129520956E+02  0.14890284108E+03  0.17766740909E+03  0.90678614651E+02 0.  0.
        -13    1    3    3    0    0 -0.29681915871E+02 -0.11615861290E+02  0.42262253359E+02  0.52934321780E+02  0.00000000000E+00 0.  1.
         14    1    3    3    0    0  0.39967367036E+02  0.26539342899E+02  0.26368242151E+02  0.54744966376E+02  0.00000000000E+00 0. -1.
        -13    1    4    4    0    0  0.17467634841E+02 -0.20074824840E+02  0.15418308535E+03  0.15646258552E+03  0.00000000000E+00 0.  1.
         13    1    4    4    0    0 -0.14974280636E+02 -0.14054696116E+02 -0.52802442627E+01  0.21204823577E+02  0.00000000000E+00 0. -1.
          3    1    1    2  501    0 -0.12778805370E+02  0.19206039347E+02  0.89870699200E+01  0.24757569344E+02  0.00000000000E+00 0. -1.
<scales pt_clust_5="13000.00000" pt_clust_6="13000.00000" pt_clust_7="13000.00000" pt_clust_8="13000.00000" pt_clust_9="23.06882"></scales>
<clustering>
<clus scale="   23.069">  1  9  2 -1</clus>
<clus scale="   80.970">  5  6 -1 -1</clus>
<clus scale="   84.017">  2  5  1 -1</clus>
<clus scale="   90.679">  7  8 -1 -1</clus>
<clus scale="   23.069">  1  5  2 -1</clus>
</clustering>
</event>
<event>
 9    2  0.4883225E-005  0.9437778E+02  0.7546771E-02  0.1298276E+00
         21   -1    0    0  501  502  0.00000000000E+00  0.00000000000E+00  0.10061634252E+03  0.10061634252E+03  0.00000000000E+00 0.  1.
          2   -1    0    0  502    0 -0.00000000000E+00 -0.00000000000E+00 -0.19091062826E+03  0.19091062826E+03  0.00000000000E+00 0. -1.
         24    2    1    2    0    0 -0.57394864633E+01  0.37857087439E+02 -0.89851804145E+02  0.12657916931E+03  0.80516076786E+02 0.  0.
         23    2    1    2    0    0 -0.31663387020E+01  0.14946067653E+02  0.37734600443E+02  0.99183247922E+02  0.90443385379E+02 0.  0.
        -13    1    3    3    0    0 -0.36519334475E+02 -0.39370099184E+01 -0.44054953458E+02  0.57358528239E+02  0.00000000000E+00 0.  1.
         14    1    3    3    0    0  0.30779848011E+02  0.41794097357E+02 -0.45796850687E+02  0.69220641071E+02  0.00000000000E+00 0. -1.
        -13    1    4    4    0    0 -0.27873870064E+02  0.21466327907E+02  0.57136080643E+02  0.67099087754E+02  0.00000000000E+00 0.  1.
         13    1    4    4    0    0  0.24707531362E+02 -0.65202602539E+01 -0.19401480200E+02  0.32084160169E+02  0.00000000000E+00 0. -1.
          1    1    1    2  501    0  0.89058251653E+01 -0.52803155092E+02 -0.38177082045E+02  0.65764553545E+02  0.00000000000E+00 0. -1.
<scales pt_clust_5="13000.00000" pt_clust_6="13000.00000" pt_clust_7="13000.00000" pt_clust_8="13000.00000" pt_clust_9="53.54895"></scales>
<clustering>
<clus scale="   53.549">  1  9  2 -1</clus>
<clus scale="   80.516">  5  6 -1 -1</clus>
<clus scale="   84.912">  2  5  1 -1</clus>
<clus scale="   90.443">  7  8 -1 -1</clus>
<clus scale="   53.549">  1  5  2 -1</clus>
</clustering>
</event>
<event>
 9    2  0.4883225E-005  0.1060675E+03  0.7546771E-02  0.1268668E+00
          4   -1    0    0  502    0 -0.00000000000E+00  0.00000000000E+00  0.75129514493E+02  0.75129514493E+02  0.00000000000E+00 0. -1.
         21   -1    0    0  501  502  0.00000000000E+00 -0.00000000000E+00 -0.26251252801E+03  0.26251252801E+03  0.00000000000E+00 0. -1.
         24    2    1    2    0    0  0.35332953347E+02  0.18148329007E+01 -0.46135957514E+02  0.10531966028E+03  0.87817954063E+02 0.  0.
         23    2    1    2    0    0 -0.90038307429E+02  0.10724913228E+01 -0.79225020841E+02  0.14957127799E+03  0.89369548666E+02 0.  0.
        -11    1    3    3    0    0  0.38060427206E+02  0.20954196295E+02 -0.65081556585E+02  0.78251411930E+02  0.00000000000E+00 0.  1.
         12    1    3    3    0    0 -0.27274738587E+01 -0.19139363394E+02  0.18945599071E+02  0.27068248354E+02  0.00000000000E+00 0. -1.
        -13    1    4    4    0    0 -0.36925215606E+02  0.22641722512E+02  0.91134892488E+01  0.44262566940E+02  0.00000000000E+00 0.  1.
         13    1    4    4    0    0 -0.53113091822E+02 -0.21569231189E+02 -0.88338510090E+02  0.10530871105E+03  0.00000000000E+00 0. -1.
          3    1    1    2  501    0  0.54705354081E+02 -0.28873242235E+01 -0.62022035166E+02  0.82751104237E+02  0.00000000000E+00 0. -1.
<scales pt_clust_5="13000.00000" pt_clust_6="13000.00000" pt_clust_7="13000.00000" pt_clust_8="13000.00000" pt_clust_9="54.78150"></scales>
<clustering>
<clus scale="   54.781">  2  9  1 -1</clus>
<clus scale="   87.818">  5  6 -1 -1</clus>
<clus scale="   89.370">  7  8 -1 -1</clus>
<clus scale="  104.763">  1  5  2 -1</clus>
<clus scale="   54.781">  2  5  1 -1</clus>
</clustering>
</event>
<event>
 9    2  0.4883225E-005  0.1811904E+03  0.7546771E-02  0.1168663E+00
         21   -1    0    0  501  502  0.00000000000E+00  0.00000000000E+00  0.32315173028E+02  0.32315173028E+02  0.00000000000E+00 0.  1.
          2   -1    0    0  502    0 -0.00000000000E+00 -0.00000000000E+00 -0.29832350065E+04  0.29832350065E+04  0.00000000000E+00 0. -1.
         24    2    1    2    0    0 -0.62829499465E+02  0.12290691425E+03 -0.91564495967E+03  0.92947510440E+03  0.80402872841E+02 0.  0.
         23    2    1    2    0    0 -0.54603282879E+02 -0.22860838745E+03 -0.76742163071E+03  0.80841506330E+03  0.96724567587E+02 0.  0.
        -11    1    3    3    0    0  0.12614564707E+02  0.38423581740E+02 -0.14435853114E+03  0.14991625792E+03  0.00000000000E+00 0.  1.
         12    1    3    3    0    0 -0.75444064172E+02  0.84483332511E+02 -0.77128642853E+03  0.77955884648E+03  0.00000000000E+00 0. -1.
        -13    1    4    4    0    0 -0.76916142393E+02 -0.21420851745E+03 -0.68524237504E+03  0.72205158712E+03  0.00000000000E+00 0.  1.
         13    1    4    4    0    0  0.22312859514E+02 -0.14399869995E+02 -0.82179255672E+02  0.86363476183E+02  0.00000000000E+00 0. -1.
          1    1    1    2  501    0  0.11743278234E+03  0.10570147319E+03 -0.12678532431E+04  0.12776600119E+04  0.00000000000E+00 0. -1.
<scales pt_clust_5="13000.00000" pt_clust_6="13000.00000" pt_clust_7="13000.00000" pt_clust_8="13000.00000" pt_clust_9="157.99774"></scales>
<clustering>
<clus scale="   80.403">  5  6 -1 -1</clus>
<clus scale="   96.725">  7  8 -1 -1</clus>
<clus scale="  157.998">  1  9  2 -1</clus>
<clus scale="  173.029">  2  5  1 -1</clus>
<clus scale="  157.998">  1  5  2 -1</clus>
</clustering>
</event>
<event>
 9    2  0.4883225E-005  0.9088201E+02  0.7546771E-02  0.1309249E+00
         21   -1    0    0  501  502  0.00000000000E+00  0.00000000000E+00  0.16040373456E+03  0.16040373456E+03  0.00000000000E+00 0. -1.
         -1   -1    0    0    0  501 -0.00000000000E+00 -0.00000000000E+00 -0.90056418334E+02  0.90056418334E+02  0.00000000000E+00 0.  1.
         23    2    1    2    0    0 -0.35666845195E+01  0.15872218691E+02 -0.18758788296E+02  0.93488507386E+02  0.90130795571E+02 0.  0.
         24    2    1    2    0    0 -0.33818868846E+02  0.77552613224E+01  0.65785342020E+02  0.10697369179E+03  0.76888227595E+02 0.  0.
        -13    1    4    4    0    0  0.15510576957E+02 -0.20911387234E+02  0.12399059164E+02  0.28837489172E+02  0.00000000000E+00 0.  1.
         14    1    4    4    0    0 -0.49329445803E+02  0.28666648557E+02  0.53386282856E+02  0.78136202620E+02  0.00000000000E+00 0. -1.
        -11    1    3    3    0    0 -0.39443509953E+02 -0.14963288355E+02 -0.18788772333E+02  0.46181256388E+02  0.00000000000E+00 0.  1.
         11    1    3    3    0    0  0.35876825433E+02  0.30835507046E+02  0.29984037102E-01  0.47307250998E+02  0.00000000000E+00 0. -1.
         -2    1    1    2    0  502  0.37385553365E+02 -0.23627480013E+02  0.23320762502E+02  0.49997953717E+02  0.00000000000E+00 0.  1.
<scales pt_clust_5="13000.00000" pt_clust_6="13000.00000" pt_clust_7="13000.00000" pt_clust_8="13000.00000" pt_clust_9="44.22598"></scales>
<clustering>
<clus scale="   44.226">  1  9  2 -1</clus>
<clus scale="   76.888">  5  6 -1 -1</clus>
<clus scale="   77.767">  1  5  2 -1</clus>
<clus scale="   90.131">  7  8 -1 -1</clus>
<clus scale="   44.226">  1  5  2 -1</clus>
</clustering>
</event>
<event>
 9    2  0.4883225E-005  0.1256899E+03  0.7546771E-02  0.1236952E+00
          2   -1    0    0  502    0 -0.00000000000E+00  0.00000000000E+00  0.62738383814E+03  0.62738383814E+03  0.00000000000E+00 0. -1.
         21   -1    0    0  501  502  0.00000000000E+00 -0.00000000000E+00 -0.44800657957E+02  0.44800657957E+02  0.00000000000E+00 0.  1.
         24    2    1    2    0    0  0.55786085374E+02  0.74123357085E+02  0.33943333063E+03  0.36093475433E+03  0.80327775729E+02 0.  0.
         23    2    1    2    0    0 -0.38704364747E+02 -0.56711406134E+02  0.64359130923E+02  0.13080284575E+03  0.90846437937E+02 0.  0.
        -11    1    3    3    0    0  0.22104841773E+02  0.82449620039E+02  0.20424479142E+03  0.22136508012E+03  0.00000000000E+00 0.  1.
         12    1    3    3    0    0  0.33681243601E+02 -0.83262629543E+01  0.13518853920E+03  0.13956967420E+03  0.00000000000E+00 0. -1.
        -13    1    4    4    0    0 -0.20282369203E+02 -0.75302949096E+02  0.22034776792E+02  0.81039743529E+02  0.00000000000E+00 0.  1.
         13    1    4    4    0    0 -0.18421995545E+02  0.18591542962E+02  0.42324354131E+02  0.49763102216E+02  0.00000000000E+00 0. -1.
          1    1    1    2  501    0 -0.17081720627E+02 -0.17411950952E+02  0.17879071864E+03  0.18044689603E+03  0.00000000000E+00 0. -1.
<scales pt_clust_5="13000.00000" pt_clust_6="13000.00000" pt_clust_7="13000.00000" pt_clust_8="13000.00000" pt_clust_9="24.39184"></scales>
<clustering>
<clus scale="   24.392">  2  9  1 -1</clus>
<clus scale="   80.328">  5  6 -1 -1</clus>
<clus scale="   90.846">  7  8 -1 -1</clus>
<clus scale="  118.311">  1  5  2 -1</clus>
<clus scale="   24.392">  2  5  1 -1</clus>
</clustering>
</event>
<event>
 9    2  0.4883225E-005  0.9863373E+02  0.7546771E-02  0.1288717E+00
          2   -1    0    0  502    0 -0.00000000000E+00  0.00000000000E+00  0.11342527893E+03  0.11342527893E+03  0.00000000000E+00 0. -1.
         21   -1    0    0  501  502  0.00000000000E+00 -0.00000000000E+00 -0.14714952600E+03  0.14714952600E+03  0.00000000000E+00 0.  1.
         23    2    1    2    0    0 -0.33103665722E+02 -0.33889964682E+02  0.42753429346E+02  0.10993553933E+03  0.89518627646E+02 0.  0.
         24    2    1    2    0    0  0.30208383655E+02  0.17755082770E+01 -0.82396169219E+02  0.11785589291E+03  0.78645940258E+02 0.  0.
        -13    1    4    4    0    0  0.25074516876E+02  0.37881313497E+02 -0.59252453176E+02  0.74663100098E+02  0.00000000000E+00 0.  1.
         14    1    4    4    0    0  0.51338667788E+01 -0.36105805220E+02 -0.23143716043E+02  0.43192792813E+02  0.00000000000E+00 0. -1.
        -11    1    3    3    0    0  0.10319311924E+02 -0.46487853608E+02  0.43814612719E+02  0.64709574403E+02  0.00000000000E+00 0. -1.
         11    1    3    3    0    0 -0.43422977646E+02  0.12597888927E+02 -0.10611833726E+01  0.45225964923E+02  0.00000000000E+00 0.  1.
          1    1    1    2  501    0  0.28952820672E+01  0.32114456405E+02  0.59184927977E+01  0.32783372697E+02  0.00000000000E+00 0. -1.
<scales pt_clust_5="13000.00000" pt_clust_6="13000.00000" pt_clust_7="13000.00000" pt_clust_8="13000.00000" pt_clust_9="32.24472"></scales>
<clustering>
<clus scale="   32.245">  2  9  1 -1</clus>
<clus scale="   78.646">  5  6 -1 -1</clus>
<clus scale="   88.883">  2  5  1 -1</clus>
<clus scale="   89.519">  7  8 -1 -1</clus>
<clus scale="   32.245">  2  5  1 -1</clus>
</clustering>
</event>
<event>
 9    2  0.4883225E-005  0.1019716E+03  0.7546771E-02  0.1279099E+00
          2   -1    0    0  502    0 -0.00000000000E+00  0.00000000000E+00  0.91752119029E+02  0.91752119029E+02  0.00000000000E+00 0. -1.
         21   -1    0    0  501  502  0.00000000000E+00 -0.00000000000E+00 -0.64838709469E+03  0.64838709469E+03  0.00000000000E+00 0. -1.
         24    2    1    2    0    0 -0.77095729935E+01 -0.50935904030E+02  0.36980740671E+02  0.10171810176E+03  0.79530454601E+02 0.  0.
         23    2    1    2    0    0  0.88119418872E+02  0.62080027191E+02 -0.25199938281E+03  0.28729199878E+03  0.86104830692E+02 0.  0.
        -11    1    3    3    0    0  0.16423141937E+02  0.15079107705E+02  0.18680358356E+02  0.29087022339E+02  0.00000000000E+00 0.  1.
         12    1    3    3    0    0 -0.24132714931E+02 -0.66015011735E+02  0.18300382315E+02  0.72631079416E+02  0.00000000000E+00 0. -1.
        -11    1    4    4    0    0  0.52056119635E+02  0.38748823030E+02 -0.53224845517E+02  0.83929703073E+02  0.00000000000E+00 0. -1.
         11    1    4    4    0    0  0.36063299237E+02  0.23331204161E+02 -0.19877453729E+03  0.20336229571E+03  0.00000000000E+00 0.  1.
          1    1    1    2  501    0 -0.80409845878E+02 -0.11144123161E+02 -0.34161633352E+03  0.35112911318E+03  0.00000000000E+00 0. -1.
<scales pt_clust_5="13000.00000" pt_clust_6="13000.00000" pt_clust_7="13000.00000" pt_clust_8="13000.00000" pt_clust_9="81.17841"></scales>
<clustering>
<clus scale="   79.530">  5  6 -1 -1</clus>
<clus scale="   81.178">  2  9  1 -1</clus>
<clus scale="   86.105">  7  8 -1 -1</clus>
<clus scale="   96.484">  1  5  2 -1</clus>
<clus scale="   81.178">  2  5  1 -1</clus>
</clustering>
</event>
<event>
 9    2  0.4883225E-005  0.1478002E+03  0.7546771E-02  0.1222950E+00
          2   -1    0    0  502    0 -0.00000000000E+00  0.00000000000E+00  0.68285726943E+03  0.68285726943E+03  0.00000000000E+00 0. -1.
         21   -1    0    0  501  502  0.00000000000E+00 -0.00000000000E+00 -0.63267995961E+02  0.63267995961E+02  0.00000000000E+00 0.  1.
         24    2    1    2    0    0 -0.49684824817E+02 -0.20213515181E+02  0.34301513213E+03  0.35650951845E+03  0.81009183814E+02 0.  0.
         23    2    1    2    0    0  0.10813621859E+03 -0.71465444184E+02  0.11665408914E+03  0.19623524089E+03  0.89996343099E+02 0.  0.
        -13    1    3    3    0    0 -0.81459453219E+01  0.26263419117E+02  0.51259644375E+02  0.58169362644E+02  0.00000000000E+00 0.  1.
         14    1    3    3    0    0 -0.41538879495E+02 -0.46476934298E+02  0.29175548776E+03  0.29834015581E+03  0.00000000000E+00 0. -1.
        -11    1    4    4    0    0 -0.94280086184E+00 -0.39883191235E+02  0.52067706381E+02  0.65594236518E+02  0.00000000000E+00 0. -1.
         11    1    4    4    0    0  0.10907901945E+03 -0.31582252949E+02  0.64586382759E+02  0.13064100437E+03  0.00000000000E+00 0.  1.
          1    1    1    2  501    0 -0.58451393772E+02  0.91678959365E+02  0.15992005219E+03  0.19338050604E+03  0.00000000000E+00 0. -1.
<scales pt_clust_5="13000.00000" pt_clust_6="13000.00000" pt_clust_7="13000.00000" pt_clust_8="13000.00000" pt_clust_9="117.24146"></scales>
<clustering>
<clus scale="   81.009">  5  6 -1 -1</clus>
<clus scale="   89.996">  7  8 -1 -1</clus>
<clus scale="   97.158">  1  5  2 -1</clus>
<clus scale="  117.241">  2  9  1 -1</clus>
<clus scale="  117.241">  2  5  1 -1</clus>
</clustering>
</event>
<event>
 9    2  0.4883225E-005  0.1235736E+03  0.7546771E-02  0.1258362E+00
         21   -1    0    0  501  502  0.00000000000E+00  0.00000000000E+00  0.15388856610E+03  0.15388856610E+03  0.00000000000E+00 0.  1.
          2   -1    0    0  502    0 -0.00000000000E+00 -0.00000000000E+00 -0.25906446481E+03  0.25906446481E+03  0.00000000000E+00 0. -1.
         24    2    1    2    0    0 -0.10395458735E+02 -0.77778210854E+01  0.85264723758E-01  0.81032680538E+02  0.79985798627E+02 0.  0.
         23    2    1    2    0    0 -0.80533221673E+02  0.39323891682E+02  0.63036324217E+02  0.13804610287E+03  0.83971305201E+02 0.  0.
        -11    1    3    3    0    0  0.27394808826E+02  0.19010105940E+02  0.73494027525E+01  0.34144888333E+02  0.00000000000E+00 0.  1.
         12    1    3    3    0    0 -0.37790267561E+02 -0.26787927025E+02 -0.72641380287E+01  0.46887792205E+02  0.00000000000E+00 0. -1.
        -11    1    4    4    0    0 -0.18386125280E+02  0.48160239965E+02  0.53950511842E+02  0.74619809999E+02  0.00000000000E+00 0. -1.
         11    1    4    4    0    0 -0.62147096393E+02 -0.88363482829E+01  0.90858123751E+01  0.63426292873E+02  0.00000000000E+00 0.  1.
          1    1    1    2  501    0  0.90928680408E+02 -0.31546070597E+02 -0.16829748766E+03  0.19387424750E+03  0.00000000000E+00 0. -1.
<scales pt_clust_5="13000.00000" pt_clust_6="13000.00000" pt_clust_7="13000.00000" pt_clust_8="13000.00000" pt_clust_9="90.66016"></scales>
<clustering>
<clus scale="   79.986">  5  6 -1 -1</clus>
<clus scale="   81.033">  2  5  1 -1</clus>
<clus scale="   83.971">  7  8 -1 -1</clus>
<clus scale="   90.660">  1  9  2 -1</clus>
<clus scale="   90.660">  1  5  2 -1</clus>
</clustering>
</event>
<event>
 9    2  0.4883225E-005  0.9869369E+02  0.7546771E-02  0.1286069E+00
          2   -1    0    0  502    0 -0.00000000000E+00  0.00000000000E+00  0.39314749172E+03  0.39314749172E+03  0.00000000000E+00 0. -1.
         21   -1    0    0  501  502  0.00000000000E+00 -0.00000000000E+00 -0.42743385637E+02  0.42743385637E+02  0.00000000000E+00 0.  1.
         24    2    1    2    0    0 -0.20635524176E+02 -0.28678900007E+02  0.21899412570E+03  0.23652582952E+03  0.82083718105E+02 0.  0.
         23    2    1    2    0    0  0.31416003033E+02  0.56969694979E+02  0.12857652422E+03  0.16895754418E+03  0.88216879139E+02 0.  0.
        -13    1    3    3    0    0  0.19433712295E+02 -0.15920996460E+02  0.17320348622E+02  0.30514615814E+02  0.00000000000E+00 0.  1.
         14    1    3    3    0    0 -0.40069236471E+02 -0.12757903546E+02  0.20167377707E+03  0.20601121371E+03  0.00000000000E+00 0. -1.
        -13    1    4    4    0    0  0.57536522708E+02  0.29941729091E+02  0.50145173084E+02  0.81984736201E+02  0.00000000000E+00 0.  1.
         13    1    4    4    0    0 -0.26120519676E+02  0.27027965888E+02  0.78431351132E+02  0.86972807984E+02  0.00000000000E+00 0. -1.
          1    1    1    2  501    0 -0.10780478857E+02 -0.28290794972E+02  0.28334561740E+01  0.30407503653E+02  0.00000000000E+00 0. -1.
<scales pt_clust_5="13000.00000" pt_clust_6="13000.00000" pt_clust_7="13000.00000" pt_clust_8="13000.00000" pt_clust_9="30.27520"></scales>
<clustering>
<clus scale="   30.275">  2  9  1 -1</clus>
<clus scale="   82.084">  5  6 -1 -1</clus>
<clus scale="   88.217">  7  8 -1 -1</clus>
<clus scale="   93.252">  1  5  2 -1</clus>
<clus scale="   30.275">  2  5  1 -1</clus>
</clustering>
</event>
<event>
 9    2  0.4883225E-005  0.1070164E+03  0.7546771E-02  0.1274309E+00
          2   -1    0    0  502    0 -0.00000000000E+00  0.00000000000E+00  0.42022307080E+03  0.42022307080E+03  0.00000000000E+00 0. -1.
         21   -1    0    0  501  502  0.00000000000E+00 -0.00000000000E+00 -0.44473649941E+03  0.44473649941E+03  0.00000000000E+00 0. -1.
         24    2    1    2    0    0 -0.34122381008E+02  0.29573634635E+02  0.39164227274E+03  0.40230148166E+03  0.80149083561E+02 0.  0.
         23    2    1    2    0    0 -0.27588463320E+02  0.82174370456E+01 -0.35050853635E+03  0.36495474327E+03  0.97504261448E+02 0.  0.
        -11    1    3    3    0    0 -0.28225297192E+02  0.24167813623E+02  0.60078301907E+02  0.70641014835E+02  0.00000000000E+00 0.  1.
         12    1    3    3    0    0 -0.58970838156E+01  0.54058210122E+01  0.33156397084E+03  0.33166046683E+03  0.00000000000E+00 0. -1.
        -11    1    4    4    0    0  0.34940055102E+02 -0.47865886737E+01 -0.16601700383E+03  0.16972143189E+03  0.00000000000E+00 0.  1.
         11    1    4    4    0    0 -0.62528518423E+02  0.13004025719E+02 -0.18449153252E+03  0.19523331138E+03  0.00000000000E+00 0. -1.
          1    1    1    2  501    0  0.61710844328E+02 -0.37791071681E+02 -0.65647165001E+02  0.97703345281E+02  0.00000000000E+00 0. -1.
<scales pt_clust_5="13000.00000" pt_clust_6="13000.00000" pt_clust_7="13000.00000" pt_clust_8="13000.00000" pt_clust_9="72.36293"></scales>
<clustering>
<clus scale="   72.363">  2  9  1 -1</clus>
<clus scale="   80.149">  5  6 -1 -1</clus>
<clus scale="   91.484">  1  5  2 -1</clus>
<clus scale="   97.504">  7  8 -1 -1</clus>
<clus scale="   72.363">  2  5  1 -1</clus>
</clustering>
</event>
<event>
 9    2  0.4883225E-005  0.9984376E+02  0.7546771E-02  0.1285790E+00
         21   -1    0    0  501  502  0.00000000000E+00  0.00000000000E+00  0.53227927356E+02  0.53227927356E+02  0.00000000000E+00 0. -1.
          2   -1    0    0  502    0 -0.00000000000E+00 -0.00000000000E+00 -0.34020579268E+03  0.34020579268E+03  0.00000000000E+00 0. -1.
         24    2    1    2    0    0 -0.16656328622E+02 -0.92690703652E+01 -0.13652427671E+03  0.16132250513E+03  0.83801691994E+02 0.  0.
         23    2    1    2    0    0  0.39377335141E+02  0.61782856763E+02 -0.93055306616E+02  0.15106490299E+03  0.93774297721E+02 0.  0.
        -13    1    3    3    0    0  0.21779869005E+02 -0.33744187286E+02 -0.58323079111E+02  0.70813942317E+02  0.00000000000E+00 0.  1.
         14    1    3    3    0    0 -0.38436197627E+02  0.24475116921E+02 -0.78201197602E+02  0.90508562814E+02  0.00000000000E+00 0. -1.
        -13    1    4    4    0    0  0.26593781544E+02  0.28430249457E+02 -0.10611748125E+03  0.11303286304E+03  0.00000000000E+00 0.  1.
         13    1    4    4    0    0  0.12783553597E+02  0.33352607306E+02  0.13062174629E+02  0.38032039949E+02  0.00000000000E+00 0. -1.
          1    1    1    2  501    0 -0.22721006519E+02 -0.52513786398E+02 -0.57398281990E+02  0.81046311911E+02  0.00000000000E+00 0. -1.
<scales pt_clust_5="13000.00000" pt_clust_6="13000.00000" pt_clust_7="13000.00000" pt_clust_8="13000.00000" pt_clust_9="57.21837"></scales>
<clustering>
<clus scale="   57.218">  1  9  2 -1</clus>
<clus scale="   83.802">  5  6 -1 -1</clus>
<clus scale="   90.542">  2  5  1 -1</clus>
<clus scale="   93.774">  7  8 -1 -1</clus>
<clus scale="   57.218">  1  5  2 -1</clus>
</clustering>
</event>
<event>
 9    2  0.4883225E-005  0.1007158E+03  0.7546771E-02  0.1284900E+00
          4   -1    0    0  502    0 -0.00000000000E+00  0.00000000000E+00  0.13463733000E+03  0.13463733000E+03  0.00000000000E+00 0. -1.
         21   -1    0    0  501  502  0.00000000000E+00 -0.00000000000E+00 -0.33561998374E+03  0.33561998374E+03  0.00000000000E+00 0.  1.
         24    2    1    2    0    0 -0.11778829724E+02  0.37119905367E+02  0.95765695177E+02  0.13066708231E+03  0.79913639785E+02 0.  0.
         23    2    1    2    0    0  0.31305370185E+02 -0.47921927156E+02 -0.12120753957E+03  0.16263671999E+03  0.92102647834E+02 0.  0.
        -11    1    3    3    0    0 -0.34733140984E+02  0.47740181091E+02  0.46000573757E+02  0.74843628714E+02  0.00000000000E+00 0.  1.
         12    1    3    3    0    0  0.22954311260E+02 -0.10620275724E+02  0.49765121420E+02  0.55823453600E+02  0.00000000000E+00 0. -1.
        -13    1    4    4    0    0  0.53450666266E+01 -0.56463983873E+02 -0.12279578130E+03  0.13526106282E+03  0.00000000000E+00 0.  1.
         13    1    4    4    0    0  0.25960303559E+02  0.85420567162E+01  0.15882417286E+01  0.27375657172E+02  0.00000000000E+00 0. -1.
          3    1    1    2  501    0 -0.19526540461E+02  0.10802021789E+02 -0.17554080935E+03  0.17695351142E+03  0.00000000000E+00 0. -1.
<scales pt_clust_5="13000.00000" pt_clust_6="13000.00000" pt_clust_7="13000.00000" pt_clust_8="13000.00000" pt_clust_9="22.31523"></scales>
<clustering>
<clus scale="   22.315">  2  9  1 -1</clus>
<clus scale="   79.914">  5  6 -1 -1</clus>
<clus scale="   89.705">  1  5  2 -1</clus>
<clus scale="   92.103">  7  8 -1 -1</clus>
<clus scale="   22.315">  2  5  1 -1</clus>
</clustering>
</event>
<event>
 9    2  0.4883225E-005  0.1548878E+03  0.7546771E-02  0.1196374E+00
          2   -1    0    0  502    0 -0.00000000000E+00  0.00000000000E+00  0.12274367888E+04  0.12274367888E+04  0.00000000000E+00 0. -1.
         21   -1    0    0  501  502  0.00000000000E+00 -0.00000000000E+00 -0.39219034472E+02  0.39219034472E+02  0.00000000000E+00 0. -1.
         23    2    1    2    0    0  0.14487728824E+03  0.43169755414E+02  0.51761887735E+03  0.54673797844E+03  0.90222272445E+02 0.  0.
         24    2    1    2    0    0 -0.72621633530E+02 -0.56588584309E+02  0.14550395846E+03  0.18970504033E+03  0.79626822548E+02 0.  0.
        -13    1    4    4    0    0  0.10206972778E+02 -0.21832685192E+02  0.64101455643E+02  0.68482443382E+02  0.00000000000E+00 0.  1.
         14    1    4    4    0    0 -0.82828606308E+02 -0.34755899117E+02  0.81402502815E+02  0.12122259695E+03  0.00000000000E+00 0. -1.
        -13    1    3    3    0    0  0.10157209207E+03  0.64540206208E+02  0.28864500823E+03  0.31272714766E+03  0.00000000000E+00 0. -1.
         13    1    3    3    0    0  0.43305196168E+02 -0.21370450795E+02  0.22897386912E+03  0.23401083078E+03  0.00000000000E+00 0.  1.
          1    1    1    2  501    0 -0.72255654711E+02  0.13418828895E+02  0.52509491849E+03  0.53021280448E+03  0.00000000000E+00 0. -1.
<scales pt_clust_5="13000.00000" pt_clust_6="13000.00000" pt_clust_7="13000.00000" pt_clust_8="13000.00000" pt_clust_9="73.49116"></scales>
<clustering>
<clus scale="   73.491">  2  9  1 -1</clus>
<clus scale="   79.627">  5  6 -1 -1</clus>
<clus scale="   90.222">  7  8 -1 -1</clus>
<clus scale="  148.965">  2  5  1 -1</clus>
<clus scale="   73.491">  2  5  1 -1</clus>
</clustering>
</event>
<event>
 9    2  0.4883225E-005  0.1191888E+03  0.7546771E-02  0.1248199E+00
         -1   -1    0    0    0  501 -0.00000000000E+00  0.00000000000E+00  0.37725400952E+03  0.37725400952E+03  0.00000000000E+00 0.  1.
         21   -1    0    0  501  502  0.00000000000E+00 -0.00000000000E+00 -0.12348915450E+03  0.12348915450E+03  0.00000000000E+00 0.  1.
         24    2    1    2    0    0  0.79915040744E+02  0.84104116463E+01  0.29795199338E+03  0.31892123302E+03  0.80487351518E+02 0.  0.
         23    2    1    2    0    0 -0.34045335914E+02  0.14375130615E+02 -0.72918460278E+02  0.12309630102E+03  0.92031886857E+02 0.  0.
        -13    1    3    3    0    0  0.14623275921E+02 -0.31705696614E+02  0.66431817119E+02  0.75048502465E+02  0.00000000000E+00 0.  1.
         14    1    3    3    0    0  0.65291764823E+02  0.40116108260E+02  0.23152017626E+03  0.24387273056E+03  0.00000000000E+00 0. -1.
        -11    1    4    4    0    0 -0.23902531093E+02 -0.13293369164E+02  0.14420906388E+02  0.30919366058E+02  0.00000000000E+00 0. -1.
         11    1    4    4    0    0 -0.10142804821E+02  0.27668499780E+02 -0.87339366666E+02  0.92176934964E+02  0.00000000000E+00 0.  1.
         -2    1    1    2    0  502 -0.45869704830E+02 -0.22785542262E+02  0.28731321918E+02  0.58725629979E+02  0.00000000000E+00 0.  1.
<scales pt_clust_5="13000.00000" pt_clust_6="13000.00000" pt_clust_7="13000.00000" pt_clust_8="13000.00000" pt_clust_9="51.21729"></scales>
<clustering>
<clus scale="   51.217">  2  9  1 -1</clus>
<clus scale="   80.487">  5  6 -1 -1</clus>
<clus scale="   92.032">  7  8 -1 -1</clus>
<clus scale="  110.518">  1  5  2 -1</clus>
<clus scale="   51.217">  2  5  1 -1</clus>
</clustering>
</event>
<event>
 9    2  0.4883225E-005  0.1031870E+03  0.7546771E-02  0.1274318E+00
         21   -1    0    0  501  502  0.00000000000E+00  0.00000000000E+00  0.93409301419E+02  0.93409301419E+02  0.00000000000E+00 0. -1.
          2   -1    0    0  502    0 -0.00000000000E+00 -0.00000000000E+00 -0.84996091112E+03  0.84996091112E+03  0.00000000000E+00 0. -1.
         24    2    1    2    0    0 -0.11839137797E+02 -0.41067447540E+02 -0.64142816858E+03  0.64904670029E+03  0.89469677955E+02 0.  0.
         23    2    1    2    0    0 -0.34569566202E+02  0.12569748951E+03 -0.11779449452E+03  0.19776707105E+03  0.90781923738E+02 0.  0.
        -11    1    3    3    0    0 -0.57905722516E+01  0.20313635037E+02 -0.48256588794E+02  0.52677061967E+02  0.00000000000E+00 0.  1.
         12    1    3    3    0    0 -0.60485655459E+01 -0.61381082578E+02 -0.59317157979E+03  0.59636963832E+03  0.00000000000E+00 0. -1.
        -11    1    4    4    0    0  0.12478662950E+02  0.66870386201E+02 -0.13886702901E+02  0.69427704104E+02  0.00000000000E+00 0.  1.
         11    1    4    4    0    0 -0.47048229152E+02  0.58827103309E+02 -0.10390779162E+03  0.12833936695E+03  0.00000000000E+00 0. -1.
          1    1    1    2  501    0  0.46408704000E+02 -0.84630041969E+02  0.26710533974E+01  0.96556441199E+02  0.00000000000E+00 0. -1.
<scales pt_clust_5="13000.00000" pt_clust_6="13000.00000" pt_clust_7="13000.00000" pt_clust_8="13000.00000" pt_clust_9="96.51949"></scales>
<clustering>
<clus scale="   89.470">  5  6 -1 -1</clus>
<clus scale="   90.782">  7  8 -1 -1</clus>
<clus scale="   96.519">  1  9  2 -1</clus>
<clus scale="  102.034">  2  5  1 -1</clus>
<clus scale="   96.519">  1  5  2 -1</clus>
</clustering>
</event>
<event>
 9    2  0.4883225E-005  0.1556387E+03  0.7546771E-02  0.1195330E+00
         21   -1    0    0  501  502  0.00000000000E+00  0.00000000000E+00  0.34615194496E+03  0.34615194496E+03  0.00000000000E+00 0. -1.
          2   -1    0    0  502    0 -0.00000000000E+00 -0.00000000000E+00 -0.11776831157E+03  0.11776831157E+03  0.00000000000E+00 0. -1.
         24    2    1    2    0    0  0.53715998332E+01  0.10799266664E+03  0.53003327395E+02  0.14576182713E+03  0.82133351323E+02 0.  0.
         23    2    1    2    0    0 -0.11310901057E+02 -0.14421541361E+03  0.37298661818E+02  0.17528119834E+03  0.91685802130E+02 0.  0.
        -13    1    3    3    0    0 -0.31648950686E+02  0.87465559370E+02  0.41784717194E+02  0.10196981292E+03  0.00000000000E+00 0.  1.
         14    1    3    3    0    0  0.37020550519E+02  0.20527107269E+02  0.11218610201E+02  0.43792014209E+02  0.00000000000E+00 0. -1.
        -13    1    4    4    0    0 -0.47562355670E+02 -0.11353746896E+03  0.19851671353E+02  0.12468770344E+03  0.00000000000E+00 0. -1.
         13    1    4    4    0    0  0.36251454613E+02 -0.30677944656E+02  0.17446990465E+02  0.50593494900E+02  0.00000000000E+00 0.  1.
          1    1    1    2  501    0  0.59393012235E+01  0.36222746974E+02  0.13808164417E+03  0.14287723106E+03  0.00000000000E+00 0. -1.
<scales pt_clust_5="13000.00000" pt_clust_6="13000.00000" pt_clust_7="13000.00000" pt_clust_8="13000.00000" pt_clust_9="36.70644"></scales>
<clustering>
<clus scale="   36.706">  1  9  2 -1</clus>
<clus scale="   82.133">  5  6 -1 -1</clus>
<clus scale="   91.686">  7  8 -1 -1</clus>
<clus scale="  150.210">  2  5  1 -1</clus>
<clus scale="   36.706">  1  5  2 -1</clus>
</clustering>
</event>
<event>
 9    2  0.4883225E-005  0.1256922E+03  0.7546771E-02  0.1236342E+00
          2   -1    0    0  502    0 -0.00000000000E+00  0.00000000000E+00  0.11513706070E+04  0.11513706070E+04  0.00000000000E+00 0. -1.
         21   -1    0    0  501  502  0.00000000000E+00 -0.00000000000E+00 -0.10657227995E+03  0.10657227995E+03  0.00000000000E+00 0. -1.
         24    2    1    2    0    0  0.44373200959E+01 -0.97113584151E+02  0.69326328735E+03  0.70488507655E+03  0.82451485777E+02 0.  0.
         23    2    1    2    0    0  0.57584003754E+01  0.73538636296E+02  0.44293010388E+03  0.45812210253E+03  0.90816813981E+02 0.  0.
        -13    1    3    3    0    0 -0.30349836320E+02 -0.70820947600E+02  0.32299468731E+03  0.33205765646E+03  0.00000000000E+00 0.  1.
         14    1    3    3    0    0  0.34787156416E+02 -0.26292636551E+02  0.37026860005E+03  0.37282742009E+03  0.00000000000E+00 0. -1.
        -13    1    4    4    0    0 -0.32808352027E+02  0.71806615222E+01  0.73589520881E+02  0.80891083848E+02  0.00000000000E+00 0. -1.
         13    1    4    4    0    0  0.38566752403E+02  0.66357974774E+02  0.36934058300E+03  0.37723101868E+03  0.00000000000E+00 0.  1.
          1    1    1    2  501    0 -0.10195720471E+02  0.23574947854E+02 -0.91395064162E+02  0.94935707905E+02  0.00000000000E+00 0. -1.
<scales pt_clust_5="13000.00000" pt_clust_6="13000.00000" pt_clust_7="13000.00000" pt_clust_8="13000.00000" pt_clust_9="25.68523"></scales>
<clustering>
<clus scale="   25.685">  2  9  1 -1</clus>
<clus scale="   82.451">  5  6 -1 -1</clus>
<clus scale="   90.817">  7  8 -1 -1</clus>
<clus scale="  119.788">  1  5  2 -1</clus>
<clus scale="   25.685">  2  5  1 -1</clus>
</clustering>
</event>
<event>
 9    2  0.4883225E-005  0.1009014E+03  0.7546771E-02  0.1289480E+00
          2   -1    0    0  502    0 -0.00000000000E+00  0.00000000000E+00  0.49778080416E+03  0.49778080416E+03  0.00000000000E+00 0. -1.
         21   -1    0    0  501  502  0.00000000000E+00 -0.00000000000E+00 -0.24645565769E+03  0.24645565769E+03  0.00000000000E+00 0. -1.
         24    2    1    2    0    0  0.15139125908E+02 -0.15061364573E+02  0.46768874414E+03  0.47479679362E+03  0.79013897488E+02 0.  0.
         23    2    1    2    0    0  0.20538619745E+02  0.48358390223E+02 -0.15309797630E+03  0.18953890290E+03  0.98618642050E+02 0.  0.
        -11    1    3    3    0    0  0.25295006162E+00  0.25021153092E+02  0.61968937616E+02  0.66830167701E+02  0.00000000000E+00 0.  1.
         12    1    3    3    0    0  0.14886175846E+02 -0.40082517664E+02  0.40571980653E+03  0.40796662591E+03  0.00000000000E+00 0. -1.
        -13    1    4    4    0    0 -0.32188191213E+02 -0.44059128425E+01 -0.23823249886E+02  0.40286957650E+02  0.00000000000E+00 0.  1.
         13    1    4    4    0    0  0.52726810958E+02  0.52764303066E+02 -0.12927472642E+03  0.14925194525E+03  0.00000000000E+00 0. -1.
          1    1    1    2  501    0 -0.35677745652E+02 -0.33297025651E+02 -0.63265621370E+02  0.79900765324E+02  0.00000000000E+00 0. -1.
<scales pt_clust_5="13000.00000" pt_clust_6="13000.00000" pt_clust_7="13000.00000" pt_clust_8="13000.00000" pt_clust_9="48.80157"></scales>
<clustering>
<clus scale="   48.802">  2  9  1 -1</clus>
<clus scale="   79.014">  5  6 -1 -1</clus>
<clus scale="   81.845">  1  5  2 -1</clus>
<clus scale="   98.619">  7  8 -1 -1</clus>
<clus scale="   48.802">  2  5  1 -1</clus>
</clustering>
</event>
<event>
 9    2  0.4883225E-005  0.9170852E+02  0.7546771E-02  0.1299280E+00
         21   -1    0    0  501  502  0.00000000000E+00  0.00000000000E+00  0.28426287858E+02  0.28426287858E+02  0.00000000000E+00 0.  1.
          2   -1    0    0  502    0 -0.00000000000E+00 -0.00000000000E+00 -0.66523354241E+03  0.66523354241E+03  0.00000000000E+00 0. -1.
         24    2    1    2    0    0  0.22897456603E+02 -0.16277692466E+01 -0.50683310302E+03  0.51508973273E+03  0.88942089577E+02 0.  0.
         23    2    1    2    0    0  0.36767602176E+01  0.17302812411E+02 -0.99313130536E+02  0.13507303802E+03  0.89826064263E+02 0.  0.
        -13    1    3    3    0    0  0.29698720153E+02  0.35849412009E+02 -0.17531090366E+03  0.18138662371E+03  0.00000000000E+00 0.  1.
         14    1    3    3    0    0 -0.68012635495E+01 -0.37477181256E+02 -0.33152219936E+03  0.33370310902E+03  0.00000000000E+00 0. -1.
        -13    1    4    4    0    0  0.21643509641E+02 -0.30857108579E+02 -0.27049582994E+02  0.46392699853E+02  0.00000000000E+00 0. -1.
         13    1    4    4    0    0 -0.17966749424E+02  0.48159920991E+02 -0.72263547542E+02  0.88680338171E+02  0.00000000000E+00 0.  1.
          1    1    1    2  501    0 -0.26574216821E+02 -0.15675043165E+02 -0.30661021003E+02  0.43497059519E+02  0.00000000000E+00 0. -1.
<scales pt_clust_5="13000.00000" pt_clust_6="13000.00000" pt_clust_7="13000.00000" pt_clust_8="13000.00000" pt_clust_9="30.85281"></scales>
<clustering>
<clus scale="   30.853">  1  9  2 -1</clus>
<clus scale="   88.942">  5  6 -1 -1</clus>
<clus scale="   89.826">  7  8 -1 -1</clus>
<clus scale="   90.843">  2  5  1 -1</clus>
<clus scale="   30.853">  1  5  2 -1</clus>
</clustering>
</event>
<event>
 9    2  0.4883225E-005  0.1810680E+03  0.7546771E-02  0.1168097E+00
         -1   -1    0    0    0  501 -0.00000000000E+00  0.00000000000E+00  0.14883069228E+03  0.14883069228E+03  0.00000000000E+00 0.  1.
         21   -1    0    0  501  502  0.00000000000E+00 -0.00000000000E+00 -0.44325938010E+03  0.44325938010E+03  0.00000000000E+00 0.  1.
         23    2    1    2    0    0 -0.22687752264E+02 -0.15942283516E+03  0.34502810481E+02  0.18930223733E+03  0.93351586247E+02 0.  0.
         24    2    1    2    0    0 -0.19540312477E+02  0.13313299491E+03 -0.31308321453E+03  0.35058119514E+03  0.82339887168E+02 0.  0.
        -13    1    4    4    0    0  0.21050046363E+02  0.95766255560E+02 -0.23800548108E+03  0.25741190567E+03  0.00000000000E+00 0.  1.
         14    1    4    4    0    0 -0.40590358840E+02  0.37366739352E+02 -0.75077733456E+02  0.93169289476E+02  0.00000000000E+00 0. -1.
        -11    1    3    3    0    0 -0.29736364604E+02 -0.12158532248E+02  0.26512023451E+02  0.41652955163E+02  0.00000000000E+00 0. -1.
         11    1    3    3    0    0  0.70486123400E+01 -0.14726430291E+03  0.79907870292E+01  0.14764928217E+03  0.00000000000E+00 0.  1.
         -2    1    1    2    0  502  0.42228064741E+02  0.26289840250E+02 -0.15848283763E+02  0.52206639907E+02  0.00000000000E+00 0.  1.
<scales pt_clust_5="13000.00000" pt_clust_6="13000.00000" pt_clust_7="13000.00000" pt_clust_8="13000.00000" pt_clust_9="49.74302"></scales>
<clustering>
<clus scale="   49.743">  2  9  1 -1</clus>
<clus scale="   82.340">  5  6 -1 -1</clus>
<clus scale="   93.352">  7  8 -1 -1</clus>
<clus scale="  175.644">  2  5  1 -1</clus>
<clus scale="   49.743">  2  5  1 -1</clus>
</clustering>
</event>
<event>
 9    2  0.4883225E-005  0.1737378E+03  0.7546771E-02  0.1175559E+00
         21   -1    0    0  501  502  0.00000000000E+00  0.00000000000E+00  0.76639303224E+02  0.76639303224E+02  0.00000000000E+00 0. -1.
          4   -1    0    0  502    0 -0.00000000000E+00 -0.00000000000E+00 -0.64352551148E+03  0.64352551148E+03  0.00000000000E+00 0. -1.
         23    2    1    2    0    0  0.15275128133E+03  0.10037745303E+02 -0.45118867245E+03  0.48537475493E+03  0.92648390680E+02 0.  0.
         24    2    1    2    0    0 -0.12557222992E+03 -0.19449993296E+02 -0.42992980319E+02  0.15660282529E+03  0.80804463769E+02 0.  0.
        -13    1    4    4    0    0 -0.48794216389E+02 -0.14273889895E+02 -0.59125993940E+02  0.77977577836E+02  0.00000000000E+00 0.  1.
         14    1    4    4    0    0 -0.76778013535E+02 -0.51761034016E+01  0.16133013621E+02  0.78625247454E+02  0.00000000000E+00 0. -1.
        -11    1    3    3    0    0  0.36981503826E+01  0.20508653480E+02 -0.12325302990E+03  0.12500236223E+03  0.00000000000E+00 0.  1.
         11    1    3    3    0    0  0.14905313095E+03 -0.10470908177E+02 -0.32793564255E+03  0.36037239270E+03  0.00000000000E+00 0. -1.
          3    1    1    2  501    0 -0.27179051408E+02  0.94122479931E+01 -0.72704555480E+02  0.78187234478E+02  0.00000000000E+00 0. -1.
<scales pt_clust_5="13000.00000" pt_clust_6="13000.00000" pt_clust_7="13000.00000" pt_clust_8="13000.00000" pt_clust_9="28.76269"></scales>
<clustering>
<clus scale="   28.763">  1  9  2 -1</clus>
<clus scale="   80.804">  5  6 -1 -1</clus>
<clus scale="   92.648">  7  8 -1 -1</clus>
<clus scale="  167.721">  1  5  2 -1</clus>
<clus scale="   28.763">  1  5  2 -1</clus>
</clustering>
</event>
<event>
 9    2  0.4883225E-005  0.9487624E+02  0.7546771E-02  0.1299612E+00
         -1   -1    0    0    0  501 -0.00000000000E+00  0.00000000000E+00  0.29978411091E+03  0.29978411091E+03  0.00000000000E+00 0.  1.
         21   -1    0    0  501  502  0.00000000000E+00 -0.00000000000E+00 -0.18694110574E+03  0.18694110574E+03  0.00000000000E+00 0.  1.
         24    2    1    2    0    0 -0.58328414037E+01  0.25067954191E+02  0.24428906858E+03  0.25766071806E+03  0.77778353283E+02 0.  0.
         23    2    1    2    0    0 -0.29800456937E+02 -0.19380667634E+02 -0.59605792277E+01  0.98493889638E+02  0.91661552898E+02 0.  0.
        -11    1    3    3    0    0 -0.15311310685E+02  0.44371972756E+02  0.86521112848E+02  0.98433790792E+02  0.00000000000E+00 0.  1.
         12    1    3    3    0    0  0.94784692818E+01 -0.19304018565E+02  0.15776795573E+03  0.15922692727E+03  0.00000000000E+00 0. -1.
        -11    1    4    4    0    0  0.11798949343E+02 -0.26416915739E+02  0.31000079223E+02  0.42403697417E+02  0.00000000000E+00 0. -1.
         11    1    4    4    0    0 -0.41599406280E+02  0.70362481049E+01 -0.36960658451E+02  0.56090192221E+02  0.00000000000E+00 0.  1.
         -2    1    1    2    0  502  0.35633298341E+02 -0.56872865564E+01 -0.12548548418E+03  0.13057060894E+03  0.00000000000E+00 0.  1.
<scales pt_clust_5="13000.00000" pt_clust_6="13000.00000" pt_clust_7="13000.00000" pt_clust_8="13000.00000" pt_clust_9="36.08431"></scales>
<clustering>
<clus scale="   36.084">  2  9  1 -1</clus>
<clus scale="   77.778">  5  6 -1 -1</clus>
<clus scale="   81.542">  1  5  2 -1</clus>
<clus scale="   91.662">  7  8 -1 -1</clus>
<clus scale="   36.084">  2  5  1 -1</clus>
</clustering>
</event>
<event>
 9    2  0.4883225E-005  0.1075000E+03  0.7546771E-02  0.1269095E+00
          2   -1    0    0  502    0 -0.00000000000E+00  0.00000000000E+00  0.64965376866E+03  0.64965376866E+03  0.00000000000E+00 0. -1.
         21   -1    0    0  501  502  0.00000000000E+00 -0.00000000000E+00 -0.15604869231E+03  0.15604869231E+03  0.00000000000E+00 0.  1.
         24    2    1    2    0    0 -0.56961951507E+02  0.13914484125E+02  0.61713213008E+03  0.62517507677E+03  0.80953899583E+02 0.  0.
         23    2    1    2    0    0  0.53830524211E+02  0.11019571779E+02 -0.10735566240E+03  0.15064382889E+03  0.90272745798E+02 0.  0.
        -11    1    3    3    0    0 -0.19928642530E+02 -0.14553649680E+02  0.46570387386E+02  0.52704463695E+02  0.00000000000E+00 0.  1.
         12    1    3    3    0    0 -0.37033308977E+02  0.28468133805E+02  0.57056174269E+03  0.57247061308E+03  0.00000000000E+00 0. -1.
        -11    1    4    4    0    0 -0.15895758087E+02  0.13201066435E+02 -0.66863259272E+02  0.69983131687E+02  0.00000000000E+00 0. -1.
         11    1    4    4    0    0  0.69726282299E+02 -0.21814946557E+01 -0.40492403131E+02  0.80660697204E+02  0.00000000000E+00 0.  1.
          1    1    1    2  501    0  0.31314272953E+01 -0.24934055904E+02 -0.16171391321E+02  0.29883555311E+02  0.00000000000E+00 0. -1.
<scales pt_clust_5="13000.00000" pt_clust_6="13000.00000" pt_clust_7="13000.00000" pt_clust_8="13000.00000" pt_clust_9="25.12992"></scales>
<clustering>
<clus scale="   25.130">  2  9  1 -1</clus>
<clus scale="   80.954">  5  6 -1 -1</clus>
<clus scale="   90.273">  7  8 -1 -1</clus>
<clus scale="   99.803">  1  5  2 -1</clus>
<clus scale="   25.130">  2  5  1 -1</clus>
</clustering>
</event>
<event>
 9    2  0.4883225E-005  0.1510092E+03  0.7546771E-02  0.1220303E+00
          2   -1    0    0  502    0 -0.00000000000E+00  0.00000000000E+00  0.65667296846E+03  0.65667296846E+03  0.00000000000E+00 0. -1.
         21   -1    0    0  501  502  0.00000000000E+00 -0.00000000000E+00 -0.74537131114E+02  0.74537131114E+02  0.00000000000E+00 0. -1.
         23    2    1    2    0    0 -0.24126306613E+02 -0.23458520312E+02  0.14231882548E+02  0.97332823693E+02  0.90215027802E+02 0.  0.
         24    2    1    2    0    0 -0.53169762834E+02  0.12259052802E+03  0.32434660302E+03  0.35979330899E+03  0.79969025641E+02 0.  0.
        -13    1    4    4    0    0 -0.78163770328E+01  0.25408919674E+02  0.11299182130E+02  0.28885644631E+02  0.00000000000E+00 0.  1.
         14    1    4    4    0    0 -0.45353385801E+02  0.97181608342E+02  0.31304742089E+03  0.33090766436E+03  0.00000000000E+00 0. -1.
        -13    1    3    3    0    0  0.29114743732E+02 -0.30181446470E+02  0.49392073322E+00  0.41938430721E+02  0.00000000000E+00 0. -1.
         13    1    3    3    0    0 -0.53241050345E+02  0.67229261587E+01  0.13737961815E+02  0.55394392973E+02  0.00000000000E+00 0.  1.
          1    1    1    2  501    0  0.77296069447E+02 -0.99132007705E+02  0.24355735178E+03  0.27408396690E+03  0.00000000000E+00 0. -1.
<scales pt_clust_5="13000.00000" pt_clust_6="13000.00000" pt_clust_7="13000.00000" pt_clust_8="13000.00000" pt_clust_9="128.09657"></scales>
<clustering>
<clus scale="   79.969">  5  6 -1 -1</clus>
<clus scale="   90.215">  7  8 -1 -1</clus>
<clus scale="   96.287">  1  7  2 -1</clus>
<clus scale="  128.097">  2  9  1 -1</clus>
<clus scale="  128.097">  2  5  1 -1</clus>
</clustering>
</event>
<event>
 9    2  0.4883225E-005  0.1098500E+03  0.7546771E-02  0.1266866E+00
         21   -1    0    0  501  502  0.00000000000E+00  0.00000000000E+00  0.18264168334E+03  0.18264168334E+03  0.00000000000E+00 0. -1.
          2   -1    0    0  502    0 -0.00000000000E+00 -0.00000000000E+00 -0.47993434371E+03  0.47993434371E+03  0.00000000000E+00 0. -1.
         24    2    1    2    0    0  0.42584955335E+02 -0.35172401919E+02 -0.42082272222E+03  0.43209454405E+03  0.81014536888E+02 0.  0.
         23    2    1    2    0    0 -0.20277966494E+02  0.49352409515E+02  0.53635009696E+01  0.10939469397E+03  0.95349754468E+02 0.  0.
        -13    1    3    3    0    0  0.35425419940E+02 -0.15724120823E+02 -0.65068288869E+02  0.75736982841E+02  0.00000000000E+00 0.  1.
         14    1    3    3    0    0  0.71595353954E+01 -0.19448281096E+02 -0.35575443335E+03  0.35635756121E+03  0.00000000000E+00 0. -1.
        -13    1    4    4    0    0 -0.47045475473E+02  0.55394667397E+02  0.23639975302E+02  0.76424435691E+02  0.00000000000E+00 0.  1.
         13    1    4    4    0    0  0.26767508978E+02 -0.60422578825E+01 -0.18276474332E+02  0.32970258283E+02  0.00000000000E+00 0. -1.
          1    1    1    2  501    0 -0.22306988841E+02 -0.14180007595E+02  0.11816656087E+03  0.12108678902E+03  0.00000000000E+00 0. -1.
<scales pt_clust_5="13000.00000" pt_clust_6="13000.00000" pt_clust_7="13000.00000" pt_clust_8="13000.00000" pt_clust_9="26.43245"></scales>
<clustering>
<clus scale="   26.432">  1  9  2 -1</clus>
<clus scale="   81.015">  5  6 -1 -1</clus>
<clus scale="   95.350">  7  8 -1 -1</clus>
<clus scale="   97.667">  2  5  1 -1</clus>
<clus scale="   26.432">  1  5  2 -1</clus>
</clustering>
</event>
<event>
 9    2  0.4883225E-005  0.1056536E+03  0.7546771E-02  0.1273300E+00
          4   -1    0    0  502    0 -0.00000000000E+00  0.00000000000E+00  0.38168262088E+03  0.38168262088E+03  0.00000000000E+00 0. -1.
         21   -1    0    0  501  502  0.00000000000E+00 -0.00000000000E+00 -0.62985754016E+02  0.62985754016E+02  0.00000000000E+00 0.  1.
         23    2    1    2    0    0  0.47060701945E+02 -0.51454496537E+01  0.24205585758E+03  0.26305431236E+03  0.91462274977E+02 0.  0.
         24    2    1    2    0    0 -0.78260545236E+02  0.72882994723E+01  0.17044472483E+02  0.11431050226E+03  0.81231426401E+02 0.  0.
        -13    1    4    4    0    0 -0.36741772612E+02 -0.36553381599E+02  0.14749616671E+02  0.53885608032E+02  0.00000000000E+00 0.  1.
         14    1    4    4    0    0 -0.41518772624E+02  0.43841681072E+02  0.22948558127E+01  0.60424894229E+02  0.00000000000E+00 0. -1.
        -11    1    3    3    0    0  0.52229146259E+02 -0.34161362112E+02  0.99265956626E+02  0.11725447763E+03  0.00000000000E+00 0. -1.
         11    1    3    3    0    0 -0.51684443141E+01  0.29015912459E+02  0.14278990096E+03  0.14579983473E+03  0.00000000000E+00 0.  1.
          3    1    1    2  501    0  0.31199843292E+02 -0.21428498186E+01  0.59596536800E+02  0.67303560272E+02  0.00000000000E+00 0. -1.
<scales pt_clust_5="13000.00000" pt_clust_6="13000.00000" pt_clust_7="13000.00000" pt_clust_8="13000.00000" pt_clust_9="31.27336"></scales>
<clustering>
<clus scale="   31.273">  2  9  1 -1</clus>
<clus scale="   81.231">  5  6 -1 -1</clus>
<clus scale="   91.462">  7  8 -1 -1</clus>
<clus scale="   96.932">  2  5  1 -1</clus>
<clus scale="   31.273">  2  5  1 -1</clus>
</clustering>
</event>
<event>
 9    2  0.4883225E-005  0.9412181E+02  0.7546771E-02  0.1303841E+00
         21   -1    0    0  501  502  0.00000000000E+00  0.00000000000E+00  0.58056500514E+02  0.58056500514E+02  0.00000000000E+00 0.  1.
          2   -1    0    0  502    0 -0.00000000000E+00 -0.00000000000E+00 -0.24444204505E+03  0.24444204505E+03  0.00000000000E+00 0. -1.
         24    2    1    2    0    0 -0.21441280132E+02  0.66689312854E+01 -0.16977079009E+03  0.18681508060E+03  0.74656212278E+02 0.  0.
         23    2    1    2    0    0  0.10690329542E+02  0.11374731889E+02 -0.11040404183E+02  0.93952609022E+02  0.91986599819E+02 0.  0.
        -11    1    3    3    0    0  0.11216047482E+02 -0.27046515876E+02 -0.85209696954E+02  0.90099978897E+02  0.00000000000E+00 0.  1.
         12    1    3    3    0    0 -0.32657327615E+02  0.33715447161E+02 -0.84561093136E+02  0.96715101699E+02  0.00000000000E+00 0. -1.
        -13    1    4    4    0    0 -0.32547029550E+00  0.49043326380E+02  0.90352118523E+01  0.49869718734E+02  0.00000000000E+00 0.  1.
         13    1    4    4    0    0  0.11015799838E+02 -0.37668594491E+02 -0.20075616035E+02  0.44082890288E+02  0.00000000000E+00 0. -1.
          1    1    1    2  501    0  0.10750950590E+02 -0.18043663175E+02 -0.55743502648E+01  0.21730855948E+02  0.00000000000E+00 0. -1.
<scales pt_clust_5="13000.00000" pt_clust_6="13000.00000" pt_clust_7="13000.00000" pt_clust_8="13000.00000" pt_clust_9="21.00373"></scales>
<clustering>
<clus scale="   21.004">  1  9  2 -1</clus>
<clus scale="   74.656">  5  6 -1 -1</clus>
<clus scale="   77.272">  2  5  1 -1</clus>
<clus scale="   91.987">  7  8 -1 -1</clus>
<clus scale="   21.004">  1  5  2 -1</clus>
</clustering>
</event>
<event>
 9    2  0.4883225E-005  0.2059428E+03  0.7546771E-02  0.1174313E+00
          2   -1    0    0  502    0 -0.00000000000E+00  0.00000000000E+00  0.10796103820E+04  0.10796103820E+04  0.00000000000E+00 0. -1.
         21   -1    0    0  501  502  0.00000000000E+00 -0.00000000000E+00 -0.60025657355E+02  0.60025657355E+02  0.00000000000E+00 0. -1.
         24    2    1    2    0    0  0.32762682643E+01 -0.67249485814E+02  0.14043245614E+03  0.17450333789E+03  0.78720473335E+02 0.  0.
         23    2    1    2    0    0 -0.60598562944E+02 -0.14279387073E+03  0.42203052139E+03  0.45880835010E+03  0.91285627521E+02 0.  0.
        -13    1    3    3    0    0 -0.28128905605E+02 -0.11765143838E+00  0.51996219023E+02  0.59117306815E+02  0.00000000000E+00 0.  1.
         14    1    3    3    0    0  0.31405173869E+02 -0.67131834375E+02  0.88436237119E+02  0.11538603108E+03  0.00000000000E+00 0. -1.
        -13    1    4    4    0    0 -0.42126973502E+02 -0.37612406160E+02  0.64793620618E+02  0.85951080658E+02  0.00000000000E+00 0.  1.
         13    1    4    4    0    0 -0.18471589441E+02 -0.10518146457E+03  0.35723690077E+03  0.37285726944E+03  0.00000000000E+00 0. -1.
          1    1    1    2  501    0  0.57322294679E+02  0.21004335655E+03  0.45712174715E+03  0.50632435139E+03  0.00000000000E+00 0. -1.
<scales pt_clust_5="13000.00000" pt_clust_6="13000.00000" pt_clust_7="13000.00000" pt_clust_8="13000.00000" pt_clust_9="184.60611"></scales>
<clustering>
<clus scale="   78.720">  5  6 -1 -1</clus>
<clus scale="   91.286">  7  8 -1 -1</clus>
<clus scale="  103.586">  1  5  2 -1</clus>
<clus scale="  184.606">  2  9  1 -1</clus>
<clus scale="  184.606">  2  5  1 -1</clus>
</clustering>
</event>
<event>
 9    2  0.4883225E-005  0.9889590E+02  0.7546771E-02  0.1294332E+00
          2   -1    0    0  502    0 -0.00000000000E+00  0.00000000000E+00  0.21109617334E+03  0.21109617334E+03  0.00000000000E+00 0. -1.
         21   -1    0    0  501  502  0.00000000000E+00 -0.00000000000E+00 -0.13936578338E+03  0.13936578338E+03  0.00000000000E+00 0. -1.
         24    2    1    2    0    0  0.42132129104E+02 -0.77935801605E+01  0.63111351164E+02  0.10390873068E+03  0.70555832290E+02 0.  0.
         23    2    1    2    0    0 -0.12101121568E+01 -0.57885730614E+01 -0.96203197383E+02  0.13320955593E+03  0.91949761576E+02 0.  0.
        -11    1    3    3    0    0 -0.77025594018E+01 -0.24880922495E+02  0.36626832184E+02  0.44943459607E+02  0.00000000000E+00 0.  1.
         12    1    3    3    0    0  0.49834688506E+02  0.17087342335E+02  0.26484518980E+02  0.58965271068E+02  0.00000000000E+00 0. -1.
        -11    1    4    4    0    0  0.63608274971E+01 -0.41083501049E+02 -0.86278772314E+02  0.95772338057E+02  0.00000000000E+00 0. -1.
         11    1    4    4    0    0 -0.75709396538E+01  0.35294927987E+02 -0.99244250689E+01  0.37437217870E+02  0.00000000000E+00 0.  1.
          1    1    1    2  501    0 -0.40922016948E+02  0.13582153222E+02  0.10482223619E+03  0.11334367012E+03  0.00000000000E+00 0. -1.
<scales pt_clust_5="13000.00000" pt_clust_6="13000.00000" pt_clust_7="13000.00000" pt_clust_8="13000.00000" pt_clust_9="43.11715"></scales>
<clustering>
<clus scale="   43.117">  2  9  1 -1</clus>
<clus scale="   70.556">  5  6 -1 -1</clus>
<clus scale="   79.396">  1  5  2 -1</clus>
<clus scale="   91.950">  7  8 -1 -1</clus>
<clus scale="   43.117">  2  5  1 -1</clus>
</clustering>
</event>
<event>
 9    2  0.4883225E-005  0.1217260E+03  0.7546771E-02  0.1240917E+00
         -1   -1    0    0    0  501 -0.00000000000E+00  0.00000000000E+00  0.21239044609E+03  0.21239044609E+03  0.00000000000E+00 0.  1.
         21   -1    0    0  501  502  0.00000000000E+00 -0.00000000000E+00 -0.18494302545E+03  0.18494302545E+03  0.00000000000E+00 0.  1.
         23    2    1    2    0    0 -0.83544832269E+02  0.33422199598E+02  0.24093934812E+02  0.12913506685E+03  0.89434698919E+02 0.  0.
         24    2    1    2    0    0  0.69603954745E+02  0.83985950206E+02  0.33283867526E+02  0.14623591268E+03  0.91535654106E+02 0.  0.
        -11    1    4    4    0    0  0.87329682242E+02  0.44572937934E+02  0.31502494772E+02  0.10298362673E+03  0.00000000000E+00 0.  1.
         12    1    4    4    0    0 -0.17725727498E+02  0.39413012272E+02  0.17813727543E+01  0.43252285957E+02  0.00000000000E+00 0. -1.
        -13    1    3    3    0    0 -0.64975813397E+02  0.54458674093E+02  0.43235982031E+02  0.95168028522E+02  0.00000000000E+00 0.  1.
         13    1    3    3    0    0 -0.18569018872E+02 -0.21036474495E+02 -0.19142047219E+02  0.33967038328E+02  0.00000000000E+00 0. -1.
         -2    1    1    2    0  502  0.13940877525E+02 -0.11740814980E+03 -0.29930381694E+02  0.12196249200E+03  0.00000000000E+00 0.  1.
<scales pt_clust_5="13000.00000" pt_clust_6="13000.00000" pt_clust_7="13000.00000" pt_clust_8="13000.00000" pt_clust_9="118.23291"></scales>
<clustering>
<clus scale="   89.435">  7  8 -1 -1</clus>
<clus scale="   91.536">  5  6 -1 -1</clus>
<clus scale="  118.233">  2  9  1 -1</clus>
<clus scale="  120.154">  1  7  2 -1</clus>
<clus scale="  118.233">  2  5  1 -1</clus>
</clustering>
</event>
<event>
 9    2  0.4883225E-005  0.9072420E+02  0.7546771E-02  0.1304507E+00
          2   -1    0    0  502    0 -0.00000000000E+00  0.00000000000E+00  0.13062193571E+03  0.13062193571E+03  0.00000000000E+00 0. -1.
         21   -1    0    0  501  502  0.00000000000E+00 -0.00000000000E+00 -0.43665912824E+03  0.43665912824E+03  0.00000000000E+00 0. -1.
         24    2    1    2    0    0 -0.22494471365E+02 -0.82860717323E+01  0.73196005028E+02  0.11206142622E+03  0.81396854163E+02 0.  0.
         23    2    1    2    0    0 -0.30366579644E+01  0.58581258115E+02 -0.41705329723E+02  0.11301135920E+03  0.87127766447E+02 0.  0.
        -13    1    3    3    0    0  0.10266511857E+01 -0.24769596732E+02 -0.79082011469E+01  0.26021655987E+02  0.00000000000E+00 0.  1.
         14    1    3    3    0    0 -0.23521122550E+02  0.16483524999E+02  0.81104206175E+02  0.86039770233E+02  0.00000000000E+00 0. -1.
        -11    1    4    4    0    0  0.41367099124E+02  0.23999646387E+02 -0.11717170305E+02  0.49239333836E+02  0.00000000000E+00 0.  1.
         11    1    4    4    0    0 -0.44403757088E+02  0.34581611727E+02 -0.29988159419E+02  0.63772025360E+02  0.00000000000E+00 0. -1.
          1    1    1    2  501    0  0.25531129329E+02 -0.50295186382E+02 -0.33752786783E+03  0.34220827854E+03  0.00000000000E+00 0. -1.
<scales pt_clust_5="13000.00000" pt_clust_6="13000.00000" pt_clust_7="13000.00000" pt_clust_8="13000.00000" pt_clust_9="56.40429"></scales>
<clustering>
<clus scale="   56.404">  2  9  1 -1</clus>
<clus scale="   81.397">  5  6 -1 -1</clus>
<clus scale="   85.235">  1  5  2 -1</clus>
<clus scale="   87.128">  7  8 -1 -1</clus>
<clus scale="   56.404">  2  5  1 -1</clus>
</clustering>
</event>
<event>
 9    2  0.4883225E-005  0.1327477E+03  0.7546771E-02  0.1232722E+00
          2   -1    0    0  502    0 -0.00000000000E+00  0.00000000000E+00  0.17271711884E+03  0.17271711884E+03  0.00000000000E+00 0. -1.
         21   -1    0    0  501  502  0.00000000000E+00 -0.00000000000E+00 -0.40024631989E+03  0.40024631989E+03  0.00000000000E+00 0. -1.
         24    2    1    2    0    0 -0.66805090395E+02 -0.31428601959E+02  0.91541662233E+02  0.14273559145E+03  0.80888169826E+02 0.  0.
         23    2    1    2    0    0  0.54441422383E+02 -0.80019575812E+02 -0.28218629585E+03  0.31218536370E+03  0.91997797572E+02 0.  0.
        -13    1    3    3    0    0  0.16321664958E+02 -0.15910850631E+02  0.88204143464E+01  0.24440777894E+02  0.00000000000E+00 0.  1.
         14    1    3    3    0    0 -0.83126755353E+02 -0.15517751327E+02  0.82721247886E+02  0.11829481355E+03  0.00000000000E+00 0. -1.
        -13    1    4    4    0    0  0.31015012270E+02 -0.67600727114E+02 -0.27476253003E+03  0.28465107975E+03  0.00000000000E+00 0. -1.
         13    1    4    4    0    0  0.23426410113E+02 -0.12418848698E+02 -0.74237658177E+01  0.27534283950E+02  0.00000000000E+00 0.  1.
          1    1    1    2  501    0  0.12363668012E+02  0.11144817777E+03 -0.36884567435E+02  0.11804248358E+03  0.00000000000E+00 0. -1.
<scales pt_clust_5="13000.00000" pt_clust_6="13000.00000" pt_clust_7="13000.00000" pt_clust_8="13000.00000" pt_clust_9="95.69936"></scales>
<clustering>
<clus scale="   80.888">  5  6 -1 -1</clus>
<clus scale="   91.998">  7  8 -1 -1</clus>
<clus scale="  109.515">  1  5  2 -1</clus>
<clus scale="   95.699">  2  9  1 -1</clus>
<clus scale="   95.699">  2  5  1 -1</clus>
</clustering>
</event>
<event>
 9    2  0.4883225E-005  0.9865725E+02  0.7546771E-02  0.1287177E+00
         21   -1    0    0  501  502  0.00000000000E+00  0.00000000000E+00  0.91569677807E+02  0.91569677807E+02  0.00000000000E+00 0. -1.
         -1   -1    0    0    0  501 -0.00000000000E+00 -0.00000000000E+00 -0.16257032372E+03  0.16257032372E+03  0.00000000000E+00 0.  1.
         24    2    1    2    0    0  0.96268648886E+01  0.46630516541E+02 -0.43274682111E+02  0.10494684873E+03  0.82909959275E+02 0.  0.
         23    2    1    2    0    0  0.32252631235E+02 -0.25683409814E+02 -0.20245260658E+02  0.10177338482E+03  0.90818949104E+02 0.  0.
        -11    1    3    3    0    0 -0.27585703772E+02  0.49320475659E+02 -0.16004522776E+02  0.58733509355E+02  0.00000000000E+00 0.  1.
         12    1    3    3    0    0  0.37212568661E+02 -0.26899591184E+01 -0.27270159336E+02  0.46213339379E+02  0.00000000000E+00 0. -1.
        -13    1    4    4    0    0 -0.21465632829E+02 -0.34686184505E+02 -0.23735818636E+02  0.47194214419E+02  0.00000000000E+00 0.  1.
         13    1    4    4    0    0  0.53718264064E+02  0.90027746918E+01  0.34905579775E+01  0.54579170396E+02  0.00000000000E+00 0. -1.
         -2    1    1    2    0  502 -0.41879496124E+02 -0.20947106727E+02 -0.74807031479E+01  0.47419767981E+02  0.00000000000E+00 0.  1.
<scales pt_clust_5="13000.00000" pt_clust_6="13000.00000" pt_clust_7="13000.00000" pt_clust_8="13000.00000" pt_clust_9="46.82599"></scales>
<clustering>
<clus scale="   46.826">  1  9  2 -1</clus>
<clus scale="   82.910">  5  6 -1 -1</clus>
<clus scale="   90.819">  7  8 -1 -1</clus>
<clus scale="   91.429">  2  5  1 -1</clus>
<clus scale="   46.826">  1  5  2 -1</clus>
</clustering>
</event>
<event>
 9    2  0.4883225E-005  0.1287458E+03  0.7546771E-02  0.1231859E+00
          2   -1    0    0  502    0 -0.00000000000E+00  0.00000000000E+00  0.12047694893E+03  0.12047694893E+03  0.00000000000E+00 0. -1.
         21   -1    0    0  501  502  0.00000000000E+00 -0.00000000000E+00 -0.32883509851E+03  0.32883509851E+03  0.00000000000E+00 0. -1.
         23    2    1    2    0    0 -0.80963608323E+02  0.83444571549E+02  0.18027750358E+02  0.14886031740E+03  0.91193705475E+02 0.  0.
         24    2    1    2    0    0 -0.33418838085E+01 -0.64586176105E+02 -0.83679570531E+02  0.13363401055E+03  0.81689876489E+02 0.  0.
        -13    1    4    4    0    0  0.21437681758E+01 -0.69820912543E+02 -0.24583368064E+02  0.74053342637E+02  0.00000000000E+00 0.  1.
         14    1    4    4    0    0 -0.54856519844E+01  0.52347364381E+01 -0.59096202467E+02  0.59580667916E+02  0.00000000000E+00 0. -1.
        -13    1    3    3    0    0 -0.43000564057E+02  0.62316833935E+00  0.35895598648E+02  0.56017237081E+02  0.00000000000E+00 0. -1.
         13    1    3    3    0    0 -0.37963044267E+02  0.82821403210E+02 -0.17867848290E+02  0.92843080314E+02  0.00000000000E+00 0.  1.
          1    1    1    2  501    0  0.84305492132E+02 -0.18858395445E+02 -0.14270632941E+03  0.16681771949E+03  0.00000000000E+00 0. -1.
<scales pt_clust_5="13000.00000" pt_clust_6="13000.00000" pt_clust_7="13000.00000" pt_clust_8="13000.00000" pt_clust_9="86.38898"></scales>
<clustering>
<clus scale="   81.690">  5  6 -1 -1</clus>
<clus scale="   86.389">  2  9  1 -1</clus>
<clus scale="   91.194">  7  8 -1 -1</clus>
<clus scale="  122.198">  2  5  1 -1</clus>
<clus scale="   86.389">  2  5  1 -1</clus>
</clustering>
</event>
<event>
 9    2  0.4883225E-005  0.1742611E+03  0.7546771E-02  0.1198548E+00
         21   -1    0    0  501  502  0.00000000000E+00  0.00000000000E+00  0.76590526624E+02  0.76590526624E+02  0.00000000000E+00 0. -1.
          2   -1    0    0  502    0 -0.00000000000E+00 -0.00000000000E+00 -0.94157968280E+03  0.94157968280E+03  0.00000000000E+00 0. -1.
         24    2    1    2    0    0  0.57172383645E+02  0.27730726836E+02 -0.51110289014E+03  0.52074695480E+03  0.76899622628E+02 0.  0.
         23    2    1    2    0    0 -0.22674167082E+02 -0.16797300588E+03 -0.26771277903E+03  0.32924509421E+03  0.89460334494E+02 0.  0.
        -13    1    3    3    0    0  0.11149067594E+02  0.47528791446E+02 -0.28592851971E+03  0.29006620987E+03  0.00000000000E+00 0.  1.
         14    1    3    3    0    0  0.46023316050E+02 -0.19798064610E+02 -0.22517437043E+03  0.23068074493E+03  0.00000000000E+00 0. -1.
        -13    1    4    4    0    0 -0.57428784039E+02 -0.10019277908E+03 -0.16179986993E+03  0.19878595555E+03  0.00000000000E+00 0.  1.
         13    1    4    4    0    0  0.34754616956E+02 -0.67780226799E+02 -0.10591290910E+03  0.13045913865E+03  0.00000000000E+00 0. -1.
          1    1    1    2  501    0 -0.34498216563E+02  0.14024227905E+03 -0.86173487007E+02  0.16817816042E+03  0.00000000000E+00 0. -1.
<scales pt_clust_5="13000.00000" pt_clust_6="13000.00000" pt_clust_7="13000.00000" pt_clust_8="13000.00000" pt_clust_9="149.54522"></scales>
<clustering>
<clus scale="   76.900">  5  6 -1 -1</clus>
<clus scale="   89.460">  7  8 -1 -1</clus>
<clus scale="   99.756">  2  5  1 -1</clus>
<clus scale="  149.545">  1  9  2 -1</clus>
<clus scale="  149.545">  1  5  2 -1</clus>
</clustering>
</event>
<event>
 9    2  0.4883225E-005  0.9308637E+02  0.7546771E-02  0.1301564E+00
          2   -1    0    0  502    0 -0.00000000000E+00  0.00000000000E+00  0.54084592670E+03  0.54084592670E+03  0.00000000000E+00 0. -1.
         21   -1    0    0  501  502  0.00000000000E+00 -0.00000000000E+00 -0.65930084562E+02  0.65930084562E+02  0.00000000000E+00 0. -1.
         24    2    1    2    0    0 -0.15774658639E+02 -0.21816973912E+02  0.31519854109E+03  0.32674706520E+03  0.81784497940E+02 0.  0.
         23    2    1    2    0    0  0.30515561720E+01 -0.69075644386E+01  0.20511289004E+03  0.22482264262E+03  0.91743645721E+02 0.  0.
        -13    1    3    3    0    0  0.15857079823E+02  0.19951966466E+02  0.46869759134E+02  0.53350747583E+02  0.00000000000E+00 0.  1.
         14    1    3    3    0    0 -0.31631738462E+02 -0.41768940379E+02  0.26832878196E+03  0.27339631762E+03  0.00000000000E+00 0. -1.
        -13    1    4    4    0    0  0.37765734048E+02  0.99176459834E+01  0.42571965195E+02  0.57766621769E+02  0.00000000000E+00 0.  1.
         13    1    4    4    0    0 -0.34714177876E+02 -0.16825210422E+02  0.16254092485E+03  0.16705602085E+03  0.00000000000E+00 0. -1.
          1    1    1    2  501    0  0.12723102467E+02  0.28724538351E+02 -0.45395588996E+02  0.55206303446E+02  0.00000000000E+00 0. -1.
<scales pt_clust_5="13000.00000" pt_clust_6="13000.00000" pt_clust_7="13000.00000" pt_clust_8="13000.00000" pt_clust_9="31.41618"></scales>
<clustering>
<clus scale="   31.416">  2  9  1 -1</clus>
<clus scale="   81.784">  5  6 -1 -1</clus>
<clus scale="   83.288">  1  5  2 -1</clus>
<clus scale="   91.744">  7  8 -1 -1</clus>
<clus scale="   31.416">  2  5  1 -1</clus>
</clustering>
</event>
<event>
 9    2  0.4883225E-005  0.9313461E+02  0.7546771E-02  0.1295875E+00
         21   -1    0    0  501  502  0.00000000000E+00  0.00000000000E+00  0.18230529588E+03  0.18230529588E+03  0.00000000000E+00 0.  1.
         -1   -1    0    0    0  501 -0.00000000000E+00 -0.00000000000E+00 -0.12612028827E+03  0.12612028827E+03  0.00000000000E+00 0.  1.
         23    2    1    2    0    0  0.34365083768E+01  0.17541597215E+02 -0.57446652047E+02  0.10927462485E+03  0.91221206866E+02 0.  0.
         24    2    1    2    0    0 -0.43423149648E+02  0.25427156757E+02  0.72610708097E+02  0.12754115714E+03  0.91990877855E+02 0.  0.
        -13    1    4    4    0    0 -0.65514277150E+02  0.13741366778E+02  0.20931156324E+02  0.70136003425E+02  0.00000000000E+00 0.  1.
         14    1    4    4    0    0  0.22091127501E+02  0.11685789979E+02  0.51679551774E+02  0.57405153717E+02  0.00000000000E+00 0. -1.
        -13    1    3    3    0    0  0.31117767440E+02 -0.60646972242E+01  0.94877110364E+01  0.33092486512E+02  0.00000000000E+00 0. -1.
         13    1    3    3    0    0 -0.27681259063E+02  0.23606294439E+02 -0.66934363084E+02  0.76182138339E+02  0.00000000000E+00 0.  1.
         -2    1    1    2    0  502  0.39986641271E+02 -0.42968753972E+02  0.41020951558E+02  0.71609802156E+02  0.00000000000E+00 0.  1.
<scales pt_clust_5="13000.00000" pt_clust_6="13000.00000" pt_clust_7="13000.00000" pt_clust_8="13000.00000" pt_clust_9="58.69621"></scales>
<clustering>
<clus scale="   58.696">  1  9  2 -1</clus>
<clus scale="   91.221">  7  8 -1 -1</clus>
<clus scale="   91.991">  5  6 -1 -1</clus>
<clus scale="   92.374">  2  7  1 -1</clus>
<clus scale="   58.696">  1  5  2 -1</clus>
</clustering>
</event>
<event>
 9    2  0.4883225E-005  0.9129732E+02  0.7546771E-02  0.1305668E+00
         21   -1    0    0  501  502  0.00000000000E+00  0.00000000000E+00  0.12661628031E+03  0.12661628031E+03  0.00000000000E+00 0. -1.
          2   -1    0    0  502    0 -0.00000000000E+00 -0.00000000000E+00 -0.12034424123E+03  0.12034424123E+03  0.00000000000E+00 0. -1.
         24    2    1    2    0    0 -0.20560860305E+02 -0.25933539642E+02 -0.14453917788E+02  0.87958988508E+02  0.80203307071E+02 0.  0.
         23    2    1    2    0    0 -0.76179848641E+01 -0.15911432878E+02  0.46173143588E+02  0.10249836186E+03  0.89792803754E+02 0.  0.
        -11    1    3    3    0    0  0.14229659862E+02 -0.43073087904E+02  0.29313704640E+01  0.45457310239E+02  0.00000000000E+00 0.  1.
         12    1    3    3    0    0 -0.34790520167E+02  0.17139548261E+02 -0.17385288252E+02  0.42501678269E+02  0.00000000000E+00 0. -1.
        -11    1    4    4    0    0  0.23742761481E+02  0.92422413333E+01 -0.14799820704E+02  0.29464766085E+02  0.00000000000E+00 0.  1.
         11    1    4    4    0    0 -0.31360746345E+02 -0.25153674211E+02  0.60972964292E+02  0.73033595777E+02  0.00000000000E+00 0. -1.
          1    1    1    2  501    0  0.28178845169E+02  0.41844972520E+02 -0.25447186724E+02  0.56503171172E+02  0.00000000000E+00 0. -1.
<scales pt_clust_5="13000.00000" pt_clust_6="13000.00000" pt_clust_7="13000.00000" pt_clust_8="13000.00000" pt_clust_9="50.44850"></scales>
<clustering>
<clus scale="   50.449">  1  9  2 -1</clus>
<clus scale="   80.203">  5  6 -1 -1</clus>
<clus scale="   81.884">  2  5  1 -1</clus>
<clus scale="   89.793">  7  8 -1 -1</clus>
<clus scale="   50.449">  1  5  2 -1</clus>
</clustering>
</event>
<event>
 9    2  0.4883225E-005  0.1070731E+03  0.7546771E-02  0.1271152E+00
         -3   -1    0    0    0  501 -0.00000000000E+00  0.00000000000E+00  0.39213510195E+03  0.39213510195E+03  0.00000000000E+00 0.  1.
         21   -1    0    0  501  502  0.00000000000E+00 -0.00000000000E+00 -0.64861470967E+02  0.64861470967E+02  0.00000000000E+00 0. -1.
         23    2    1    2    0    0  0.25324218179E+02  0.54301760746E+02  0.15584906336E+03  0.19085058885E+03  0.92439274473E+02 0.  0.
         24    2    1    2    0    0 -0.80201931792E+02  0.15473655214E+02  0.94048427355E+02  0.14838674152E+03  0.80633333691E+02 0.  0.
        -13    1    4    4    0    0 -0.61933229161E+02 -0.37302767280E+01  0.10314119674E+03  0.12036505433E+03  0.00000000000E+00 0.  1.
         14    1    4    4    0    0 -0.18268702631E+02  0.19203931942E+02 -0.90927693859E+01  0.28021687190E+02  0.00000000000E+00 0. -1.
        -13    1    3    3    0    0 -0.22781462724E+02  0.50914900325E+02  0.51593063516E+02  0.75981355094E+02  0.00000000000E+00 0.  1.
         13    1    3    3    0    0  0.48105680902E+02  0.33868604216E+01  0.10425599985E+03  0.11486923375E+03  0.00000000000E+00 0. -1.
         -4    1    1    2    0  502  0.54877713614E+02 -0.69775415960E+02  0.77376140266E+02  0.11775924255E+03  0.00000000000E+00 0.  1.
<scales pt_clust_5="13000.00000" pt_clust_6="13000.00000" pt_clust_7="13000.00000" pt_clust_8="13000.00000" pt_clust_9="88.77033"></scales>
<clustering>
<clus scale="   80.633">  5  6 -1 -1</clus>
<clus scale="   88.770">  2  9  1 -1</clus>
<clus scale="   92.439">  7  8 -1 -1</clus>
<clus scale="   97.064">  2  5  1 -1</clus>
<clus scale="   88.770">  2  5  1 -1</clus>
</clustering>
</event>
<event>
 9    2  0.4883225E-005  0.1010319E+03  0.7546771E-02  0.1283606E+00
         -1   -1    0    0    0  501 -0.00000000000E+00  0.00000000000E+00  0.22614781989E+03  0.22614781989E+03  0.00000000000E+00 0.  1.
         21   -1    0    0  501  502  0.00000000000E+00 -0.00000000000E+00 -0.63327223121E+03  0.63327223121E+03  0.00000000000E+00 0.  1.
         24    2    1    2    0    0 -0.41353552834E+02  0.15704266543E+02  0.20651995464E+03  0.22589056271E+03  0.80120623677E+02 0.  0.
         23    2    1    2    0    0 -0.44203585114E+01 -0.40979304597E+02 -0.32147327877E+03  0.33671637766E+03  0.91290782921E+02 0.  0.
        -13    1    3    3    0    0 -0.27350047470E+02 -0.18433507083E+02  0.17275408742E+03  0.17587436994E+03  0.00000000000E+00 0.  1.
         14    1    3    3    0    0 -0.14003505365E+02  0.34137773625E+02  0.33765867213E+02  0.50016192771E+02  0.00000000000E+00 0. -1.
        -13    1    4    4    0    0  0.31945355709E+02 -0.52823658858E+02 -0.20832782739E+03  0.21728167974E+03  0.00000000000E+00 0. -1.
         13    1    4    4    0    0 -0.36365714220E+02  0.11844354261E+02 -0.11314545139E+03  0.11943469792E+03  0.00000000000E+00 0.  1.
         -2    1    1    2    0  502  0.45773911346E+02  0.25275038054E+02 -0.29217108719E+03  0.29681311073E+03  0.00000000000E+00 0.  1.
<scales pt_clust_5="13000.00000" pt_clust_6="13000.00000" pt_clust_7="13000.00000" pt_clust_8="13000.00000" pt_clust_9="52.28842"></scales>
<clustering>
<clus scale="   52.288">  2  9  1 -1</clus>
<clus scale="   80.121">  5  6 -1 -1</clus>
<clus scale="   91.065">  1  5  2 -1</clus>
<clus scale="   91.291">  7  8 -1 -1</clus>
<clus scale="   52.288">  2  5  1 -1</clus>
</clustering>
</event>
<event>
 9    2  0.4883225E-005  0.1808286E+03  0.7546771E-02  0.1175283E+00
         21   -1    0    0  501  502  0.00000000000E+00  0.00000000000E+00  0.51209570271E+03  0.51209570271E+03  0.00000000000E+00 0.  1.
         -3   -1    0    0    0  501 -0.00000000000E+00 -0.00000000000E+00 -0.13849601978E+03  0.13849601978E+03  0.00000000000E+00 0.  1.
         24    2    1    2    0    0 -0.11126690530E+03 -0.59026565966E+02  0.12155753890E+03  0.19282814506E+03  0.80882622091E+02 0.  0.
         23    2    1    2    0    0 -0.66325221573E+02  0.13569164643E+03  0.17786835583E+03  0.25059637698E+03  0.91379068831E+02 0.  0.
        -13    1    3    3    0    0 -0.54442365163E+02 -0.70525445882E+02  0.90751072323E+02  0.12717533868E+03  0.00000000000E+00 0.  1.
         14    1    3    3    0    0 -0.56824540142E+02  0.11498879916E+02  0.30806466580E+02  0.65652806374E+02  0.00000000000E+00 0. -1.
        -11    1    4    4    0    0 -0.23282229892E+02  0.10412383568E+03  0.16364649001E+03  0.19535610837E+03  0.00000000000E+00 0.  1.
         11    1    4    4    0    0 -0.43042991681E+02  0.31567810752E+02  0.14221865824E+02  0.55240268610E+02  0.00000000000E+00 0. -1.
         -4    1    1    2    0  502  0.17759212688E+03 -0.76665080466E+02  0.74173788195E+02  0.20716720046E+03  0.00000000000E+00 0.  1.
<scales pt_clust_5="13000.00000" pt_clust_6="13000.00000" pt_clust_7="13000.00000" pt_clust_8="13000.00000" pt_clust_9="156.04125"></scales>
<clustering>
<clus scale="   80.883">  5  6 -1 -1</clus>
<clus scale="   91.379">  7  8 -1 -1</clus>
<clus scale="  149.688">  2  5  1 -1</clus>
<clus scale="  156.041">  1  9  2 -1</clus>
<clus scale="  156.041">  1  5  2 -1</clus>
</clustering>
</event>
<event>
 9    2  0.4883225E-005  0.1168243E+03  0.7546771E-02  0.1251616E+00
         -1   -1    0    0    0  501 -0.00000000000E+00  0.00000000000E+00  0.32266401178E+02  0.32266401178E+02  0.00000000000E+00 0.  1.
         21   -1    0    0  501  502  0.00000000000E+00 -0.00000000000E+00 -0.54084520806E+03  0.54084520806E+03  0.00000000000E+00 0.  1.
         23    2    1    2    0    0 -0.35515648109E+02 -0.52310681419E+02 -0.17606921040E+03  0.20786846384E+03  0.90615466438E+02 0.  0.
         24    2    1    2    0    0  0.40020714891E+02  0.80937829645E+02 -0.28197614108E+03  0.30698991066E+03  0.81115172568E+02 0.  0.
        -11    1    4    4    0    0  0.32435715198E+02  0.73086571342E+02 -0.28471887211E+03  0.29573393222E+03  0.00000000000E+00 0.  1.
         12    1    4    4    0    0  0.75849996930E+01  0.78512583028E+01  0.27427310246E+01  0.11255978445E+02  0.00000000000E+00 0. -1.
        -11    1    3    3    0    0 -0.34725728448E+02  0.15824330323E+02 -0.37759496827E+02  0.53684869815E+02  0.00000000000E+00 0.  1.
         11    1    3    3    0    0 -0.78991966038E+00 -0.68135011742E+02 -0.13830971358E+03  0.15418359403E+03  0.00000000000E+00 0. -1.
         -2    1    1    2    0  502 -0.45050667826E+01 -0.28627148226E+02 -0.50533455397E+02  0.58253234731E+02  0.00000000000E+00 0.  1.
<scales pt_clust_5="13000.00000" pt_clust_6="13000.00000" pt_clust_7="13000.00000" pt_clust_8="13000.00000" pt_clust_9="28.97948"></scales>
<clustering>
<clus scale="   28.979">  2  9  1 -1</clus>
<clus scale="   81.115">  5  6 -1 -1</clus>
<clus scale="   90.615">  7  8 -1 -1</clus>
<clus scale="  109.619">  2  5  1 -1</clus>
<clus scale="   28.979">  2  5  1 -1</clus>
</clustering>
</event>
<event>
 9    2  0.4883225E-005  0.1215464E+03  0.7546771E-02  0.1248115E+00
          2   -1    0    0  502    0 -0.00000000000E+00  0.00000000000E+00  0.21677144056E+03  0.21677144056E+03  0.00000000000E+00 0. -1.
         21   -1    0    0  501  502  0.00000000000E+00 -0.00000000000E+00 -0.10229863440E+03  0.10229863440E+03  0.00000000000E+00 0.  1.
         24    2    1    2    0    0  0.11381664584E+02 -0.72875547513E+02  0.12770826222E+03  0.16433971484E+03  0.72510371138E+02 0.  0.
         23    2    1    2    0    0  0.10812475421E+02  0.81391181454E+02  0.28410010359E+01  0.12603282809E+03  0.95575982473E+02 0.  0.
        -13    1    3    3    0    0  0.35141805467E+02 -0.42461151175E+02  0.38766483551E+02  0.67384984214E+02  0.00000000000E+00 0.  1.
         14    1    3    3    0    0 -0.23760140883E+02 -0.30414396338E+02  0.88941778665E+02  0.96954730629E+02  0.00000000000E+00 0. -1.
        -13    1    4    4    0    0  0.51180452055E+02  0.47039986513E+02  0.16185379396E+02  0.71373422994E+02  0.00000000000E+00 0.  1.
         13    1    4    4    0    0 -0.40367976633E+02  0.34351194941E+02 -0.13344378361E+02  0.54659405094E+02  0.00000000000E+00 0. -1.
          1    1    1    2  501    0 -0.22194140006E+02 -0.85156339409E+01 -0.16076457093E+02  0.28697532031E+02  0.00000000000E+00 0. -1.
<scales pt_clust_5="13000.00000" pt_clust_6="13000.00000" pt_clust_7="13000.00000" pt_clust_8="13000.00000" pt_clust_9="23.77175"></scales>
<clustering>
<clus scale="   23.772">  2  9  1 -1</clus>
<clus scale="   72.510">  5  6 -1 -1</clus>
<clus scale="   95.576">  7  8 -1 -1</clus>
<clus scale="  104.386">  1  5  2 -1</clus>
<clus scale="   23.772">  2  5  1 -1</clus>
</clustering>
</event>
<event>
 9    2  0.4883225E-005  0.2417536E+03  0.7546771E-02  0.1133302E+00
         21   -1    0    0  501  502  0.00000000000E+00  0.00000000000E+00  0.21374049395E+03  0.21374049395E+03  0.00000000000E+00 0. -1.
          2   -1    0    0  502    0 -0.00000000000E+00 -0.00000000000E+00 -0.10160074651E+04  0.10160074651E+04  0.00000000000E+00 0. -1.
         24    2    1    2    0    0 -0.35376102653E+02  0.14370698708E+03 -0.70836789751E+03  0.72805475642E+03  0.79846623875E+02 0.  0.
         23    2    1    2    0    0  0.18756443262E+03  0.79381273065E+02 -0.42916589047E+02  0.22686803398E+03  0.90252248321E+02 0.  0.
        -13    1    3    3    0    0 -0.39374192413E+02  0.40206397300E+02 -0.15102404919E+03  0.16116806397E+03  0.00000000000E+00 0.  1.
         14    1    3    3    0    0  0.39980897601E+01  0.10350058978E+03 -0.55734384832E+03  0.56688669244E+03  0.00000000000E+00 0. -1.
        -11    1    4    4    0    0  0.90844687141E+02  0.86940961076E+02 -0.22995268975E+02  0.12782906669E+03  0.00000000000E+00 0. -1.
         11    1    4    4    0    0  0.96719745482E+02 -0.75596880108E+01 -0.19921320072E+02  0.99038967292E+02  0.00000000000E+00 0.  1.
          1    1    1    2  501    0 -0.15218832997E+03 -0.22308826014E+03 -0.50982484596E+02  0.27482516866E+03  0.00000000000E+00 0. -1.
<scales pt_clust_5="13000.00000" pt_clust_6="13000.00000" pt_clust_7="13000.00000" pt_clust_8="13000.00000" pt_clust_9="224.27528"></scales>
<clustering>
<clus scale="   79.847">  5  6 -1 -1</clus>
<clus scale="   90.252">  7  8 -1 -1</clus>
<clus scale="  168.163">  2  5  1 -1</clus>
<clus scale="  224.275">  1  9  2 -1</clus>
<clus scale="  224.275">  1  5  2 -1</clus>
</clustering>
</event>
<event>
 9    2  0.4883225E-005  0.9770290E+02  0.7546771E-02  0.1296682E+00
          2   -1    0    0  502    0 -0.00000000000E+00  0.00000000000E+00  0.58110750237E+02  0.58110750237E+02  0.00000000000E+00 0. -1.
         21   -1    0    0  501  502  0.00000000000E+00 -0.00000000000E+00 -0.21426446649E+03  0.21426446649E+03  0.00000000000E+00 0.  1.
         24    2    1    2    0    0  0.14110942923E+02  0.14384258727E+02 -0.14991559715E+02  0.79875197543E+02  0.75823971872E+02 0.  0.
         23    2    1    2    0    0 -0.30026561383E+02 -0.37213293916E+00 -0.80729021560E+02  0.12845464165E+03  0.95297886483E+02 0.  0.
        -13    1    3    3    0    0  0.15654110093E+02 -0.26755451033E+02  0.89326090826E+01  0.32259833040E+02  0.00000000000E+00 0.  1.
         14    1    3    3    0    0 -0.15431671699E+01  0.41139709760E+02 -0.23924168798E+02  0.47615364502E+02  0.00000000000E+00 0. -1.
        -13    1    4    4    0    0 -0.61154857218E+02  0.13806682061E+01 -0.28172336297E+02  0.67346145684E+02  0.00000000000E+00 0. -1.
         13    1    4    4    0    0  0.31128295835E+02 -0.17528011453E+01 -0.52556685264E+02  0.61108495967E+02  0.00000000000E+00 0.  1.
          1    1    1    2  501    0  0.15915618460E+02 -0.14012125788E+02 -0.60433134973E+02  0.64045377528E+02  0.00000000000E+00 0. -1.
<scales pt_clust_5="13000.00000" pt_clust_6="13000.00000" pt_clust_7="13000.00000" pt_clust_8="13000.00000" pt_clust_9="21.20487"></scales>
<clustering>
<clus scale="   21.205">  2  9  1 -1</clus>
<clus scale="   75.824">  5  6 -1 -1</clus>
<clus scale="   78.825">  1  5  2 -1</clus>
<clus scale="   95.298">  7  8 -1 -1</clus>
<clus scale="   21.205">  2  5  1 -1</clus>
</clustering>
</event>
<event>
 9    2  0.4883225E-005  0.9839085E+02  0.7546771E-02  0.1284197E+00
         -1   -1    0    0    0  501 -0.00000000000E+00  0.00000000000E+00  0.13419366116E+03  0.13419366116E+03  0.00000000000E+00 0.  1.
         21   -1    0    0  501  502  0.00000000000E+00 -0.00000000000E+00 -0.67443233772E+03  0.67443233772E+03  0.00000000000E+00 0.  1.
         24    2    1    2    0    0  0.87391457601E+01 -0.44162599309E+02  0.88636146474E+02  0.13449790071E+03  0.90590347091E+02 0.  0.
         23    2    1    2    0    0 -0.43633383431E+02 -0.46565169503E+02 -0.15868309385E+03  0.19399332745E+03  0.91547253714E+02 0.  0.
        -11    1    3    3    0    0 -0.35893359035E+01 -0.36196591977E+02  0.10582084366E+03  0.11189784428E+03  0.00000000000E+00 0.  1.
         12    1    3    3    0    0  0.12328481664E+02 -0.79660073319E+01 -0.17184697184E+02  0.22600056421E+02  0.00000000000E+00 0. -1.
        -11    1    4    4    0    0 -0.14694027562E+02 -0.39641586092E+02 -0.15870259116E+03  0.16423727419E+03  0.00000000000E+00 0.  1.
         11    1    4    4    0    0 -0.28939355870E+02 -0.69235834105E+01  0.19497311365E-01  0.29756053259E+02  0.00000000000E+00 0. -1.
         -2    1    1    2    0  502  0.34894237671E+02  0.90727768811E+02 -0.47019172919E+03  0.48013477072E+03  0.00000000000E+00 0.  1.
<scales pt_clust_5="13000.00000" pt_clust_6="13000.00000" pt_clust_7="13000.00000" pt_clust_8="13000.00000" pt_clust_9="97.20667"></scales>
<clustering>
<clus scale="   90.590">  5  6 -1 -1</clus>
<clus scale="   91.547">  7  8 -1 -1</clus>
<clus scale="   97.207">  2  9  1 -1</clus>
<clus scale="   97.501">  1  5  2 -1</clus>
<clus scale="   97.207">  2  5  1 -1</clus>
</clustering>
</event>
<event>
 9    2  0.4883225E-005  0.1124978E+03  0.7546771E-02  0.1259793E+00
          2   -1    0    0  502    0 -0.00000000000E+00  0.00000000000E+00  0.25519796377E+03  0.25519796377E+03  0.00000000000E+00 0. -1.
         21   -1    0    0  501  502  0.00000000000E+00 -0.00000000000E+00 -0.31066175920E+03  0.31066175920E+03  0.00000000000E+00 0.  1.
         24    2    1    2    0    0  0.53307317199E+02 -0.38019155629E+02  0.22723893049E+03  0.25027929490E+03  0.81945516456E+02 0.  0.
         23    2    1    2    0    0 -0.28240082873E+02  0.48657551372E+02 -0.18491488088E+03  0.21407178638E+03  0.92022589450E+02 0.  0.
        -13    1    3    3    0    0  0.54801854316E+02 -0.52991894948E+02  0.12122099131E+03  0.14319885789E+03  0.00000000000E+00 0.  1.
         14    1    3    3    0    0 -0.14945371169E+01  0.14972739319E+02  0.10601793918E+03  0.10708043702E+03  0.00000000000E+00 0. -1.
        -13    1    4    4    0    0 -0.41475968412E+02 -0.11198001851E+02 -0.50255006139E+02  0.66115178614E+02  0.00000000000E+00 0.  1.
         13    1    4    4    0    0  0.13235885540E+02  0.59855553223E+02 -0.13465987474E+03  0.14795660777E+03  0.00000000000E+00 0. -1.
          1    1    1    2  501    0 -0.25067234327E+02 -0.10638395743E+02 -0.97787845036E+02  0.10150864169E+03  0.00000000000E+00 0. -1.
<scales pt_clust_5="13000.00000" pt_clust_6="13000.00000" pt_clust_7="13000.00000" pt_clust_8="13000.00000" pt_clust_9="27.23126"></scales>
<clustering>
<clus scale="   27.231">  2  9  1 -1</clus>
<clus scale="   81.946">  5  6 -1 -1</clus>
<clus scale="   92.023">  7  8 -1 -1</clus>
<clus scale="  104.416">  1  5  2 -1</clus>
<clus scale="   27.231">  2  5  1 -1</clus>
</clustering>
</event>
<event>
 9    2  0.4883225E-005  0.1265343E+03  0.7546771E-02  0.1235126E+00
          4   -1    0    0  502    0 -0.00000000000E+00  0.00000000000E+00  0.16719378795E+03  0.16719378795E+03  0.00000000000E+00 0. -1.
         21   -1    0    0  501  502  0.00000000000E+00 -0.00000000000E+00 -0.26701192595E+03  0.26701192595E+03  0.00000000000E+00 0.  1.
         24    2    1    2    0    0  0.12243718121E+03 -0.31377183505E+02 -0.48526904045E+02  0.15716124782E+03  0.79808561025E+02 0.  0.
         23    2    1    2    0    0 -0.49719222027E+02 -0.57990191303E+02 -0.97977746075E+02  0.15273010776E+03  0.88836837883E+02 0.  0.
        -11    1    3    3    0    0  0.11042468583E+03 -0.11537474559E+02 -0.90737906311E+01  0.11139595252E+03  0.00000000000E+00 0.  1.
         12    1    3    3    0    0  0.12012495378E+02 -0.19839708947E+02 -0.39453113414E+02  0.45765295305E+02  0.00000000000E+00 0. -1.
        -11    1    4    4    0    0 -0.27763819996E+02 -0.20337573790E+02  0.10369864136E+02  0.35944132910E+02  0.00000000000E+00 0. -1.
         11    1    4    4    0    0 -0.21955402031E+02 -0.37652617513E+02 -0.10834761021E+03  0.11678597485E+03  0.00000000000E+00 0.  1.
          3    1    1    2  501    0 -0.72717959184E+02  0.89367374809E+02  0.46686512123E+02  0.12431435831E+03  0.00000000000E+00 0. -1.
<scales pt_clust_5="13000.00000" pt_clust_6="13000.00000" pt_clust_7="13000.00000" pt_clust_8="13000.00000" pt_clust_9="115.21477"></scales>
<clustering>
<clus scale="   79.809">  5  6 -1 -1</clus>
<clus scale="   88.837">  7  8 -1 -1</clus>
<clus scale="  115.215">  2  9  1 -1</clus>
<clus scale="  120.368">  1  5  2 -1</clus>
<clus scale="  115.215">  2  5  1 -1</clus>
</clustering>
</event>
<event>
 9    2  0.4883225E-005  0.1068478E+03  0.7546771E-02  0.1272765E+00
         21   -1    0    0  501  502  0.00000000000E+00  0.00000000000E+00  0.11444793960E+03  0.11444793960E+03  0.00000000000E+00 0. -1.
          4   -1    0    0  502    0 -0.00000000000E+00 -0.00000000000E+00 -0.47495348842E+03  0.47495348842E+03  0.00000000000E+00 0. -1.
         24    2    1    2    0    0  0.15229510328E+02 -0.47157625820E+02 -0.29313898332E+03  0.30762961213E+03  0.79055265835E+02 0.  0.
         23    2    1    2    0    0 -0.40282532081E+02  0.46820021636E+02 -0.15470202632E+03  0.19091340631E+03  0.93276014847E+02 0.  0.
        -11    1    3    3    0    0  0.26769794564E+02 -0.46326967737E+02 -0.29098175046E+03  0.29586008339E+03  0.00000000000E+00 0.  1.
         12    1    3    3    0    0 -0.11540284236E+02 -0.83065808346E+00 -0.21572328594E+01  0.11769528737E+02  0.00000000000E+00 0. -1.
        -13    1    4    4    0    0 -0.97484935401E+01  0.37240960771E+02 -0.15417437967E+03  0.15890771420E+03  0.00000000000E+00 0. -1.
         13    1    4    4    0    0 -0.30534038541E+02  0.95790608654E+01 -0.52764664906E+00  0.32005692113E+02  0.00000000000E+00 0.  1.
          3    1    1    2  501    0  0.25053021753E+02  0.33760418406E+00  0.87335460821E+02  0.90858409585E+02  0.00000000000E+00 0. -1.
<scales pt_clust_5="13000.00000" pt_clust_6="13000.00000" pt_clust_7="13000.00000" pt_clust_8="13000.00000" pt_clust_9="25.05530"></scales>
<clustering>
<clus scale="   25.055">  1  9  2 -1</clus>
<clus scale="   79.055">  5  6 -1 -1</clus>
<clus scale="   93.276">  7  8 -1 -1</clus>
<clus scale="   94.688">  2  5  1 -1</clus>
<clus scale="   25.055">  1  5  2 -1</clus>
</clustering>
</event>
<event>
 9    2  0.4883225E-005  0.1002662E+03  0.7546771E-02  0.1283637E+00
         -1   -1    0    0    0  501 -0.00000000000E+00  0.00000000000E+00  0.26689698352E+03  0.26689698352E+03  0.00000000000E+00 0.  1.
         21   -1    0    0  501  502  0.00000000000E+00 -0.00000000000E+00 -0.89358488723E+02  0.89358488723E+02  0.00000000000E+00 0.  1.
         23    2    1    2    0    0  0.51396369051E+02 -0.38852523595E+02  0.15459315900E+03  0.18883149926E+03  0.87219177721E+02 0.  0.
         24    2    1    2    0    0 -0.15731690763E+02  0.29613715291E+02  0.67860517838E+02  0.10933181832E+03  0.78891941207E+02 0.  0.
        -13    1    4    4    0    0 -0.43992788319E+01  0.56276320759E+02  0.40411932217E+02  0.69422634622E+02  0.00000000000E+00 0.  1.
         14    1    4    4    0    0 -0.11332411931E+02 -0.26662605467E+02  0.27448585621E+02  0.39909183694E+02  0.00000000000E+00 0. -1.
        -13    1    3    3    0    0  0.19143058437E+02  0.28168489482E+02  0.48518891556E+02  0.59279029377E+02  0.00000000000E+00 0. -1.
         13    1    3    3    0    0  0.32253310614E+02 -0.67021013077E+02  0.10607426744E+03  0.12955246988E+03  0.00000000000E+00 0.  1.
         -2    1    1    2    0  502 -0.35664678288E+02  0.92388083036E+01 -0.44915182039E+02  0.58092154667E+02  0.00000000000E+00 0.  1.
<scales pt_clust_5="13000.00000" pt_clust_6="13000.00000" pt_clust_7="13000.00000" pt_clust_8="13000.00000" pt_clust_9="36.84189"></scales>
<clustering>
<clus scale="   36.842">  2  9  1 -1</clus>
<clus scale="   78.892">  5  6 -1 -1</clus>
<clus scale="   87.219">  7  8 -1 -1</clus>
<clus scale="   93.113">  2  5  1 -1</clus>
<clus scale="   36.842">  2  5  1 -1</clus>
</clustering>
</event>
<event>
 9    2  0.4883225E-005  0.1188395E+03  0.7546771E-02  0.1246938E+00
         21   -1    0    0  501  502  0.00000000000E+00  0.00000000000E+00  0.42778455844E+03  0.42778455844E+03  0.00000000000E+00 0. -1.
          4   -1    0    0  502    0 -0.00000000000E+00 -0.00000000000E+00 -0.49574574988E+02  0.49574574988E+02  0.00000000000E+00 0. -1.
         24    2    1    2    0    0  0.51848963095E+02  0.72387919616E+02  0.10809684678E+03  0.16166179102E+03  0.80754445777E+02 0.  0.
         23    2    1    2    0    0 -0.39493799237E+02 -0.50642313344E+02  0.26982570266E+03  0.29068526364E+03  0.86992003072E+02 0.  0.
        -11    1    3    3    0    0  0.18402932422E+02  0.71241137739E+02  0.35443369939E+02  0.81671293003E+02  0.00000000000E+00 0.  1.
         12    1    3    3    0    0  0.33446030673E+02  0.11467818767E+01  0.72653476841E+02  0.79990498021E+02  0.00000000000E+00 0. -1.
        -13    1    4    4    0    0 -0.19534641847E+02 -0.74473794819E+02  0.19620402120E+03  0.21076993685E+03  0.00000000000E+00 0.  1.
         13    1    4    4    0    0 -0.19959157390E+02  0.23831481476E+02  0.73621681467E+02  0.79915326784E+02  0.00000000000E+00 0. -1.
          3    1    1    2  501    0 -0.12355163858E+02 -0.21745606272E+02  0.28743401071E+00  0.25012078770E+02  0.00000000000E+00 0. -1.
<scales pt_clust_5="13000.00000" pt_clust_6="13000.00000" pt_clust_7="13000.00000" pt_clust_8="13000.00000" pt_clust_9="25.01044"></scales>
<clustering>
<clus scale="   25.010">  1  9  2 -1</clus>
<clus scale="   80.754">  5  6 -1 -1</clus>
<clus scale="   86.992">  7  8 -1 -1</clus>
<clus scale="  114.352">  2  5  1 -1</clus>
<clus scale="   25.010">  1  5  2 -1</clus>
</clustering>
</event>
<event>
 9    2  0.4883225E-005  0.2339106E+03  0.7546771E-02  0.1166002E+00
         21   -1    0    0  501  502  0.00000000000E+00  0.00000000000E+00  0.36872595260E+03  0.36872595260E+03  0.00000000000E+00 0. -1.
          2   -1    0    0  502    0 -0.00000000000E+00 -0.00000000000E+00 -0.28843948418E+03  0.28843948418E+03  0.00000000000E+00 0. -1.
         24    2    1    2    0    0 -0.30513403115E+02 -0.21346489346E+01 -0.65703077073E+02  0.10782308061E+03  0.79832937305E+02 0.  0.
         23    2    1    2    0    0 -0.16524606299E+03 -0.99228420438E+02 -0.84511503328E+02  0.23039569307E+03  0.93741348574E+02 0.  0.
        -13    1    3    3    0    0  0.17231611635E+02  0.13285642605E+02  0.38146294602E+01  0.22090453524E+02  0.00000000000E+00 0.  1.
         14    1    3    3    0    0 -0.47745014750E+02 -0.15420291540E+02 -0.69517706534E+02  0.85732627082E+02  0.00000000000E+00 0. -1.
        -11    1    4    4    0    0 -0.31794939945E+02  0.17468614438E+02 -0.71607767739E+01  0.36977661101E+02  0.00000000000E+00 0.  1.
         11    1    4    4    0    0 -0.13345112305E+03 -0.11669703488E+03 -0.77350726554E+02  0.19341803197E+03  0.00000000000E+00 0. -1.
          1    1    1    2  501    0  0.19575946611E+03  0.10136306937E+03  0.23050104881E+03  0.31894666311E+03  0.00000000000E+00 0. -1.
<scales pt_clust_5="13000.00000" pt_clust_6="13000.00000" pt_clust_7="13000.00000" pt_clust_8="13000.00000" pt_clust_9="214.30524"></scales>
<clustering>
<clus scale="   79.833">  5  6 -1 -1</clus>
<clus scale="   85.492">  2  5  1 -1</clus>
<clus scale="   93.741">  7  8 -1 -1</clus>
<clus scale="  214.305">  1  9  2 -1</clus>
<clus scale="  214.305">  1  5  2 -1</clus>
</clustering>
</event>
<event>
 9    2  0.4883225E-005  0.1078280E+03  0.7546771E-02  0.1270159E+00
         21   -1    0    0  501  502  0.00000000000E+00  0.00000000000E+00  0.19203678172E+03  0.19203678172E+03  0.00000000000E+00 0.  1.
          4   -1    0    0  502    0 -0.00000000000E+00 -0.00000000000E+00 -0.43504731381E+03  0.43504731381E+03  0.00000000000E+00 0. -1.
         24    2    1    2    0    0  0.52865541611E+02 -0.35113445592E+01 -0.35426496637E+03  0.36720972089E+03  0.80822136144E+02 0.  0.
         23    2    1    2    0    0 -0.67128969334E+02 -0.26232830944E+02  0.16128224688E+03  0.19994989400E+03  0.93667160780E+02 0.  0.
        -13    1    3    3    0    0 -0.99420971705E+01 -0.24499882212E+02 -0.59704005017E+02  0.65296690112E+02  0.00000000000E+00 0.  1.
         14    1    3    3    0    0  0.62807638782E+02  0.20988537653E+02 -0.29456096135E+03  0.30191303078E+03  0.00000000000E+00 0. -1.
        -13    1    4    4    0    0 -0.23883455115E+02  0.36652516481E+01  0.14185923738E+03  0.14390238611E+03  0.00000000000E+00 0.  1.
         13    1    4    4    0    0 -0.43245514219E+02 -0.29898082592E+02  0.19423009501E+02  0.56047507891E+02  0.00000000000E+00 0. -1.
          3    1    1    2  501    0  0.14263427723E+02  0.29744175503E+02 -0.50027812593E+02  0.59924480636E+02  0.00000000000E+00 0. -1.
<scales pt_clust_5="13000.00000" pt_clust_6="13000.00000" pt_clust_7="13000.00000" pt_clust_8="13000.00000" pt_clust_9="32.98731"></scales>
<clustering>
<clus scale="   32.987">  1  9  2 -1</clus>
<clus scale="   80.822">  5  6 -1 -1</clus>
<clus scale="   93.667">  7  8 -1 -1</clus>
<clus scale="   96.879">  2  5  1 -1</clus>
<clus scale="   32.987">  1  5  2 -1</clus>
</clustering>
</event>
<event>
 9    2  0.4883225E-005  0.1132342E+03  0.7546771E-02  0.1259980E+00
         21   -1    0    0  501  502  0.00000000000E+00  0.00000000000E+00  0.89007611491E+02  0.89007611491E+02  0.00000000000E+00 0.  1.
          2   -1    0    0  502    0 -0.00000000000E+00 -0.00000000000E+00 -0.32001295493E+03  0.32001295493E+03  0.00000000000E+00 0. -1.
         23    2    1    2    0    0  0.62157063729E+02 -0.25731777992E+01 -0.24252242130E+02  0.11341944739E+03  0.91682484598E+02 0.  0.
         24    2    1    2    0    0 -0.65525532403E+02 -0.38011063975E+02 -0.27445032229E+02  0.11172667573E+03  0.77402738290E+02 0.  0.
        -13    1    4    4    0    0 -0.28011838936E+02 -0.59003636008E+02 -0.16616237047E+02  0.67395782630E+02  0.00000000000E+00 0.  1.
         14    1    4    4    0    0 -0.37513693467E+02  0.20992572032E+02 -0.10828795181E+02  0.44330893101E+02  0.00000000000E+00 0. -1.
        -13    1    3    3    0    0 -0.90843453822E+01  0.21006584325E+02 -0.30483574395E+02  0.38118895891E+02  0.00000000000E+00 0. -1.
         13    1    3    3    0    0  0.71241409111E+02 -0.23579762124E+02  0.62313322654E+01  0.75300551497E+02  0.00000000000E+00 0.  1.
          1    1    1    2  501    0  0.33684686744E+01  0.40584241774E+02 -0.17930806908E+03  0.18387444330E+03  0.00000000000E+00 0. -1.
<scales pt_clust_5="13000.00000" pt_clust_6="13000.00000" pt_clust_7="13000.00000" pt_clust_8="13000.00000" pt_clust_9="40.72381"></scales>
<clustering>
<clus scale="   40.724">  1  9  2 -1</clus>
<clus scale="   77.403">  5  6 -1 -1</clus>
<clus scale="   91.682">  7  8 -1 -1</clus>
<clus scale="  102.017">  1  5  2 -1</clus>
<clus scale="   40.724">  1  5  2 -1</clus>
</clustering>
</event>
<event>
 9    2  0.4883225E-005  0.9753408E+02  0.7546771E-02  0.1292356E+00
         21   -1    0    0  501  502  0.00000000000E+00  0.00000000000E+00  0.42593003870E+02  0.42593003870E+02  0.00000000000E+00 0.  1.
          2   -1    0    0  502    0 -0.00000000000E+00 -0.00000000000E+00 -0.13349292777E+04  0.13349292777E+04  0.00000000000E+00 0. -1.
         24    2    1    2    0    0  0.17294378862E+02  0.22897528144E+02 -0.12114078851E+04  0.12144475067E+04  0.80933863045E+02 0.  0.
         23    2    1    2    0    0  0.14037559021E+01 -0.36740377101E+02 -0.26150223223E+02  0.10356097705E+03  0.93215964045E+02 0.  0.
        -11    1    3    3    0    0  0.22905061124E+02  0.23578755839E+02 -0.17714790159E+03  0.18017208050E+03  0.00000000000E+00 0.  1.
         12    1    3    3    0    0 -0.56106822620E+01 -0.68122769467E+00 -0.10342599835E+04  0.10342754262E+04  0.00000000000E+00 0. -1.
        -11    1    4    4    0    0  0.29535258733E+02  0.31635664946E-01  0.21950140370E+02  0.36798657197E+02  0.00000000000E+00 0. -1.
         11    1    4    4    0    0 -0.28131502831E+02 -0.36772012766E+02 -0.48100363593E+02  0.66762319853E+02  0.00000000000E+00 0.  1.
          1    1    1    2  501    0 -0.18698134764E+02  0.13842848957E+02 -0.54778165494E+02  0.59513797776E+02  0.00000000000E+00 0. -1.
<scales pt_clust_5="13000.00000" pt_clust_6="13000.00000" pt_clust_7="13000.00000" pt_clust_8="13000.00000" pt_clust_9="23.26467"></scales>
<clustering>
<clus scale="   23.265">  1  9  2 -1</clus>
<clus scale="   80.934">  5  6 -1 -1</clus>
<clus scale="   85.872">  2  5  1 -1</clus>
<clus scale="   93.216">  7  8 -1 -1</clus>
<clus scale="   23.265">  1  5  2 -1</clus>
</clustering>
</event>
<event>
 9    2  0.4883225E-005  0.1341900E+03  0.7546771E-02  0.1225579E+00
         21   -1    0    0  501  502  0.00000000000E+00  0.00000000000E+00  0.57918744780E+03  0.57918744780E+03  0.00000000000E+00 0. -1.
          2   -1    0    0  502    0 -0.00000000000E+00 -0.00000000000E+00 -0.13311287609E+03  0.13311287609E+03  0.00000000000E+00 0. -1.
         24    2    1    2    0    0 -0.80600724509E+02  0.43069783871E+02 -0.53690174044E+02  0.13276605632E+03  0.79954411054E+02 0.  0.
         23    2    1    2    0    0  0.61095024557E+02 -0.12613232355E+03  0.44925230735E+03  0.48038103131E+03  0.96417501111E+02 0.  0.
        -13    1    3    3    0    0 -0.36811179046E+02  0.56481757985E+02 -0.76907674119E+01  0.67855727770E+02  0.00000000000E+00 0.  1.
         14    1    3    3    0    0 -0.43789545463E+02 -0.13411974114E+02 -0.45999406632E+02  0.64910328546E+02  0.00000000000E+00 0. -1.
        -11    1    4    4    0    0  0.39830605530E+02  0.11995725653E+01  0.13151725358E+03  0.13742162894E+03  0.00000000000E+00 0.  1.
         11    1    4    4    0    0  0.21264419027E+02 -0.12733189612E+03  0.31773505376E+03  0.34295940237E+03  0.00000000000E+00 0. -1.
          1    1    1    2  501    0  0.19505699952E+02  0.83062539679E+02  0.50512438406E+02  0.99153236267E+02  0.00000000000E+00 0. -1.
<scales pt_clust_5="13000.00000" pt_clust_6="13000.00000" pt_clust_7="13000.00000" pt_clust_8="13000.00000" pt_clust_9="85.32213"></scales>
<clustering>
<clus scale="   79.954">  5  6 -1 -1</clus>
<clus scale="   85.322">  1  9  2 -1</clus>
<clus scale="   96.418">  7  8 -1 -1</clus>
<clus scale="  122.896">  2  5  1 -1</clus>
<clus scale="   85.322">  1  5  2 -1</clus>
</clustering>
</event>
<event>
 9    2  0.4883225E-005  0.1593237E+03  0.7546771E-02  0.1199361E+00
         21   -1    0    0  501  502  0.00000000000E+00  0.00000000000E+00  0.86505983827E+02  0.86505983827E+02  0.00000000000E+00 0.  1.
          2   -1    0    0  502    0 -0.00000000000E+00 -0.00000000000E+00 -0.73367106606E+03  0.73367106606E+03  0.00000000000E+00 0. -1.
         24    2    1    2    0    0 -0.96952134935E+02  0.39575220269E+02 -0.21339150816E+03  0.24895907371E+03  0.74018714516E+02 0.  0.
         23    2    1    2    0    0  0.11747793231E+03  0.97156918020E+02 -0.38830844386E+03  0.42567051291E+03  0.84684158436E+02 0.  0.
        -11    1    3    3    0    0 -0.39910559777E+02  0.36387732828E+02 -0.42362420060E+02  0.68640327180E+02  0.00000000000E+00 0.  1.
         12    1    3    3    0    0 -0.57041575159E+02  0.31874874407E+01 -0.17102908810E+03  0.18031874653E+03  0.00000000000E+00 0. -1.
        -11    1    4    4    0    0  0.42486697190E+02 -0.45068833255E+01 -0.14977036444E+03  0.15574528404E+03  0.00000000000E+00 0. -1.
         11    1    4    4    0    0  0.74991235115E+02  0.10166380135E+03 -0.23853807941E+03  0.26992522887E+03  0.00000000000E+00 0.  1.
          1    1    1    2  501    0 -0.20525797370E+02 -0.13673213829E+03 -0.45465130214E+02  0.14554746327E+03  0.00000000000E+00 0. -1.
<scales pt_clust_5="13000.00000" pt_clust_6="13000.00000" pt_clust_7="13000.00000" pt_clust_8="13000.00000" pt_clust_9="134.95419"></scales>
<clustering>
<clus scale="   74.019">  5  6 -1 -1</clus>
<clus scale="   84.684">  7  8 -1 -1</clus>
<clus scale="  128.237">  2  5  1 -1</clus>
<clus scale="  134.954">  1  9  2 -1</clus>
<clus scale="  134.954">  1  5  2 -1</clus>
</clustering>
</event>
<event>
 9    2  0.4883225E-005  0.2528667E+03  0.7546771E-02  0.1134380E+00
          2   -1    0    0  502    0 -0.00000000000E+00  0.00000000000E+00  0.70893006676E+03  0.70893006676E+03  0.00000000000E+00 0. -1.
         21   -1    0    0  501  502  0.00000000000E+00 -0.00000000000E+00 -0.17616027761E+03  0.17616027761E+03  0.00000000000E+00 0. -1.
         24    2    1    2    0    0  0.71580982221E+01 -0.11761338098E+03  0.29777839651E+03  0.33039485387E+03  0.81268937957E+02 0.  0.
         23    2    1    2    0    0  0.21090575218E+03 -0.37094472757E+02  0.13428045044E+03  0.26898749842E+03  0.92009775164E+02 0.  0.
        -13    1    3    3    0    0 -0.15138094846E+02 -0.86491246729E+02  0.12090372063E+03  0.14942425285E+03  0.00000000000E+00 0.  1.
         14    1    3    3    0    0  0.22296193068E+02 -0.31122134250E+02  0.17687467588E+03  0.18097060102E+03  0.00000000000E+00 0. -1.
        -11    1    4    4    0    0  0.17384662623E+03 -0.54834730711E+02  0.75580375227E+02  0.19733699669E+03  0.00000000000E+00 0. -1.
         11    1    4    4    0    0  0.37059125950E+02  0.17740257954E+02  0.58700075212E+02  0.71650501732E+02  0.00000000000E+00 0.  1.
          1    1    1    2  501    0 -0.21806385040E+03  0.15470785374E+03  0.10071094220E+03  0.28570799208E+03  0.00000000000E+00 0. -1.
<scales pt_clust_5="13000.00000" pt_clust_6="13000.00000" pt_clust_7="13000.00000" pt_clust_8="13000.00000" pt_clust_9="235.53304"></scales>
<clustering>
<clus scale="   81.269">  5  6 -1 -1</clus>
<clus scale="   92.010">  7  8 -1 -1</clus>
<clus scale="  143.139">  1  5  2 -1</clus>
<clus scale="  235.533">  2  9  1 -1</clus>
<clus scale="  235.533">  2  5  1 -1</clus>
</clustering>
</event>
<event>
 9    2  0.4883225E-005  0.1433196E+03  0.7546771E-02  0.1227913E+00
          2   -1    0    0  502    0 -0.00000000000E+00  0.00000000000E+00  0.82000201961E+03  0.82000201961E+03  0.00000000000E+00 0. -1.
         21   -1    0    0  501  502  0.00000000000E+00 -0.00000000000E+00 -0.13032157257E+03  0.13032157257E+03  0.00000000000E+00 0. -1.
         23    2    1    2    0    0  0.23236271462E+02  0.10633408486E+02  0.18950990314E+02  0.97954755668E+02  0.92644484113E+02 0.  0.
         24    2    1    2    0    0  0.55252375410E+02  0.79824512958E+02  0.71397043899E+03  0.72503900581E+03  0.80641145436E+02 0.  0.
        -13    1    4    4    0    0  0.34416232939E+02 -0.35552701423E+01  0.12018784217E+03  0.12506891877E+03  0.00000000000E+00 0.  1.
         14    1    4    4    0    0  0.20836142470E+02  0.83379783100E+02  0.59378259681E+03  0.59997008704E+03  0.00000000000E+00 0. -1.
        -11    1    3    3    0    0 -0.16015406435E+02 -0.32774873559E+02  0.14526243037E+02  0.39264453604E+02  0.00000000000E+00 0.  1.
         11    1    3    3    0    0  0.39251677897E+02  0.43408282045E+02  0.44247472770E+01  0.58690302064E+02  0.00000000000E+00 0. -1.
          1    1    1    2  501    0 -0.78488646872E+02 -0.90457921444E+02 -0.43240982261E+02  0.12732983070E+03  0.00000000000E+00 0. -1.
<scales pt_clust_5="13000.00000" pt_clust_6="13000.00000" pt_clust_7="13000.00000" pt_clust_8="13000.00000" pt_clust_9="118.47998"></scales>
<clustering>
<clus scale="   80.641">  5  6 -1 -1</clus>
<clus scale="   92.644">  7  8 -1 -1</clus>
<clus scale="   96.104">  1  7  2 -1</clus>
<clus scale="  118.480">  2  9  1 -1</clus>
<clus scale="  118.480">  2  5  1 -1</clus>
</clustering>
</event>
<event>
 9    2  0.4883225E-005  0.1150140E+03  0.7546771E-02  0.1253369E+00
         21   -1    0    0  501  502  0.00000000000E+00  0.00000000000E+00  0.25722435892E+02  0.25722435892E+02  0.00000000000E+00 0.  1.
          2   -1    0    0  502    0 -0.00000000000E+00 -0.00000000000E+00 -0.75262454472E+03  0.75262454472E+03  0.00000000000E+00 0. -1.
         24    2    1    2    0    0 -0.14366404716E+02  0.56807478123E+02 -0.39748546859E+03  0.41145055619E+03  0.88675697287E+02 0.  0.
         23    2    1    2    0    0  0.18040392374E+02 -0.77772850730E+02 -0.32136178061E+03  0.34413844127E+03  0.93721932608E+02 0.  0.
        -13    1    3    3    0    0 -0.30785371527E+02  0.41713379523E+02 -0.95685770282E+02  0.10882789976E+03  0.00000000000E+00 0.  1.
         14    1    3    3    0    0  0.16418966811E+02  0.15094098600E+02 -0.30179969831E+03  0.30262265643E+03  0.00000000000E+00 0. -1.
        -11    1    4    4    0    0  0.47882528137E+02 -0.40378092436E+02 -0.25339673407E+03  0.26102304819E+03  0.00000000000E+00 0.  1.
         11    1    4    4    0    0 -0.29842135763E+02 -0.37394758294E+02 -0.67965046542E+02  0.83115393076E+02  0.00000000000E+00 0. -1.
          1    1    1    2  501    0 -0.36739876576E+01  0.20965372607E+02 -0.80548596221E+01  0.22757983157E+02  0.00000000000E+00 0. -1.
<scales pt_clust_5="13000.00000" pt_clust_6="13000.00000" pt_clust_7="13000.00000" pt_clust_8="13000.00000" pt_clust_9="21.28485"></scales>
<clustering>
<clus scale="   21.285">  1  9  2 -1</clus>
<clus scale="   88.676">  5  6 -1 -1</clus>
<clus scale="   93.722">  7  8 -1 -1</clus>
<clus scale="  110.941">  2  5  1 -1</clus>
<clus scale="   21.285">  1  5  2 -1</clus>
</clustering>
</event>
<event>
 9    2  0.4883225E-005  0.1331549E+03  0.7546771E-02  0.1238108E+00
         21   -1    0    0  501  502  0.00000000000E+00  0.00000000000E+00  0.23855250302E+02  0.23855250302E+02  0.00000000000E+00 0. -1.
          2   -1    0    0  502    0 -0.00000000000E+00 -0.00000000000E+00 -0.11772043433E+04  0.11772043433E+04  0.00000000000E+00 0. -1.
         24    2    1    2    0    0  0.49170962472E+02  0.10537162116E+02 -0.33157209087E+03  0.34552253983E+03  0.83168255693E+02 0.  0.
         23    2    1    2    0    0  0.37083750736E+01  0.78647864908E+02 -0.57236275252E+03  0.58543029470E+03  0.94500109976E+02 0.  0.
        -13    1    3    3    0    0 -0.21989396103E+02  0.86304345081E+01 -0.53495326062E+02  0.58478781205E+02  0.00000000000E+00 0.  1.
         14    1    3    3    0    0  0.71160358576E+02  0.19067276076E+01 -0.27807676480E+03  0.28704375863E+03  0.00000000000E+00 0. -1.
        -13    1    4    4    0    0  0.39255343128E+02  0.29979771812E+01 -0.17578283454E+03  0.18013765500E+03  0.00000000000E+00 0.  1.
         13    1    4    4    0    0 -0.35546968054E+02  0.75649887727E+02 -0.39657991798E+03  0.40529263970E+03  0.00000000000E+00 0. -1.
          1    1    1    2  501    0 -0.52879337546E+02 -0.89185027024E+02 -0.24941424966E+03  0.27010675911E+03  0.00000000000E+00 0. -1.
<scales pt_clust_5="13000.00000" pt_clust_6="13000.00000" pt_clust_7="13000.00000" pt_clust_8="13000.00000" pt_clust_9="93.80805"></scales>
<clustering>
<clus scale="   83.168">  5  6 -1 -1</clus>
<clus scale="   94.500">  7  8 -1 -1</clus>
<clus scale="   97.189">  2  5  1 -1</clus>
<clus scale="   93.808">  1  9  2 -1</clus>
<clus scale="   93.808">  1  5  2 -1</clus>
</clustering>
</event>
<event>
 9    2  0.4883225E-005  0.1004337E+03  0.7546771E-02  0.1285008E+00
         21   -1    0    0  501  502  0.00000000000E+00  0.00000000000E+00  0.27842830785E+02  0.27842830785E+02  0.00000000000E+00 0. -1.
          2   -1    0    0  502    0 -0.00000000000E+00 -0.00000000000E+00 -0.65623874491E+03  0.65623874491E+03  0.00000000000E+00 0. -1.
         24    2    1    2    0    0 -0.14026092089E+02  0.95051999494E+01 -0.16624146702E+03  0.18558876820E+03  0.80745807571E+02 0.  0.
         23    2    1    2    0    0  0.67640181761E+02  0.32114464750E+02 -0.30891525990E+03  0.33089532662E+03  0.91959482070E+02 0.  0.
        -13    1    3    3    0    0  0.21560086178E+02  0.17993792832E+01 -0.77697616162E+01  0.22987915899E+02  0.00000000000E+00 0.  1.
         14    1    3    3    0    0 -0.35586178268E+02  0.77058206662E+01 -0.15847170541E+03  0.16260085230E+03  0.00000000000E+00 0. -1.
        -11    1    4    4    0    0  0.36757600140E+02  0.58845567666E+02 -0.24823542079E+03  0.25774938630E+03  0.00000000000E+00 0. -1.
         11    1    4    4    0    0  0.30882581621E+02 -0.26731102916E+02 -0.60679839110E+02  0.73145940318E+02  0.00000000000E+00 0.  1.
          1    1    1    2  501    0 -0.53614089672E+02 -0.41619664700E+02 -0.15323918720E+03  0.16759748087E+03  0.00000000000E+00 0. -1.
<scales pt_clust_5="13000.00000" pt_clust_6="13000.00000" pt_clust_7="13000.00000" pt_clust_8="13000.00000" pt_clust_9="67.87243"></scales>
<clustering>
<clus scale="   67.872">  1  9  2 -1</clus>
<clus scale="   80.746">  5  6 -1 -1</clus>
<clus scale="   90.279">  2  5  1 -1</clus>
<clus scale="   91.959">  7  8 -1 -1</clus>
<clus scale="   67.872">  1  5  2 -1</clus>
</clustering>
</event>
<event>
 9    2  0.4883225E-005  0.4838746E+03  0.7546771E-02  0.1073193E+00
         -1   -1    0    0    0  501 -0.00000000000E+00  0.00000000000E+00  0.98715126904E+03  0.98715126904E+03  0.00000000000E+00 0.  1.
         21   -1    0    0  501  502  0.00000000000E+00 -0.00000000000E+00 -0.36105888012E+03  0.36105888012E+03  0.00000000000E+00 0.  1.
         23    2    1    2    0    0 -0.37582920759E+02 -0.31246702077E+01  0.27053854944E+02  0.10258831248E+03  0.91488858851E+02 0.  0.
         24    2    1    2    0    0 -0.43946568593E+03  0.98464424977E+02  0.60568302721E+03  0.75909414860E+03  0.80911463294E+02 0.  0.
        -13    1    4    4    0    0 -0.43094809007E+03  0.10507645446E+03  0.60185044016E+03  0.74765049986E+03  0.00000000000E+00 0.  1.
         14    1    4    4    0    0 -0.85175958563E+01 -0.66120294841E+01  0.38325870579E+01  0.11443648746E+02  0.00000000000E+00 0. -1.
        -11    1    3    3    0    0 -0.48129907202E+02 -0.27465833463E+02 -0.10707343809E+02  0.56440297541E+02  0.00000000000E+00 0.  1.
         11    1    3    3    0    0  0.10546986443E+02  0.24341163256E+02  0.37761198753E+02  0.46148014940E+02  0.00000000000E+00 0. -1.
         -2    1    1    2    0  502  0.47704860669E+03 -0.95339754769E+02 -0.66444932361E+01  0.48652768808E+03  0.00000000000E+00 0.  1.
<scales pt_clust_5="13000.00000" pt_clust_6="13000.00000" pt_clust_7="13000.00000" pt_clust_8="13000.00000" pt_clust_9="477.06184"></scales>
<clustering>
<clus scale="   80.911">  5  6 -1 -1</clus>
<clus scale="   91.489">  7  8 -1 -1</clus>
<clus scale="   98.957">  1  7  2 -1</clus>
<clus scale="  477.062">  2  9  1 -1</clus>
<clus scale="  477.062">  2  5  1 -1</clus>
</clustering>
</event>
<event>
 9    2  0.4883225E-005  0.1552907E+03  0.7546771E-02  0.1205951E+00
          2   -1    0    0  502    0 -0.00000000000E+00  0.00000000000E+00  0.59383151025E+03  0.59383151025E+03  0.00000000000E+00 0. -1.
         21   -1    0    0  501  502  0.00000000000E+00 -0.00000000000E+00 -0.12667392106E+03  0.12667392106E+03  0.00000000000E+00 0. -1.
         24    2    1    2    0    0 -0.84440685144E+02  0.36171942037E+02  0.31215790708E+03  0.33509401944E+03  0.80042515050E+02 0.  0.
         23    2    1    2    0    0  0.69846782069E+02 -0.49862363285E+01 -0.67779226084E+02  0.15998742871E+03  0.12687993670E+03 0.  0.
        -11    1    3    3    0    0 -0.14611998013E+02  0.34509828177E+02  0.43085395080E+02  0.57103327363E+02  0.00000000000E+00 0.  1.
         12    1    3    3    0    0 -0.69828687131E+02  0.16621138601E+01  0.26907251200E+03  0.27799069208E+03  0.00000000000E+00 0. -1.
        -11    1    4    4    0    0  0.23230757341E+02  0.35976194799E+02 -0.85350342736E+02  0.95491547710E+02  0.00000000000E+00 0. -1.
         11    1    4    4    0    0  0.46616024728E+02 -0.40962431128E+02  0.17571116652E+02  0.64495880998E+02  0.00000000000E+00 0.  1.
          1    1    1    2  501    0  0.14593903075E+02 -0.31185705709E+02  0.22277890820E+03  0.22542398316E+03  0.00000000000E+00 0. -1.
<scales pt_clust_5="13000.00000" pt_clust_6="13000.00000" pt_clust_7="13000.00000" pt_clust_8="13000.00000" pt_clust_9="34.43155"></scales>
<clustering>
<clus scale="   34.432">  2  9  1 -1</clus>
<clus scale="   80.043">  5  6 -1 -1</clus>
<clus scale="  120.098">  1  5  2 -1</clus>
<clus scale="  126.880">  7  8 -1 -1</clus>
<clus scale="   34.432">  2  5  1 -1</clus>
</clustering>
</event>
<event>
 9    2  0.4883225E-005  0.3452574E+03  0.7546771E-02  0.1117926E+00
         21   -1    0    0  501  502  0.00000000000E+00  0.00000000000E+00  0.12350701470E+03  0.12350701470E+03  0.00000000000E+00 0. -1.
          2   -1    0    0  502    0 -0.00000000000E+00 -0.00000000000E+00 -0.13894114980E+04  0.13894114980E+04  0.00000000000E+00 0. -1.
         24    2    1    2    0    0  0.25093127941E+02 -0.15602591205E+02 -0.35290313939E+03  0.36287309609E+03  0.79140079316E+02 0.  0.
         23    2    1    2    0    0  0.23177692254E+03  0.23564120568E+03 -0.32815260031E+03  0.47443660406E+03  0.90325204372E+02 0.  0.
        -13    1    3    3    0    0 -0.14240955454E+02 -0.26684086794E+02 -0.60617802293E+02  0.67744839324E+02  0.00000000000E+00 0.  1.
         14    1    3    3    0    0  0.39334083395E+02  0.11081495589E+02 -0.29228533710E+03  0.29512825677E+03  0.00000000000E+00 0. -1.
        -13    1    4    4    0    0  0.18138307347E+03  0.14188403086E+03 -0.26328753630E+03  0.34978739875E+03  0.00000000000E+00 0.  1.
         13    1    4    4    0    0  0.50393849074E+02  0.93757174829E+02 -0.64865064011E+02  0.12464920531E+03  0.00000000000E+00 0. -1.
          1    1    1    2  501    0 -0.25687005048E+03 -0.22003861448E+03 -0.58484874360E+03  0.67560881255E+03  0.00000000000E+00 0. -1.
<scales pt_clust_5="13000.00000" pt_clust_6="13000.00000" pt_clust_7="13000.00000" pt_clust_8="13000.00000" pt_clust_9="333.23288"></scales>
<clustering>
<clus scale="   79.140">  5  6 -1 -1</clus>
<clus scale="   84.476">  2  5  1 -1</clus>
<clus scale="   90.325">  7  8 -1 -1</clus>
<clus scale="  333.233">  1  9  2 -1</clus>
<clus scale="  333.233">  1  5  2 -1</clus>
</clustering>
</event>
<event>
 9    2  0.4883225E-005  0.1686184E+03  0.7546771E-02  0.1213281E+00
          2   -1    0    0  502    0 -0.00000000000E+00  0.00000000000E+00  0.20276218838E+03  0.20276218838E+03  0.00000000000E+00 0. -1.
         21   -1    0    0  501  502  0.00000000000E+00 -0.00000000000E+00 -0.30717447928E+03  0.30717447928E+03  0.00000000000E+00 0. -1.
         24    2    1    2    0    0 -0.14104783285E+02  0.64446324168E+01 -0.15453447784E+03  0.17411186619E+03  0.78699167128E+02 0.  0.
         23    2    1    2    0    0  0.15877411702E+03  0.48726352390E+02  0.46098195856E+02  0.18094017928E+03  0.55052948718E+02 0.  0.
        -11    1    3    3    0    0  0.92306596684E+01  0.34659382889E+02 -0.39330390848E+02  0.53229292165E+02  0.00000000000E+00 0.  1.
         12    1    3    3    0    0 -0.23335442953E+02 -0.28214750472E+02 -0.11520408699E+03  0.12088257402E+03  0.00000000000E+00 0. -1.
        -11    1    4    4    0    0  0.12984007347E+03  0.29959177796E+02  0.56767963303E+02  0.14483990704E+03  0.00000000000E+00 0.  1.
         11    1    4    4    0    0  0.28934043552E+02  0.18767174594E+02 -0.10669767446E+02  0.36100272241E+02  0.00000000000E+00 0. -1.
          1    1    1    2  501    0 -0.14466933374E+03 -0.55170984807E+02  0.40239910855E+01  0.15488462220E+03  0.00000000000E+00 0. -1.
<scales pt_clust_5="13000.00000" pt_clust_6="13000.00000" pt_clust_7="13000.00000" pt_clust_8="13000.00000" pt_clust_9="159.37802"></scales>
<clustering>
<clus scale="   55.053">  7  8 -1 -1</clus>
<clus scale="   78.699">  5  6 -1 -1</clus>
<clus scale="   80.212">  1  5  2 -1</clus>
<clus scale="  159.378">  2  9  1 -1</clus>
<clus scale="  159.378">  2  5  1 -1</clus>
</clustering>
</event>
<event>
 9    2  0.4883225E-005  0.1497587E+03  0.7546771E-02  0.1202857E+00
         21   -1    0    0  501  502  0.00000000000E+00  0.00000000000E+00  0.24031103291E+03  0.24031103291E+03  0.00000000000E+00 0. -1.
          4   -1    0    0  502    0 -0.00000000000E+00 -0.00000000000E+00 -0.98205359124E+03  0.98205359124E+03  0.00000000000E+00 0. -1.
         24    2    1    2    0    0 -0.17345983398E+01  0.12485492190E+03 -0.83507737553E+03  0.84781601331E+03  0.76459197897E+02 0.  0.
         23    2    1    2    0    0  0.12907868796E+02 -0.10106934769E+03 -0.10725255130E+03  0.17224713305E+03  0.88228900948E+02 0.  0.
        -11    1    3    3    0    0 -0.36642784255E+02  0.43722370651E+02 -0.27957197767E+03  0.28533284079E+03  0.00000000000E+00 0.  1.
         12    1    3    3    0    0  0.34908185915E+02  0.81132551253E+02 -0.55550539786E+03  0.56248317252E+03  0.00000000000E+00 0. -1.
        -11    1    4    4    0    0 -0.21348348625E+02 -0.94697700206E+02 -0.62197629926E+02  0.11529072635E+03  0.00000000000E+00 0.  1.
         11    1    4    4    0    0  0.34256217421E+02 -0.63716474820E+01 -0.45054921379E+02  0.56956406700E+02  0.00000000000E+00 0. -1.
          3    1    1    2  501    0 -0.11173270456E+02 -0.23785574216E+02  0.20058736851E+03  0.20230147779E+03  0.00000000000E+00 0. -1.
<scales pt_clust_5="13000.00000" pt_clust_6="13000.00000" pt_clust_7="13000.00000" pt_clust_8="13000.00000" pt_clust_9="26.27918"></scales>
<clustering>
<clus scale="   26.279">  1  9  2 -1</clus>
<clus scale="   76.459">  5  6 -1 -1</clus>
<clus scale="   88.229">  7  8 -1 -1</clus>
<clus scale="  143.141">  2  5  1 -1</clus>
<clus scale="   26.279">  1  5  2 -1</clus>
</clustering>
</event>
<event>
 9    2  0.4883225E-005  0.1023262E+03  0.7546771E-02  0.1280189E+00
          2   -1    0    0  502    0 -0.00000000000E+00  0.00000000000E+00  0.81100596854E+03  0.81100596854E+03  0.00000000000E+00 0. -1.
         21   -1    0    0  501  502  0.00000000000E+00 -0.00000000000E+00 -0.31867788994E+02  0.31867788994E+02  0.00000000000E+00 0. -1.
         23    2    1    2    0    0  0.22861788607E+02 -0.45008037531E+02  0.42799540321E+03  0.44010088757E+03  0.89220744503E+02 0.  0.
         24    2    1    2    0    0  0.40100540026E+02  0.64382137138E+02  0.12009948579E+03  0.16252172498E+03  0.78970321700E+02 0.  0.
        -13    1    4    4    0    0 -0.14648894414E+02  0.50794194343E+02  0.63272108221E+02  0.82449984629E+02  0.00000000000E+00 0.  1.
         14    1    4    4    0    0  0.54749434441E+02  0.13587942795E+02  0.56827377571E+02  0.80071740349E+02  0.00000000000E+00 0. -1.
        -13    1    3    3    0    0  0.55962765249E+02 -0.31842594291E+02  0.31895183659E+03  0.32538601071E+03  0.00000000000E+00 0. -1.
         13    1    3    3    0    0 -0.33100976641E+02 -0.13165443240E+02  0.10904356663E+03  0.11471487686E+03  0.00000000000E+00 0.  1.
          1    1    1    2  501    0 -0.62962328634E+02 -0.19374099606E+02  0.23104329054E+03  0.24025114499E+03  0.00000000000E+00 0. -1.
<scales pt_clust_5="13000.00000" pt_clust_6="13000.00000" pt_clust_7="13000.00000" pt_clust_8="13000.00000" pt_clust_9="65.87575"></scales>
<clustering>
<clus scale="   65.876">  2  9  1 -1</clus>
<clus scale="   78.970">  5  6 -1 -1</clus>
<clus scale="   89.221">  7  8 -1 -1</clus>
<clus scale="   93.523">  2  5  1 -1</clus>
<clus scale="   65.876">  2  5  1 -1</clus>
</clustering>
</event>
<event>
 9    2  0.4883225E-005  0.1260179E+03  0.7546771E-02  0.1245429E+00
         21   -1    0    0  501  502  0.00000000000E+00  0.00000000000E+00  0.84966797883E+02  0.84966797883E+02  0.00000000000E+00 0.  1.
          2   -1    0    0  502    0 -0.00000000000E+00 -0.00000000000E+00 -0.86777164725E+03  0.86777164725E+03  0.00000000000E+00 0. -1.
         24    2    1    2    0    0 -0.56617496691E+02  0.13373157395E+02 -0.28860708232E+00  0.98856690269E+02  0.79926088648E+02 0.  0.
         23    2    1    2    0    0 -0.16025766365E+02  0.81958804991E+02 -0.93999194026E+02  0.15501055610E+03  0.90655132904E+02 0.  0.
        -11    1    3    3    0    0 -0.76092641962E+02  0.15518342155E+02  0.69501415243E+01  0.77969311727E+02  0.00000000000E+00 0.  1.
         12    1    3    3    0    0  0.19475145271E+02 -0.21451847598E+01 -0.72387486066E+01  0.20887378542E+02  0.00000000000E+00 0. -1.
        -11    1    4    4    0    0  0.21625962989E+02  0.11332992149E+02  0.76945243581E+01  0.25599310369E+02  0.00000000000E+00 0. -1.
         11    1    4    4    0    0 -0.37651729354E+02  0.70625812842E+02 -0.10169371838E+03  0.12941124573E+03  0.00000000000E+00 0.  1.
          1    1    1    2  501    0  0.72643263056E+02 -0.95331962386E+02 -0.68851704825E+03  0.69887119876E+03  0.00000000000E+00 0. -1.
<scales pt_clust_5="13000.00000" pt_clust_6="13000.00000" pt_clust_7="13000.00000" pt_clust_8="13000.00000" pt_clust_9="87.53373"></scales>
<clustering>
<clus scale="   79.926">  5  6 -1 -1</clus>
<clus scale="   90.655">  7  8 -1 -1</clus>
<clus scale="   98.856">  2  5  1 -1</clus>
<clus scale="   87.534">  1  9  2 -1</clus>
<clus scale="   87.534">  1  5  2 -1</clus>
</clustering>
</event>
<event>
 9    2  0.4883225E-005  0.9276638E+02  0.7546771E-02  0.1302328E+00
         21   -1    0    0  501  502  0.00000000000E+00  0.00000000000E+00  0.17542484038E+03  0.17542484038E+03  0.00000000000E+00 0. -1.
          2   -1    0    0  502    0 -0.00000000000E+00 -0.00000000000E+00 -0.27428173689E+03  0.27428173689E+03  0.00000000000E+00 0. -1.
         24    2    1    2    0    0  0.27510968928E+01 -0.18791264059E+02 -0.23547787133E+03  0.24951822992E+03  0.80304663837E+02 0.  0.
         23    2    1    2    0    0 -0.35040360037E+01  0.43799970780E+02  0.54463042685E+02  0.11430512349E+03  0.90380985434E+02 0.  0.
        -13    1    3    3    0    0 -0.71857450232E+01  0.30845171558E+02 -0.99783418509E+02  0.10468901637E+03  0.00000000000E+00 0.  1.
         14    1    3    3    0    0  0.99368419160E+01 -0.49636435618E+02 -0.13569445282E+03  0.14482921354E+03  0.00000000000E+00 0. -1.
        -11    1    4    4    0    0 -0.42424533527E+02  0.18179417729E+02  0.49121445856E+02  0.67403625399E+02  0.00000000000E+00 0.  1.
         11    1    4    4    0    0  0.38920497524E+02  0.25620553051E+02  0.53415968293E+01  0.46901498087E+02  0.00000000000E+00 0. -1.
          1    1    1    2  501    0  0.75293911090E+00 -0.25008706720E+02  0.82157932131E+02  0.85883223864E+02  0.00000000000E+00 0. -1.
<scales pt_clust_5="13000.00000" pt_clust_6="13000.00000" pt_clust_7="13000.00000" pt_clust_8="13000.00000" pt_clust_9="25.02004"></scales>
<clustering>
<clus scale="   25.020">  1  9  2 -1</clus>
<clus scale="   80.305">  5  6 -1 -1</clus>
<clus scale="   82.980">  2  5  1 -1</clus>
<clus scale="   90.381">  7  8 -1 -1</clus>
<clus scale="   25.020">  1  5  2 -1</clus>
</clustering>
</event>
<event>
 9    2  0.4883225E-005  0.1650238E+03  0.7546771E-02  0.1188065E+00
          2   -1    0    0  502    0 -0.00000000000E+00  0.00000000000E+00  0.62323330083E+03  0.62323330083E+03  0.00000000000E+00 0. -1.
         21   -1    0    0  501  502  0.00000000000E+00 -0.00000000000E+00 -0.92301761842E+02  0.92301761842E+02  0.00000000000E+00 0.  1.
         23    2    1    2    0    0  0.72521305214E+02  0.81654965741E+02  0.15289292596E+03  0.21739615495E+03  0.10935249535E+03 0.  0.
         24    2    1    2    0    0 -0.11085017766E+03 -0.10131138487E+03  0.65833643979E+02  0.18297637826E+03  0.81206697572E+02 0.  0.
        -13    1    4    4    0    0 -0.98577345286E+02 -0.37872529178E+02  0.33966338318E+02  0.11093030969E+03  0.00000000000E+00 0.  1.
         14    1    4    4    0    0 -0.12272832375E+02 -0.63438855693E+02  0.31867305661E+02  0.72046068569E+02  0.00000000000E+00 0. -1.
        -13    1    3    3    0    0  0.66921613852E+02  0.26075468504E+00  0.99427876927E+02  0.11985187985E+03  0.00000000000E+00 0.  1.
         13    1    3    3    0    0  0.55996913623E+01  0.81394211056E+02  0.53465049032E+02  0.97544275101E+02  0.00000000000E+00 0. -1.
          1    1    1    2  501    0  0.38328872447E+02  0.19656419129E+02  0.31220496905E+03  0.31516252946E+03  0.00000000000E+00 0. -1.
<scales pt_clust_5="13000.00000" pt_clust_6="13000.00000" pt_clust_7="13000.00000" pt_clust_8="13000.00000" pt_clust_9="43.07527"></scales>
<clustering>
<clus scale="   43.075">  2  9  1 -1</clus>
<clus scale="   81.207">  5  6 -1 -1</clus>
<clus scale="  109.352">  7  8 -1 -1</clus>
<clus scale="  147.883">  2  5  1 -1</clus>
<clus scale="   43.075">  2  5  1 -1</clus>
</clustering>
</event>
<event>
 9    2  0.4883225E-005  0.1409646E+03  0.7546771E-02  0.1214796E+00
         21   -1    0    0  501  502  0.00000000000E+00  0.00000000000E+00  0.31284188767E+02  0.31284188767E+02  0.00000000000E+00 0. -1.
          2   -1    0    0  502    0 -0.00000000000E+00 -0.00000000000E+00 -0.11006511454E+04  0.11006511454E+04  0.00000000000E+00 0. -1.
         24    2    1    2    0    0  0.10981647122E+03  0.23125945877E+02 -0.83472727578E+03  0.84604948304E+03  0.80222416451E+02 0.  0.
         23    2    1    2    0    0 -0.86007450353E+02  0.45449227919E+01 -0.17726259424E+03  0.21788087693E+03  0.92909156570E+02 0.  0.
        -11    1    3    3    0    0  0.36184119705E+02  0.26672720171E+01 -0.84766152072E+02  0.92204692917E+02  0.00000000000E+00 0.  1.
         12    1    3    3    0    0  0.73632351519E+02  0.20458673860E+02 -0.74996112371E+03  0.75384479013E+03  0.00000000000E+00 0. -1.
        -13    1    4    4    0    0 -0.45015556883E+02  0.45659981698E+02 -0.12150038952E+03  0.13738114479E+03  0.00000000000E+00 0. -1.
         13    1    4    4    0    0 -0.40991893469E+02 -0.41115058906E+02 -0.55762204722E+02  0.80499732140E+02  0.00000000000E+00 0.  1.
          1    1    1    2  501    0 -0.23809020872E+02 -0.27670868669E+02 -0.57377086639E+02  0.68004974223E+02  0.00000000000E+00 0. -1.
<scales pt_clust_5="13000.00000" pt_clust_6="13000.00000" pt_clust_7="13000.00000" pt_clust_8="13000.00000" pt_clust_9="36.50406"></scales>
<clustering>
<clus scale="   36.504">  1  9  2 -1</clus>
<clus scale="   80.222">  5  6 -1 -1</clus>
<clus scale="   92.909">  7  8 -1 -1</clus>
<clus scale="  132.946">  2  5  1 -1</clus>
<clus scale="   36.504">  1  5  2 -1</clus>
</clustering>
</event>
<event>
 9    2  0.4883225E-005  0.1181647E+03  0.7546771E-02  0.1251099E+00
          2   -1    0    0  502    0 -0.00000000000E+00  0.00000000000E+00  0.63013133723E+02  0.63013133723E+02  0.00000000000E+00 0. -1.
         21   -1    0    0  501  502  0.00000000000E+00 -0.00000000000E+00 -0.56671603982E+03  0.56671603982E+03  0.00000000000E+00 0. -1.
         23    2    1    2    0    0  0.33357807678E+02  0.45021477406E+02 -0.14670180804E+03  0.18159527494E+03  0.91190715744E+02 0.  0.
         24    2    1    2    0    0 -0.36964470323E+02  0.82231964962E+02 -0.27423040364E+03  0.29628715196E+03  0.66747988823E+02 0.  0.
        -11    1    4    4    0    0 -0.27046773430E+02  0.57114481277E+00 -0.42403684859E+02  0.50298376206E+02  0.00000000000E+00 0.  1.
         12    1    4    4    0    0 -0.99176968931E+01  0.81660820149E+02 -0.23182671878E+03  0.24598877576E+03  0.00000000000E+00 0. -1.
        -11    1    3    3    0    0  0.17811499441E+02 -0.16076977716E+02 -0.23896158460E+01  0.24112838670E+02  0.00000000000E+00 0.  1.
         11    1    3    3    0    0  0.15546308237E+02  0.61098455122E+02 -0.14431219220E+03  0.15748243627E+03  0.00000000000E+00 0. -1.
          1    1    1    2  501    0  0.36066626450E+01 -0.12725344237E+03 -0.82770694417E+02  0.15184674664E+03  0.00000000000E+00 0. -1.
<scales pt_clust_5="13000.00000" pt_clust_6="13000.00000" pt_clust_7="13000.00000" pt_clust_8="13000.00000" pt_clust_9="97.50694"></scales>
<clustering>
<clus scale="   66.748">  5  6 -1 -1</clus>
<clus scale="   91.191">  7  8 -1 -1</clus>
<clus scale="  107.030">  1  7  2 -1</clus>
<clus scale="   97.507">  2  9  1 -1</clus>
<clus scale="   97.507">  2  5  1 -1</clus>
</clustering>
</event>
<event>
 9    2  0.4883225E-005  0.1415363E+03  0.7546771E-02  0.1224137E+00
         21   -1    0    0  501  502  0.00000000000E+00  0.00000000000E+00  0.76701183748E+02  0.76701183748E+02  0.00000000000E+00 0. -1.
          2   -1    0    0  502    0 -0.00000000000E+00 -0.00000000000E+00 -0.46955237865E+03  0.46955237865E+03  0.00000000000E+00 0. -1.
         24    2    1    2    0    0 -0.63031190484E+02 -0.35542543220E+02 -0.75516671669E+02  0.13172442961E+03  0.80077177175E+02 0.  0.
         23    2    1    2    0    0 -0.61017418928E+02 -0.59206556334E+01 -0.23629974101E+03  0.26066591338E+03  0.91383648544E+02 0.  0.
        -11    1    3    3    0    0 -0.38870022761E+02 -0.38874533086E+02 -0.88431672634E+02  0.10412621532E+03  0.00000000000E+00 0.  1.
         12    1    3    3    0    0 -0.24161167722E+02  0.33319898666E+01  0.12915000964E+02  0.27598214292E+02  0.00000000000E+00 0. -1.
        -13    1    4    4    0    0  0.50832058009E+01 -0.33571569457E+02 -0.11372443295E+03  0.11868502815E+03  0.00000000000E+00 0.  1.
         13    1    4    4    0    0 -0.66100624729E+02  0.27650913824E+02 -0.12257530806E+03  0.14198088523E+03  0.00000000000E+00 0. -1.
          1    1    1    2  501    0  0.12404860941E+03  0.41463198853E+02 -0.81034782225E+02  0.15386321941E+03  0.00000000000E+00 0. -1.
<scales pt_clust_5="13000.00000" pt_clust_6="13000.00000" pt_clust_7="13000.00000" pt_clust_8="13000.00000" pt_clust_9="108.08123"></scales>
<clustering>
<clus scale="   80.077">  5  6 -1 -1</clus>
<clus scale="   91.384">  7  8 -1 -1</clus>
<clus scale="  107.929">  2  5  1 -1</clus>
<clus scale="  108.081">  1  9  2 -1</clus>
<clus scale="  108.081">  1  5  2 -1</clus>
</clustering>
</event>
<event>
 9    2  0.4883225E-005  0.1461394E+03  0.7546771E-02  0.1220479E+00
         21   -1    0    0  501  502  0.00000000000E+00  0.00000000000E+00  0.10097673838E+03  0.10097673838E+03  0.00000000000E+00 0. -1.
          4   -1    0    0  502    0 -0.00000000000E+00 -0.00000000000E+00 -0.39927209011E+03  0.39927209011E+03  0.00000000000E+00 0. -1.
         24    2    1    2    0    0  0.23743290355E+02 -0.64128163928E+02 -0.87354681033E+02  0.13723778230E+03  0.80791109329E+02 0.  0.
         23    2    1    2    0    0 -0.12166756914E+03 -0.15632046861E+01 -0.19057158823E+03  0.24334726802E+03  0.89971782383E+02 0.  0.
        -11    1    3    3    0    0 -0.25579676058E+02 -0.24393800544E+02 -0.56838264465E+02  0.66932545444E+02  0.00000000000E+00 0.  1.
         12    1    3    3    0    0  0.49322966413E+02 -0.39734363384E+02 -0.30516416568E+02  0.70305236857E+02  0.00000000000E+00 0. -1.
        -13    1    4    4    0    0 -0.10308965335E+02 -0.33654714844E+02 -0.50351889153E+02  0.61434740488E+02  0.00000000000E+00 0.  1.
         13    1    4    4    0    0 -0.11135860380E+03  0.32091510158E+02 -0.14021969907E+03  0.18191252753E+03  0.00000000000E+00 0. -1.
          3    1    1    2  501    0  0.97924278783E+02  0.65691368614E+02 -0.20369082463E+02  0.11966377817E+03  0.00000000000E+00 0. -1.
<scales pt_clust_5="13000.00000" pt_clust_6="13000.00000" pt_clust_7="13000.00000" pt_clust_8="13000.00000" pt_clust_9="115.15985"></scales>
<clustering>
<clus scale="   80.791">  5  6 -1 -1</clus>
<clus scale="   89.972">  7  8 -1 -1</clus>
<clus scale="  105.846">  2  5  1 -1</clus>
<clus scale="  115.160">  1  9  2 -1</clus>
<clus scale="  115.160">  1  5  2 -1</clus>
</clustering>
</event>
<event>
 9    2  0.4883225E-005  0.1315918E+03  0.7546771E-02  0.1226449E+00
          2   -1    0    0  502    0 -0.00000000000E+00  0.00000000000E+00  0.59489962397E+03  0.59489962397E+03  0.00000000000E+00 0. -1.
         21   -1    0    0  501  502  0.00000000000E+00 -0.00000000000E+00 -0.39323131526E+03  0.39323131526E+03  0.00000000000E+00 0. -1.
         24    2    1    2    0    0 -0.35499809528E+02  0.87576597603E+02  0.54683668747E+03  0.56134465977E+03  0.84543286905E+02 0.  0.
         23    2    1    2    0    0  0.79205680113E+02 -0.11465864901E+03 -0.14555792616E+03  0.22066016898E+03  0.89909147207E+02 0.  0.
        -13    1    3    3    0    0 -0.51194593667E+02  0.19048501471E+02  0.19243834829E+03  0.20004062018E+03  0.00000000000E+00 0.  1.
         14    1    3    3    0    0  0.15694784139E+02  0.68528096132E+02  0.35439833918E+03  0.36130403959E+03  0.00000000000E+00 0. -1.
        -13    1    4    4    0    0  0.48560134036E+01 -0.23335104035E+02 -0.84923464187E+02  0.88204890545E+02  0.00000000000E+00 0.  1.
         13    1    4    4    0    0  0.74349666709E+02 -0.91323544978E+02 -0.60634461973E+02  0.13245527844E+03  0.00000000000E+00 0. -1.
          1    1    1    2  501    0 -0.43705870585E+02  0.27082051410E+02 -0.19961045261E+03  0.20612611048E+03  0.00000000000E+00 0. -1.
<scales pt_clust_5="13000.00000" pt_clust_6="13000.00000" pt_clust_7="13000.00000" pt_clust_8="13000.00000" pt_clust_9="51.41635"></scales>
<clustering>
<clus scale="   51.416">  2  9  1 -1</clus>
<clus scale="   84.543">  5  6 -1 -1</clus>
<clus scale="   89.909">  7  8 -1 -1</clus>
<clus scale="  127.986">  1  5  2 -1</clus>
<clus scale="   51.416">  2  5  1 -1</clus>
</clustering>
</event>
<event>
 9    2  0.4883225E-005  0.1038545E+03  0.7546771E-02  0.1277954E+00
         21   -1    0    0  501  502  0.00000000000E+00  0.00000000000E+00  0.67037951577E+02  0.67037951577E+02  0.00000000000E+00 0.  1.
          2   -1    0    0  502    0 -0.00000000000E+00 -0.00000000000E+00 -0.38389271404E+03  0.38389271404E+03  0.00000000000E+00 0. -1.
         24    2    1    2    0    0  0.47578688114E+02 -0.47073718605E+02 -0.23319502865E+03  0.25544443917E+03  0.79951695225E+02 0.  0.
         23    2    1    2    0    0 -0.27202820851E+00 -0.17211019220E+02 -0.26377526482E+02  0.97243166309E+02  0.92000903847E+02 0.  0.
        -11    1    3    3    0    0  0.16482073602E+02 -0.65757179576E+02 -0.15929893616E+03  0.17312370282E+03  0.00000000000E+00 0.  1.
         12    1    3    3    0    0  0.31096614512E+02  0.18683460971E+02 -0.73896092489E+02  0.82320736350E+02  0.00000000000E+00 0. -1.
        -11    1    4    4    0    0 -0.40890419617E+02  0.26032325739E+01  0.63251608314E+01  0.41458544304E+02  0.00000000000E+00 0.  1.
         11    1    4    4    0    0  0.40618391408E+02 -0.19814251794E+02 -0.32702687313E+02  0.55784622005E+02  0.00000000000E+00 0. -1.
          1    1    1    2  501    0 -0.47306659905E+02  0.64284737825E+02 -0.57282207329E+02  0.98243060137E+02  0.00000000000E+00 0. -1.
<scales pt_clust_5="13000.00000" pt_clust_6="13000.00000" pt_clust_7="13000.00000" pt_clust_8="13000.00000" pt_clust_9="79.81508"></scales>
<clustering>
<clus scale="   79.815">  1  9  2 -1</clus>
<clus scale="   79.952">  5  6 -1 -1</clus>
<clus scale="   92.001">  7  8 -1 -1</clus>
<clus scale="   93.348">  2  5  1 -1</clus>
<clus scale="   79.815">  1  5  2 -1</clus>
</clustering>
</event>
<event>
 9    2  0.4883225E-005  0.2611919E+03  0.7546771E-02  0.1106429E+00
         21   -1    0    0  501  502  0.00000000000E+00  0.00000000000E+00  0.11731069386E+03  0.11731069386E+03  0.00000000000E+00 0.  1.
         -3   -1    0    0    0  501 -0.00000000000E+00 -0.00000000000E+00 -0.41912037232E+03  0.41912037232E+03  0.00000000000E+00 0.  1.
         24    2    1    2    0    0 -0.30157763639E+02 -0.34798268471E+02 -0.35694039078E+02  0.10371159043E+03  0.85799879767E+02 0.  0.
         23    2    1    2    0    0 -0.42720727768E+02 -0.12666297825E+03 -0.10351696507E+03  0.19226295661E+03  0.91546227609E+02 0.  0.
        -13    1    3    3    0    0 -0.33635329555E+02  0.12069243329E+01  0.18612646131E+02  0.38460663757E+02  0.00000000000E+00 0.  1.
         14    1    3    3    0    0  0.34775659153E+01 -0.36005192804E+02 -0.54306685210E+02  0.65250926676E+02  0.00000000000E+00 0. -1.
        -13    1    4    4    0    0 -0.51962772910E+02 -0.28651038945E+02 -0.18409485704E+02  0.62128262208E+02  0.00000000000E+00 0. -1.
         13    1    4    4    0    0  0.92420451427E+01 -0.98011939304E+02 -0.85107479363E+02  0.13013469441E+03  0.00000000000E+00 0.  1.
         -4    1    1    2    0  502  0.72878491407E+02  0.16146124672E+03 -0.16259867431E+03  0.24045651913E+03  0.00000000000E+00 0.  1.
<scales pt_clust_5="13000.00000" pt_clust_6="13000.00000" pt_clust_7="13000.00000" pt_clust_8="13000.00000" pt_clust_9="177.14694"></scales>
<clustering>
<clus scale="   85.800">  5  6 -1 -1</clus>
<clus scale="   91.546">  7  8 -1 -1</clus>
<clus scale="   96.382">  5  7 -1 -1</clus>
<clus scale="  177.147">  1  9  2 -1</clus>
<clus scale="  177.147">  1  5  2 -1</clus>
</clustering>
</event>
<event>
 9    2  0.4883225E-005  0.5431170E+03  0.7546771E-02  0.1039527E+00
          2   -1    0    0  502    0 -0.00000000000E+00  0.00000000000E+00  0.17067414370E+04  0.17067414370E+04  0.00000000000E+00 0. -1.
         21   -1    0    0  501  502  0.00000000000E+00 -0.00000000000E+00 -0.26624978901E+03  0.26624978901E+03  0.00000000000E+00 0. -1.
         24    2    1    2    0    0 -0.20899003619E+02  0.15972285249E+03  0.28149552233E+03  0.33454008612E+03  0.82031592512E+02 0.  0.
         23    2    1    2    0    0 -0.50742094496E+03  0.96209013234E+02  0.31892427747E+03  0.61358832074E+03  0.89698065624E+02 0.  0.
        -13    1    3    3    0    0  0.25432112372E+02  0.92456970513E+02  0.18285483123E+03  0.20647269320E+03  0.00000000000E+00 0.  1.
         14    1    3    3    0    0 -0.46331115990E+02  0.67265881977E+02  0.98640691102E+02  0.12806739292E+03  0.00000000000E+00 0. -1.
        -11    1    4    4    0    0 -0.38877003439E+03  0.10692592561E+03  0.22391557041E+03  0.46120871184E+03  0.00000000000E+00 0.  1.
         11    1    4    4    0    0 -0.11865091057E+03 -0.10716912380E+02  0.95008707062E+02  0.15237960890E+03  0.00000000000E+00 0. -1.
          1    1    1    2  501    0  0.52831994858E+03 -0.25593186572E+03  0.84007184823E+03  0.10248628192E+04  0.00000000000E+00 0. -1.
<scales pt_clust_5="13000.00000" pt_clust_6="13000.00000" pt_clust_7="13000.00000" pt_clust_8="13000.00000" pt_clust_9="535.65903"></scales>
<clustering>
<clus scale="   82.032">  5  6 -1 -1</clus>
<clus scale="   89.698">  7  8 -1 -1</clus>
<clus scale="  180.769">  1  5  2 -1</clus>
<clus scale="  535.659">  2  9  1 -1</clus>
<clus scale="  535.659">  2  5  1 -1</clus>
</clustering>
</event>
<event>
 9    2  0.4883225E-005  0.1056202E+03  0.7546771E-02  0.1273168E+00
         21   -1    0    0  501  502  0.00000000000E+00  0.00000000000E+00  0.19570593052E+03  0.19570593052E+03  0.00000000000E+00 0. -1.
          2   -1    0    0  502    0 -0.00000000000E+00 -0.00000000000E+00 -0.29554750796E+03  0.29554750796E+03  0.00000000000E+00 0. -1.
         24    2    1    2    0    0 -0.33308178645E+02 -0.46087822723E+02 -0.24965440394E+03  0.26854257254E+03  0.80958444223E+02 0.  0.
         23    2    1    2    0    0  0.52646310996E+01  0.35749782172E+02  0.34605195168E+02  0.10368938066E+03  0.90819628180E+02 0.  0.
        -11    1    3    3    0    0  0.55698281297E+01 -0.54935109167E+02 -0.18005440052E+03  0.18833076316E+03  0.00000000000E+00 0.  1.
         12    1    3    3    0    0 -0.38878006775E+02  0.88472864445E+01 -0.69600003421E+02  0.80211809382E+02  0.00000000000E+00 0. -1.
        -11    1    4    4    0    0 -0.42656255099E+02  0.18288302843E+02  0.12241153350E+02  0.47998582847E+02  0.00000000000E+00 0. -1.
         11    1    4    4    0    0  0.47920886199E+02  0.17461479329E+02  0.22364041818E+02  0.55690797811E+02  0.00000000000E+00 0.  1.
          1    1    1    2  501    0  0.28043547546E+02  0.10338040551E+02  0.11520763133E+03  0.11902148528E+03  0.00000000000E+00 0. -1.
<scales pt_clust_5="13000.00000" pt_clust_6="13000.00000" pt_clust_7="13000.00000" pt_clust_8="13000.00000" pt_clust_9="29.88839"></scales>
<clustering>
<clus scale="   29.888">  1  9  2 -1</clus>
<clus scale="   80.958">  5  6 -1 -1</clus>
<clus scale="   90.820">  7  8 -1 -1</clus>
<clus scale="   97.271">  2  5  1 -1</clus>
<clus scale="   29.888">  1  5  2 -1</clus>
</clustering>
</event>
<event>
 9    2  0.4883225E-005  0.1100761E+03  0.7546771E-02  0.1265295E+00
         -3   -1    0    0    0  501 -0.00000000000E+00  0.00000000000E+00  0.12667378617E+03  0.12667378617E+03  0.00000000000E+00 0.  1.
         21   -1    0    0  501  502  0.00000000000E+00 -0.00000000000E+00 -0.44204087523E+03  0.44204087523E+03  0.00000000000E+00 0.  1.
         24    2    1    2    0    0 -0.22926679264E+02 -0.47803390129E+02  0.76867764041E+02  0.12431122338E+03  0.82059919448E+02 0.  0.
         23    2    1    2    0    0  0.63948070164E+02  0.93534126382E+02 -0.28679838334E+03  0.32237514660E+03  0.93991669762E+02 0.  0.
        -11    1    3    3    0    0 -0.28815910925E+02 -0.62043034229E+02  0.83147163392E+02  0.10767147068E+03  0.00000000000E+00 0.  1.
         12    1    3    3    0    0  0.58892316609E+01  0.14239644099E+02 -0.62793993519E+01  0.16639752698E+02  0.00000000000E+00 0. -1.
        -11    1    4    4    0    0 -0.50830783715E+01  0.53088328272E+02 -0.18705127518E+03  0.19450549563E+03  0.00000000000E+00 0.  1.
         11    1    4    4    0    0  0.69031148536E+02  0.40445798111E+02 -0.99747108157E+02  0.12786965097E+03  0.00000000000E+00 0. -1.
         -4    1    1    2    0  502 -0.41021390900E+02 -0.45730736253E+02 -0.10543646977E+03  0.12202829142E+03  0.00000000000E+00 0.  1.
<scales pt_clust_5="13000.00000" pt_clust_6="13000.00000" pt_clust_7="13000.00000" pt_clust_8="13000.00000" pt_clust_9="61.43334"></scales>
<clustering>
<clus scale="   61.433">  2  9  1 -1</clus>
<clus scale="   82.060">  5  6 -1 -1</clus>
<clus scale="   93.992">  7  8 -1 -1</clus>
<clus scale="  100.081">  1  5  2 -1</clus>
<clus scale="   61.433">  2  5  1 -1</clus>
</clustering>
</event>
<event>
 9    2  0.4883225E-005  0.1066128E+03  0.7546771E-02  0.1272158E+00
         21   -1    0    0  501  502  0.00000000000E+00  0.00000000000E+00  0.14880727960E+03  0.14880727960E+03  0.00000000000E+00 0.  1.
          2   -1    0    0  502    0 -0.00000000000E+00 -0.00000000000E+00 -0.18613000440E+03  0.18613000440E+03  0.00000000000E+00 0. -1.
         23    2    1    2    0    0  0.43197305399E+02 -0.37397471765E+02 -0.91987699355E+02  0.14200498361E+03  0.91864576686E+02 0.  0.
         24    2    1    2    0    0 -0.70078859155E+02 -0.29184618482E+02  0.49999591297E+02  0.12097704710E+03  0.79829182257E+02 0.  0.
        -11    1    4    4    0    0 -0.32693032833E+02 -0.47707206261E+02  0.26885969449E+01  0.57896808880E+02  0.00000000000E+00 0.  1.
         12    1    4    4    0    0 -0.37385826322E+02  0.18522587779E+02  0.47310994352E+02  0.63080238224E+02  0.00000000000E+00 0. -1.
        -13    1    3    3    0    0 -0.88526462862E+01 -0.34451516305E+02 -0.81364905209E+02  0.88800473657E+02  0.00000000000E+00 0.  1.
         13    1    3    3    0    0  0.52049951686E+02 -0.29459554601E+01 -0.10622794146E+02  0.53204509955E+02  0.00000000000E+00 0. -1.
          1    1    1    2  501    0  0.26881553755E+02  0.66582090247E+02  0.46653832547E+01  0.71955253282E+02  0.00000000000E+00 0. -1.
<scales pt_clust_5="13000.00000" pt_clust_6="13000.00000" pt_clust_7="13000.00000" pt_clust_8="13000.00000" pt_clust_9="71.80385"></scales>
<clustering>
<clus scale="   71.804">  1  9  2 -1</clus>
<clus scale="   79.829">  5  6 -1 -1</clus>
<clus scale="   91.865">  7  8 -1 -1</clus>
<clus scale="   96.436">  1  5  2 -1</clus>
<clus scale="   71.804">  1  5  2 -1</clus>
</clustering>
</event>
<event>
 9    2  0.4883225E-005  0.1375271E+03  0.7546771E-02  0.1231452E+00
         21   -1    0    0  501  502  0.00000000000E+00  0.00000000000E+00  0.43476932417E+03  0.43476932417E+03  0.00000000000E+00 0.  1.
         -1   -1    0    0    0  501 -0.00000000000E+00 -0.00000000000E+00 -0.12552951073E+03  0.12552951073E+03  0.00000000000E+00 0.  1.
         23    2    1    2    0    0  0.36191099326E+02  0.58399101552E+02  0.22610765097E+03  0.24768001401E+03  0.74165145331E+02 0.  0.
         24    2    1    2    0    0  0.71479613221E+02 -0.17324892295E+02 -0.59616263604E+02  0.12915987138E+03  0.87856055513E+02 0.  0.
        -13    1    4    4    0    0  0.24873498107E+02  0.20708091625E+02 -0.60927567052E+02  0.68990465963E+02  0.00000000000E+00 0.  1.
         14    1    4    4    0    0  0.46606115114E+02 -0.38032983920E+02  0.13113034480E+01  0.60169405420E+02  0.00000000000E+00 0. -1.
        -11    1    3    3    0    0  0.37167603600E+02  0.52902916588E+01  0.43286770957E+02  0.57298887277E+02  0.00000000000E+00 0.  1.
         11    1    3    3    0    0 -0.97650427450E+00  0.53108809893E+02  0.18282088001E+03  0.19038112674E+03  0.00000000000E+00 0. -1.
         -2    1    1    2    0  502 -0.10767071255E+03 -0.41074209257E+02  0.14274842607E+03  0.18345894950E+03  0.00000000000E+00 0.  1.
<scales pt_clust_5="13000.00000" pt_clust_6="13000.00000" pt_clust_7="13000.00000" pt_clust_8="13000.00000" pt_clust_9="105.80656"></scales>
<clustering>
<clus scale="   74.165">  7  8 -1 -1</clus>
<clus scale="   87.856">  5  6 -1 -1</clus>
<clus scale="  101.098">  2  7  1 -1</clus>
<clus scale="  105.807">  1  9  2 -1</clus>
<clus scale="  105.807">  1  5  2 -1</clus>
</clustering>
</event>
<event>
 9    2  0.4883225E-005  0.2654742E+03  0.7546771E-02  0.1145301E+00
          2   -1    0    0  502    0 -0.00000000000E+00  0.00000000000E+00  0.54587048202E+03  0.54587048202E+03  0.00000000000E+00 0. -1.
         21   -1    0    0  501  502  0.00000000000E+00 -0.00000000000E+00 -0.19965393558E+03  0.19965393558E+03  0.00000000000E+00 0. -1.
         23    2    1    2    0    0 -0.58958873166E+01  0.46789865738E+02  0.39070331236E+02  0.10276178557E+03  0.82519335724E+02 0.  0.
         24    2    1    2    0    0 -0.20332316594E+03 -0.17678246541E+03  0.27619478517E+03  0.39451138987E+03  0.82239452176E+02 0.  0.
        -11    1    4    4    0    0 -0.82545765042E+02 -0.12563595146E+03  0.13982246256E+03  0.20530103912E+03  0.00000000000E+00 0.  1.
         12    1    4    4    0    0 -0.12077740090E+03 -0.51146513949E+02  0.13637232261E+03  0.18921035075E+03  0.00000000000E+00 0. -1.
        -11    1    3    3    0    0  0.23847485838E+02  0.26425598097E+02  0.53229097385E+02  0.64033988038E+02  0.00000000000E+00 0.  1.
         11    1    3    3    0    0 -0.29743373154E+02  0.20364267640E+02 -0.14158766149E+02  0.38727797536E+02  0.00000000000E+00 0. -1.
          1    1    1    2  501    0  0.20921905325E+03  0.12999259967E+03  0.30951430024E+02  0.24825124216E+03  0.00000000000E+00 0. -1.
<scales pt_clust_5="13000.00000" pt_clust_6="13000.00000" pt_clust_7="13000.00000" pt_clust_8="13000.00000" pt_clust_9="252.41475"></scales>
<clustering>
<clus scale="   82.239">  5  6 -1 -1</clus>
<clus scale="   82.519">  7  8 -1 -1</clus>
<clus scale="   95.045">  1  7  2 -1</clus>
<clus scale="  252.415">  2  9  1 -1</clus>
<clus scale="  252.415">  2  5  1 -1</clus>
</clustering>
</event>
<event>
 9    2  0.4883225E-005  0.1175001E+03  0.7546771E-02  0.1251115E+00
         21   -1    0    0  501  502  0.00000000000E+00  0.00000000000E+00  0.11334478286E+03  0.11334478286E+03  0.00000000000E+00 0.  1.
          2   -1    0    0  502    0 -0.00000000000E+00 -0.00000000000E+00 -0.94705074215E+03  0.94705074215E+03  0.00000000000E+00 0. -1.
         24    2    1    2    0    0  0.53527322320E+02  0.49624239671E+02 -0.87715964682E+03  0.88381668907E+03  0.79969709789E+02 0.  0.
         23    2    1    2    0    0 -0.57118354951E+02 -0.69894464913E+02 -0.16832365357E-01  0.12848035731E+03  0.91430078391E+02 0.  0.
        -13    1    3    3    0    0  0.46908044205E+02  0.52647905537E+02 -0.37311969045E+03  0.37972420251E+03  0.00000000000E+00 0.  1.
         14    1    3    3    0    0  0.66192781152E+01 -0.30236658662E+01 -0.50403995637E+03  0.50409248657E+03  0.00000000000E+00 0. -1.
        -11    1    4    4    0    0 -0.19162320503E+02 -0.84966591035E+02  0.54809748655E+01  0.87272889288E+02  0.00000000000E+00 0.  1.
         11    1    4    4    0    0 -0.37956034447E+02  0.15072126122E+02 -0.54978072309E+01  0.41207468027E+02  0.00000000000E+00 0. -1.
          1    1    1    2  501    0  0.35910326305E+01  0.20270225242E+02  0.43470519890E+02  0.48098478627E+02  0.00000000000E+00 0. -1.
<scales pt_clust_5="13000.00000" pt_clust_6="13000.00000" pt_clust_7="13000.00000" pt_clust_8="13000.00000" pt_clust_9="20.58586"></scales>
<clustering>
<clus scale="   20.586">  1  9  2 -1</clus>
<clus scale="   79.970">  5  6 -1 -1</clus>
<clus scale="   91.430">  7  8 -1 -1</clus>
<clus scale="  108.821">  2  5  1 -1</clus>
<clus scale="   20.586">  1  5  2 -1</clus>
</clustering>
</event>
<event>
 9    2  0.4883225E-005  0.1001237E+03  0.7546771E-02  0.1282722E+00
          2   -1    0    0  502    0 -0.00000000000E+00  0.00000000000E+00  0.11957420390E+03  0.11957420390E+03  0.00000000000E+00 0. -1.
         21   -1    0    0  501  502  0.00000000000E+00 -0.00000000000E+00 -0.22966486551E+03  0.22966486551E+03  0.00000000000E+00 0. -1.
         23    2    1    2    0    0 -0.43120902328E+02 -0.29332704651E+02  0.62081306185E+02  0.11859816327E+03  0.86554121646E+02 0.  0.
         24    2    1    2    0    0  0.24024456707E+02  0.42833173189E+02 -0.51309679630E+02  0.10753676491E+03  0.80744147398E+02 0.  0.
        -13    1    4    4    0    0  0.54738904094E+00  0.58748732835E+02 -0.52997882951E+02  0.79123250956E+02  0.00000000000E+00 0.  1.
         14    1    4    4    0    0  0.23477067667E+02 -0.15915559646E+02  0.16882033209E+01  0.28413513959E+02  0.00000000000E+00 0. -1.
        -11    1    3    3    0    0 -0.60916216348E+02 -0.17592151113E+02  0.71261862890E+02  0.95386174561E+02  0.00000000000E+00 0. -1.
         11    1    3    3    0    0  0.17795314020E+02 -0.11740553538E+02 -0.91805567046E+01  0.23211988710E+02  0.00000000000E+00 0.  1.
          1    1    1    2  501    0  0.19096445621E+02 -0.13500468538E+02 -0.12086228816E+03  0.12310414122E+03  0.00000000000E+00 0. -1.
<scales pt_clust_5="13000.00000" pt_clust_6="13000.00000" pt_clust_7="13000.00000" pt_clust_8="13000.00000" pt_clust_9="23.38668"></scales>
<clustering>
<clus scale="   23.387">  2  9  1 -1</clus>
<clus scale="   80.744">  5  6 -1 -1</clus>
<clus scale="   86.554">  7  8 -1 -1</clus>
<clus scale="   95.146">  2  5  1 -1</clus>
<clus scale="   23.387">  2  5  1 -1</clus>
</clustering>
</event>
<event>
 9    2  0.4883225E-005  0.1376297E+03  0.7546771E-02  0.1219110E+00
         21   -1    0    0  501  502  0.00000000000E+00  0.00000000000E+00  0.10805944016E+03  0.10805944016E+03  0.00000000000E+00 0. -1.
          2   -1    0    0  502    0 -0.00000000000E+00 -0.00000000000E+00 -0.21126984669E+03  0.21126984669E+03  0.00000000000E+00 0. -1.
         23    2    1    2    0    0  0.44782111121E+02  0.82951057322E+02 -0.70131301822E+02  0.14835467380E+03  0.90578111907E+02 0.  0.
         24    2    1    2    0    0 -0.66092759573E+02 -0.97476590820E+02 -0.29314847006E+02  0.14491114250E+03  0.79182954856E+02 0.  0.
        -11    1    4    4    0    0 -0.28468386343E+02  0.67589320408E+01 -0.15853217517E+02  0.33278471854E+02  0.00000000000E+00 0.  1.
         12    1    4    4    0    0 -0.37624373230E+02 -0.10423552286E+03 -0.13461629489E+02  0.11163267065E+03  0.00000000000E+00 0. -1.
        -11    1    3    3    0    0  0.68329212075E+02  0.34469342280E+02 -0.36153242876E+02  0.84640851546E+02  0.00000000000E+00 0. -1.
         11    1    3    3    0    0 -0.23547100955E+02  0.48481715041E+02 -0.33978058946E+02  0.63713822256E+02  0.00000000000E+00 0.  1.
          1    1    1    2  501    0  0.21310648452E+02  0.14525533498E+02 -0.37642577061E+01  0.26063470547E+02  0.00000000000E+00 0. -1.
<scales pt_clust_5="13000.00000" pt_clust_6="13000.00000" pt_clust_7="13000.00000" pt_clust_8="13000.00000" pt_clust_9="25.79021"></scales>
<clustering>
<clus scale="   25.790">  1  9  2 -1</clus>
<clus scale="   79.183">  5  6 -1 -1</clus>
<clus scale="   90.578">  7  8 -1 -1</clus>
<clus scale="  130.413">  1  5  2 -1</clus>
<clus scale="   25.790">  1  5  2 -1</clus>
</clustering>
</event>
<event>
 9    2  0.4883225E-005  0.1264438E+03  0.7546771E-02  0.1237483E+00
          2   -1    0    0  502    0 -0.00000000000E+00  0.00000000000E+00  0.49613056606E+03  0.49613056606E+03  0.00000000000E+00 0. -1.
         21   -1    0    0  501  502  0.00000000000E+00 -0.00000000000E+00 -0.37742177822E+02  0.37742177822E+02  0.00000000000E+00 0. -1.
         23    2    1    2    0    0  0.14800220571E+01  0.93889410865E+02  0.23061608587E+03  0.26555849469E+03  0.92304512907E+02 0.  0.
         24    2    1    2    0    0  0.23565001515E+02 -0.77761914695E+02  0.16640035622E+03  0.20009500621E+03  0.75807046423E+02 0.  0.
        -13    1    4    4    0    0  0.42926423269E+02 -0.19291028903E+02  0.93362227923E+02  0.10455298759E+03  0.00000000000E+00 0.  1.
         14    1    4    4    0    0 -0.19361421753E+02 -0.58470885792E+02  0.73038128294E+02  0.95542018622E+02  0.00000000000E+00 0. -1.
        -13    1    3    3    0    0 -0.33853110553E+02  0.57265145180E+02  0.18718849597E+03  0.19865765268E+03  0.00000000000E+00 0.  1.
         13    1    3    3    0    0  0.35333132610E+02  0.36624265685E+02  0.43427589907E+02  0.66900842014E+02  0.00000000000E+00 0. -1.
          1    1    1    2  501    0 -0.25045023572E+02 -0.16127496171E+02  0.61371946143E+02  0.68219242973E+02  0.00000000000E+00 0. -1.
<scales pt_clust_5="13000.00000" pt_clust_6="13000.00000" pt_clust_7="13000.00000" pt_clust_8="13000.00000" pt_clust_9="29.78842"></scales>
<clustering>
<clus scale="   29.788">  2  9  1 -1</clus>
<clus scale="   75.807">  5  6 -1 -1</clus>
<clus scale="   92.305">  7  8 -1 -1</clus>
<clus scale="  114.955">  2  5  1 -1</clus>
<clus scale="   29.788">  2  5  1 -1</clus>
</clustering>
</event>
<event>
 9    2  0.4883225E-005  0.9328180E+02  0.7546771E-02  0.1303692E+00
          2   -1    0    0  502    0 -0.00000000000E+00  0.00000000000E+00  0.60591564385E+02  0.60591564385E+02  0.00000000000E+00 0. -1.
         21   -1    0    0  501  502  0.00000000000E+00 -0.00000000000E+00 -0.30005257681E+03  0.30005257681E+03  0.00000000000E+00 0.  1.
         23    2    1    2    0    0 -0.18166145526E+02 -0.29489822790E+02 -0.76725941953E+02  0.12504030606E+03  0.92458366197E+02 0.  0.
         24    2    1    2    0    0 -0.37186959121E+02 -0.14358295783E+02 -0.13167081311E+03  0.15845714511E+03  0.78628450477E+02 0.  0.
        -11    1    4    4    0    0 -0.60585087999E+02 -0.58104673801E+00 -0.97792496710E+02  0.11504026650E+03  0.00000000000E+00 0.  1.
         12    1    4    4    0    0  0.23398128877E+02 -0.13777249045E+02 -0.33878316401E+02  0.43416878612E+02  0.00000000000E+00 0. -1.
        -11    1    3    3    0    0  0.25250247560E+02  0.14757199906E+02 -0.49150045107E+02  0.57193329025E+02  0.00000000000E+00 0.  1.
         11    1    3    3    0    0 -0.43416393087E+02 -0.44247022696E+02 -0.27575896845E+02  0.67846977036E+02  0.00000000000E+00 0. -1.
          1    1    1    2  501    0  0.55353104648E+02  0.43848118572E+02 -0.31064257360E+02  0.77146690025E+02  0.00000000000E+00 0. -1.
<scales pt_clust_5="13000.00000" pt_clust_6="13000.00000" pt_clust_7="13000.00000" pt_clust_8="13000.00000" pt_clust_9="70.61607"></scales>
<clustering>
<clus scale="   70.616">  2  9  1 -1</clus>
<clus scale="   78.628">  5  6 -1 -1</clus>
<clus scale="   79.595">  2  5  1 -1</clus>
<clus scale="   92.458">  7  8 -1 -1</clus>
<clus scale="   70.616">  2  5  1 -1</clus>
</clustering>
</event>
<event>
 9    2  0.4883225E-005  0.1604224E+03  0.7546771E-02  0.1190503E+00
         21   -1    0    0  501  502  0.00000000000E+00  0.00000000000E+00  0.69128704427E+02  0.69128704427E+02  0.00000000000E+00 0. -1.
          2   -1    0    0  502    0 -0.00000000000E+00 -0.00000000000E+00 -0.11130651954E+04  0.11130651954E+04  0.00000000000E+00 0. -1.
         24    2    1    2    0    0  0.50643109719E+02 -0.14791050209E+03 -0.85545084659E+03  0.87348746425E+03  0.82109427481E+02 0.  0.
         23    2    1    2    0    0 -0.70949083413E+01  0.74311577225E+02 -0.18714381722E+03  0.22317838123E+03  0.95985588989E+02 0.  0.
        -11    1    3    3    0    0 -0.22356935347E+02 -0.46457562358E+02 -0.24079814807E+03  0.24625573246E+03  0.00000000000E+00 0.  1.
         12    1    3    3    0    0  0.73000045067E+02 -0.10145293973E+03 -0.61465269852E+03  0.62723173179E+03  0.00000000000E+00 0. -1.
        -11    1    4    4    0    0  0.33683954984E+02  0.60898936102E+02 -0.71289916572E+02  0.99627011631E+02  0.00000000000E+00 0.  1.
         11    1    4    4    0    0 -0.40778863325E+02  0.13412641122E+02 -0.11585390065E+03  0.12355136960E+03  0.00000000000E+00 0. -1.
          1    1    1    2  501    0 -0.43548201378E+02  0.73598924868E+02 -0.13418272001E+01  0.85528054376E+02  0.00000000000E+00 0. -1.
<scales pt_clust_5="13000.00000" pt_clust_6="13000.00000" pt_clust_7="13000.00000" pt_clust_8="13000.00000" pt_clust_9="85.51753"></scales>
<clustering>
<clus scale="   82.109">  5  6 -1 -1</clus>
<clus scale="   85.518">  1  9  2 -1</clus>
<clus scale="   95.986">  7  8 -1 -1</clus>
<clus scale="  152.526">  2  5  1 -1</clus>
<clus scale="   85.518">  1  5  2 -1</clus>
</clustering>
</event>
<event>
 9    2  0.4883225E-005  0.1069371E+03  0.7546771E-02  0.1271059E+00
         21   -1    0    0  501  502  0.00000000000E+00  0.00000000000E+00  0.29124783449E+02  0.29124783449E+02  0.00000000000E+00 0.  1.
          2   -1    0    0  502    0 -0.00000000000E+00 -0.00000000000E+00 -0.68805359830E+03  0.68805359830E+03  0.00000000000E+00 0. -1.
         23    2    1    2    0    0  0.52974348775E+02 -0.13338876975E+01 -0.42204702740E+03  0.43498618702E+03  0.91001256481E+02 0.  0.
         24    2    1    2    0    0 -0.61206462035E+02 -0.41397612656E+02 -0.15348629266E+03  0.18812542395E+03  0.79831947090E+02 0.  0.
        -11    1    4    4    0    0 -0.75063371250E+02 -0.20405650881E+02 -0.13849130890E+03  0.15884188028E+03  0.00000000000E+00 0.  1.
         12    1    4    4    0    0  0.13856909215E+02 -0.20991961774E+02 -0.14994983760E+02  0.29283543674E+02  0.00000000000E+00 0. -1.
        -11    1    3    3    0    0  0.13052360225E+02 -0.43053936579E+02 -0.23352225194E+03  0.23781641598E+03  0.00000000000E+00 0.  1.
         11    1    3    3    0    0  0.39921988550E+02  0.41720048882E+02 -0.18852477546E+03  0.19716977104E+03  0.00000000000E+00 0. -1.
          1    1    1    2  501    0  0.82321132597E+01  0.42731500353E+02 -0.83395494799E+02  0.94066770774E+02  0.00000000000E+00 0. -1.
<scales pt_clust_5="13000.00000" pt_clust_6="13000.00000" pt_clust_7="13000.00000" pt_clust_8="13000.00000" pt_clust_9="43.51722"></scales>
<clustering>
<clus scale="   43.517">  1  9  2 -1</clus>
<clus scale="   79.832">  5  6 -1 -1</clus>
<clus scale="   91.001">  7  8 -1 -1</clus>
<clus scale="   97.609">  1  5  2 -1</clus>
<clus scale="   43.517">  1  5  2 -1</clus>
</clustering>
</event>
<event>
 9    2  0.4883225E-005  0.1487986E+03  0.7546771E-02  0.1228182E+00
         21   -1    0    0  501  502  0.00000000000E+00  0.00000000000E+00  0.36612796012E+02  0.36612796012E+02  0.00000000000E+00 0.  1.
          2   -1    0    0  502    0 -0.00000000000E+00 -0.00000000000E+00 -0.11888157053E+04  0.11888157053E+04  0.00000000000E+00 0. -1.
         24    2    1    2    0    0  0.11335411223E+02  0.77448181601E+00 -0.23079725415E+03  0.24608950679E+03  0.84637943377E+02 0.  0.
         23    2    1    2    0    0 -0.43726617632E+01  0.11617683278E+03 -0.20410352008E+03  0.25253197555E+03  0.92725266896E+02 0.  0.
        -13    1    3    3    0    0 -0.90046837059E+01 -0.24035478188E+02 -0.19147620075E+02  0.32022178172E+02  0.00000000000E+00 0.  1.
         14    1    3    3    0    0  0.20340094929E+02  0.24809960004E+02 -0.21164963407E+03  0.21406732862E+03  0.00000000000E+00 0. -1.
        -11    1    4    4    0    0 -0.48510141986E+02  0.57820099969E+02 -0.99891984265E+02  0.12519906691E+03  0.00000000000E+00 0. -1.
         11    1    4    4    0    0  0.44137480223E+02  0.58356732813E+02 -0.10421153581E+03  0.12733290863E+03  0.00000000000E+00 0.  1.
          1    1    1    2  501    0 -0.69627494600E+01 -0.11695131460E+03 -0.71730213510E+03  0.72680701902E+03  0.00000000000E+00 0. -1.
<scales pt_clust_5="13000.00000" pt_clust_6="13000.00000" pt_clust_7="13000.00000" pt_clust_8="13000.00000" pt_clust_9="116.37464"></scales>
<clustering>
<clus scale="   84.638">  5  6 -1 -1</clus>
<clus scale="   85.397">  2  5  1 -1</clus>
<clus scale="   92.725">  7  8 -1 -1</clus>
<clus scale="  116.375">  1  9  2 -1</clus>
<clus scale="  116.375">  1  5  2 -1</clus>
</clustering>
</event>
<event>
 9    2  0.4883225E-005  0.1090355E+03  0.7546771E-02  0.1267424E+00
         21   -1    0    0  501  502  0.00000000000E+00  0.00000000000E+00  0.15960791442E+03  0.15960791442E+03  0.00000000000E+00 0.  1.
          2   -1    0    0  502    0 -0.00000000000E+00 -0.00000000000E+00 -0.12856764947E+03  0.12856764947E+03  0.00000000000E+00 0. -1.
         23    2    1    2    0    0  0.58049537742E+02 -0.16293242611E+02 -0.25211810704E+02  0.11281399855E+03  0.91957295973E+02 0.  0.
         24    2    1    2    0    0 -0.59002726658E+02 -0.42039115220E+02  0.40140193538E+02  0.11483747688E+03  0.79547482665E+02 0.  0.
        -11    1    4    4    0    0 -0.70990062556E+02 -0.28127436079E+02  0.52531634157E+02  0.92683948066E+02  0.00000000000E+00 0.  1.
         12    1    4    4    0    0  0.11987335898E+02 -0.13911679142E+02 -0.12391440619E+02  0.22153528818E+02  0.00000000000E+00 0. -1.
        -13    1    3    3    0    0  0.65173534235E+02  0.23286415899E+02 -0.21280950428E+02  0.72406668071E+02  0.00000000000E+00 0.  1.
         13    1    3    3    0    0 -0.71239964925E+01 -0.39579658510E+02 -0.39308602758E+01  0.40407330477E+02  0.00000000000E+00 0. -1.
          1    1    1    2  501    0  0.95318891559E+00  0.58332357831E+02  0.16111882115E+02  0.60524088465E+02  0.00000000000E+00 0. -1.
<scales pt_clust_5="13000.00000" pt_clust_6="13000.00000" pt_clust_7="13000.00000" pt_clust_8="13000.00000" pt_clust_9="58.34015"></scales>
<clustering>
<clus scale="   58.340">  1  9  2 -1</clus>
<clus scale="   79.547">  5  6 -1 -1</clus>
<clus scale="   91.957">  7  8 -1 -1</clus>
<clus scale="   98.795">  1  5  2 -1</clus>
<clus scale="   58.340">  1  5  2 -1</clus>
</clustering>
</event>
<event>
 9    2  0.4883225E-005  0.9982515E+02  0.7546771E-02  0.1285249E+00
          2   -1    0    0  502    0 -0.00000000000E+00  0.00000000000E+00  0.96028538418E+03  0.96028538418E+03  0.00000000000E+00 0. -1.
         21   -1    0    0  501  502  0.00000000000E+00 -0.00000000000E+00 -0.19977420501E+03  0.19977420501E+03  0.00000000000E+00 0.  1.
         24    2    1    2    0    0  0.38608824204E+02 -0.12717305112E+02  0.93981537664E+03  0.94427354299E+03  0.82141406590E+02 0.  0.
         23    2    1    2    0    0 -0.15460254201E+02  0.10078043416E+02 -0.16160048203E+03  0.18652440688E+03  0.91301983286E+02 0.  0.
        -11    1    3    3    0    0  0.83831999241E+01 -0.27482431852E+02  0.10734721558E+03  0.11112599513E+03  0.00000000000E+00 0.  1.
         12    1    3    3    0    0  0.30225624280E+02  0.14765126740E+02  0.83246816106E+03  0.83314754786E+03  0.00000000000E+00 0. -1.
        -11    1    4    4    0    0  0.21633253274E+02  0.28109542803E+02 -0.12947360003E+03  0.13424439336E+03  0.00000000000E+00 0.  1.
         11    1    4    4    0    0 -0.37093507474E+02 -0.18031499387E+02 -0.32126881995E+02  0.52280013520E+02  0.00000000000E+00 0. -1.
          1    1    1    2  501    0 -0.23148570003E+02  0.26392616962E+01 -0.17703715432E+02  0.29261639318E+02  0.00000000000E+00 0. -1.
<scales pt_clust_5="13000.00000" pt_clust_6="13000.00000" pt_clust_7="13000.00000" pt_clust_8="13000.00000" pt_clust_9="23.29854"></scales>
<clustering>
<clus scale="   23.299">  2  9  1 -1</clus>
<clus scale="   82.141">  5  6 -1 -1</clus>
<clus scale="   91.302">  7  8 -1 -1</clus>
<clus scale="   91.522">  1  5  2 -1</clus>
<clus scale="   23.299">  2  5  1 -1</clus>
</clustering>
</event>
<event>
 9    2  0.4883225E-005  0.1252960E+03  0.7546771E-02  0.1256375E+00
          2   -1    0    0  502    0 -0.00000000000E+00  0.00000000000E+00  0.53975135461E+03  0.53975135461E+03  0.00000000000E+00 0. -1.
         21   -1    0    0  501  502  0.00000000000E+00 -0.00000000000E+00 -0.43946645531E+02  0.43946645531E+02  0.00000000000E+00 0.  1.
         24    2    1    2    0    0  0.85269198840E+01  0.22881774568E+01  0.10914722023E+03  0.13582762857E+03  0.80362210531E+02 0.  0.
         23    2    1    2    0    0  0.64428081253E+02  0.55671902665E+02  0.15278002284E+03  0.19611558574E+03  0.88708788698E+02 0.  0.
        -13    1    3    3    0    0 -0.24998745894E+02 -0.26099301961E+02  0.58708355330E+02  0.68940422429E+02  0.00000000000E+00 0.  1.
         14    1    3    3    0    0  0.33525665778E+02  0.28387479418E+02  0.50438864899E+02  0.66887206144E+02  0.00000000000E+00 0. -1.
        -11    1    4    4    0    0  0.44796610016E+02  0.32993894803E+02  0.18658694679E+02  0.58681174582E+02  0.00000000000E+00 0.  1.
         11    1    4    4    0    0  0.19631471237E+02  0.22678007862E+02  0.13412132816E+03  0.13743441116E+03  0.00000000000E+00 0. -1.
          1    1    1    2  501    0 -0.72955001137E+02 -0.57960080122E+02  0.23387746601E+03  0.25175478583E+03  0.00000000000E+00 0. -1.
<scales pt_clust_5="13000.00000" pt_clust_6="13000.00000" pt_clust_7="13000.00000" pt_clust_8="13000.00000" pt_clust_9="88.48640"></scales>
<clustering>
<clus scale="   80.362">  5  6 -1 -1</clus>
<clus scale="   80.846">  1  5  2 -1</clus>
<clus scale="   88.486">  2  9  1 -1</clus>
<clus scale="   88.709">  7  8 -1 -1</clus>
<clus scale="   88.486">  2  5  1 -1</clus>
</clustering>
</event>
<event>
 9    2  0.4883225E-005  0.2579753E+03  0.7546771E-02  0.1108366E+00
          2   -1    0    0  502    0 -0.00000000000E+00  0.00000000000E+00  0.71348395410E+03  0.71348395410E+03  0.00000000000E+00 0. -1.
         21   -1    0    0  501  502  0.00000000000E+00 -0.00000000000E+00 -0.12843361631E+03  0.12843361631E+03  0.00000000000E+00 0. -1.
         24    2    1    2    0    0 -0.51504625658E+01  0.12097596665E+03  0.46183314672E+03  0.48437047445E+03  0.81628361114E+02 0.  0.
         23    2    1    2    0    0 -0.82619226228E+01  0.40529866158E+02  0.16218159573E+03  0.19086701034E+03  0.91741028048E+02 0.  0.
        -11    1    3    3    0    0  0.36622161533E+02  0.36988532124E+02  0.17640177249E+03  0.18392096009E+03  0.00000000000E+00 0.  1.
         12    1    3    3    0    0 -0.41772624099E+02  0.83987434529E+02  0.28543137423E+03  0.30044951436E+03  0.00000000000E+00 0. -1.
        -11    1    4    4    0    0  0.33662184622E+02 -0.55669051179E+01  0.85530604542E+02  0.92084838163E+02  0.00000000000E+00 0.  1.
         11    1    4    4    0    0 -0.41924107245E+02  0.46096771276E+02  0.76650991183E+02  0.98782172175E+02  0.00000000000E+00 0. -1.
          1    1    1    2  501    0  0.13412385189E+02 -0.16150583281E+03 -0.38964404660E+02  0.16668008561E+03  0.00000000000E+00 0. -1.
<scales pt_clust_5="13000.00000" pt_clust_6="13000.00000" pt_clust_7="13000.00000" pt_clust_8="13000.00000" pt_clust_9="162.06180"></scales>
<clustering>
<clus scale="   81.628">  5  6 -1 -1</clus>
<clus scale="   91.741">  7  8 -1 -1</clus>
<clus scale="   92.724">  5  7 -1 -1</clus>
<clus scale="  162.062">  2  9  1 -1</clus>
<clus scale="  162.062">  2  5  1 -1</clus>
</clustering>
</event>
<event>
 9    2  0.4883225E-005  0.9269611E+02  0.7546771E-02  0.1299301E+00
          2   -1    0    0  502    0 -0.00000000000E+00  0.00000000000E+00  0.15292127599E+04  0.15292127599E+04  0.00000000000E+00 0. -1.
         21   -1    0    0  501  502  0.00000000000E+00 -0.00000000000E+00 -0.14744219445E+02  0.14744219445E+02  0.00000000000E+00 0. -1.
         24    2    1    2    0    0  0.97462627122E+01  0.33112665221E+02  0.99205189489E+03  0.99638599672E+03  0.86178037090E+02 0.  0.
         23    2    1    2    0    0  0.77826918215E+01  0.26307657674E+02  0.38934508063E+03  0.40078515083E+03  0.91030116821E+02 0.  0.
        -13    1    3    3    0    0 -0.11649462306E+02  0.43280736576E+02  0.25199215649E+03  0.25594721929E+03  0.00000000000E+00 0.  1.
         14    1    3    3    0    0  0.21395725018E+02 -0.10168071355E+02  0.74005973840E+03  0.74043877743E+03  0.00000000000E+00 0. -1.
        -13    1    4    4    0    0  0.36597659804E+02  0.46456279422E+02  0.21868813408E+03  0.22654375866E+03  0.00000000000E+00 0. -1.
         13    1    4    4    0    0 -0.28814967982E+02 -0.20148621748E+02  0.17065694655E+03  0.17424139216E+03  0.00000000000E+00 0.  1.
          1    1    1    2  501    0 -0.17528954534E+02 -0.59420322895E+02  0.13307156489E+03  0.14678583175E+03  0.00000000000E+00 0. -1.
<scales pt_clust_5="13000.00000" pt_clust_6="13000.00000" pt_clust_7="13000.00000" pt_clust_8="13000.00000" pt_clust_9="61.95191"></scales>
<clustering>
<clus scale="   61.952">  2  9  1 -1</clus>
<clus scale="   86.178">  5  6 -1 -1</clus>
<clus scale="   87.936">  1  5  2 -1</clus>
<clus scale="   91.030">  7  8 -1 -1</clus>
<clus scale="   61.952">  2  5  1 -1</clus>
</clustering>
</event>
<event>
 9    2  0.4883225E-005  0.1978884E+03  0.7546771E-02  0.1152979E+00
         -1   -1    0    0    0  501 -0.00000000000E+00  0.00000000000E+00  0.83274079438E+02  0.83274079438E+02  0.00000000000E+00 0.  1.
         21   -1    0    0  501  502  0.00000000000E+00 -0.00000000000E+00 -0.64007222724E+03  0.64007222724E+03  0.00000000000E+00 0.  1.
         23    2    1    2    0    0 -0.10997044993E+03 -0.14469261896E+03 -0.12813564964E+03  0.24166564975E+03  0.94626041447E+02 0.  0.
         24    2    1    2    0    0  0.11773622078E+03  0.10634934479E+03 -0.37823566373E+03  0.41785762425E+03  0.79817141051E+02 0.  0.
        -11    1    4    4    0    0  0.47473074724E+02  0.57830186516E+02 -0.26898599400E+03  0.27919793743E+03  0.00000000000E+00 0.  1.
         12    1    4    4    0    0  0.70263146052E+02  0.48519158278E+02 -0.10924966973E+03  0.13865968682E+03  0.00000000000E+00 0. -1.
        -13    1    3    3    0    0 -0.86881979226E+02 -0.13372979852E+03 -0.62597710232E+02  0.17132019919E+03  0.00000000000E+00 0.  1.
         13    1    3    3    0    0 -0.23088470704E+02 -0.10962820440E+02 -0.65537939410E+02  0.70345450553E+02  0.00000000000E+00 0. -1.
         -2    1    1    2    0  502 -0.77657708449E+01  0.38343274161E+02 -0.50426834430E+02  0.63823032682E+02  0.00000000000E+00 0.  1.
<scales pt_clust_5="13000.00000" pt_clust_6="13000.00000" pt_clust_7="13000.00000" pt_clust_8="13000.00000" pt_clust_9="39.12178"></scales>
<clustering>
<clus scale="   39.122">  2  9  1 -1</clus>
<clus scale="   79.817">  5  6 -1 -1</clus>
<clus scale="   94.626">  7  8 -1 -1</clus>
<clus scale="  191.250">  2  5  1 -1</clus>
<clus scale="   39.122">  2  5  1 -1</clus>
</clustering>
</event>
<event>
 9    2  0.4883225E-005  0.1331219E+03  0.7546771E-02  0.1240100E+00
          4   -1    0    0  502    0 -0.00000000000E+00  0.00000000000E+00  0.26274387797E+03  0.26274387797E+03  0.00000000000E+00 0. -1.
         21   -1    0    0  501  502  0.00000000000E+00 -0.00000000000E+00 -0.22002274177E+03  0.22002274177E+03  0.00000000000E+00 0. -1.
         24    2    1    2    0    0  0.49147694777E+02  0.85194799399E+01 -0.14852791042E+03  0.17545314624E+03  0.78963212395E+02 0.  0.
         23    2    1    2    0    0 -0.29114978016E+02 -0.10096215764E+03  0.76807950278E+02  0.15884218694E+03  0.91051303698E+02 0.  0.
        -13    1    3    3    0    0 -0.52932372760E+01 -0.25061870276E+02 -0.22378510424E+02  0.34013430162E+02  0.00000000000E+00 0.  1.
         14    1    3    3    0    0  0.54440932053E+02  0.33581350216E+02 -0.12614940000E+03  0.14143971608E+03  0.00000000000E+00 0. -1.
        -11    1    4    4    0    0  0.13410123834E+02 -0.44515712436E+02  0.74885411382E+02  0.88143660650E+02  0.00000000000E+00 0.  1.
         11    1    4    4    0    0 -0.42525101850E+02 -0.56446445200E+02  0.19225388955E+01  0.70698526285E+02  0.00000000000E+00 0. -1.
          3    1    1    2  501    0 -0.20032716762E+02  0.92442677696E+02  0.11444109635E+03  0.14847128656E+03  0.00000000000E+00 0. -1.
<scales pt_clust_5="13000.00000" pt_clust_6="13000.00000" pt_clust_7="13000.00000" pt_clust_8="13000.00000" pt_clust_9="97.11386"></scales>
<clustering>
<clus scale="   78.963">  5  6 -1 -1</clus>
<clus scale="   91.051">  7  8 -1 -1</clus>
<clus scale="   93.398">  1  5  2 -1</clus>
<clus scale="   97.114">  2  9  1 -1</clus>
<clus scale="   97.114">  2  5  1 -1</clus>
</clustering>
</event>
<event>
 9    2  0.4883225E-005  0.9746776E+02  0.7546771E-02  0.1293621E+00
          4   -1    0    0  502    0 -0.00000000000E+00  0.00000000000E+00  0.64512405110E+02  0.64512405110E+02  0.00000000000E+00 0. -1.
         21   -1    0    0  501  502  0.00000000000E+00 -0.00000000000E+00 -0.38479516388E+03  0.38479516388E+03  0.00000000000E+00 0. -1.
         24    2    1    2    0    0  0.51201703648E+01 -0.16730008818E+02 -0.15053652389E+02  0.83656191885E+02  0.80409182628E+02 0.  0.
         23    2    1    2    0    0 -0.42989541051E+02  0.16197197144E+02 -0.67169815686E+02  0.12459827298E+03  0.94353037334E+02 0.  0.
        -11    1    3    3    0    0 -0.33111808674E+02  0.82950103887E+01 -0.16554837785E+02  0.37937603049E+02  0.00000000000E+00 0.  1.
         12    1    3    3    0    0  0.38231979039E+02 -0.25025019207E+02  0.15011853965E+01  0.45718588836E+02  0.00000000000E+00 0. -1.
        -11    1    4    4    0    0 -0.52639915650E+02 -0.23418949839E+02 -0.17247606637E+02  0.60140567555E+02  0.00000000000E+00 0. -1.
         11    1    4    4    0    0  0.96503745987E+01  0.39616146984E+02 -0.49922209049E+02  0.64457705420E+02  0.00000000000E+00 0.  1.
          3    1    1    2  501    0  0.37869370686E+02  0.53281167386E+00 -0.23805929070E+03  0.24105310413E+03  0.00000000000E+00 0. -1.
<scales pt_clust_5="13000.00000" pt_clust_6="13000.00000" pt_clust_7="13000.00000" pt_clust_8="13000.00000" pt_clust_9="37.87312"></scales>
<clustering>
<clus scale="   37.873">  2  9  1 -1</clus>
<clus scale="   80.409">  5  6 -1 -1</clus>
<clus scale="   84.042">  1  5  2 -1</clus>
<clus scale="   94.353">  7  8 -1 -1</clus>
<clus scale="   37.873">  2  5  1 -1</clus>
</clustering>
</event>
<event>
 9    2  0.4883225E-005  0.1815508E+03  0.7546771E-02  0.1166400E+00
         21   -1    0    0  501  502  0.00000000000E+00  0.00000000000E+00  0.14223831940E+03  0.14223831940E+03  0.00000000000E+00 0.  1.
          2   -1    0    0  502    0 -0.00000000000E+00 -0.00000000000E+00 -0.42048943258E+03  0.42048943258E+03  0.00000000000E+00 0. -1.
         23    2    1    2    0    0  0.33708391803E+02 -0.13085956602E+03 -0.12337005940E+03  0.20000413768E+03  0.80752720288E+02 0.  0.
         24    2    1    2    0    0  0.68765478134E+01  0.21727470362E+03 -0.12183283752E+03  0.26169442087E+03  0.79907107757E+02 0.  0.
        -13    1    4    4    0    0  0.85344527847E+01  0.19348122446E+03 -0.13341956874E+03  0.23517781023E+03  0.00000000000E+00 0.  1.
         14    1    4    4    0    0 -0.16579049713E+01  0.23793479165E+02  0.11586731211E+02  0.26516610640E+02  0.00000000000E+00 0. -1.
        -13    1    3    3    0    0  0.37933000837E+02 -0.95644723139E+02 -0.41803543665E+02  0.11106017234E+03  0.00000000000E+00 0.  1.
         13    1    3    3    0    0 -0.42246090341E+01 -0.35214842881E+02 -0.81566515737E+02  0.88943965338E+02  0.00000000000E+00 0. -1.
          1    1    1    2  501    0 -0.40584939617E+02 -0.86415137601E+02 -0.33048216255E+02  0.10102919344E+03  0.00000000000E+00 0. -1.
<scales pt_clust_5="13000.00000" pt_clust_6="13000.00000" pt_clust_7="13000.00000" pt_clust_8="13000.00000" pt_clust_9="95.47101"></scales>
<clustering>
<clus scale="   79.907">  5  6 -1 -1</clus>
<clus scale="   80.753">  7  8 -1 -1</clus>
<clus scale="   95.471">  1  9  2 -1</clus>
<clus scale="  181.176">  1  5  2 -1</clus>
<clus scale="   95.471">  1  5  2 -1</clus>
</clustering>
</event>
<event>
 9    2  0.4883225E-005  0.1117515E+03  0.7546771E-02  0.1261563E+00
          2   -1    0    0  502    0 -0.00000000000E+00  0.00000000000E+00  0.35739367147E+03  0.35739367147E+03  0.00000000000E+00 0. -1.
         21   -1    0    0  501  502  0.00000000000E+00 -0.00000000000E+00 -0.75311761922E+02  0.75311761922E+02  0.00000000000E+00 0. -1.
         23    2    1    2    0    0 -0.32827592092E+02  0.66590605898E+02  0.21997138071E+03  0.24956280113E+03  0.91554485303E+02 0.  0.
         24    2    1    2    0    0  0.60909316498E+02 -0.13155637524E+02  0.68114274665E+02  0.12248025468E+03  0.80491258766E+02 0.  0.
        -11    1    4    4    0    0  0.15586248657E+02 -0.38759017106E+02  0.54509975576E+02  0.68676997543E+02  0.00000000000E+00 0.  1.
         12    1    4    4    0    0  0.45323067841E+02  0.25603379582E+02  0.13604299089E+02  0.53803257134E+02  0.00000000000E+00 0. -1.
        -11    1    3    3    0    0  0.17060164688E+02  0.25010286377E+02  0.15415321044E+03  0.15709798195E+03  0.00000000000E+00 0. -1.
         11    1    3    3    0    0 -0.49887756780E+02  0.41580319520E+02  0.65818170272E+02  0.92464819180E+02  0.00000000000E+00 0.  1.
          1    1    1    2  501    0 -0.28081724406E+02 -0.53434968374E+02 -0.60037458263E+01  0.60662377588E+02  0.00000000000E+00 0. -1.
<scales pt_clust_5="13000.00000" pt_clust_6="13000.00000" pt_clust_7="13000.00000" pt_clust_8="13000.00000" pt_clust_9="60.36455"></scales>
<clustering>
<clus scale="   60.365">  2  9  1 -1</clus>
<clus scale="   80.491">  5  6 -1 -1</clus>
<clus scale="   91.554">  7  8 -1 -1</clus>
<clus scale="  102.884">  2  5  1 -1</clus>
<clus scale="   60.365">  2  5  1 -1</clus>
</clustering>
</event>
<event>
 9    2  0.4883225E-005  0.1229266E+03  0.7546771E-02  0.1238971E+00
         21   -1    0    0  501  502  0.00000000000E+00  0.00000000000E+00  0.78842986691E+03  0.78842986691E+03  0.00000000000E+00 0. -1.
         -3   -1    0    0    0  501 -0.00000000000E+00 -0.00000000000E+00 -0.33103779130E+02  0.33103779130E+02  0.00000000000E+00 0.  1.
         24    2    1    2    0    0  0.71063011552E+02  0.12528905970E+01  0.23538726665E+03  0.25877152281E+03  0.80647469718E+02 0.  0.
         23    2    1    2    0    0 -0.12597171778E+03  0.13720299574E+02  0.43413951806E+03  0.45980250566E+03  0.82970493354E+02 0.  0.
        -13    1    3    3    0    0  0.23959366852E+02 -0.81733632258E+01  0.82731227249E+01  0.26632680789E+02  0.00000000000E+00 0.  1.
         14    1    3    3    0    0  0.47103644700E+02  0.94262538228E+01  0.22711414393E+03  0.23213884202E+03  0.00000000000E+00 0. -1.
        -13    1    4    4    0    0 -0.19370304612E+02 -0.23288434486E+02  0.16830765452E+03  0.17101177284E+03  0.00000000000E+00 0. -1.
         13    1    4    4    0    0 -0.10660141316E+03  0.37008734060E+02  0.26583186355E+03  0.28879073282E+03  0.00000000000E+00 0.  1.
         -4    1    1    2    0  502  0.54908706223E+02 -0.14973190171E+02  0.85799303067E+02  0.10295961757E+03  0.00000000000E+00 0.  1.
<scales pt_clust_5="13000.00000" pt_clust_6="13000.00000" pt_clust_7="13000.00000" pt_clust_8="13000.00000" pt_clust_9="56.91367"></scales>
<clustering>
<clus scale="   56.914">  1  9  2 -1</clus>
<clus scale="   80.647">  5  6 -1 -1</clus>
<clus scale="   82.970">  7  8 -1 -1</clus>
<clus scale="  121.371">  2  5  1 -1</clus>
<clus scale="   56.914">  1  5  2 -1</clus>
</clustering>
</event>
<event>
 9    2  0.4883225E-005  0.1064253E+03  0.7546771E-02  0.1278949E+00
         21   -1    0    0  501  502  0.00000000000E+00  0.00000000000E+00  0.12587615033E+03  0.12587615033E+03  0.00000000000E+00 0. -1.
          2   -1    0    0  502    0 -0.00000000000E+00 -0.00000000000E+00 -0.99938925207E+03  0.99938925207E+03  0.00000000000E+00 0. -1.
         24    2    1    2    0    0  0.20738231862E+02 -0.15714473623E+01 -0.85668860960E+03  0.86094250241E+03  0.82910041252E+02 0.  0.
         23    2    1    2    0    0  0.12332438760E+02  0.58845149064E+02 -0.10091861763E+03  0.15733800337E+03  0.10467014524E+03 0.  0.
        -13    1    3    3    0    0 -0.22502207624E+02  0.16988649380E+02 -0.14598463926E+03  0.14868247528E+03  0.00000000000E+00 0.  1.
         14    1    3    3    0    0  0.43240439486E+02 -0.18560096742E+02 -0.71070397033E+03  0.71226002713E+03  0.00000000000E+00 0. -1.
        -11    1    4    4    0    0 -0.11382839602E+02  0.37561137191E+02 -0.11572574537E+03  0.12220006631E+03  0.00000000000E+00 0. -1.
         11    1    4    4    0    0  0.23715278361E+02  0.21284011873E+02  0.14807127737E+02  0.35137937062E+02  0.00000000000E+00 0.  1.
          1    1    1    2  501    0 -0.33070670621E+02 -0.57273701702E+02  0.84094125491E+02  0.10698489662E+03  0.00000000000E+00 0. -1.
<scales pt_clust_5="13000.00000" pt_clust_6="13000.00000" pt_clust_7="13000.00000" pt_clust_8="13000.00000" pt_clust_9="66.13582"></scales>
<clustering>
<clus scale="   66.136">  1  9  2 -1</clus>
<clus scale="   82.910">  5  6 -1 -1</clus>
<clus scale="   85.115">  2  5  1 -1</clus>
<clus scale="  104.670">  7  8 -1 -1</clus>
<clus scale="   66.136">  1  5  2 -1</clus>
</clustering>
</event>
<event>
 9    2  0.4883225E-005  0.1278042E+03  0.7546771E-02  0.1245049E+00
          2   -1    0    0  502    0 -0.00000000000E+00  0.00000000000E+00  0.10965013098E+04  0.10965013098E+04  0.00000000000E+00 0. -1.
         21   -1    0    0  501  502  0.00000000000E+00 -0.00000000000E+00 -0.53721471572E+02  0.53721471572E+02  0.00000000000E+00 0. -1.
         24    2    1    2    0    0  0.47176909430E+01 -0.51434458460E+02  0.85723239902E+03  0.86253518638E+03  0.80323108130E+02 0.  0.
         23    2    1    2    0    0  0.75130100903E+02 -0.48248624680E+01  0.11767754872E+03  0.16874599969E+03  0.94654083806E+02 0.  0.
        -11    1    3    3    0    0  0.19386086924E+02 -0.20933178193E+02  0.86985227517E+02  0.91544787518E+02  0.00000000000E+00 0.  1.
         12    1    3    3    0    0 -0.14668395981E+02 -0.30501280266E+02  0.77024717150E+03  0.77099039886E+03  0.00000000000E+00 0. -1.
        -13    1    4    4    0    0  0.36323451294E+02 -0.74728026958E+01 -0.73518273866E+01  0.37805889223E+02  0.00000000000E+00 0. -1.
         13    1    4    4    0    0  0.38806649609E+02  0.26479402278E+01  0.12502937610E+03  0.13094011047E+03  0.00000000000E+00 0.  1.
          1    1    1    2  501    0 -0.79847791846E+02  0.56259320928E+02  0.67869890475E+02  0.11894159528E+03  0.00000000000E+00 0. -1.
<scales pt_clust_5="13000.00000" pt_clust_6="13000.00000" pt_clust_7="13000.00000" pt_clust_8="13000.00000" pt_clust_9="85.87503"></scales>
<clustering>
<clus scale="   80.323">  5  6 -1 -1</clus>
<clus scale="   94.654">  7  8 -1 -1</clus>
<clus scale="   95.496">  1  5  2 -1</clus>
<clus scale="   85.875">  2  9  1 -1</clus>
<clus scale="   85.875">  2  5  1 -1</clus>
</clustering>
</event>
<event>
 9    2  0.4883225E-005  0.2481784E+03  0.7546771E-02  0.1158587E+00
         21   -1    0    0  501  502  0.00000000000E+00  0.00000000000E+00  0.78648841777E+03  0.78648841777E+03  0.00000000000E+00 0.  1.
         -1   -1    0    0    0  501 -0.00000000000E+00 -0.00000000000E+00 -0.15816233826E+03  0.15816233826E+03  0.00000000000E+00 0.  1.
         24    2    1    2    0    0  0.22402280021E+02 -0.86913363518E+01  0.24150510168E+02  0.88370240724E+02  0.81539259419E+02 0.  0.
         23    2    1    2    0    0 -0.72180951766E+02 -0.21732907724E+03  0.57097938169E+03  0.62247476176E+03  0.94949234324E+02 0.  0.
        -11    1    3    3    0    0  0.18447670844E+02  0.32948948825E+02  0.27037223467E+02  0.46443096807E+02  0.00000000000E+00 0.  1.
         12    1    3    3    0    0  0.39546091769E+01 -0.41640285177E+02 -0.28867132992E+01  0.41927143917E+02  0.00000000000E+00 0. -1.
        -11    1    4    4    0    0 -0.54938664981E+02 -0.14751709006E+03  0.48754659889E+03  0.51232922507E+03  0.00000000000E+00 0.  1.
         11    1    4    4    0    0 -0.17242286784E+02 -0.69811987172E+02  0.83432782802E+02  0.11014553669E+03  0.00000000000E+00 0. -1.
         -2    1    1    2    0  502  0.49778671745E+02  0.22602041359E+03  0.33196187645E+02  0.23380575355E+03  0.00000000000E+00 0.  1.
<scales pt_clust_5="13000.00000" pt_clust_6="13000.00000" pt_clust_7="13000.00000" pt_clust_8="13000.00000" pt_clust_9="229.29724"></scales>
<clustering>
<clus scale="   81.539">  5  6 -1 -1</clus>
<clus scale="   85.006">  2  5  1 -1</clus>
<clus scale="   94.949">  7  8 -1 -1</clus>
<clus scale="  229.297">  1  9  2 -1</clus>
<clus scale="  229.297">  1  5  2 -1</clus>
</clustering>
</event>
<event>
 9    2  0.4883225E-005  0.1091974E+03  0.7546771E-02  0.1264238E+00
         21   -1    0    0  501  502  0.00000000000E+00  0.00000000000E+00  0.41450816400E+03  0.41450816400E+03  0.00000000000E+00 0. -1.
          2   -1    0    0  502    0 -0.00000000000E+00 -0.00000000000E+00 -0.93901707282E+02  0.93901707282E+02  0.00000000000E+00 0. -1.
         23    2    1    2    0    0  0.25403467370E+02 -0.40415868391E+02 -0.12556752832E+02  0.10312520657E+03  0.90544782376E+02 0.  0.
         24    2    1    2    0    0 -0.87357578252E+02  0.73483535368E+02  0.13954530959E+03  0.19932429562E+03  0.85006499436E+02 0.  0.
        -11    1    4    4    0    0 -0.19061641664E+02  0.69327321847E+02  0.88120918002E+02  0.11373178943E+03  0.00000000000E+00 0.  1.
         12    1    4    4    0    0 -0.68295936588E+02  0.41562135211E+01  0.51424391592E+02  0.85592506190E+02  0.00000000000E+00 0. -1.
        -11    1    3    3    0    0  0.25157605635E+01  0.24672514254E+02  0.14826679255E+02  0.28894505162E+02  0.00000000000E+00 0.  1.
         11    1    3    3    0    0  0.22887706807E+02 -0.65088382645E+02 -0.27383432087E+02  0.74230701405E+02  0.00000000000E+00 0. -1.
          1    1    1    2  501    0  0.61954110882E+02 -0.33067666977E+02  0.19361789996E+03  0.20596036910E+03  0.00000000000E+00 0. -1.
<scales pt_clust_5="13000.00000" pt_clust_6="13000.00000" pt_clust_7="13000.00000" pt_clust_8="13000.00000" pt_clust_9="70.22665"></scales>
<clustering>
<clus scale="   70.227">  1  9  2 -1</clus>
<clus scale="   85.006">  5  6 -1 -1</clus>
<clus scale="   90.545">  7  8 -1 -1</clus>
<clus scale="  104.651">  1  5  2 -1</clus>
<clus scale="   70.227">  1  5  2 -1</clus>
</clustering>
</event>
<event>
 9    2  0.4883225E-005  0.9323985E+02  0.7546771E-02  0.1302766E+00
         21   -1    0    0  501  502  0.00000000000E+00  0.00000000000E+00  0.17545548167E+03  0.17545548167E+03  0.00000000000E+00 0.  1.
         -1   -1    0    0    0  501 -0.00000000000E+00 -0.00000000000E+00 -0.10186280299E+03  0.10186280299E+03  0.00000000000E+00 0.  1.
         24    2    1    2    0    0  0.18065036647E+02 -0.40556664646E+01 -0.34988729262E+02  0.88698498051E+02  0.79375174970E+02 0.  0.
         23    2    1    2    0    0 -0.96545787571E+01 -0.27723758964E+02  0.26095831444E+02  0.99824865521E+02  0.91772510347E+02 0.  0.
        -13    1    3    3    0    0 -0.23401001888E+02  0.20324488047E+02 -0.34674780037E+01  0.31188380969E+02  0.00000000000E+00 0.  1.
         14    1    3    3    0    0  0.41466038536E+02 -0.24380154512E+02 -0.31521251258E+02  0.57510117082E+02  0.00000000000E+00 0. -1.
        -13    1    4    4    0    0 -0.46005974871E+02 -0.39880464249E+01 -0.49631527135E+01  0.46444452015E+02  0.00000000000E+00 0.  1.
         13    1    4    4    0    0  0.36351396114E+02 -0.23735712539E+02  0.31058984157E+02  0.53380413506E+02  0.00000000000E+00 0. -1.
         -2    1    1    2    0  502 -0.84104578903E+01  0.31779425428E+02  0.82485576489E+02  0.88794921089E+02  0.00000000000E+00 0.  1.
<scales pt_clust_5="13000.00000" pt_clust_6="13000.00000" pt_clust_7="13000.00000" pt_clust_8="13000.00000" pt_clust_9="32.87351"></scales>
<clustering>
<clus scale="   32.874">  1  9  2 -1</clus>
<clus scale="   79.375">  5  6 -1 -1</clus>
<clus scale="   81.067">  2  5  1 -1</clus>
<clus scale="   91.773">  7  8 -1 -1</clus>
<clus scale="   32.874">  1  5  2 -1</clus>
</clustering>
</event>
<event>
 9    2  0.4883225E-005  0.1889780E+03  0.7546771E-02  0.1188166E+00
         21   -1    0    0  501  502  0.00000000000E+00  0.00000000000E+00  0.53695881686E+02  0.53695881686E+02  0.00000000000E+00 0. -1.
          2   -1    0    0  502    0 -0.00000000000E+00 -0.00000000000E+00 -0.10493924531E+04  0.10493924531E+04  0.00000000000E+00 0. -1.
         24    2    1    2    0    0 -0.46237044279E+01  0.55462510220E+02 -0.35915565521E+03  0.37235288172E+03  0.80971693637E+02 0.  0.
         23    2    1    2    0    0  0.96867418895E+02 -0.16218940827E+03 -0.30688515503E+03  0.37216543968E+03  0.92951143712E+02 0.  0.
        -11    1    3    3    0    0 -0.27435644690E+02  0.12251396635E+02 -0.43084163689E+02  0.52526721579E+02  0.00000000000E+00 0.  1.
         12    1    3    3    0    0  0.22811940262E+02  0.43211113585E+02 -0.31607149152E+03  0.31982616014E+03  0.00000000000E+00 0. -1.
        -13    1    4    4    0    0 -0.71664833913E+01 -0.73201727640E+02 -0.11251149405E+03  0.13441981888E+03  0.00000000000E+00 0.  1.
         13    1    4    4    0    0  0.10403390229E+03 -0.88987680627E+02 -0.19437366098E+03  0.23774562080E+03  0.00000000000E+00 0. -1.
          1    1    1    2  501    0 -0.92243714467E+02  0.10672689805E+03 -0.32965576117E+03  0.35857001338E+03  0.00000000000E+00 0. -1.
<scales pt_clust_5="13000.00000" pt_clust_6="13000.00000" pt_clust_7="13000.00000" pt_clust_8="13000.00000" pt_clust_9="164.53811"></scales>
<clustering>
<clus scale="   80.972">  5  6 -1 -1</clus>
<clus scale="   92.951">  7  8 -1 -1</clus>
<clus scale="   98.254">  2  5  1 -1</clus>
<clus scale="  164.538">  1  9  2 -1</clus>
<clus scale="  164.538">  1  5  2 -1</clus>
</clustering>
</event>
<event>
 9    2  0.4883225E-005  0.1019173E+03  0.7546771E-02  0.1283141E+00
          2   -1    0    0  502    0 -0.00000000000E+00  0.00000000000E+00  0.11399104743E+03  0.11399104743E+03  0.00000000000E+00 0. -1.
         21   -1    0    0  501  502  0.00000000000E+00 -0.00000000000E+00 -0.15688094232E+03  0.15688094232E+03  0.00000000000E+00 0.  1.
         24    2    1    2    0    0  0.20503761423E+02  0.38866517124E+02  0.22131701711E+02  0.93839734814E+02  0.79906653186E+02 0.  0.
         23    2    1    2    0    0  0.15768597064E+02 -0.37721928069E+02 -0.87366654171E+02  0.13441423442E+03  0.93609089530E+02 0.  0.
        -13    1    3    3    0    0 -0.94675977069E+01 -0.21419518768E+02  0.16896790012E+01  0.23479484784E+02  0.00000000000E+00 0.  1.
         14    1    3    3    0    0  0.29971359130E+02  0.60286035892E+02  0.20442022710E+02  0.70360250029E+02  0.00000000000E+00 0. -1.
        -13    1    4    4    0    0 -0.33052459266E+02 -0.16491174223E+02 -0.68696760836E+02  0.77997877151E+02  0.00000000000E+00 0.  1.
         13    1    4    4    0    0  0.48821056331E+02 -0.21230753846E+02 -0.18669893335E+02  0.56416357267E+02  0.00000000000E+00 0. -1.
          1    1    1    2  501    0 -0.36272358488E+02 -0.11445890551E+01  0.22345057570E+02  0.42618020510E+02  0.00000000000E+00 0. -1.
<scales pt_clust_5="13000.00000" pt_clust_6="13000.00000" pt_clust_7="13000.00000" pt_clust_8="13000.00000" pt_clust_9="36.29043"></scales>
<clustering>
<clus scale="   36.290">  2  9  1 -1</clus>
<clus scale="   79.907">  5  6 -1 -1</clus>
<clus scale="   89.496">  1  5  2 -1</clus>
<clus scale="   93.609">  7  8 -1 -1</clus>
<clus scale="   36.290">  2  5  1 -1</clus>
</clustering>
</event>
<event>
 9    2  0.4883225E-005  0.1231107E+03  0.7546771E-02  0.1240917E+00
         21   -1    0    0  501  502  0.00000000000E+00  0.00000000000E+00  0.10326535997E+03  0.10326535997E+03  0.00000000000E+00 0.  1.
          4   -1    0    0  502    0 -0.00000000000E+00 -0.00000000000E+00 -0.18544923656E+03  0.18544923656E+03  0.00000000000E+00 0. -1.
         24    2    1    2    0    0  0.74171827363E+02 -0.37819135891E+02 -0.56690085696E+02  0.12882752997E+03  0.80318239830E+02 0.  0.
         23    2    1    2    0    0 -0.59059082223E+02  0.65564881507E+02 -0.23017643701E+02  0.12819554134E+03  0.90097480642E+02 0.  0.
        -11    1    3    3    0    0  0.63858306024E+02 -0.94617445940E+01  0.58348507065E-01  0.64555489802E+02  0.00000000000E+00 0.  1.
         12    1    3    3    0    0  0.10313521339E+02 -0.28357391297E+02 -0.56748434203E+02  0.64272040173E+02  0.00000000000E+00 0. -1.
        -11    1    4    4    0    0 -0.66061862358E+02  0.63119655626E+01 -0.97813127599E+01  0.67079688780E+02  0.00000000000E+00 0. -1.
         11    1    4    4    0    0  0.70027801348E+01  0.59252915944E+02 -0.13236330941E+02  0.61115852561E+02  0.00000000000E+00 0.  1.
          3    1    1    2  501    0 -0.15112745139E+02 -0.27745745616E+02 -0.24761471930E+01  0.31691525213E+02  0.00000000000E+00 0. -1.
<scales pt_clust_5="13000.00000" pt_clust_6="13000.00000" pt_clust_7="13000.00000" pt_clust_8="13000.00000" pt_clust_9="31.59464"></scales>
<clustering>
<clus scale="   31.595">  1  9  2 -1</clus>
<clus scale="   80.318">  5  6 -1 -1</clus>
<clus scale="   90.097">  7  8 -1 -1</clus>
<clus scale="  116.145">  2  5  1 -1</clus>
<clus scale="   31.595">  1  5  2 -1</clus>
</clustering>
</event>
<event>
 9    2  0.4883225E-005  0.1174283E+03  0.7546771E-02  0.1250322E+00
         -1   -1    0    0    0  501 -0.00000000000E+00  0.00000000000E+00  0.21805490843E+03  0.21805490843E+03  0.00000000000E+00 0.  1.
         21   -1    0    0  501  502  0.00000000000E+00 -0.00000000000E+00 -0.26624698040E+03  0.26624698040E+03  0.00000000000E+00 0.  1.
         24    2    1    2    0    0  0.33431976266E+02 -0.57097661422E+02  0.12734978896E+03  0.16506090290E+03  0.81543196787E+02 0.  0.
         23    2    1    2    0    0 -0.41412677446E+02  0.10201646927E+03 -0.48294704055E+01  0.14253753048E+03  0.90394988556E+02 0.  0.
        -11    1    3    3    0    0  0.43014693715E+02 -0.15114355673E+02  0.10918797347E+03  0.11832464313E+03  0.00000000000E+00 0.  1.
         12    1    3    3    0    0 -0.95827174486E+01 -0.41983305749E+02  0.18161815493E+02  0.46736259770E+02  0.00000000000E+00 0. -1.
        -11    1    4    4    0    0 -0.58994043208E+02  0.68394751221E+02 -0.32051870079E+02  0.95840813353E+02  0.00000000000E+00 0. -1.
         11    1    4    4    0    0  0.17581365762E+02  0.33621718048E+02  0.27222399674E+02  0.46696717129E+02  0.00000000000E+00 0.  1.
         -2    1    1    2    0  502  0.79807011798E+01 -0.44918807848E+02 -0.17071239052E+03  0.17670345545E+03  0.00000000000E+00 0.  1.
<scales pt_clust_5="13000.00000" pt_clust_6="13000.00000" pt_clust_7="13000.00000" pt_clust_8="13000.00000" pt_clust_9="45.62226"></scales>
<clustering>
<clus scale="   45.622">  2  9  1 -1</clus>
<clus scale="   81.543">  5  6 -1 -1</clus>
<clus scale="   90.395">  7  8 -1 -1</clus>
<clus scale="  110.759">  1  5  2 -1</clus>
<clus scale="   45.622">  2  5  1 -1</clus>
</clustering>
</event>
<event>
 9    2  0.4883225E-005  0.2074062E+03  0.7546771E-02  0.1155221E+00
          2   -1    0    0  502    0 -0.00000000000E+00  0.00000000000E+00  0.67390644993E+03  0.67390644993E+03  0.00000000000E+00 0. -1.
         21   -1    0    0  501  502  0.00000000000E+00 -0.00000000000E+00 -0.12961812794E+03  0.12961812794E+03  0.00000000000E+00 0. -1.
         23    2    1    2    0    0 -0.85516903255E+02  0.98530336281E+02  0.22556722129E+03  0.27515682736E+03  0.88370472508E+02 0.  0.
         24    2    1    2    0    0  0.22577751221E+03 -0.66103927843E+00  0.12625599844E+03  0.27089104612E+03  0.80408082518E+02 0.  0.
        -11    1    4    4    0    0  0.84737183307E+02 -0.39090057363E+02  0.44261868349E+02  0.10328376353E+03  0.00000000000E+00 0.  1.
         12    1    4    4    0    0  0.14104032890E+03  0.38429018085E+02  0.81994130091E+02  0.16760728259E+03  0.00000000000E+00 0. -1.
        -11    1    3    3    0    0 -0.81526075384E+01  0.23551685316E+02  0.12605416406E+03  0.12849435461E+03  0.00000000000E+00 0.  1.
         11    1    3    3    0    0 -0.77364295717E+02  0.74978650965E+02  0.99513057232E+02  0.14666247275E+03  0.00000000000E+00 0. -1.
          1    1    1    2  501    0 -0.14026060895E+03 -0.97869297003E+02  0.19246510226E+03  0.25747670440E+03  0.00000000000E+00 0. -1.
<scales pt_clust_5="13000.00000" pt_clust_6="13000.00000" pt_clust_7="13000.00000" pt_clust_8="13000.00000" pt_clust_9="191.18549"></scales>
<clustering>
<clus scale="   80.408">  5  6 -1 -1</clus>
<clus scale="   88.370">  7  8 -1 -1</clus>
<clus scale="  157.578">  1  7  2 -1</clus>
<clus scale="  191.185">  2  9  1 -1</clus>
<clus scale="  191.185">  2  5  1 -1</clus>
</clustering>
</event>
<event>
 9    2  0.4883225E-005  0.1132047E+03  0.7546771E-02  0.1257707E+00
         21   -1    0    0  501  502  0.00000000000E+00  0.00000000000E+00  0.14034668964E+03  0.14034668964E+03  0.00000000000E+00 0. -1.
          2   -1    0    0  502    0 -0.00000000000E+00 -0.00000000000E+00 -0.38183275773E+03  0.38183275773E+03  0.00000000000E+00 0. -1.
         24    2    1    2    0    0  0.38761234213E+02  0.22389137030E+02 -0.14927950097E+03  0.17611488473E+03  0.82026681502E+02 0.  0.
         23    2    1    2    0    0 -0.76890001950E+02 -0.94350299917E+02 -0.17394315182E+03  0.23068223655E+03  0.90244239150E+02 0.  0.
        -11    1    3    3    0    0  0.24627964647E+02  0.11103709954E+02 -0.13131127919E+01  0.27047241682E+02  0.00000000000E+00 0.  1.
         12    1    3    3    0    0  0.14133269567E+02  0.11285427076E+02 -0.14796638818E+03  0.14906764305E+03  0.00000000000E+00 0. -1.
        -11    1    4    4    0    0 -0.31550864708E+02  0.32602874640E+01 -0.86104872829E+02  0.91761297196E+02  0.00000000000E+00 0.  1.
         11    1    4    4    0    0 -0.45339137241E+02 -0.97610587381E+02 -0.87838278996E+02  0.13892093936E+03  0.00000000000E+00 0. -1.
          1    1    1    2  501    0  0.38128767737E+02  0.71961162887E+02  0.81736584713E+02  0.11538232609E+03  0.00000000000E+00 0. -1.
<scales pt_clust_5="13000.00000" pt_clust_6="13000.00000" pt_clust_7="13000.00000" pt_clust_8="13000.00000" pt_clust_9="81.43839"></scales>
<clustering>
<clus scale="   81.438">  1  9  2 -1</clus>
<clus scale="   82.027">  5  6 -1 -1</clus>
<clus scale="   90.244">  7  8 -1 -1</clus>
<clus scale="  106.769">  2  5  1 -1</clus>
<clus scale="   81.438">  1  5  2 -1</clus>
</clustering>
</event>
<event>
 9    2  0.4883225E-005  0.1768219E+03  0.7546771E-02  0.1171315E+00
          2   -1    0    0  502    0 -0.00000000000E+00  0.00000000000E+00  0.61605199557E+03  0.61605199557E+03  0.00000000000E+00 0. -1.
         21   -1    0    0  501  502  0.00000000000E+00 -0.00000000000E+00 -0.11637686886E+03  0.11637686886E+03  0.00000000000E+00 0.  1.
         24    2    1    2    0    0  0.26535700114E+02  0.19131682334E+03  0.24696750889E+03  0.32535480692E+03  0.86928301880E+02 0.  0.
         23    2    1    2    0    0 -0.54546153303E+02 -0.80150503716E+02 -0.16982953893E+01  0.12803122068E+03  0.83604564327E+02 0.  0.
        -13    1    3    3    0    0 -0.28261368176E+02  0.31253825097E+02  0.58423670550E+02  0.72033546317E+02  0.00000000000E+00 0.  1.
         14    1    3    3    0    0  0.54797068290E+02  0.16006299824E+03  0.18854383833E+03  0.25332126060E+03  0.00000000000E+00 0. -1.
        -11    1    4    4    0    0 -0.33077460083E+01 -0.42058056382E+02 -0.36083186951E+02  0.55514121364E+02  0.00000000000E+00 0.  1.
         11    1    4    4    0    0 -0.51238407295E+02 -0.38092447334E+02  0.34384891561E+02  0.72517099320E+02  0.00000000000E+00 0. -1.
          1    1    1    2  501    0  0.28010453190E+02 -0.11116631962E+03  0.25440591321E+03  0.27904283683E+03  0.00000000000E+00 0. -1.
<scales pt_clust_5="13000.00000" pt_clust_6="13000.00000" pt_clust_7="13000.00000" pt_clust_8="13000.00000" pt_clust_9="114.64096"></scales>
<clustering>
<clus scale="   83.605">  7  8 -1 -1</clus>
<clus scale="   86.928">  5  6 -1 -1</clus>
<clus scale="  114.641">  2  9  1 -1</clus>
<clus scale="  175.212">  2  7  1 -1</clus>
<clus scale="  114.641">  2  5  1 -1</clus>
</clustering>
</event>
<event>
 9    2  0.4883225E-005  0.8971638E+02  0.7546771E-02  0.1312972E+00
         -1   -1    0    0    0  501 -0.00000000000E+00  0.00000000000E+00  0.67421976851E+02  0.67421976851E+02  0.00000000000E+00 0.  1.
         21   -1    0    0  501  502  0.00000000000E+00 -0.00000000000E+00 -0.14552899723E+03  0.14552899723E+03  0.00000000000E+00 0.  1.
         24    2    1    2    0    0 -0.22594862300E+01  0.39473872363E+01 -0.37663983582E+01  0.75095741475E+02  0.74863191804E+02 0.  0.
         23    2    1    2    0    0  0.15245061676E+01 -0.24721548463E+02 -0.71416615416E+02  0.11686342980E+03  0.89124907802E+02 0.  0.
        -13    1    3    3    0    0  0.13600524395E+02  0.33457781888E+02 -0.15903280903E+02  0.39462789767E+02  0.00000000000E+00 0.  1.
         14    1    3    3    0    0 -0.15860010625E+02 -0.29510394652E+02  0.12136882545E+02  0.35632951708E+02  0.00000000000E+00 0. -1.
        -11    1    4    4    0    0  0.15334321255E+02 -0.56131974886E+02 -0.44596039987E+02  0.73312664632E+02  0.00000000000E+00 0.  1.
         11    1    4    4    0    0 -0.13809815087E+02  0.31410426423E+02 -0.26820575429E+02  0.43550765173E+02  0.00000000000E+00 0. -1.
         -2    1    1    2    0  502  0.73498006238E+00  0.20774161227E+02 -0.29240066085E+01  0.20991802805E+02  0.00000000000E+00 0.  1.
<scales pt_clust_5="13000.00000" pt_clust_6="13000.00000" pt_clust_7="13000.00000" pt_clust_8="13000.00000" pt_clust_9="20.78717"></scales>
<clustering>
<clus scale="   20.787">  2  9  1 -1</clus>
<clus scale="   74.863">  5  6 -1 -1</clus>
<clus scale="   75.566">  1  5  2 -1</clus>
<clus scale="   89.125">  7  8 -1 -1</clus>
<clus scale="   20.787">  2  5  1 -1</clus>
</clustering>
</event>
<event>
 9    2  0.4883225E-005  0.1272747E+03  0.7546771E-02  0.1233987E+00
         -3   -1    0    0    0  501 -0.00000000000E+00  0.00000000000E+00  0.50249162769E+02  0.50249162769E+02  0.00000000000E+00 0.  1.
         21   -1    0    0  501  502  0.00000000000E+00 -0.00000000000E+00 -0.13327852118E+04  0.13327852118E+04  0.00000000000E+00 0.  1.
         23    2    1    2    0    0 -0.29694931026E+02  0.93750351066E+02 -0.10279472584E+03  0.16881293705E+03  0.90885283745E+02 0.  0.
         24    2    1    2    0    0 -0.82215959937E+02 -0.47549622491E+02 -0.91184529916E+03  0.92023702547E+03  0.79711371735E+02 0.  0.
        -11    1    4    4    0    0 -0.46630852817E+02 -0.59220342334E+02 -0.40112509184E+03  0.40814559251E+03  0.00000000000E+00 0.  1.
         12    1    4    4    0    0 -0.35585107120E+02  0.11670719843E+02 -0.51072020732E+03  0.51209143296E+03  0.00000000000E+00 0. -1.
        -11    1    3    3    0    0  0.17165441681E+02  0.43532362704E+02 -0.19959515091E+01  0.46836981255E+02  0.00000000000E+00 0.  1.
         11    1    3    3    0    0 -0.46860372707E+02  0.50217988363E+02 -0.10079877433E+03  0.12197595580E+03  0.00000000000E+00 0. -1.
         -4    1    1    2    0  502  0.11191089096E+03 -0.46200728575E+02 -0.26789602407E+03  0.29398441209E+03  0.00000000000E+00 0.  1.
<scales pt_clust_5="13000.00000" pt_clust_6="13000.00000" pt_clust_7="13000.00000" pt_clust_8="13000.00000" pt_clust_9="121.07258"></scales>
<clustering>
<clus scale="   79.711">  5  6 -1 -1</clus>
<clus scale="   90.885">  7  8 -1 -1</clus>
<clus scale="  121.073">  2  9  1 -1</clus>
<clus scale="  121.073">  2  5  1 -1</clus>
<clus scale="  121.073">  2  5  1 -1</clus>
</clustering>
</event>
<event>
 9    2  0.4883225E-005  0.2001728E+03  0.7546771E-02  0.1178893E+00
          2   -1    0    0  502    0 -0.00000000000E+00  0.00000000000E+00  0.52758952938E+03  0.52758952938E+03  0.00000000000E+00 0. -1.
         21   -1    0    0  501  502  0.00000000000E+00 -0.00000000000E+00 -0.11590410617E+03  0.11590410617E+03  0.00000000000E+00 0. -1.
         24    2    1    2    0    0  0.35640840937E+02 -0.50914823263E+02  0.72246821513E+02  0.12475479646E+03  0.80508181259E+02 0.  0.
         23    2    1    2    0    0 -0.16954212497E+03  0.99953354523E+02  0.10389519152E+03  0.24339354771E+03  0.98544421595E+02 0.  0.
        -11    1    3    3    0    0  0.35419768426E+02 -0.16918528705E+01 -0.21754974795E+01  0.35526822976E+02  0.00000000000E+00 0.  1.
         12    1    3    3    0    0  0.22107251174E+00 -0.49222970393E+02  0.74422318993E+02  0.89227973481E+02  0.00000000000E+00 0. -1.
        -11    1    4    4    0    0 -0.98377981369E+01  0.27742069305E+02  0.53431015285E+02  0.61002279268E+02  0.00000000000E+00 0. -1.
         11    1    4    4    0    0 -0.15970432683E+03  0.72211285218E+02  0.50464176237E+02  0.18239126844E+03  0.00000000000E+00 0.  1.
          1    1    1    2  501    0  0.13390128403E+03 -0.49038531259E+02  0.23554341017E+03  0.27534529138E+03  0.00000000000E+00 0. -1.
<scales pt_clust_5="13000.00000" pt_clust_6="13000.00000" pt_clust_7="13000.00000" pt_clust_8="13000.00000" pt_clust_9="174.23600"></scales>
<clustering>
<clus scale="   80.508">  5  6 -1 -1</clus>
<clus scale="   98.544">  7  8 -1 -1</clus>
<clus scale="  101.706">  1  5  2 -1</clus>
<clus scale="  174.236">  2  9  1 -1</clus>
<clus scale="  174.236">  2  5  1 -1</clus>
</clustering>
</event>
<event>
 9    2  0.4883225E-005  0.9692244E+02  0.7546771E-02  0.1289536E+00
          2   -1    0    0  502    0 -0.00000000000E+00  0.00000000000E+00  0.33240791873E+03  0.33240791873E+03  0.00000000000E+00 0. -1.
         21   -1    0    0  501  502  0.00000000000E+00 -0.00000000000E+00 -0.55940279490E+02  0.55940279490E+02  0.00000000000E+00 0.  1.
         23    2    1    2    0    0 -0.29284103952E+02 -0.45756853520E+02  0.16310582366E+03  0.19327215465E+03  0.88314028684E+02 0.  0.
         24    2    1    2    0    0 -0.33034413647E+02  0.30029566762E+02  0.70860987994E+02  0.11802238999E+03  0.83156223785E+02 0.  0.
        -13    1    4    4    0    0 -0.60356558284E+02  0.21929723958E+02  0.38379662921E+02  0.74811933852E+02  0.00000000000E+00 0.  1.
         14    1    4    4    0    0  0.27322144637E+02  0.80998428048E+01  0.32481325073E+02  0.43210456136E+02  0.00000000000E+00 0. -1.
        -11    1    3    3    0    0 -0.46522648480E+02 -0.25081269301E+02  0.15701588725E+03  0.16567261615E+03  0.00000000000E+00 0. -1.
         11    1    3    3    0    0  0.17238544528E+02 -0.20675584219E+02  0.60899364130E+01  0.27599538506E+02  0.00000000000E+00 0.  1.
          1    1    1    2  501    0  0.62318517599E+02  0.15727286758E+02  0.42500827579E+02  0.77053653576E+02  0.00000000000E+00 0. -1.
<scales pt_clust_5="13000.00000" pt_clust_6="13000.00000" pt_clust_7="13000.00000" pt_clust_8="13000.00000" pt_clust_9="64.27243"></scales>
<clustering>
<clus scale="   64.272">  2  9  1 -1</clus>
<clus scale="   83.156">  5  6 -1 -1</clus>
<clus scale="   88.314">  7  8 -1 -1</clus>
<clus scale="   92.247">  2  5  1 -1</clus>
<clus scale="   64.272">  2  5  1 -1</clus>
</clustering>
</event>
<event>
 9    2  0.4883225E-005  0.2068971E+03  0.7546771E-02  0.1185495E+00
         21   -1    0    0  501  502  0.00000000000E+00  0.00000000000E+00  0.62161507520E+02  0.62161507520E+02  0.00000000000E+00 0. -1.
         -1   -1    0    0    0  501 -0.00000000000E+00 -0.00000000000E+00 -0.97926910970E+03  0.97926910970E+03  0.00000000000E+00 0.  1.
         24    2    1    2    0    0  0.23984064585E+02 -0.20746038872E+02 -0.83816382081E+02  0.11548767680E+03  0.72846304678E+02 0.  0.
         23    2    1    2    0    0 -0.18442186212E+03  0.59057677705E+02 -0.31963634648E+03  0.38645299821E+03  0.98383399571E+02 0.  0.
        -11    1    3    3    0    0  0.14712023635E+02 -0.20040199676E+02 -0.96561740463E+02  0.99710696336E+02  0.00000000000E+00 0.  1.
         12    1    3    3    0    0  0.92720409509E+01 -0.70583919648E+00  0.12745358382E+02  0.15776980467E+02  0.00000000000E+00 0. -1.
        -13    1    4    4    0    0 -0.73564210394E+02 -0.24964485710E+02 -0.12623972117E+03  0.14822747990E+03  0.00000000000E+00 0.  1.
         13    1    4    4    0    0 -0.11085765173E+03  0.84022163415E+02 -0.19339662531E+03  0.23822551831E+03  0.00000000000E+00 0. -1.
         -2    1    1    2    0  502  0.16043779754E+03 -0.38311638832E+02 -0.51365487362E+03  0.53948994221E+03  0.00000000000E+00 0.  1.
<scales pt_clust_5="13000.00000" pt_clust_6="13000.00000" pt_clust_7="13000.00000" pt_clust_8="13000.00000" pt_clust_9="182.00869"></scales>
<clustering>
<clus scale="   72.846">  5  6 -1 -1</clus>
<clus scale="   79.450">  2  5  1 -1</clus>
<clus scale="   98.383">  7  8 -1 -1</clus>
<clus scale="  182.009">  1  9  2 -1</clus>
<clus scale="  182.009">  1  5  2 -1</clus>
</clustering>
</event>
<event>
 9    2  0.4883225E-005  0.1091387E+03  0.7546771E-02  0.1266181E+00
          2   -1    0    0  502    0 -0.00000000000E+00  0.00000000000E+00  0.93014087022E+02  0.93014087022E+02  0.00000000000E+00 0. -1.
         21   -1    0    0  501  502  0.00000000000E+00 -0.00000000000E+00 -0.33903099807E+03  0.33903099807E+03  0.00000000000E+00 0. -1.
         23    2    1    2    0    0 -0.61296818358E+01 -0.61797301775E+02  0.43789367261E+02  0.11926521902E+03  0.91924992667E+02 0.  0.
         24    2    1    2    0    0 -0.50576815848E+01  0.37997913959E+02 -0.23904509987E+03  0.25561112289E+03  0.82006492206E+02 0.  0.
        -11    1    4    4    0    0  0.12810982488E+02 -0.19814849491E+02 -0.11738861850E+03  0.11973653279E+03  0.00000000000E+00 0.  1.
         12    1    4    4    0    0 -0.17868664073E+02  0.57812763450E+02 -0.12165648138E+03  0.13587459010E+03  0.00000000000E+00 0. -1.
        -13    1    3    3    0    0 -0.30029154758E+02 -0.74781569949E+02  0.19761598945E+02  0.82973213342E+02  0.00000000000E+00 0. -1.
         13    1    3    3    0    0  0.23899472922E+02  0.12984268173E+02  0.24027768315E+02  0.36292005678E+02  0.00000000000E+00 0.  1.
          1    1    1    2  501    0  0.11187363421E+02  0.23799387816E+02 -0.50761178432E+02  0.57168743177E+02  0.00000000000E+00 0. -1.
<scales pt_clust_5="13000.00000" pt_clust_6="13000.00000" pt_clust_7="13000.00000" pt_clust_8="13000.00000" pt_clust_9="26.29768"></scales>
<clustering>
<clus scale="   26.298">  2  9  1 -1</clus>
<clus scale="   82.006">  5  6 -1 -1</clus>
<clus scale="   91.925">  7  8 -1 -1</clus>
<clus scale="  100.926">  2  5  1 -1</clus>
<clus scale="   26.298">  2  5  1 -1</clus>
</clustering>
</event>
<event>
 9    2  0.4883225E-005  0.1081318E+03  0.7546771E-02  0.1268111E+00
          2   -1    0    0  502    0 -0.00000000000E+00  0.00000000000E+00  0.62056570564E+03  0.62056570564E+03  0.00000000000E+00 0. -1.
         21   -1    0    0  501  502  0.00000000000E+00 -0.00000000000E+00 -0.34197869786E+02  0.34197869786E+02  0.00000000000E+00 0. -1.
         23    2    1    2    0    0  0.40141629624E+02  0.34583424888E+02  0.39056457927E+03  0.40447292846E+03  0.90831137635E+02 0.  0.
         24    2    1    2    0    0 -0.58732838345E+02 -0.53539985173E+02  0.10110904326E+03  0.15194443070E+03  0.80919682882E+02 0.  0.
        -13    1    4    4    0    0  0.60184197493E+01 -0.35983396395E+02  0.67911859255E+02  0.77091159156E+02  0.00000000000E+00 0.  1.
         14    1    4    4    0    0 -0.64751258094E+02 -0.17556588778E+02  0.33197184008E+02  0.74853271541E+02  0.00000000000E+00 0. -1.
        -11    1    3    3    0    0  0.62427208023E+01 -0.28295522652E+02  0.17494122908E+03  0.17732467904E+03  0.00000000000E+00 0.  1.
         11    1    3    3    0    0  0.33898908822E+02  0.62878947540E+02  0.21562335020E+03  0.22714824942E+03  0.00000000000E+00 0. -1.
          1    1    1    2  501    0  0.18591208721E+02  0.18956560285E+02  0.94694213314E+02  0.98346216271E+02  0.00000000000E+00 0. -1.
<scales pt_clust_5="13000.00000" pt_clust_6="13000.00000" pt_clust_7="13000.00000" pt_clust_8="13000.00000" pt_clust_9="26.55155"></scales>
<clustering>
<clus scale="   26.552">  2  9  1 -1</clus>
<clus scale="   80.920">  5  6 -1 -1</clus>
<clus scale="   90.831">  7  8 -1 -1</clus>
<clus scale="   99.951">  2  5  1 -1</clus>
<clus scale="   26.552">  2  5  1 -1</clus>
</clustering>
</event>
<event>
 9    2  0.4883225E-005  0.1321186E+03  0.7546771E-02  0.1227888E+00
         21   -1    0    0  501  502  0.00000000000E+00  0.00000000000E+00  0.13312398574E+03  0.13312398574E+03  0.00000000000E+00 0. -1.
          2   -1    0    0  502    0 -0.00000000000E+00 -0.00000000000E+00 -0.23917535453E+03  0.23917535453E+03  0.00000000000E+00 0. -1.
         23    2    1    2    0    0 -0.67265732459E+02  0.82295139200E+02 -0.14139963397E+03  0.19994260833E+03  0.93198827469E+02 0.  0.
         24    2    1    2    0    0  0.34317525896E+02 -0.65924906034E+02 -0.15264650287E+02  0.10978488474E+03  0.79346868563E+02 0.  0.
        -11    1    4    4    0    0  0.45569744980E+02 -0.58115565376E+02 -0.38143100965E+02  0.83119893815E+02  0.00000000000E+00 0.  1.
         12    1    4    4    0    0 -0.11252219084E+02 -0.78093406583E+01  0.22878450679E+02  0.26664990930E+02  0.00000000000E+00 0. -1.
        -13    1    3    3    0    0 -0.63442400437E+02  0.13005975195E+02 -0.37007672967E+02  0.74589955238E+02  0.00000000000E+00 0.  1.
         13    1    3    3    0    0 -0.38233320215E+01  0.69289164005E+02 -0.10439196100E+03  0.12535265310E+03  0.00000000000E+00 0. -1.
          1    1    1    2  501    0  0.32948206563E+02 -0.16370233166E+02  0.50612915464E+02  0.62571847195E+02  0.00000000000E+00 0. -1.
<scales pt_clust_5="13000.00000" pt_clust_6="13000.00000" pt_clust_7="13000.00000" pt_clust_8="13000.00000" pt_clust_9="36.79088"></scales>
<clustering>
<clus scale="   36.791">  1  9  2 -1</clus>
<clus scale="   79.347">  5  6 -1 -1</clus>
<clus scale="   93.199">  7  8 -1 -1</clus>
<clus scale="  122.740">  1  5  2 -1</clus>
<clus scale="   36.791">  1  5  2 -1</clus>
</clustering>
</event>
<event>
 9    2  0.4883225E-005  0.1662493E+03  0.7546771E-02  0.1183392E+00
         21   -1    0    0  501  502  0.00000000000E+00  0.00000000000E+00  0.83765352660E+02  0.83765352660E+02  0.00000000000E+00 0. -1.
          2   -1    0    0  502    0 -0.00000000000E+00 -0.00000000000E+00 -0.82407587411E+03  0.82407587411E+03  0.00000000000E+00 0. -1.
         24    2    1    2    0    0 -0.13838213408E+03 -0.51118482736E+02 -0.42116062723E+03  0.45342217295E+03  0.80328567038E+02 0.  0.
         23    2    1    2    0    0  0.11660226051E+03 -0.18755787137E+02 -0.25063206837E+02  0.15136170582E+03  0.91292578807E+02 0.  0.
        -11    1    3    3    0    0 -0.52055753457E+02  0.19066243520E+02 -0.11479121842E+03  0.12747684863E+03  0.00000000000E+00 0.  1.
         12    1    3    3    0    0 -0.86326380621E+02 -0.70184726255E+02 -0.30636940881E+03  0.32594532432E+03  0.00000000000E+00 0. -1.
        -13    1    4    4    0    0  0.89364620678E+01 -0.37914729659E+02 -0.14221136342E+02  0.41468395174E+02  0.00000000000E+00 0.  1.
         13    1    4    4    0    0  0.10766579844E+03  0.19158942522E+02 -0.10842070495E+02  0.10989331065E+03  0.00000000000E+00 0. -1.
          1    1    1    2  501    0  0.21779873572E+02  0.69874269873E+02 -0.29408668739E+03  0.30305734801E+03  0.00000000000E+00 0. -1.
<scales pt_clust_5="13000.00000" pt_clust_6="13000.00000" pt_clust_7="13000.00000" pt_clust_8="13000.00000" pt_clust_9="73.19004"></scales>
<clustering>
<clus scale="   73.190">  1  9  2 -1</clus>
<clus scale="   80.329">  5  6 -1 -1</clus>
<clus scale="   91.293">  7  8 -1 -1</clus>
<clus scale="  160.490">  2  5  1 -1</clus>
<clus scale="   73.190">  1  5  2 -1</clus>
</clustering>
</event>
<event>
 9    2  0.4883225E-005  0.1923847E+03  0.7546771E-02  0.1156339E+00
         21   -1    0    0  501  502  0.00000000000E+00  0.00000000000E+00  0.94840397358E+02  0.94840397358E+02  0.00000000000E+00 0.  1.
          2   -1    0    0  502    0 -0.00000000000E+00 -0.00000000000E+00 -0.89118945611E+03  0.89118945611E+03  0.00000000000E+00 0. -1.
         23    2    1    2    0    0 -0.16212326996E+03 -0.76944937618E+02 -0.40287714720E+03  0.45034660275E+03  0.91091101581E+02 0.  0.
         24    2    1    2    0    0  0.99367863418E+02  0.11323798826E+03 -0.47634945440E+02  0.18232983881E+03  0.90984986828E+02 0.  0.
        -13    1    4    4    0    0  0.75650805429E+02  0.35875667503E+02 -0.56384241747E+02  0.10094201602E+03  0.00000000000E+00 0.  1.
         14    1    4    4    0    0  0.23717057989E+02  0.77362320758E+02  0.87492963074E+01  0.81387822790E+02  0.00000000000E+00 0. -1.
        -11    1    3    3    0    0 -0.38441472043E+02  0.11095298564E+02 -0.15139143707E+03  0.15658933438E+03  0.00000000000E+00 0.  1.
         11    1    3    3    0    0 -0.12368179792E+03 -0.88040236183E+02 -0.25148571013E+03  0.29375726837E+03  0.00000000000E+00 0. -1.
          1    1    1    2  501    0  0.62755406541E+02 -0.36293050642E+02 -0.34583696612E+03  0.35335341191E+03  0.00000000000E+00 0. -1.
<scales pt_clust_5="13000.00000" pt_clust_6="13000.00000" pt_clust_7="13000.00000" pt_clust_8="13000.00000" pt_clust_9="72.49436"></scales>
<clustering>
<clus scale="   72.494">  1  9  2 -1</clus>
<clus scale="   90.985">  5  6 -1 -1</clus>
<clus scale="   91.091">  7  8 -1 -1</clus>
<clus scale="  192.335">  1  5  2 -1</clus>
<clus scale="   72.494">  1  5  2 -1</clus>
</clustering>
</event>
<event>
 9    2  0.4883225E-005  0.3026114E+03  0.7546771E-02  0.1129613E+00
         21   -1    0    0  501  502  0.00000000000E+00  0.00000000000E+00  0.19364951349E+03  0.19364951349E+03  0.00000000000E+00 0. -1.
          2   -1    0    0  502    0 -0.00000000000E+00 -0.00000000000E+00 -0.71123101860E+03  0.71123101860E+03  0.00000000000E+00 0. -1.
         24    2    1    2    0    0  0.44785602034E+02  0.25643956287E+02 -0.32946456126E+00  0.93850706909E+02  0.78386759065E+02 0.  0.
         23    2    1    2    0    0 -0.29149228111E+03  0.10497411472E+03 -0.38412245140E+03  0.50175849854E+03  0.90687477019E+02 0.  0.
        -13    1    3    3    0    0  0.33658403450E+02  0.14584309644E+02 -0.38138289946E+02  0.52916154155E+02  0.00000000000E+00 0.  1.
         14    1    3    3    0    0  0.11127198584E+02  0.11059646643E+02  0.37808825384E+02  0.40934552753E+02  0.00000000000E+00 0. -1.
        -13    1    4    4    0    0 -0.23272525141E+03  0.88052658781E+02 -0.35626896710E+03  0.43455942088E+03  0.00000000000E+00 0. -1.
         13    1    4    4    0    0 -0.58767029702E+02  0.16921455939E+02 -0.27853484298E+02  0.67199077662E+02  0.00000000000E+00 0.  1.
          1    1    1    2  501    0  0.24670667907E+03 -0.13061807101E+03 -0.13312958914E+03  0.30927132664E+03  0.00000000000E+00 0. -1.
<scales pt_clust_5="13000.00000" pt_clust_6="13000.00000" pt_clust_7="13000.00000" pt_clust_8="13000.00000" pt_clust_9="288.70303"></scales>
<clustering>
<clus scale="   78.387">  5  6 -1 -1</clus>
<clus scale="   90.687">  7  8 -1 -1</clus>
<clus scale="   93.850">  2  5  1 -1</clus>
<clus scale="  288.703">  1  9  2 -1</clus>
<clus scale="  288.703">  1  5  2 -1</clus>
</clustering>
</event>
<event>
 9    2  0.4883225E-005  0.1603338E+03  0.7546771E-02  0.1189962E+00
          2   -1    0    0  502    0 -0.00000000000E+00  0.00000000000E+00  0.16127080249E+04  0.16127080249E+04  0.00000000000E+00 0. -1.
         21   -1    0    0  501  502  0.00000000000E+00 -0.00000000000E+00 -0.68690328801E+02  0.68690328801E+02  0.00000000000E+00 0.  1.
         24    2    1    2    0    0 -0.13356127609E+03  0.24663335000E+02  0.14752851289E+04  0.14837748019E+04  0.81697960615E+02 0.  0.
         23    2    1    2    0    0  0.91850057390E+02 -0.12588973439E+01  0.73787317198E+02  0.14952839650E+03  0.92066037799E+02 0.  0.
        -11    1    3    3    0    0 -0.26894824437E+02  0.22104059343E+02  0.14113917860E+03  0.14536914651E+03  0.00000000000E+00 0.  1.
         12    1    3    3    0    0 -0.10666645165E+03  0.25592756570E+01  0.13341459503E+04  0.13384056554E+04  0.00000000000E+00 0. -1.
        -11    1    4    4    0    0  0.76627307404E+02 -0.27758107580E+02  0.14432434296E+02  0.82768061087E+02  0.00000000000E+00 0.  1.
         11    1    4    4    0    0  0.15222749986E+02  0.26499210236E+02  0.59354882902E+02  0.66760335414E+02  0.00000000000E+00 0. -1.
          1    1    1    2  501    0  0.41711218702E+02 -0.23404437656E+02 -0.50547499411E+01  0.48095155313E+02  0.00000000000E+00 0. -1.
<scales pt_clust_5="13000.00000" pt_clust_6="13000.00000" pt_clust_7="13000.00000" pt_clust_8="13000.00000" pt_clust_9="47.82879"></scales>
<clustering>
<clus scale="   47.829">  2  9  1 -1</clus>
<clus scale="   81.698">  5  6 -1 -1</clus>
<clus scale="   92.066">  7  8 -1 -1</clus>
<clus scale="  154.613">  1  5  2 -1</clus>
<clus scale="   47.829">  2  5  1 -1</clus>
</clustering>
</event>
<event>
 9    2  0.4883225E-005  0.1243989E+03  0.7546771E-02  0.1248222E+00
          2   -1    0    0  502    0 -0.00000000000E+00  0.00000000000E+00  0.10052980074E+03  0.10052980074E+03  0.00000000000E+00 0. -1.
         21   -1    0    0  501  502  0.00000000000E+00 -0.00000000000E+00 -0.40160156868E+03  0.40160156868E+03  0.00000000000E+00 0. -1.
         24    2    1    2    0    0 -0.36388325454E+01 -0.59441011649E+02  0.27353675823E+02  0.10093853832E+03  0.76771674260E+02 0.  0.
         23    2    1    2    0    0 -0.52747122103E+02 -0.40882131155E+02 -0.19347225335E+03  0.22383310493E+03  0.90642917576E+02 0.  0.
        -11    1    3    3    0    0  0.13747846851E+02 -0.69534368680E+02  0.35467487037E+02  0.79258907118E+02  0.00000000000E+00 0.  1.
         12    1    3    3    0    0 -0.17386679396E+02  0.10093357031E+02 -0.81138112137E+01  0.21679631200E+02  0.00000000000E+00 0. -1.
        -13    1    4    4    0    0 -0.60949629670E+02  0.74353650345E+01 -0.85547387371E+02  0.10530193491E+03  0.00000000000E+00 0.  1.
         13    1    4    4    0    0  0.82025075673E+01 -0.48317496189E+02 -0.10792486598E+03  0.11853117002E+03  0.00000000000E+00 0. -1.
          1    1    1    2  501    0  0.56385954648E+02  0.10032314280E+03 -0.13495319041E+03  0.17735972617E+03  0.00000000000E+00 0. -1.
<scales pt_clust_5="13000.00000" pt_clust_6="13000.00000" pt_clust_7="13000.00000" pt_clust_8="13000.00000" pt_clust_9="85.19957"></scales>
<clustering>
<clus scale="   76.772">  5  6 -1 -1</clus>
<clus scale="   90.643">  7  8 -1 -1</clus>
<clus scale="   97.162">  1  5  2 -1</clus>
<clus scale="   85.200">  2  9  1 -1</clus>
<clus scale="   85.200">  2  5  1 -1</clus>
</clustering>
</event>
<event>
 9    2  0.4883225E-005  0.1989633E+03  0.7546771E-02  0.1151537E+00
         21   -1    0    0  501  502  0.00000000000E+00  0.00000000000E+00  0.23740749804E+03  0.23740749804E+03  0.00000000000E+00 0.  1.
         -3   -1    0    0    0  501 -0.00000000000E+00 -0.00000000000E+00 -0.79557036503E+03  0.79557036503E+03  0.00000000000E+00 0.  1.
         23    2    1    2    0    0  0.14145145681E+03 -0.12234028054E+03 -0.71855521087E+03  0.74793204030E+03  0.90028256469E+02 0.  0.
         24    2    1    2    0    0 -0.39799252187E+02  0.92715369262E+02  0.10049112194E+03  0.16339483650E+03  0.80120452037E+02 0.  0.
        -11    1    4    4    0    0  0.22673694569E+02  0.98977042159E+01  0.24347976630E+02  0.34711452579E+02  0.00000000000E+00 0.  1.
         12    1    4    4    0    0 -0.62472946756E+02  0.82817665046E+02  0.76143145312E+02  0.12868338392E+03  0.00000000000E+00 0. -1.
        -13    1    3    3    0    0  0.58120910981E+02 -0.96160195914E+02 -0.29979016985E+03  0.32015460251E+03  0.00000000000E+00 0. -1.
         13    1    3    3    0    0  0.83330545824E+02 -0.26180084625E+02 -0.41876504102E+03  0.42777743779E+03  0.00000000000E+00 0.  1.
         -4    1    1    2    0  502 -0.10165220462E+03  0.29624911276E+02  0.59901221928E+02  0.12165098627E+03  0.00000000000E+00 0.  1.
<scales pt_clust_5="13000.00000" pt_clust_6="13000.00000" pt_clust_7="13000.00000" pt_clust_8="13000.00000" pt_clust_9="105.88109"></scales>
<clustering>
<clus scale="   80.120">  5  6 -1 -1</clus>
<clus scale="   90.028">  7  8 -1 -1</clus>
<clus scale="  105.881">  1  9  2 -1</clus>
<clus scale="  194.681">  1  5  2 -1</clus>
<clus scale="  105.881">  1  5  2 -1</clus>
</clustering>
</event>
<event>
 9    2  0.4883225E-005  0.1142151E+03  0.7546771E-02  0.1262949E+00
         21   -1    0    0  501  502  0.00000000000E+00  0.00000000000E+00  0.64227237710E+02  0.64227237710E+02  0.00000000000E+00 0. -1.
          2   -1    0    0  502    0 -0.00000000000E+00 -0.00000000000E+00 -0.42699566859E+03  0.42699566859E+03  0.00000000000E+00 0. -1.
         24    2    1    2    0    0  0.66757587372E+01 -0.67378929499E+02 -0.23832477588E+03  0.26022235390E+03  0.79576936203E+02 0.  0.
         23    2    1    2    0    0  0.20688341992E+01 -0.12969426790E+02 -0.32699727568E+02  0.10873332668E+03  0.10286485329E+03 0.  0.
        -13    1    3    3    0    0  0.10137680673E+02 -0.18290321926E+02 -0.46507971019E+01  0.21422846666E+02  0.00000000000E+00 0.  1.
         14    1    3    3    0    0 -0.34619219359E+01 -0.49088607573E+02 -0.23367397878E+03  0.23879950723E+03  0.00000000000E+00 0. -1.
        -13    1    4    4    0    0 -0.87662913918E+01 -0.30297268941E+02  0.29546746641E+02  0.43217850561E+02  0.00000000000E+00 0. -1.
         13    1    4    4    0    0  0.10835125591E+02  0.17327842151E+02 -0.62246474209E+02  0.65515476123E+02  0.00000000000E+00 0.  1.
          1    1    1    2  501    0 -0.87445929364E+01  0.80348356289E+02 -0.91743927433E+02  0.12226722572E+03  0.00000000000E+00 0. -1.
<scales pt_clust_5="13000.00000" pt_clust_6="13000.00000" pt_clust_7="13000.00000" pt_clust_8="13000.00000" pt_clust_9="80.82285"></scales>
<clustering>
<clus scale="   79.577">  5  6 -1 -1</clus>
<clus scale="   80.823">  1  9  2 -1</clus>
<clus scale="   93.789">  2  5  1 -1</clus>
<clus scale="  102.865">  7  8 -1 -1</clus>
<clus scale="   80.823">  1  5  2 -1</clus>
</clustering>
</event>
<event>
 9    2  0.4883225E-005  0.1299753E+03  0.7546771E-02  0.1232463E+00
         21   -1    0    0  501  502  0.00000000000E+00  0.00000000000E+00  0.47222245318E+02  0.47222245318E+02  0.00000000000E+00 0. -1.
          2   -1    0    0  502    0 -0.00000000000E+00 -0.00000000000E+00 -0.64218262894E+03  0.64218262894E+03  0.00000000000E+00 0. -1.
         23    2    1    2    0    0 -0.66806895617E+02 -0.99008743568E+02 -0.34318114219E+03  0.37440734737E+03  0.90231218554E+02 0.  0.
         24    2    1    2    0    0  0.58515156306E+02  0.22468962429E+02 -0.70109986766E+02  0.11768860888E+03  0.70755357571E+02 0.  0.
        -11    1    4    4    0    0  0.10821973178E+02  0.41714880020E+02 -0.32133962719E+02  0.53757212340E+02  0.00000000000E+00 0.  1.
         12    1    4    4    0    0  0.47693183129E+02 -0.19245917591E+02 -0.37976024047E+02  0.63931396538E+02  0.00000000000E+00 0. -1.
        -11    1    3    3    0    0 -0.22066350992E+02 -0.34046196129E+02 -0.27482117601E+02  0.49003409114E+02  0.00000000000E+00 0.  1.
         11    1    3    3    0    0 -0.44740544625E+02 -0.64962547439E+02 -0.31569902459E+03  0.32540393826E+03  0.00000000000E+00 0. -1.
          1    1    1    2  501    0  0.82917393110E+01  0.76539781139E+02 -0.18166925466E+03  0.19730891801E+03  0.00000000000E+00 0. -1.
<scales pt_clust_5="13000.00000" pt_clust_6="13000.00000" pt_clust_7="13000.00000" pt_clust_8="13000.00000" pt_clust_9="76.98764"></scales>
<clustering>
<clus scale="   70.755">  5  6 -1 -1</clus>
<clus scale="   76.988">  1  9  2 -1</clus>
<clus scale="   90.231">  7  8 -1 -1</clus>
<clus scale="  117.295">  1  5  2 -1</clus>
<clus scale="   76.988">  1  5  2 -1</clus>
</clustering>
</event>
<event>
 9    2  0.4883225E-005  0.8480702E+02  0.7546771E-02  0.1316215E+00
          2   -1    0    0  502    0 -0.00000000000E+00  0.00000000000E+00  0.37305369595E+03  0.37305369595E+03  0.00000000000E+00 0. -1.
         21   -1    0    0  501  502  0.00000000000E+00 -0.00000000000E+00 -0.87132541793E+02  0.87132541793E+02  0.00000000000E+00 0. -1.
         23    2    1    2    0    0  0.29800680128E+02 -0.16729749039E+01  0.29555245885E+03  0.30757814169E+03  0.79763261799E+02 0.  0.
         24    2    1    2    0    0 -0.15999025446E+02 -0.26612388204E+02  0.39192948927E+02  0.94518895859E+02  0.80209391020E+02 0.  0.
        -13    1    4    4    0    0 -0.34568959070E+02  0.51141455429E+01  0.45342962816E+02  0.57246412051E+02  0.00000000000E+00 0.  1.
         14    1    4    4    0    0  0.18569933624E+02 -0.31726533747E+02 -0.61500138894E+01  0.37272483808E+02  0.00000000000E+00 0. -1.
        -11    1    3    3    0    0  0.28488920572E+02 -0.38608588185E+02  0.17791280453E+03  0.18426938892E+03  0.00000000000E+00 0. -1.
         11    1    3    3    0    0  0.13117595559E+01  0.36935613281E+02  0.11763965432E+03  0.12330875277E+03  0.00000000000E+00 0.  1.
          1    1    1    2  501    0 -0.13801654682E+02  0.28285363108E+02 -0.48824253616E+02  0.58089200195E+02  0.00000000000E+00 0. -1.
<scales pt_clust_5="13000.00000" pt_clust_6="13000.00000" pt_clust_7="13000.00000" pt_clust_8="13000.00000" pt_clust_9="31.47296"></scales>
<clustering>
<clus scale="   31.473">  2  9  1 -1</clus>
<clus scale="   79.763">  7  8 -1 -1</clus>
<clus scale="   80.209">  5  6 -1 -1</clus>
<clus scale="   84.385">  1  7  2 -1</clus>
<clus scale="   31.473">  2  5  1 -1</clus>
</clustering>
</event>
<event>
 9    2  0.4883225E-005  0.1242088E+03  0.7546771E-02  0.1239497E+00
         21   -1    0    0  501  502  0.00000000000E+00  0.00000000000E+00  0.60554567235E+02  0.60554567235E+02  0.00000000000E+00 0. -1.
         -3   -1    0    0    0  501 -0.00000000000E+00 -0.00000000000E+00 -0.48797992583E+03  0.48797992583E+03  0.00000000000E+00 0.  1.
         24    2    1    2    0    0 -0.84364356393E+02  0.35109797958E+02 -0.36371290248E+03  0.38331578864E+03  0.79333951384E+02 0.  0.
         23    2    1    2    0    0  0.45333480350E+02 -0.46049266554E+02 -0.39125113942E+02  0.11780964777E+03  0.90402871505E+02 0.  0.
        -13    1    3    3    0    0 -0.87217771668E+02  0.15104554476E+01 -0.25677747885E+03  0.27118977638E+03  0.00000000000E+00 0.  1.
         14    1    3    3    0    0  0.28534152753E+01  0.33599342510E+02 -0.10693542364E+03  0.11212601225E+03  0.00000000000E+00 0. -1.
        -13    1    4    4    0    0  0.31406367518E+02 -0.72016391143E+02 -0.15590816348E+02  0.80098652101E+02  0.00000000000E+00 0. -1.
         13    1    4    4    0    0  0.13927112832E+02  0.25967124589E+02 -0.23534297594E+02  0.37710995671E+02  0.00000000000E+00 0.  1.
         -4    1    1    2    0  502  0.39030876043E+02  0.10939468596E+02 -0.24587342164E+02  0.47409056652E+02  0.00000000000E+00 0.  1.
<scales pt_clust_5="13000.00000" pt_clust_6="13000.00000" pt_clust_7="13000.00000" pt_clust_8="13000.00000" pt_clust_9="40.53494"></scales>
<clustering>
<clus scale="   40.535">  1  9  2 -1</clus>
<clus scale="   79.334">  5  6 -1 -1</clus>
<clus scale="   90.403">  7  8 -1 -1</clus>
<clus scale="  116.400">  2  5  1 -1</clus>
<clus scale="   40.535">  1  5  2 -1</clus>
</clustering>
</event>
<event>
 9    2  0.4948363E-005  0.1571962E+03  0.7546771E-02  0.1216245E+00
          2   -1    0    0  502    0 -0.00000000000E+00  0.00000000000E+00  0.10827925053E+04  0.10827925053E+04  0.00000000000E+00 0. -1.
         21   -1    0    0  501  502  0.00000000000E+00 -0.00000000000E+00 -0.46148612546E+02  0.46148612546E+02  0.00000000000E+00 0. -1.
         24    2    1    2    0    0  0.46516775237E+02  0.71796999339E+01  0.57734146056E+03  0.58477976414E+03  0.80180122206E+02 0.  0.
         23    2    1    2    0    0  0.10077160164E+03 -0.37253842018E+02  0.21773713634E+03  0.25964050711E+03  0.91983519973E+02 0.  0.
        -13    1    3    3    0    0  0.49991689980E+01 -0.27223284882E+02  0.82714649966E+02  0.87222773686E+02  0.00000000000E+00 0.  1.
         14    1    3    3    0    0  0.41517606239E+02  0.34402984816E+02  0.49462681060E+03  0.49755699046E+03  0.00000000000E+00 0. -1.
        -13    1    4    4    0    0 -0.62366366517E+01 -0.21980499236E+02  0.89629151726E+01  0.24543264489E+02  0.00000000000E+00 0.  1.
         13    1    4    4    0    0  0.10700823830E+03 -0.15273342782E+02  0.20877422117E+03  0.23509724262E+03  0.00000000000E+00 0. -1.
          1    1    1    2  501    0 -0.14728837688E+03  0.30074142084E+02  0.24156529584E+03  0.28452084658E+03  0.00000000000E+00 0. -1.
<scales pt_clust_5="13000.00000" pt_clust_6="13000.00000" pt_clust_7="13000.00000" pt_clust_8="13000.00000" pt_clust_9="127.47432"></scales>
<clustering>
<clus scale="   80.180">  5  6 -1 -1</clus>
<clus scale="   91.984">  7  8 -1 -1</clus>
<clus scale="   92.974">  1  5  2 -1</clus>
<clus scale="  127.474">  2  9  1 -1</clus>
<clus scale="  127.474">  2  5  1 -1</clus>
</clustering>
</event>
<event>
 9    2  0.4883225E-005  0.1167964E+03  0.7546771E-02  0.1256091E+00
         21   -1    0    0  501  502  0.00000000000E+00  0.00000000000E+00  0.19653984364E+03  0.19653984364E+03  0.00000000000E+00 0. -1.
          4   -1    0    0  502    0 -0.00000000000E+00 -0.00000000000E+00 -0.16079207693E+03  0.16079207693E+03  0.00000000000E+00 0. -1.
         23    2    1    2    0    0 -0.32522372264E+02  0.25705219574E+02 -0.71220734975E+02  0.12307388666E+03  0.91412939326E+02 0.  0.
         24    2    1    2    0    0 -0.23771059713E+02  0.62113400071E+02  0.53090020339E+02  0.11685296079E+03  0.80080749488E+02 0.  0.
        -13    1    4    4    0    0  0.27688798714E+02  0.80731134283E+01  0.20717493522E+02  0.35511396374E+02  0.00000000000E+00 0.  1.
         14    1    4    4    0    0 -0.51459858427E+02  0.54040286643E+02  0.32372526817E+02  0.81341564420E+02  0.00000000000E+00 0. -1.
        -11    1    3    3    0    0 -0.20251026526E+02 -0.32034870003E+00 -0.87636848822E+02  0.89946784100E+02  0.00000000000E+00 0. -1.
         11    1    3    3    0    0 -0.12271345738E+02  0.26025568274E+02  0.16416113846E+02  0.33127102560E+02  0.00000000000E+00 0.  1.
          3    1    1    2  501    0  0.56293431977E+02 -0.87818619645E+02  0.53878481344E+02  0.11740507311E+03  0.00000000000E+00 0. -1.
<scales pt_clust_5="13000.00000" pt_clust_6="13000.00000" pt_clust_7="13000.00000" pt_clust_8="13000.00000" pt_clust_9="85.02051"></scales>
<clustering>
<clus scale="   80.081">  5  6 -1 -1</clus>
<clus scale="   91.413">  7  8 -1 -1</clus>
<clus scale="  100.373">  2  7  1 -1</clus>
<clus scale="   85.021">  1  9  2 -1</clus>
<clus scale="   85.021">  1  5  2 -1</clus>
</clustering>
</event>
<event>
 9    2  0.4883225E-005  0.2655387E+03  0.7546771E-02  0.1120320E+00
          2   -1    0    0  502    0 -0.00000000000E+00  0.00000000000E+00  0.55399964415E+03  0.55399964415E+03  0.00000000000E+00 0. -1.
         21   -1    0    0  501  502  0.00000000000E+00 -0.00000000000E+00 -0.26588334834E+03  0.26588334834E+03  0.00000000000E+00 0. -1.
         24    2    1    2    0    0 -0.67889903701E+02 -0.13996916656E+03  0.12852559666E+03  0.21702682500E+03  0.79883710245E+02 0.  0.
         23    2    1    2    0    0  0.24604604345E+03 -0.63420324244E+02 -0.31026655284E+02  0.27203616975E+03  0.92088171284E+02 0.  0.
        -13    1    3    3    0    0  0.99989233195E+01 -0.66883560520E+02  0.42397645214E+02  0.79818227587E+02  0.00000000000E+00 0.  1.
         14    1    3    3    0    0 -0.77888827021E+02 -0.73085606036E+02  0.86127951445E+02  0.13720859741E+03  0.00000000000E+00 0. -1.
        -11    1    4    4    0    0  0.38611562109E+02  0.13750487473E+02  0.18924897640E+02  0.45145103666E+02  0.00000000000E+00 0.  1.
         11    1    4    4    0    0  0.20743448134E+03 -0.77170811717E+02 -0.49951552924E+02  0.22689106608E+03  0.00000000000E+00 0. -1.
          1    1    1    2  501    0 -0.17815613975E+03  0.20338949080E+03  0.19061735443E+03  0.33081999774E+03  0.00000000000E+00 0. -1.
<scales pt_clust_5="13000.00000" pt_clust_6="13000.00000" pt_clust_7="13000.00000" pt_clust_8="13000.00000" pt_clust_9="249.05946"></scales>
<clustering>
<clus scale="   79.884">  5  6 -1 -1</clus>
<clus scale="   92.088">  7  8 -1 -1</clus>
<clus scale="  174.877">  1  5  2 -1</clus>
<clus scale="  249.059">  2  9  1 -1</clus>
<clus scale="  249.059">  2  5  1 -1</clus>
</clustering>
</event>
<event>
 9    2  0.4883225E-005  0.1013481E+03  0.7546771E-02  0.1281452E+00
         -1   -1    0    0    0  501 -0.00000000000E+00  0.00000000000E+00  0.60284004674E+02  0.60284004674E+02  0.00000000000E+00 0.  1.
         21   -1    0    0  501  502  0.00000000000E+00 -0.00000000000E+00 -0.23178845463E+03  0.23178845463E+03  0.00000000000E+00 0.  1.
         23    2    1    2    0    0 -0.53123837041E+02 -0.30203841350E+01 -0.52546444660E+02  0.11795289742E+03  0.91216733012E+02 0.  0.
         24    2    1    2    0    0  0.28509675596E+02  0.15910259242E+02 -0.11582851854E+03  0.14615888394E+03  0.82947186178E+02 0.  0.
        -11    1    4    4    0    0  0.56830925929E+02  0.60740924757E+01 -0.60489114236E+02  0.83220079803E+02  0.00000000000E+00 0.  1.
         12    1    4    4    0    0 -0.28321250333E+02  0.98361667667E+01 -0.55339404308E+02  0.62938804137E+02  0.00000000000E+00 0. -1.
        -11    1    3    3    0    0  0.20419629617E+01  0.37108656426E+02 -0.14928999026E+02  0.40051179838E+02  0.00000000000E+00 0. -1.
         11    1    3    3    0    0 -0.55165800002E+02 -0.40129040561E+02 -0.37617445634E+02  0.77901717583E+02  0.00000000000E+00 0.  1.
         -2    1    1    2    0  502  0.24614161444E+02 -0.12889875107E+02 -0.31294867558E+01  0.27960677947E+02  0.00000000000E+00 0.  1.
<scales pt_clust_5="13000.00000" pt_clust_6="13000.00000" pt_clust_7="13000.00000" pt_clust_8="13000.00000" pt_clust_9="27.78501"></scales>
<clustering>
<clus scale="   27.785">  2  9  1 -1</clus>
<clus scale="   82.947">  5  6 -1 -1</clus>
<clus scale="   91.217">  7  8 -1 -1</clus>
<clus scale="   93.974">  2  5  1 -1</clus>
<clus scale="   27.785">  2  5  1 -1</clus>
</clustering>
</event>
<event>
 9    2  0.4883225E-005  0.1530775E+03  0.7546771E-02  0.1198944E+00
         21   -1    0    0  501  502  0.00000000000E+00  0.00000000000E+00  0.42294615866E+03  0.42294615866E+03  0.00000000000E+00 0.  1.
          4   -1    0    0  502    0 -0.00000000000E+00 -0.00000000000E+00 -0.86748967911E+02  0.86748967911E+02  0.00000000000E+00 0. -1.
         23    2    1    2    0    0 -0.11672472015E+03 -0.66537472248E+02  0.90274846819E+02  0.18676091017E+03  0.93156825249E+02 0.  0.
         24    2    1    2    0    0  0.11412138405E+03  0.43082233781E+01  0.12825653905E+03  0.18980083062E+03  0.80823043795E+02 0.  0.
        -13    1    4    4    0    0  0.86994827016E+02  0.17176307661E+02  0.13254521151E+03  0.15947212473E+03  0.00000000000E+00 0.  1.
         14    1    4    4    0    0  0.27126557029E+02 -0.12868084282E+02 -0.42886724551E+01  0.30328705887E+02  0.00000000000E+00 0. -1.
        -13    1    3    3    0    0 -0.91387409873E+02 -0.29481717361E+02  0.12329818654E+02  0.96813505101E+02  0.00000000000E+00 0. -1.
         13    1    3    3    0    0 -0.25337310277E+02 -0.37055754887E+02  0.77945028165E+02  0.89947405065E+02  0.00000000000E+00 0.  1.
          3    1    1    2  501    0  0.26033361037E+01  0.62229248870E+02  0.11766580487E+03  0.13313338578E+03  0.00000000000E+00 0. -1.
<scales pt_clust_5="13000.00000" pt_clust_6="13000.00000" pt_clust_7="13000.00000" pt_clust_8="13000.00000" pt_clust_9="62.28368"></scales>
<clustering>
<clus scale="   62.284">  1  9  2 -1</clus>
<clus scale="   80.823">  5  6 -1 -1</clus>
<clus scale="   93.157">  7  8 -1 -1</clus>
<clus scale="  145.900">  1  5  2 -1</clus>
<clus scale="   62.284">  1  5  2 -1</clus>
</clustering>
</event>
<event>
 9    2  0.4883225E-005  0.2095703E+03  0.7546771E-02  0.1155865E+00
         21   -1    0    0  501  502  0.00000000000E+00  0.00000000000E+00  0.15499828511E+03  0.15499828511E+03  0.00000000000E+00 0. -1.
          2   -1    0    0  502    0 -0.00000000000E+00 -0.00000000000E+00 -0.59732776277E+03  0.59732776277E+03  0.00000000000E+00 0. -1.
         24    2    1    2    0    0 -0.33805473770E+02 -0.12193148982E+03 -0.23124503207E+03  0.27588195875E+03  0.81403268002E+02 0.  0.
         23    2    1    2    0    0  0.17052333562E+03 -0.38503731862E+02 -0.17293199489E+03  0.26223194288E+03  0.91100887218E+02 0.  0.
        -11    1    3    3    0    0 -0.59518376785E+02 -0.81798689413E+02 -0.13735852674E+03  0.17058964691E+03  0.00000000000E+00 0.  1.
         12    1    3    3    0    0  0.25712903015E+02 -0.40132800411E+02 -0.93886505333E+02  0.10529231185E+03  0.00000000000E+00 0. -1.
        -11    1    4    4    0    0  0.30677635469E+02  0.25382715904E+02 -0.17139423123E+02  0.43349272308E+02  0.00000000000E+00 0.  1.
         11    1    4    4    0    0  0.13984570015E+03 -0.63886447766E+02 -0.15579257177E+03  0.21888267057E+03  0.00000000000E+00 0. -1.
          1    1    1    2  501    0 -0.13671786185E+03  0.16043522169E+03 -0.38152450695E+02  0.21421214625E+03  0.00000000000E+00 0. -1.
<scales pt_clust_5="13000.00000" pt_clust_6="13000.00000" pt_clust_7="13000.00000" pt_clust_8="13000.00000" pt_clust_9="188.73353"></scales>
<clustering>
<clus scale="   81.403">  5  6 -1 -1</clus>
<clus scale="   91.101">  7  8 -1 -1</clus>
<clus scale="  150.455">  2  5  1 -1</clus>
<clus scale="  188.734">  1  9  2 -1</clus>
<clus scale="  188.734">  1  5  2 -1</clus>
</clustering>
</event>
<event>
 9    2  0.4883225E-005  0.9652420E+02  0.7546771E-02  0.1292941E+00
         21   -1    0    0  501  502  0.00000000000E+00  0.00000000000E+00  0.23349789274E+03  0.23349789274E+03  0.00000000000E+00 0. -1.
          4   -1    0    0  502    0 -0.00000000000E+00 -0.00000000000E+00 -0.62470368084E+02  0.62470368084E+02  0.00000000000E+00 0. -1.
         24    2    1    2    0    0  0.89175410564E+01  0.20767086774E+02  0.52611835616E+02  0.99730367822E+02  0.81653821634E+02 0.  0.
         23    2    1    2    0    0  0.10310252703E+02 -0.51895102337E+02  0.11989491366E+03  0.15962028097E+03  0.91128704688E+02 0.  0.
        -13    1    3    3    0    0 -0.33650084547E+02 -0.42165251365E+01  0.30634061413E+02  0.45700689195E+02  0.00000000000E+00 0.  1.
         14    1    3    3    0    0  0.42567625603E+02  0.24983611911E+02  0.21977774203E+02  0.54029678627E+02  0.00000000000E+00 0. -1.
        -11    1    4    4    0    0 -0.24148703306E+02 -0.85087867079E+01 -0.20427735257E+01  0.25685253479E+02  0.00000000000E+00 0.  1.
         11    1    4    4    0    0  0.34458956009E+02 -0.43386315629E+02  0.12193768718E+03  0.13393502749E+03  0.00000000000E+00 0. -1.
          3    1    1    2  501    0 -0.19227793759E+02  0.31128015563E+02 -0.14792246161E+01  0.36617612036E+02  0.00000000000E+00 0. -1.
<scales pt_clust_5="13000.00000" pt_clust_6="13000.00000" pt_clust_7="13000.00000" pt_clust_8="13000.00000" pt_clust_9="36.58774"></scales>
<clustering>
<clus scale="   36.588">  1  9  2 -1</clus>
<clus scale="   81.654">  5  6 -1 -1</clus>
<clus scale="   87.635">  2  5  1 -1</clus>
<clus scale="   91.129">  7  8 -1 -1</clus>
<clus scale="   36.588">  1  5  2 -1</clus>
</clustering>
</event>
<event>
 9    2  0.4883225E-005  0.1088605E+03  0.7546771E-02  0.1266214E+00
         21   -1    0    0  501  502  0.00000000000E+00  0.00000000000E+00  0.11356436128E+03  0.11356436128E+03  0.00000000000E+00 0. -1.
          2   -1    0    0  502    0 -0.00000000000E+00 -0.00000000000E+00 -0.70641290600E+03  0.70641290600E+03  0.00000000000E+00 0. -1.
         24    2    1    2    0    0 -0.61524138749E+02  0.37040583502E+01 -0.59236851488E+03  0.60105592560E+03  0.81048310205E+02 0.  0.
         23    2    1    2    0    0  0.55860577073E+02 -0.37352099401E+02 -0.76320939063E+02  0.13575818814E+03  0.89943407240E+02 0.  0.
        -13    1    3    3    0    0  0.18088483736E+02  0.11957942031E+02 -0.11573797051E+03  0.11775170249E+03  0.00000000000E+00 0.  1.
         14    1    3    3    0    0 -0.79612622485E+02 -0.82538836805E+01 -0.47663054436E+03  0.48330422311E+03  0.00000000000E+00 0. -1.
        -11    1    4    4    0    0  0.73367835317E+01 -0.54058831496E+02 -0.61778353021E+02  0.82418144588E+02  0.00000000000E+00 0. -1.
         11    1    4    4    0    0  0.48523793541E+02  0.16706732095E+02 -0.14542586041E+02  0.53340043548E+02  0.00000000000E+00 0.  1.
          1    1    1    2  501    0  0.56635616758E+01  0.33648041051E+02  0.75840909215E+02  0.83163153547E+02  0.00000000000E+00 0. -1.
<scales pt_clust_5="13000.00000" pt_clust_6="13000.00000" pt_clust_7="13000.00000" pt_clust_8="13000.00000" pt_clust_9="34.12135"></scales>
<clustering>
<clus scale="   34.121">  1  9  2 -1</clus>
<clus scale="   81.048">  5  6 -1 -1</clus>
<clus scale="   89.943">  7  8 -1 -1</clus>
<clus scale="  101.635">  2  5  1 -1</clus>
<clus scale="   34.121">  1  5  2 -1</clus>
</clustering>
</event>
<event>
 9    2  0.4883225E-005  0.1049943E+03  0.7546771E-02  0.1274822E+00
         21   -1    0    0  501  502  0.00000000000E+00  0.00000000000E+00  0.34832977275E+02  0.34832977275E+02  0.00000000000E+00 0. -1.
          2   -1    0    0  502    0 -0.00000000000E+00 -0.00000000000E+00 -0.57741544979E+03  0.57741544979E+03  0.00000000000E+00 0. -1.
         23    2    1    2    0    0  0.50522546573E+02 -0.70860443213E+02 -0.32663566062E+03  0.34967997354E+03  0.89506977260E+02 0.  0.
         24    2    1    2    0    0 -0.37182863415E+01  0.22943335458E+02 -0.12775278832E+03  0.15182156289E+03  0.78668861311E+02 0.  0.
        -11    1    4    4    0    0 -0.22849924207E+02  0.20162499612E+02 -0.12890160045E+03  0.13245477728E+03  0.00000000000E+00 0.  1.
         12    1    4    4    0    0  0.19131637865E+02  0.27808358463E+01  0.11488121308E+01  0.19366785606E+02  0.00000000000E+00 0. -1.
        -13    1    3    3    0    0 -0.10855156630E+02 -0.61198318660E+02 -0.17979217529E+03  0.19023221317E+03  0.00000000000E+00 0.  1.
         13    1    3    3    0    0  0.61377703204E+02 -0.96621245535E+01 -0.14684348533E+03  0.15944776037E+03  0.00000000000E+00 0. -1.
          1    1    1    2  501    0 -0.46804260232E+02  0.47917107755E+02 -0.88194023572E+02  0.11074689063E+03  0.00000000000E+00 0. -1.
<scales pt_clust_5="13000.00000" pt_clust_6="13000.00000" pt_clust_7="13000.00000" pt_clust_8="13000.00000" pt_clust_9="66.98274"></scales>
<clustering>
<clus scale="   66.983">  1  9  2 -1</clus>
<clus scale="   78.669">  5  6 -1 -1</clus>
<clus scale="   89.507">  7  8 -1 -1</clus>
<clus scale="   95.922">  1  5  2 -1</clus>
<clus scale="   66.983">  1  5  2 -1</clus>
</clustering>
</event>
<event>
 9    2  0.4883225E-005  0.1483950E+03  0.7546771E-02  0.1204313E+00
         21   -1    0    0  501  502  0.00000000000E+00  0.00000000000E+00  0.45978114664E+02  0.45978114664E+02  0.00000000000E+00 0. -1.
          2   -1    0    0  502    0 -0.00000000000E+00 -0.00000000000E+00 -0.11458357859E+04  0.11458357859E+04  0.00000000000E+00 0. -1.
         23    2    1    2    0    0  0.86982965390E+02  0.58353920827E+02 -0.27241004184E+03  0.30536208803E+03  0.89819583453E+02 0.  0.
         24    2    1    2    0    0  0.13468518896E+01 -0.16273034738E+03 -0.46892268098E+03  0.50273742177E+03  0.79833918465E+02 0.  0.
        -11    1    4    4    0    0  0.27774224055E+02 -0.32324489164E+02 -0.17476509635E+03  0.17988640589E+03  0.00000000000E+00 0.  1.
         12    1    4    4    0    0 -0.26427372166E+02 -0.13040585822E+03 -0.29415758463E+03  0.32285101587E+03  0.00000000000E+00 0. -1.
        -13    1    3    3    0    0  0.79068608200E+02  0.29448929925E-02 -0.15312585574E+03  0.17233505885E+03  0.00000000000E+00 0. -1.
         13    1    3    3    0    0  0.79143571906E+01  0.58350975934E+02 -0.11928418609E+03  0.13302702919E+03  0.00000000000E+00 0.  1.
          1    1    1    2  501    0 -0.88329817280E+02  0.10437642655E+03 -0.35852494844E+03  0.38371439078E+03  0.00000000000E+00 0. -1.
<scales pt_clust_5="13000.00000" pt_clust_6="13000.00000" pt_clust_7="13000.00000" pt_clust_8="13000.00000" pt_clust_9="136.73556"></scales>
<clustering>
<clus scale="   79.834">  5  6 -1 -1</clus>
<clus scale="   89.820">  7  8 -1 -1</clus>
<clus scale="  136.736">  1  9  2 -1</clus>
<clus scale="  142.573">  1  5  2 -1</clus>
<clus scale="  136.736">  1  5  2 -1</clus>
</clustering>
</event>
<event>
 9    2  0.4922197E-005  0.9973112E+02  0.7546771E-02  0.1282825E+00
         -3   -1    0    0    0  501 -0.00000000000E+00  0.00000000000E+00  0.12926985468E+03  0.12926985468E+03  0.00000000000E+00 0.  1.
         21   -1    0    0  501  502  0.00000000000E+00 -0.00000000000E+00 -0.52947421582E+03  0.52947421582E+03  0.00000000000E+00 0.  1.
         23    2    1    2    0    0 -0.45198511027E+02  0.25707013225E+01  0.66967886401E+02  0.11742522935E+03  0.85173192811E+02 0.  0.
         24    2    1    2    0    0  0.71230690751E+02 -0.48388974490E+02 -0.63303787902E+02  0.13402690503E+03  0.80873589947E+02 0.  0.
        -13    1    4    4    0    0  0.36202914895E+01 -0.46078574341E+02 -0.85708406323E+01  0.47008518727E+02  0.00000000000E+00 0.  1.
         14    1    4    4    0    0  0.67610399261E+02 -0.23104001484E+01 -0.54732947269E+02  0.87018386298E+02  0.00000000000E+00 0. -1.
        -13    1    3    3    0    0  0.40843033391E+01  0.36120056332E+02  0.19720254046E+02  0.41354908086E+02  0.00000000000E+00 0. -1.
         13    1    3    3    0    0 -0.49282814367E+02 -0.33549355009E+02  0.47247632355E+02  0.76070321260E+02  0.00000000000E+00 0.  1.
         -4    1    1    2    0  502 -0.26032179723E+02  0.45818273167E+02 -0.40386845965E+03  0.40729193613E+03  0.00000000000E+00 0.  1.
<scales pt_clust_5="13000.00000" pt_clust_6="13000.00000" pt_clust_7="13000.00000" pt_clust_8="13000.00000" pt_clust_9="52.69714"></scales>
<clustering>
<clus scale="   52.697">  2  9  1 -1</clus>
<clus scale="   80.874">  5  6 -1 -1</clus>
<clus scale="   85.173">  7  8 -1 -1</clus>
<clus scale="   96.085">  2  5  1 -1</clus>
<clus scale="   52.697">  2  5  1 -1</clus>
</clustering>
</event>
<event>
 9    2  0.4883225E-005  0.9298044E+02  0.7546771E-02  0.1298432E+00
          2   -1    0    0  502    0 -0.00000000000E+00  0.00000000000E+00  0.50347025835E+03  0.50347025835E+03  0.00000000000E+00 0. -1.
         21   -1    0    0  501  502  0.00000000000E+00 -0.00000000000E+00 -0.40499072914E+02  0.40499072914E+02  0.00000000000E+00 0.  1.
         24    2    1    2    0    0 -0.13754800398E+02 -0.29971287199E+02  0.37528213160E+03  0.38531957265E+03  0.80913671114E+02 0.  0.
         23    2    1    2    0    0  0.39961255633E+02  0.35349431583E+02  0.84553797156E+02  0.13171404687E+03  0.85748243501E+02 0.  0.
        -11    1    3    3    0    0  0.80064526713E+00  0.27758253813E+02  0.12663757829E+03  0.12964658855E+03  0.00000000000E+00 0.  1.
         12    1    3    3    0    0 -0.14555445665E+02 -0.57729541012E+02  0.24864455331E+03  0.25567298409E+03  0.00000000000E+00 0. -1.
        -11    1    4    4    0    0  0.52291606356E+02  0.52466076009E+00  0.17478356260E+02  0.55137830042E+02  0.00000000000E+00 0.  1.
         11    1    4    4    0    0 -0.12330350723E+02  0.34824770823E+02  0.67075440896E+02  0.76576216825E+02  0.00000000000E+00 0. -1.
          1    1    1    2  501    0 -0.26206455235E+02 -0.53781443841E+01  0.31352566746E+01  0.26935711749E+02  0.00000000000E+00 0. -1.
<scales pt_clust_5="13000.00000" pt_clust_6="13000.00000" pt_clust_7="13000.00000" pt_clust_8="13000.00000" pt_clust_9="26.75262"></scales>
<clustering>
<clus scale="   26.753">  2  9  1 -1</clus>
<clus scale="   80.914">  5  6 -1 -1</clus>
<clus scale="   85.748">  7  8 -1 -1</clus>
<clus scale="   88.542">  1  5  2 -1</clus>
<clus scale="   26.753">  2  5  1 -1</clus>
</clustering>
</event>
<event>
 9    2  0.4883225E-005  0.9198470E+02  0.7546771E-02  0.1305462E+00
         -1   -1    0    0    0  501 -0.00000000000E+00  0.00000000000E+00  0.95357164981E+02  0.95357164981E+02  0.00000000000E+00 0.  1.
         21   -1    0    0  501  502  0.00000000000E+00 -0.00000000000E+00 -0.16649685843E+03  0.16649685843E+03  0.00000000000E+00 0.  1.
         23    2    1    2    0    0  0.21765928809E+02  0.33143071385E+02 -0.22214473132E+01  0.99058903870E+02  0.90749726005E+02 0.  0.
         24    2    1    2    0    0  0.21248706243E+02  0.16732878009E+01 -0.10698758226E+02  0.82471110253E+02  0.78947534412E+02 0.  0.
        -11    1    4    4    0    0  0.37566471380E+02 -0.20701560691E+02 -0.26664528728E+02  0.50505360897E+02  0.00000000000E+00 0.  1.
         12    1    4    4    0    0 -0.16317765138E+02  0.22374848492E+02  0.15965770503E+02  0.31965749356E+02  0.00000000000E+00 0. -1.
        -11    1    3    3    0    0  0.48395627177E+02  0.40582007419E+02  0.16973673271E+02  0.65399859635E+02  0.00000000000E+00 0.  1.
         11    1    3    3    0    0 -0.26629698368E+02 -0.74389360332E+01 -0.19195120585E+02  0.33659044234E+02  0.00000000000E+00 0. -1.
         -2    1    1    2    0  502 -0.43014635052E+02 -0.34816359186E+02 -0.58219487906E+02  0.80324009285E+02  0.00000000000E+00 0.  1.
<scales pt_clust_5="13000.00000" pt_clust_6="13000.00000" pt_clust_7="13000.00000" pt_clust_8="13000.00000" pt_clust_9="55.33930"></scales>
<clustering>
<clus scale="   55.339">  2  9  1 -1</clus>
<clus scale="   78.948">  5  6 -1 -1</clus>
<clus scale="   80.364">  2  5  1 -1</clus>
<clus scale="   90.750">  7  8 -1 -1</clus>
<clus scale="   55.339">  2  5  1 -1</clus>
</clustering>
</event>
<event>
 9    2  0.4883225E-005  0.1135760E+03  0.7546771E-02  0.1259990E+00
         21   -1    0    0  501  502  0.00000000000E+00  0.00000000000E+00  0.10181063995E+03  0.10181063995E+03  0.00000000000E+00 0. -1.
          2   -1    0    0  502    0 -0.00000000000E+00 -0.00000000000E+00 -0.22062264535E+03  0.22062264535E+03  0.00000000000E+00 0. -1.
         24    2    1    2    0    0 -0.47595970323E+02  0.10265276044E+02 -0.65889829141E+02  0.13334272859E+03  0.10520485445E+03 0.  0.
         23    2    1    2    0    0  0.32639890801E+02  0.70840190896E+01  0.30854183595E+02  0.10223918466E+03  0.91571417138E+02 0.  0.
        -11    1    3    3    0    0 -0.71839786180E+02  0.36163170197E+02 -0.44502881869E+02  0.91919727218E+02  0.00000000000E+00 0.  1.
         12    1    3    3    0    0  0.24243815857E+02 -0.25897894154E+02 -0.21386947272E+02  0.41423001370E+02  0.00000000000E+00 0. -1.
        -13    1    4    4    0    0  0.11854496473E+02 -0.37333019684E+02 -0.76247375897E+01  0.39905138374E+02  0.00000000000E+00 0.  1.
         13    1    4    4    0    0  0.20785394328E+02  0.44417038773E+02  0.38478921185E+02  0.62334046286E+02  0.00000000000E+00 0. -1.
          1    1    1    2  501    0  0.14956079522E+02 -0.17349295133E+02 -0.83776359854E+02  0.86851372048E+02  0.00000000000E+00 0. -1.
<scales pt_clust_5="13000.00000" pt_clust_6="13000.00000" pt_clust_7="13000.00000" pt_clust_8="13000.00000" pt_clust_9="22.90596"></scales>
<clustering>
<clus scale="   22.906">  1  9  2 -1</clus>
<clus scale="   91.571">  7  8 -1 -1</clus>
<clus scale="  101.078">  1  7  2 -1</clus>
<clus scale="  105.205">  5  6 -1 -1</clus>
<clus scale="   22.906">  1  5  2 -1</clus>
</clustering>
</event>
<event>
 9    2  0.4883225E-005  0.1305969E+03  0.7546771E-02  0.1230806E+00
         21   -1    0    0  501  502  0.00000000000E+00  0.00000000000E+00  0.74173858255E+02  0.74173858255E+02  0.00000000000E+00 0. -1.
          2   -1    0    0  502    0 -0.00000000000E+00 -0.00000000000E+00 -0.64759569953E+03  0.64759569953E+03  0.00000000000E+00 0. -1.
         24    2    1    2    0    0  0.40288487492E+02 -0.92455339583E+02 -0.50154785750E+03  0.51663699066E+03  0.72058134280E+02 0.  0.
         23    2    1    2    0    0 -0.31942876315E+02  0.70382160669E+02 -0.10936307169E+03  0.16083464206E+03  0.89070223697E+02 0.  0.
        -11    1    3    3    0    0 -0.19981640362E+02 -0.13375324416E+02 -0.80897675708E+02  0.84395492710E+02  0.00000000000E+00 0.  1.
         12    1    3    3    0    0  0.60270127855E+02 -0.79080015168E+02 -0.42065018179E+03  0.43224149795E+03  0.00000000000E+00 0. -1.
        -13    1    4    4    0    0 -0.61532187940E+02  0.60736280543E+02 -0.85727258861E+02  0.12175495406E+03  0.00000000000E+00 0.  1.
         13    1    4    4    0    0  0.29589311626E+02  0.96458801260E+01 -0.23635812825E+02  0.39079687995E+02  0.00000000000E+00 0. -1.
          1    1    1    2  501    0 -0.83456111777E+01  0.22073178915E+02  0.37489087907E+02  0.44297925069E+02  0.00000000000E+00 0. -1.
<scales pt_clust_5="13000.00000" pt_clust_6="13000.00000" pt_clust_7="13000.00000" pt_clust_8="13000.00000" pt_clust_9="23.59819"></scales>
<clustering>
<clus scale="   23.598">  1  9  2 -1</clus>
<clus scale="   72.058">  5  6 -1 -1</clus>
<clus scale="   89.070">  7  8 -1 -1</clus>
<clus scale="  119.643">  2  5  1 -1</clus>
<clus scale="   23.598">  1  5  2 -1</clus>
</clustering>
</event>
<event>
 9    2  0.4883225E-005  0.1013575E+03  0.7546771E-02  0.1282448E+00
         21   -1    0    0  501  502  0.00000000000E+00  0.00000000000E+00  0.34136919194E+02  0.34136919194E+02  0.00000000000E+00 0. -1.
          2   -1    0    0  502    0 -0.00000000000E+00 -0.00000000000E+00 -0.88905510199E+03  0.88905510199E+03  0.00000000000E+00 0. -1.
         24    2    1    2    0    0 -0.20521716010E+02  0.34282724403E+02 -0.49676195378E+03  0.50502334461E+03  0.81729394086E+02 0.  0.
         23    2    1    2    0    0 -0.67344883063E+01 -0.54019128183E+02 -0.36792589272E+03  0.38312766294E+03  0.91945223009E+02 0.  0.
        -13    1    3    3    0    0 -0.45578251537E+02  0.80252769871E+00 -0.18828019233E+03  0.19372003481E+03  0.00000000000E+00 0.  1.
         14    1    3    3    0    0  0.25056535527E+02  0.33480196705E+02 -0.30848176145E+03  0.31130330980E+03  0.00000000000E+00 0. -1.
        -13    1    4    4    0    0  0.39511739044E+02 -0.28111093737E+02 -0.23638703925E+03  0.24130943504E+03  0.00000000000E+00 0. -1.
         13    1    4    4    0    0 -0.46246227350E+02 -0.25908034446E+02 -0.13153885346E+03  0.14181822790E+03  0.00000000000E+00 0.  1.
          1    1    1    2  501    0  0.27256204316E+02  0.19736403780E+02  0.97696636991E+01  0.35041013637E+02  0.00000000000E+00 0. -1.
<scales pt_clust_5="13000.00000" pt_clust_6="13000.00000" pt_clust_7="13000.00000" pt_clust_8="13000.00000" pt_clust_9="33.65154"></scales>
<clustering>
<clus scale="   33.652">  1  9  2 -1</clus>
<clus scale="   81.729">  5  6 -1 -1</clus>
<clus scale="   91.945">  7  8 -1 -1</clus>
<clus scale="   92.191">  2  5  1 -1</clus>
<clus scale="   33.652">  1  5  2 -1</clus>
</clustering>
</event>
<event>
 9    2  0.4883225E-005  0.1099093E+03  0.7546771E-02  0.1265172E+00
         21   -1    0    0  501  502  0.00000000000E+00  0.00000000000E+00  0.11267363785E+03  0.11267363785E+03  0.00000000000E+00 0.  1.
         -3   -1    0    0    0  501 -0.00000000000E+00 -0.00000000000E+00 -0.19333832807E+03  0.19333832807E+03  0.00000000000E+00 0.  1.
         24    2    1    2    0    0  0.39395145572E+02 -0.14926751841E+02 -0.22590375128E+02  0.93664856707E+02  0.80548090718E+02 0.  0.
         23    2    1    2    0    0 -0.89687991418E+02 -0.35426165760E+02 -0.38338950409E+02  0.13849407087E+03  0.91715775757E+02 0.  0.
        -11    1    3    3    0    0  0.53604601416E+02 -0.35425655123E+01  0.11571691002E+02  0.54953681369E+02  0.00000000000E+00 0.  1.
         12    1    3    3    0    0 -0.14209455844E+02 -0.11384186329E+02 -0.34162066130E+02  0.38711175337E+02  0.00000000000E+00 0. -1.
        -13    1    4    4    0    0  0.48056464502E+01 -0.25501036663E+02  0.14551604763E+02  0.29751408536E+02  0.00000000000E+00 0. -1.
         13    1    4    4    0    0 -0.94493637868E+02 -0.99251290978E+01 -0.52890555173E+02  0.10874266233E+03  0.00000000000E+00 0.  1.
         -4    1    1    2    0  502  0.50292845847E+02  0.50352917601E+02 -0.19735364681E+02  0.73853038349E+02  0.00000000000E+00 0.  1.
<scales pt_clust_5="13000.00000" pt_clust_6="13000.00000" pt_clust_7="13000.00000" pt_clust_8="13000.00000" pt_clust_9="71.16735"></scales>
<clustering>
<clus scale="   71.167">  1  9  2 -1</clus>
<clus scale="   80.548">  5  6 -1 -1</clus>
<clus scale="   91.716">  7  8 -1 -1</clus>
<clus scale="  100.778">  2  5  1 -1</clus>
<clus scale="   71.167">  1  5  2 -1</clus>
</clustering>
</event>
<event>
 9    2  0.4883225E-005  0.1341807E+03  0.7546771E-02  0.1225071E+00
          2   -1    0    0  502    0 -0.00000000000E+00  0.00000000000E+00  0.16988471324E+03  0.16988471324E+03  0.00000000000E+00 0. -1.
         21   -1    0    0  501  502  0.00000000000E+00 -0.00000000000E+00 -0.12456635932E+03  0.12456635932E+03  0.00000000000E+00 0. -1.
         23    2    1    2    0    0  0.71711793032E+02  0.46556082368E+02  0.14834002834E+02  0.12488947359E+03  0.89818054460E+02 0.  0.
         24    2    1    2    0    0 -0.10153882559E+03 -0.51975446654E+02  0.29650891050E+02  0.13923477856E+03  0.74132098732E+02 0.  0.
        -13    1    4    4    0    0 -0.73930227894E+02 -0.25267251006E+02  0.52882175248E+02  0.94343187506E+02  0.00000000000E+00 0.  1.
         14    1    4    4    0    0 -0.27608597699E+02 -0.26708195648E+02 -0.23231284198E+02  0.44891591052E+02  0.00000000000E+00 0. -1.
        -13    1    3    3    0    0  0.25880228521E+02  0.10831068991E+02 -0.37400361856E+02  0.46753452821E+02  0.00000000000E+00 0.  1.
         13    1    3    3    0    0  0.45831564511E+02  0.35725013377E+02  0.52234364690E+02  0.78136020764E+02  0.00000000000E+00 0. -1.
          1    1    1    2  501    0  0.29827032561E+02  0.54193642858E+01  0.83346003716E+00  0.30326820412E+02  0.00000000000E+00 0. -1.
<scales pt_clust_5="13000.00000" pt_clust_6="13000.00000" pt_clust_7="13000.00000" pt_clust_8="13000.00000" pt_clust_9="30.31537"></scales>
<clustering>
<clus scale="   30.315">  2  9  1 -1</clus>
<clus scale="   74.132">  5  6 -1 -1</clus>
<clus scale="   89.818">  7  8 -1 -1</clus>
<clus scale="  124.229">  2  5  1 -1</clus>
<clus scale="   30.315">  2  5  1 -1</clus>
</clustering>
</event>
<event>
 9    2  0.4883225E-005  0.1213217E+03  0.7546771E-02  0.1254877E+00
         21   -1    0    0  501  502  0.00000000000E+00  0.00000000000E+00  0.50166538499E+02  0.50166538499E+02  0.00000000000E+00 0.  1.
          2   -1    0    0  502    0 -0.00000000000E+00 -0.00000000000E+00 -0.42171647256E+03  0.42171647256E+03  0.00000000000E+00 0. -1.
         23    2    1    2    0    0  0.31190205958E+02 -0.19610987447E+02 -0.16565802370E+03  0.20328004949E+03  0.11190521850E+03 0.  0.
         24    2    1    2    0    0 -0.34793796341E+02  0.55440196061E+02 -0.60917983067E+02  0.11922372055E+03  0.78861088484E+02 0.  0.
        -11    1    4    4    0    0  0.22827271814E+02  0.14100227369E+02 -0.17890128456E+01  0.26890543269E+02  0.00000000000E+00 0.  1.
         12    1    4    4    0    0 -0.57621068155E+02  0.41339968691E+02 -0.59128970221E+02  0.92333177277E+02  0.00000000000E+00 0. -1.
        -13    1    3    3    0    0 -0.16791342017E+02 -0.51466005966E+02 -0.48294836621E+02  0.72547158325E+02  0.00000000000E+00 0.  1.
         13    1    3    3    0    0  0.47981547974E+02  0.31855018519E+02 -0.11736318708E+03  0.13073289116E+03  0.00000000000E+00 0. -1.
          1    1    1    2  501    0  0.36035903831E+01 -0.35829208614E+02 -0.14497392730E+03  0.14937924103E+03  0.00000000000E+00 0. -1.
<scales pt_clust_5="13000.00000" pt_clust_6="13000.00000" pt_clust_7="13000.00000" pt_clust_8="13000.00000" pt_clust_9="36.00999"></scales>
<clustering>
<clus scale="   36.010">  1  9  2 -1</clus>
<clus scale="   78.861">  5  6 -1 -1</clus>
<clus scale="   91.735">  1  5  2 -1</clus>
<clus scale="  111.905">  7  8 -1 -1</clus>
<clus scale="   36.010">  1  5  2 -1</clus>
</clustering>
</event>
<event>
 9    2  0.4883225E-005  0.3902410E+03  0.7546771E-02  0.1047212E+00
          2   -1    0    0  502    0 -0.00000000000E+00  0.00000000000E+00  0.71659696331E+03  0.71659696331E+03  0.00000000000E+00 0. -1.
         21   -1    0    0  501  502  0.00000000000E+00 -0.00000000000E+00 -0.67397519918E+03  0.67397519918E+03  0.00000000000E+00 0. -1.
         24    2    1    2    0    0 -0.18846925061E+03 -0.98820223555E+02  0.45281507941E+03  0.50664132402E+03  0.79736064910E+02 0.  0.
         23    2    1    2    0    0 -0.11335907242E+03  0.41168098223E+02  0.16945432764E+03  0.22787025127E+03  0.93085931505E+02 0.  0.
        -11    1    3    3    0    0 -0.72975554937E+02 -0.81566967932E+02  0.24322885071E+03  0.26671872018E+03  0.00000000000E+00 0.  1.
         12    1    3    3    0    0 -0.11549369567E+03 -0.17253255623E+02  0.20958622870E+03  0.23992260383E+03  0.00000000000E+00 0. -1.
        -11    1    4    4    0    0 -0.66195802888E+02  0.12726109403E+02  0.22709711802E+02  0.71130648744E+02  0.00000000000E+00 0.  1.
         11    1    4    4    0    0 -0.47163269534E+02  0.28441988820E+02  0.14674461584E+03  0.15673960252E+03  0.00000000000E+00 0. -1.
          1    1    1    2  501    0  0.30182832303E+03  0.57652125332E+02 -0.57964764292E+03  0.65606058721E+03  0.00000000000E+00 0. -1.
<scales pt_clust_5="13000.00000" pt_clust_6="13000.00000" pt_clust_7="13000.00000" pt_clust_8="13000.00000" pt_clust_9="307.28505"></scales>
<clustering>
<clus scale="   79.736">  5  6 -1 -1</clus>
<clus scale="   93.086">  7  8 -1 -1</clus>
<clus scale="  141.659">  5  7 -1 -1</clus>
<clus scale="  307.285">  2  9  1 -1</clus>
<clus scale="  307.285">  2  5  1 -1</clus>
</clustering>
</event>
<event>
 9    2  0.4883225E-005  0.1281527E+03  0.7546771E-02  0.1233129E+00
         21   -1    0    0  501  502  0.00000000000E+00  0.00000000000E+00  0.22084115911E+03  0.22084115911E+03  0.00000000000E+00 0.  1.
         -1   -1    0    0    0  501 -0.00000000000E+00 -0.00000000000E+00 -0.17035393919E+03  0.17035393919E+03  0.00000000000E+00 0.  1.
         23    2    1    2    0    0  0.50418720467E+02 -0.73236630426E+02  0.53397204705E+01  0.12762333634E+03  0.91397767781E+02 0.  0.
         24    2    1    2    0    0  0.51277449327E+02  0.10655121456E+03 -0.94532615137E+01  0.14343344349E+03  0.80630331919E+02 0.  0.
        -13    1    4    4    0    0  0.67948059602E+02  0.10603727236E+03 -0.12203389639E+02  0.12652969869E+03  0.00000000000E+00 0.  1.
         14    1    4    4    0    0 -0.16670610275E+02  0.51394220165E+00  0.27501281250E+01  0.16903744799E+02  0.00000000000E+00 0. -1.
        -11    1    3    3    0    0 -0.23928931293E+02 -0.36220837097E+01  0.86959857366E+01  0.25716403542E+02  0.00000000000E+00 0.  1.
         11    1    3    3    0    0  0.74347651759E+02 -0.69614546717E+02 -0.33562652661E+01  0.10190693280E+03  0.00000000000E+00 0. -1.
         -2    1    1    2    0  502 -0.10169616979E+03 -0.33314584132E+02  0.54600760965E+02  0.12013831847E+03  0.00000000000E+00 0.  1.
<scales pt_clust_5="13000.00000" pt_clust_6="13000.00000" pt_clust_7="13000.00000" pt_clust_8="13000.00000" pt_clust_9="107.01389"></scales>
<clustering>
<clus scale="   80.630">  5  6 -1 -1</clus>
<clus scale="   91.398">  7  8 -1 -1</clus>
<clus scale="  107.014">  1  9  2 -1</clus>
<clus scale="  120.710">  1  5  2 -1</clus>
<clus scale="  107.014">  1  5  2 -1</clus>
</clustering>
</event>
<event>
 9    2  0.4883225E-005  0.1322428E+03  0.7546771E-02  0.1226975E+00
         21   -1    0    0  501  502  0.00000000000E+00  0.00000000000E+00  0.10370986670E+03  0.10370986670E+03  0.00000000000E+00 0. -1.
          2   -1    0    0  502    0 -0.00000000000E+00 -0.00000000000E+00 -0.36543934644E+03  0.36543934644E+03  0.00000000000E+00 0. -1.
         23    2    1    2    0    0  0.28890934342E+02  0.84562997768E+02 -0.22551138547E+03  0.25919618956E+03  0.91332869350E+02 0.  0.
         24    2    1    2    0    0 -0.83575235028E+02 -0.90415735105E+02 -0.46382634061E+02  0.15402498817E+03  0.80078231588E+02 0.  0.
        -13    1    4    4    0    0 -0.24929542425E+02 -0.39886722187E+01  0.18291745371E+02  0.31176586412E+02  0.00000000000E+00 0.  1.
         14    1    4    4    0    0 -0.58645692603E+02 -0.86427062886E+02 -0.64674379432E+02  0.12284840176E+03  0.00000000000E+00 0. -1.
        -13    1    3    3    0    0  0.41405227692E+02  0.12456665375E+02 -0.36756652846E+02  0.56750444235E+02  0.00000000000E+00 0. -1.
         13    1    3    3    0    0 -0.12514293350E+02  0.72106332393E+02 -0.18875473263E+03  0.20244574532E+03  0.00000000000E+00 0.  1.
          1    1    1    2  501    0  0.54684300685E+02  0.58527373369E+01  0.10164539798E+02  0.55928035412E+02  0.00000000000E+00 0. -1.
<scales pt_clust_5="13000.00000" pt_clust_6="13000.00000" pt_clust_7="13000.00000" pt_clust_8="13000.00000" pt_clust_9="54.99661"></scales>
<clustering>
<clus scale="   54.997">  1  9  2 -1</clus>
<clus scale="   80.078">  5  6 -1 -1</clus>
<clus scale="   91.333">  7  8 -1 -1</clus>
<clus scale="  124.736">  1  5  2 -1</clus>
<clus scale="   54.997">  1  5  2 -1</clus>
</clustering>
</event>
<event>
 9    2  0.5032206E-005  0.9232021E+02  0.7546771E-02  0.1303972E+00
          2   -1    0    0  502    0 -0.00000000000E+00  0.00000000000E+00  0.10328312255E+04  0.10328312255E+04  0.00000000000E+00 0. -1.
         21   -1    0    0  501  502  0.00000000000E+00 -0.00000000000E+00 -0.32060420477E+03  0.32060420477E+03  0.00000000000E+00 0.  1.
         24    2    1    2    0    0 -0.46266916813E+01 -0.11177015602E+02  0.10016063717E+04  0.10049240967E+04  0.80689431521E+02 0.  0.
         23    2    1    2    0    0 -0.68465854393E+00  0.62444685204E+02 -0.90335503544E+02  0.14290239034E+03  0.91437314580E+02 0.  0.
        -11    1    3    3    0    0 -0.17029173629E+02  0.12729119602E+02  0.75777059969E+02  0.78703151512E+02  0.00000000000E+00 0.  1.
         12    1    3    3    0    0  0.12402481948E+02 -0.23906135204E+02  0.92582931168E+03  0.92622094515E+03  0.00000000000E+00 0. -1.
        -13    1    4    4    0    0  0.39493074846E+02  0.41250753994E+01 -0.36618674785E+02  0.54015243690E+02  0.00000000000E+00 0. -1.
         13    1    4    4    0    0 -0.40177733390E+02  0.58319609805E+02 -0.53716828759E+02  0.88887146653E+02  0.00000000000E+00 0.  1.
          1    1    1    2  501    0  0.53113502252E+01 -0.51267669602E+02 -0.19904384736E+03  0.20560894329E+03  0.00000000000E+00 0. -1.
<scales pt_clust_5="13000.00000" pt_clust_6="13000.00000" pt_clust_7="13000.00000" pt_clust_8="13000.00000" pt_clust_9="51.54206"></scales>
<clustering>
<clus scale="   51.542">  2  9  1 -1</clus>
<clus scale="   80.689">  5  6 -1 -1</clus>
<clus scale="   81.689">  1  5  2 -1</clus>
<clus scale="   91.437">  7  8 -1 -1</clus>
<clus scale="   51.542">  2  5  1 -1</clus>
</clustering>
</event>
<event>
 9    2  0.4883225E-005  0.1140958E+03  0.7546771E-02  0.1258007E+00
          2   -1    0    0  502    0 -0.00000000000E+00  0.00000000000E+00  0.24481234073E+03  0.24481234073E+03  0.00000000000E+00 0. -1.
         21   -1    0    0  501  502  0.00000000000E+00 -0.00000000000E+00 -0.13355636235E+03  0.13355636235E+03  0.00000000000E+00 0.  1.
         24    2    1    2    0    0  0.63069219521E+02  0.89094197259E+01  0.16404914100E+03  0.19373024851E+03  0.81007310242E+02 0.  0.
         23    2    1    2    0    0 -0.73285485117E+02  0.40162341693E+02 -0.28553804334E+02  0.12896120301E+03  0.93978168321E+02 0.  0.
        -13    1    3    3    0    0  0.89218532401E+01 -0.33052911060E+02  0.47747180962E+02  0.58752767463E+02  0.00000000000E+00 0.  1.
         14    1    3    3    0    0  0.54147366281E+02  0.41962330786E+02  0.11630196004E+03  0.13497748105E+03  0.00000000000E+00 0. -1.
        -11    1    4    4    0    0 -0.25287614134E+02  0.52515732466E+02 -0.48212516094E+02  0.75642661859E+02  0.00000000000E+00 0.  1.
         11    1    4    4    0    0 -0.47997870983E+02 -0.12353390773E+02  0.19658711760E+02  0.53318541151E+02  0.00000000000E+00 0. -1.
          1    1    1    2  501    0  0.10216265596E+02 -0.49071761419E+02 -0.24239358281E+02  0.55677251561E+02  0.00000000000E+00 0. -1.
<scales pt_clust_5="13000.00000" pt_clust_6="13000.00000" pt_clust_7="13000.00000" pt_clust_8="13000.00000" pt_clust_9="50.12394"></scales>
<clustering>
<clus scale="   50.124">  2  9  1 -1</clus>
<clus scale="   81.007">  5  6 -1 -1</clus>
<clus scale="   93.978">  7  8 -1 -1</clus>
<clus scale="  103.673">  1  5  2 -1</clus>
<clus scale="   50.124">  2  5  1 -1</clus>
</clustering>
</event>
<event>
 9    2  0.4883225E-005  0.1129094E+03  0.7546771E-02  0.1260130E+00
         21   -1    0    0  501  502  0.00000000000E+00  0.00000000000E+00  0.89480701426E+02  0.89480701426E+02  0.00000000000E+00 0.  1.
          2   -1    0    0  502    0 -0.00000000000E+00 -0.00000000000E+00 -0.17429488952E+03  0.17429488952E+03  0.00000000000E+00 0. -1.
         24    2    1    2    0    0  0.32629266669E+02 -0.51043448354E+02 -0.39273871823E+02  0.10791757349E+03  0.80210117801E+02 0.  0.
         23    2    1    2    0    0 -0.58316650983E+02  0.39729875843E+02 -0.50729832983E+02  0.12731384607E+03  0.93037651684E+02 0.  0.
        -13    1    3    3    0    0  0.38185179445E+02  0.47842713918E+01  0.15790468274E+01  0.38516107940E+02  0.00000000000E+00 0.  1.
         14    1    3    3    0    0 -0.55559127761E+01 -0.55827719746E+02 -0.40852918650E+02  0.69401465554E+02  0.00000000000E+00 0. -1.
        -11    1    4    4    0    0 -0.30087876703E+02 -0.16181566080E+01  0.23199202521E+02  0.38027644588E+02  0.00000000000E+00 0.  1.
         11    1    4    4    0    0 -0.28228774280E+02  0.41348032451E+02 -0.73929035504E+02  0.89286201484E+02  0.00000000000E+00 0. -1.
          1    1    1    2  501    0  0.25687384314E+02  0.11313572511E+02  0.51895167148E+01  0.28544171377E+02  0.00000000000E+00 0. -1.
<scales pt_clust_5="13000.00000" pt_clust_6="13000.00000" pt_clust_7="13000.00000" pt_clust_8="13000.00000" pt_clust_9="28.06846"></scales>
<clustering>
<clus scale="   28.068">  1  9  2 -1</clus>
<clus scale="   80.210">  5  6 -1 -1</clus>
<clus scale="   93.038">  7  8 -1 -1</clus>
<clus scale="  102.597">  2  5  1 -1</clus>
<clus scale="   28.068">  1  5  2 -1</clus>
</clustering>
</event>
<event>
 9    2  0.4883225E-005  0.1206397E+03  0.7546771E-02  0.1245322E+00
         21   -1    0    0  501  502  0.00000000000E+00  0.00000000000E+00  0.35115435930E+02  0.35115435930E+02  0.00000000000E+00 0. -1.
          2   -1    0    0  502    0 -0.00000000000E+00 -0.00000000000E+00 -0.10575316188E+04  0.10575316188E+04  0.00000000000E+00 0. -1.
         23    2    1    2    0    0 -0.69268290519E+02  0.42154110703E+00 -0.55391841759E+03  0.56565701144E+03  0.91345320000E+02 0.  0.
         24    2    1    2    0    0  0.12222545793E+03  0.10445730852E+02 -0.17476293993E+03  0.22832182133E+03  0.80873933160E+02 0.  0.
        -13    1    4    4    0    0  0.25359082215E+02  0.36508355384E+02 -0.72724284831E+02  0.85233588847E+02  0.00000000000E+00 0.  1.
         14    1    4    4    0    0  0.96866375714E+02 -0.26062624532E+02 -0.10203865510E+03  0.14308823249E+03  0.00000000000E+00 0. -1.
        -11    1    3    3    0    0 -0.62496432433E+02  0.39989823213E+02 -0.33947194041E+03  0.34748552251E+03  0.00000000000E+00 0. -1.
         11    1    3    3    0    0 -0.67718580858E+01 -0.39568282106E+02 -0.21444647717E+03  0.21817148893E+03  0.00000000000E+00 0.  1.
          1    1    1    2  501    0 -0.52957167410E+02 -0.10867271959E+02 -0.29373482537E+03  0.29866822197E+03  0.00000000000E+00 0. -1.
<scales pt_clust_5="13000.00000" pt_clust_6="13000.00000" pt_clust_7="13000.00000" pt_clust_8="13000.00000" pt_clust_9="54.06073"></scales>
<clustering>
<clus scale="   54.061">  1  9  2 -1</clus>
<clus scale="   80.874">  5  6 -1 -1</clus>
<clus scale="   91.345">  7  8 -1 -1</clus>
<clus scale="  112.918">  1  5  2 -1</clus>
<clus scale="   54.061">  1  5  2 -1</clus>
</clustering>
</event>
<event>
 9    2  0.4883225E-005  0.1046907E+03  0.7546771E-02  0.1276764E+00
         21   -1    0    0  501  502  0.00000000000E+00  0.00000000000E+00  0.33451277565E+02  0.33451277565E+02  0.00000000000E+00 0. -1.
         -1   -1    0    0    0  501 -0.00000000000E+00 -0.00000000000E+00 -0.48950459111E+03  0.48950459111E+03  0.00000000000E+00 0.  1.
         23    2    1    2    0    0  0.46323905705E+02 -0.47516891116E+02 -0.30175983691E+03  0.32205733659E+03  0.90874472213E+02 0.  0.
         24    2    1    2    0    0 -0.26410494739E+02  0.23995269878E+02 -0.14588751112E+03  0.16895372252E+03  0.77388030361E+02 0.  0.
        -11    1    4    4    0    0 -0.33192150264E+02  0.41995640460E+02 -0.13826110222E+03  0.14826154270E+03  0.00000000000E+00 0.  1.
         12    1    4    4    0    0  0.67816555250E+01 -0.18000370582E+02 -0.76264088935E+01  0.20692179812E+02  0.00000000000E+00 0. -1.
        -11    1    3    3    0    0  0.36144821225E+02  0.12196357262E+02 -0.20022216996E+03  0.20382373898E+03  0.00000000000E+00 0.  1.
         11    1    3    3    0    0  0.10179084480E+02 -0.59713248378E+02 -0.10153766695E+03  0.11823359760E+03  0.00000000000E+00 0. -1.
         -2    1    1    2    0  502 -0.19913410966E+02  0.23521621239E+02 -0.84059655178E+01  0.31944809567E+02  0.00000000000E+00 0.  1.
<scales pt_clust_5="13000.00000" pt_clust_6="13000.00000" pt_clust_7="13000.00000" pt_clust_8="13000.00000" pt_clust_9="30.81900"></scales>
<clustering>
<clus scale="   30.819">  1  9  2 -1</clus>
<clus scale="   77.388">  5  6 -1 -1</clus>
<clus scale="   90.874">  7  8 -1 -1</clus>
<clus scale="   93.225">  1  5  2 -1</clus>
<clus scale="   30.819">  1  5  2 -1</clus>
</clustering>
</event>
<event>
 9    2  0.4883225E-005  0.9207863E+02  0.7546771E-02  0.1304775E+00
         -1   -1    0    0    0  501 -0.00000000000E+00  0.00000000000E+00  0.28986996873E+03  0.28986996873E+03  0.00000000000E+00 0.  1.
         21   -1    0    0  501  502  0.00000000000E+00 -0.00000000000E+00 -0.14649611822E+03  0.14649611822E+03  0.00000000000E+00 0.  1.
         24    2    1    2    0    0 -0.13491909689E+02 -0.28041519109E+02  0.15255010402E+03  0.17461291237E+03  0.79055528014E+02 0.  0.
         23    2    1    2    0    0 -0.60015468121E+02 -0.11867412706E+02  0.83187233137E+02  0.13714550590E+03  0.90255648756E+02 0.  0.
        -11    1    3    3    0    0 -0.35306959552E+02 -0.36198509811E+02  0.13843095817E+03  0.14737721562E+03  0.00000000000E+00 0.  1.
         12    1    3    3    0    0  0.21815049863E+02  0.81569907022E+01  0.14119145851E+02  0.27235696749E+02  0.00000000000E+00 0. -1.
        -13    1    4    4    0    0  0.11163658868E+02  0.24280622615E+02  0.34494751446E+02  0.43635579419E+02  0.00000000000E+00 0. -1.
         13    1    4    4    0    0 -0.71179126989E+02 -0.36148035321E+02  0.48692481691E+02  0.93509926476E+02  0.00000000000E+00 0.  1.
         -2    1    1    2    0  502  0.73507377809E+02  0.39908931815E+02 -0.92363486639E+02  0.12460766868E+03  0.00000000000E+00 0.  1.
<scales pt_clust_5="13000.00000" pt_clust_6="13000.00000" pt_clust_7="13000.00000" pt_clust_8="13000.00000" pt_clust_9="83.64244"></scales>
<clustering>
<clus scale="   79.056">  5  6 -1 -1</clus>
<clus scale="   83.642">  2  9  1 -1</clus>
<clus scale="   81.131">  1  5  2 -1</clus>
<clus scale="   90.256">  7  8 -1 -1</clus>
<clus scale="   83.642">  2  5  1 -1</clus>
</clustering>
</event>
<event>
 9    2  0.4883225E-005  0.1278486E+03  0.7546771E-02  0.1251180E+00
          2   -1    0    0  502    0 -0.00000000000E+00  0.00000000000E+00  0.56192880912E+03  0.56192880912E+03  0.00000000000E+00 0. -1.
         21   -1    0    0  501  502  0.00000000000E+00 -0.00000000000E+00 -0.56362450327E+02  0.56362450327E+02  0.00000000000E+00 0. -1.
         24    2    1    2    0    0 -0.18947503418E+02 -0.10757246861E+02  0.32583916781E+03  0.33658456033E+03  0.81506298701E+02 0.  0.
         23    2    1    2    0    0 -0.17790824126E+02  0.89300088829E+02  0.11185386587E+03  0.17159098272E+03  0.92957833201E+02 0.  0.
        -13    1    3    3    0    0  0.21895964761E+02  0.19874924801E+02  0.17121326591E+03  0.17374817505E+03  0.00000000000E+00 0.  1.
         14    1    3    3    0    0 -0.40843468179E+02 -0.30632171662E+02  0.15462590190E+03  0.16283638528E+03  0.00000000000E+00 0. -1.
        -11    1    4    4    0    0 -0.10485046008E+02  0.32110482919E+02 -0.11292466410E+02  0.35616556553E+02  0.00000000000E+00 0.  1.
         11    1    4    4    0    0 -0.73057781178E+01  0.57189605910E+02  0.12314633228E+03  0.13597442617E+03  0.00000000000E+00 0. -1.
          1    1    1    2  501    0  0.36738327544E+02 -0.78542841967E+02  0.67873325110E+02  0.11011571639E+03  0.00000000000E+00 0. -1.
<scales pt_clust_5="13000.00000" pt_clust_6="13000.00000" pt_clust_7="13000.00000" pt_clust_8="13000.00000" pt_clust_9="87.77308"></scales>
<clustering>
<clus scale="   81.506">  5  6 -1 -1</clus>
<clus scale="   84.368">  1  5  2 -1</clus>
<clus scale="   87.773">  2  9  1 -1</clus>
<clus scale="   92.958">  7  8 -1 -1</clus>
<clus scale="   87.773">  2  5  1 -1</clus>
</clustering>
</event>
<event>
 9    2  0.4883225E-005  0.9297375E+02  0.7546771E-02  0.1300937E+00
          2   -1    0    0  502    0 -0.00000000000E+00  0.00000000000E+00  0.40368028191E+03  0.40368028191E+03  0.00000000000E+00 0. -1.
         21   -1    0    0  501  502  0.00000000000E+00 -0.00000000000E+00 -0.19481405531E+03  0.19481405531E+03  0.00000000000E+00 0.  1.
         24    2    1    2    0    0 -0.19946769202E+01  0.21314660915E+02  0.37261362640E+03  0.38202358811E+03  0.81503458775E+02 0.  0.
         23    2    1    2    0    0  0.17548340976E+02 -0.51481883203E+02 -0.10565552992E+03  0.14919041682E+03  0.90201778810E+02 0.  0.
        -11    1    3    3    0    0  0.34194225123E+02 -0.66409222906E+01  0.10772476746E+03  0.11321648469E+03  0.00000000000E+00 0.  1.
         12    1    3    3    0    0 -0.36188902043E+02  0.27955583206E+02  0.26488885893E+03  0.26880710342E+03  0.00000000000E+00 0. -1.
        -11    1    4    4    0    0 -0.59040604447E+01 -0.20498257809E+02 -0.10816727393E+03  0.11025060387E+03  0.00000000000E+00 0.  1.
         11    1    4    4    0    0  0.23452401420E+02 -0.30983625394E+02  0.25117440168E+01  0.38939812954E+02  0.00000000000E+00 0. -1.
          1    1    1    2  501    0 -0.15553664056E+02  0.30167222287E+02 -0.58091869884E+02  0.67280332288E+02  0.00000000000E+00 0. -1.
<scales pt_clust_5="13000.00000" pt_clust_6="13000.00000" pt_clust_7="13000.00000" pt_clust_8="13000.00000" pt_clust_9="33.94080"></scales>
<clustering>
<clus scale="   33.941">  2  9  1 -1</clus>
<clus scale="   81.503">  5  6 -1 -1</clus>
<clus scale="   84.561">  1  5  2 -1</clus>
<clus scale="   90.202">  7  8 -1 -1</clus>
<clus scale="   33.941">  2  5  1 -1</clus>
</clustering>
</event>
<event>
 9    2  0.4883225E-005  0.1611540E+03  0.7546771E-02  0.1188807E+00
         21   -1    0    0  501  502  0.00000000000E+00  0.00000000000E+00  0.13118326905E+03  0.13118326905E+03  0.00000000000E+00 0.  1.
         -1   -1    0    0    0  501 -0.00000000000E+00 -0.00000000000E+00 -0.10471036851E+04  0.10471036851E+04  0.00000000000E+00 0.  1.
         24    2    1    2    0    0  0.77878291790E+02 -0.10110310352E+03 -0.67048947578E+03  0.68751616037E+03  0.82676887706E+02 0.  0.
         23    2    1    2    0    0 -0.19810317011E+01  0.22869484985E+03 -0.60673388607E+02  0.25375729056E+03  0.91685569149E+02 0.  0.
        -11    1    3    3    0    0  0.71968560574E+02 -0.11510661883E+03 -0.62433147224E+03  0.63892002210E+03  0.00000000000E+00 0.  1.
         12    1    3    3    0    0  0.59097312159E+01  0.14003515303E+02 -0.46158003538E+02  0.48596138267E+02  0.00000000000E+00 0. -1.
        -11    1    4    4    0    0  0.44267821631E+02  0.10161492613E+03 -0.33811272063E+02  0.11588112600E+03  0.00000000000E+00 0. -1.
         11    1    4    4    0    0 -0.46248853332E+02  0.12707992373E+03 -0.26862116544E+02  0.13787616456E+03  0.00000000000E+00 0.  1.
         -2    1    1    2    0  502 -0.75897260089E+02 -0.12759174633E+03 -0.18475755170E+03  0.23701350327E+03  0.00000000000E+00 0.  1.
<scales pt_clust_5="13000.00000" pt_clust_6="13000.00000" pt_clust_7="13000.00000" pt_clust_8="13000.00000" pt_clust_9="148.45898"></scales>
<clustering>
<clus scale="   82.677">  5  6 -1 -1</clus>
<clus scale="   91.686">  7  8 -1 -1</clus>
<clus scale="  148.459">  1  9  2 -1</clus>
<clus scale="  156.204">  2  5  1 -1</clus>
<clus scale="  148.459">  1  5  2 -1</clus>
</clustering>
</event>
<event>
 9    2  0.4883225E-005  0.9748017E+02  0.7546771E-02  0.1287454E+00
         21   -1    0    0  501  502  0.00000000000E+00  0.00000000000E+00  0.82597230780E+02  0.82597230780E+02  0.00000000000E+00 0.  1.
          2   -1    0    0  502    0 -0.00000000000E+00 -0.00000000000E+00 -0.26234953675E+03  0.26234953675E+03  0.00000000000E+00 0. -1.
         23    2    1    2    0    0  0.47506068623E+01  0.12836018626E+02 -0.70672684956E+02  0.12006961323E+03  0.96097616941E+02 0.  0.
         24    2    1    2    0    0  0.41651356769E+02  0.49071463448E+02 -0.36337938164E+02  0.11868378827E+03  0.92857696518E+02 0.  0.
        -11    1    4    4    0    0  0.14107755375E+02 -0.25081093450E+02  0.53478627139E+01  0.29269261111E+02  0.00000000000E+00 0.  1.
         12    1    4    4    0    0  0.27543601394E+02  0.74152556898E+02 -0.41685800878E+02  0.89414527159E+02  0.00000000000E+00 0. -1.
        -11    1    3    3    0    0  0.36196496404E+02  0.41079496361E+02 -0.37994938402E+02  0.66643279611E+02  0.00000000000E+00 0.  1.
         11    1    3    3    0    0 -0.31445889542E+02 -0.28243477735E+02 -0.32677746555E+02  0.53426333615E+02  0.00000000000E+00 0. -1.
          1    1    1    2  501    0 -0.46401963631E+02 -0.61907482074E+02 -0.72741682846E+02  0.10619336603E+03  0.00000000000E+00 0. -1.
<scales pt_clust_5="13000.00000" pt_clust_6="13000.00000" pt_clust_7="13000.00000" pt_clust_8="13000.00000" pt_clust_9="77.36721"></scales>
<clustering>
<clus scale="   77.367">  1  9  2 -1</clus>
<clus scale="   92.858">  5  6 -1 -1</clus>
<clus scale="   94.288">  1  5  2 -1</clus>
<clus scale="   96.098">  7  8 -1 -1</clus>
<clus scale="   77.367">  1  5  2 -1</clus>
</clustering>
</event>
<event>
 9    2  0.4883225E-005  0.1347901E+03  0.7546771E-02  0.1222061E+00
         21   -1    0    0  501  502  0.00000000000E+00  0.00000000000E+00  0.39623088055E+02  0.39623088055E+02  0.00000000000E+00 0. -1.
          2   -1    0    0  502    0 -0.00000000000E+00 -0.00000000000E+00 -0.79808176969E+03  0.79808176969E+03  0.00000000000E+00 0. -1.
         24    2    1    2    0    0 -0.89982834747E+02 -0.70740984543E+02 -0.43818247385E+03  0.46063676105E+03  0.84149556135E+02 0.  0.
         23    2    1    2    0    0  0.53572444146E+02  0.38522610423E+02 -0.96092978863E+02  0.14767354509E+03  0.90662103705E+02 0.  0.
        -13    1    3    3    0    0 -0.17191713354E+02 -0.42703255207E+02 -0.66638083778E+02  0.80992328173E+02  0.00000000000E+00 0.  1.
         14    1    3    3    0    0 -0.72791121393E+02 -0.28037729336E+02 -0.37154439007E+03  0.37964443288E+03  0.00000000000E+00 0. -1.
        -13    1    4    4    0    0  0.51485110330E+02  0.62290328000E+02 -0.48016016802E+02  0.94001805395E+02  0.00000000000E+00 0.  1.
         13    1    4    4    0    0  0.20873338160E+01 -0.23767717577E+02 -0.48076962061E+02  0.53671739699E+02  0.00000000000E+00 0. -1.
          1    1    1    2  501    0  0.36410390601E+02  0.32218374119E+02 -0.22418322892E+03  0.22939455160E+03  0.00000000000E+00 0. -1.
<scales pt_clust_5="13000.00000" pt_clust_6="13000.00000" pt_clust_7="13000.00000" pt_clust_8="13000.00000" pt_clust_9="48.61834"></scales>
<clustering>
<clus scale="   48.618">  1  9  2 -1</clus>
<clus scale="   84.150">  5  6 -1 -1</clus>
<clus scale="   90.662">  7  8 -1 -1</clus>
<clus scale="  130.499">  2  5  1 -1</clus>
<clus scale="   48.618">  1  5  2 -1</clus>
</clustering>
</event>
<event>
 9    2  0.4883225E-005  0.1205301E+03  0.7546771E-02  0.1257098E+00
         21   -1    0    0  501  502  0.00000000000E+00  0.00000000000E+00  0.94147963155E+02  0.94147963155E+02  0.00000000000E+00 0. -1.
          2   -1    0    0  502    0 -0.00000000000E+00 -0.00000000000E+00 -0.33685260718E+03  0.33685260718E+03  0.00000000000E+00 0. -1.
         23    2    1    2    0    0  0.92674741211E+00 -0.19387247076E+01  0.11465824334E+02  0.90261986059E+02  0.89504991399E+02 0.  0.
         24    2    1    2    0    0  0.91386319903E+02  0.10788977037E+01 -0.82566639919E+02  0.14587885105E+03  0.78171386513E+02 0.  0.
        -11    1    4    4    0    0  0.10945873177E+02 -0.29802196584E+02 -0.35766641195E+02  0.47825052882E+02  0.00000000000E+00 0.  1.
         12    1    4    4    0    0  0.80440446726E+02  0.30881094287E+02 -0.46799998724E+02  0.98053798164E+02  0.00000000000E+00 0. -1.
        -11    1    3    3    0    0  0.25265012643E+02 -0.37789637657E+02  0.11663141757E+02  0.46929803470E+02  0.00000000000E+00 0.  1.
         11    1    3    3    0    0 -0.24338265231E+02  0.35850912949E+02 -0.19731742291E+00  0.43332182589E+02  0.00000000000E+00 0. -1.
          1    1    1    2  501    0 -0.92313067315E+02  0.85982700392E+00 -0.17160382844E+03  0.19485973323E+03  0.00000000000E+00 0. -1.
<scales pt_clust_5="13000.00000" pt_clust_6="13000.00000" pt_clust_7="13000.00000" pt_clust_8="13000.00000" pt_clust_9="91.74285"></scales>
<clustering>
<clus scale="   78.171">  5  6 -1 -1</clus>
<clus scale="   89.505">  7  8 -1 -1</clus>
<clus scale="   89.531">  2  7  1 -1</clus>
<clus scale="   91.743">  1  9  2 -1</clus>
<clus scale="   91.743">  1  5  2 -1</clus>
</clustering>
</event>
<event>
 9    2  0.4883225E-005  0.1478418E+03  0.7546771E-02  0.1205580E+00
         21   -1    0    0  501  502  0.00000000000E+00  0.00000000000E+00  0.26229291098E+03  0.26229291098E+03  0.00000000000E+00 0. -1.
          2   -1    0    0  502    0 -0.00000000000E+00 -0.00000000000E+00 -0.16847338113E+03  0.16847338113E+03  0.00000000000E+00 0. -1.
         24    2    1    2    0    0  0.11797909873E+02 -0.11137940355E+03  0.10129647872E+02  0.13769431796E+03  0.79451577828E+02 0.  0.
         23    2    1    2    0    0 -0.51580198170E+02  0.11793184963E+03  0.14830560625E+03  0.21690927438E+03  0.92122974696E+02 0.  0.
        -11    1    3    3    0    0  0.29613765607E+02 -0.10722417606E+02  0.15957087780E+02  0.35306854903E+02  0.00000000000E+00 0.  1.
         12    1    3    3    0    0 -0.17815855734E+02 -0.10065698595E+03 -0.58274399077E+01  0.10238746306E+03  0.00000000000E+00 0. -1.
        -11    1    4    4    0    0 -0.40926645711E+02  0.16561339137E+01  0.30730709761E+02  0.51206538949E+02  0.00000000000E+00 0.  1.
         11    1    4    4    0    0 -0.10653552459E+02  0.11627571571E+03  0.11757489649E+03  0.16570273543E+03  0.00000000000E+00 0. -1.
          1    1    1    2  501    0  0.39782288297E+02 -0.65524460768E+01 -0.64615724279E+02  0.76162699768E+02  0.00000000000E+00 0. -1.
<scales pt_clust_5="13000.00000" pt_clust_6="13000.00000" pt_clust_7="13000.00000" pt_clust_8="13000.00000" pt_clust_9="40.31832"></scales>
<clustering>
<clus scale="   40.318">  1  9  2 -1</clus>
<clus scale="   79.452">  5  6 -1 -1</clus>
<clus scale="   92.123">  7  8 -1 -1</clus>
<clus scale="  140.296">  2  5  1 -1</clus>
<clus scale="   40.318">  1  5  2 -1</clus>
</clustering>
</event>
<event>
 9    2  0.4883225E-005  0.1308375E+03  0.7546771E-02  0.1231951E+00
          2   -1    0    0  502    0 -0.00000000000E+00  0.00000000000E+00  0.15975821107E+03  0.15975821107E+03  0.00000000000E+00 0. -1.
         21   -1    0    0  501  502  0.00000000000E+00 -0.00000000000E+00 -0.48593181676E+03  0.48593181676E+03  0.00000000000E+00 0. -1.
         24    2    1    2    0    0 -0.74578195408E+02  0.44785944915E+02  0.66970184119E+02  0.12941016140E+03  0.68514934296E+02 0.  0.
         23    2    1    2    0    0  0.15554033183E+03  0.25965794901E+02 -0.10850322619E+03  0.21200872635E+03  0.91146764213E+02 0.  0.
        -13    1    3    3    0    0 -0.42223757448E+00  0.20061725511E+02 -0.75233508958E+01  0.21430163875E+02  0.00000000000E+00 0.  1.
         14    1    3    3    0    0 -0.74155957834E+02  0.24724219404E+02  0.74493535015E+02  0.10797999753E+03  0.00000000000E+00 0. -1.
        -13    1    4    4    0    0  0.13861057588E+03 -0.95219708239E+01 -0.65064412261E+02  0.15341752643E+03  0.00000000000E+00 0.  1.
         13    1    4    4    0    0  0.16929755949E+02  0.35487765725E+02 -0.43438813928E+02  0.58591199921E+02  0.00000000000E+00 0. -1.
          1    1    1    2  501    0 -0.80962136420E+02 -0.70751739816E+02 -0.28464056362E+03  0.30427114007E+03  0.00000000000E+00 0. -1.
<scales pt_clust_5="13000.00000" pt_clust_6="13000.00000" pt_clust_7="13000.00000" pt_clust_8="13000.00000" pt_clust_9="107.52059"></scales>
<clustering>
<clus scale="   68.515">  5  6 -1 -1</clus>
<clus scale="   91.147">  7  8 -1 -1</clus>
<clus scale="  107.521">  2  9  1 -1</clus>
<clus scale="  116.211">  1  5  2 -1</clus>
<clus scale="  107.521">  2  5  1 -1</clus>
</clustering>
</event>
<event>
 9    2  0.4883225E-005  0.3428557E+03  0.7546771E-02  0.1086186E+00
          2   -1    0    0  502    0 -0.00000000000E+00  0.00000000000E+00  0.42565683380E+03  0.42565683380E+03  0.00000000000E+00 0. -1.
         21   -1    0    0  501  502  0.00000000000E+00 -0.00000000000E+00 -0.13638001554E+04  0.13638001554E+04  0.00000000000E+00 0. -1.
         24    2    1    2    0    0 -0.75624322037E+02 -0.16098057488E+03  0.29918333933E+03  0.35765594281E+03  0.82300178156E+02 0.  0.
         23    2    1    2    0    0  0.52638244034E+02 -0.21662190310E+03 -0.17872821995E+03  0.30763795750E+03  0.11402413187E+03 0.  0.
        -13    1    3    3    0    0 -0.69158255500E+02 -0.10019143794E+03  0.25390175094E+03  0.28157998450E+03  0.00000000000E+00 0.  1.
         14    1    3    3    0    0 -0.64660665367E+01 -0.60789136938E+02  0.45281588393E+02  0.76075958314E+02  0.00000000000E+00 0. -1.
        -11    1    4    4    0    0 -0.63015594428E+01 -0.16547147536E+03 -0.86500214504E+02  0.18682292664E+03  0.00000000000E+00 0. -1.
         11    1    4    4    0    0  0.58939803477E+02 -0.51150427734E+02 -0.92228005449E+02  0.12081503085E+03  0.00000000000E+00 0.  1.
          1    1    1    2  501    0  0.22986078003E+02  0.37760247797E+03 -0.10585984409E+04  0.11241630888E+04  0.00000000000E+00 0. -1.
<scales pt_clust_5="13000.00000" pt_clust_6="13000.00000" pt_clust_7="13000.00000" pt_clust_8="13000.00000" pt_clust_9="323.33960"></scales>
<clustering>
<clus scale="   82.300">  5  6 -1 -1</clus>
<clus scale="  114.024">  7  8 -1 -1</clus>
<clus scale="  195.977">  1  5  2 -1</clus>
<clus scale="  323.340">  2  9  1 -1</clus>
<clus scale="  323.340">  2  5  1 -1</clus>
</clustering>
</event>
<event>
 9    2  0.4883225E-005  0.1156864E+03  0.7546771E-02  0.1255755E+00
          2   -1    0    0  502    0 -0.00000000000E+00  0.00000000000E+00  0.51537655114E+03  0.51537655114E+03  0.00000000000E+00 0. -1.
         21   -1    0    0  501  502  0.00000000000E+00 -0.00000000000E+00 -0.10576735698E+03  0.10576735698E+03  0.00000000000E+00 0.  1.
         24    2    1    2    0    0 -0.10935263014E+02  0.70766910036E+02  0.46704789214E+03  0.47875549334E+03  0.77107414154E+02 0.  0.
         23    2    1    2    0    0  0.70798398787E+01 -0.43372264272E+02 -0.49708702612E+02  0.11366414399E+03  0.92289246785E+02 0.  0.
        -11    1    3    3    0    0  0.23915598413E+02  0.46141413599E+01  0.57626404812E+02  0.62562358328E+02  0.00000000000E+00 0.  1.
         12    1    3    3    0    0 -0.34850861426E+02  0.66152768676E+02  0.40942148733E+03  0.41619313501E+03  0.00000000000E+00 0. -1.
        -13    1    4    4    0    0 -0.12771342664E+02 -0.62277687771E+02 -0.56905413418E+02  0.85321999882E+02  0.00000000000E+00 0.  1.
         13    1    4    4    0    0  0.19851182543E+02  0.18905423499E+02  0.71967108063E+01  0.28342144105E+02  0.00000000000E+00 0. -1.
          1    1    1    2  501    0  0.38554231352E+01 -0.27394645764E+02 -0.77299953651E+01  0.28724270790E+02  0.00000000000E+00 0. -1.
<scales pt_clust_5="13000.00000" pt_clust_6="13000.00000" pt_clust_7="13000.00000" pt_clust_8="13000.00000" pt_clust_9="27.66461"></scales>
<clustering>
<clus scale="   27.665">  2  9  1 -1</clus>
<clus scale="   77.107">  5  6 -1 -1</clus>
<clus scale="   92.289">  7  8 -1 -1</clus>
<clus scale="  103.979">  1  5  2 -1</clus>
<clus scale="   27.665">  2  5  1 -1</clus>
</clustering>
</event>
<event>
 9    2  0.4883225E-005  0.1362223E+03  0.7546771E-02  0.1232177E+00
         -1   -1    0    0    0  501 -0.00000000000E+00  0.00000000000E+00  0.21426859999E+03  0.21426859999E+03  0.00000000000E+00 0.  1.
         21   -1    0    0  501  502  0.00000000000E+00 -0.00000000000E+00 -0.19600653261E+03  0.19600653261E+03  0.00000000000E+00 0. -1.
         24    2    1    2    0    0  0.29219477281E+02 -0.58605456417E+02  0.80480535463E+02  0.13031088666E+03  0.78838018876E+02 0.  0.
         23    2    1    2    0    0 -0.10646469859E+03 -0.23871726982E+02 -0.87765217777E+02  0.16411112161E+03  0.85587004792E+02 0.  0.
        -11    1    3    3    0    0 -0.25999542072E+02 -0.15429619836E+02  0.37177558622E+02  0.47918892113E+02  0.00000000000E+00 0.  1.
         12    1    3    3    0    0  0.55219019353E+02 -0.43175836581E+02  0.43302976841E+02  0.82391994551E+02  0.00000000000E+00 0. -1.
        -13    1    4    4    0    0 -0.28009291972E+01  0.24157696666E+02 -0.17840598841E+02  0.30161672360E+02  0.00000000000E+00 0.  1.
         13    1    4    4    0    0 -0.10366376939E+03 -0.48029423648E+02 -0.69924618935E+02  0.13394944925E+03  0.00000000000E+00 0. -1.
         -2    1    1    2    0  502  0.77245221308E+02  0.82477183400E+02  0.25546749690E+02  0.11585312433E+03  0.00000000000E+00 0.  1.
<scales pt_clust_5="13000.00000" pt_clust_6="13000.00000" pt_clust_7="13000.00000" pt_clust_8="13000.00000" pt_clust_9="105.97825"></scales>
<clustering>
<clus scale="   78.838">  5  6 -1 -1</clus>
<clus scale="   85.587">  7  8 -1 -1</clus>
<clus scale="  102.488">  1  5  2 -1</clus>
<clus scale="  105.978">  2  9  1 -1</clus>
<clus scale="  105.978">  2  5  1 -1</clus>
</clustering>
</event>
<event>
 9    2  0.4883225E-005  0.1624150E+03  0.7546771E-02  0.1188129E+00
         21   -1    0    0  501  502  0.00000000000E+00  0.00000000000E+00  0.79123076030E+02  0.79123076030E+02  0.00000000000E+00 0. -1.
          2   -1    0    0  502    0 -0.00000000000E+00 -0.00000000000E+00 -0.51602381548E+03  0.51602381548E+03  0.00000000000E+00 0. -1.
         23    2    1    2    0    0 -0.57928418823E+02  0.12319749119E+03 -0.19644657952E+03  0.25579297245E+03  0.91134310811E+02 0.  0.
         24    2    1    2    0    0 -0.95378027201E+01 -0.14203166481E+03 -0.12568113430E+03  0.20489476334E+03  0.76955526346E+02 0.  0.
        -13    1    4    4    0    0  0.28256217032E+02 -0.25862879970E+02 -0.19238762142E+02  0.42865281173E+02  0.00000000000E+00 0.  1.
         14    1    4    4    0    0 -0.37794019752E+02 -0.11616878484E+03 -0.10644237216E+03  0.16202948216E+03  0.00000000000E+00 0. -1.
        -11    1    3    3    0    0 -0.34042697314E+02  0.12383858467E+03 -0.12025916352E+03  0.17594648818E+03  0.00000000000E+00 0.  1.
         11    1    3    3    0    0 -0.23885721509E+02 -0.64109348115E+00 -0.76187416001E+02  0.79846484267E+02  0.00000000000E+00 0. -1.
          1    1    1    2  501    0  0.67466221543E+02  0.18834173618E+02 -0.11477302563E+03  0.13445915572E+03  0.00000000000E+00 0. -1.
<scales pt_clust_5="13000.00000" pt_clust_6="13000.00000" pt_clust_7="13000.00000" pt_clust_8="13000.00000" pt_clust_9="70.04586"></scales>
<clustering>
<clus scale="   70.046">  1  9  2 -1</clus>
<clus scale="   76.956">  5  6 -1 -1</clus>
<clus scale="   91.134">  7  8 -1 -1</clus>
<clus scale="  154.904">  1  5  2 -1</clus>
<clus scale="   70.046">  1  5  2 -1</clus>
</clustering>
</event>
<event>
 9    2  0.4883225E-005  0.9005241E+02  0.7546771E-02  0.1311413E+00
         21   -1    0    0  501  502  0.00000000000E+00  0.00000000000E+00  0.86948758780E+02  0.86948758780E+02  0.00000000000E+00 0. -1.
          2   -1    0    0  502    0 -0.00000000000E+00 -0.00000000000E+00 -0.15232816520E+03  0.15232816520E+03  0.00000000000E+00 0. -1.
         23    2    1    2    0    0 -0.14699014781E+02 -0.11731189389E+02 -0.50786868317E+02  0.10501987144E+03  0.89978806188E+02 0.  0.
         24    2    1    2    0    0 -0.22035808561E+02 -0.21279167483E+02 -0.18537336229E+02  0.84712200747E+02  0.76773330611E+02 0.  0.
        -11    1    4    4    0    0  0.11978158179E+02 -0.41369407392E+02 -0.77329228983E+01  0.43757310679E+02  0.00000000000E+00 0.  1.
         12    1    4    4    0    0 -0.34013966740E+02  0.20090239909E+02 -0.10804413330E+02  0.40954890067E+02  0.00000000000E+00 0. -1.
        -13    1    3    3    0    0 -0.73691983175E+01  0.25658199658E+02  0.13785410150E+02  0.30044730429E+02  0.00000000000E+00 0. -1.
         13    1    3    3    0    0 -0.73298164638E+01 -0.37389389046E+02 -0.64572278467E+02  0.74975141008E+02  0.00000000000E+00 0.  1.
          1    1    1    2  501    0  0.36734823342E+02  0.33010356872E+02  0.39447981304E+01  0.49544851792E+02  0.00000000000E+00 0. -1.
<scales pt_clust_5="13000.00000" pt_clust_6="13000.00000" pt_clust_7="13000.00000" pt_clust_8="13000.00000" pt_clust_9="49.38756"></scales>
<clustering>
<clus scale="   49.388">  1  9  2 -1</clus>
<clus scale="   76.773">  5  6 -1 -1</clus>
<clus scale="   76.860">  1  5  2 -1</clus>
<clus scale="   89.979">  7  8 -1 -1</clus>
<clus scale="   49.388">  1  5  2 -1</clus>
</clustering>
</event>
<event>
 9    2  0.4883225E-005  0.1025443E+03  0.7546771E-02  0.1280748E+00
          2   -1    0    0  502    0 -0.00000000000E+00  0.00000000000E+00  0.61406400794E+03  0.61406400794E+03  0.00000000000E+00 0. -1.
         21   -1    0    0  501  502  0.00000000000E+00 -0.00000000000E+00 -0.54514147129E+02  0.54514147129E+02  0.00000000000E+00 0. -1.
         23    2    1    2    0    0  0.61203739207E+02 -0.41844424747E+02  0.10153367849E+03  0.15533470344E+03  0.91230086319E+02 0.  0.
         24    2    1    2    0    0 -0.27234619297E+02 -0.71859007807E+01  0.43750709330E+02  0.94705811696E+02  0.79130932914E+02 0.  0.
        -11    1    4    4    0    0  0.26043766218E+02  0.99466656560E+01  0.17244969303E+02  0.32781136080E+02  0.00000000000E+00 0.  1.
         12    1    4    4    0    0 -0.53278385515E+02 -0.17132566437E+02  0.26505740027E+02  0.61924675616E+02  0.00000000000E+00 0. -1.
        -11    1    3    3    0    0  0.35727476893E+02 -0.49861005766E+02  0.11114680501E+03  0.12694953629E+03  0.00000000000E+00 0. -1.
         11    1    3    3    0    0  0.25476262314E+02  0.80165810191E+01 -0.96131265156E+01  0.28385167150E+02  0.00000000000E+00 0.  1.
          1    1    1    2  501    0 -0.33969119910E+02  0.49030325528E+02  0.41426547299E+03  0.41853763993E+03  0.00000000000E+00 0. -1.
<scales pt_clust_5="13000.00000" pt_clust_6="13000.00000" pt_clust_7="13000.00000" pt_clust_8="13000.00000" pt_clust_9="59.64795"></scales>
<clustering>
<clus scale="   59.648">  2  9  1 -1</clus>
<clus scale="   79.131">  5  6 -1 -1</clus>
<clus scale="   91.230">  7  8 -1 -1</clus>
<clus scale="   91.946">  2  5  1 -1</clus>
<clus scale="   59.648">  2  5  1 -1</clus>
</clustering>
</event>
<event>
 9    2  0.4883225E-005  0.1226828E+03  0.7546771E-02  0.1241995E+00
         21   -1    0    0  501  502  0.00000000000E+00  0.00000000000E+00  0.38633229355E+02  0.38633229355E+02  0.00000000000E+00 0.  1.
          2   -1    0    0  502    0 -0.00000000000E+00 -0.00000000000E+00 -0.47762878073E+03  0.47762878073E+03  0.00000000000E+00 0. -1.
         23    2    1    2    0    0 -0.24880627221E+02  0.75105220680E+02 -0.25730419641E+03  0.28439860750E+03  0.91745728368E+02 0.  0.
         24    2    1    2    0    0  0.48965113943E+02 -0.71592529956E+02 -0.16052501324E+03  0.19960792989E+03  0.80944259028E+02 0.  0.
        -13    1    4    4    0    0  0.44879879364E+02 -0.14019483090E+02 -0.27184539810E+02  0.54311588841E+02  0.00000000000E+00 0.  1.
         14    1    4    4    0    0  0.40852345789E+01 -0.57573046866E+02 -0.13334047343E+03  0.14529634104E+03  0.00000000000E+00 0. -1.
        -13    1    3    3    0    0  0.27207951502E+02  0.11680904277E+02 -0.12696658648E+03  0.13037342609E+03  0.00000000000E+00 0.  1.
         13    1    3    3    0    0 -0.52088578723E+02  0.63424316403E+02 -0.13033760994E+03  0.15402518141E+03  0.00000000000E+00 0. -1.
          1    1    1    2  501    0 -0.24084486721E+02 -0.35126907246E+01 -0.21166341723E+02  0.32255472694E+02  0.00000000000E+00 0. -1.
<scales pt_clust_5="13000.00000" pt_clust_6="13000.00000" pt_clust_7="13000.00000" pt_clust_8="13000.00000" pt_clust_9="24.33930"></scales>
<clustering>
<clus scale="   24.339">  1  9  2 -1</clus>
<clus scale="   80.944">  5  6 -1 -1</clus>
<clus scale="   91.746">  7  8 -1 -1</clus>
<clus scale="  114.829">  1  5  2 -1</clus>
<clus scale="   24.339">  1  5  2 -1</clus>
</clustering>
</event>
<event>
 9    2  0.4883225E-005  0.3227861E+03  0.7546771E-02  0.1074760E+00
         21   -1    0    0  501  502  0.00000000000E+00  0.00000000000E+00  0.37042465282E+03  0.37042465282E+03  0.00000000000E+00 0. -1.
          2   -1    0    0  502    0 -0.00000000000E+00 -0.00000000000E+00 -0.45439723225E+03  0.45439723225E+03  0.00000000000E+00 0. -1.
         23    2    1    2    0    0  0.34236249548E+03  0.76663110409E+02 -0.11117539672E+03  0.37957446988E+03  0.92884328784E+02 0.  0.
         24    2    1    2    0    0 -0.22672676079E+03 -0.98331567442E+02  0.12857654878E+03  0.28994841775E+03  0.80399221672E+02 0.  0.
        -11    1    4    4    0    0 -0.21493708721E+02 -0.41144763955E+02  0.29371575055E+02  0.54932326882E+02  0.00000000000E+00 0.  1.
         12    1    4    4    0    0 -0.20523305207E+03 -0.57186803487E+02  0.99204973728E+02  0.23501609087E+03  0.00000000000E+00 0. -1.
        -11    1    3    3    0    0  0.18719018020E+03  0.44592415201E+02 -0.12337166867E+02  0.19282337188E+03  0.00000000000E+00 0.  1.
         11    1    3    3    0    0  0.15517231528E+03  0.32070695207E+02 -0.98838229855E+02  0.18675109799E+03  0.00000000000E+00 0. -1.
          1    1    1    2  501    0 -0.11563573469E+03  0.21668457034E+02 -0.10137373149E+03  0.15529899743E+03  0.00000000000E+00 0. -1.
<scales pt_clust_5="13000.00000" pt_clust_6="13000.00000" pt_clust_7="13000.00000" pt_clust_8="13000.00000" pt_clust_9="117.64846"></scales>
<clustering>
<clus scale="   80.399">  5  6 -1 -1</clus>
<clus scale="   92.884">  7  8 -1 -1</clus>
<clus scale="  117.648">  1  9  2 -1</clus>
<clus scale="  319.417">  1  5  2 -1</clus>
<clus scale="  117.648">  1  5  2 -1</clus>
</clustering>
</event>
<event>
 9    2  0.4883225E-005  0.9310469E+02  0.7546771E-02  0.1302843E+00
         21   -1    0    0  501  502  0.00000000000E+00  0.00000000000E+00  0.13753250573E+03  0.13753250573E+03  0.00000000000E+00 0. -1.
         -3   -1    0    0    0  501 -0.00000000000E+00 -0.00000000000E+00 -0.10360205852E+03  0.10360205852E+03  0.00000000000E+00 0.  1.
         24    2    1    2    0    0 -0.22682620266E+02  0.98213688733E+01 -0.63132162662E+01  0.84187277451E+02  0.80228925185E+02 0.  0.
         23    2    1    2    0    0 -0.25513487489E+02 -0.14602505346E+02  0.47840397739E+02  0.10792245187E+03  0.92164964900E+02 0.  0.
        -11    1    3    3    0    0 -0.40550450784E+02  0.34653525301E+02 -0.31880192888E+01  0.53435656088E+02  0.00000000000E+00 0.  1.
         12    1    3    3    0    0  0.17867830518E+02 -0.24832156428E+02 -0.31251969774E+01  0.30751621363E+02  0.00000000000E+00 0. -1.
        -11    1    4    4    0    0 -0.13335582717E+02 -0.53066290296E+02  0.37307178729E+02  0.66224576382E+02  0.00000000000E+00 0. -1.
         11    1    4    4    0    0 -0.12177904772E+02  0.38463784950E+02  0.10533219011E+02  0.41697875486E+02  0.00000000000E+00 0.  1.
         -4    1    1    2    0  502  0.48196107756E+02  0.47811364727E+01 -0.75967342558E+01  0.49024834932E+02  0.00000000000E+00 0.  1.
<scales pt_clust_5="13000.00000" pt_clust_6="13000.00000" pt_clust_7="13000.00000" pt_clust_8="13000.00000" pt_clust_9="48.43270"></scales>
<clustering>
<clus scale="   48.433">  1  9  2 -1</clus>
<clus scale="   80.229">  5  6 -1 -1</clus>
<clus scale="   81.307">  2  5  1 -1</clus>
<clus scale="   92.165">  7  8 -1 -1</clus>
<clus scale="   48.433">  1  5  2 -1</clus>
</clustering>
</event>
<event>
 9    2  0.4883225E-005  0.1297995E+03  0.7546771E-02  0.1230612E+00
         21   -1    0    0  501  502  0.00000000000E+00  0.00000000000E+00  0.25298741663E+03  0.25298741663E+03  0.00000000000E+00 0.  1.
          2   -1    0    0  502    0 -0.00000000000E+00 -0.00000000000E+00 -0.16534657108E+03  0.16534657108E+03  0.00000000000E+00 0. -1.
         24    2    1    2    0    0  0.35886821595E+02  0.82271235901E+02 -0.88276778237E+02  0.14973004920E+03  0.81054782943E+02 0.  0.
         23    2    1    2    0    0 -0.59490845270E+02 -0.80190226395E+02  0.56744620720E+02  0.14709803250E+03  0.91914341124E+02 0.  0.
        -11    1    3    3    0    0  0.43776556124E+02  0.67560240484E+02 -0.25010989707E+02  0.84299006913E+02  0.00000000000E+00 0.  1.
         12    1    3    3    0    0 -0.78897345285E+01  0.14710995417E+02 -0.63265788530E+02  0.65431042292E+02  0.00000000000E+00 0. -1.
        -11    1    4    4    0    0 -0.81709893741E+02 -0.44286898574E+02  0.45068485523E+02  0.10329087330E+03  0.00000000000E+00 0.  1.
         11    1    4    4    0    0  0.22219048472E+02 -0.35903327821E+02  0.11676135197E+02  0.43807159195E+02  0.00000000000E+00 0. -1.
          1    1    1    2  501    0  0.23604023674E+02 -0.20810095064E+01  0.11917300307E+03  0.12150590601E+03  0.00000000000E+00 0. -1.
<scales pt_clust_5="13000.00000" pt_clust_6="13000.00000" pt_clust_7="13000.00000" pt_clust_8="13000.00000" pt_clust_9="23.69558"></scales>
<clustering>
<clus scale="   23.696">  1  9  2 -1</clus>
<clus scale="   81.055">  5  6 -1 -1</clus>
<clus scale="   91.914">  7  8 -1 -1</clus>
<clus scale="  122.350">  2  5  1 -1</clus>
<clus scale="   23.696">  1  5  2 -1</clus>
</clustering>
</event>
<event>
 9    2  0.4883225E-005  0.5350683E+03  0.7546771E-02  0.1039847E+00
         21   -1    0    0  501  502  0.00000000000E+00  0.00000000000E+00  0.58120516603E+03  0.58120516603E+03  0.00000000000E+00 0. -1.
          2   -1    0    0  502    0 -0.00000000000E+00 -0.00000000000E+00 -0.11688676962E+04  0.11688676962E+04  0.00000000000E+00 0. -1.
         24    2    1    2    0    0  0.91820909322E+02 -0.14214806392E+03 -0.12494275368E+03  0.22514493785E+03  0.80264561779E+02 0.  0.
         23    2    1    2    0    0  0.37354420217E+03 -0.15475447378E+03 -0.78370303607E+03  0.88637796014E+03  0.89393631511E+02 0.  0.
        -13    1    3    3    0    0  0.10270949558E+02 -0.78033619825E+02 -0.79571490935E+02  0.11192122407E+03  0.00000000000E+00 0.  1.
         14    1    3    3    0    0  0.81549959765E+02 -0.64114444094E+02 -0.45371262749E+02  0.11322371378E+03  0.00000000000E+00 0. -1.
        -11    1    4    4    0    0  0.35752346444E+03 -0.14182486809E+03 -0.77246042514E+03  0.86292087079E+03  0.00000000000E+00 0. -1.
         11    1    4    4    0    0  0.16020737724E+02 -0.12929605687E+02 -0.11242610931E+02  0.23457089355E+02  0.00000000000E+00 0.  1.
          1    1    1    2  501    0 -0.46536511149E+03  0.29690253770E+03  0.32098325959E+03  0.63854996423E+03  0.00000000000E+00 0. -1.
<scales pt_clust_5="13000.00000" pt_clust_6="13000.00000" pt_clust_7="13000.00000" pt_clust_8="13000.00000" pt_clust_9="527.54797"></scales>
<clustering>
<clus scale="   80.265">  5  6 -1 -1</clus>
<clus scale="   89.394">  7  8 -1 -1</clus>
<clus scale="  187.295">  2  5  1 -1</clus>
<clus scale="  527.548">  1  9  2 -1</clus>
<clus scale="  527.548">  1  5  2 -1</clus>
</clustering>
</event>
<event>
 9    2  0.4883225E-005  0.2156069E+03  0.7546771E-02  0.1156795E+00
         21   -1    0    0  501  502  0.00000000000E+00  0.00000000000E+00  0.11199742871E+03  0.11199742871E+03  0.00000000000E+00 0. -1.
          2   -1    0    0  502    0 -0.00000000000E+00 -0.00000000000E+00 -0.87731552565E+03  0.87731552565E+03  0.00000000000E+00 0. -1.
         24    2    1    2    0    0 -0.12715398076E+02  0.10823541244E+03 -0.41840637858E+03  0.43970457000E+03  0.79997658635E+02 0.  0.
         23    2    1    2    0    0 -0.18026562319E+03 -0.11666090364E+03 -0.19494774968E+03  0.30383265071E+03  0.90577001458E+02 0.  0.
        -11    1    3    3    0    0 -0.10530526673E+02  0.18021630700E+02 -0.13485574716E+02  0.24850188943E+02  0.00000000000E+00 0.  1.
         12    1    3    3    0    0 -0.21848714029E+01  0.90213781737E+02 -0.40492080386E+03  0.41485438105E+03  0.00000000000E+00 0. -1.
        -11    1    4    4    0    0 -0.35375070519E+02  0.77006012114E+01 -0.89953178912E+01  0.37304297570E+02  0.00000000000E+00 0.  1.
         11    1    4    4    0    0 -0.14489055267E+03 -0.12436150485E+03 -0.18595243179E+03  0.26652835314E+03  0.00000000000E+00 0. -1.
          1    1    1    2  501    0  0.19298102127E+03  0.84254912005E+01 -0.15196396869E+03  0.24577573365E+03  0.00000000000E+00 0. -1.
<scales pt_clust_5="13000.00000" pt_clust_6="13000.00000" pt_clust_7="13000.00000" pt_clust_8="13000.00000" pt_clust_9="195.65823"></scales>
<clustering>
<clus scale="   79.998">  5  6 -1 -1</clus>
<clus scale="   90.577">  7  8 -1 -1</clus>
<clus scale="  135.190">  2  5  1 -1</clus>
<clus scale="  195.658">  1  9  2 -1</clus>
<clus scale="  195.658">  1  5  2 -1</clus>
</clustering>
</event>
<event>
 9    2  0.4883225E-005  0.1016996E+03  0.7546771E-02  0.1281439E+00
         21   -1    0    0  501  502  0.00000000000E+00  0.00000000000E+00  0.25330276152E+02  0.25330276152E+02  0.00000000000E+00 0. -1.
          2   -1    0    0  502    0 -0.00000000000E+00 -0.00000000000E+00 -0.83072373298E+03  0.83072373298E+03  0.00000000000E+00 0. -1.
         23    2    1    2    0    0  0.81131131502E+02  0.75944338289E+01 -0.36685327408E+03  0.38657059096E+03  0.90639732816E+02 0.  0.
         24    2    1    2    0    0 -0.73390262088E+01  0.30177796000E+01 -0.14054457522E+03  0.16230386810E+03  0.80788611066E+02 0.  0.
        -13    1    4    4    0    0  0.36396187397E+02 -0.42539864468E+01 -0.69266532481E+02  0.78362180799E+02  0.00000000000E+00 0.  1.
         14    1    4    4    0    0 -0.43735213606E+02  0.72717660469E+01 -0.71278042738E+02  0.83941687302E+02  0.00000000000E+00 0. -1.
        -13    1    3    3    0    0  0.61077563059E+01  0.21658754092E+02 -0.16257132373E+02  0.27761496157E+02  0.00000000000E+00 0.  1.
         13    1    3    3    0    0  0.75023375196E+02 -0.14064320263E+02 -0.35059614171E+03  0.35880909480E+03  0.00000000000E+00 0. -1.
          1    1    1    2  501    0 -0.73792105293E+02 -0.10612213429E+02 -0.29799560752E+03  0.30717955007E+03  0.00000000000E+00 0. -1.
<scales pt_clust_5="13000.00000" pt_clust_6="13000.00000" pt_clust_7="13000.00000" pt_clust_8="13000.00000" pt_clust_9="74.55132"></scales>
<clustering>
<clus scale="   74.551">  1  9  2 -1</clus>
<clus scale="   80.789">  5  6 -1 -1</clus>
<clus scale="   90.640">  7  8 -1 -1</clus>
<clus scale="   93.027">  1  5  2 -1</clus>
<clus scale="   74.551">  1  5  2 -1</clus>
</clustering>
</event>
<event>
 9    2  0.4883225E-005  0.1114651E+03  0.7546771E-02  0.1260847E+00
         21   -1    0    0  501  502  0.00000000000E+00  0.00000000000E+00  0.50355259514E+02  0.50355259514E+02  0.00000000000E+00 0.  1.
          2   -1    0    0  502    0 -0.00000000000E+00 -0.00000000000E+00 -0.77016276802E+03  0.77016276802E+03  0.00000000000E+00 0. -1.
         24    2    1    2    0    0 -0.38639424226E+02 -0.53567043507E+02 -0.67761268381E+03  0.68583784502E+03  0.82777817971E+02 0.  0.
         23    2    1    2    0    0  0.17345244011E+02  0.52796145260E+02 -0.31970605076E+02  0.11104607449E+03  0.90668741180E+02 0.  0.
        -13    1    3    3    0    0 -0.38670215462E+02  0.86097258486E+01 -0.17704566935E+03  0.18142403914E+03  0.00000000000E+00 0.  1.
         14    1    3    3    0    0  0.30791236011E-01 -0.62176769356E+02 -0.50056701446E+03  0.50441380587E+03  0.00000000000E+00 0. -1.
        -13    1    4    4    0    0  0.11812875358E+02  0.17580104514E+02 -0.61317384044E+02  0.64872379985E+02  0.00000000000E+00 0. -1.
         13    1    4    4    0    0  0.55323686537E+01  0.35216040746E+02  0.29346778968E+02  0.46173694508E+02  0.00000000000E+00 0.  1.
          1    1    1    2  501    0  0.21294180215E+02  0.77089824722E+00 -0.10224219621E+02  0.23634108022E+02  0.00000000000E+00 0. -1.
<scales pt_clust_5="13000.00000" pt_clust_6="13000.00000" pt_clust_7="13000.00000" pt_clust_8="13000.00000" pt_clust_9="21.30813"></scales>
<clustering>
<clus scale="   21.308">  1  9  2 -1</clus>
<clus scale="   82.778">  5  6 -1 -1</clus>
<clus scale="   90.669">  7  8 -1 -1</clus>
<clus scale="  105.147">  2  5  1 -1</clus>
<clus scale="   21.308">  1  5  2 -1</clus>
</clustering>
</event>
<event>
 9    2  0.4883225E-005  0.2252609E+03  0.7546771E-02  0.1130585E+00
          4   -1    0    0  502    0 -0.00000000000E+00  0.00000000000E+00  0.17053069841E+04  0.17053069841E+04  0.00000000000E+00 0. -1.
         21   -1    0    0  501  502  0.00000000000E+00 -0.00000000000E+00 -0.45729084716E+02  0.45729084716E+02  0.00000000000E+00 0. -1.
         24    2    1    2    0    0 -0.10224787542E+03  0.18518090395E+03  0.11986129933E+04  0.12201376247E+04  0.85534321742E+02 0.  0.
         23    2    1    2    0    0  0.68496718724E+02 -0.17319725389E+03  0.29513241409E+03  0.36124242791E+03  0.93294483465E+02 0.  0.
        -11    1    3    3    0    0 -0.79113732085E+01  0.43407778431E+02  0.11405774124E+03  0.12229469895E+03  0.00000000000E+00 0.  1.
         12    1    3    3    0    0 -0.94336502207E+02  0.14177312552E+03  0.10845552521E+04  0.10978429257E+04  0.00000000000E+00 0. -1.
        -13    1    4    4    0    0  0.25198293513E+02 -0.55500010166E+02  0.29976120911E+02  0.67924759472E+02  0.00000000000E+00 0. -1.
         13    1    4    4    0    0  0.43298425211E+02 -0.11769724372E+03  0.26515629318E+03  0.29331766844E+03  0.00000000000E+00 0.  1.
          3    1    1    2  501    0  0.33751156691E+02 -0.11983650058E+02  0.16583249195E+03  0.16965601620E+03  0.00000000000E+00 0. -1.
<scales pt_clust_5="13000.00000" pt_clust_6="13000.00000" pt_clust_7="13000.00000" pt_clust_8="13000.00000" pt_clust_9="35.81550"></scales>
<clustering>
<clus scale="   35.815">  2  9  1 -1</clus>
<clus scale="   85.534">  5  6 -1 -1</clus>
<clus scale="   93.294">  7  8 -1 -1</clus>
<clus scale="  222.159">  1  5  2 -1</clus>
<clus scale="   35.815">  2  5  1 -1</clus>
</clustering>
</event>
<event>
 9    2  0.4883225E-005  0.1774868E+03  0.7546771E-02  0.1171509E+00
         21   -1    0    0  501  502  0.00000000000E+00  0.00000000000E+00  0.18057849790E+03  0.18057849790E+03  0.00000000000E+00 0.  1.
         -1   -1    0    0    0  501 -0.00000000000E+00 -0.00000000000E+00 -0.34463934339E+03  0.34463934339E+03  0.00000000000E+00 0.  1.
         23    2    1    2    0    0 -0.30763527002E+02  0.14883299167E+03 -0.20365219124E+03  0.26995539696E+03  0.91126545780E+02 0.  0.
         24    2    1    2    0    0  0.94524596327E+02 -0.13321870281E+03  0.81888066250E+01  0.18249294907E+03  0.80959853106E+02 0.  0.
        -13    1    4    4    0    0  0.96787157827E+01 -0.67159878065E+02 -0.21077299321E+02  0.71051947951E+02  0.00000000000E+00 0.  1.
         14    1    4    4    0    0  0.84845880544E+02 -0.66058824748E+02  0.29266105946E+02  0.11144100112E+03  0.00000000000E+00 0. -1.
        -13    1    3    3    0    0 -0.37720240822E+02  0.14583859028E+02 -0.30016933468E+02  0.50363893879E+02  0.00000000000E+00 0.  1.
         13    1    3    3    0    0  0.69567138196E+01  0.13424913264E+03 -0.17363525777E+03  0.21959150308E+03  0.00000000000E+00 0. -1.
         -2    1    1    2    0  502 -0.63761069325E+02 -0.15614288855E+02  0.31402539122E+02  0.72769495266E+02  0.00000000000E+00 0.  1.
<scales pt_clust_5="13000.00000" pt_clust_6="13000.00000" pt_clust_7="13000.00000" pt_clust_8="13000.00000" pt_clust_9="65.64511"></scales>
<clustering>
<clus scale="   65.645">  1  9  2 -1</clus>
<clus scale="   80.960">  5  6 -1 -1</clus>
<clus scale="   91.127">  7  8 -1 -1</clus>
<clus scale="  172.488">  1  5  2 -1</clus>
<clus scale="   65.645">  1  5  2 -1</clus>
</clustering>
</event>
<event>
 9    2  0.4883225E-005  0.1128021E+03  0.7546771E-02  0.1258647E+00
          2   -1    0    0  502    0 -0.00000000000E+00  0.00000000000E+00  0.74635565657E+03  0.74635565657E+03  0.00000000000E+00 0. -1.
         21   -1    0    0  501  502  0.00000000000E+00 -0.00000000000E+00 -0.27388714166E+02  0.27388714166E+02  0.00000000000E+00 0.  1.
         24    2    1    2    0    0 -0.33924390880E+02 -0.23226548541E+02  0.19348541402E+03  0.21421588088E+03  0.82228348689E+02 0.  0.
         23    2    1    2    0    0  0.65073127643E+02  0.72889947161E+02  0.35581841701E+03  0.38002286787E+03  0.90902023529E+02 0.  0.
        -13    1    3    3    0    0  0.70205358764E+00  0.24828016676E+02  0.10384842259E+03  0.10677742349E+03  0.00000000000E+00 0.  1.
         14    1    3    3    0    0 -0.34626444468E+02 -0.48054565217E+02  0.89636991426E+02  0.10743845739E+03  0.00000000000E+00 0. -1.
        -13    1    4    4    0    0  0.83852571690E+02  0.47912712354E+02  0.21369742443E+03  0.23450686769E+03  0.00000000000E+00 0.  1.
         13    1    4    4    0    0 -0.18779444047E+02  0.24977234807E+02  0.14212099257E+03  0.14551600018E+03  0.00000000000E+00 0. -1.
          1    1    1    2  501    0 -0.31148736763E+02 -0.49663398620E+02  0.16966311137E+03  0.17950562199E+03  0.00000000000E+00 0. -1.
<scales pt_clust_5="13000.00000" pt_clust_6="13000.00000" pt_clust_7="13000.00000" pt_clust_8="13000.00000" pt_clust_9="58.62338"></scales>
<clustering>
<clus scale="   58.623">  2  9  1 -1</clus>
<clus scale="   82.228">  5  6 -1 -1</clus>
<clus scale="   90.902">  7  8 -1 -1</clus>
<clus scale="  105.937">  1  5  2 -1</clus>
<clus scale="   58.623">  2  5  1 -1</clus>
</clustering>
</event>
<event>
 9    2  0.4883225E-005  0.2763926E+03  0.7546771E-02  0.1098058E+00
          2   -1    0    0  502    0 -0.00000000000E+00  0.00000000000E+00  0.24154474169E+03  0.24154474169E+03  0.00000000000E+00 0. -1.
         21   -1    0    0  501  502  0.00000000000E+00 -0.00000000000E+00 -0.35712896937E+03  0.35712896937E+03  0.00000000000E+00 0. -1.
         24    2    1    2    0    0 -0.68688756069E+02 -0.25188184406E+03  0.12294652009E+02  0.27323143827E+03  0.79634488835E+02 0.  0.
         23    2    1    2    0    0  0.48719305411E+02  0.25896356470E+03 -0.11687827881E+03  0.30156879490E+03  0.88586158290E+02 0.  0.
        -13    1    3    3    0    0 -0.20422169509E+02 -0.15546739285E+03  0.40167089954E+02  0.16186590240E+03  0.00000000000E+00 0.  1.
         14    1    3    3    0    0 -0.48266586560E+02 -0.96414451218E+02 -0.27872437945E+02  0.11136553587E+03  0.00000000000E+00 0. -1.
        -11    1    4    4    0    0  0.25897649718E+02  0.11593027896E+02 -0.20947437885E+02  0.35268707244E+02  0.00000000000E+00 0.  1.
         11    1    4    4    0    0  0.22821655693E+02  0.24737053680E+03 -0.95930840922E+02  0.26630008766E+03  0.00000000000E+00 0. -1.
          1    1    1    2  501    0  0.19969450658E+02 -0.70817206343E+01 -0.11000600887E+02  0.23873477890E+02  0.00000000000E+00 0. -1.
<scales pt_clust_5="13000.00000" pt_clust_6="13000.00000" pt_clust_7="13000.00000" pt_clust_8="13000.00000" pt_clust_9="21.18796"></scales>
<clustering>
<clus scale="   21.188">  2  9  1 -1</clus>
<clus scale="   79.634">  5  6 -1 -1</clus>
<clus scale="   88.586">  7  8 -1 -1</clus>
<clus scale="  273.655">  1  5  2 -1</clus>
<clus scale="   21.188">  2  5  1 -1</clus>
</clustering>
</event>
<event>
 9    2  0.4883225E-005  0.2191203E+03  0.7546771E-02  0.1135299E+00
         21   -1    0    0  501  502  0.00000000000E+00  0.00000000000E+00  0.68957039762E+02  0.68957039762E+02  0.00000000000E+00 0. -1.
          2   -1    0    0  502    0 -0.00000000000E+00 -0.00000000000E+00 -0.10754191296E+04  0.10754191296E+04  0.00000000000E+00 0. -1.
         24    2    1    2    0    0 -0.12294566575E+02 -0.15677842168E+03 -0.26421481245E+03  0.31806487254E+03  0.81395123633E+02 0.  0.
         23    2    1    2    0    0  0.59806542975E+02  0.24191681861E+03 -0.53147485035E+03  0.59408091438E+03  0.91466095181E+02 0.  0.
        -11    1    3    3    0    0  0.23610545683E+02 -0.56404920631E+02 -0.14920625349E+03  0.16124974114E+03  0.00000000000E+00 0.  1.
         12    1    3    3    0    0 -0.35905112259E+02 -0.10037350105E+03 -0.11500855896E+03  0.15681513139E+03  0.00000000000E+00 0. -1.
        -13    1    4    4    0    0  0.46119427760E+02  0.94802877248E+02 -0.31348847796E+03  0.33074100587E+03  0.00000000000E+00 0.  1.
         13    1    4    4    0    0  0.13687115215E+02  0.14711394136E+03 -0.21798637239E+03  0.26333990851E+03  0.00000000000E+00 0. -1.
          1    1    1    2  501    0 -0.47511976400E+02 -0.85138396928E+02 -0.21077242704E+03  0.23223038245E+03  0.00000000000E+00 0. -1.
<scales pt_clust_5="13000.00000" pt_clust_6="13000.00000" pt_clust_7="13000.00000" pt_clust_8="13000.00000" pt_clust_9="97.49843"></scales>
<clustering>
<clus scale="   81.395">  5  6 -1 -1</clus>
<clus scale="   91.466">  7  8 -1 -1</clus>
<clus scale="   97.498">  1  9  2 -1</clus>
<clus scale="  215.111">  2  5  1 -1</clus>
<clus scale="   97.498">  1  5  2 -1</clus>
</clustering>
</event>
<event>
 9    2  0.4883225E-005  0.1017606E+03  0.7546771E-02  0.1287765E+00
         21   -1    0    0  501  502  0.00000000000E+00  0.00000000000E+00  0.78343272625E+02  0.78343272625E+02  0.00000000000E+00 0. -1.
         -3   -1    0    0    0  501 -0.00000000000E+00 -0.00000000000E+00 -0.29337479125E+03  0.29337479125E+03  0.00000000000E+00 0.  1.
         24    2    1    2    0    0 -0.40333093827E+02  0.10016251107E+02 -0.13627460988E+03  0.16137549217E+03  0.75790477177E+02 0.  0.
         23    2    1    2    0    0 -0.23606533561E+02 -0.44285764846E+02 -0.80735883076E+01  0.10905680118E+03  0.96486815999E+02 0.  0.
        -11    1    3    3    0    0 -0.51718163835E+02 -0.75511994658E+01 -0.12904554742E+03  0.13922838214E+03  0.00000000000E+00 0.  1.
         12    1    3    3    0    0  0.11385070008E+02  0.17567450572E+02 -0.72290624633E+01  0.22147110033E+02  0.00000000000E+00 0. -1.
        -13    1    4    4    0    0 -0.60856330804E+02 -0.23595834243E+02 -0.11629517110E+02  0.66298582645E+02  0.00000000000E+00 0. -1.
         13    1    4    4    0    0  0.37249797243E+02 -0.20689930603E+02  0.35559288020E+01  0.42758218539E+02  0.00000000000E+00 0.  1.
         -4    1    1    2    0  502  0.63939627388E+02  0.34269513739E+02 -0.70683320438E+02  0.10128577052E+03  0.00000000000E+00 0.  1.
<scales pt_clust_5="13000.00000" pt_clust_6="13000.00000" pt_clust_7="13000.00000" pt_clust_8="13000.00000" pt_clust_9="72.54434"></scales>
<clustering>
<clus scale="   72.544">  1  9  2 -1</clus>
<clus scale="   75.790">  5  6 -1 -1</clus>
<clus scale="   82.400">  2  5  1 -1</clus>
<clus scale="   96.487">  7  8 -1 -1</clus>
<clus scale="   72.544">  1  5  2 -1</clus>
</clustering>
</event>
<event>
 9    2  0.4883225E-005  0.1121888E+03  0.7546771E-02  0.1262103E+00
         21   -1    0    0  501  502  0.00000000000E+00  0.00000000000E+00  0.80179699604E+02  0.80179699604E+02  0.00000000000E+00 0. -1.
          2   -1    0    0  502    0 -0.00000000000E+00 -0.00000000000E+00 -0.31026254020E+03  0.31026254020E+03  0.00000000000E+00 0. -1.
         23    2    1    2    0    0 -0.84198760952E+02 -0.41816969981E+02 -0.17812218322E+03  0.22193525096E+03  0.93218309031E+02 0.  0.
         24    2    1    2    0    0  0.16224832474E+02  0.19393491699E+01 -0.17328546846E+02  0.82425267941E+02  0.78909061554E+02 0.  0.
        -11    1    4    4    0    0 -0.27110524416E+02  0.16285877386E+02 -0.18728327181E+02  0.36755415592E+02  0.00000000000E+00 0.  1.
         12    1    4    4    0    0  0.43335356890E+02 -0.14346528216E+02  0.13997803346E+01  0.45669852350E+02  0.00000000000E+00 0. -1.
        -13    1    3    3    0    0 -0.10202093301E+03 -0.31409969041E+02 -0.16775848705E+03  0.19884105940E+03  0.00000000000E+00 0. -1.
         13    1    3    3    0    0  0.17822172056E+02 -0.10407000940E+02 -0.10363696173E+02  0.23094191559E+02  0.00000000000E+00 0.  1.
          1    1    1    2  501    0  0.67973928478E+02  0.39877620811E+02 -0.34632110531E+02  0.86081720906E+02  0.00000000000E+00 0. -1.
<scales pt_clust_5="13000.00000" pt_clust_6="13000.00000" pt_clust_7="13000.00000" pt_clust_8="13000.00000" pt_clust_9="78.80787"></scales>
<clustering>
<clus scale="   78.808">  1  9  2 -1</clus>
<clus scale="   78.909">  5  6 -1 -1</clus>
<clus scale="   93.218">  7  8 -1 -1</clus>
<clus scale="  100.615">  1  5  2 -1</clus>
<clus scale="   78.808">  1  5  2 -1</clus>
</clustering>
</event>
<event>
 9    2  0.5009361E-005  0.1004126E+03  0.7546771E-02  0.1284729E+00
         -3   -1    0    0    0  501 -0.00000000000E+00  0.00000000000E+00  0.22798242899E+03  0.22798242899E+03  0.00000000000E+00 0.  1.
         21   -1    0    0  501  502  0.00000000000E+00 -0.00000000000E+00 -0.16836464757E+03  0.16836464757E+03  0.00000000000E+00 0.  1.
         23    2    1    2    0    0 -0.18252964714E+02  0.35830425654E+02  0.15596807430E+03  0.18553757059E+03  0.92093212434E+02 0.  0.
         24    2    1    2    0    0 -0.24480008013E+02 -0.49878008702E+02  0.61788906733E+01  0.98846677205E+02  0.81519325072E+02 0.  0.
        -11    1    4    4    0    0 -0.36844824498E+02  0.88681364138E+01  0.82217102026E+01  0.38778621100E+02  0.00000000000E+00 0.  1.
         12    1    4    4    0    0  0.12364816485E+02 -0.58746145115E+02 -0.20428195293E+01  0.60068056105E+02  0.00000000000E+00 0. -1.
        -13    1    3    3    0    0  0.89261033013E+01  0.53557679932E+02  0.46909119153E+02  0.71753507646E+02  0.00000000000E+00 0.  1.
         13    1    3    3    0    0 -0.27179068015E+02 -0.17727254278E+02  0.10905895514E+03  0.11378406294E+03  0.00000000000E+00 0. -1.
         -4    1    1    2    0  502  0.42732972728E+02  0.14047583048E+02 -0.10252918355E+03  0.11196282877E+03  0.00000000000E+00 0.  1.
<scales pt_clust_5="13000.00000" pt_clust_6="13000.00000" pt_clust_7="13000.00000" pt_clust_8="13000.00000" pt_clust_9="44.98268"></scales>
<clustering>
<clus scale="   44.983">  2  9  1 -1</clus>
<clus scale="   81.519">  5  6 -1 -1</clus>
<clus scale="   90.813">  2  5  1 -1</clus>
<clus scale="   92.093">  7  8 -1 -1</clus>
<clus scale="   44.983">  2  5  1 -1</clus>
</clustering>
</event>
<event>
 9    2  0.4883225E-005  0.3138107E+03  0.7546771E-02  0.1091939E+00
         21   -1    0    0  501  502  0.00000000000E+00  0.00000000000E+00  0.19149495721E+03  0.19149495721E+03  0.00000000000E+00 0. -1.
          2   -1    0    0  502    0 -0.00000000000E+00 -0.00000000000E+00 -0.12555288788E+04  0.12555288788E+04  0.00000000000E+00 0. -1.
         24    2    1    2    0    0 -0.66371519608E+02 -0.19410025022E+03 -0.52464956115E+03  0.56870501871E+03  0.78026601491E+02 0.  0.
         23    2    1    2    0    0 -0.22079320458E+03  0.23929266554E+03 -0.10273781939E+03  0.35375601358E+03  0.92615542124E+02 0.  0.
        -13    1    3    3    0    0 -0.63293256384E+02 -0.70613000999E+02 -0.25663767875E+03  0.27359665636E+03  0.00000000000E+00 0.  1.
         14    1    3    3    0    0 -0.30782632237E+01 -0.12348724922E+03 -0.26801188240E+03  0.29510836236E+03  0.00000000000E+00 0. -1.
        -11    1    4    4    0    0 -0.14560913321E+03  0.19996196332E+03 -0.45777267516E+02  0.25155986300E+03  0.00000000000E+00 0. -1.
         11    1    4    4    0    0 -0.75184071372E+02  0.39330702217E+02 -0.56960551871E+02  0.10219615059E+03  0.00000000000E+00 0.  1.
          1    1    1    2  501    0  0.28716472419E+03 -0.45192415317E+02 -0.43664654104E+03  0.52456280369E+03  0.00000000000E+00 0. -1.
<scales pt_clust_5="13000.00000" pt_clust_6="13000.00000" pt_clust_7="13000.00000" pt_clust_8="13000.00000" pt_clust_9="299.83264"></scales>
<clustering>
<clus scale="   78.027">  5  6 -1 -1</clus>
<clus scale="   92.616">  7  8 -1 -1</clus>
<clus scale="  219.473">  2  5  1 -1</clus>
<clus scale="  299.833">  1  9  2 -1</clus>
<clus scale="  299.833">  1  5  2 -1</clus>
</clustering>
</event>
<event>
 9    2  0.4883225E-005  0.1319640E+03  0.7546771E-02  0.1227780E+00
          2   -1    0    0  502    0 -0.00000000000E+00  0.00000000000E+00  0.25785808559E+03  0.25785808559E+03  0.00000000000E+00 0. -1.
         21   -1    0    0  501  502  0.00000000000E+00 -0.00000000000E+00 -0.10655395828E+03  0.10655395828E+03  0.00000000000E+00 0. -1.
         23    2    1    2    0    0  0.68716695368E+02  0.81742256715E+02  0.15170381225E+03  0.20759988261E+03  0.93165894270E+02 0.  0.
         24    2    1    2    0    0 -0.48481762088E+02 -0.55072827110E+02  0.28377960142E+02  0.11266622309E+03  0.80652784595E+02 0.  0.
        -13    1    4    4    0    0  0.41845769819E+01 -0.48581808987E+02 -0.64595006333E+01  0.49187681358E+02  0.00000000000E+00 0.  1.
         14    1    4    4    0    0 -0.52666339070E+02 -0.64910181226E+01  0.34837460776E+02  0.63478541733E+02  0.00000000000E+00 0. -1.
        -13    1    3    3    0    0  0.56697042484E+02  0.21072514676E+01  0.88935391003E+02  0.10549170066E+03  0.00000000000E+00 0. -1.
         13    1    3    3    0    0  0.12019652884E+02  0.79635005247E+02  0.62768421245E+02  0.10210818195E+03  0.00000000000E+00 0.  1.
          1    1    1    2  501    0 -0.20234933280E+02 -0.26669429605E+02 -0.28777645080E+02  0.44145938167E+02  0.00000000000E+00 0. -1.
<scales pt_clust_5="13000.00000" pt_clust_6="13000.00000" pt_clust_7="13000.00000" pt_clust_8="13000.00000" pt_clust_9="33.47702"></scales>
<clustering>
<clus scale="   33.477">  2  9  1 -1</clus>
<clus scale="   80.653">  5  6 -1 -1</clus>
<clus scale="   93.166">  7  8 -1 -1</clus>
<clus scale="  123.448">  2  5  1 -1</clus>
<clus scale="   33.477">  2  5  1 -1</clus>
</clustering>
</event>
<event>
 9    2  0.4883225E-005  0.9198728E+02  0.7546771E-02  0.1303873E+00
         21   -1    0    0  501  502  0.00000000000E+00  0.00000000000E+00  0.43443147259E+02  0.43443147259E+02  0.00000000000E+00 0.  1.
          2   -1    0    0  502    0 -0.00000000000E+00 -0.00000000000E+00 -0.60902108802E+03  0.60902108802E+03  0.00000000000E+00 0. -1.
         24    2    1    2    0    0 -0.13529912172E+02  0.12082122331E+02 -0.50303329835E+03  0.50968988821E+03  0.80076505256E+02 0.  0.
         23    2    1    2    0    0  0.33752740142E+02 -0.24944968026E+02 -0.65438993113E+02  0.11863324443E+03  0.89610746942E+02 0.  0.
        -13    1    3    3    0    0  0.19828413601E+02 -0.22823426026E+02 -0.12594009499E+03  0.12951827009E+03  0.00000000000E+00 0.  1.
         14    1    3    3    0    0 -0.33358325772E+02  0.34905548357E+02 -0.37709320336E+03  0.38017161812E+03  0.00000000000E+00 0. -1.
        -13    1    4    4    0    0 -0.21182096730E+01 -0.37284102059E+02 -0.71069617489E+02  0.80283756817E+02  0.00000000000E+00 0. -1.
         13    1    4    4    0    0  0.35870949815E+02  0.12339134033E+02  0.56306243765E+01  0.38349487613E+02  0.00000000000E+00 0.  1.
          1    1    1    2  501    0 -0.20222827971E+02  0.12862845695E+02  0.28943507017E+01  0.24141102636E+02  0.00000000000E+00 0. -1.
<scales pt_clust_5="13000.00000" pt_clust_6="13000.00000" pt_clust_7="13000.00000" pt_clust_8="13000.00000" pt_clust_9="23.96697"></scales>
<clustering>
<clus scale="   23.967">  1  9  2 -1</clus>
<clus scale="   80.077">  5  6 -1 -1</clus>
<clus scale="   82.727">  2  5  1 -1</clus>
<clus scale="   89.611">  7  8 -1 -1</clus>
<clus scale="   23.967">  1  5  2 -1</clus>
</clustering>
</event>
<event>
 9    2  0.4883225E-005  0.1203573E+03  0.7546771E-02  0.1244383E+00
          2   -1    0    0  502    0 -0.00000000000E+00  0.00000000000E+00  0.91692207345E+03  0.91692207345E+03  0.00000000000E+00 0. -1.
         21   -1    0    0  501  502  0.00000000000E+00 -0.00000000000E+00 -0.55701265272E+02  0.55701265272E+02  0.00000000000E+00 0.  1.
         24    2    1    2    0    0 -0.47767524877E+02 -0.68824686920E+02  0.23839524086E+03  0.26506949263E+03  0.80068539989E+02 0.  0.
         23    2    1    2    0    0 -0.63901052979E+02  0.26542086455E+02  0.60743508303E+02  0.13292881127E+03  0.95877359884E+02 0.  0.
        -13    1    3    3    0    0 -0.68057229305E+02 -0.35381561738E+02  0.15366163958E+03  0.17174265879E+03  0.00000000000E+00 0.  1.
         14    1    3    3    0    0  0.20289704428E+02 -0.33443125182E+02  0.84733601282E+02  0.93326833837E+02  0.00000000000E+00 0. -1.
        -11    1    4    4    0    0 -0.16580622687E+02  0.47129020912E+02 -0.40171928652E+01  0.50121846527E+02  0.00000000000E+00 0.  1.
         11    1    4    4    0    0 -0.47320430291E+02 -0.20586934457E+02  0.64760701168E+02  0.82806964738E+02  0.00000000000E+00 0. -1.
          1    1    1    2  501    0  0.11166857786E+03  0.42282600465E+02  0.56208205902E+03  0.57462503483E+03  0.00000000000E+00 0. -1.
<scales pt_clust_5="13000.00000" pt_clust_6="13000.00000" pt_clust_7="13000.00000" pt_clust_8="13000.00000" pt_clust_9="72.75593"></scales>
<clustering>
<clus scale="   80.069">  5  6 -1 -1</clus>
<clus scale="   95.877">  7  8 -1 -1</clus>
<clus scale="  115.886">  1  5  2 -1</clus>
<clus scale="   72.756">  2  9  1 -1</clus>
<clus scale="   72.756">  2  5  1 -1</clus>
</clustering>
</event>
<event>
 9    2  0.4883225E-005  0.1114141E+03  0.7546771E-02  0.1263107E+00
          2   -1    0    0  502    0 -0.00000000000E+00  0.00000000000E+00  0.34541213199E+03  0.34541213199E+03  0.00000000000E+00 0. -1.
         21   -1    0    0  501  502  0.00000000000E+00 -0.00000000000E+00 -0.56755564359E+02  0.56755564359E+02  0.00000000000E+00 0.  1.
         24    2    1    2    0    0  0.47750163050E+02 -0.30097781854E+02  0.22511365356E+03  0.24561606267E+03  0.80406086060E+02 0.  0.
         23    2    1    2    0    0 -0.68624057505E+02  0.35796848476E+02  0.51775391352E+02  0.13192089230E+03  0.93443860403E+02 0.  0.
        -11    1    3    3    0    0 -0.20890058225E+02  0.43282092220E+01  0.44154371742E+02  0.49038112440E+02  0.00000000000E+00 0.  1.
         12    1    3    3    0    0  0.68640221275E+02 -0.34425991076E+02  0.18095928182E+03  0.19657795023E+03  0.00000000000E+00 0. -1.
        -13    1    4    4    0    0  0.36199845055E+01  0.33715656417E+02  0.49005871099E+02  0.59593835064E+02  0.00000000000E+00 0. -1.
         13    1    4    4    0    0 -0.72244042011E+02  0.20811920584E+01  0.27695202534E+01  0.72327057239E+02  0.00000000000E+00 0.  1.
          1    1    1    2  501    0  0.20873894455E+02 -0.56990666221E+01  0.11767522718E+02  0.24630741381E+02  0.00000000000E+00 0. -1.
<scales pt_clust_5="13000.00000" pt_clust_6="13000.00000" pt_clust_7="13000.00000" pt_clust_8="13000.00000" pt_clust_9="21.63790"></scales>
<clustering>
<clus scale="   21.638">  2  9  1 -1</clus>
<clus scale="   80.406">  5  6 -1 -1</clus>
<clus scale="   93.444">  7  8 -1 -1</clus>
<clus scale="  100.730">  1  5  2 -1</clus>
<clus scale="   21.638">  2  5  1 -1</clus>
</clustering>
</event>
<event>
 9    2  0.4883225E-005  0.8945253E+02  0.7546771E-02  0.1308696E+00
          2   -1    0    0  502    0 -0.00000000000E+00  0.00000000000E+00  0.49858101409E+03  0.49858101409E+03  0.00000000000E+00 0. -1.
         21   -1    0    0  501  502  0.00000000000E+00 -0.00000000000E+00 -0.78213070901E+02  0.78213070901E+02  0.00000000000E+00 0. -1.
         24    2    1    2    0    0  0.18530748013E+02  0.84779855835E+00  0.14429690167E+02  0.84908564495E+02  0.81591304574E+02 0.  0.
         23    2    1    2    0    0  0.22721721205E+02  0.25720888868E+02  0.13142407376E+02  0.96036764371E+02  0.88727090004E+02 0.  0.
        -11    1    3    3    0    0  0.45566859230E+01 -0.40018886164E+02  0.39876820927E+01  0.40474389988E+02  0.00000000000E+00 0.  1.
         12    1    3    3    0    0  0.13974062090E+02  0.40866684723E+02  0.10442008074E+02  0.44434174507E+02  0.00000000000E+00 0. -1.
        -11    1    4    4    0    0  0.95512691054E+01  0.55919730886E+02 -0.74016312044E+01  0.57210376580E+02  0.00000000000E+00 0. -1.
         11    1    4    4    0    0  0.13170452099E+02 -0.30198842018E+02  0.20544038581E+02  0.38826387792E+02  0.00000000000E+00 0.  1.
          1    1    1    2  501    0 -0.41252469218E+02 -0.26568687427E+02  0.39279584564E+03  0.39584875612E+03  0.00000000000E+00 0. -1.
<scales pt_clust_5="13000.00000" pt_clust_6="13000.00000" pt_clust_7="13000.00000" pt_clust_8="13000.00000" pt_clust_9="49.06795"></scales>
<clustering>
<clus scale="   49.068">  2  9  1 -1</clus>
<clus scale="   81.591">  5  6 -1 -1</clus>
<clus scale="   82.380">  1  5  2 -1</clus>
<clus scale="   88.727">  7  8 -1 -1</clus>
<clus scale="   49.068">  2  5  1 -1</clus>
</clustering>
</event>
<event>
 9    2  0.4883225E-005  0.1335150E+03  0.7546771E-02  0.1234362E+00
         -3   -1    0    0    0  501 -0.00000000000E+00  0.00000000000E+00  0.53247214252E+02  0.53247214252E+02  0.00000000000E+00 0.  1.
         21   -1    0    0  501  502  0.00000000000E+00 -0.00000000000E+00 -0.69512106245E+03  0.69512106245E+03  0.00000000000E+00 0.  1.
         23    2    1    2    0    0 -0.60989576179E+02 -0.20404156404E+01 -0.16727952139E+03  0.19701262612E+03  0.84306849534E+02 0.  0.
         24    2    1    2    0    0 -0.44270294789E+02 -0.51734234000E+02 -0.62577292483E+02  0.12271898631E+03  0.80670577644E+02 0.  0.
        -13    1    4    4    0    0 -0.46406331741E+02 -0.10909681987E+02  0.35698122877E+00  0.47672803802E+02  0.00000000000E+00 0.  1.
         14    1    4    4    0    0  0.21360369522E+01 -0.40824552013E+02 -0.62934273712E+02  0.75046182505E+02  0.00000000000E+00 0. -1.
        -11    1    3    3    0    0 -0.32514362124E+02 -0.42461990029E+02 -0.72258942417E+02  0.89897492183E+02  0.00000000000E+00 0.  1.
         11    1    3    3    0    0 -0.28475214055E+02  0.40421574388E+02 -0.95020578970E+02  0.10711513394E+03  0.00000000000E+00 0. -1.
         -4    1    1    2    0  502  0.10525987097E+03  0.53774649641E+02 -0.41201703432E+03  0.42863666427E+03  0.00000000000E+00 0.  1.
<scales pt_clust_5="13000.00000" pt_clust_6="13000.00000" pt_clust_7="13000.00000" pt_clust_8="13000.00000" pt_clust_9="106.38852"></scales>
<clustering>
<clus scale="   80.671">  5  6 -1 -1</clus>
<clus scale="   84.307">  7  8 -1 -1</clus>
<clus scale="  104.075">  1  7  2 -1</clus>
<clus scale="  106.389">  2  9  1 -1</clus>
<clus scale="  106.389">  2  5  1 -1</clus>
</clustering>
</event>
<event>
 9    2  0.4883225E-005  0.9716506E+02  0.7546771E-02  0.1289544E+00
          2   -1    0    0  502    0 -0.00000000000E+00  0.00000000000E+00  0.42207521604E+03  0.42207521604E+03  0.00000000000E+00 0. -1.
         21   -1    0    0  501  502  0.00000000000E+00 -0.00000000000E+00 -0.90639350041E+02  0.90639350041E+02  0.00000000000E+00 0.  1.
         24    2    1    2    0    0  0.42801863168E+00  0.40158298092E+02  0.30186068054E+03  0.31553463654E+03  0.82639967869E+02 0.  0.
         23    2    1    2    0    0  0.71506927902E+02 -0.26063081152E+02  0.38933559197E+02  0.12328208903E+03  0.88826384072E+02 0.  0.
        -13    1    3    3    0    0 -0.17773222843E+02  0.10025651246E+02  0.12267217917E+02  0.23809363044E+02  0.00000000000E+00 0.  1.
         14    1    3    3    0    0  0.18201241475E+02  0.30132646846E+02  0.28959346263E+03  0.29172527349E+03  0.00000000000E+00 0. -1.
        -11    1    4    4    0    0  0.92418393242E+02 -0.16139485405E+02  0.31841403675E+02  0.99073293004E+02  0.00000000000E+00 0.  1.
         11    1    4    4    0    0 -0.20911465340E+02 -0.99235957475E+01  0.70921555218E+01  0.24208796029E+02  0.00000000000E+00 0. -1.
          1    1    1    2  501    0 -0.71934946534E+02 -0.14095216940E+02 -0.93583737420E+01  0.73897840513E+02  0.00000000000E+00 0. -1.
<scales pt_clust_5="13000.00000" pt_clust_6="13000.00000" pt_clust_7="13000.00000" pt_clust_8="13000.00000" pt_clust_9="73.30288"></scales>
<clustering>
<clus scale="   73.303">  2  9  1 -1</clus>
<clus scale="   82.640">  5  6 -1 -1</clus>
<clus scale="   88.826">  7  8 -1 -1</clus>
<clus scale="   91.544">  1  5  2 -1</clus>
<clus scale="   73.303">  2  5  1 -1</clus>
</clustering>
</event>
<event>
 9    2  0.4883225E-005  0.9473152E+02  0.7546771E-02  0.1292189E+00
         21   -1    0    0  501  502  0.00000000000E+00  0.00000000000E+00  0.41595230759E+02  0.41595230759E+02  0.00000000000E+00 0. -1.
          2   -1    0    0  502    0 -0.00000000000E+00 -0.00000000000E+00 -0.43066840904E+03  0.43066840904E+03  0.00000000000E+00 0. -1.
         24    2    1    2    0    0 -0.66864455319E+01 -0.14821327962E+02 -0.25973273496E+03  0.27551558280E+03  0.90461939203E+02 0.  0.
         23    2    1    2    0    0  0.33737927712E+02  0.35280275135E+02 -0.12546060608E+03  0.16261003794E+03  0.91206990864E+02 0.  0.
        -13    1    3    3    0    0 -0.14724892317E+02  0.29347846664E+02 -0.18833619371E+03  0.19117698716E+03  0.00000000000E+00 0.  1.
         14    1    3    3    0    0  0.80384467852E+01 -0.44169174625E+02 -0.71396541242E+02  0.84338595644E+02  0.00000000000E+00 0. -1.
        -11    1    4    4    0    0  0.57217681047E+02  0.17884361420E+02 -0.11814899306E+03  0.13248735022E+03  0.00000000000E+00 0. -1.
         11    1    4    4    0    0 -0.23479753335E+02  0.17395913715E+02 -0.73116130199E+01  0.30122687722E+02  0.00000000000E+00 0.  1.
          1    1    1    2  501    0 -0.27051482180E+02 -0.20458947174E+02 -0.38798372465E+01  0.34138019050E+02  0.00000000000E+00 0. -1.
<scales pt_clust_5="13000.00000" pt_clust_6="13000.00000" pt_clust_7="13000.00000" pt_clust_8="13000.00000" pt_clust_9="33.91683"></scales>
<clustering>
<clus scale="   33.917">  1  9  2 -1</clus>
<clus scale="   90.462">  5  6 -1 -1</clus>
<clus scale="   91.207">  7  8 -1 -1</clus>
<clus scale="   94.014">  2  5  1 -1</clus>
<clus scale="   33.917">  1  5  2 -1</clus>
</clustering>
</event>
<event>
 9    2  0.4883225E-005  0.9474727E+02  0.7546771E-02  0.1299599E+00
         21   -1    0    0  501  502  0.00000000000E+00  0.00000000000E+00  0.12898871826E+03  0.12898871826E+03  0.00000000000E+00 0.  1.
          4   -1    0    0  502    0 -0.00000000000E+00 -0.00000000000E+00 -0.10612846377E+03  0.10612846377E+03  0.00000000000E+00 0. -1.
         24    2    1    2    0    0 -0.95654896553E+01 -0.74033178418E+01 -0.49054664678E+02  0.94994143068E+02  0.80443889657E+02 0.  0.
         23    2    1    2    0    0  0.30019835673E+02  0.19063347441E+01  0.52378254674E+02  0.11130848788E+03  0.93494776674E+02 0.  0.
        -13    1    3    3    0    0 -0.33666306973E+02 -0.31818597870E+02 -0.34346676318E+02  0.57667474105E+02  0.00000000000E+00 0.  1.
         14    1    3    3    0    0  0.24100817318E+02  0.24415280028E+02 -0.14707988361E+02  0.37326668963E+02  0.00000000000E+00 0. -1.
        -11    1    4    4    0    0 -0.99218654344E+01 -0.30134320558E+02  0.51027220723E+02  0.60085754917E+02  0.00000000000E+00 0.  1.
         11    1    4    4    0    0  0.39941701107E+02  0.32040655302E+02  0.13510339515E+01  0.51222732963E+02  0.00000000000E+00 0. -1.
          3    1    1    2  501    0 -0.20454346017E+02  0.54969830978E+01  0.19536664495E+02  0.28814551077E+02  0.00000000000E+00 0. -1.
<scales pt_clust_5="13000.00000" pt_clust_6="13000.00000" pt_clust_7="13000.00000" pt_clust_8="13000.00000" pt_clust_9="21.18011"></scales>
<clustering>
<clus scale="   21.180">  1  9  2 -1</clus>
<clus scale="   80.444">  5  6 -1 -1</clus>
<clus scale="   81.896">  2  5  1 -1</clus>
<clus scale="   93.495">  7  8 -1 -1</clus>
<clus scale="   21.180">  1  5  2 -1</clus>
</clustering>
</event>
<event>
 9    2  0.4883225E-005  0.1605852E+03  0.7546771E-02  0.1216397E+00
         21   -1    0    0  501  502  0.00000000000E+00  0.00000000000E+00  0.24343238994E+02  0.24343238994E+02  0.00000000000E+00 0. -1.
          2   -1    0    0  502    0 -0.00000000000E+00 -0.00000000000E+00 -0.15451523643E+04  0.15451523643E+04  0.00000000000E+00 0. -1.
         24    2    1    2    0    0 -0.98055568631E+01  0.33846818024E+02 -0.35736005482E+03  0.36778172610E+03  0.79469700120E+02 0.  0.
         23    2    1    2    0    0 -0.12629529689E+03 -0.54622363202E+02 -0.56507019932E+03  0.58770057186E+03  0.84578528160E+02 0.  0.
        -11    1    3    3    0    0  0.21208524186E+02 -0.16961607831E+02 -0.99431133759E+02  0.10307302265E+03  0.00000000000E+00 0.  1.
         12    1    3    3    0    0 -0.31014081049E+02  0.50808425855E+02 -0.25792892106E+03  0.26470870345E+03  0.00000000000E+00 0. -1.
        -11    1    4    4    0    0 -0.47239348042E+02 -0.14954268809E+02 -0.76201340003E+02  0.90894611376E+02  0.00000000000E+00 0. -1.
         11    1    4    4    0    0 -0.79055948846E+02 -0.39668094393E+02 -0.48886885932E+03  0.49680596048E+03  0.00000000000E+00 0.  1.
          1    1    1    2  501    0  0.13610085375E+03  0.20775545178E+02 -0.59837887112E+03  0.61401330529E+03  0.00000000000E+00 0. -1.
<scales pt_clust_5="13000.00000" pt_clust_6="13000.00000" pt_clust_7="13000.00000" pt_clust_8="13000.00000" pt_clust_9="136.50677"></scales>
<clustering>
<clus scale="   79.470">  5  6 -1 -1</clus>
<clus scale="   84.579">  7  8 -1 -1</clus>
<clus scale="   86.932">  2  5  1 -1</clus>
<clus scale="  136.507">  1  9  2 -1</clus>
<clus scale="  136.507">  1  5  2 -1</clus>
</clustering>
</event>
<event>
 9    2  0.4883225E-005  0.1062975E+03  0.7546771E-02  0.1273281E+00
         -1   -1    0    0    0  501 -0.00000000000E+00  0.00000000000E+00  0.19536245459E+03  0.19536245459E+03  0.00000000000E+00 0.  1.
         21   -1    0    0  501  502  0.00000000000E+00 -0.00000000000E+00 -0.26058863469E+03  0.26058863469E+03  0.00000000000E+00 0.  1.
         24    2    1    2    0    0  0.31448999602E+02 -0.49635335017E+02  0.14880705208E+03  0.17901036050E+03  0.80302330975E+02 0.  0.
         23    2    1    2    0    0 -0.24521840151E+02 -0.12205367560E+02 -0.69036924581E+02  0.11915547202E+03  0.93175307426E+02 0.  0.
        -11    1    3    3    0    0  0.25418856540E+02 -0.70335165593E+02  0.94043068875E+02  0.12015511887E+03  0.00000000000E+00 0.  1.
         12    1    3    3    0    0  0.60301430615E+01  0.20699830577E+02  0.54763983206E+02  0.58855241634E+02  0.00000000000E+00 0. -1.
        -13    1    4    4    0    0  0.23684382382E+02 -0.32545012720E+02 -0.48303383195E+02  0.62875628425E+02  0.00000000000E+00 0.  1.
         13    1    4    4    0    0 -0.48206222533E+02  0.20339645159E+02 -0.20733541386E+02  0.56279843590E+02  0.00000000000E+00 0. -1.
         -2    1    1    2    0  502 -0.69271594509E+01  0.61840702577E+02 -0.14499630760E+03  0.15778525676E+03  0.00000000000E+00 0.  1.
<scales pt_clust_5="13000.00000" pt_clust_6="13000.00000" pt_clust_7="13000.00000" pt_clust_8="13000.00000" pt_clust_9="62.22747"></scales>
<clustering>
<clus scale="   62.227">  2  9  1 -1</clus>
<clus scale="   80.302">  5  6 -1 -1</clus>
<clus scale="   93.175">  7  8 -1 -1</clus>
<clus scale="   95.215">  1  5  2 -1</clus>
<clus scale="   62.227">  2  5  1 -1</clus>
</clustering>
</event>
<event>
 9    2  0.4883225E-005  0.1008919E+03  0.7546771E-02  0.1282746E+00
         21   -1    0    0  501  502  0.00000000000E+00  0.00000000000E+00  0.25305238661E+03  0.25305238661E+03  0.00000000000E+00 0. -1.
          2   -1    0    0  502    0 -0.00000000000E+00 -0.00000000000E+00 -0.67489081420E+02  0.67489081420E+02  0.00000000000E+00 0. -1.
         23    2    1    2    0    0 -0.31259537961E+02 -0.40589042148E+02  0.83757130404E+02  0.13419178226E+03  0.91474305007E+02 0.  0.
         24    2    1    2    0    0  0.57702194491E+00  0.36506685996E+02  0.12018678435E+03  0.15035066871E+03  0.82628018094E+02 0.  0.
        -13    1    4    4    0    0  0.27571571235E+02 -0.47130561426E+01  0.85855891730E+02  0.90297500427E+02  0.00000000000E+00 0.  1.
         14    1    4    4    0    0 -0.26994549290E+02  0.41219742139E+02  0.34330892617E+02  0.60053168286E+02  0.00000000000E+00 0. -1.
        -11    1    3    3    0    0 -0.30344630332E+02 -0.69477120331E+02  0.63539327672E+02  0.98919730087E+02  0.00000000000E+00 0. -1.
         11    1    3    3    0    0 -0.91490762815E+00  0.28888078184E+02  0.20217802732E+02  0.35272052172E+02  0.00000000000E+00 0.  1.
          1    1    1    2  501    0  0.30682516016E+02  0.40823561514E+01 -0.18380609565E+02  0.35999017053E+02  0.00000000000E+00 0. -1.
<scales pt_clust_5="13000.00000" pt_clust_6="13000.00000" pt_clust_7="13000.00000" pt_clust_8="13000.00000" pt_clust_9="30.95292"></scales>
<clustering>
<clus scale="   30.953">  1  9  2 -1</clus>
<clus scale="   82.628">  5  6 -1 -1</clus>
<clus scale="   91.474">  7  8 -1 -1</clus>
<clus scale="   92.946">  1  5  2 -1</clus>
<clus scale="   30.953">  1  5  2 -1</clus>
</clustering>
</event>
<event>
 9    2  0.4883225E-005  0.1283436E+03  0.7546771E-02  0.1232285E+00
         -3   -1    0    0    0  501 -0.00000000000E+00  0.00000000000E+00  0.72669274002E+03  0.72669274002E+03  0.00000000000E+00 0.  1.
         21   -1    0    0  501  502  0.00000000000E+00 -0.00000000000E+00 -0.66914549394E+02  0.66914549394E+02  0.00000000000E+00 0. -1.
         24    2    1    2    0    0 -0.92231623264E+02  0.36314327590E+02  0.56352108317E+03  0.57809326135E+03  0.82525177482E+02 0.  0.
         23    2    1    2    0    0  0.20720391511E+02 -0.66893400591E+02  0.56906486264E+02  0.12835092027E+03  0.91277318591E+02 0.  0.
        -13    1    3    3    0    0 -0.99622662586E+02  0.28424841362E+02  0.55425784053E+03  0.56385671965E+03  0.00000000000E+00 0.  1.
         14    1    3    3    0    0  0.73910393214E+01  0.78894862280E+01  0.92632426372E+01  0.14236541692E+02  0.00000000000E+00 0. -1.
        -11    1    4    4    0    0 -0.29011984052E+02 -0.45769582465E+02  0.67169668442E+01  0.54604647616E+02  0.00000000000E+00 0. -1.
         11    1    4    4    0    0  0.49732375563E+02 -0.21123818126E+02  0.50189519420E+02  0.73746272658E+02  0.00000000000E+00 0.  1.
         -4    1    1    2    0  502  0.71511231753E+02  0.30579073001E+02  0.39350621194E+02  0.87163107797E+02  0.00000000000E+00 0.  1.
<scales pt_clust_5="13000.00000" pt_clust_6="13000.00000" pt_clust_7="13000.00000" pt_clust_8="13000.00000" pt_clust_9="77.77491"></scales>
<clustering>
<clus scale="   77.775">  2  9  1 -1</clus>
<clus scale="   82.525">  5  6 -1 -1</clus>
<clus scale="   91.277">  7  8 -1 -1</clus>
<clus scale="  122.274">  1  5  2 -1</clus>
<clus scale="   77.775">  2  5  1 -1</clus>
</clustering>
</event>
<event>
 9    2  0.4883225E-005  0.9569294E+02  0.7546771E-02  0.1294813E+00
          2   -1    0    0  502    0 -0.00000000000E+00  0.00000000000E+00  0.17004261019E+03  0.17004261019E+03  0.00000000000E+00 0. -1.
         21   -1    0    0  501  502  0.00000000000E+00 -0.00000000000E+00 -0.10735022995E+03  0.10735022995E+03  0.00000000000E+00 0.  1.
         24    2    1    2    0    0  0.17848081955E+01  0.19273658139E+02  0.91421394503E+02  0.12452981835E+03  0.82311268040E+02 0.  0.
         23    2    1    2    0    0 -0.83489436343E+01 -0.53656238510E+02  0.16919775552E+01  0.10648752772E+03  0.91586210644E+02 0.  0.
        -13    1    3    3    0    0 -0.37891148358E+02 -0.16199276718E+01  0.29351458527E+02  0.47956974542E+02  0.00000000000E+00 0.  1.
         14    1    3    3    0    0  0.39675956553E+02  0.20893585811E+02  0.62069935976E+02  0.76572843806E+02  0.00000000000E+00 0. -1.
        -11    1    4    4    0    0  0.23620444615E+02  0.16577634816E+02 -0.38899984468E+01  0.29118301252E+02  0.00000000000E+00 0. -1.
         11    1    4    4    0    0 -0.31969388249E+02 -0.70233873327E+02  0.55819760020E+01  0.77369226463E+02  0.00000000000E+00 0.  1.
          1    1    1    2  501    0  0.65641354388E+01  0.34382580371E+02 -0.30420991826E+02  0.46375494075E+02  0.00000000000E+00 0. -1.
<scales pt_clust_5="13000.00000" pt_clust_6="13000.00000" pt_clust_7="13000.00000" pt_clust_8="13000.00000" pt_clust_9="35.00357"></scales>
<clustering>
<clus scale="   35.004">  2  9  1 -1</clus>
<clus scale="   82.311">  5  6 -1 -1</clus>
<clus scale="   86.858">  1  5  2 -1</clus>
<clus scale="   91.586">  7  8 -1 -1</clus>
<clus scale="   35.004">  2  5  1 -1</clus>
</clustering>
</event>
<event>
 9    2  0.4883225E-005  0.9174016E+02  0.7546771E-02  0.1303549E+00
         21   -1    0    0  501  502  0.00000000000E+00  0.00000000000E+00  0.29959150765E+02  0.29959150765E+02  0.00000000000E+00 0.  1.
          2   -1    0    0  502    0 -0.00000000000E+00 -0.00000000000E+00 -0.41154345261E+03  0.41154345261E+03  0.00000000000E+00 0. -1.
         24    2    1    2    0    0 -0.49628462678E+01 -0.26787505027E+02 -0.12767523076E+03  0.15377341462E+03  0.81259450064E+02 0.  0.
         23    2    1    2    0    0  0.19303028946E+02  0.61409293392E+01 -0.11732117123E+03  0.14884730977E+03  0.89336143107E+02 0.  0.
        -13    1    3    3    0    0  0.14145610596E+02 -0.48320654023E+02 -0.50098499875E+02  0.71027062406E+02  0.00000000000E+00 0.  1.
         14    1    3    3    0    0 -0.19108456864E+02  0.21533148995E+02 -0.77576730889E+02  0.82746352215E+02  0.00000000000E+00 0. -1.
        -11    1    4    4    0    0  0.49758077571E+02  0.22201838123E+02 -0.53668822039E+02  0.76479607469E+02  0.00000000000E+00 0. -1.
         11    1    4    4    0    0 -0.30455048625E+02 -0.16060908784E+02 -0.63652349196E+02  0.72367702298E+02  0.00000000000E+00 0.  1.
          1    1    1    2  501    0 -0.14340182678E+02  0.20646575688E+02 -0.13658789984E+03  0.13888187899E+03  0.00000000000E+00 0. -1.
<scales pt_clust_5="13000.00000" pt_clust_6="13000.00000" pt_clust_7="13000.00000" pt_clust_8="13000.00000" pt_clust_9="25.13807"></scales>
<clustering>
<clus scale="   25.138">  1  9  2 -1</clus>
<clus scale="   81.259">  5  6 -1 -1</clus>
<clus scale="   83.895">  2  5  1 -1</clus>
<clus scale="   89.336">  7  8 -1 -1</clus>
<clus scale="   25.138">  1  5  2 -1</clus>
</clustering>
</event>
<event>
 9    2  0.5048655E-005  0.1121105E+03  0.7546771E-02  0.1260251E+00
         21   -1    0    0  501  502  0.00000000000E+00  0.00000000000E+00  0.50460348894E+02  0.50460348894E+02  0.00000000000E+00 0.  1.
         -1   -1    0    0    0  501 -0.00000000000E+00 -0.00000000000E+00 -0.63111033145E+03  0.63111033145E+03  0.00000000000E+00 0.  1.
         23    2    1    2    0    0 -0.49099804195E+02 -0.48928880290E+02 -0.45059100371E+03  0.46487546497E+03  0.90951191326E+02 0.  0.
         24    2    1    2    0    0 -0.10983752277E+01  0.62970818353E+02 -0.35853510479E+02  0.10903044160E+03  0.81459392280E+02 0.  0.
        -11    1    4    4    0    0 -0.46116466144E+01  0.81131355708E+02 -0.17811808239E+02  0.83191494014E+02  0.00000000000E+00 0.  1.
         12    1    4    4    0    0  0.35132713867E+01 -0.18160537355E+02 -0.18041702239E+02  0.25838947590E+02  0.00000000000E+00 0. -1.
        -13    1    3    3    0    0 -0.65848227776E+02 -0.63943808321E+02 -0.36838745311E+03  0.37964999056E+03  0.00000000000E+00 0.  1.
         13    1    3    3    0    0  0.16748423581E+02  0.15014928030E+02 -0.82203550599E+02  0.85225474404E+02  0.00000000000E+00 0. -1.
         -2    1    1    2    0  502  0.50198179422E+02 -0.14041938063E+02 -0.94205468369E+02  0.10766477378E+03  0.00000000000E+00 0.  1.
<scales pt_clust_5="13000.00000" pt_clust_6="13000.00000" pt_clust_7="13000.00000" pt_clust_8="13000.00000" pt_clust_9="52.12520"></scales>
<clustering>
<clus scale="   52.125">  1  9  2 -1</clus>
<clus scale="   81.459">  5  6 -1 -1</clus>
<clus scale="   90.951">  7  8 -1 -1</clus>
<clus scale="  104.557">  1  5  2 -1</clus>
<clus scale="   52.125">  1  5  2 -1</clus>
</clustering>
</event>
<event>
 9    2  0.4883225E-005  0.8927513E+02  0.7546771E-02  0.1308237E+00
         21   -1    0    0  501  502  0.00000000000E+00  0.00000000000E+00  0.43769682981E+02  0.43769682981E+02  0.00000000000E+00 0.  1.
          2   -1    0    0  502    0 -0.00000000000E+00 -0.00000000000E+00 -0.43513431958E+03  0.43513431958E+03  0.00000000000E+00 0. -1.
         23    2    1    2    0    0 -0.32414317994E+01 -0.23225781863E+02 -0.30822006382E+03  0.32116751460E+03  0.87172362987E+02 0.  0.
         24    2    1    2    0    0  0.33767078456E+02 -0.91580405539E+01 -0.45964418485E+02  0.99746049687E+02  0.81317042293E+02 0.  0.
        -13    1    4    4    0    0  0.10910149097E+02 -0.20179133459E+02  0.19137047204E+02  0.29873991299E+02  0.00000000000E+00 0.  1.
         14    1    4    4    0    0  0.22856929359E+02  0.11021092905E+02 -0.65101465689E+02  0.69872058388E+02  0.00000000000E+00 0. -1.
        -13    1    3    3    0    0 -0.15313835807E+02  0.30934495852E+02 -0.13036407522E+03  0.13485640032E+03  0.00000000000E+00 0. -1.
         13    1    3    3    0    0  0.12072404008E+02 -0.54160277715E+02 -0.17785598860E+03  0.18631111427E+03  0.00000000000E+00 0.  1.
          1    1    1    2  501    0 -0.30525646657E+02  0.32383822417E+02 -0.37180154298E+02  0.57990438279E+02  0.00000000000E+00 0. -1.
<scales pt_clust_5="13000.00000" pt_clust_6="13000.00000" pt_clust_7="13000.00000" pt_clust_8="13000.00000" pt_clust_9="44.50311"></scales>
<clustering>
<clus scale="   44.503">  1  9  2 -1</clus>
<clus scale="   81.317">  5  6 -1 -1</clus>
<clus scale="   83.567">  1  5  2 -1</clus>
<clus scale="   87.172">  7  8 -1 -1</clus>
<clus scale="   44.503">  1  5  2 -1</clus>
</clustering>
</event>
<event>
 9    2  0.4883225E-005  0.9601155E+02  0.7546771E-02  0.1292020E+00
         21   -1    0    0  501  502  0.00000000000E+00  0.00000000000E+00  0.23987619819E+02  0.23987619819E+02  0.00000000000E+00 0.  1.
          2   -1    0    0  502    0 -0.00000000000E+00 -0.00000000000E+00 -0.63237311477E+03  0.63237311477E+03  0.00000000000E+00 0. -1.
         24    2    1    2    0    0 -0.25330967125E+02  0.14721244454E+02 -0.33749365785E+03  0.34946677730E+03  0.85829402970E+02 0.  0.
         23    2    1    2    0    0  0.37000186802E+02  0.22700412814E+02 -0.16100121552E+03  0.19022133911E+03  0.91533840133E+02 0.  0.
        -11    1    3    3    0    0 -0.26540201016E+02 -0.33155125033E+02 -0.17358604926E+03  0.17870579476E+03  0.00000000000E+00 0.  1.
         12    1    3    3    0    0  0.12092338912E+01  0.47876369487E+02 -0.16390760860E+03  0.17076098254E+03  0.00000000000E+00 0. -1.
        -11    1    4    4    0    0  0.22711662349E+02  0.48527996458E+02 -0.43339046275E+02  0.68913416538E+02  0.00000000000E+00 0.  1.
         11    1    4    4    0    0  0.14288524453E+02 -0.25827583644E+02 -0.11766216925E+03  0.12130792258E+03  0.00000000000E+00 0. -1.
          1    1    1    2  501    0 -0.11669219677E+02 -0.37421657268E+02 -0.10989062158E+03  0.11667261817E+03  0.00000000000E+00 0. -1.
<scales pt_clust_5="13000.00000" pt_clust_6="13000.00000" pt_clust_7="13000.00000" pt_clust_8="13000.00000" pt_clust_9="39.19889"></scales>
<clustering>
<clus scale="   39.199">  1  9  2 -1</clus>
<clus scale="   85.829">  5  6 -1 -1</clus>
<clus scale="   90.590">  2  5  1 -1</clus>
<clus scale="   91.534">  7  8 -1 -1</clus>
<clus scale="   39.199">  1  5  2 -1</clus>
</clustering>
</event>
<event>
 9    2  0.4883225E-005  0.1714454E+03  0.7546771E-02  0.1177642E+00
         21   -1    0    0  501  502  0.00000000000E+00  0.00000000000E+00  0.44510959570E+02  0.44510959570E+02  0.00000000000E+00 0.  1.
         -1   -1    0    0    0  501 -0.00000000000E+00 -0.00000000000E+00 -0.12314961839E+04  0.12314961839E+04  0.00000000000E+00 0.  1.
         23    2    1    2    0    0 -0.82123895903E+02 -0.15412503253E+03 -0.51153152921E+03  0.54808566434E+03  0.90744311934E+02 0.  0.
         24    2    1    2    0    0  0.77928032529E+02  0.79236215139E+02 -0.17852327547E+03  0.22536224659E+03  0.81033488505E+02 0.  0.
        -13    1    4    4    0    0  0.47691992269E+02  0.14530224704E+02 -0.24426577786E+02  0.55518566794E+02  0.00000000000E+00 0.  1.
         14    1    4    4    0    0  0.30236040261E+02  0.64705990435E+02 -0.15409669769E+03  0.16984367980E+03  0.00000000000E+00 0. -1.
        -13    1    3    3    0    0  0.24476719419E+01 -0.41667088447E+02 -0.22535044406E+03  0.22918324545E+03  0.00000000000E+00 0. -1.
         13    1    3    3    0    0 -0.84571567845E+02 -0.11245794409E+03 -0.28618108514E+03  0.31890241888E+03  0.00000000000E+00 0.  1.
         -2    1    1    2    0  502  0.41958633733E+01  0.74888817393E+02 -0.49693041965E+03  0.50255923255E+03  0.00000000000E+00 0.  1.
<scales pt_clust_5="13000.00000" pt_clust_6="13000.00000" pt_clust_7="13000.00000" pt_clust_8="13000.00000" pt_clust_9="75.00631"></scales>
<clustering>
<clus scale="   75.006">  1  9  2 -1</clus>
<clus scale="   81.033">  5  6 -1 -1</clus>
<clus scale="   90.744">  7  8 -1 -1</clus>
<clus scale="  166.510">  1  5  2 -1</clus>
<clus scale="   75.006">  1  5  2 -1</clus>
</clustering>
</event>
<event>
 9    2  0.4883225E-005  0.1183794E+03  0.7546771E-02  0.1251922E+00
          2   -1    0    0  502    0 -0.00000000000E+00  0.00000000000E+00  0.42903430593E+03  0.42903430593E+03  0.00000000000E+00 0. -1.
         21   -1    0    0  501  502  0.00000000000E+00 -0.00000000000E+00 -0.41789883708E+02  0.41789883708E+02  0.00000000000E+00 0.  1.
         24    2    1    2    0    0  0.82178186465E+02 -0.24792308823E+02  0.19534113546E+03  0.22451853148E+03  0.69874880097E+02 0.  0.
         23    2    1    2    0    0 -0.67703760884E+02 -0.42495028680E+01  0.10477682807E+03  0.15333278240E+03  0.89055605917E+02 0.  0.
        -11    1    3    3    0    0  0.33541756673E+02  0.21572493330E+02  0.10189513299E+03  0.10942138747E+03  0.00000000000E+00 0.  1.
         12    1    3    3    0    0  0.48636429792E+02 -0.46364802153E+02  0.93446002465E+02  0.11509714401E+03  0.00000000000E+00 0. -1.
        -11    1    4    4    0    0 -0.30515597773E+02 -0.51277543893E+01 -0.10126417712E+02  0.32558254072E+02  0.00000000000E+00 0.  1.
         11    1    4    4    0    0 -0.37188163111E+02  0.87825152130E+00  0.11490324578E+03  0.12077452833E+03  0.00000000000E+00 0. -1.
          1    1    1    2  501    0 -0.14474425581E+02  0.29041811691E+02  0.87126458702E+02  0.92972875765E+02  0.00000000000E+00 0. -1.
<scales pt_clust_5="13000.00000" pt_clust_6="13000.00000" pt_clust_7="13000.00000" pt_clust_8="13000.00000" pt_clust_9="32.44899"></scales>
<clustering>
<clus scale="   32.449">  2  9  1 -1</clus>
<clus scale="   69.875">  5  6 -1 -1</clus>
<clus scale="   89.056">  7  8 -1 -1</clus>
<clus scale="  104.715">  1  5  2 -1</clus>
<clus scale="   32.449">  2  5  1 -1</clus>
</clustering>
</event>
<event>
 9    2  0.4883225E-005  0.1457454E+03  0.7546771E-02  0.1224515E+00
          2   -1    0    0  502    0 -0.00000000000E+00  0.00000000000E+00  0.17880574974E+04  0.17880574974E+04  0.00000000000E+00 0. -1.
         21   -1    0    0  501  502  0.00000000000E+00 -0.00000000000E+00 -0.50479489066E+02  0.50479489066E+02  0.00000000000E+00 0. -1.
         23    2    1    2    0    0 -0.37726687719E+02  0.76796811785E+01  0.20874591955E+02  0.10026727337E+03  0.90196990248E+02 0.  0.
         24    2    1    2    0    0  0.11498286427E+03  0.73928923329E+02  0.10850752702E+04  0.10967226796E+04  0.82010664989E+02 0.  0.
        -13    1    4    4    0    0  0.46714213583E+02  0.73288327655E+02  0.47965831843E+03  0.48746845966E+03  0.00000000000E+00 0.  1.
         14    1    4    4    0    0  0.68268650691E+02  0.64059567425E+00  0.60541695181E+03  0.60925421999E+03  0.00000000000E+00 0. -1.
        -11    1    3    3    0    0 -0.30109365353E+02 -0.35345364243E+02  0.30464181497E+02  0.55533188362E+02  0.00000000000E+00 0.  1.
         11    1    3    3    0    0 -0.76173223665E+01  0.43025045421E+02 -0.95895895427E+01  0.44734085004E+02  0.00000000000E+00 0. -1.
          1    1    1    2  501    0 -0.77256176555E+02 -0.81608604507E+02  0.63162814617E+03  0.64154703349E+03  0.00000000000E+00 0. -1.
<scales pt_clust_5="13000.00000" pt_clust_6="13000.00000" pt_clust_7="13000.00000" pt_clust_8="13000.00000" pt_clust_9="120.48223"></scales>
<clustering>
<clus scale="   82.011">  5  6 -1 -1</clus>
<clus scale="   90.197">  7  8 -1 -1</clus>
<clus scale="   98.070">  1  7  2 -1</clus>
<clus scale="  120.482">  2  9  1 -1</clus>
<clus scale="  120.482">  2  5  1 -1</clus>
</clustering>
</event>
<event>
 9    2  0.4883225E-005  0.9939845E+02  0.7546771E-02  0.1286468E+00
          2   -1    0    0  502    0 -0.00000000000E+00  0.00000000000E+00  0.60855206406E+03  0.60855206406E+03  0.00000000000E+00 0. -1.
         21   -1    0    0  501  502  0.00000000000E+00 -0.00000000000E+00 -0.26294053608E+02  0.26294053608E+02  0.00000000000E+00 0.  1.
         23    2    1    2    0    0  0.21162453205E+01 -0.41095875212E+02  0.45052819816E+03  0.46172743411E+03  0.92321268521E+02 0.  0.
         24    2    1    2    0    0  0.88724839321E+01  0.22759770853E+02  0.82253217841E+02  0.11922157517E+03  0.82773570665E+02 0.  0.
        -11    1    4    4    0    0  0.31217109848E+01  0.33578622401E+02 -0.22843879935E+01  0.33800701033E+02  0.00000000000E+00 0.  1.
         12    1    4    4    0    0  0.57507729473E+01 -0.10818851548E+02  0.84537605835E+02  0.85420874138E+02  0.00000000000E+00 0. -1.
        -11    1    3    3    0    0  0.18843413088E+02 -0.67342403148E+02  0.30704559664E+03  0.31490803720E+03  0.00000000000E+00 0. -1.
         11    1    3    3    0    0 -0.16727167767E+02  0.26246527936E+02  0.14348260152E+03  0.14681939691E+03  0.00000000000E+00 0.  1.
          1    1    1    2  501    0 -0.10988729253E+02  0.18336104359E+02  0.49476594457E+02  0.53897108389E+02  0.00000000000E+00 0. -1.
<scales pt_clust_5="13000.00000" pt_clust_6="13000.00000" pt_clust_7="13000.00000" pt_clust_8="13000.00000" pt_clust_9="21.37675"></scales>
<clustering>
<clus scale="   21.377">  2  9  1 -1</clus>
<clus scale="   82.774">  5  6 -1 -1</clus>
<clus scale="   90.600">  2  5  1 -1</clus>
<clus scale="   92.321">  7  8 -1 -1</clus>
<clus scale="   21.377">  2  5  1 -1</clus>
</clustering>
</event>
<event>
 9    2  0.4883225E-005  0.9731110E+02  0.7546771E-02  0.1292906E+00
         21   -1    0    0  501  502  0.00000000000E+00  0.00000000000E+00  0.56966516917E+03  0.56966516917E+03  0.00000000000E+00 0. -1.
          2   -1    0    0  502    0 -0.00000000000E+00 -0.00000000000E+00 -0.46189442081E+02  0.46189442081E+02  0.00000000000E+00 0. -1.
         24    2    1    2    0    0 -0.55985378162E+02  0.11116427640E+02  0.68048340669E+02  0.11866058346E+03  0.78688117703E+02 0.  0.
         23    2    1    2    0    0 -0.38983985207E+02 -0.27670671952E+02  0.23404323085E+03  0.25573146896E+03  0.91306807623E+02 0.  0.
        -11    1    3    3    0    0 -0.36516518938E+02  0.44748986801E+02  0.34188651623E+02  0.67117746348E+02  0.00000000000E+00 0.  1.
         12    1    3    3    0    0 -0.19468859224E+02 -0.33632559161E+02  0.33859689045E+02  0.51542837111E+02  0.00000000000E+00 0. -1.
        -13    1    4    4    0    0 -0.20025191458E+01 -0.39426991367E+02  0.20076992567E+03  0.20461441978E+03  0.00000000000E+00 0.  1.
         13    1    4    4    0    0 -0.36981466061E+02  0.11756319415E+02  0.33273305184E+02  0.51117049172E+02  0.00000000000E+00 0. -1.
          1    1    1    2  501    0  0.94969363368E+02  0.16554244312E+02  0.22138415557E+03  0.24146255884E+03  0.00000000000E+00 0. -1.
<scales pt_clust_5="13000.00000" pt_clust_6="13000.00000" pt_clust_7="13000.00000" pt_clust_8="13000.00000" pt_clust_9="96.40136"></scales>
<clustering>
<clus scale="   78.688">  5  6 -1 -1</clus>
<clus scale="   91.307">  7  8 -1 -1</clus>
<clus scale="   96.401">  1  9  2 -1</clus>
<clus scale="   85.582">  2  5  1 -1</clus>
<clus scale="   96.401">  1  5  2 -1</clus>
</clustering>
</event>
<event>
 9    2  0.4883225E-005  0.9208141E+02  0.7546771E-02  0.1299413E+00
         21   -1    0    0  501  502  0.00000000000E+00  0.00000000000E+00  0.34041484516E+02  0.34041484516E+02  0.00000000000E+00 0. -1.
          2   -1    0    0  502    0 -0.00000000000E+00 -0.00000000000E+00 -0.47662190091E+03  0.47662190091E+03  0.00000000000E+00 0. -1.
         24    2    1    2    0    0  0.21667813578E+01 -0.17818504115E+02 -0.11772578677E+03  0.14412252182E+03  0.81177252944E+02 0.  0.
         23    2    1    2    0    0 -0.46975102408E+02  0.57765196103E+02 -0.18292992746E+03  0.21244302156E+03  0.78263662866E+02 0.  0.
        -13    1    3    3    0    0  0.26380852503E+02 -0.40160659765E+02 -0.85258970599E+02  0.97866848519E+02  0.00000000000E+00 0.  1.
         14    1    3    3    0    0 -0.24214071145E+02  0.22342155649E+02 -0.32466816174E+02  0.46255673305E+02  0.00000000000E+00 0. -1.
        -11    1    4    4    0    0 -0.38532855543E+02  0.20474888178E+01 -0.12822045030E+03  0.13390092249E+03  0.00000000000E+00 0.  1.
         11    1    4    4    0    0 -0.84422468648E+01  0.55717707285E+02 -0.54709477154E+02  0.78542099078E+02  0.00000000000E+00 0. -1.
          1    1    1    2  501    0  0.44808321050E+02 -0.39946691987E+02 -0.14192470216E+03  0.15409784204E+03  0.00000000000E+00 0. -1.
<scales pt_clust_5="13000.00000" pt_clust_6="13000.00000" pt_clust_7="13000.00000" pt_clust_8="13000.00000" pt_clust_9="60.02939"></scales>
<clustering>
<clus scale="   60.029">  1  9  2 -1</clus>
<clus scale="   78.264">  7  8 -1 -1</clus>
<clus scale="   81.177">  5  6 -1 -1</clus>
<clus scale="   89.523">  1  7  2 -1</clus>
<clus scale="   60.029">  1  5  2 -1</clus>
</clustering>
</event>
<event>
 9    2  0.4883225E-005  0.1126310E+03  0.7546771E-02  0.1259829E+00
         21   -1    0    0  501  502  0.00000000000E+00  0.00000000000E+00  0.22321997166E+03  0.22321997166E+03  0.00000000000E+00 0.  1.
          2   -1    0    0  502    0 -0.00000000000E+00 -0.00000000000E+00 -0.17361919474E+03  0.17361919474E+03  0.00000000000E+00 0. -1.
         23    2    1    2    0    0  0.51383994995E+02 -0.61136382927E+02 -0.65059249557E+02  0.13791646516E+03  0.91707541409E+02 0.  0.
         24    2    1    2    0    0 -0.57986626277E+01 -0.34151459108E+01  0.15140995080E+03  0.17177065399E+03  0.80838707695E+02 0.  0.
        -13    1    4    4    0    0 -0.17323233604E+02 -0.32198746866E+02  0.12743757906E+03  0.13257899637E+03  0.00000000000E+00 0.  1.
         14    1    4    4    0    0  0.11524570976E+02  0.28783600956E+02  0.23972371737E+02  0.39191657618E+02  0.00000000000E+00 0. -1.
        -13    1    3    3    0    0  0.76412012249E+02 -0.51289046200E+02 -0.37405341189E+02  0.99340431978E+02  0.00000000000E+00 0.  1.
         13    1    3    3    0    0 -0.25028017255E+02 -0.98473367268E+01 -0.27653908367E+02  0.38576033185E+02  0.00000000000E+00 0. -1.
          1    1    1    2  501    0 -0.45585332367E+02  0.64551528838E+02 -0.36749924314E+02  0.87152047247E+02  0.00000000000E+00 0. -1.
<scales pt_clust_5="13000.00000" pt_clust_6="13000.00000" pt_clust_7="13000.00000" pt_clust_8="13000.00000" pt_clust_9="79.02486"></scales>
<clustering>
<clus scale="   79.025">  1  9  2 -1</clus>
<clus scale="   80.839">  5  6 -1 -1</clus>
<clus scale="   91.708">  7  8 -1 -1</clus>
<clus scale="  103.973">  1  5  2 -1</clus>
<clus scale="   79.025">  1  5  2 -1</clus>
</clustering>
</event>
<event>
 9    2  0.4883225E-005  0.1246857E+03  0.7546771E-02  0.1246662E+00
         -3   -1    0    0    0  501 -0.00000000000E+00  0.00000000000E+00  0.31005135937E+03  0.31005135937E+03  0.00000000000E+00 0.  1.
         21   -1    0    0  501  502  0.00000000000E+00 -0.00000000000E+00 -0.10949413612E+03  0.10949413612E+03  0.00000000000E+00 0. -1.
         24    2    1    2    0    0 -0.19817083775E+01 -0.58898462631E+02  0.11105164267E+03  0.14914566344E+03  0.80243414151E+02 0.  0.
         23    2    1    2    0    0  0.79914518494E+02 -0.97675780394E+01 -0.14701440922E+02  0.12326842357E+03  0.92180453658E+02 0.  0.
        -13    1    3    3    0    0 -0.37350641259E+02 -0.15722884231E+02  0.28683817388E+02  0.49649177948E+02  0.00000000000E+00 0.  1.
         14    1    3    3    0    0  0.35368932881E+02 -0.43175578400E+02  0.82367825286E+02  0.99496485494E+02  0.00000000000E+00 0. -1.
        -11    1    4    4    0    0  0.25325929174E+02 -0.48985908170E+02 -0.79175711927E+01  0.55710948846E+02  0.00000000000E+00 0.  1.
         11    1    4    4    0    0  0.54588589319E+02  0.39218330131E+02 -0.67838697290E+01  0.67557474721E+02  0.00000000000E+00 0. -1.
         -4    1    1    2    0  502 -0.77932810116E+02  0.68666040670E+02  0.10420702150E+03  0.14713140849E+03  0.00000000000E+00 0.  1.
<scales pt_clust_5="13000.00000" pt_clust_6="13000.00000" pt_clust_7="13000.00000" pt_clust_8="13000.00000" pt_clust_9="83.96012"></scales>
<clustering>
<clus scale="   80.243">  5  6 -1 -1</clus>
<clus scale="   92.180">  7  8 -1 -1</clus>
<clus scale="   99.559">  1  5  2 -1</clus>
<clus scale="   83.960">  2  9  1 -1</clus>
<clus scale="   83.960">  2  5  1 -1</clus>
</clustering>
</event>
<event>
 9    2  0.4883225E-005  0.9519909E+02  0.7546771E-02  0.1296787E+00
         21   -1    0    0  501  502  0.00000000000E+00  0.00000000000E+00  0.47246508263E+02  0.47246508263E+02  0.00000000000E+00 0. -1.
          2   -1    0    0  502    0 -0.00000000000E+00 -0.00000000000E+00 -0.50841833873E+03  0.50841833873E+03  0.00000000000E+00 0. -1.
         24    2    1    2    0    0 -0.64501755776E+01 -0.36804320223E+02 -0.36394692303E+03  0.37459618284E+03  0.80428693043E+02 0.  0.
         23    2    1    2    0    0  0.67141977738E+01 -0.21970870319E+02 -0.58223049191E+02  0.11052975519E+03  0.91099416739E+02 0.  0.
        -11    1    3    3    0    0  0.13102775389E+02  0.21446990935E+02 -0.72211757167E+02  0.76460408161E+02  0.00000000000E+00 0.  1.
         12    1    3    3    0    0 -0.19552950966E+02 -0.58251311158E+02 -0.29173516587E+03  0.29813577468E+03  0.00000000000E+00 0. -1.
        -11    1    4    4    0    0 -0.19944575858E+02 -0.50452667010E+02 -0.40387781924E+02  0.67634537356E+02  0.00000000000E+00 0. -1.
         11    1    4    4    0    0  0.26658773632E+02  0.28481796691E+02 -0.17835267267E+02  0.42895217831E+02  0.00000000000E+00 0.  1.
          1    1    1    2  501    0 -0.26402219621E+00  0.58775190543E+02 -0.39001858244E+02  0.70538908962E+02  0.00000000000E+00 0. -1.
<scales pt_clust_5="13000.00000" pt_clust_6="13000.00000" pt_clust_7="13000.00000" pt_clust_8="13000.00000" pt_clust_9="58.77578"></scales>
<clustering>
<clus scale="   58.776">  1  9  2 -1</clus>
<clus scale="   80.429">  5  6 -1 -1</clus>
<clus scale="   85.044">  2  5  1 -1</clus>
<clus scale="   91.099">  7  8 -1 -1</clus>
<clus scale="   58.776">  1  5  2 -1</clus>
</clustering>
</event>
<event>
 9    2  0.4883225E-005  0.2428410E+03  0.7546771E-02  0.1130235E+00
         21   -1    0    0  501  502  0.00000000000E+00  0.00000000000E+00  0.31449600005E+03  0.31449600005E+03  0.00000000000E+00 0. -1.
          2   -1    0    0  502    0 -0.00000000000E+00 -0.00000000000E+00 -0.63362365236E+03  0.63362365236E+03  0.00000000000E+00 0. -1.
         24    2    1    2    0    0 -0.15020428464E+03  0.63009797127E+02  0.47909017600E+02  0.18515694763E+03  0.73866498703E+02 0.  0.
         23    2    1    2    0    0  0.29666366356E+03 -0.20348524372E+03 -0.41257281309E+03  0.55497895276E+03  0.91486273398E+02 0.  0.
        -11    1    3    3    0    0 -0.36065360096E+02 -0.36185632709E+01 -0.14450663156E+02  0.39020838851E+02  0.00000000000E+00 0.  1.
         12    1    3    3    0    0 -0.11413892454E+03  0.66628360397E+02  0.62359680756E+02  0.14613610878E+03  0.00000000000E+00 0. -1.
        -11    1    4    4    0    0  0.16202978221E+02 -0.23408218821E+02 -0.76651332465E+02  0.81767401697E+02  0.00000000000E+00 0.  1.
         11    1    4    4    0    0  0.28046068534E+03 -0.18007702490E+03 -0.33592148062E+03  0.47321155106E+03  0.00000000000E+00 0. -1.
          1    1    1    2  501    0 -0.14645937892E+03  0.14047544659E+03  0.45536143181E+02  0.20798375202E+03  0.00000000000E+00 0. -1.
<scales pt_clust_5="13000.00000" pt_clust_6="13000.00000" pt_clust_7="13000.00000" pt_clust_8="13000.00000" pt_clust_9="224.94887"></scales>
<clustering>
<clus scale="   73.866">  5  6 -1 -1</clus>
<clus scale="   91.486">  7  8 -1 -1</clus>
<clus scale="  178.851">  2  5  1 -1</clus>
<clus scale="  224.949">  1  9  2 -1</clus>
<clus scale="  224.949">  1  5  2 -1</clus>
</clustering>
</event>
<event>
 9    2  0.4883225E-005  0.1194530E+03  0.7546771E-02  0.1250493E+00
         21   -1    0    0  501  502  0.00000000000E+00  0.00000000000E+00  0.20307688156E+03  0.20307688156E+03  0.00000000000E+00 0.  1.
         -3   -1    0    0    0  501 -0.00000000000E+00 -0.00000000000E+00 -0.16335326798E+03  0.16335326798E+03  0.00000000000E+00 0.  1.
         23    2    1    2    0    0  0.59664542024E+02 -0.38898900366E+02 -0.74250368391E+02  0.14222914290E+03  0.98198930035E+02 0.  0.
         24    2    1    2    0    0 -0.49873503865E+02  0.19018864026E+02  0.15223513976E+03  0.17998566463E+03  0.79813646197E+02 0.  0.
        -11    1    4    4    0    0 -0.88768255272E+01  0.23333660489E+02  0.13148611160E+03  0.13383517956E+03  0.00000000000E+00 0.  1.
         12    1    4    4    0    0 -0.40996678338E+02 -0.43147964633E+01  0.20749028160E+02  0.46150485077E+02  0.00000000000E+00 0. -1.
        -13    1    3    3    0    0  0.83688468243E+02 -0.46789110308E+02 -0.55895770997E+02  0.11098341216E+03  0.00000000000E+00 0.  1.
         13    1    3    3    0    0 -0.24023926218E+02  0.78902099424E+01 -0.18354597394E+02  0.31245730738E+02  0.00000000000E+00 0. -1.
         -4    1    1    2    0  502 -0.97910381590E+01  0.19880036340E+02 -0.38261157794E+02  0.44215342007E+02  0.00000000000E+00 0.  1.
<scales pt_clust_5="13000.00000" pt_clust_6="13000.00000" pt_clust_7="13000.00000" pt_clust_8="13000.00000" pt_clust_9="22.16034"></scales>
<clustering>
<clus scale="   22.160">  1  9  2 -1</clus>
<clus scale="   79.814">  5  6 -1 -1</clus>
<clus scale="   98.199">  7  8 -1 -1</clus>
<clus scale="  104.863">  1  5  2 -1</clus>
<clus scale="   22.160">  1  5  2 -1</clus>
</clustering>
</event>
<event>
 9    2  0.4883225E-005  0.2315546E+03  0.7546771E-02  0.1154271E+00
         21   -1    0    0  501  502  0.00000000000E+00  0.00000000000E+00  0.81941923495E+02  0.81941923495E+02  0.00000000000E+00 0. -1.
          2   -1    0    0  502    0 -0.00000000000E+00 -0.00000000000E+00 -0.10012503685E+04  0.10012503685E+04  0.00000000000E+00 0. -1.
         23    2    1    2    0    0  0.68510101584E+02 -0.19961979940E+02 -0.17037570369E+03  0.20600160510E+03  0.91195757761E+02 0.  0.
         24    2    1    2    0    0 -0.24509221239E+03  0.47055941669E+02 -0.32929951692E+03  0.42111243962E+03  0.81320727613E+02 0.  0.
        -11    1    4    4    0    0 -0.83687462346E+02 -0.10302002857E+02 -0.66364428654E+02  0.10730312208E+03  0.00000000000E+00 0.  1.
         12    1    4    4    0    0 -0.16140475005E+03  0.57357944526E+02 -0.26293508826E+03  0.31380931754E+03  0.00000000000E+00 0. -1.
        -13    1    3    3    0    0  0.19797672569E+02 -0.50397408062E+02 -0.55340863861E+02  0.77423883856E+02  0.00000000000E+00 0. -1.
         13    1    3    3    0    0  0.48712429015E+02  0.30435428122E+02 -0.11503483983E+03  0.12857772125E+03  0.00000000000E+00 0.  1.
          1    1    1    2  501    0  0.17658211081E+03 -0.27093961729E+02 -0.41963322444E+03  0.45607824731E+03  0.00000000000E+00 0. -1.
<scales pt_clust_5="13000.00000" pt_clust_6="13000.00000" pt_clust_7="13000.00000" pt_clust_8="13000.00000" pt_clust_9="216.80521"></scales>
<clustering>
<clus scale="   81.321">  5  6 -1 -1</clus>
<clus scale="   91.196">  7  8 -1 -1</clus>
<clus scale="  115.796">  2  7  1 -1</clus>
<clus scale="  216.805">  1  9  2 -1</clus>
<clus scale="  216.805">  1  5  2 -1</clus>
</clustering>
</event>
<event>
 9    2  0.4883225E-005  0.1007445E+03  0.7546771E-02  0.1282605E+00
         21   -1    0    0  501  502  0.00000000000E+00  0.00000000000E+00  0.30960603131E+03  0.30960603131E+03  0.00000000000E+00 0.  1.
         -1   -1    0    0    0  501 -0.00000000000E+00 -0.00000000000E+00 -0.34791890808E+03  0.34791890808E+03  0.00000000000E+00 0.  1.
         24    2    1    2    0    0 -0.42448435342E+02 -0.23345888002E+02 -0.31224317838E+03  0.32591686176E+03  0.79869256815E+02 0.  0.
         23    2    1    2    0    0  0.31395162057E+02  0.54727960541E+02  0.79667053106E+02  0.13451617256E+03  0.88130332264E+02 0.  0.
        -13    1    3    3    0    0 -0.63338153045E+02 -0.13746487653E+02 -0.17208365913E+03  0.18388440198E+03  0.00000000000E+00 0.  1.
         14    1    3    3    0    0  0.20889717704E+02 -0.95994003486E+01 -0.14015951925E+03  0.14203245977E+03  0.00000000000E+00 0. -1.
        -13    1    4    4    0    0  0.13249613135E+02 -0.23531211513E+02  0.12305161421E+02  0.29676373786E+02  0.00000000000E+00 0.  1.
         13    1    4    4    0    0  0.18145548922E+02  0.78259172054E+02  0.67361891685E+02  0.10483979878E+03  0.00000000000E+00 0. -1.
         -2    1    1    2    0  502  0.11053273285E+02 -0.31382072539E+02  0.19426324850E+03  0.19709190507E+03  0.00000000000E+00 0.  1.
<scales pt_clust_5="13000.00000" pt_clust_6="13000.00000" pt_clust_7="13000.00000" pt_clust_8="13000.00000" pt_clust_9="33.27175"></scales>
<clustering>
<clus scale="   33.272">  1  9  2 -1</clus>
<clus scale="   79.869">  5  6 -1 -1</clus>
<clus scale="   88.130">  7  8 -1 -1</clus>
<clus scale="   93.603">  2  5  1 -1</clus>
<clus scale="   33.272">  1  5  2 -1</clus>
</clustering>
</event>
<event>
 9    2  0.4883225E-005  0.1151567E+03  0.7546771E-02  0.1253439E+00
         21   -1    0    0  501  502  0.00000000000E+00  0.00000000000E+00  0.19343696165E+03  0.19343696165E+03  0.00000000000E+00 0. -1.
          2   -1    0    0  502    0 -0.00000000000E+00 -0.00000000000E+00 -0.18825071260E+03  0.18825071260E+03  0.00000000000E+00 0. -1.
         23    2    1    2    0    0 -0.19794569970E+02 -0.62414401987E+02 -0.49864057362E+02  0.11973508049E+03  0.86963686146E+02 0.  0.
         24    2    1    2    0    0  0.37421284513E+02  0.76903574659E+02 -0.68722460977E+02  0.13609420057E+03  0.80525414965E+02 0.  0.
        -11    1    4    4    0    0  0.42788028212E+02  0.26718479460E+01 -0.28687188636E+02  0.51583998697E+02  0.00000000000E+00 0.  1.
         12    1    4    4    0    0 -0.53667436989E+01  0.74231726713E+02 -0.40035272340E+02  0.84510201870E+02  0.00000000000E+00 0. -1.
        -11    1    3    3    0    0 -0.24503354215E+02 -0.39793100431E+02  0.16424772854E+02  0.49534617925E+02  0.00000000000E+00 0.  1.
         11    1    3    3    0    0  0.47087842445E+01 -0.22621301557E+02 -0.66288830216E+02  0.70200462567E+02  0.00000000000E+00 0. -1.
          1    1    1    2  501    0 -0.17626714542E+02 -0.14489172672E+02  0.12377276739E+03  0.12585839320E+03  0.00000000000E+00 0. -1.
<scales pt_clust_5="13000.00000" pt_clust_6="13000.00000" pt_clust_7="13000.00000" pt_clust_8="13000.00000" pt_clust_9="22.81748"></scales>
<clustering>
<clus scale="   22.817">  1  9  2 -1</clus>
<clus scale="   80.525">  5  6 -1 -1</clus>
<clus scale="   86.964">  7  8 -1 -1</clus>
<clus scale="  110.375">  1  5  2 -1</clus>
<clus scale="   22.817">  1  5  2 -1</clus>
</clustering>
</event>
<event>
 9    2  0.4883225E-005  0.9575866E+02  0.7546771E-02  0.1296424E+00
         21   -1    0    0  501  502  0.00000000000E+00  0.00000000000E+00  0.77257158624E+03  0.77257158624E+03  0.00000000000E+00 0. -1.
          4   -1    0    0  502    0 -0.00000000000E+00 -0.00000000000E+00 -0.22393964815E+02  0.22393964815E+02  0.00000000000E+00 0. -1.
         23    2    1    2    0    0 -0.92126515799E+01 -0.49466838653E+02  0.22156274693E+03  0.24502767785E+03  0.91742416642E+02 0.  0.
         24    2    1    2    0    0  0.17014219174E+02 -0.14534243624E+02  0.36143229274E+03  0.37075355851E+03  0.79524656681E+02 0.  0.
        -11    1    4    4    0    0 -0.22949883354E+02  0.18950231967E+02  0.15558218411E+03  0.15840335997E+03  0.00000000000E+00 0.  1.
         12    1    4    4    0    0  0.39964102528E+02 -0.33484475591E+02  0.20585010863E+03  0.21235019854E+03  0.00000000000E+00 0. -1.
        -11    1    3    3    0    0 -0.38100910409E+02 -0.46598589808E+02  0.20001090982E+03  0.20887190332E+03  0.00000000000E+00 0.  1.
         11    1    3    3    0    0  0.28888258830E+02 -0.28682488447E+01  0.21551837102E+02  0.36155774533E+02  0.00000000000E+00 0. -1.
          3    1    1    2  501    0 -0.78015675937E+01  0.64001082277E+02  0.16718258176E+03  0.17918431469E+03  0.00000000000E+00 0. -1.
<scales pt_clust_5="13000.00000" pt_clust_6="13000.00000" pt_clust_7="13000.00000" pt_clust_8="13000.00000" pt_clust_9="64.47486"></scales>
<clustering>
<clus scale="   64.475">  1  9  2 -1</clus>
<clus scale="   79.525">  5  6 -1 -1</clus>
<clus scale="   84.126">  1  5  2 -1</clus>
<clus scale="   91.742">  7  8 -1 -1</clus>
<clus scale="   64.475">  1  5  2 -1</clus>
</clustering>
</event>
<event>
 9    2  0.4883225E-005  0.1507752E+03  0.7546771E-02  0.1222170E+00
         21   -1    0    0  501  502  0.00000000000E+00  0.00000000000E+00  0.17929785961E+03  0.17929785961E+03  0.00000000000E+00 0. -1.
          2   -1    0    0  502    0 -0.00000000000E+00 -0.00000000000E+00 -0.29824641741E+03  0.29824641741E+03  0.00000000000E+00 0. -1.
         23    2    1    2    0    0 -0.15495237427E+02 -0.27670495121E+00 -0.11702579010E+03  0.14949476421E+03  0.91724969496E+02 0.  0.
         24    2    1    2    0    0 -0.92913045814E+02  0.72035373611E+02 -0.92185133313E+02  0.16978088975E+03  0.80656819830E+02 0.  0.
        -11    1    4    4    0    0 -0.28190977984E+02  0.31395781329E+02 -0.82607139160E+02  0.92759720596E+02  0.00000000000E+00 0.  1.
         12    1    4    4    0    0 -0.64722067830E+02  0.40639592282E+02 -0.95779941531E+01  0.77021169149E+02  0.00000000000E+00 0. -1.
        -13    1    3    3    0    0  0.32911713955E+02  0.45634702704E+01 -0.14982493225E+02  0.36448337131E+02  0.00000000000E+00 0.  1.
         13    1    3    3    0    0 -0.48406951381E+02 -0.48401752216E+01 -0.10204329687E+03  0.11304642708E+03  0.00000000000E+00 0. -1.
          1    1    1    2  501    0  0.10840828324E+03 -0.71758668660E+02  0.90262365614E+02  0.15826862307E+03  0.00000000000E+00 0. -1.
<scales pt_clust_5="13000.00000" pt_clust_6="13000.00000" pt_clust_7="13000.00000" pt_clust_8="13000.00000" pt_clust_9="127.38776"></scales>
<clustering>
<clus scale="   80.657">  5  6 -1 -1</clus>
<clus scale="   91.725">  7  8 -1 -1</clus>
<clus scale="   93.025">  2  7  1 -1</clus>
<clus scale="  127.388">  1  9  2 -1</clus>
<clus scale="  127.388">  1  5  2 -1</clus>
</clustering>
</event>
<event>
 9    2  0.4883225E-005  0.1039887E+03  0.7546771E-02  0.1274148E+00
         21   -1    0    0  501  502  0.00000000000E+00  0.00000000000E+00  0.35141915750E+03  0.35141915750E+03  0.00000000000E+00 0. -1.
         -1   -1    0    0    0  501 -0.00000000000E+00 -0.00000000000E+00 -0.26209904028E+03  0.26209904028E+03  0.00000000000E+00 0.  1.
         24    2    1    2    0    0  0.29141698968E+01  0.42385185221E+02 -0.23898239262E+03  0.26082614942E+03  0.95460462634E+02 0.  0.
         23    2    1    2    0    0 -0.57539106011E+01 -0.18889508875E+02  0.18203603545E+03  0.20452325115E+03  0.91119268156E+02 0.  0.
        -11    1    3    3    0    0 -0.23870123075E+02  0.65030414353E+02 -0.15215750295E+03  0.16718445882E+03  0.00000000000E+00 0.  1.
         12    1    3    3    0    0  0.26784292972E+02 -0.22645229132E+02 -0.86824889666E+02  0.93641690598E+02  0.00000000000E+00 0. -1.
        -13    1    4    4    0    0  0.10060855077E+02 -0.53300870124E+02  0.12237027663E+03  0.13385323367E+03  0.00000000000E+00 0. -1.
         13    1    4    4    0    0 -0.15814765678E+02  0.34411361249E+02  0.59665758814E+02  0.70670017485E+02  0.00000000000E+00 0.  1.
         -2    1    1    2    0  502  0.28397407043E+01 -0.23495676346E+02  0.14626647439E+03  0.14816879720E+03  0.00000000000E+00 0.  1.
<scales pt_clust_5="13000.00000" pt_clust_6="13000.00000" pt_clust_7="13000.00000" pt_clust_8="13000.00000" pt_clust_9="23.66666"></scales>
<clustering>
<clus scale="   23.667">  1  9  2 -1</clus>
<clus scale="   91.119">  7  8 -1 -1</clus>
<clus scale="   95.460">  5  6 -1 -1</clus>
<clus scale="  100.018">  1  7  2 -1</clus>
<clus scale="   23.667">  1  5  2 -1</clus>
</clustering>
</event>
<event>
 9    2  0.4883225E-005  0.9523996E+02  0.7546771E-02  0.1290825E+00
         -1   -1    0    0    0  501 -0.00000000000E+00  0.00000000000E+00  0.53600626196E+03  0.53600626196E+03  0.00000000000E+00 0.  1.
         21   -1    0    0  501  502  0.00000000000E+00 -0.00000000000E+00 -0.31687480959E+02  0.31687480959E+02  0.00000000000E+00 0.  1.
         24    2    1    2    0    0 -0.20590813748E+01  0.17728510989E+02  0.32281000201E+03  0.33618454879E+03  0.92169482624E+02 0.  0.
         23    2    1    2    0    0 -0.36138274546E+02 -0.29286868745E+02  0.13696308652E+03  0.17170156626E+03  0.92514027155E+02 0.  0.
        -11    1    3    3    0    0 -0.12224069906E+02  0.51064057320E+02  0.25011855761E+03  0.25557045740E+03  0.00000000000E+00 0.  1.
         12    1    3    3    0    0  0.10164988531E+02 -0.33335546331E+02  0.72691444399E+02  0.80614091384E+02  0.00000000000E+00 0. -1.
        -11    1    4    4    0    0 -0.50941170491E+00 -0.23367715490E+02  0.13337391443E+03  0.13540646468E+03  0.00000000000E+00 0.  1.
         11    1    4    4    0    0 -0.35628862841E+02 -0.59191532545E+01  0.35891720912E+01  0.36295101582E+02  0.00000000000E+00 0. -1.
         -2    1    1    2    0  502  0.38197355920E+02  0.11558357756E+02  0.44545692467E+02  0.59807627864E+02  0.00000000000E+00 0.  1.
<scales pt_clust_5="13000.00000" pt_clust_6="13000.00000" pt_clust_7="13000.00000" pt_clust_8="13000.00000" pt_clust_9="39.90781"></scales>
<clustering>
<clus scale="   39.908">  2  9  1 -1</clus>
<clus scale="   92.169">  5  6 -1 -1</clus>
<clus scale="   92.514">  7  8 -1 -1</clus>
<clus scale="   94.905">  1  5  2 -1</clus>
<clus scale="   39.908">  2  5  1 -1</clus>
</clustering>
</event>
<event>
 9    2  0.4883225E-005  0.1809975E+03  0.7546771E-02  0.1167732E+00
         21   -1    0    0  501  502  0.00000000000E+00  0.00000000000E+00  0.87188826827E+02  0.87188826827E+02  0.00000000000E+00 0.  1.
         -3   -1    0    0    0  501 -0.00000000000E+00 -0.00000000000E+00 -0.54117983998E+03  0.54117983998E+03  0.00000000000E+00 0.  1.
         24    2    1    2    0    0  0.88733408040E+02  0.14566780733E+03 -0.34827183419E+03  0.39618455657E+03  0.81093801075E+02 0.  0.
         23    2    1    2    0    0 -0.85933966874E+02 -0.99102011228E+02 -0.68885829694E+02  0.17274585778E+03  0.88825776411E+02 0.  0.
        -13    1    3    3    0    0  0.88067780056E+02  0.12590909887E+03 -0.23215774345E+03  0.27839944847E+03  0.00000000000E+00 0.  1.
         14    1    3    3    0    0  0.66562798412E+00  0.19758708461E+02 -0.11611409074E+03  0.11778510810E+03  0.00000000000E+00 0. -1.
        -11    1    4    4    0    0 -0.10120944431E+03 -0.69497802652E+02 -0.65789252796E+02  0.13928934623E+03  0.00000000000E+00 0.  1.
         11    1    4    4    0    0  0.15275477435E+02 -0.29604208575E+02 -0.30965768980E+01  0.33456511545E+02  0.00000000000E+00 0. -1.
         -4    1    1    2    0  502 -0.27994411664E+01 -0.46565796106E+02 -0.36833349270E+02  0.59438252466E+02  0.00000000000E+00 0.  1.
<scales pt_clust_5="13000.00000" pt_clust_6="13000.00000" pt_clust_7="13000.00000" pt_clust_8="13000.00000" pt_clust_9="46.64987"></scales>
<clustering>
<clus scale="   46.650">  1  9  2 -1</clus>
<clus scale="   81.094">  5  6 -1 -1</clus>
<clus scale="   88.826">  7  8 -1 -1</clus>
<clus scale="  177.331">  2  5  1 -1</clus>
<clus scale="   46.650">  1  5  2 -1</clus>
</clustering>
</event>
<event>
 9    2  0.4883225E-005  0.1154557E+03  0.7546771E-02  0.1254335E+00
         -1   -1    0    0    0  501 -0.00000000000E+00  0.00000000000E+00  0.93926499460E+02  0.93926499460E+02  0.00000000000E+00 0.  1.
         21   -1    0    0  501  502  0.00000000000E+00 -0.00000000000E+00 -0.21179273272E+03  0.21179273272E+03  0.00000000000E+00 0.  1.
         24    2    1    2    0    0 -0.62679913844E+02  0.16169918224E+02  0.24586672206E+01  0.10394306683E+03  0.81288856818E+02 0.  0.
         23    2    1    2    0    0  0.72570024406E+02 -0.42927725049E+02 -0.66956737402E+02  0.14126207324E+03  0.91447091989E+02 0.  0.
        -13    1    3    3    0    0 -0.66788644371E+02  0.24862912305E+02  0.28063264681E+02  0.76592651409E+02  0.00000000000E+00 0.  1.
         14    1    3    3    0    0  0.41087305277E+01 -0.86929940817E+01 -0.25604597460E+02  0.27350415422E+02  0.00000000000E+00 0. -1.
        -13    1    4    4    0    0  0.92519177202E+02 -0.46959455586E+02 -0.59381082185E+02  0.11954539531E+03  0.00000000000E+00 0.  1.
         13    1    4    4    0    0 -0.19949152796E+02  0.40317305362E+01 -0.75756552176E+01  0.21716677931E+02  0.00000000000E+00 0. -1.
         -2    1    1    2    0  502 -0.98901105624E+01  0.26757806826E+02 -0.53368163076E+02  0.60514092104E+02  0.00000000000E+00 0.  1.
<scales pt_clust_5="13000.00000" pt_clust_6="13000.00000" pt_clust_7="13000.00000" pt_clust_8="13000.00000" pt_clust_9="28.52708"></scales>
<clustering>
<clus scale="   28.527">  2  9  1 -1</clus>
<clus scale="   81.289">  5  6 -1 -1</clus>
<clus scale="   91.447">  7  8 -1 -1</clus>
<clus scale="  107.589">  1  5  2 -1</clus>
<clus scale="   28.527">  2  5  1 -1</clus>
</clustering>
</event>
<event>
 9    2  0.4883225E-005  0.2076370E+03  0.7546771E-02  0.1146458E+00
         21   -1    0    0  501  502  0.00000000000E+00  0.00000000000E+00  0.43445602236E+03  0.43445602236E+03  0.00000000000E+00 0. -1.
          2   -1    0    0  502    0 -0.00000000000E+00 -0.00000000000E+00 -0.14103650371E+03  0.14103650371E+03  0.00000000000E+00 0. -1.
         23    2    1    2    0    0 -0.18571204620E+03  0.68420987646E+01  0.64298213906E+02  0.22568167643E+03  0.11073472963E+03 0.  0.
         24    2    1    2    0    0  0.15320282438E+03 -0.51437533021E+02  0.23266098106E+03  0.29451047379E+03  0.80550368496E+02 0.  0.
        -11    1    4    4    0    0  0.73365476820E+01 -0.24112342169E+02  0.10414688548E+02  0.27270784997E+02  0.00000000000E+00 0.  1.
         12    1    4    4    0    0  0.14586627670E+03 -0.27325190851E+02  0.22224629251E+03  0.26723968880E+03  0.00000000000E+00 0. -1.
        -11    1    3    3    0    0 -0.73254768677E+02  0.43758090194E+02 -0.10031168131E+02  0.85916563743E+02  0.00000000000E+00 0.  1.
         11    1    3    3    0    0 -0.11245727752E+03 -0.36915991430E+02  0.74329382038E+02  0.13976511269E+03  0.00000000000E+00 0. -1.
          1    1    1    2  501    0  0.32509221821E+02  0.44595434256E+02 -0.35396763175E+01  0.55300375843E+02  0.00000000000E+00 0. -1.
<scales pt_clust_5="13000.00000" pt_clust_6="13000.00000" pt_clust_7="13000.00000" pt_clust_8="13000.00000" pt_clust_9="55.18700"></scales>
<clustering>
<clus scale="   55.187">  1  9  2 -1</clus>
<clus scale="   80.550">  5  6 -1 -1</clus>
<clus scale="  110.735">  7  8 -1 -1</clus>
<clus scale="  193.234">  1  5  2 -1</clus>
<clus scale="   55.187">  1  5  2 -1</clus>
</clustering>
</event>
<event>
 9    2  0.4883225E-005  0.1193809E+03  0.7546771E-02  0.1248578E+00
         21   -1    0    0  501  502  0.00000000000E+00  0.00000000000E+00  0.18011073460E+03  0.18011073460E+03  0.00000000000E+00 0.  1.
          2   -1    0    0  502    0 -0.00000000000E+00 -0.00000000000E+00 -0.14706071591E+03  0.14706071591E+03  0.00000000000E+00 0. -1.
         23    2    1    2    0    0 -0.83203844768E+01  0.66299794727E+02 -0.56753460943E+02  0.12949044156E+03  0.95299147671E+02 0.  0.
         24    2    1    2    0    0  0.33574319348E+02 -0.86284747301E+02  0.10478429528E+03  0.16216221966E+03  0.82125175259E+02 0.  0.
        -13    1    4    4    0    0  0.33832623723E+02 -0.99695090811E+02  0.10507929434E+03  0.14874614502E+03  0.00000000000E+00 0.  1.
         14    1    4    4    0    0 -0.25830437555E+00  0.13410343510E+02 -0.29499906178E+00  0.13416074637E+02  0.00000000000E+00 0. -1.
        -13    1    3    3    0    0  0.26468294113E+02  0.67635262206E+02 -0.13344903019E+02  0.73845688591E+02  0.00000000000E+00 0. -1.
         13    1    3    3    0    0 -0.34788678590E+02 -0.13354674796E+01 -0.43408557925E+02  0.55644752965E+02  0.00000000000E+00 0.  1.
          1    1    1    2  501    0 -0.25253934871E+02  0.19984952574E+02 -0.14980815641E+02  0.35518789297E+02  0.00000000000E+00 0. -1.
<scales pt_clust_5="13000.00000" pt_clust_6="13000.00000" pt_clust_7="13000.00000" pt_clust_8="13000.00000" pt_clust_9="32.20498"></scales>
<clustering>
<clus scale="   32.205">  1  9  2 -1</clus>
<clus scale="   82.125">  5  6 -1 -1</clus>
<clus scale="   95.299">  7  8 -1 -1</clus>
<clus scale="  109.153">  1  5  2 -1</clus>
<clus scale="   32.205">  1  5  2 -1</clus>
</clustering>
</event>
<event>
 9    2  0.4883225E-005  0.1122049E+03  0.7546771E-02  0.1260963E+00
          2   -1    0    0  502    0 -0.00000000000E+00  0.00000000000E+00  0.86991825956E+03  0.86991825956E+03  0.00000000000E+00 0. -1.
         21   -1    0    0  501  502  0.00000000000E+00 -0.00000000000E+00 -0.17599551202E+03  0.17599551202E+03  0.00000000000E+00 0. -1.
         24    2    1    2    0    0 -0.35939558108E+02 -0.52688661187E+02  0.83749341996E+03  0.84382323965E+03  0.81084427819E+02 0.  0.
         23    2    1    2    0    0  0.44182769321E+02  0.25369990737E+02 -0.80625978567E+02  0.13297978913E+03  0.92667806499E+02 0.  0.
        -11    1    3    3    0    0 -0.55102299987E+02 -0.26658771331E+02  0.35422106254E+03  0.35947115976E+03  0.00000000000E+00 0.  1.
         12    1    3    3    0    0  0.19162741879E+02 -0.26029889856E+02  0.48327235743E+03  0.48435207989E+03  0.00000000000E+00 0. -1.
        -11    1    4    4    0    0  0.29913985712E+02  0.40232964610E+02 -0.95301275917E+02  0.10768412684E+03  0.00000000000E+00 0.  1.
         11    1    4    4    0    0  0.14268783609E+02 -0.14862973873E+02  0.14675297350E+02  0.25295662283E+02  0.00000000000E+00 0. -1.
          1    1    1    2  501    0 -0.82432112135E+01  0.27318670450E+02 -0.62944693858E+02  0.69110742806E+02  0.00000000000E+00 0. -1.
<scales pt_clust_5="13000.00000" pt_clust_6="13000.00000" pt_clust_7="13000.00000" pt_clust_8="13000.00000" pt_clust_9="28.53525"></scales>
<clustering>
<clus scale="   28.535">  2  9  1 -1</clus>
<clus scale="   81.084">  5  6 -1 -1</clus>
<clus scale="   92.668">  7  8 -1 -1</clus>
<clus scale="  102.846">  1  5  2 -1</clus>
<clus scale="   28.535">  2  5  1 -1</clus>
</clustering>
</event>
<event>
 9    2  0.4883225E-005  0.1235375E+03  0.7546771E-02  0.1244045E+00
         -1   -1    0    0    0  501 -0.00000000000E+00  0.00000000000E+00  0.18863712697E+03  0.18863712697E+03  0.00000000000E+00 0.  1.
         21   -1    0    0  501  502  0.00000000000E+00 -0.00000000000E+00 -0.12516868889E+03  0.12516868889E+03  0.00000000000E+00 0.  1.
         24    2    1    2    0    0 -0.74592015447E+02 -0.37511663356E+01  0.83299323261E+02  0.13215964098E+03  0.70351641289E+02 0.  0.
         23    2    1    2    0    0  0.99947716734E+02  0.31873735885E+02 -0.23177235517E+01  0.13992685878E+03  0.92567126159E+02 0.  0.
        -13    1    3    3    0    0 -0.87940302007E+02 -0.86940409171E+01  0.71742945459E+02  0.11382501170E+03  0.00000000000E+00 0.  1.
         14    1    3    3    0    0  0.13348286560E+02  0.49428745815E+01  0.11556377803E+02  0.18334629288E+02  0.00000000000E+00 0. -1.
        -13    1    4    4    0    0  0.76364895608E+01  0.23719642149E+02  0.32480609614E+02  0.40938092254E+02  0.00000000000E+00 0. -1.
         13    1    4    4    0    0  0.92311227174E+02  0.81540937356E+01 -0.34798333166E+02  0.98988766524E+02  0.00000000000E+00 0.  1.
         -2    1    1    2    0  502 -0.25355701288E+02 -0.28122569549E+02 -0.17513161625E+02  0.41719316101E+02  0.00000000000E+00 0.  1.
<scales pt_clust_5="13000.00000" pt_clust_6="13000.00000" pt_clust_7="13000.00000" pt_clust_8="13000.00000" pt_clust_9="37.86543"></scales>
<clustering>
<clus scale="   37.865">  2  9  1 -1</clus>
<clus scale="   70.352">  5  6 -1 -1</clus>
<clus scale="   92.567">  7  8 -1 -1</clus>
<clus scale="  107.899">  1  5  2 -1</clus>
<clus scale="   37.865">  2  5  1 -1</clus>
</clustering>
</event>
<event>
 9    2  0.4883225E-005  0.1766176E+03  0.7546771E-02  0.1182974E+00
         -3   -1    0    0    0  501 -0.00000000000E+00  0.00000000000E+00  0.27128672207E+03  0.27128672207E+03  0.00000000000E+00 0.  1.
         21   -1    0    0  501  502  0.00000000000E+00 -0.00000000000E+00 -0.28664215474E+03  0.28664215474E+03  0.00000000000E+00 0.  1.
         24    2    1    2    0    0 -0.92288168196E+02  0.58434059939E+02 -0.12892059708E+03  0.18674843691E+03  0.79516117787E+02 0.  0.
         23    2    1    2    0    0 -0.10795802726E+03  0.55037373843E+01  0.51542436470E+02  0.15201520657E+03  0.93631049846E+02 0.  0.
        -13    1    3    3    0    0 -0.82130200127E+02  0.88255841739E+01 -0.94534938720E+02  0.12553929802E+03  0.00000000000E+00 0.  1.
         14    1    3    3    0    0 -0.10157968069E+02  0.49608475765E+02 -0.34385658361E+02  0.61209138892E+02  0.00000000000E+00 0. -1.
        -11    1    4    4    0    0 -0.99617463459E+02  0.24072177293E+02  0.70345187675E+02  0.12430428060E+03  0.00000000000E+00 0.  1.
         11    1    4    4    0    0 -0.83405637983E+01 -0.18568439909E+02 -0.18802751205E+02  0.27710925968E+02  0.00000000000E+00 0. -1.
         -4    1    1    2    0  502  0.20024619545E+03 -0.63937797323E+02  0.62022727944E+02  0.21916523333E+03  0.00000000000E+00 0.  1.
<scales pt_clust_5="13000.00000" pt_clust_6="13000.00000" pt_clust_7="13000.00000" pt_clust_8="13000.00000" pt_clust_9="149.75656"></scales>
<clustering>
<clus scale="   79.516">  5  6 -1 -1</clus>
<clus scale="   93.631">  7  8 -1 -1</clus>
<clus scale="  135.109">  1  5  2 -1</clus>
<clus scale="  149.757">  2  9  1 -1</clus>
<clus scale="  149.757">  2  5  1 -1</clus>
</clustering>
</event>
<event>
 9    2  0.4883225E-005  0.1453400E+03  0.7546771E-02  0.1211299E+00
         21   -1    0    0  501  502  0.00000000000E+00  0.00000000000E+00  0.93283924234E+02  0.93283924234E+02  0.00000000000E+00 0. -1.
          4   -1    0    0  502    0 -0.00000000000E+00 -0.00000000000E+00 -0.64055872156E+03  0.64055872156E+03  0.00000000000E+00 0. -1.
         24    2    1    2    0    0 -0.10087055378E+03  0.69717543910E+01 -0.44534862725E+03  0.46371894802E+03  0.80476014893E+02 0.  0.
         23    2    1    2    0    0  0.10355619213E+03 -0.86920979406E+02 -0.76574894092E+02  0.18620839269E+03  0.10261924534E+03 0.  0.
        -13    1    3    3    0    0 -0.43318589767E+02  0.25810941901E+02 -0.89266304753E+02  0.10252403672E+03  0.00000000000E+00 0.  1.
         14    1    3    3    0    0 -0.57551964008E+02 -0.18839187510E+02 -0.35608232250E+03  0.36119491129E+03  0.00000000000E+00 0. -1.
        -13    1    4    4    0    0  0.22370066862E+02 -0.13241743065E+02 -0.71920936431E+02  0.76474732742E+02  0.00000000000E+00 0.  1.
         13    1    4    4    0    0  0.81186125271E+02 -0.73679236341E+02 -0.46539576615E+01  0.10973365995E+03  0.00000000000E+00 0. -1.
          3    1    1    2  501    0 -0.26856383581E+01  0.79949225015E+02 -0.25351275980E+02  0.83915305086E+02  0.00000000000E+00 0. -1.
<scales pt_clust_5="13000.00000" pt_clust_6="13000.00000" pt_clust_7="13000.00000" pt_clust_8="13000.00000" pt_clust_9="79.99432"></scales>
<clustering>
<clus scale="   79.994">  1  9  2 -1</clus>
<clus scale="   80.476">  5  6 -1 -1</clus>
<clus scale="  102.619">  7  8 -1 -1</clus>
<clus scale="  130.650">  2  5  1 -1</clus>
<clus scale="   79.994">  1  5  2 -1</clus>
</clustering>
</event>
<event>
 9    2  0.4883225E-005  0.1419101E+03  0.7546771E-02  0.1211923E+00
         21   -1    0    0  501  502  0.00000000000E+00  0.00000000000E+00  0.15056651053E+03  0.15056651053E+03  0.00000000000E+00 0. -1.
         -1   -1    0    0    0  501 -0.00000000000E+00 -0.00000000000E+00 -0.33786243271E+03  0.33786243271E+03  0.00000000000E+00 0.  1.
         23    2    1    2    0    0 -0.83474251773E+02 -0.99019266563E+02 -0.45004225710E+02  0.16346232559E+03  0.89004413913E+02 0.  0.
         24    2    1    2    0    0 -0.36570270501E+02  0.11631169998E+03 -0.13993240248E+02  0.14841574836E+03  0.83460334005E+02 0.  0.
        -11    1    4    4    0    0 -0.21658706447E+02  0.82607706655E+02 -0.48259097030E+02  0.98092166914E+02  0.00000000000E+00 0.  1.
         12    1    4    4    0    0 -0.14911564054E+02  0.33703993322E+02  0.34265856782E+02  0.50323581445E+02  0.00000000000E+00 0. -1.
        -11    1    3    3    0    0 -0.29446968261E+02 -0.82309263666E+02 -0.58671424743E+02  0.10528188309E+03  0.00000000000E+00 0.  1.
         11    1    3    3    0    0 -0.54027283512E+02 -0.16710002897E+02  0.13667199033E+02  0.58180442504E+02  0.00000000000E+00 0. -1.
         -2    1    1    2    0  502  0.12004452227E+03 -0.17292433414E+02 -0.12829845622E+03  0.17655086930E+03  0.00000000000E+00 0.  1.
<scales pt_clust_5="13000.00000" pt_clust_6="13000.00000" pt_clust_7="13000.00000" pt_clust_8="13000.00000" pt_clust_9="121.28368"></scales>
<clustering>
<clus scale="   83.460">  5  6 -1 -1</clus>
<clus scale="   89.004">  7  8 -1 -1</clus>
<clus scale="  121.284">  1  9  2 -1</clus>
<clus scale="  138.500">  1  5  2 -1</clus>
<clus scale="  121.284">  1  5  2 -1</clus>
</clustering>
</event>
<event>
 9    2  0.4883225E-005  0.1049650E+03  0.7546771E-02  0.1281351E+00
         21   -1    0    0  501  502  0.00000000000E+00  0.00000000000E+00  0.72275509875E+02  0.72275509875E+02  0.00000000000E+00 0. -1.
         -1   -1    0    0    0  501 -0.00000000000E+00 -0.00000000000E+00 -0.20751691270E+03  0.20751691270E+03  0.00000000000E+00 0.  1.
         23    2    1    2    0    0 -0.22062021265E+01 -0.20865538180E+02 -0.10348438973E+03  0.14681609855E+03  0.10200838134E+03 0.  0.
         24    2    1    2    0    0 -0.25007678208E+02  0.24621373362E+02 -0.48532403684E+02  0.10078757895E+03  0.81062604613E+02 0.  0.
        -13    1    4    4    0    0  0.58467520404E+01 -0.21335401740E+02 -0.38686862150E+02  0.44565201445E+02  0.00000000000E+00 0.  1.
         14    1    4    4    0    0 -0.30854430248E+02  0.45956775102E+02 -0.98455415340E+01  0.56222377500E+02  0.00000000000E+00 0. -1.
        -13    1    3    3    0    0 -0.36564657038E+02  0.15367418641E+02 -0.84591186701E+02  0.93428050217E+02  0.00000000000E+00 0. -1.
         13    1    3    3    0    0  0.34358454912E+02 -0.36232956820E+02 -0.18893203033E+02  0.53388048332E+02  0.00000000000E+00 0.  1.
         -2    1    1    2    0  502  0.27213880334E+02 -0.37558351825E+01  0.16775390588E+02  0.32188745085E+02  0.00000000000E+00 0.  1.
<scales pt_clust_5="13000.00000" pt_clust_6="13000.00000" pt_clust_7="13000.00000" pt_clust_8="13000.00000" pt_clust_9="27.47183"></scales>
<clustering>
<clus scale="   27.472">  1  9  2 -1</clus>
<clus scale="   81.063">  5  6 -1 -1</clus>
<clus scale="   84.753">  1  5  2 -1</clus>
<clus scale="  102.008">  7  8 -1 -1</clus>
<clus scale="   27.472">  1  5  2 -1</clus>
</clustering>
</event>
<event>
 9    2  0.4883225E-005  0.9565677E+02  0.7546771E-02  0.1297514E+00
         21   -1    0    0  501  502  0.00000000000E+00  0.00000000000E+00  0.10328012511E+02  0.10328012511E+02  0.00000000000E+00 0.  1.
          2   -1    0    0  502    0 -0.00000000000E+00 -0.00000000000E+00 -0.11370767350E+04  0.11370767350E+04  0.00000000000E+00 0. -1.
         24    2    1    2    0    0 -0.22348148742E+02  0.83411133608E+01 -0.54833257036E+03  0.55479265862E+03  0.80976986937E+02 0.  0.
         23    2    1    2    0    0 -0.53279388251E+01 -0.15844353927E+02 -0.36683728570E+03  0.37909890157E+03  0.94164497071E+02 0.  0.
        -13    1    3    3    0    0  0.16988908875E+02  0.18940838972E+02 -0.65873560465E+02  0.70616601264E+02  0.00000000000E+00 0.  1.
         14    1    3    3    0    0 -0.39337057618E+02 -0.10599725611E+02 -0.48245900990E+03  0.48417605736E+03  0.00000000000E+00 0. -1.
        -13    1    4    4    0    0 -0.44520580985E+02 -0.26063085687E+02 -0.15310359814E+03  0.16156137635E+03  0.00000000000E+00 0. -1.
         13    1    4    4    0    0  0.39192642159E+02  0.10218731761E+02 -0.21373368756E+03  0.21753752522E+03  0.00000000000E+00 0.  1.
          1    1    1    2  501    0  0.27676087567E+02  0.75032405658E+01 -0.21157886644E+03  0.21351318733E+03  0.00000000000E+00 0. -1.
<scales pt_clust_5="13000.00000" pt_clust_6="13000.00000" pt_clust_7="13000.00000" pt_clust_8="13000.00000" pt_clust_9="28.67517"></scales>
<clustering>
<clus scale="   28.675">  1  9  2 -1</clus>
<clus scale="   80.977">  5  6 -1 -1</clus>
<clus scale="   82.708">  2  5  1 -1</clus>
<clus scale="   94.164">  7  8 -1 -1</clus>
<clus scale="   28.675">  1  5  2 -1</clus>
</clustering>
</event>
<event>
 9    2  0.4883225E-005  0.1080767E+03  0.7546771E-02  0.1267376E+00
         21   -1    0    0  501  502  0.00000000000E+00  0.00000000000E+00  0.27418208142E+02  0.27418208142E+02  0.00000000000E+00 0.  1.
          2   -1    0    0  502    0 -0.00000000000E+00 -0.00000000000E+00 -0.12011839359E+04  0.12011839359E+04  0.00000000000E+00 0. -1.
         24    2    1    2    0    0  0.39604249547E+02  0.46408592016E+02 -0.10352072521E+04  0.10403445307E+04  0.83309265066E+02 0.  0.
         23    2    1    2    0    0 -0.27179943664E+02 -0.28106016380E+02 -0.13213570299E+03  0.16522286444E+03  0.91159494486E+02 0.  0.
        -13    1    3    3    0    0  0.13085954912E+02  0.34412463007E+02 -0.14302140893E+03  0.14768406562E+03  0.00000000000E+00 0.  1.
         14    1    3    3    0    0  0.26518294635E+02  0.11996129009E+02 -0.89218584318E+03  0.89266046503E+03  0.00000000000E+00 0. -1.
        -11    1    4    4    0    0 -0.84323914573E+01 -0.59681264564E+02 -0.64619674271E+02  0.88366627573E+02  0.00000000000E+00 0.  1.
         11    1    4    4    0    0 -0.18747552207E+02  0.31575248184E+02 -0.67516028718E+02  0.76856236867E+02  0.00000000000E+00 0. -1.
          1    1    1    2  501    0 -0.12424305883E+02 -0.18302575636E+02 -0.64227726921E+01  0.23034748981E+02  0.00000000000E+00 0. -1.
<scales pt_clust_5="13000.00000" pt_clust_6="13000.00000" pt_clust_7="13000.00000" pt_clust_8="13000.00000" pt_clust_9="22.12120"></scales>
<clustering>
<clus scale="   22.121">  1  9  2 -1</clus>
<clus scale="   83.309">  5  6 -1 -1</clus>
<clus scale="   91.159">  7  8 -1 -1</clus>
<clus scale="  101.543">  2  5  1 -1</clus>
<clus scale="   22.121">  1  5  2 -1</clus>
</clustering>
</event>
<event>
 9    2  0.4883225E-005  0.3834634E+03  0.7546771E-02  0.1073575E+00
          2   -1    0    0  502    0 -0.00000000000E+00  0.00000000000E+00  0.11640132477E+04  0.11640132477E+04  0.00000000000E+00 0. -1.
         21   -1    0    0  501  502  0.00000000000E+00 -0.00000000000E+00 -0.21057530988E+03  0.21057530988E+03  0.00000000000E+00 0.  1.
         24    2    1    2    0    0 -0.28406763670E+02  0.17737923672E+03  0.11301021449E+03  0.22690890407E+03  0.80287012183E+02 0.  0.
         23    2    1    2    0    0  0.16897552446E+03 -0.41485794463E+03  0.32168169111E+03  0.56009718342E+03  0.97825877927E+02 0.  0.
        -11    1    3    3    0    0  0.26612754442E+01  0.10247468825E+03  0.21686498631E+02  0.10477809095E+03  0.00000000000E+00 0.  1.
         12    1    3    3    0    0 -0.31068039114E+02  0.74904548464E+02  0.91323715862E+02  0.12213081312E+03  0.00000000000E+00 0. -1.
        -13    1    4    4    0    0  0.65448154414E+02 -0.26875211348E+03  0.22522852299E+03  0.35670582696E+03  0.00000000000E+00 0.  1.
         13    1    4    4    0    0  0.10352737004E+03 -0.14610583116E+03  0.96453168116E+02  0.20339135647E+03  0.00000000000E+00 0. -1.
          1    1    1    2  501    0 -0.14056876079E+03  0.23747870792E+03  0.51874603222E+03  0.58758247009E+03  0.00000000000E+00 0. -1.
<scales pt_clust_5="13000.00000" pt_clust_6="13000.00000" pt_clust_7="13000.00000" pt_clust_8="13000.00000" pt_clust_9="370.77540"></scales>
<clustering>
<clus scale="   80.287">  5  6 -1 -1</clus>
<clus scale="   97.826">  7  8 -1 -1</clus>
<clus scale="  196.765">  1  5  2 -1</clus>
<clus scale="  370.775">  2  9  1 -1</clus>
<clus scale="  370.775">  2  5  1 -1</clus>
</clustering>
</event>
<event>
 9    2  0.4883225E-005  0.1592877E+03  0.7546771E-02  0.1204903E+00
         21   -1    0    0  501  502  0.00000000000E+00  0.00000000000E+00  0.23093194866E+02  0.23093194866E+02  0.00000000000E+00 0.  1.
          2   -1    0    0  502    0 -0.00000000000E+00 -0.00000000000E+00 -0.20189581317E+04  0.20189581317E+04  0.00000000000E+00 0. -1.
         24    2    1    2    0    0  0.81720012179E+02  0.39251542005E+02 -0.35619109710E+03  0.37393480796E+03  0.68820774581E+02 0.  0.
         23    2    1    2    0    0 -0.13625823409E+03  0.70526668044E+02 -0.79674506501E+03  0.81632159474E+03  0.89654504440E+02 0.  0.
        -13    1    3    3    0    0  0.56882646780E+02  0.57154595384E+02 -0.21913135739E+03  0.23349697015E+03  0.00000000000E+00 0.  1.
         14    1    3    3    0    0  0.24837365399E+02 -0.17903053380E+02 -0.13705973971E+03  0.14043783782E+03  0.00000000000E+00 0. -1.
        -13    1    4    4    0    0 -0.36815453270E+02  0.68076492637E+02 -0.38834734194E+03  0.39598414671E+03  0.00000000000E+00 0. -1.
         13    1    4    4    0    0 -0.99442780816E+02  0.24501754068E+01 -0.40839772307E+03  0.42033744804E+03  0.00000000000E+00 0.  1.
          1    1    1    2  501    0  0.54538221907E+02 -0.10977821005E+03 -0.84292877469E+03  0.85179492382E+03  0.00000000000E+00 0. -1.
<scales pt_clust_5="13000.00000" pt_clust_6="13000.00000" pt_clust_7="13000.00000" pt_clust_8="13000.00000" pt_clust_9="131.66112"></scales>
<clustering>
<clus scale="   68.821">  5  6 -1 -1</clus>
<clus scale="   89.655">  7  8 -1 -1</clus>
<clus scale="  113.821">  2  5  1 -1</clus>
<clus scale="  131.661">  1  9  2 -1</clus>
<clus scale="  131.661">  1  5  2 -1</clus>
</clustering>
</event>
<event>
 9    2  0.4883225E-005  0.1509166E+03  0.7546771E-02  0.1221626E+00
         21   -1    0    0  501  502  0.00000000000E+00  0.00000000000E+00  0.16527593389E+03  0.16527593389E+03  0.00000000000E+00 0.  1.
          2   -1    0    0  502    0 -0.00000000000E+00 -0.00000000000E+00 -0.28308102986E+03  0.28308102986E+03  0.00000000000E+00 0. -1.
         24    2    1    2    0    0 -0.17702280719E+02  0.44022442166E+02 -0.14109920611E+03  0.16944661368E+03  0.80943330586E+02 0.  0.
         23    2    1    2    0    0  0.61346188633E+02  0.84401926854E+02  0.25457062910E+02  0.14325531838E+03  0.94799705047E+02 0.  0.
        -13    1    3    3    0    0 -0.22735394557E+02  0.52417226593E+02 -0.14720912272E+03  0.15790816832E+03  0.00000000000E+00 0.  1.
         14    1    3    3    0    0  0.50331138376E+01 -0.83947844266E+01  0.61099166091E+01  0.11538445365E+02  0.00000000000E+00 0. -1.
        -11    1    4    4    0    0  0.25390192002E+02 -0.14189222560E+02  0.24934567259E+02  0.38310945318E+02  0.00000000000E+00 0.  1.
         11    1    4    4    0    0  0.35955996631E+02  0.98591149415E+02  0.52249565099E+00  0.10494437307E+03  0.00000000000E+00 0. -1.
          1    1    1    2  501    0 -0.43643907914E+02 -0.12842436902E+03 -0.21629527678E+01  0.13565503168E+03  0.00000000000E+00 0. -1.
<scales pt_clust_5="13000.00000" pt_clust_6="13000.00000" pt_clust_7="13000.00000" pt_clust_8="13000.00000" pt_clust_9="117.42590"></scales>
<clustering>
<clus scale="   80.943">  5  6 -1 -1</clus>
<clus scale="   93.825">  2  5  1 -1</clus>
<clus scale="   94.800">  7  8 -1 -1</clus>
<clus scale="  117.426">  1  9  2 -1</clus>
<clus scale="  117.426">  1  5  2 -1</clus>
</clustering>
</event>
<event>
 9    2  0.4883225E-005  0.1007010E+03  0.7546771E-02  0.1285374E+00
          2   -1    0    0  502    0 -0.00000000000E+00  0.00000000000E+00  0.76066755827E+03  0.76066755827E+03  0.00000000000E+00 0. -1.
         21   -1    0    0  501  502  0.00000000000E+00 -0.00000000000E+00 -0.63272385973E+02  0.63272385973E+02  0.00000000000E+00 0. -1.
         24    2    1    2    0    0 -0.41859421768E+02  0.30205905507E+01  0.67865233854E+03  0.68454681964E+03  0.79208689627E+02 0.  0.
         23    2    1    2    0    0  0.13604387108E+02 -0.29295897599E+02  0.30971008988E+01  0.97757470405E+02  0.92214977207E+02 0.  0.
        -13    1    3    3    0    0 -0.11363601831E+02 -0.31030205066E+02  0.13537651422E+03  0.13935137486E+03  0.00000000000E+00 0.  1.
         14    1    3    3    0    0 -0.30495819937E+02  0.34050795617E+02  0.54327582432E+03  0.54519544478E+03  0.00000000000E+00 0. -1.
        -11    1    4    4    0    0 -0.23711293438E+02 -0.37082424050E+02  0.28053661585E+02  0.52195206085E+02  0.00000000000E+00 0. -1.
         11    1    4    4    0    0  0.37315680546E+02  0.77865264508E+01 -0.24956560686E+02  0.45562264321E+02  0.00000000000E+00 0.  1.
          1    1    1    2  501    0  0.28255034660E+02  0.26275307048E+02  0.15645732863E+02  0.41635654204E+02  0.00000000000E+00 0. -1.
<scales pt_clust_5="13000.00000" pt_clust_6="13000.00000" pt_clust_7="13000.00000" pt_clust_8="13000.00000" pt_clust_9="38.58418"></scales>
<clustering>
<clus scale="   38.584">  2  9  1 -1</clus>
<clus scale="   79.209">  5  6 -1 -1</clus>
<clus scale="   88.944">  1  5  2 -1</clus>
<clus scale="   92.215">  7  8 -1 -1</clus>
<clus scale="   38.584">  2  5  1 -1</clus>
</clustering>
</event>
<event>
 9    2  0.1723675E-004  0.1219284E+03  0.7546771E-02  0.1248656E+00
         21   -1    0    0  501  502  0.00000000000E+00  0.00000000000E+00  0.12319197698E+03  0.12319197698E+03  0.00000000000E+00 0. -1.
          4   -1    0    0  502    0 -0.00000000000E+00 -0.00000000000E+00 -0.10752495624E+04  0.10752495624E+04  0.00000000000E+00 0. -1.
         24    2    1    2    0    0  0.78565892521E+02  0.34208948896E+02 -0.90552001508E+03  0.91217846529E+03  0.68994225664E+02 0.  0.
         23    2    1    2    0    0 -0.19367531085E+02 -0.22431182813E+02 -0.14171363853E+03  0.17356149591E+03  0.95721357563E+02 0.  0.
        -13    1    3    3    0    0  0.41662367523E+02 -0.85160820208E+01 -0.20369281841E+03  0.20808421562E+03  0.00000000000E+00 0.  1.
         14    1    3    3    0    0  0.36903524998E+02  0.42725030917E+02 -0.70182719668E+03  0.70409424967E+03  0.00000000000E+00 0. -1.
        -11    1    4    4    0    0 -0.28896575152E+02 -0.41027979218E+02 -0.27048952119E+02  0.57008358554E+02  0.00000000000E+00 0.  1.
         11    1    4    4    0    0  0.95290440671E+01  0.18596796405E+02 -0.11466468641E+03  0.11655313736E+03  0.00000000000E+00 0. -1.
          3    1    1    2  501    0 -0.59198361436E+02 -0.11777766083E+02  0.95176068183E+02  0.11270157819E+03  0.00000000000E+00 0. -1.
<scales pt_clust_5="13000.00000" pt_clust_6="13000.00000" pt_clust_7="13000.00000" pt_clust_8="13000.00000" pt_clust_9="60.35861"></scales>
<clustering>
<clus scale="   60.359">  1  9  2 -1</clus>
<clus scale="   68.994">  5  6 -1 -1</clus>
<clus scale="   95.721">  7  8 -1 -1</clus>
<clus scale="  102.295">  2  5  1 -1</clus>
<clus scale="   60.359">  1  5  2 -1</clus>
</clustering>
</event>
<event>
 9    2  0.4883225E-005  0.1523706E+03  0.7546771E-02  0.1221551E+00
         21   -1    0    0  501  502  0.00000000000E+00  0.00000000000E+00  0.23770057402E+03  0.23770057402E+03  0.00000000000E+00 0. -1.
          2   -1    0    0  502    0 -0.00000000000E+00 -0.00000000000E+00 -0.17075728897E+03  0.17075728897E+03  0.00000000000E+00 0. -1.
         24    2    1    2    0    0  0.37429413283E+02 -0.31270580839E+02  0.29332308689E+02  0.95904630128E+02  0.77191343700E+02 0.  0.
         23    2    1    2    0    0  0.93352318343E+02  0.74334640212E+02  0.79166434432E+02  0.16872962343E+03  0.89230417488E+02 0.  0.
        -11    1    3    3    0    0  0.47735388933E+02 -0.11104927409E+02 -0.10465071756E+02  0.50114912913E+02  0.00000000000E+00 0.  1.
         12    1    3    3    0    0 -0.10305975651E+02 -0.20165653431E+02  0.39797380445E+02  0.45789717215E+02  0.00000000000E+00 0. -1.
        -11    1    4    4    0    0  0.10265857791E+03  0.36307121090E+02  0.66461223152E+02  0.12756992139E+03  0.00000000000E+00 0. -1.
         11    1    4    4    0    0 -0.93062595709E+01  0.38027519122E+02  0.12705211280E+02  0.41159702033E+02  0.00000000000E+00 0.  1.
          1    1    1    2  501    0 -0.13078173163E+03 -0.43064059372E+02 -0.41555458061E+02  0.14382360944E+03  0.00000000000E+00 0. -1.
<scales pt_clust_5="13000.00000" pt_clust_6="13000.00000" pt_clust_7="13000.00000" pt_clust_8="13000.00000" pt_clust_9="123.51016"></scales>
<clustering>
<clus scale="   77.191">  5  6 -1 -1</clus>
<clus scale="   89.230">  7  8 -1 -1</clus>
<clus scale="   91.309">  2  5  1 -1</clus>
<clus scale="  123.510">  1  9  2 -1</clus>
<clus scale="  123.510">  1  5  2 -1</clus>
</clustering>
</event>
<event>
 9    2  0.4883225E-005  0.1186200E+03  0.7546771E-02  0.1248879E+00
         21   -1    0    0  501  502  0.00000000000E+00  0.00000000000E+00  0.60976587216E+03  0.60976587216E+03  0.00000000000E+00 0.  1.
         -1   -1    0    0    0  501 -0.00000000000E+00 -0.00000000000E+00 -0.62318076819E+02  0.62318076819E+02  0.00000000000E+00 0.  1.
         24    2    1    2    0    0 -0.24848651068E+02  0.41140160017E+02  0.78041380223E+02  0.12214558904E+03  0.80741065572E+02 0.  0.
         23    2    1    2    0    0  0.53771893613E+02 -0.10309780122E+03  0.11064042152E+03  0.18471467310E+03  0.91420098581E+02 0.  0.
        -11    1    3    3    0    0  0.23039720991E+02  0.15768713975E+02  0.57990153304E+02  0.64361004995E+02  0.00000000000E+00 0.  1.
         12    1    3    3    0    0 -0.47888372059E+02  0.25371446042E+02  0.20051226919E+02  0.57784584049E+02  0.00000000000E+00 0. -1.
        -13    1    4    4    0    0  0.35499998413E+02  0.56691859039E+01  0.39801683791E+02  0.53633605032E+02  0.00000000000E+00 0. -1.
         13    1    4    4    0    0  0.18271895200E+02 -0.10876698713E+03  0.70838737726E+02  0.13108106807E+03  0.00000000000E+00 0.  1.
         -2    1    1    2    0  502 -0.28923242545E+02  0.61957641205E+02  0.35876599360E+03  0.36522368683E+03  0.00000000000E+00 0.  1.
<scales pt_clust_5="13000.00000" pt_clust_6="13000.00000" pt_clust_7="13000.00000" pt_clust_8="13000.00000" pt_clust_9="68.37619"></scales>
<clustering>
<clus scale="   68.376">  1  9  2 -1</clus>
<clus scale="   80.741">  5  6 -1 -1</clus>
<clus scale="   91.420">  7  8 -1 -1</clus>
<clus scale="  110.599">  2  5  1 -1</clus>
<clus scale="   68.376">  1  5  2 -1</clus>
</clustering>
</event>
<event>
 9    2  0.4883225E-005  0.1011857E+03  0.7546771E-02  0.1282408E+00
          2   -1    0    0  502    0 -0.00000000000E+00  0.00000000000E+00  0.75476828853E+03  0.75476828853E+03  0.00000000000E+00 0. -1.
         21   -1    0    0  501  502  0.00000000000E+00 -0.00000000000E+00 -0.19975673726E+02  0.19975673726E+02  0.00000000000E+00 0. -1.
         23    2    1    2    0    0  0.47858761166E+02 -0.35359332675E+02  0.35758372806E+03  0.37386953049E+03  0.91496228468E+02 0.  0.
         24    2    1    2    0    0 -0.29109840924E+02 -0.20374202070E+01  0.18936339880E+03  0.20842712345E+03  0.82047760893E+02 0.  0.
        -13    1    4    4    0    0  0.49860610614E+01 -0.28285288657E+02  0.14011848504E+03  0.14303184334E+03  0.00000000000E+00 0.  1.
         14    1    4    4    0    0 -0.34095901986E+02  0.26247868450E+02  0.49244913760E+02  0.65395280118E+02  0.00000000000E+00 0. -1.
        -11    1    3    3    0    0  0.69335042419E+02 -0.22953498025E+02  0.32394406274E+03  0.33207524293E+03  0.00000000000E+00 0. -1.
         11    1    3    3    0    0 -0.21476281253E+02 -0.12405834651E+02  0.33639665320E+02  0.41794287560E+02  0.00000000000E+00 0.  1.
          1    1    1    2  501    0 -0.18748920242E+02  0.37396752882E+02  0.18784548794E+03  0.19244730831E+03  0.00000000000E+00 0. -1.
<scales pt_clust_5="13000.00000" pt_clust_6="13000.00000" pt_clust_7="13000.00000" pt_clust_8="13000.00000" pt_clust_9="41.83349"></scales>
<clustering>
<clus scale="   41.833">  2  9  1 -1</clus>
<clus scale="   82.048">  5  6 -1 -1</clus>
<clus scale="   91.496">  7  8 -1 -1</clus>
<clus scale="   92.730">  2  5  1 -1</clus>
<clus scale="   41.833">  2  5  1 -1</clus>
</clustering>
</event>
<event>
 9    2  0.4883225E-005  0.1390432E+03  0.7546771E-02  0.1232754E+00
         21   -1    0    0  501  502  0.00000000000E+00  0.00000000000E+00  0.14340960162E+03  0.14340960162E+03  0.00000000000E+00 0.  1.
          2   -1    0    0  502    0 -0.00000000000E+00 -0.00000000000E+00 -0.26177625731E+03  0.26177625731E+03  0.00000000000E+00 0. -1.
         24    2    1    2    0    0 -0.37390426656E+02  0.35781044382E+02  0.28087022305E+02  0.99295730605E+02  0.79952699466E+02 0.  0.
         23    2    1    2    0    0  0.11059030627E+03  0.27368937793E+02 -0.20969956674E+02  0.14748461410E+03  0.91283611435E+02 0.  0.
        -11    1    3    3    0    0  0.23050866038E+02  0.28374879429E+01  0.18709935367E+02  0.29823739611E+02  0.00000000000E+00 0.  1.
         12    1    3    3    0    0 -0.60441292694E+02  0.32943556439E+02  0.93770869379E+01  0.69471990995E+02  0.00000000000E+00 0. -1.
        -11    1    4    4    0    0  0.74778487383E+01 -0.27976877526E+02 -0.40846623061E+01  0.29245655473E+02  0.00000000000E+00 0.  1.
         11    1    4    4    0    0  0.10311245753E+03  0.55345815320E+02 -0.16885294368E+02  0.11823895863E+03  0.00000000000E+00 0. -1.
          1    1    1    2  501    0 -0.73199879611E+02 -0.63149982175E+02 -0.12548372132E+03  0.15840551423E+03  0.00000000000E+00 0. -1.
<scales pt_clust_5="13000.00000" pt_clust_6="13000.00000" pt_clust_7="13000.00000" pt_clust_8="13000.00000" pt_clust_9="104.88239"></scales>
<clustering>
<clus scale="   79.953">  5  6 -1 -1</clus>
<clus scale="   91.284">  7  8 -1 -1</clus>
<clus scale="   95.241">  2  5  1 -1</clus>
<clus scale="  104.882">  1  9  2 -1</clus>
<clus scale="  104.882">  1  5  2 -1</clus>
</clustering>
</event>
<event>
 9    2  0.4883225E-005  0.1574320E+03  0.7546771E-02  0.1212212E+00
          2   -1    0    0  502    0 -0.00000000000E+00  0.00000000000E+00  0.59466641541E+03  0.59466641541E+03  0.00000000000E+00 0. -1.
         21   -1    0    0  501  502  0.00000000000E+00 -0.00000000000E+00 -0.13721754177E+03  0.13721754177E+03  0.00000000000E+00 0.  1.
         24    2    1    2    0    0 -0.65346064995E+02 -0.21796313623E+01  0.19244413752E+03  0.21725420862E+03  0.76744941818E+02 0.  0.
         23    2    1    2    0    0 -0.70961686318E+01 -0.93832637451E+02 -0.60304971289E+02  0.16779745665E+03  0.12515741063E+03 0.  0.
        -11    1    3    3    0    0 -0.59526036166E+02  0.23597769449E+02  0.17292823718E+03  0.18440276278E+03  0.00000000000E+00 0.  1.
         12    1    3    3    0    0 -0.58200288291E+01 -0.25777400812E+02  0.19515900341E+02  0.32851445848E+02  0.00000000000E+00 0. -1.
        -13    1    4    4    0    0 -0.10534584748E+02  0.19324954450E+02 -0.49378343172E+02  0.54061558568E+02  0.00000000000E+00 0. -1.
         13    1    4    4    0    0  0.34384161162E+01 -0.11315759190E+03 -0.10926628116E+02  0.11373589808E+03  0.00000000000E+00 0.  1.
          1    1    1    2  501    0  0.72442233627E+02  0.96012268813E+02  0.32530970741E+03  0.34683229191E+03  0.00000000000E+00 0. -1.
<scales pt_clust_5="13000.00000" pt_clust_6="13000.00000" pt_clust_7="13000.00000" pt_clust_8="13000.00000" pt_clust_9="95.50108"></scales>
<clustering>
<clus scale="   76.745">  5  6 -1 -1</clus>
<clus scale="  100.820">  1  5  2 -1</clus>
<clus scale="   95.501">  2  9  1 -1</clus>
<clus scale="  125.157">  7  8 -1 -1</clus>
<clus scale="   95.501">  2  5  1 -1</clus>
</clustering>
</event>
<event>
 9    2  0.4883225E-005  0.1945116E+03  0.7546771E-02  0.1160768E+00
         21   -1    0    0  501  502  0.00000000000E+00  0.00000000000E+00  0.51990133893E+03  0.51990133893E+03  0.00000000000E+00 0.  1.
          2   -1    0    0  502    0 -0.00000000000E+00 -0.00000000000E+00 -0.11487676505E+03  0.11487676505E+03  0.00000000000E+00 0. -1.
         23    2    1    2    0    0  0.13333860008E+03 -0.50548215811E+02  0.79362546726E+02  0.20624407318E+03  0.12611066373E+03 0.  0.
         24    2    1    2    0    0 -0.11142021450E+03  0.13236095755E+03  0.25576653387E+03  0.31872000474E+03  0.78943234602E+02 0.  0.
        -13    1    4    4    0    0 -0.58627734519E+02  0.32027355957E+02  0.14763922820E+03  0.16205031468E+03  0.00000000000E+00 0.  1.
         14    1    4    4    0    0 -0.52792479981E+02  0.10033360159E+03  0.10812730567E+03  0.15666969005E+03  0.00000000000E+00 0. -1.
        -11    1    3    3    0    0  0.91954827162E+02  0.51590492493E+01  0.97901579921E+02  0.13441363539E+03  0.00000000000E+00 0.  1.
         11    1    3    3    0    0  0.41383772919E+02 -0.55707265061E+02 -0.18539033196E+02  0.71830437792E+02  0.00000000000E+00 0. -1.
          1    1    1    2  501    0 -0.21918385582E+02 -0.81812741737E+02  0.69895493291E+02  0.10981402606E+03  0.00000000000E+00 0. -1.
<scales pt_clust_5="13000.00000" pt_clust_6="13000.00000" pt_clust_7="13000.00000" pt_clust_8="13000.00000" pt_clust_9="84.69798"></scales>
<clustering>
<clus scale="   78.943">  5  6 -1 -1</clus>
<clus scale="   84.698">  1  9  2 -1</clus>
<clus scale="  126.111">  7  8 -1 -1</clus>
<clus scale="  167.818">  1  5  2 -1</clus>
<clus scale="   84.698">  1  5  2 -1</clus>
</clustering>
</event>
<event>
 9    2  0.4883225E-005  0.9381394E+02  0.7546771E-02  0.1307187E+00
         21   -1    0    0  501  502  0.00000000000E+00  0.00000000000E+00  0.20260276819E+03  0.20260276819E+03  0.00000000000E+00 0.  1.
          2   -1    0    0  502    0 -0.00000000000E+00 -0.00000000000E+00 -0.14209796856E+03  0.14209796856E+03  0.00000000000E+00 0. -1.
         24    2    1    2    0    0 -0.13490115243E+02 -0.79122319080E+00 -0.62488729027E+02  0.95687107924E+02  0.71193905105E+02 0.  0.
         23    2    1    2    0    0  0.18648624940E+02 -0.36679864026E+02 -0.18501193923E+02  0.10255049655E+03  0.92093031919E+02 0.  0.
        -13    1    3    3    0    0 -0.97435356156E+01 -0.31080368415E+02 -0.84898533779E+01  0.33660115827E+02  0.00000000000E+00 0.  1.
         14    1    3    3    0    0 -0.37465796276E+01  0.30289145224E+02 -0.53998875649E+02  0.62026992097E+02  0.00000000000E+00 0. -1.
        -13    1    4    4    0    0  0.49024883041E+02 -0.19075194663E+02 -0.35580081619E+02  0.63507829570E+02  0.00000000000E+00 0. -1.
         13    1    4    4    0    0 -0.30376258101E+02 -0.17604669363E+02  0.17078887696E+02  0.39042666976E+02  0.00000000000E+00 0.  1.
          1    1    1    2  501    0 -0.51585096968E+01  0.37471087217E+02  0.14149472258E+03  0.14646313228E+03  0.00000000000E+00 0. -1.
<scales pt_clust_5="13000.00000" pt_clust_6="13000.00000" pt_clust_7="13000.00000" pt_clust_8="13000.00000" pt_clust_9="37.82450"></scales>
<clustering>
<clus scale="   37.824">  1  9  2 -1</clus>
<clus scale="   71.194">  5  6 -1 -1</clus>
<clus scale="   73.406">  2  5  1 -1</clus>
<clus scale="   92.093">  7  8 -1 -1</clus>
<clus scale="   37.824">  1  5  2 -1</clus>
</clustering>
</event>
<event>
 9    2  0.7545587E-005  0.3553956E+03  0.7546771E-02  0.1091051E+00
          4   -1    0    0  502    0 -0.00000000000E+00  0.00000000000E+00  0.10331779024E+04  0.10331779024E+04  0.00000000000E+00 0. -1.
         21   -1    0    0  501  502  0.00000000000E+00 -0.00000000000E+00 -0.19163626476E+03  0.19163626476E+03  0.00000000000E+00 0. -1.
         24    2    1    2    0    0 -0.13136862781E+03  0.19737875381E+02  0.91644996992E+02  0.17978411890E+03  0.79222621996E+02 0.  0.
         23    2    1    2    0    0 -0.25303527175E+03 -0.10898462140E+03  0.50442995381E+03  0.58028793265E+03  0.79874964943E+02 0.  0.
        -11    1    3    3    0    0 -0.67123093915E+02  0.29390246364E+02  0.88282556087E+02  0.11473058018E+03  0.00000000000E+00 0.  1.
         12    1    3    3    0    0 -0.64245533899E+02 -0.96523709830E+01  0.33624409056E+01  0.65053538724E+02  0.00000000000E+00 0. -1.
        -11    1    4    4    0    0 -0.98794081738E+02 -0.12213953425E+02  0.12818625188E+03  0.16229961927E+03  0.00000000000E+00 0. -1.
         11    1    4    4    0    0 -0.15424119001E+03 -0.96770667972E+02  0.37624370194E+03  0.41798831338E+03  0.00000000000E+00 0.  1.
          3    1    1    2  501    0  0.38440389957E+03  0.89246746015E+02  0.24546668682E+03  0.46474211560E+03  0.00000000000E+00 0. -1.
<scales pt_clust_5="13000.00000" pt_clust_6="13000.00000" pt_clust_7="13000.00000" pt_clust_8="13000.00000" pt_clust_9="346.30339"></scales>
<clustering>
<clus scale="   79.223">  5  6 -1 -1</clus>
<clus scale="   79.875">  7  8 -1 -1</clus>
<clus scale="  154.672">  1  5  2 -1</clus>
<clus scale="  346.303">  2  9  1 -1</clus>
<clus scale="  346.303">  2  5  1 -1</clus>
</clustering>
</event>
<event>
 9    2  0.4883225E-005  0.1070878E+03  0.7546771E-02  0.1269398E+00
          2   -1    0    0  502    0 -0.00000000000E+00  0.00000000000E+00  0.33684069382E+02  0.33684069382E+02  0.00000000000E+00 0. -1.
         21   -1    0    0  501  502  0.00000000000E+00 -0.00000000000E+00 -0.45847338229E+03  0.45847338229E+03  0.00000000000E+00 0. -1.
         24    2    1    2    0    0 -0.18730096468E+02  0.58963780372E+02 -0.15409181084E+03  0.18531981712E+03  0.82289759646E+02 0.  0.
         23    2    1    2    0    0 -0.15211737216E+02 -0.55650841994E+02 -0.17482187206E+03  0.20507732763E+03  0.90363765927E+02 0.  0.
        -13    1    3    3    0    0  0.27174898520E+02  0.45874918105E+02 -0.63464362218E+02  0.82889736955E+02  0.00000000000E+00 0.  1.
         14    1    3    3    0    0 -0.45904994989E+02  0.13088862267E+02 -0.90627448619E+02  0.10243008017E+03  0.00000000000E+00 0. -1.
        -11    1    4    4    0    0  0.21256293204E+02  0.15925785528E+02 -0.50531030923E+02  0.57086300735E+02  0.00000000000E+00 0.  1.
         11    1    4    4    0    0 -0.36468030420E+02 -0.71576627523E+02 -0.12429084114E+03  0.14799102689E+03  0.00000000000E+00 0. -1.
          1    1    1    2  501    0  0.33941833685E+02 -0.33129383779E+01 -0.95875630010E+02  0.10176030692E+03  0.00000000000E+00 0. -1.
<scales pt_clust_5="13000.00000" pt_clust_6="13000.00000" pt_clust_7="13000.00000" pt_clust_8="13000.00000" pt_clust_9="34.10313"></scales>
<clustering>
<clus scale="   34.103">  2  9  1 -1</clus>
<clus scale="   82.290">  5  6 -1 -1</clus>
<clus scale="   90.364">  7  8 -1 -1</clus>
<clus scale="  100.368">  1  5  2 -1</clus>
<clus scale="   34.103">  2  5  1 -1</clus>
</clustering>
</event>
<event>
 9    2  0.4883225E-005  0.1071860E+03  0.7546771E-02  0.1270079E+00
          2   -1    0    0  502    0 -0.00000000000E+00  0.00000000000E+00  0.63080302871E+03  0.63080302871E+03  0.00000000000E+00 0. -1.
         21   -1    0    0  501  502  0.00000000000E+00 -0.00000000000E+00 -0.29083275374E+02  0.29083275374E+02  0.00000000000E+00 0.  1.
         24    2    1    2    0    0 -0.50477562901E+02  0.30797907358E+02  0.33428199176E+03  0.34892627279E+03  0.80675884700E+02 0.  0.
         23    2    1    2    0    0  0.58450080586E+02  0.21155400310E+01  0.12797515923E+03  0.16744461920E+03  0.90769883153E+02 0.  0.
        -11    1    3    3    0    0  0.17234839040E+02  0.26294942668E+02  0.87210563515E+02  0.92704617335E+02  0.00000000000E+00 0.  1.
         12    1    3    3    0    0 -0.67712401941E+02  0.45029646899E+01  0.24707142825E+03  0.25622165545E+03  0.00000000000E+00 0. -1.
        -13    1    4    4    0    0  0.46546651993E+02 -0.21170565265E+02  0.17701293606E+02  0.54112100686E+02  0.00000000000E+00 0.  1.
         13    1    4    4    0    0  0.11903428593E+02  0.23286105296E+02  0.11027386562E+03  0.11333251851E+03  0.00000000000E+00 0. -1.
          1    1    1    2  501    0 -0.79725176845E+01 -0.32913447389E+02  0.13946260234E+03  0.14351541209E+03  0.00000000000E+00 0. -1.
<scales pt_clust_5="13000.00000" pt_clust_6="13000.00000" pt_clust_7="13000.00000" pt_clust_8="13000.00000" pt_clust_9="33.86528"></scales>
<clustering>
<clus scale="   33.865">  2  9  1 -1</clus>
<clus scale="   80.676">  5  6 -1 -1</clus>
<clus scale="   90.770">  7  8 -1 -1</clus>
<clus scale="   98.784">  1  5  2 -1</clus>
<clus scale="   33.865">  2  5  1 -1</clus>
</clustering>
</event>
<event>
 9    2  0.4883225E-005  0.1228581E+03  0.7546771E-02  0.1242031E+00
          2   -1    0    0  502    0 -0.00000000000E+00  0.00000000000E+00  0.19279895274E+04  0.19279895274E+04  0.00000000000E+00 0. -1.
         21   -1    0    0  501  502  0.00000000000E+00 -0.00000000000E+00 -0.51688463148E+02  0.51688463148E+02  0.00000000000E+00 0. -1.
         24    2    1    2    0    0  0.69410259329E+02 -0.39793158955E+02  0.15824943130E+04  0.15865535558E+04  0.80390640003E+02 0.  0.
         23    2    1    2    0    0 -0.62253938679E+02  0.68042604801E+02  0.32514888508E+03  0.35032754861E+03  0.92207618450E+02 0.  0.
        -11    1    3    3    0    0 -0.81304265263E+01 -0.18768807640E+02  0.11107689587E+03  0.11294444994E+03  0.00000000000E+00 0.  1.
         12    1    3    3    0    0  0.77540685856E+02 -0.21024351315E+02  0.14714174172E+04  0.14736091058E+04  0.00000000000E+00 0. -1.
        -11    1    4    4    0    0 -0.48167775106E+02  0.49435983460E+02  0.31873812470E+03  0.32612580879E+03  0.00000000000E+00 0. -1.
         11    1    4    4    0    0 -0.14086163574E+02  0.18606621340E+02  0.64107603764E+01  0.24201739825E+02  0.00000000000E+00 0.  1.
          1    1    1    2  501    0 -0.71563206500E+01 -0.28249445846E+02 -0.31342133814E+02  0.42796886194E+02  0.00000000000E+00 0. -1.
<scales pt_clust_5="13000.00000" pt_clust_6="13000.00000" pt_clust_7="13000.00000" pt_clust_8="13000.00000" pt_clust_9="29.14179"></scales>
<clustering>
<clus scale="   29.142">  2  9  1 -1</clus>
<clus scale="   80.391">  5  6 -1 -1</clus>
<clus scale="   92.208">  7  8 -1 -1</clus>
<clus scale="  114.256">  1  5  2 -1</clus>
<clus scale="   29.142">  2  5  1 -1</clus>
</clustering>
</event>
<event>
 9    2  0.4883225E-005  0.9242701E+02  0.7546771E-02  0.1303874E+00
          2   -1    0    0  502    0 -0.00000000000E+00  0.00000000000E+00  0.61250385352E+03  0.61250385352E+03  0.00000000000E+00 0. -1.
         21   -1    0    0  501  502  0.00000000000E+00 -0.00000000000E+00 -0.12978404631E+03  0.12978404631E+03  0.00000000000E+00 0. -1.
         24    2    1    2    0    0 -0.61252796523E+01 -0.10394896535E+02  0.39097250841E+03  0.39948046205E+03  0.81114513495E+02 0.  0.
         23    2    1    2    0    0 -0.23022457352E+02  0.24943167132E+01  0.20483601348E+03  0.22575588025E+03  0.92041674744E+02 0.  0.
        -11    1    3    3    0    0  0.26921137837E+02  0.19315253889E+02  0.10581655758E+03  0.11088268825E+03  0.00000000000E+00 0.  1.
         12    1    3    3    0    0 -0.33046417489E+02 -0.29710150424E+02  0.28515595083E+03  0.28859777380E+03  0.00000000000E+00 0. -1.
        -13    1    4    4    0    0 -0.76025374548E+01  0.39532947708E+02  0.42516882950E+02  0.58552009923E+02  0.00000000000E+00 0.  1.
         13    1    4    4    0    0 -0.15419919897E+02 -0.37038630995E+02  0.16231913053E+03  0.16720387032E+03  0.00000000000E+00 0. -1.
          1    1    1    2  501    0  0.29147737004E+02  0.79005798217E+01 -0.11308871468E+03  0.11705155754E+03  0.00000000000E+00 0. -1.
<scales pt_clust_5="13000.00000" pt_clust_6="13000.00000" pt_clust_7="13000.00000" pt_clust_8="13000.00000" pt_clust_9="30.19950"></scales>
<clustering>
<clus scale="   30.199">  2  9  1 -1</clus>
<clus scale="   81.115">  5  6 -1 -1</clus>
<clus scale="   81.551">  1  5  2 -1</clus>
<clus scale="   92.042">  7  8 -1 -1</clus>
<clus scale="   30.199">  2  5  1 -1</clus>
</clustering>
</event>
<event>
 9    2  0.4883225E-005  0.3638247E+03  0.7546771E-02  0.1086556E+00
         21   -1    0    0  501  502  0.00000000000E+00  0.00000000000E+00  0.79650509396E+02  0.79650509396E+02  0.00000000000E+00 0. -1.
          2   -1    0    0  502    0 -0.00000000000E+00 -0.00000000000E+00 -0.26903646384E+04  0.26903646384E+04  0.00000000000E+00 0. -1.
         24    2    1    2    0    0  0.12306529250E+03 -0.67761882964E+02 -0.51926220926E+03  0.54406515303E+03  0.81467231302E+02 0.  0.
         23    2    1    2    0    0 -0.54034382922E+02 -0.30682562346E+03 -0.13935313317E+04  0.14308561553E+04  0.91422572575E+02 0.  0.
        -11    1    3    3    0    0  0.84920819124E+02 -0.56774177204E+02 -0.46911655528E+03  0.48010956578E+03  0.00000000000E+00 0.  1.
         12    1    3    3    0    0  0.38144473379E+02 -0.10987705760E+02 -0.50145653975E+02  0.63955587244E+02  0.00000000000E+00 0. -1.
        -11    1    4    4    0    0 -0.31619067424E+02 -0.25755821573E+03 -0.12658895432E+04  0.12922121868E+04  0.00000000000E+00 0. -1.
         11    1    4    4    0    0 -0.22415315498E+02 -0.49267407729E+02 -0.12764178850E+03  0.13864396851E+03  0.00000000000E+00 0.  1.
          1    1    1    2  501    0 -0.69030909581E+02  0.37458750643E+03 -0.69792058802E+03  0.79509383951E+03  0.00000000000E+00 0. -1.
<scales pt_clust_5="13000.00000" pt_clust_6="13000.00000" pt_clust_7="13000.00000" pt_clust_8="13000.00000" pt_clust_9="352.15104"></scales>
<clustering>
<clus scale="   81.467">  5  6 -1 -1</clus>
<clus scale="   91.423">  7  8 -1 -1</clus>
<clus scale="  162.400">  2  5  1 -1</clus>
<clus scale="  352.151">  1  9  2 -1</clus>
<clus scale="  352.151">  1  5  2 -1</clus>
</clustering>
</event>
<event>
 9    2  0.4883225E-005  0.1455967E+03  0.7546771E-02  0.1210513E+00
         21   -1    0    0  501  502  0.00000000000E+00  0.00000000000E+00  0.12689982338E+03  0.12689982338E+03  0.00000000000E+00 0.  1.
          2   -1    0    0  502    0 -0.00000000000E+00 -0.00000000000E+00 -0.28451219680E+03  0.28451219680E+03  0.00000000000E+00 0. -1.
         23    2    1    2    0    0 -0.87272329619E+02 -0.26790906301E+01 -0.92924288145E+02  0.16125453103E+03  0.98714048679E+02 0.  0.
         24    2    1    2    0    0  0.15091133324E+03  0.93440103240E+01 -0.17841362476E+02  0.17085452972E+03  0.77533315956E+02 0.  0.
        -13    1    4    4    0    0  0.14896888319E+03  0.14977808314E+02 -0.34086251936E+02  0.15355108424E+03  0.00000000000E+00 0.  1.
         14    1    4    4    0    0  0.19424500495E+01 -0.56337979904E+01  0.16244889460E+02  0.17303445482E+02  0.00000000000E+00 0. -1.
        -13    1    3    3    0    0 -0.50472203371E+02  0.17824020509E+02 -0.10463448097E+03  0.11753090499E+03  0.00000000000E+00 0.  1.
         13    1    3    3    0    0 -0.36800126248E+02 -0.20503111139E+02  0.11710192822E+02  0.43723626041E+02  0.00000000000E+00 0. -1.
          1    1    1    2  501    0 -0.63639003619E+02 -0.66649196939E+01 -0.46846722799E+02  0.79302959422E+02  0.00000000000E+00 0. -1.
<scales pt_clust_5="13000.00000" pt_clust_6="13000.00000" pt_clust_7="13000.00000" pt_clust_8="13000.00000" pt_clust_9="63.98709"></scales>
<clustering>
<clus scale="   63.987">  1  9  2 -1</clus>
<clus scale="   77.533">  5  6 -1 -1</clus>
<clus scale="   98.714">  7  8 -1 -1</clus>
<clus scale="  132.156">  1  5  2 -1</clus>
<clus scale="   63.987">  1  5  2 -1</clus>
</clustering>
</event>
<event>
 9    2  0.4883225E-005  0.1033785E+03  0.7546771E-02  0.1277284E+00
         21   -1    0    0  501  502  0.00000000000E+00  0.00000000000E+00  0.32772549076E+02  0.32772549076E+02  0.00000000000E+00 0. -1.
          2   -1    0    0  502    0 -0.00000000000E+00 -0.00000000000E+00 -0.56080745973E+03  0.56080745973E+03  0.00000000000E+00 0. -1.
         24    2    1    2    0    0  0.37174068757E+02 -0.28108782961E+02 -0.31063565155E+03  0.32404600768E+03  0.79619671006E+02 0.  0.
         23    2    1    2    0    0 -0.46601446152E+02  0.62736440656E+02 -0.13321147591E+03  0.17801606321E+03  0.88526073422E+02 0.  0.
        -13    1    3    3    0    0  0.31019337469E+02 -0.50251839391E+02 -0.14109971879E+03  0.15295939756E+03  0.00000000000E+00 0.  1.
         14    1    3    3    0    0  0.61547312882E+01  0.22143056429E+02 -0.16953593276E+03  0.17108661012E+03  0.00000000000E+00 0. -1.
        -13    1    4    4    0    0  0.31171556178E+00  0.69646115216E+02 -0.67567478190E+02  0.97036295479E+02  0.00000000000E+00 0.  1.
         13    1    4    4    0    0 -0.46913161714E+02 -0.69096745599E+01 -0.65643997719E+02  0.80979767726E+02  0.00000000000E+00 0. -1.
          1    1    1    2  501    0  0.94273773951E+01 -0.34627657695E+02 -0.84187783188E+02  0.91517937914E+02  0.00000000000E+00 0. -1.
<scales pt_clust_5="13000.00000" pt_clust_6="13000.00000" pt_clust_7="13000.00000" pt_clust_8="13000.00000" pt_clust_9="35.88804"></scales>
<clustering>
<clus scale="   35.888">  1  9  2 -1</clus>
<clus scale="   79.620">  5  6 -1 -1</clus>
<clus scale="   88.526">  7  8 -1 -1</clus>
<clus scale="   95.862">  2  5  1 -1</clus>
<clus scale="   35.888">  1  5  2 -1</clus>
</clustering>
</event>
<event>
 9    2  0.4883225E-005  0.3741858E+03  0.7546771E-02  0.1053327E+00
         21   -1    0    0  501  502  0.00000000000E+00  0.00000000000E+00  0.23314525083E+03  0.23314525083E+03  0.00000000000E+00 0. -1.
          2   -1    0    0  502    0 -0.00000000000E+00 -0.00000000000E+00 -0.85227551791E+03  0.85227551791E+03  0.00000000000E+00 0. -1.
         23    2    1    2    0    0  0.29073398429E+03 -0.17579550428E+03 -0.33354529544E+03  0.48456801716E+03  0.90129851863E+02 0.  0.
         24    2    1    2    0    0 -0.34770226303E+03  0.21647293488E+03 -0.14141990137E+03  0.44059169696E+03  0.79775056742E+02 0.  0.
        -13    1    4    4    0    0 -0.12720449251E+03  0.79764083666E+02 -0.11888476362E+02  0.15061416875E+03  0.00000000000E+00 0.  1.
         14    1    4    4    0    0 -0.22049777052E+03  0.13670885121E+03 -0.12953142501E+03  0.28997752821E+03  0.00000000000E+00 0. -1.
        -13    1    3    3    0    0  0.55673945890E+02 -0.55642020353E+02 -0.12685304279E+03  0.14928937385E+03  0.00000000000E+00 0.  1.
         13    1    3    3    0    0  0.23506003840E+03 -0.12015348393E+03 -0.20669225265E+03  0.33527864331E+03  0.00000000000E+00 0. -1.
          1    1    1    2  501    0  0.56968278734E+02 -0.40677430596E+02 -0.14416507027E+03  0.16026105462E+03  0.00000000000E+00 0. -1.
<scales pt_clust_5="13000.00000" pt_clust_6="13000.00000" pt_clust_7="13000.00000" pt_clust_8="13000.00000" pt_clust_9="70.00031"></scales>
<clustering>
<clus scale="   70.000">  1  9  2 -1</clus>
<clus scale="   79.775">  5  6 -1 -1</clus>
<clus scale="   90.130">  7  8 -1 -1</clus>
<clus scale="  371.828">  1  5  2 -1</clus>
<clus scale="   70.000">  1  5  2 -1</clus>
</clustering>
</event>
<event>
 9    2  0.4883225E-005  0.1665175E+03  0.7546771E-02  0.1183046E+00
         21   -1    0    0  501  502  0.00000000000E+00  0.00000000000E+00  0.87826674823E+03  0.87826674823E+03  0.00000000000E+00 0. -1.
          2   -1    0    0  502    0 -0.00000000000E+00 -0.00000000000E+00 -0.11145109656E+04  0.11145109656E+04  0.00000000000E+00 0. -1.
         24    2    1    2    0    0 -0.12503766667E+03 -0.72616197678E+02 -0.10102879727E+04  0.10238613821E+04  0.81870701899E+02 0.  0.
         23    2    1    2    0    0  0.33346418794E+02  0.11109303104E+03 -0.36192308100E+02  0.15260130060E+03  0.92323499652E+02 0.  0.
        -13    1    3    3    0    0 -0.60291097804E+02 -0.56545497048E+02 -0.32548757038E+03  0.33581924927E+03  0.00000000000E+00 0.  1.
         14    1    3    3    0    0 -0.64746568861E+02 -0.16070700630E+02 -0.68480040231E+03  0.68804213287E+03  0.00000000000E+00 0. -1.
        -13    1    4    4    0    0  0.37986172563E+02  0.45023462482E+01 -0.24137181864E+02  0.45230785712E+02  0.00000000000E+00 0.  1.
         13    1    4    4    0    0 -0.46397537695E+01  0.10659068479E+03 -0.12055126235E+02  0.10737051489E+03  0.00000000000E+00 0. -1.
          1    1    1    2  501    0  0.91691247871E+02 -0.38476833361E+02  0.81023606338E+03  0.81631503112E+03  0.00000000000E+00 0. -1.
<scales pt_clust_5="13000.00000" pt_clust_6="13000.00000" pt_clust_7="13000.00000" pt_clust_8="13000.00000" pt_clust_9="99.43717"></scales>
<clustering>
<clus scale="   81.871">  5  6 -1 -1</clus>
<clus scale="   92.323">  7  8 -1 -1</clus>
<clus scale="   99.437">  1  9  2 -1</clus>
<clus scale="  160.957">  2  5  1 -1</clus>
<clus scale="   99.437">  1  5  2 -1</clus>
</clustering>
</event>
<event>
 9    2  0.4883225E-005  0.1117342E+03  0.7546771E-02  0.1263754E+00
          2   -1    0    0  502    0 -0.00000000000E+00  0.00000000000E+00  0.17038506226E+03  0.17038506226E+03  0.00000000000E+00 0. -1.
         21   -1    0    0  501  502  0.00000000000E+00 -0.00000000000E+00 -0.27071150553E+03  0.27071150553E+03  0.00000000000E+00 0. -1.
         24    2    1    2    0    0  0.55306728815E+02  0.30453476621E+02  0.13267211768E+03  0.16653470699E+03  0.78394319514E+02 0.  0.
         23    2    1    2    0    0 -0.29267271514E+02 -0.17188660707E+02 -0.11313595472E+03  0.15118822889E+03  0.94372204954E+02 0.  0.
        -13    1    3    3    0    0  0.28865822012E+02  0.41666468937E+02  0.27821682704E+02  0.57821936517E+02  0.00000000000E+00 0.  1.
         14    1    3    3    0    0  0.26440906803E+02 -0.11212992316E+02  0.10485043498E+03  0.10871277047E+03  0.00000000000E+00 0. -1.
        -13    1    4    4    0    0 -0.22482182466E+02 -0.54679848427E+02 -0.86206553049E+02  0.10453183315E+03  0.00000000000E+00 0.  1.
         13    1    4    4    0    0 -0.67850890472E+01  0.37491187720E+02 -0.26929401668E+02  0.46656395748E+02  0.00000000000E+00 0. -1.
          1    1    1    2  501    0 -0.26039457301E+02 -0.13264815914E+02 -0.11986260623E+03  0.12337363191E+03  0.00000000000E+00 0. -1.
<scales pt_clust_5="13000.00000" pt_clust_6="13000.00000" pt_clust_7="13000.00000" pt_clust_8="13000.00000" pt_clust_9="29.22343"></scales>
<clustering>
<clus scale="   29.223">  2  9  1 -1</clus>
<clus scale="   78.394">  5  6 -1 -1</clus>
<clus scale="   94.372">  7  8 -1 -1</clus>
<clus scale="   98.611">  1  5  2 -1</clus>
<clus scale="   29.223">  2  5  1 -1</clus>
</clustering>
</event>
<event>
 9    2  0.4883225E-005  0.1052535E+03  0.7546771E-02  0.1272419E+00
          2   -1    0    0  502    0 -0.00000000000E+00  0.00000000000E+00  0.33205385156E+03  0.33205385156E+03  0.00000000000E+00 0. -1.
         21   -1    0    0  501  502  0.00000000000E+00 -0.00000000000E+00 -0.84937690947E+02  0.84937690947E+02  0.00000000000E+00 0. -1.
         23    2    1    2    0    0  0.53199424595E+01 -0.66623440874E+02  0.21423754179E+03  0.24253525281E+03  0.91970864323E+02 0.  0.
         24    2    1    2    0    0  0.69652869834E+01  0.27850774610E+02  0.73922521886E+02  0.11667351986E+03  0.85580313888E+02 0.  0.
        -13    1    4    4    0    0 -0.21604079627E+02  0.49754792088E+02  0.43096716907E+02  0.69279164259E+02  0.00000000000E+00 0.  1.
         14    1    4    4    0    0  0.28569366610E+02 -0.21904017478E+02  0.30825804979E+02  0.47394355601E+02  0.00000000000E+00 0. -1.
        -13    1    3    3    0    0 -0.26179927720E+02 -0.60775386079E+02  0.19317168698E+03  0.20419191173E+03  0.00000000000E+00 0. -1.
         13    1    3    3    0    0  0.31499870180E+02 -0.58480547955E+01  0.21065854814E+02  0.38343341082E+02  0.00000000000E+00 0.  1.
          1    1    1    2  501    0 -0.12285229443E+02  0.38772666264E+02 -0.41043903059E+02  0.57782769837E+02  0.00000000000E+00 0. -1.
<scales pt_clust_5="13000.00000" pt_clust_6="13000.00000" pt_clust_7="13000.00000" pt_clust_8="13000.00000" pt_clust_9="40.67243"></scales>
<clustering>
<clus scale="   40.672">  2  9  1 -1</clus>
<clus scale="   85.580">  5  6 -1 -1</clus>
<clus scale="   91.971">  7  8 -1 -1</clus>
<clus scale="   99.718">  2  5  1 -1</clus>
<clus scale="   40.672">  2  5  1 -1</clus>
</clustering>
</event>
<event>
 9    2  0.4883225E-005  0.1151057E+03  0.7546771E-02  0.1254526E+00
         21   -1    0    0  501  502  0.00000000000E+00  0.00000000000E+00  0.22584156369E+03  0.22584156369E+03  0.00000000000E+00 0. -1.
          4   -1    0    0  502    0 -0.00000000000E+00 -0.00000000000E+00 -0.94062386444E+02  0.94062386444E+02  0.00000000000E+00 0. -1.
         23    2    1    2    0    0 -0.34600582392E+02 -0.76393389210E+02 -0.17858846368E+01  0.11019010035E+03  0.71452911868E+02 0.  0.
         24    2    1    2    0    0 -0.15107874890E+01  0.79542679421E+02  0.13062915949E+03  0.17334671371E+03  0.81582997707E+02 0.  0.
        -11    1    4    4    0    0  0.21589898292E+02  0.14098207293E+02  0.41097588599E+00  0.25788603264E+02  0.00000000000E+00 0.  1.
         12    1    4    4    0    0 -0.23100685781E+02  0.65444472129E+02  0.13021818361E+03  0.14755811044E+03  0.00000000000E+00 0. -1.
        -11    1    3    3    0    0 -0.40403372115E+02 -0.40846152712E+02  0.27569071899E+02  0.63725147273E+02  0.00000000000E+00 0. -1.
         11    1    3    3    0    0  0.58027897238E+01 -0.35547236498E+02 -0.29354956536E+02  0.46464953077E+02  0.00000000000E+00 0.  1.
          3    1    1    2  501    0  0.36111369881E+02 -0.31492902110E+01  0.29359023884E+01  0.36367136075E+02  0.00000000000E+00 0. -1.
<scales pt_clust_5="13000.00000" pt_clust_6="13000.00000" pt_clust_7="13000.00000" pt_clust_8="13000.00000" pt_clust_9="36.24845"></scales>
<clustering>
<clus scale="   36.248">  1  9  2 -1</clus>
<clus scale="   71.453">  7  8 -1 -1</clus>
<clus scale="   81.583">  5  6 -1 -1</clus>
<clus scale="  108.162">  2  7  1 -1</clus>
<clus scale="   36.248">  1  5  2 -1</clus>
</clustering>
</event>
<event>
 9    2  0.4883225E-005  0.9861850E+02  0.7546771E-02  0.1292485E+00
         21   -1    0    0  501  502  0.00000000000E+00  0.00000000000E+00  0.59836758474E+02  0.59836758474E+02  0.00000000000E+00 0.  1.
          2   -1    0    0  502    0 -0.00000000000E+00 -0.00000000000E+00 -0.29123195643E+03  0.29123195643E+03  0.00000000000E+00 0. -1.
         23    2    1    2    0    0 -0.32284420425E+02  0.34041847474E+02 -0.17308303199E+03  0.20079296929E+03  0.90326902813E+02 0.  0.
         24    2    1    2    0    0  0.33471396295E+02 -0.79486444407E+01 -0.82062242909E+02  0.11497234193E+03  0.72807364877E+02 0.  0.
        -11    1    4    4    0    0  0.44495116350E+02 -0.76638527143E+01 -0.90466434515E+02  0.10110749622E+03  0.00000000000E+00 0.  1.
         12    1    4    4    0    0 -0.11023720056E+02 -0.28479172632E+00  0.84041916067E+01  0.13864845717E+02  0.00000000000E+00 0. -1.
        -11    1    3    3    0    0 -0.78563056505E+00  0.42007349285E+02 -0.24367428322E+02  0.48569601320E+02  0.00000000000E+00 0.  1.
         11    1    3    3    0    0 -0.31498789860E+02 -0.79655018109E+01 -0.14871560367E+03  0.15222336797E+03  0.00000000000E+00 0. -1.
          1    1    1    2  501    0 -0.11869758696E+01 -0.26093203034E+02  0.23750076946E+02  0.35303403677E+02  0.00000000000E+00 0. -1.
<scales pt_clust_5="13000.00000" pt_clust_6="13000.00000" pt_clust_7="13000.00000" pt_clust_8="13000.00000" pt_clust_9="26.12019"></scales>
<clustering>
<clus scale="   26.120">  1  9  2 -1</clus>
<clus scale="   72.807">  5  6 -1 -1</clus>
<clus scale="   82.871">  1  5  2 -1</clus>
<clus scale="   90.327">  7  8 -1 -1</clus>
<clus scale="   26.120">  1  5  2 -1</clus>
</clustering>
</event>
<event>
 9    2  0.4883225E-005  0.9668794E+02  0.7546771E-02  0.1295881E+00
         21   -1    0    0  501  502  0.00000000000E+00  0.00000000000E+00  0.16186053672E+03  0.16186053672E+03  0.00000000000E+00 0. -1.
          2   -1    0    0  502    0 -0.00000000000E+00 -0.00000000000E+00 -0.48394964102E+03  0.48394964102E+03  0.00000000000E+00 0. -1.
         24    2    1    2    0    0 -0.58571964854E+01  0.15580327303E+02 -0.45132779113E+03  0.45883890645E+03  0.80989589949E+02 0.  0.
         23    2    1    2    0    0  0.19497256241E+02  0.81884869205E+01  0.65535666263E+02  0.11762372202E+03  0.95358387733E+02 0.  0.
        -13    1    3    3    0    0 -0.14005134834E+02 -0.19957116624E+02 -0.47718948085E+02  0.53586643037E+02  0.00000000000E+00 0.  1.
         14    1    3    3    0    0  0.81479383488E+01  0.35537443927E+02 -0.40360884304E+03  0.40525226341E+03  0.00000000000E+00 0. -1.
        -13    1    4    4    0    0  0.37138978774E+02 -0.20912683192E+02 -0.12794090180E+01  0.42641305680E+02  0.00000000000E+00 0. -1.
         13    1    4    4    0    0 -0.17641722533E+02  0.29101170113E+02  0.66815075281E+02  0.74982416343E+02  0.00000000000E+00 0.  1.
          1    1    1    2  501    0 -0.13640059756E+02 -0.23768814224E+02  0.63703020569E+02  0.69347549267E+02  0.00000000000E+00 0. -1.
<scales pt_clust_5="13000.00000" pt_clust_6="13000.00000" pt_clust_7="13000.00000" pt_clust_8="13000.00000" pt_clust_9="27.40452"></scales>
<clustering>
<clus scale="   27.405">  1  9  2 -1</clus>
<clus scale="   80.990">  5  6 -1 -1</clus>
<clus scale="   82.551">  2  5  1 -1</clus>
<clus scale="   95.358">  7  8 -1 -1</clus>
<clus scale="   27.405">  1  5  2 -1</clus>
</clustering>
</event>
<event>
 9    2  0.4883225E-005  0.1362537E+03  0.7546771E-02  0.1237912E+00
          2   -1    0    0  502    0 -0.00000000000E+00  0.00000000000E+00  0.22137935786E+03  0.22137935786E+03  0.00000000000E+00 0. -1.
         21   -1    0    0  501  502  0.00000000000E+00 -0.00000000000E+00 -0.54198280261E+03  0.54198280261E+03  0.00000000000E+00 0. -1.
         24    2    1    2    0    0  0.19096314648E+02  0.37903712407E+02  0.75145961617E+02  0.11807001040E+03  0.80574506896E+02 0.  0.
         23    2    1    2    0    0  0.49507744493E+02  0.38726074682E+02  0.93688772882E+02  0.14516379403E+03  0.91346676500E+02 0.  0.
        -13    1    3    3    0    0 -0.15321733525E+02  0.14230160077E+02  0.73334082645E+02  0.76257069517E+02  0.00000000000E+00 0.  1.
         14    1    3    3    0    0  0.34418048173E+02  0.23673552330E+02  0.18118789725E+01  0.41812940884E+02  0.00000000000E+00 0. -1.
        -11    1    4    4    0    0  0.59371868926E+02  0.33970300538E+01  0.19812285815E+02  0.62682416212E+02  0.00000000000E+00 0.  1.
         11    1    4    4    0    0 -0.98641244327E+01  0.35329044629E+02  0.73876487067E+02  0.82481377817E+02  0.00000000000E+00 0. -1.
          1    1    1    2  501    0 -0.68604059141E+02 -0.76629787090E+02 -0.48943817925E+03  0.50012835603E+03  0.00000000000E+00 0. -1.
<scales pt_clust_5="13000.00000" pt_clust_6="13000.00000" pt_clust_7="13000.00000" pt_clust_8="13000.00000" pt_clust_9="101.09819"></scales>
<clustering>
<clus scale="   80.575">  5  6 -1 -1</clus>
<clus scale="   91.069">  1  5  2 -1</clus>
<clus scale="   91.347">  7  8 -1 -1</clus>
<clus scale="  101.098">  2  9  1 -1</clus>
<clus scale="  101.098">  2  5  1 -1</clus>
</clustering>
</event>
<event>
 9    2  0.4883225E-005  0.1212376E+03  0.7546771E-02  0.1245093E+00
         -3   -1    0    0    0  501 -0.00000000000E+00  0.00000000000E+00  0.29594353664E+03  0.29594353664E+03  0.00000000000E+00 0.  1.
         21   -1    0    0  501  502  0.00000000000E+00 -0.00000000000E+00 -0.98050609271E+02  0.98050609271E+02  0.00000000000E+00 0.  1.
         23    2    1    2    0    0  0.83605532757E+02 -0.53066200720E+02  0.18772195291E+03  0.23191224876E+03  0.93476482353E+02 0.  0.
         24    2    1    2    0    0 -0.21996772729E+02  0.41747913657E+02  0.26655984018E+02  0.97309229503E+02  0.80819541927E+02 0.  0.
        -11    1    4    4    0    0  0.10316693210E+02  0.44259755711E+02  0.41607269469E+02  0.61615947669E+02  0.00000000000E+00 0.  1.
         12    1    4    4    0    0 -0.32313465939E+02 -0.25118420543E+01 -0.14951285451E+02  0.35693281835E+02  0.00000000000E+00 0. -1.
        -11    1    3    3    0    0  0.91424345864E+02 -0.97587587968E+01  0.13307239103E+03  0.16174642390E+03  0.00000000000E+00 0.  1.
         11    1    3    3    0    0 -0.78188131071E+01 -0.43307441923E+02  0.54649561877E+02  0.70165824856E+02  0.00000000000E+00 0. -1.
         -4    1    1    2    0  502 -0.61608760029E+02  0.11318287063E+02 -0.16485009558E+02  0.64772667650E+02  0.00000000000E+00 0.  1.
<scales pt_clust_5="13000.00000" pt_clust_6="13000.00000" pt_clust_7="13000.00000" pt_clust_8="13000.00000" pt_clust_9="62.63979"></scales>
<clustering>
<clus scale="   62.640">  2  9  1 -1</clus>
<clus scale="   80.820">  5  6 -1 -1</clus>
<clus scale="   93.476">  7  8 -1 -1</clus>
<clus scale="  111.770">  2  5  1 -1</clus>
<clus scale="   62.640">  2  5  1 -1</clus>
</clustering>
</event>
<event>
 9    2  0.4883225E-005  0.1011207E+03  0.7546771E-02  0.1285918E+00
          2   -1    0    0  502    0 -0.00000000000E+00  0.00000000000E+00  0.23129674666E+03  0.23129674666E+03  0.00000000000E+00 0. -1.
         21   -1    0    0  501  502  0.00000000000E+00 -0.00000000000E+00 -0.22252759117E+03  0.22252759117E+03  0.00000000000E+00 0.  1.
         23    2    1    2    0    0  0.47336799694E+02 -0.59092630375E+01  0.16840422215E+03  0.19741272580E+03  0.91302301588E+02 0.  0.
         24    2    1    2    0    0 -0.33312807693E+02 -0.19170800873E+02  0.92979468867E+01  0.85052208960E+02  0.75300489176E+02 0.  0.
        -11    1    4    4    0    0 -0.11930287136E+02 -0.20564533286E+02 -0.31205273385E+02  0.39230101547E+02  0.00000000000E+00 0.  1.
         12    1    4    4    0    0 -0.21382520558E+02  0.13937324124E+01  0.40503220271E+02  0.45822107413E+02  0.00000000000E+00 0. -1.
        -13    1    3    3    0    0  0.18570930073E+02  0.39094287205E+02  0.42550551476E+02  0.60694251513E+02  0.00000000000E+00 0. -1.
         13    1    3    3    0    0  0.28765869621E+02 -0.45003550242E+02  0.12585367067E+03  0.13671847429E+03  0.00000000000E+00 0.  1.
          1    1    1    2  501    0 -0.14023992000E+02  0.25080063911E+02 -0.16893301354E+03  0.17135940307E+03  0.00000000000E+00 0. -1.
<scales pt_clust_5="13000.00000" pt_clust_6="13000.00000" pt_clust_7="13000.00000" pt_clust_8="13000.00000" pt_clust_9="28.73468"></scales>
<clustering>
<clus scale="   28.735">  2  9  1 -1</clus>
<clus scale="   75.300">  5  6 -1 -1</clus>
<clus scale="   86.945">  2  5  1 -1</clus>
<clus scale="   91.302">  7  8 -1 -1</clus>
<clus scale="   28.735">  2  5  1 -1</clus>
</clustering>
</event>
<event>
 9    2  0.4883225E-005  0.9297436E+02  0.7546771E-02  0.1301286E+00
          2   -1    0    0  502    0 -0.00000000000E+00  0.00000000000E+00  0.29582715539E+03  0.29582715539E+03  0.00000000000E+00 0. -1.
         21   -1    0    0  501  502  0.00000000000E+00 -0.00000000000E+00 -0.11854831762E+03  0.11854831762E+03  0.00000000000E+00 0. -1.
         24    2    1    2    0    0  0.18332838975E+02 -0.23930701564E+02  0.22857527209E+03  0.24414508615E+03  0.80320586531E+02 0.  0.
         23    2    1    2    0    0 -0.12171196718E+02 -0.13959829833E+02  0.15833354247E+02  0.92899495757E+02  0.89647121129E+02 0.  0.
        -13    1    3    3    0    0 -0.29324884207E+02 -0.53880600931E+01  0.48339914621E+02  0.56795487241E+02  0.00000000000E+00 0.  1.
         14    1    3    3    0    0  0.47657723182E+02 -0.18542641471E+02  0.18023535747E+03  0.18734959891E+03  0.00000000000E+00 0. -1.
        -11    1    4    4    0    0 -0.27816838303E+02  0.30776576808E+02 -0.36771097584E+01  0.41647272532E+02  0.00000000000E+00 0.  1.
         11    1    4    4    0    0  0.15645641585E+02 -0.44736406641E+02  0.19510464006E+02  0.51252223225E+02  0.00000000000E+00 0. -1.
          1    1    1    2  501    0 -0.61616422569E+01  0.37890531397E+02 -0.67129788571E+02  0.77330891100E+02  0.00000000000E+00 0. -1.
<scales pt_clust_5="13000.00000" pt_clust_6="13000.00000" pt_clust_7="13000.00000" pt_clust_8="13000.00000" pt_clust_9="38.38826"></scales>
<clustering>
<clus scale="   38.388">  2  9  1 -1</clus>
<clus scale="   80.321">  5  6 -1 -1</clus>
<clus scale="   84.018">  1  5  2 -1</clus>
<clus scale="   89.647">  7  8 -1 -1</clus>
<clus scale="   38.388">  2  5  1 -1</clus>
</clustering>
</event>
<event>
 9    2  0.4883225E-005  0.1379145E+03  0.7546771E-02  0.1227082E+00
          2   -1    0    0  502    0 -0.00000000000E+00  0.00000000000E+00  0.72814817371E+03  0.72814817371E+03  0.00000000000E+00 0. -1.
         21   -1    0    0  501  502  0.00000000000E+00 -0.00000000000E+00 -0.55133911808E+02  0.55133911808E+02  0.00000000000E+00 0. -1.
         23    2    1    2    0    0  0.20926671011E+01  0.60245313261E+02  0.36958792801E+03  0.38553228391E+03  0.91684395523E+02 0.  0.
         24    2    1    2    0    0 -0.80145130782E+02  0.47198801231E+02  0.16555074934E+03  0.20631808626E+03  0.80679199822E+02 0.  0.
        -13    1    4    4    0    0 -0.18175682420E+02  0.33473255190E+02  0.12576887749E+03  0.13141013960E+03  0.00000000000E+00 0.  1.
         14    1    4    4    0    0 -0.61969448362E+02  0.13725546041E+02  0.39781871850E+02  0.74907946657E+02  0.00000000000E+00 0. -1.
        -13    1    3    3    0    0 -0.59001595068E+01 -0.21911909965E+02  0.42378613666E+02  0.48071723256E+02  0.00000000000E+00 0.  1.
         13    1    3    3    0    0  0.79928266080E+01  0.82157223226E+02  0.32720931434E+03  0.33746056065E+03  0.00000000000E+00 0. -1.
          1    1    1    2  501    0  0.78052463681E+02 -0.10744411449E+03  0.13787558455E+03  0.19143171535E+03  0.00000000000E+00 0. -1.
<scales pt_clust_5="13000.00000" pt_clust_6="13000.00000" pt_clust_7="13000.00000" pt_clust_8="13000.00000" pt_clust_9="111.85391"></scales>
<clustering>
<clus scale="   80.679">  5  6 -1 -1</clus>
<clus scale="   91.684">  7  8 -1 -1</clus>
<clus scale="  109.727">  1  7  2 -1</clus>
<clus scale="  111.854">  2  9  1 -1</clus>
<clus scale="  111.854">  2  5  1 -1</clus>
</clustering>
</event>
<event>
 9    2  0.4883225E-005  0.2343919E+03  0.7546771E-02  0.1154131E+00
         21   -1    0    0  501  502  0.00000000000E+00  0.00000000000E+00  0.98392730167E+03  0.98392730167E+03  0.00000000000E+00 0.  1.
         -3   -1    0    0    0  501 -0.00000000000E+00 -0.00000000000E+00 -0.23516234564E+03  0.23516234564E+03  0.00000000000E+00 0.  1.
         24    2    1    2    0    0 -0.50704010848E+02  0.57317047055E+02  0.41693253019E+02  0.11951769694E+03  0.81792493154E+02 0.  0.
         23    2    1    2    0    0 -0.95873098630E+02 -0.21431944698E+03 -0.94705726679E+02  0.26952276546E+03  0.92460099731E+02 0.  0.
        -13    1    3    3    0    0 -0.15611205410E+02  0.25217684413E+02  0.61282481247E+02  0.68082184522E+02  0.00000000000E+00 0.  1.
         14    1    3    3    0    0 -0.35092805437E+02  0.32099362642E+02 -0.19589228228E+02  0.51435512422E+02  0.00000000000E+00 0. -1.
        -11    1    4    4    0    0 -0.39621845990E+02 -0.20513552133E+02  0.41438558273E+01  0.44809240586E+02  0.00000000000E+00 0. -1.
         11    1    4    4    0    0 -0.56251252641E+02 -0.19380589485E+03 -0.98849582507E+02  0.22471352488E+03  0.00000000000E+00 0.  1.
         -4    1    1    2    0  502  0.14657710948E+03  0.15700239992E+03  0.80177742969E+03  0.83004918491E+03  0.00000000000E+00 0.  1.
<scales pt_clust_5="13000.00000" pt_clust_6="13000.00000" pt_clust_7="13000.00000" pt_clust_8="13000.00000" pt_clust_9="215.38502"></scales>
<clustering>
<clus scale="   81.792">  5  6 -1 -1</clus>
<clus scale="   92.460">  7  8 -1 -1</clus>
<clus scale="  112.010">  2  5  1 -1</clus>
<clus scale="  215.385">  1  9  2 -1</clus>
<clus scale="  215.385">  1  5  2 -1</clus>
</clustering>
</event>
<event>
 9    2  0.4883225E-005  0.1171791E+03  0.7546771E-02  0.1251363E+00
         21   -1    0    0  501  502  0.00000000000E+00  0.00000000000E+00  0.30664273117E+03  0.30664273117E+03  0.00000000000E+00 0. -1.
          2   -1    0    0  502    0 -0.00000000000E+00 -0.00000000000E+00 -0.77217881024E+02  0.77217881024E+02  0.00000000000E+00 0. -1.
         24    2    1    2    0    0 -0.54588438360E+02 -0.39356588447E+02  0.14443398830E+02  0.10627870140E+03  0.80979700814E+02 0.  0.
         23    2    1    2    0    0  0.89673313969E+02  0.23334606221E+02  0.12874383347E+03  0.18311192010E+03  0.91483296512E+02 0.  0.
        -11    1    3    3    0    0  0.13912002322E+02 -0.15835550444E+02  0.25423243937E+02  0.33024987490E+02  0.00000000000E+00 0.  1.
         12    1    3    3    0    0 -0.68500440682E+02 -0.23521038003E+02 -0.10979845107E+02  0.73253713906E+02  0.00000000000E+00 0. -1.
        -11    1    4    4    0    0  0.32891544695E+02  0.12381093877E+02  0.11948546026E+03  0.12454686031E+03  0.00000000000E+00 0.  1.
         11    1    4    4    0    0  0.56781769273E+02  0.10953512344E+02  0.92583732114E+01  0.58565059797E+02  0.00000000000E+00 0. -1.
          1    1    1    2  501    0 -0.35084875608E+02  0.16021982226E+02  0.86237617846E+02  0.94469990699E+02  0.00000000000E+00 0. -1.
<scales pt_clust_5="13000.00000" pt_clust_6="13000.00000" pt_clust_7="13000.00000" pt_clust_8="13000.00000" pt_clust_9="38.57010"></scales>
<clustering>
<clus scale="   38.570">  1  9  2 -1</clus>
<clus scale="   80.980">  5  6 -1 -1</clus>
<clus scale="   91.483">  7  8 -1 -1</clus>
<clus scale="  109.176">  2  5  1 -1</clus>
<clus scale="   38.570">  1  5  2 -1</clus>
</clustering>
</event>
<event>
 9    2  0.4883225E-005  0.1156260E+03  0.7546771E-02  0.1254076E+00
         -1   -1    0    0    0  501 -0.00000000000E+00  0.00000000000E+00  0.37244678806E+02  0.37244678806E+02  0.00000000000E+00 0.  1.
         21   -1    0    0  501  502  0.00000000000E+00 -0.00000000000E+00 -0.67988680609E+03  0.67988680609E+03  0.00000000000E+00 0.  1.
         24    2    1    2    0    0 -0.82855886704E+02 -0.18430757541E+02 -0.11089357522E+03  0.16107371903E+03  0.80265603788E+02 0.  0.
         23    2    1    2    0    0  0.32579186650E+02  0.40195647010E+02 -0.29109459307E+03  0.30924653241E+03  0.90665661915E+02 0.  0.
        -13    1    3    3    0    0 -0.85126560271E+02 -0.36526788732E+02 -0.10852454198E+03  0.14268256295E+03  0.00000000000E+00 0.  1.
         14    1    3    3    0    0  0.22706735661E+01  0.18096031191E+02 -0.23690332377E+01  0.18391156075E+02  0.00000000000E+00 0. -1.
        -13    1    4    4    0    0  0.21671202274E+02 -0.25649614201E+02 -0.60576836654E+02  0.69261077494E+02  0.00000000000E+00 0. -1.
         13    1    4    4    0    0  0.10907984376E+02  0.65845261211E+02 -0.23051775642E+03  0.23998545491E+03  0.00000000000E+00 0.  1.
         -2    1    1    2    0  502  0.50276700054E+02 -0.21764889469E+02 -0.24065395900E+03  0.24681123347E+03  0.00000000000E+00 0.  1.
<scales pt_clust_5="13000.00000" pt_clust_6="13000.00000" pt_clust_7="13000.00000" pt_clust_8="13000.00000" pt_clust_9="54.78555"></scales>
<clustering>
<clus scale="   54.786">  2  9  1 -1</clus>
<clus scale="   80.266">  5  6 -1 -1</clus>
<clus scale="   90.666">  7  8 -1 -1</clus>
<clus scale="  107.665">  1  5  2 -1</clus>
<clus scale="   54.786">  2  5  1 -1</clus>
</clustering>
</event>
<event>
 9    2  0.4883225E-005  0.9051825E+02  0.7546771E-02  0.1308115E+00
          2   -1    0    0  502    0 -0.00000000000E+00  0.00000000000E+00  0.68264829935E+03  0.68264829935E+03  0.00000000000E+00 0. -1.
         21   -1    0    0  501  502  0.00000000000E+00 -0.00000000000E+00 -0.18002009896E+03  0.18002009896E+03  0.00000000000E+00 0. -1.
         24    2    1    2    0    0  0.10725457045E+01 -0.14951049176E+02  0.63910659075E+03  0.64410662054E+03  0.78685577148E+02 0.  0.
         23    2    1    2    0    0 -0.18626605955E+02  0.54139750416E+02 -0.40374503734E+02  0.11330088113E+03  0.89044517451E+02 0.  0.
        -13    1    3    3    0    0 -0.23117992198E+02  0.14778220782E+02  0.10173925540E+03  0.10537415937E+03  0.00000000000E+00 0.  1.
         14    1    3    3    0    0  0.24190537902E+02 -0.29729269958E+02  0.53736733535E+03  0.53873246117E+03  0.00000000000E+00 0. -1.
        -11    1    4    4    0    0  0.76729939692E+01 -0.19282737354E+02 -0.27187653781E+02  0.34203323149E+02  0.00000000000E+00 0.  1.
         11    1    4    4    0    0 -0.26299599925E+02  0.73422487770E+02 -0.13186849953E+02  0.79097557979E+02  0.00000000000E+00 0. -1.
          1    1    1    2  501    0  0.17554060251E+02 -0.39188701240E+02 -0.96103886636E+02  0.10526089665E+03  0.00000000000E+00 0. -1.
<scales pt_clust_5="13000.00000" pt_clust_6="13000.00000" pt_clust_7="13000.00000" pt_clust_8="13000.00000" pt_clust_9="42.94065"></scales>
<clustering>
<clus scale="   42.941">  2  9  1 -1</clus>
<clus scale="   78.686">  5  6 -1 -1</clus>
<clus scale="   80.350">  1  5  2 -1</clus>
<clus scale="   89.045">  7  8 -1 -1</clus>
<clus scale="   42.941">  2  5  1 -1</clus>
</clustering>
</event>
<event>
 9    2  0.4883225E-005  0.9740872E+02  0.7546771E-02  0.1292745E+00
          2   -1    0    0  502    0 -0.00000000000E+00  0.00000000000E+00  0.98933352029E+02  0.98933352029E+02  0.00000000000E+00 0. -1.
         21   -1    0    0  501  502  0.00000000000E+00 -0.00000000000E+00 -0.14736355059E+03  0.14736355059E+03  0.00000000000E+00 0. -1.
         24    2    1    2    0    0 -0.28347372096E+01 -0.38212990235E+02  0.38095532564E+02  0.95372883223E+02  0.78590386786E+02 0.  0.
         23    2    1    2    0    0 -0.18698331544E+02  0.19758356205E+02 -0.66094206430E+02  0.11597128319E+03  0.91328386375E+02 0.  0.
        -11    1    3    3    0    0 -0.12916802336E+02  0.22074456199E+02  0.57367371747E+01  0.26211363041E+02  0.00000000000E+00 0.  1.
         12    1    3    3    0    0  0.10082065126E+02 -0.60287446434E+02  0.32358795390E+02  0.69161520182E+02  0.00000000000E+00 0. -1.
        -13    1    4    4    0    0  0.26600103851E+02  0.69182410700E+01  0.76035873628E+01  0.28517400393E+02  0.00000000000E+00 0.  1.
         13    1    4    4    0    0 -0.45298435395E+02  0.12840115135E+02 -0.73697793793E+02  0.87453882794E+02  0.00000000000E+00 0. -1.
          1    1    1    2  501    0  0.21533068754E+02  0.18454634030E+02 -0.20431524696E+02  0.34952736209E+02  0.00000000000E+00 0. -1.
<scales pt_clust_5="13000.00000" pt_clust_6="13000.00000" pt_clust_7="13000.00000" pt_clust_8="13000.00000" pt_clust_9="28.35924"></scales>
<clustering>
<clus scale="   28.359">  2  9  1 -1</clus>
<clus scale="   78.590">  5  6 -1 -1</clus>
<clus scale="   85.581">  1  5  2 -1</clus>
<clus scale="   91.328">  7  8 -1 -1</clus>
<clus scale="   28.359">  2  5  1 -1</clus>
</clustering>
</event>
<event>
 9    2  0.4883225E-005  0.1044097E+03  0.7546771E-02  0.1275127E+00
         21   -1    0    0  501  502  0.00000000000E+00  0.00000000000E+00  0.11788238486E+03  0.11788238486E+03  0.00000000000E+00 0. -1.
          2   -1    0    0  502    0 -0.00000000000E+00 -0.00000000000E+00 -0.15828799220E+03  0.15828799220E+03  0.00000000000E+00 0. -1.
         24    2    1    2    0    0 -0.19912154664E+02 -0.64151499921E+02 -0.38856640328E+02  0.11120801969E+03  0.79658497981E+02 0.  0.
         23    2    1    2    0    0 -0.96033388538E+01  0.34519674706E+02  0.42198608925E+02  0.10443914014E+03  0.88560596990E+02 0.  0.
        -11    1    3    3    0    0  0.26677343328E+02 -0.61777264573E+01 -0.19229998643E+00  0.27383972146E+02  0.00000000000E+00 0.  1.
         12    1    3    3    0    0 -0.46589497992E+02 -0.57973773464E+02 -0.38664340342E+02  0.83824047545E+02  0.00000000000E+00 0. -1.
        -11    1    4    4    0    0 -0.25998850755E+02  0.59763874776E+02  0.32399035543E+02  0.72782954550E+02  0.00000000000E+00 0. -1.
         11    1    4    4    0    0  0.16395511901E+02 -0.25244200071E+02  0.97995733822E+01  0.31656185591E+02  0.00000000000E+00 0.  1.
          1    1    1    2  501    0  0.29515493518E+02  0.29631825215E+02 -0.43747575941E+02  0.60523217230E+02  0.00000000000E+00 0. -1.
<scales pt_clust_5="13000.00000" pt_clust_6="13000.00000" pt_clust_7="13000.00000" pt_clust_8="13000.00000" pt_clust_9="41.82357"></scales>
<clustering>
<clus scale="   41.824">  1  9  2 -1</clus>
<clus scale="   79.658">  5  6 -1 -1</clus>
<clus scale="   88.561">  7  8 -1 -1</clus>
<clus scale="   96.974">  2  5  1 -1</clus>
<clus scale="   41.824">  1  5  2 -1</clus>
</clustering>
</event>
<event>
 9    2  0.4883225E-005  0.1613043E+03  0.7546771E-02  0.1212054E+00
         21   -1    0    0  501  502  0.00000000000E+00  0.00000000000E+00  0.23480384160E+03  0.23480384160E+03  0.00000000000E+00 0. -1.
          2   -1    0    0  502    0 -0.00000000000E+00 -0.00000000000E+00 -0.23746609264E+03  0.23746609264E+03  0.00000000000E+00 0. -1.
         24    2    1    2    0    0  0.23118665183E+02  0.43769070834E+02 -0.45034008230E+01  0.94153657705E+02  0.79965157405E+02 0.  0.
         23    2    1    2    0    0  0.35256762331E+02 -0.13922060559E+03  0.12668679951E+03  0.21047045260E+03  0.87308933884E+02 0.  0.
        -11    1    3    3    0    0  0.44226119850E+02  0.20678305946E+02 -0.26840732537E+02  0.55713256384E+02  0.00000000000E+00 0.  1.
         12    1    3    3    0    0 -0.21107454667E+02  0.23090764888E+02  0.22337331714E+02  0.38440401321E+02  0.00000000000E+00 0. -1.
        -11    1    4    4    0    0  0.31148419749E+02 -0.62452943782E+01  0.42392179708E+02  0.52974754885E+02  0.00000000000E+00 0.  1.
         11    1    4    4    0    0  0.41083425821E+01 -0.13297531121E+03  0.84294619806E+02  0.15749569772E+03  0.00000000000E+00 0. -1.
          1    1    1    2  501    0 -0.58375427514E+02  0.95451534758E+02 -0.12484564973E+03  0.16764582393E+03  0.00000000000E+00 0. -1.
<scales pt_clust_5="13000.00000" pt_clust_6="13000.00000" pt_clust_7="13000.00000" pt_clust_8="13000.00000" pt_clust_9="135.63276"></scales>
<clustering>
<clus scale="   79.965">  5  6 -1 -1</clus>
<clus scale="   87.309">  7  8 -1 -1</clus>
<clus scale="   94.046">  2  5  1 -1</clus>
<clus scale="  135.633">  1  9  2 -1</clus>
<clus scale="  135.633">  1  5  2 -1</clus>
</clustering>
</event>
<event>
 9    2  0.4883225E-005  0.1193749E+03  0.7546771E-02  0.1250266E+00
         21   -1    0    0  501  502  0.00000000000E+00  0.00000000000E+00  0.58929848474E+02  0.58929848474E+02  0.00000000000E+00 0. -1.
          2   -1    0    0  502    0 -0.00000000000E+00 -0.00000000000E+00 -0.59194161720E+03  0.59194161720E+03  0.00000000000E+00 0. -1.
         23    2    1    2    0    0 -0.44594247867E+01 -0.57414877122E+02 -0.61298444459E+02  0.12205543385E+03  0.88451540717E+02 0.  0.
         24    2    1    2    0    0  0.41884933421E+02 -0.58865338864E+02 -0.15214169396E+03  0.18669356220E+03  0.80547596842E+02 0.  0.
        -11    1    4    4    0    0  0.61487274456E+02 -0.31545594276E+02 -0.72075194572E+02  0.99853107667E+02  0.00000000000E+00 0.  1.
         12    1    4    4    0    0 -0.19602341034E+02 -0.27319744588E+02 -0.80066499392E+02  0.86840454532E+02  0.00000000000E+00 0. -1.
        -13    1    3    3    0    0  0.25166937833E+02 -0.63000555702E+01  0.11433960897E+02  0.28351383068E+02  0.00000000000E+00 0. -1.
         13    1    3    3    0    0 -0.29626362620E+02 -0.51114821552E+02 -0.72732405357E+02  0.93704050784E+02  0.00000000000E+00 0.  1.
          1    1    1    2  501    0 -0.37425508635E+02  0.11628021599E+03 -0.31957163030E+03  0.34212246962E+03  0.00000000000E+00 0. -1.
<scales pt_clust_5="13000.00000" pt_clust_6="13000.00000" pt_clust_7="13000.00000" pt_clust_8="13000.00000" pt_clust_9="88.10483"></scales>
<clustering>
<clus scale="   80.548">  5  6 -1 -1</clus>
<clus scale="   88.452">  7  8 -1 -1</clus>
<clus scale="  105.546">  2  7  1 -1</clus>
<clus scale="   88.105">  1  9  2 -1</clus>
<clus scale="   88.105">  1  5  2 -1</clus>
</clustering>
</event>
<event>
 9    2  0.4883225E-005  0.1051370E+03  0.7546771E-02  0.1273406E+00
         21   -1    0    0  501  502  0.00000000000E+00  0.00000000000E+00  0.20700565094E+03  0.20700565094E+03  0.00000000000E+00 0.  1.
          2   -1    0    0  502    0 -0.00000000000E+00 -0.00000000000E+00 -0.20796105741E+03  0.20796105741E+03  0.00000000000E+00 0. -1.
         24    2    1    2    0    0  0.17491542772E+02  0.54126183241E+02 -0.16326245866E+03  0.19064466000E+03  0.80343999146E+02 0.  0.
         23    2    1    2    0    0 -0.46929952153E+02 -0.39167298802E+02  0.75823689588E+02  0.13174904917E+03  0.88724756132E+02 0.  0.
        -13    1    3    3    0    0  0.32938609476E+02  0.29344485324E+02 -0.27963728258E+02  0.52230459612E+02  0.00000000000E+00 0.  1.
         14    1    3    3    0    0 -0.15447066704E+02  0.24781697917E+02 -0.13529873040E+03  0.13841420039E+03  0.00000000000E+00 0. -1.
        -11    1    4    4    0    0 -0.94276911920E+01 -0.52981524989E+02  0.74317306750E+02  0.91755029475E+02  0.00000000000E+00 0.  1.
         11    1    4    4    0    0 -0.37502260961E+02  0.13814226187E+02  0.15063828380E+01  0.39994019698E+02  0.00000000000E+00 0. -1.
          1    1    1    2  501    0  0.29438409381E+02 -0.14958884439E+02  0.86483362594E+02  0.92572999174E+02  0.00000000000E+00 0. -1.
<scales pt_clust_5="13000.00000" pt_clust_6="13000.00000" pt_clust_7="13000.00000" pt_clust_8="13000.00000" pt_clust_9="33.02103"></scales>
<clustering>
<clus scale="   33.021">  1  9  2 -1</clus>
<clus scale="   80.344">  5  6 -1 -1</clus>
<clus scale="   88.725">  7  8 -1 -1</clus>
<clus scale="   98.168">  2  5  1 -1</clus>
<clus scale="   33.021">  1  5  2 -1</clus>
</clustering>
</event>
<event>
 9    2  0.4883225E-005  0.1035360E+03  0.7546771E-02  0.1276996E+00
         -1   -1    0    0    0  501 -0.00000000000E+00  0.00000000000E+00  0.28528415824E+03  0.28528415824E+03  0.00000000000E+00 0.  1.
         21   -1    0    0  501  502  0.00000000000E+00 -0.00000000000E+00 -0.57659428671E+02  0.57659428671E+02  0.00000000000E+00 0.  1.
         23    2    1    2    0    0  0.56023927246E+02 -0.32125152307E+02  0.10666808530E+03  0.15393956596E+03  0.90269616765E+02 0.  0.
         24    2    1    2    0    0 -0.41913762961E+02 -0.12226301077E+02  0.52707767845E+02  0.10639616850E+03  0.81460357949E+02 0.  0.
        -13    1    4    4    0    0 -0.22804462257E+02  0.14159745392E+02 -0.15364759013E+02  0.30929237106E+02  0.00000000000E+00 0.  1.
         14    1    4    4    0    0 -0.19109300704E+02 -0.26386046469E+02  0.68072526858E+02  0.75466931397E+02  0.00000000000E+00 0. -1.
        -13    1    3    3    0    0  0.84213793872E+01 -0.44982763351E+02  0.12176688325E+02  0.47356524028E+02  0.00000000000E+00 0.  1.
         13    1    3    3    0    0  0.47602547859E+02  0.12857611045E+02  0.94491396980E+02  0.10658304193E+03  0.00000000000E+00 0. -1.
         -2    1    1    2    0  502 -0.14110164285E+02  0.44351453383E+02  0.68248876420E+02  0.82607852447E+02  0.00000000000E+00 0.  1.
<scales pt_clust_5="13000.00000" pt_clust_6="13000.00000" pt_clust_7="13000.00000" pt_clust_8="13000.00000" pt_clust_9="46.54192"></scales>
<clustering>
<clus scale="   46.542">  2  9  1 -1</clus>
<clus scale="   81.460">  5  6 -1 -1</clus>
<clus scale="   90.270">  7  8 -1 -1</clus>
<clus scale="   95.952">  2  5  1 -1</clus>
<clus scale="   46.542">  2  5  1 -1</clus>
</clustering>
</event>
<event>
 9    2  0.4883225E-005  0.2348716E+03  0.7546771E-02  0.1156949E+00
         21   -1    0    0  501  502  0.00000000000E+00  0.00000000000E+00  0.53539722078E+02  0.53539722078E+02  0.00000000000E+00 0. -1.
          2   -1    0    0  502    0 -0.00000000000E+00 -0.00000000000E+00 -0.15288316523E+04  0.15288316523E+04  0.00000000000E+00 0. -1.
         24    2    1    2    0    0  0.64490176452E+02  0.19567177499E+02 -0.34244003196E+03  0.35794283981E+03  0.79473541409E+02 0.  0.
         23    2    1    2    0    0 -0.25748999950E+03 -0.44481029415E+01 -0.67400413076E+03  0.72641368354E+03  0.84109368573E+02 0.  0.
        -11    1    3    3    0    0  0.55403979330E+02  0.41245670872E+02 -0.16386286744E+03  0.17782532333E+03  0.00000000000E+00 0.  1.
         12    1    3    3    0    0  0.90861971219E+01 -0.21678493373E+02 -0.17857716453E+03  0.18011751648E+03  0.00000000000E+00 0. -1.
        -11    1    4    4    0    0 -0.10675769341E+03  0.34622177497E+02 -0.33644961871E+03  0.35467484575E+03  0.00000000000E+00 0. -1.
         11    1    4    4    0    0 -0.15073230609E+03 -0.39070280439E+02 -0.33755451205E+03  0.37173883779E+03  0.00000000000E+00 0.  1.
          1    1    1    2  501    0  0.19299982305E+03 -0.15119074557E+02 -0.45884776745E+03  0.49801485099E+03  0.00000000000E+00 0. -1.
<scales pt_clust_5="13000.00000" pt_clust_6="13000.00000" pt_clust_7="13000.00000" pt_clust_8="13000.00000" pt_clust_9="219.29500"></scales>
<clustering>
<clus scale="   79.474">  5  6 -1 -1</clus>
<clus scale="   84.109">  7  8 -1 -1</clus>
<clus scale="  104.201">  2  5  1 -1</clus>
<clus scale="  219.295">  1  9  2 -1</clus>
<clus scale="  219.295">  1  5  2 -1</clus>
</clustering>
</event>
<event>
 9    2  0.4883225E-005  0.1437062E+03  0.7546771E-02  0.1216154E+00
         21   -1    0    0  501  502  0.00000000000E+00  0.00000000000E+00  0.23509434403E+02  0.23509434403E+02  0.00000000000E+00 0. -1.
          2   -1    0    0  502    0 -0.00000000000E+00 -0.00000000000E+00 -0.21514365550E+04  0.21514365550E+04  0.00000000000E+00 0. -1.
         23    2    1    2    0    0 -0.57310994393E+02 -0.54137616819E+02 -0.28926872677E+03  0.31391447284E+03  0.93007893977E+02 0.  0.
         24    2    1    2    0    0 -0.65835561091E+02  0.94036595892E+02 -0.12790355520E+04  0.12866320669E+04  0.79453948017E+02 0.  0.
        -13    1    4    4    0    0  0.41367812770E+01  0.48265920919E+02 -0.28514383128E+03  0.28922952235E+03  0.00000000000E+00 0.  1.
         14    1    4    4    0    0 -0.69972342368E+02  0.45770674973E+02 -0.99389172074E+03  0.99740254458E+03  0.00000000000E+00 0. -1.
        -13    1    3    3    0    0 -0.85553037581E+01  0.24169391260E+02 -0.34671909755E+02  0.43121850868E+02  0.00000000000E+00 0. -1.
         13    1    3    3    0    0 -0.48755690635E+02 -0.78307008078E+02 -0.25459681701E+03  0.27079262197E+03  0.00000000000E+00 0.  1.
          1    1    1    2  501    0  0.12314655548E+03 -0.39898979074E+02 -0.55962284184E+03  0.57439944966E+03  0.00000000000E+00 0. -1.
<scales pt_clust_5="13000.00000" pt_clust_6="13000.00000" pt_clust_7="13000.00000" pt_clust_8="13000.00000" pt_clust_9="119.74367"></scales>
<clustering>
<clus scale="   79.454">  5  6 -1 -1</clus>
<clus scale="   93.008">  7  8 -1 -1</clus>
<clus scale="  121.926">  2  7  1 -1</clus>
<clus scale="  119.744">  1  9  2 -1</clus>
<clus scale="  119.744">  1  5  2 -1</clus>
</clustering>
</event>
<event>
 9    2  0.4883225E-005  0.1816390E+03  0.7546771E-02  0.1167372E+00
          2   -1    0    0  502    0 -0.00000000000E+00  0.00000000000E+00  0.84017983966E+03  0.84017983966E+03  0.00000000000E+00 0. -1.
         21   -1    0    0  501  502  0.00000000000E+00 -0.00000000000E+00 -0.12163592538E+03  0.12163592538E+03  0.00000000000E+00 0. -1.
         23    2    1    2    0    0 -0.17018514242E+03 -0.35860011119E+02  0.71628849869E+03  0.74287266907E+03  0.92421133931E+02 0.  0.
         24    2    1    2    0    0  0.68835568632E+02  0.54037898214E+01 -0.22879726601E+02  0.11017226856E+03  0.82746059822E+02 0.  0.
        -11    1    4    4    0    0  0.39134011871E+01  0.34992074920E+02 -0.15412907626E+02  0.38435891268E+02  0.00000000000E+00 0.  1.
         12    1    4    4    0    0  0.64922167445E+02 -0.29588285099E+02 -0.74668189750E+01  0.71736377288E+02  0.00000000000E+00 0. -1.
        -11    1    3    3    0    0 -0.36818361588E+02 -0.26848824109E+02  0.74654634964E+02  0.87462938595E+02  0.00000000000E+00 0.  1.
         11    1    3    3    0    0 -0.13336678083E+03 -0.90111870093E+01  0.64163386373E+03  0.65540973048E+03  0.00000000000E+00 0. -1.
          1    1    1    2  501    0  0.10134957379E+03  0.30456221297E+02  0.25135142189E+02  0.10877082741E+03  0.00000000000E+00 0. -1.
<scales pt_clust_5="13000.00000" pt_clust_6="13000.00000" pt_clust_7="13000.00000" pt_clust_8="13000.00000" pt_clust_9="105.82683"></scales>
<clustering>
<clus scale="   82.746">  5  6 -1 -1</clus>
<clus scale="   92.421">  7  8 -1 -1</clus>
<clus scale="  105.827">  2  9  1 -1</clus>
<clus scale="  176.912">  2  5  1 -1</clus>
<clus scale="  105.827">  2  5  1 -1</clus>
</clustering>
</event>
<event>
 9    2  0.6080848E-005  0.9425501E+02  0.7546771E-02  0.1298054E+00
         21   -1    0    0  501  502  0.00000000000E+00  0.00000000000E+00  0.11171206971E+03  0.11171206971E+03  0.00000000000E+00 0. -1.
          2   -1    0    0  502    0 -0.00000000000E+00 -0.00000000000E+00 -0.51120611257E+03  0.51120611257E+03  0.00000000000E+00 0. -1.
         24    2    1    2    0    0  0.26259536990E+02  0.13897109212E+02 -0.29399756586E+03  0.30647011669E+03  0.81281429399E+02 0.  0.
         23    2    1    2    0    0  0.27024564133E+02 -0.49974952275E+02 -0.18535521858E+03  0.21388966856E+03  0.90357126666E+02 0.  0.
        -13    1    3    3    0    0 -0.27830609447E+01 -0.19836422574E+02 -0.18075614352E+02  0.26980676844E+02  0.00000000000E+00 0.  1.
         14    1    3    3    0    0  0.29042597934E+02  0.33733531786E+02 -0.27592195151E+03  0.27948943985E+03  0.00000000000E+00 0. -1.
        -11    1    4    4    0    0 -0.10017677585E+02 -0.65703163081E+02 -0.11302662996E+03  0.13111932955E+03  0.00000000000E+00 0.  1.
         11    1    4    4    0    0  0.37042241718E+02  0.15728210806E+02 -0.72328588627E+02  0.82770339008E+02  0.00000000000E+00 0. -1.
          1    1    1    2  501    0 -0.53284101123E+02  0.36077843063E+02  0.79858741582E+02  0.10255839702E+03  0.00000000000E+00 0. -1.
<scales pt_clust_5="13000.00000" pt_clust_6="13000.00000" pt_clust_7="13000.00000" pt_clust_8="13000.00000" pt_clust_9="64.34910"></scales>
<clustering>
<clus scale="   64.349">  1  9  2 -1</clus>
<clus scale="   81.281">  5  6 -1 -1</clus>
<clus scale="   85.594">  2  5  1 -1</clus>
<clus scale="   90.357">  7  8 -1 -1</clus>
<clus scale="   64.349">  1  5  2 -1</clus>
</clustering>
</event>
<event>
 9    2  0.4883225E-005  0.9467404E+02  0.7546771E-02  0.1294665E+00
          2   -1    0    0  502    0 -0.00000000000E+00  0.00000000000E+00  0.27589543302E+02  0.27589543302E+02  0.00000000000E+00 0. -1.
         21   -1    0    0  501  502  0.00000000000E+00 -0.00000000000E+00 -0.47072653407E+03  0.47072653407E+03  0.00000000000E+00 0. -1.
         23    2    1    2    0    0 -0.33790496799E+02  0.11592746439E+02 -0.14382840007E+03  0.17282406754E+03  0.88912092610E+02 0.  0.
         24    2    1    2    0    0  0.10089050930E+02 -0.36584103939E+02 -0.23789090049E+03  0.25507568248E+03  0.83853071791E+02 0.  0.
        -13    1    4    4    0    0 -0.13414831969E+02 -0.34742010051E+02 -0.35947912653E+02  0.51761157283E+02  0.00000000000E+00 0.  1.
         14    1    4    4    0    0  0.23503882899E+02 -0.18420938885E+01 -0.20194298783E+03  0.20331452520E+03  0.00000000000E+00 0. -1.
        -13    1    3    3    0    0 -0.59305578966E+02  0.60860110462E+01 -0.58237657297E+02  0.83341561987E+02  0.00000000000E+00 0. -1.
         13    1    3    3    0    0  0.25515082167E+02  0.55067353925E+01 -0.85590742770E+02  0.89482505556E+02  0.00000000000E+00 0.  1.
          1    1    1    2  501    0  0.23701445869E+02  0.24991357501E+02 -0.61417690219E+02  0.70416327353E+02  0.00000000000E+00 0. -1.
<scales pt_clust_5="13000.00000" pt_clust_6="13000.00000" pt_clust_7="13000.00000" pt_clust_8="13000.00000" pt_clust_9="34.44311"></scales>
<clustering>
<clus scale="   34.443">  2  9  1 -1</clus>
<clus scale="   83.853">  5  6 -1 -1</clus>
<clus scale="   88.912">  7  8 -1 -1</clus>
<clus scale="   89.940">  2  5  1 -1</clus>
<clus scale="   34.443">  2  5  1 -1</clus>
</clustering>
</event>
<event>
 9    2  0.4883225E-005  0.3497153E+03  0.7546771E-02  0.1066159E+00
          2   -1    0    0  502    0 -0.00000000000E+00  0.00000000000E+00  0.11769677666E+04  0.11769677666E+04  0.00000000000E+00 0. -1.
         21   -1    0    0  501  502  0.00000000000E+00 -0.00000000000E+00 -0.12449676651E+04  0.12449676651E+04  0.00000000000E+00 0. -1.
         23    2    1    2    0    0  0.28464068940E+03  0.11329157381E+03 -0.56522407383E+03  0.64853654676E+03  0.85241398895E+02 0.  0.
         24    2    1    2    0    0 -0.48221709529E+03 -0.37577774029E+03  0.99872580042E+03  0.11738663140E+04  0.82259720674E+02 0.  0.
        -11    1    4    4    0    0 -0.10819320053E+03 -0.68356530523E+02  0.27244114121E+03  0.30100259024E+03  0.00000000000E+00 0.  1.
         12    1    4    4    0    0 -0.37402389476E+03 -0.30742120977E+03  0.72628465921E+03  0.87286372377E+03  0.00000000000E+00 0. -1.
        -13    1    3    3    0    0  0.16762170552E+03  0.28100055394E+02 -0.35117133550E+03  0.39013838077E+03  0.00000000000E+00 0.  1.
         13    1    3    3    0    0  0.11701898388E+03  0.85191518419E+02 -0.21405273833E+03  0.25839816599E+03  0.00000000000E+00 0. -1.
          1    1    1    2  501    0  0.19757640589E+03  0.26248616648E+03 -0.50150162508E+03  0.59953257102E+03  0.00000000000E+00 0. -1.
<scales pt_clust_5="13000.00000" pt_clust_6="13000.00000" pt_clust_7="13000.00000" pt_clust_8="13000.00000" pt_clust_9="339.90312"></scales>
<clustering>
<clus scale="   82.260">  5  6 -1 -1</clus>
<clus scale="   85.241">  7  8 -1 -1</clus>
<clus scale="  317.996">  1  7  2 -1</clus>
<clus scale="  339.903">  2  9  1 -1</clus>
<clus scale="  339.903">  2  5  1 -1</clus>
</clustering>
</event>
<event>
 9    2  0.4883225E-005  0.1385297E+03  0.7546771E-02  0.1235166E+00
          2   -1    0    0  502    0 -0.00000000000E+00  0.00000000000E+00  0.62863342117E+03  0.62863342117E+03  0.00000000000E+00 0. -1.
         21   -1    0    0  501  502  0.00000000000E+00 -0.00000000000E+00 -0.58907435206E+02  0.58907435206E+02  0.00000000000E+00 0. -1.
         23    2    1    2    0    0  0.93701185815E+01  0.92128017078E+01  0.30706456379E+03  0.32045149019E+03  0.90707421921E+02 0.  0.
         24    2    1    2    0    0  0.10023488555E+03  0.30180324256E+02  0.18340693555E+03  0.22621229582E+03  0.81092629270E+02 0.  0.
        -11    1    4    4    0    0  0.91023366184E+02 -0.63441747111E+01  0.15146055169E+03  0.17682138011E+03  0.00000000000E+00 0.  1.
         12    1    4    4    0    0  0.92115193638E+01  0.36524498967E+02  0.31946383852E+02  0.49390915714E+02  0.00000000000E+00 0. -1.
        -13    1    3    3    0    0  0.37370806699E+01  0.50126016022E+02  0.17560112760E+03  0.18265360458E+03  0.00000000000E+00 0.  1.
         13    1    3    3    0    0  0.56330379116E+01 -0.40913214315E+02  0.13146343620E+03  0.13779788561E+03  0.00000000000E+00 0. -1.
          1    1    1    2  501    0 -0.10960500413E+03 -0.39393125964E+02  0.79254486626E+02  0.14087707036E+03  0.00000000000E+00 0. -1.
<scales pt_clust_5="13000.00000" pt_clust_6="13000.00000" pt_clust_7="13000.00000" pt_clust_8="13000.00000" pt_clust_9="112.31412"></scales>
<clustering>
<clus scale="   81.093">  5  6 -1 -1</clus>
<clus scale="   90.707">  7  8 -1 -1</clus>
<clus scale="   91.654">  1  7  2 -1</clus>
<clus scale="  112.314">  2  9  1 -1</clus>
<clus scale="  112.314">  2  5  1 -1</clus>
</clustering>
</event>
<event>
 9    2  0.4883225E-005  0.1096310E+03  0.7546771E-02  0.1265226E+00
         21   -1    0    0  501  502  0.00000000000E+00  0.00000000000E+00  0.27633609967E+02  0.27633609967E+02  0.00000000000E+00 0.  1.
          2   -1    0    0  502    0 -0.00000000000E+00 -0.00000000000E+00 -0.12179034768E+04  0.12179034768E+04  0.00000000000E+00 0. -1.
         24    2    1    2    0    0 -0.53123710554E+02 -0.59566119763E+01 -0.65109830795E+03  0.65817392759E+03  0.80039380926E+02 0.  0.
         23    2    1    2    0    0  0.75692077642E+02  0.25289332389E+02 -0.54407510411E+03  0.55724455987E+03  0.90193900287E+02 0.  0.
        -11    1    3    3    0    0 -0.95782811161E+01  0.21916717623E+02 -0.56795696613E+02  0.61626594375E+02  0.00000000000E+00 0.  1.
         12    1    3    3    0    0 -0.43545429438E+02 -0.27873329600E+02 -0.59430261133E+03  0.59654733321E+03  0.00000000000E+00 0. -1.
        -13    1    4    4    0    0  0.45825340404E+02  0.58031540575E+02 -0.28671127061E+03  0.29609284729E+03  0.00000000000E+00 0.  1.
         13    1    4    4    0    0  0.29866737238E+02 -0.32742208186E+02 -0.25736383350E+03  0.26115171258E+03  0.00000000000E+00 0. -1.
          1    1    1    2  501    0 -0.22568367088E+02 -0.19332720413E+02  0.49035451731E+01  0.30118599350E+02  0.00000000000E+00 0. -1.
<scales pt_clust_5="13000.00000" pt_clust_6="13000.00000" pt_clust_7="13000.00000" pt_clust_8="13000.00000" pt_clust_9="29.71675"></scales>
<clustering>
<clus scale="   29.717">  1  9  2 -1</clus>
<clus scale="   80.039">  5  6 -1 -1</clus>
<clus scale="   90.194">  7  8 -1 -1</clus>
<clus scale="  101.441">  2  5  1 -1</clus>
<clus scale="   29.717">  1  5  2 -1</clus>
</clustering>
</event>
<event>
 9    2  0.4883225E-005  0.2375670E+03  0.7546771E-02  0.1161148E+00
         21   -1    0    0  501  502  0.00000000000E+00  0.00000000000E+00  0.12697572318E+03  0.12697572318E+03  0.00000000000E+00 0.  1.
          2   -1    0    0  502    0 -0.00000000000E+00 -0.00000000000E+00 -0.79592855395E+03  0.79592855395E+03  0.00000000000E+00 0. -1.
         24    2    1    2    0    0 -0.15238682078E+02 -0.39163850237E+02  0.18272820850E+02  0.93113475247E+02  0.81056762173E+02 0.  0.
         23    2    1    2    0    0 -0.17464277435E+03  0.14280134767E+03 -0.42499216449E+03  0.48984654154E+03  0.91863871292E+02 0.  0.
        -13    1    3    3    0    0  0.39910176869E+01 -0.52522408164E+02 -0.12799761161E+02  0.54206692089E+02  0.00000000000E+00 0.  1.
         14    1    3    3    0    0 -0.19229699765E+02  0.13358557926E+02  0.31072582011E+02  0.38906783158E+02  0.00000000000E+00 0. -1.
        -11    1    4    4    0    0 -0.12722450092E+03  0.11044648733E+03 -0.22078280457E+03  0.27772206789E+03  0.00000000000E+00 0.  1.
         11    1    4    4    0    0 -0.47418273433E+02  0.32354860342E+02 -0.20420935992E+03  0.21212447365E+03  0.00000000000E+00 0. -1.
          1    1    1    2  501    0  0.18988145643E+03 -0.10363749743E+03 -0.26223348712E+03  0.33994426034E+03  0.00000000000E+00 0. -1.
<scales pt_clust_5="13000.00000" pt_clust_6="13000.00000" pt_clust_7="13000.00000" pt_clust_8="13000.00000" pt_clust_9="219.08696"></scales>
<clustering>
<clus scale="   81.057">  5  6 -1 -1</clus>
<clus scale="   91.303">  2  5  1 -1</clus>
<clus scale="   91.864">  7  8 -1 -1</clus>
<clus scale="  219.087">  1  9  2 -1</clus>
<clus scale="  219.087">  1  5  2 -1</clus>
</clustering>
</event>
<event>
 9    2  0.4883225E-005  0.1626448E+03  0.7546771E-02  0.1189278E+00
          2   -1    0    0  502    0 -0.00000000000E+00  0.00000000000E+00  0.15918382132E+03  0.15918382132E+03  0.00000000000E+00 0. -1.
         21   -1    0    0  501  502  0.00000000000E+00 -0.00000000000E+00 -0.48780283309E+03  0.48780283309E+03  0.00000000000E+00 0. -1.
         24    2    1    2    0    0  0.10374962313E+03  0.40827141462E+02  0.25604255297E+02  0.13997144178E+03  0.80657218188E+02 0.  0.
         23    2    1    2    0    0 -0.12387726172E+03 -0.15249792240E+03 -0.13234380519E+03  0.25780449706E+03  0.10172061553E+03 0.  0.
        -11    1    3    3    0    0  0.81354618714E+02  0.62055721192E+02  0.34292395203E+02  0.10791410884E+03  0.00000000000E+00 0.  1.
         12    1    3    3    0    0  0.22395004417E+02 -0.21228579730E+02 -0.86881399054E+01  0.32057332940E+02  0.00000000000E+00 0. -1.
        -13    1    4    4    0    0 -0.14094569124E+03 -0.13712086470E+03 -0.10806322716E+03  0.22437798573E+03  0.00000000000E+00 0. -1.
         13    1    4    4    0    0  0.17068429525E+02 -0.15377057697E+02 -0.24280578029E+02  0.33426511324E+02  0.00000000000E+00 0.  1.
          1    1    1    2  501    0  0.20127638588E+02  0.11167078094E+03 -0.22187946188E+03  0.24921071557E+03  0.00000000000E+00 0. -1.
<scales pt_clust_5="13000.00000" pt_clust_6="13000.00000" pt_clust_7="13000.00000" pt_clust_8="13000.00000" pt_clust_9="113.47019"></scales>
<clustering>
<clus scale="   80.657">  5  6 -1 -1</clus>
<clus scale="  101.721">  7  8 -1 -1</clus>
<clus scale="  113.470">  2  9  1 -1</clus>
<clus scale="  150.372">  1  5  2 -1</clus>
<clus scale="  113.470">  2  5  1 -1</clus>
</clustering>
</event>
<event>
 9    2  0.4883225E-005  0.1152223E+03  0.7546771E-02  0.1255050E+00
          2   -1    0    0  502    0 -0.00000000000E+00  0.00000000000E+00  0.10070064114E+03  0.10070064114E+03  0.00000000000E+00 0. -1.
         21   -1    0    0  501  502  0.00000000000E+00 -0.00000000000E+00 -0.39811169704E+03  0.39811169704E+03  0.00000000000E+00 0. -1.
         24    2    1    2    0    0 -0.16452258454E+02  0.56224374871E+02 -0.15061730793E+02  0.10016938026E+03  0.79844798642E+02 0.  0.
         23    2    1    2    0    0  0.10438510645E+03 -0.95319190385E+02 -0.24121545000E+03  0.29398835439E+03  0.90896978460E+02 0.  0.
        -13    1    3    3    0    0 -0.31629420421E+02 -0.28987804340E-01 -0.25929875292E+02  0.40899627249E+02  0.00000000000E+00 0.  1.
         14    1    3    3    0    0  0.15177161966E+02  0.56253362675E+02  0.10868144499E+02  0.59269753015E+02  0.00000000000E+00 0. -1.
        -11    1    4    4    0    0  0.85501975050E+02 -0.11314899860E+03 -0.20962977056E+03  0.25309666992E+03  0.00000000000E+00 0. -1.
         11    1    4    4    0    0  0.18883131404E+02  0.17829808217E+02 -0.31585679443E+02  0.40891684467E+02  0.00000000000E+00 0.  1.
          1    1    1    2  501    0 -0.87932847999E+02  0.39094815514E+02 -0.41133875105E+02  0.10465460352E+03  0.00000000000E+00 0. -1.
<scales pt_clust_5="13000.00000" pt_clust_6="13000.00000" pt_clust_7="13000.00000" pt_clust_8="13000.00000" pt_clust_9="96.23201"></scales>
<clustering>
<clus scale="   79.845">  5  6 -1 -1</clus>
<clus scale="   90.897">  7  8 -1 -1</clus>
<clus scale="   96.232">  2  9  1 -1</clus>
<clus scale="  106.720">  1  5  2 -1</clus>
<clus scale="   96.232">  2  5  1 -1</clus>
</clustering>
</event>
<event>
 9    2  0.4883225E-005  0.1092508E+03  0.7546771E-02  0.1263191E+00
         21   -1    0    0  501  502  0.00000000000E+00  0.00000000000E+00  0.16500991220E+03  0.16500991220E+03  0.00000000000E+00 0.  1.
          2   -1    0    0  502    0 -0.00000000000E+00 -0.00000000000E+00 -0.18619868597E+03  0.18619868597E+03  0.00000000000E+00 0. -1.
         24    2    1    2    0    0 -0.88077252413E+01  0.67958629655E+02 -0.12970746540E+03  0.16750073316E+03  0.80848733186E+02 0.  0.
         23    2    1    2    0    0 -0.17724120583E+02 -0.77140510788E+02  0.67051126461E+02  0.13362987838E+03  0.84239468065E+02 0.  0.
        -11    1    3    3    0    0  0.32638738578E+02  0.16588785610E+02 -0.27321565580E+02  0.45683071370E+02  0.00000000000E+00 0.  1.
         12    1    3    3    0    0 -0.41446463820E+02  0.51369844045E+02 -0.10238589982E+03  0.12181766179E+03  0.00000000000E+00 0. -1.
        -13    1    4    4    0    0 -0.27021171983E+02 -0.18479605786E+02 -0.11901137402E+02  0.34832120762E+02  0.00000000000E+00 0. -1.
         13    1    4    4    0    0  0.92970513996E+01 -0.58660905002E+02  0.78952263863E+02  0.98797757614E+02  0.00000000000E+00 0.  1.
          1    1    1    2  501    0  0.26531845824E+02  0.91818811325E+01  0.41467565173E+02  0.50077986635E+02  0.00000000000E+00 0. -1.
<scales pt_clust_5="13000.00000" pt_clust_6="13000.00000" pt_clust_7="13000.00000" pt_clust_8="13000.00000" pt_clust_9="28.07572"></scales>
<clustering>
<clus scale="   28.076">  1  9  2 -1</clus>
<clus scale="   80.849">  5  6 -1 -1</clus>
<clus scale="   84.239">  7  8 -1 -1</clus>
<clus scale="  106.658">  2  5  1 -1</clus>
<clus scale="   28.076">  1  5  2 -1</clus>
</clustering>
</event>
<event>
 9    2  0.4883225E-005  0.9989929E+02  0.7546771E-02  0.1284969E+00
         21   -1    0    0  501  502  0.00000000000E+00  0.00000000000E+00  0.10141204731E+03  0.10141204731E+03  0.00000000000E+00 0.  1.
          2   -1    0    0  502    0 -0.00000000000E+00 -0.00000000000E+00 -0.24036159309E+03  0.24036159309E+03  0.00000000000E+00 0. -1.
         23    2    1    2    0    0 -0.85904868603E+01  0.52083037264E+02 -0.17709827833E+03  0.20536972417E+03  0.89590647857E+02 0.  0.
         24    2    1    2    0    0 -0.13955271348E+02 -0.98194193764E+01  0.31346765172E+02  0.88022190650E+02  0.80461890140E+02 0.  0.
        -11    1    4    4    0    0 -0.13214683238E+02  0.34671170433E+02  0.87741682012E+01  0.38127469624E+02  0.00000000000E+00 0.  1.
         12    1    4    4    0    0 -0.74058810927E+00 -0.44490589809E+02  0.22572596971E+02  0.49894721027E+02  0.00000000000E+00 0. -1.
        -13    1    3    3    0    0  0.35567649130E+02  0.16971198844E+02 -0.35866337014E+02  0.53286709277E+02  0.00000000000E+00 0.  1.
         13    1    3    3    0    0 -0.44158135990E+02  0.35111838420E+02 -0.14123194131E+03  0.15208301489E+03  0.00000000000E+00 0. -1.
          1    1    1    2  501    0  0.22545758208E+02 -0.42263617888E+02  0.68019673732E+01  0.48381725582E+02  0.00000000000E+00 0. -1.
<scales pt_clust_5="13000.00000" pt_clust_6="13000.00000" pt_clust_7="13000.00000" pt_clust_8="13000.00000" pt_clust_9="47.90120"></scales>
<clustering>
<clus scale="   47.901">  1  9  2 -1</clus>
<clus scale="   80.462">  5  6 -1 -1</clus>
<clus scale="   89.591">  7  8 -1 -1</clus>
<clus scale="   91.801">  1  5  2 -1</clus>
<clus scale="   47.901">  1  5  2 -1</clus>
</clustering>
</event>
<event>
 9    2  0.4883225E-005  0.9913405E+02  0.7546771E-02  0.1289456E+00
          2   -1    0    0  502    0 -0.00000000000E+00  0.00000000000E+00  0.10584168632E+04  0.10584168632E+04  0.00000000000E+00 0. -1.
         21   -1    0    0  501  502  0.00000000000E+00 -0.00000000000E+00 -0.45540937238E+02  0.45540937238E+02  0.00000000000E+00 0.  1.
         24    2    1    2    0    0  0.10752501454E+02  0.28566710521E+02  0.83372844646E+03  0.83805067474E+03  0.79335602115E+02 0.  0.
         23    2    1    2    0    0 -0.56988066174E+02 -0.71308066022E+02  0.97528814128E+02  0.16282387074E+03  0.93098138179E+02 0.  0.
        -13    1    3    3    0    0 -0.18292449875E+02  0.34032116155E+02  0.20384809799E+03  0.20747733781E+03  0.00000000000E+00 0.  1.
         14    1    3    3    0    0  0.29044951329E+02 -0.54654056335E+01  0.62988034847E+03  0.63057333693E+03  0.00000000000E+00 0. -1.
        -11    1    4    4    0    0 -0.39158286995E+02 -0.33042447262E+02 -0.54523194065E+01  0.51525746461E+02  0.00000000000E+00 0.  1.
         11    1    4    4    0    0 -0.17829779179E+02 -0.38265618760E+02  0.10298113353E+03  0.11129812428E+03  0.00000000000E+00 0. -1.
          1    1    1    2  501    0  0.46235564719E+02  0.42741355500E+02  0.81618665392E+02  0.10308325497E+03  0.00000000000E+00 0. -1.
<scales pt_clust_5="13000.00000" pt_clust_6="13000.00000" pt_clust_7="13000.00000" pt_clust_8="13000.00000" pt_clust_9="62.96468"></scales>
<clustering>
<clus scale="   62.965">  2  9  1 -1</clus>
<clus scale="   79.336">  5  6 -1 -1</clus>
<clus scale="   86.339">  1  5  2 -1</clus>
<clus scale="   93.098">  7  8 -1 -1</clus>
<clus scale="   62.965">  2  5  1 -1</clus>
</clustering>
</event>
<event>
 9    2  0.4883225E-005  0.1162268E+03  0.7546771E-02  0.1258930E+00
         21   -1    0    0  501  502  0.00000000000E+00  0.00000000000E+00  0.13321647966E+03  0.13321647966E+03  0.00000000000E+00 0. -1.
          2   -1    0    0  502    0 -0.00000000000E+00 -0.00000000000E+00 -0.22263780950E+03  0.22263780950E+03  0.00000000000E+00 0. -1.
         23    2    1    2    0    0  0.26250738485E+02  0.10769295923E+02  0.44806347495E+02  0.10621982833E+03  0.92032408140E+02 0.  0.
         24    2    1    2    0    0  0.69808867946E+02 -0.25537607352E+02 -0.47598616878E+02  0.11944173782E+03  0.80468956575E+02 0.  0.
        -11    1    4    4    0    0  0.54026221627E+02  0.19856899362E+02 -0.99999944468E+01  0.58421990418E+02  0.00000000000E+00 0.  1.
         12    1    4    4    0    0  0.15782646320E+02 -0.45394506714E+02 -0.37598622431E+02  0.61019747405E+02  0.00000000000E+00 0. -1.
        -11    1    3    3    0    0 -0.37319268877E+00  0.45629389632E+02  0.42400955526E+02  0.62289818594E+02  0.00000000000E+00 0. -1.
         11    1    3    3    0    0  0.26623931174E+02 -0.34860093709E+02  0.24053919690E+01  0.43930009732E+02  0.00000000000E+00 0.  1.
          1    1    1    2  501    0 -0.96059606431E+02  0.14768311429E+02 -0.86629060453E+02  0.13019272301E+03  0.00000000000E+00 0. -1.
<scales pt_clust_5="13000.00000" pt_clust_6="13000.00000" pt_clust_7="13000.00000" pt_clust_8="13000.00000" pt_clust_9="83.86555"></scales>
<clustering>
<clus scale="   80.469">  5  6 -1 -1</clus>
<clus scale="   92.032">  7  8 -1 -1</clus>
<clus scale="   96.307">  2  7  1 -1</clus>
<clus scale="   83.866">  1  9  2 -1</clus>
<clus scale="   83.866">  1  5  2 -1</clus>
</clustering>
</event>
<event>
 9    2  0.4883225E-005  0.1041747E+03  0.7546771E-02  0.1273570E+00
         21   -1    0    0  501  502  0.00000000000E+00  0.00000000000E+00  0.23385805294E+03  0.23385805294E+03  0.00000000000E+00 0.  1.
          4   -1    0    0  502    0 -0.00000000000E+00 -0.00000000000E+00 -0.12421849363E+03  0.12421849363E+03  0.00000000000E+00 0. -1.
         23    2    1    2    0    0 -0.53572793244E+02 -0.99212030483E+01 -0.49215384932E+02  0.11255509844E+03  0.85311321781E+02 0.  0.
         24    2    1    2    0    0  0.69372405333E+02  0.67352910963E+02  0.12223027438E+03  0.17559723731E+03  0.80902438401E+02 0.  0.
        -13    1    4    4    0    0  0.27724100425E+02  0.40007328735E+02  0.11547970302E+03  0.12531868937E+03  0.00000000000E+00 0.  1.
         14    1    4    4    0    0  0.41648304907E+02  0.27345582228E+02  0.67505713622E+01  0.50278547938E+02  0.00000000000E+00 0. -1.
        -13    1    3    3    0    0  0.16219821310E+02  0.19580757825E+02 -0.13499044083E+02  0.28787373473E+02  0.00000000000E+00 0.  1.
         13    1    3    3    0    0 -0.69792614554E+02 -0.29501960874E+02 -0.35716340849E+02  0.83767724962E+02  0.00000000000E+00 0. -1.
          3    1    1    2  501    0 -0.15799612089E+02 -0.57431707915E+02  0.36624669868E+02  0.69924210822E+02  0.00000000000E+00 0. -1.
<scales pt_clust_5="13000.00000" pt_clust_6="13000.00000" pt_clust_7="13000.00000" pt_clust_8="13000.00000" pt_clust_9="59.56533"></scales>
<clustering>
<clus scale="   59.565">  1  9  2 -1</clus>
<clus scale="   80.902">  5  6 -1 -1</clus>
<clus scale="   85.311">  7  8 -1 -1</clus>
<clus scale="  100.596">  1  5  2 -1</clus>
<clus scale="   59.565">  1  5  2 -1</clus>
</clustering>
</event>
<event>
 9    2  0.4883225E-005  0.9402335E+02  0.7546771E-02  0.1302604E+00
         21   -1    0    0  501  502  0.00000000000E+00  0.00000000000E+00  0.51981787733E+02  0.51981787733E+02  0.00000000000E+00 0. -1.
          2   -1    0    0  502    0 -0.00000000000E+00 -0.00000000000E+00 -0.70914698197E+03  0.70914698197E+03  0.00000000000E+00 0. -1.
         24    2    1    2    0    0  0.33202419041E+01 -0.25598605674E+02 -0.57000939204E+03  0.57569536044E+03  0.76473056687E+02 0.  0.
         23    2    1    2    0    0 -0.25068008722E+02 -0.19931784498E+02 -0.93237333339E+02  0.13461051273E+03  0.91657562230E+02 0.  0.
        -13    1    3    3    0    0  0.20590608492E+02  0.16463122735E+02 -0.97433681792E+02  0.10093725732E+03  0.00000000000E+00 0.  1.
         14    1    3    3    0    0 -0.17270366588E+02 -0.42061728409E+02 -0.47257571025E+03  0.47475810312E+03  0.00000000000E+00 0. -1.
        -11    1    4    4    0    0 -0.12161974424E+02  0.32993710473E+02 -0.12716072269E+02  0.37392473128E+02  0.00000000000E+00 0.  1.
         11    1    4    4    0    0 -0.12906034298E+02 -0.52925494971E+02 -0.80521261070E+02  0.97218039600E+02  0.00000000000E+00 0. -1.
          1    1    1    2  501    0  0.21747766818E+02  0.45530390172E+02  0.60815311475E+01  0.50822896531E+02  0.00000000000E+00 0. -1.
<scales pt_clust_5="13000.00000" pt_clust_6="13000.00000" pt_clust_7="13000.00000" pt_clust_8="13000.00000" pt_clust_9="50.45772"></scales>
<clustering>
<clus scale="   50.458">  1  9  2 -1</clus>
<clus scale="   76.473">  5  6 -1 -1</clus>
<clus scale="   79.293">  2  5  1 -1</clus>
<clus scale="   91.658">  7  8 -1 -1</clus>
<clus scale="   50.458">  1  5  2 -1</clus>
</clustering>
</event>
<event>
 9    2  0.4883225E-005  0.9150009E+02  0.7546771E-02  0.1306330E+00
          2   -1    0    0  502    0 -0.00000000000E+00  0.00000000000E+00  0.22435734132E+03  0.22435734132E+03  0.00000000000E+00 0. -1.
         21   -1    0    0  501  502  0.00000000000E+00 -0.00000000000E+00 -0.14325448664E+03  0.14325448664E+03  0.00000000000E+00 0. -1.
         24    2    1    2    0    0 -0.22355194509E+02 -0.40491566468E+01  0.12769651469E+03  0.15246825924E+03  0.80149983290E+02 0.  0.
         23    2    1    2    0    0 -0.59899110496E+02 -0.11967525168E+01  0.17665980063E+02  0.11063236550E+03  0.91313185191E+02 0.  0.
        -11    1    3    3    0    0  0.10082340452E+02  0.26959253335E+02  0.17999440188E+02  0.33947529755E+02  0.00000000000E+00 0.  1.
         12    1    3    3    0    0 -0.32437534960E+02 -0.31008409982E+02  0.10969707450E+03  0.11852072949E+03  0.00000000000E+00 0. -1.
        -11    1    4    4    0    0 -0.18988179182E+02  0.36826810531E+02  0.32710032690E+02  0.52789309156E+02  0.00000000000E+00 0.  1.
         11    1    4    4    0    0 -0.40910931314E+02 -0.38023563048E+02 -0.15044052627E+02  0.57843056345E+02  0.00000000000E+00 0. -1.
          1    1    1    2  501    0  0.82254305005E+02  0.52459091636E+01 -0.64259640077E+02  0.10451120322E+03  0.00000000000E+00 0. -1.
<scales pt_clust_5="13000.00000" pt_clust_6="13000.00000" pt_clust_7="13000.00000" pt_clust_8="13000.00000" pt_clust_9="82.42142"></scales>
<clustering>
<clus scale="   80.150">  5  6 -1 -1</clus>
<clus scale="   82.421">  2  9  1 -1</clus>
<clus scale="   80.363">  1  5  2 -1</clus>
<clus scale="   91.313">  7  8 -1 -1</clus>
<clus scale="   82.421">  2  5  1 -1</clus>
</clustering>
</event>
<event>
 9    2  0.4883225E-005  0.1038806E+03  0.7546771E-02  0.1277881E+00
         21   -1    0    0  501  502  0.00000000000E+00  0.00000000000E+00  0.57030693135E+02  0.57030693135E+02  0.00000000000E+00 0.  1.
          2   -1    0    0  502    0 -0.00000000000E+00 -0.00000000000E+00 -0.43456116494E+03  0.43456116494E+03  0.00000000000E+00 0. -1.
         24    2    1    2    0    0 -0.28082970188E+02  0.47757241834E+02 -0.25772643112E+03  0.27610874154E+03  0.82120134546E+02 0.  0.
         23    2    1    2    0    0 -0.81932989254E+01 -0.12153073389E+01 -0.15285694224E+02  0.95457268839E+02  0.93860697882E+02 0.  0.
        -13    1    3    3    0    0  0.25595096367E+02  0.23769154419E+02 -0.14287889304E+03  0.14708657225E+03  0.00000000000E+00 0.  1.
         14    1    3    3    0    0 -0.53678066554E+02  0.23988087415E+02 -0.11484753808E+03  0.12902216930E+03  0.00000000000E+00 0. -1.
        -13    1    4    4    0    0 -0.11667395469E+02 -0.23607833615E+02  0.32940431084E+02  0.42172620561E+02  0.00000000000E+00 0.  1.
         13    1    4    4    0    0  0.34740965435E+01  0.22392526276E+02 -0.48226125308E+02  0.53284648277E+02  0.00000000000E+00 0. -1.
          1    1    1    2  501    0  0.36276269113E+02 -0.46541934495E+02 -0.10451834646E+03  0.12002584769E+03  0.00000000000E+00 0. -1.
<scales pt_clust_5="13000.00000" pt_clust_6="13000.00000" pt_clust_7="13000.00000" pt_clust_8="13000.00000" pt_clust_9="59.00951"></scales>
<clustering>
<clus scale="   59.010">  1  9  2 -1</clus>
<clus scale="   82.120">  5  6 -1 -1</clus>
<clus scale="   93.408">  2  5  1 -1</clus>
<clus scale="   93.861">  7  8 -1 -1</clus>
<clus scale="   59.010">  1  5  2 -1</clus>
</clustering>
</event>
<event>
 9    2  0.4883225E-005  0.1346440E+03  0.7546771E-02  0.1224411E+00
          2   -1    0    0  502    0 -0.00000000000E+00  0.00000000000E+00  0.91332418546E+02  0.91332418546E+02  0.00000000000E+00 0. -1.
         21   -1    0    0  501  502  0.00000000000E+00 -0.00000000000E+00 -0.27956358076E+03  0.27956358076E+03  0.00000000000E+00 0. -1.
         24    2    1    2    0    0  0.52491824688E+02 -0.84752614606E+02 -0.17323274059E+02  0.12829225495E+03  0.78869572808E+02 0.  0.
         23    2    1    2    0    0 -0.20824997403E+02  0.91643511680E+02 -0.10557304461E+03  0.16967285793E+03  0.93866912281E+02 0.  0.
        -13    1    3    3    0    0  0.63114164943E+02 -0.93020912179E+02 -0.20960000243E+02  0.11434863151E+03  0.00000000000E+00 0.  1.
         14    1    3    3    0    0 -0.10622340255E+02  0.82682975726E+01  0.36367261840E+01  0.13943623438E+02  0.00000000000E+00 0. -1.
        -11    1    4    4    0    0 -0.36489616949E+02  0.48224493155E+00 -0.12815280043E+02  0.38677591805E+02  0.00000000000E+00 0.  1.
         11    1    4    4    0    0  0.15664619546E+02  0.91161266749E+02 -0.92757764563E+02  0.13099526613E+03  0.00000000000E+00 0. -1.
          1    1    1    2  501    0 -0.31666827285E+02 -0.68908970744E+01 -0.65334843544E+02  0.72930886418E+02  0.00000000000E+00 0. -1.
<scales pt_clust_5="13000.00000" pt_clust_6="13000.00000" pt_clust_7="13000.00000" pt_clust_8="13000.00000" pt_clust_9="32.40791"></scales>
<clustering>
<clus scale="   32.408">  2  9  1 -1</clus>
<clus scale="   78.870">  5  6 -1 -1</clus>
<clus scale="   93.867">  7  8 -1 -1</clus>
<clus scale="  124.653">  1  5  2 -1</clus>
<clus scale="   32.408">  2  5  1 -1</clus>
</clustering>
</event>
<event>
 9    2  0.4883225E-005  0.9897594E+02  0.7546771E-02  0.1288913E+00
          2   -1    0    0  502    0 -0.00000000000E+00  0.00000000000E+00  0.81195156345E+03  0.81195156345E+03  0.00000000000E+00 0. -1.
         21   -1    0    0  501  502  0.00000000000E+00 -0.00000000000E+00 -0.59300133317E+02  0.59300133317E+02  0.00000000000E+00 0. -1.
         24    2    1    2    0    0 -0.23463700170E+02 -0.23880715240E+02  0.68811587317E+03  0.69370840161E+03  0.81283809979E+02 0.  0.
         23    2    1    2    0    0 -0.17247236743E+02  0.43543951969E+02  0.74787632309E+01  0.10474562367E+03  0.93392563145E+02 0.  0.
        -11    1    3    3    0    0  0.23295734769E+02  0.13490547679E+01  0.81633080228E+02  0.84902714884E+02  0.00000000000E+00 0.  1.
         12    1    3    3    0    0 -0.46759434939E+02 -0.25229770008E+02  0.60648279294E+03  0.60880568672E+03  0.00000000000E+00 0. -1.
        -13    1    4    4    0    0 -0.39005610619E+02 -0.15173653965E+02  0.35411415480E+01  0.42002584657E+02  0.00000000000E+00 0. -1.
         13    1    4    4    0    0  0.21758373876E+02  0.58717605934E+02  0.39376216829E+01  0.62743039016E+02  0.00000000000E+00 0.  1.
          1    1    1    2  501    0  0.40710936913E+02 -0.19663236730E+02  0.57056793731E+02  0.72797671487E+02  0.00000000000E+00 0. -1.
<scales pt_clust_5="13000.00000" pt_clust_6="13000.00000" pt_clust_7="13000.00000" pt_clust_8="13000.00000" pt_clust_9="45.21088"></scales>
<clustering>
<clus scale="   45.211">  2  9  1 -1</clus>
<clus scale="   81.284">  5  6 -1 -1</clus>
<clus scale="   87.642">  1  5  2 -1</clus>
<clus scale="   93.393">  7  8 -1 -1</clus>
<clus scale="   45.211">  2  5  1 -1</clus>
</clustering>
</event>
<event>
 9    2  0.4883225E-005  0.2588801E+03  0.7546771E-02  0.1140572E+00
          2   -1    0    0  502    0 -0.00000000000E+00  0.00000000000E+00  0.12203587235E+04  0.12203587235E+04  0.00000000000E+00 0. -1.
         21   -1    0    0  501  502  0.00000000000E+00 -0.00000000000E+00 -0.10005817198E+03  0.10005817198E+03  0.00000000000E+00 0. -1.
         24    2    1    2    0    0  0.78139787140E+02  0.14927431517E+02  0.45956202611E+03  0.47368571442E+03  0.82778292147E+02 0.  0.
         23    2    1    2    0    0 -0.24895799234E+03 -0.14995261775E+03  0.45137339291E+03  0.54466426984E+03  0.91953017845E+02 0.  0.
        -13    1    3    3    0    0  0.32375094032E+02  0.32029037155E+02  0.89577338681E+02  0.10048933048E+03  0.00000000000E+00 0.  1.
         14    1    3    3    0    0  0.45764693109E+02 -0.17101605638E+02  0.36998468743E+03  0.37319638394E+03  0.00000000000E+00 0. -1.
        -11    1    4    4    0    0 -0.19568444991E+03 -0.15219307507E+03  0.40020016450E+03  0.47076035061E+03  0.00000000000E+00 0. -1.
         11    1    4    4    0    0 -0.53273542430E+02  0.22404573193E+01  0.51173228407E+02  0.73903919231E+02  0.00000000000E+00 0.  1.
          1    1    1    2  501    0  0.17081820520E+03  0.13502518623E+03  0.20936513246E+03  0.30206691119E+03  0.00000000000E+00 0. -1.
<scales pt_clust_5="13000.00000" pt_clust_6="13000.00000" pt_clust_7="13000.00000" pt_clust_8="13000.00000" pt_clust_9="241.99906"></scales>
<clustering>
<clus scale="   82.778">  5  6 -1 -1</clus>
<clus scale="   91.953">  7  8 -1 -1</clus>
<clus scale="  114.808">  1  5  2 -1</clus>
<clus scale="  241.999">  2  9  1 -1</clus>
<clus scale="  241.999">  2  5  1 -1</clus>
</clustering>
</event>
<event>
 9    2  0.4883225E-005  0.1326205E+03  0.7546771E-02  0.1246400E+00
         21   -1    0    0  501  502  0.00000000000E+00  0.00000000000E+00  0.69089822466E+02  0.69089822466E+02  0.00000000000E+00 0.  1.
         -1   -1    0    0    0  501 -0.00000000000E+00 -0.00000000000E+00 -0.42580394960E+03  0.42580394960E+03  0.00000000000E+00 0.  1.
         24    2    1    2    0    0 -0.19724655645E+02 -0.77591261422E+01 -0.17758290342E+02  0.85048039182E+02  0.80427271581E+02 0.  0.
         23    2    1    2    0    0  0.73324450720E+02  0.79132135924E+02 -0.20261440701E+03  0.24688552291E+03  0.90892758175E+02 0.  0.
        -13    1    3    3    0    0 -0.67958260832E+01  0.36176204964E+02 -0.12850773379E+02  0.38987734407E+02  0.00000000000E+00 0.  1.
         14    1    3    3    0    0 -0.12928829562E+02 -0.43935331106E+02 -0.49075169634E+01  0.46060304775E+02  0.00000000000E+00 0. -1.
        -11    1    4    4    0    0  0.25485995864E+02  0.59042504441E+02 -0.17838259994E+03  0.18962042421E+03  0.00000000000E+00 0.  1.
         11    1    4    4    0    0  0.47838454856E+02  0.20089631483E+02 -0.24231807070E+02  0.57265098708E+02  0.00000000000E+00 0. -1.
         -2    1    1    2    0  502 -0.53599795075E+02 -0.71373009781E+02 -0.13634142978E+03  0.16296020997E+03  0.00000000000E+00 0.  1.
<scales pt_clust_5="13000.00000" pt_clust_6="13000.00000" pt_clust_7="13000.00000" pt_clust_8="13000.00000" pt_clust_9="96.57486"></scales>
<clustering>
<clus scale="   80.427">  5  6 -1 -1</clus>
<clus scale="   83.173">  2  5  1 -1</clus>
<clus scale="   90.893">  7  8 -1 -1</clus>
<clus scale="   96.575">  1  9  2 -1</clus>
<clus scale="   96.575">  1  5  2 -1</clus>
</clustering>
</event>
<event>
 9    2  0.4883225E-005  0.1291573E+03  0.7546771E-02  0.1231443E+00
          2   -1    0    0  502    0 -0.00000000000E+00  0.00000000000E+00  0.34960292429E+03  0.34960292429E+03  0.00000000000E+00 0. -1.
         21   -1    0    0  501  502  0.00000000000E+00 -0.00000000000E+00 -0.18479974589E+03  0.18479974589E+03  0.00000000000E+00 0. -1.
         24    2    1    2    0    0 -0.15192969076E+02  0.92704407990E+02  0.30198257893E+03  0.32628726193E+03  0.80280544036E+02 0.  0.
         23    2    1    2    0    0  0.33379096279E+01 -0.75636246187E+02 -0.68937892867E+02  0.13677980738E+03  0.90687922328E+02 0.  0.
        -13    1    3    3    0    0 -0.42008352457E+02  0.60924428510E+02  0.13236871509E+03  0.15165079756E+03  0.00000000000E+00 0.  1.
         14    1    3    3    0    0  0.26815383381E+02  0.31779979480E+02  0.16961386384E+03  0.17463646438E+03  0.00000000000E+00 0. -1.
        -13    1    4    4    0    0 -0.11852709017E+02  0.18860153328E+02 -0.10355902044E+02  0.24564950677E+02  0.00000000000E+00 0.  1.
         13    1    4    4    0    0  0.15190618645E+02 -0.94496399516E+02 -0.58581990823E+02  0.11221485670E+03  0.00000000000E+00 0. -1.
          1    1    1    2  501    0  0.11855059448E+02 -0.17068161802E+02 -0.68241507671E+02  0.71335600867E+02  0.00000000000E+00 0. -1.
<scales pt_clust_5="13000.00000" pt_clust_6="13000.00000" pt_clust_7="13000.00000" pt_clust_8="13000.00000" pt_clust_9="20.78135"></scales>
<clustering>
<clus scale="   20.781">  2  9  1 -1</clus>
<clus scale="   80.281">  5  6 -1 -1</clus>
<clus scale="   90.688">  7  8 -1 -1</clus>
<clus scale="  122.075">  1  5  2 -1</clus>
<clus scale="   20.781">  2  5  1 -1</clus>
</clustering>
</event>
<event>
 9    2  0.4883225E-005  0.1542813E+03  0.7546771E-02  0.1200334E+00
         21   -1    0    0  501  502  0.00000000000E+00  0.00000000000E+00  0.51949403653E+02  0.51949403653E+02  0.00000000000E+00 0.  1.
          2   -1    0    0  502    0 -0.00000000000E+00 -0.00000000000E+00 -0.10376285696E+04  0.10376285696E+04  0.00000000000E+00 0. -1.
         24    2    1    2    0    0  0.99361216484E+02 -0.82118693593E+02 -0.70766378889E+03  0.72244630356E+03  0.67264346003E+02 0.  0.
         23    2    1    2    0    0 -0.46072916003E+02  0.62944229720E+02 -0.52036873296E+02  0.13416474673E+03  0.95956518478E+02 0.  0.
        -11    1    3    3    0    0  0.44344026259E+01 -0.40218195281E+02 -0.24225805006E+03  0.24561378214E+03  0.00000000000E+00 0.  1.
         12    1    3    3    0    0  0.94926813858E+02 -0.41900498312E+02 -0.46540573883E+03  0.47683252142E+03  0.00000000000E+00 0. -1.
        -13    1    4    4    0    0 -0.74620400283E+02  0.46446656361E+02 -0.24605032281E+02  0.91273783964E+02  0.00000000000E+00 0.  1.
         13    1    4    4    0    0  0.28547484280E+02  0.16497573359E+02 -0.27431841016E+02  0.42890962766E+02  0.00000000000E+00 0. -1.
          1    1    1    2  501    0 -0.53288300480E+02  0.19174463873E+02 -0.22597850372E+03  0.23296692293E+03  0.00000000000E+00 0. -1.
<scales pt_clust_5="13000.00000" pt_clust_6="13000.00000" pt_clust_7="13000.00000" pt_clust_8="13000.00000" pt_clust_9="56.63308"></scales>
<clustering>
<clus scale="   56.633">  1  9  2 -1</clus>
<clus scale="   67.264">  5  6 -1 -1</clus>
<clus scale="   95.957">  7  8 -1 -1</clus>
<clus scale="  138.274">  2  5  1 -1</clus>
<clus scale="   56.633">  1  5  2 -1</clus>
</clustering>
</event>
<event>
 9    2  0.4883225E-005  0.1250960E+03  0.7546771E-02  0.1255493E+00
         21   -1    0    0  501  502  0.00000000000E+00  0.00000000000E+00  0.68378500827E+02  0.68378500827E+02  0.00000000000E+00 0.  1.
         -3   -1    0    0    0  501 -0.00000000000E+00 -0.00000000000E+00 -0.49671170901E+03  0.49671170901E+03  0.00000000000E+00 0.  1.
         24    2    1    2    0    0  0.71080593839E+01  0.15289497403E+02 -0.30978353485E+03  0.32077119232E+03  0.81510895715E+02 0.  0.
         23    2    1    2    0    0  0.62794832792E+02 -0.24610524139E+01 -0.98019188014E+02  0.17034277699E+03  0.12433685153E+03 0.  0.
        -13    1    3    3    0    0  0.35115154984E+02  0.11241526939E+02 -0.68135526915E+02  0.77471905007E+02  0.00000000000E+00 0.  1.
         14    1    3    3    0    0 -0.28007095600E+02  0.40479704636E+01 -0.24164800793E+03  0.24329928731E+03  0.00000000000E+00 0. -1.
        -11    1    4    4    0    0 -0.16441589876E+02  0.17847949334E+02  0.16692812894E+02  0.29453780324E+02  0.00000000000E+00 0. -1.
         11    1    4    4    0    0  0.79236422668E+02 -0.20309001748E+02 -0.11471200091E+03  0.14088899667E+03  0.00000000000E+00 0.  1.
         -4    1    1    2    0  502 -0.69902892176E+02 -0.12828444989E+02 -0.20530485323E+02  0.73976240530E+02  0.00000000000E+00 0.  1.
<scales pt_clust_5="13000.00000" pt_clust_6="13000.00000" pt_clust_7="13000.00000" pt_clust_8="13000.00000" pt_clust_9="71.07027"></scales>
<clustering>
<clus scale="   71.070">  1  9  2 -1</clus>
<clus scale="   81.511">  5  6 -1 -1</clus>
<clus scale="   82.664">  2  5  1 -1</clus>
<clus scale="  124.337">  7  8 -1 -1</clus>
<clus scale="   71.070">  1  5  2 -1</clus>
</clustering>
</event>
<event>
 9    2  0.6836924E-005  0.1173654E+03  0.7546771E-02  0.1249466E+00
         21   -1    0    0  501  502  0.00000000000E+00  0.00000000000E+00  0.14940936220E+03  0.14940936220E+03  0.00000000000E+00 0.  1.
          2   -1    0    0  502    0 -0.00000000000E+00 -0.00000000000E+00 -0.64921717879E+03  0.64921717879E+03  0.00000000000E+00 0. -1.
         23    2    1    2    0    0  0.51263646651E+02  0.59580632629E+02 -0.33304825611E+03  0.35398585195E+03  0.90592655494E+02 0.  0.
         24    2    1    2    0    0  0.71696750595E+01 -0.36059803697E+02  0.11980378168E+03  0.15123613634E+03  0.84662324258E+02 0.  0.
        -11    1    4    4    0    0 -0.20043342421E+02 -0.22273292804E+01  0.10255122718E+03  0.10451531355E+03  0.00000000000E+00 0.  1.
         12    1    4    4    0    0  0.27213017480E+02 -0.33832474416E+02  0.17252554498E+02  0.46720822791E+02  0.00000000000E+00 0. -1.
        -11    1    3    3    0    0  0.74321694876E+02  0.38054252891E+02 -0.19060510402E+03  0.20809167732E+03  0.00000000000E+00 0.  1.
         11    1    3    3    0    0 -0.23058048225E+02  0.21526379739E+02 -0.14244315209E+03  0.14589417463E+03  0.00000000000E+00 0. -1.
          1    1    1    2  501    0 -0.58433321711E+02 -0.23520828933E+02 -0.28656334215E+03  0.29340455270E+03  0.00000000000E+00 0. -1.
<scales pt_clust_5="13000.00000" pt_clust_6="13000.00000" pt_clust_7="13000.00000" pt_clust_8="13000.00000" pt_clust_9="62.98957"></scales>
<clustering>
<clus scale="   62.990">  1  9  2 -1</clus>
<clus scale="   84.662">  5  6 -1 -1</clus>
<clus scale="   90.593">  7  8 -1 -1</clus>
<clus scale="  112.851">  1  5  2 -1</clus>
<clus scale="   62.990">  1  5  2 -1</clus>
</clustering>
</event>
<event>
 9    2  0.4883225E-005  0.1015249E+03  0.7546771E-02  0.1281312E+00
         21   -1    0    0  501  502  0.00000000000E+00  0.00000000000E+00  0.21105708139E+03  0.21105708139E+03  0.00000000000E+00 0. -1.
          2   -1    0    0  502    0 -0.00000000000E+00 -0.00000000000E+00 -0.12711754812E+03  0.12711754812E+03  0.00000000000E+00 0. -1.
         24    2    1    2    0    0  0.49773032838E+02  0.31369062605E+02 -0.27708836556E+02  0.10386379402E+03  0.80984783740E+02 0.  0.
         23    2    1    2    0    0 -0.13531139321E+02  0.22041656070E+02  0.13622413232E+03  0.16524457877E+03  0.89887876016E+02 0.  0.
        -13    1    3    3    0    0  0.33134196804E+02  0.13885810483E+01  0.24619168212E+02  0.41302622176E+02  0.00000000000E+00 0.  1.
         14    1    3    3    0    0  0.16638836034E+02  0.29980481557E+02 -0.52328004768E+02  0.62561171840E+02  0.00000000000E+00 0. -1.
        -13    1    4    4    0    0 -0.21354714398E+02  0.44257210618E+02  0.32582807576E+02  0.58960697657E+02  0.00000000000E+00 0.  1.
         13    1    4    4    0    0  0.78235750765E+01 -0.22215554548E+02  0.10364132474E+03  0.10628388112E+03  0.00000000000E+00 0. -1.
          1    1    1    2  501    0 -0.36241893516E+02 -0.53410718676E+02 -0.24575762500E+02  0.69066256722E+02  0.00000000000E+00 0. -1.
<scales pt_clust_5="13000.00000" pt_clust_6="13000.00000" pt_clust_7="13000.00000" pt_clust_8="13000.00000" pt_clust_9="64.54598"></scales>
<clustering>
<clus scale="   64.546">  1  9  2 -1</clus>
<clus scale="   80.985">  5  6 -1 -1</clus>
<clus scale="   89.888">  7  8 -1 -1</clus>
<clus scale="   93.734">  2  5  1 -1</clus>
<clus scale="   64.546">  1  5  2 -1</clus>
</clustering>
</event>
<event>
 9    2  0.4883225E-005  0.9595827E+02  0.7546771E-02  0.1295849E+00
          4   -1    0    0  502    0 -0.00000000000E+00  0.00000000000E+00  0.10099454796E+03  0.10099454796E+03  0.00000000000E+00 0. -1.
         21   -1    0    0  501  502  0.00000000000E+00 -0.00000000000E+00 -0.17190298500E+03  0.17190298500E+03  0.00000000000E+00 0.  1.
         24    2    1    2    0    0  0.19776194384E+02 -0.13377596981E+02  0.22728186128E+02  0.85696768187E+02  0.79103145751E+02 0.  0.
         23    2    1    2    0    0 -0.35043252751E+01  0.53221726610E+02 -0.29087732703E+02  0.10961927438E+03  0.91243940312E+02 0.  0.
        -13    1    3    3    0    0  0.13722722906E+02 -0.43883043607E+02  0.28458075048E+02  0.54073067932E+02  0.00000000000E+00 0.  1.
         14    1    3    3    0    0  0.60534714782E+01  0.30505446626E+02 -0.57298889198E+01  0.31623700255E+02  0.00000000000E+00 0. -1.
        -11    1    4    4    0    0 -0.69601377195E+01  0.31823524223E+02  0.31473248334E+02  0.45296198204E+02  0.00000000000E+00 0. -1.
         11    1    4    4    0    0  0.34558124445E+01  0.21398202387E+02 -0.60560981037E+02  0.64323076180E+02  0.00000000000E+00 0.  1.
          3    1    1    2  501    0 -0.16271869109E+02 -0.39844129629E+02 -0.64548890469E+02  0.77581490388E+02  0.00000000000E+00 0. -1.
<scales pt_clust_5="13000.00000" pt_clust_6="13000.00000" pt_clust_7="13000.00000" pt_clust_8="13000.00000" pt_clust_9="43.03868"></scales>
<clustering>
<clus scale="   43.039">  2  9  1 -1</clus>
<clus scale="   79.103">  5  6 -1 -1</clus>
<clus scale="   84.498">  1  5  2 -1</clus>
<clus scale="   91.244">  7  8 -1 -1</clus>
<clus scale="   43.039">  2  5  1 -1</clus>
</clustering>
</event>
<event>
 9    2  0.4883225E-005  0.1023597E+03  0.7546771E-02  0.1281037E+00
          4   -1    0    0  502    0 -0.00000000000E+00  0.00000000000E+00  0.38615984941E+03  0.38615984941E+03  0.00000000000E+00 0. -1.
         21   -1    0    0  501  502  0.00000000000E+00 -0.00000000000E+00 -0.62109514419E+02  0.62109514419E+02  0.00000000000E+00 0. -1.
         24    2    1    2    0    0 -0.21417295286E+01  0.44035986811E+02  0.27040326248E+03  0.28502209325E+03  0.78586984550E+02 0.  0.
         23    2    1    2    0    0 -0.25112055312E+02 -0.64760300101E+02  0.59187585774E+02  0.12856351017E+03  0.90558787793E+02 0.  0.
        -11    1    3    3    0    0  0.23042832406E+02 -0.12778142540E+02  0.10710057820E+03  0.11029409279E+03  0.00000000000E+00 0.  1.
         12    1    3    3    0    0 -0.25184561935E+02  0.56814129351E+02  0.16330268427E+03  0.17472800046E+03  0.00000000000E+00 0. -1.
        -11    1    4    4    0    0 -0.54456417342E+02 -0.28704133994E+02  0.12769279004E+02  0.62868777500E+02  0.00000000000E+00 0.  1.
         11    1    4    4    0    0  0.29344362030E+02 -0.36056166106E+02  0.46418306771E+02  0.65694732671E+02  0.00000000000E+00 0. -1.
          3    1    1    2  501    0  0.27253784840E+02  0.20724313290E+02 -0.55405132562E+01  0.34683760416E+02  0.00000000000E+00 0. -1.
<scales pt_clust_5="13000.00000" pt_clust_6="13000.00000" pt_clust_7="13000.00000" pt_clust_8="13000.00000" pt_clust_9="34.23837"></scales>
<clustering>
<clus scale="   34.238">  2  9  1 -1</clus>
<clus scale="   78.587">  5  6 -1 -1</clus>
<clus scale="   90.559">  7  8 -1 -1</clus>
<clus scale="   91.938">  1  5  2 -1</clus>
<clus scale="   34.238">  2  5  1 -1</clus>
</clustering>
</event>
<event>
 9    2  0.4883225E-005  0.1038497E+03  0.7546771E-02  0.1277668E+00
         21   -1    0    0  501  502  0.00000000000E+00  0.00000000000E+00  0.33648360016E+03  0.33648360016E+03  0.00000000000E+00 0.  1.
         -1   -1    0    0    0  501 -0.00000000000E+00 -0.00000000000E+00 -0.20872753199E+03  0.20872753199E+03  0.00000000000E+00 0.  1.
         24    2    1    2    0    0  0.25265218838E+02  0.22414914689E+02 -0.11944790673E+03  0.14907155261E+03  0.82545537078E+02 0.  0.
         23    2    1    2    0    0 -0.54521979448E+02 -0.69452338224E+02 -0.13625615003E+02  0.12949271152E+03  0.93735966546E+02 0.  0.
        -13    1    3    3    0    0  0.50520713249E+02  0.30798543209E+02 -0.99694818429E+02  0.11593079639E+03  0.00000000000E+00 0.  1.
         14    1    3    3    0    0 -0.25255494410E+02 -0.83836285196E+01 -0.19753088303E+02  0.33140756216E+02  0.00000000000E+00 0. -1.
        -13    1    4    4    0    0 -0.56621388181E+02 -0.20611856310E+02 -0.41550606250E+02  0.73193463505E+02  0.00000000000E+00 0.  1.
         13    1    4    4    0    0  0.20994087334E+01 -0.48840481914E+02  0.27924991247E+02  0.56299248012E+02  0.00000000000E+00 0. -1.
         -2    1    1    2    0  502  0.29256760609E+02  0.47037423534E+02  0.26082958991E+03  0.26664686802E+03  0.00000000000E+00 0.  1.
<scales pt_clust_5="13000.00000" pt_clust_6="13000.00000" pt_clust_7="13000.00000" pt_clust_8="13000.00000" pt_clust_9="55.39384"></scales>
<clustering>
<clus scale="   55.394">  1  9  2 -1</clus>
<clus scale="   82.546">  5  6 -1 -1</clus>
<clus scale="   93.736">  7  8 -1 -1</clus>
<clus scale="   93.873">  2  5  1 -1</clus>
<clus scale="   55.394">  1  5  2 -1</clus>
</clustering>
</event>
<event>
 9    2  0.4883225E-005  0.1444233E+03  0.7546771E-02  0.1224990E+00
         21   -1    0    0  501  502  0.00000000000E+00  0.00000000000E+00  0.65357758255E+02  0.65357758255E+02  0.00000000000E+00 0. -1.
          2   -1    0    0  502    0 -0.00000000000E+00 -0.00000000000E+00 -0.55076604258E+03  0.55076604258E+03  0.00000000000E+00 0. -1.
         23    2    1    2    0    0  0.36937071386E+02  0.24968286247E+02 -0.72754262283E+02  0.12350027984E+03  0.89282550809E+02 0.  0.
         24    2    1    2    0    0 -0.71320879846E+02  0.95859549043E+02 -0.21586465402E+03  0.25915474914E+03  0.79296368789E+02 0.  0.
        -13    1    4    4    0    0 -0.25674057062E+02  0.13481892910E+02 -0.12488711542E+03  0.12820963396E+03  0.00000000000E+00 0.  1.
         14    1    4    4    0    0 -0.45646822784E+02  0.82377656133E+02 -0.90977538601E+02  0.13094511518E+03  0.00000000000E+00 0. -1.
        -13    1    3    3    0    0  0.29277859396E+02  0.43733921301E+01  0.14894957572E+02  0.33138789516E+02  0.00000000000E+00 0.  1.
         13    1    3    3    0    0  0.76592119902E+01  0.20594894117E+02 -0.87649219855E+02  0.90361490321E+02  0.00000000000E+00 0. -1.
          1    1    1    2  501    0  0.34383808460E+02 -0.12082783529E+03 -0.19678936802E+03  0.23346877186E+03  0.00000000000E+00 0. -1.
<scales pt_clust_5="13000.00000" pt_clust_6="13000.00000" pt_clust_7="13000.00000" pt_clust_8="13000.00000" pt_clust_9="120.70702"></scales>
<clustering>
<clus scale="   79.296">  5  6 -1 -1</clus>
<clus scale="   89.283">  7  8 -1 -1</clus>
<clus scale="   99.796">  2  7  1 -1</clus>
<clus scale="  120.707">  1  9  2 -1</clus>
<clus scale="  120.707">  1  5  2 -1</clus>
</clustering>
</event>
<event>
 9    2  0.4883225E-005  0.1157160E+03  0.7546771E-02  0.1266319E+00
          2   -1    0    0  502    0 -0.00000000000E+00  0.00000000000E+00  0.21899749172E+03  0.21899749172E+03  0.00000000000E+00 0. -1.
         21   -1    0    0  501  502  0.00000000000E+00 -0.00000000000E+00 -0.12670935645E+03  0.12670935645E+03  0.00000000000E+00 0.  1.
         24    2    1    2    0    0  0.14259890186E+02 -0.24946428548E+02  0.15815753500E+03  0.17993258659E+03  0.80847146358E+02 0.  0.
         23    2    1    2    0    0  0.95166009054E+00 -0.10372273704E+02 -0.46898469897E+02  0.12289421763E+03  0.11311512953E+03 0.  0.
        -13    1    3    3    0    0  0.15870396758E+02  0.26458798242E+02  0.36139087730E+02  0.47518114016E+02  0.00000000000E+00 0.  1.
         14    1    3    3    0    0 -0.16105065713E+01 -0.51405226791E+02  0.12201844727E+03  0.13241447258E+03  0.00000000000E+00 0. -1.
        -13    1    4    4    0    0  0.24324134477E+02 -0.44473850951E+01 -0.78980868102E+02  0.82761224486E+02  0.00000000000E+00 0.  1.
         13    1    4    4    0    0 -0.23372474387E+02 -0.59248886091E+01  0.32082398205E+02  0.40132993142E+02  0.00000000000E+00 0. -1.
          1    1    1    2  501    0 -0.15211550277E+02  0.35318702253E+02 -0.18970929834E+02  0.42880043953E+02  0.00000000000E+00 0. -1.
<scales pt_clust_5="13000.00000" pt_clust_6="13000.00000" pt_clust_7="13000.00000" pt_clust_8="13000.00000" pt_clust_9="38.45519"></scales>
<clustering>
<clus scale="   38.455">  2  9  1 -1</clus>
<clus scale="   80.847">  5  6 -1 -1</clus>
<clus scale="   84.448">  1  5  2 -1</clus>
<clus scale="  113.115">  7  8 -1 -1</clus>
<clus scale="   38.455">  2  5  1 -1</clus>
</clustering>
</event>
<event>
 9    2  0.4883225E-005  0.1348636E+03  0.7546771E-02  0.1223808E+00
         21   -1    0    0  501  502  0.00000000000E+00  0.00000000000E+00  0.36169110364E+03  0.36169110364E+03  0.00000000000E+00 0. -1.
          2   -1    0    0  502    0 -0.00000000000E+00 -0.00000000000E+00 -0.25292340525E+03  0.25292340525E+03  0.00000000000E+00 0. -1.
         24    2    1    2    0    0  0.99753931489E+02  0.20583432847E+02 -0.19869704083E+03  0.23703946032E+03  0.79578057030E+02 0.  0.
         23    2    1    2    0    0 -0.71848689392E+02 -0.92040859752E+01  0.68421299212E+02  0.13663945908E+03  0.93498225788E+02 0.  0.
        -13    1    3    3    0    0  0.67007895927E+02 -0.31184109425E+01 -0.52001023797E+02  0.84875727268E+02  0.00000000000E+00 0.  1.
         14    1    3    3    0    0  0.32746035562E+02  0.23701843789E+02 -0.14669601703E+03  0.15216373306E+03  0.00000000000E+00 0. -1.
        -13    1    4    4    0    0 -0.14867237092E+02  0.40195734062E+02  0.25315039210E+02  0.49775325069E+02  0.00000000000E+00 0. -1.
         13    1    4    4    0    0 -0.56981452300E+02 -0.49399820037E+02  0.43106260002E+02  0.86864134010E+02  0.00000000000E+00 0.  1.
          1    1    1    2  501    0 -0.27905242097E+02 -0.11379346871E+02  0.23904344001E+03  0.24093558949E+03  0.00000000000E+00 0. -1.
<scales pt_clust_5="13000.00000" pt_clust_6="13000.00000" pt_clust_7="13000.00000" pt_clust_8="13000.00000" pt_clust_9="30.13623"></scales>
<clustering>
<clus scale="   30.136">  1  9  2 -1</clus>
<clus scale="   79.578">  5  6 -1 -1</clus>
<clus scale="   93.498">  7  8 -1 -1</clus>
<clus scale="  125.614">  2  5  1 -1</clus>
<clus scale="   30.136">  1  5  2 -1</clus>
</clustering>
</event>
<event>
 9    2  0.4883225E-005  0.9692570E+02  0.7546771E-02  0.1292950E+00
         21   -1    0    0  501  502  0.00000000000E+00  0.00000000000E+00  0.39343505252E+02  0.39343505252E+02  0.00000000000E+00 0. -1.
          2   -1    0    0  502    0 -0.00000000000E+00 -0.00000000000E+00 -0.40197480667E+03  0.40197480667E+03  0.00000000000E+00 0. -1.
         24    2    1    2    0    0  0.26859454834E+02  0.37602002015E+02 -0.26165948347E+03  0.27695584277E+03  0.78124981176E+02 0.  0.
         23    2    1    2    0    0  0.56011365255E+01 -0.17424245035E+02 -0.74383755394E+02  0.11780329241E+03  0.89496902694E+02 0.  0.
        -11    1    3    3    0    0 -0.21688782807E+02  0.31753894941E+02 -0.15371741630E+03  0.15845427485E+03  0.00000000000E+00 0.  1.
         12    1    3    3    0    0  0.48548237642E+02  0.58481070740E+01 -0.10794206717E+03  0.11850156792E+03  0.00000000000E+00 0. -1.
        -13    1    4    4    0    0 -0.56734025003E+01 -0.49090575538E+02 -0.67227730463E+02  0.83436441954E+02  0.00000000000E+00 0.  1.
         13    1    4    4    0    0  0.11274539026E+02  0.31666330503E+02 -0.71560249309E+01  0.34366850461E+02  0.00000000000E+00 0. -1.
          1    1    1    2  501    0 -0.32460591360E+02 -0.20177756980E+02 -0.26588062551E+02  0.46559176737E+02  0.00000000000E+00 0. -1.
<scales pt_clust_5="13000.00000" pt_clust_6="13000.00000" pt_clust_7="13000.00000" pt_clust_8="13000.00000" pt_clust_9="38.22083"></scales>
<clustering>
<clus scale="   38.221">  1  9  2 -1</clus>
<clus scale="   78.125">  5  6 -1 -1</clus>
<clus scale="   86.536">  2  5  1 -1</clus>
<clus scale="   89.497">  7  8 -1 -1</clus>
<clus scale="   38.221">  1  5  2 -1</clus>
</clustering>
</event>
<event>
 9    2  0.4883225E-005  0.1039693E+03  0.7546771E-02  0.1276486E+00
          2   -1    0    0  502    0 -0.00000000000E+00  0.00000000000E+00  0.33476038781E+03  0.33476038781E+03  0.00000000000E+00 0. -1.
         21   -1    0    0  501  502  0.00000000000E+00 -0.00000000000E+00 -0.88915551351E+02  0.88915551351E+02  0.00000000000E+00 0. -1.
         24    2    1    2    0    0 -0.28851188843E+02  0.39239468776E+02  0.21240965651E+03  0.23339382283E+03  0.83562475717E+02 0.  0.
         23    2    1    2    0    0  0.17403459529E+01 -0.37134630363E+02 -0.43162324229E+02  0.10900108661E+03  0.92931378300E+02 0.  0.
        -11    1    3    3    0    0 -0.17146864297E+02 -0.22867294799E+02  0.35759587070E+02  0.45778556050E+02  0.00000000000E+00 0.  1.
         12    1    3    3    0    0 -0.11704324546E+02  0.62106763575E+02  0.17665006944E+03  0.18761526678E+03  0.00000000000E+00 0. -1.
        -13    1    4    4    0    0 -0.10573790560E+02  0.28915402236E+02 -0.35170298489E+01  0.30988304765E+02  0.00000000000E+00 0.  1.
         13    1    4    4    0    0  0.12314136513E+02 -0.66050032599E+02 -0.39645294380E+02  0.78012781843E+02  0.00000000000E+00 0. -1.
          1    1    1    2  501    0  0.27110842890E+02 -0.21048384129E+01  0.76597504183E+02  0.81281029730E+02  0.00000000000E+00 0. -1.
<scales pt_clust_5="13000.00000" pt_clust_6="13000.00000" pt_clust_7="13000.00000" pt_clust_8="13000.00000" pt_clust_9="27.19244"></scales>
<clustering>
<clus scale="   27.192">  2  9  1 -1</clus>
<clus scale="   83.562">  5  6 -1 -1</clus>
<clus scale="   92.931">  7  8 -1 -1</clus>
<clus scale="   95.687">  1  5  2 -1</clus>
<clus scale="   27.192">  2  5  1 -1</clus>
</clustering>
</event>
<event>
 9    2  0.4883225E-005  0.1712358E+03  0.7546771E-02  0.1194693E+00
         21   -1    0    0  501  502  0.00000000000E+00  0.00000000000E+00  0.14083159086E+03  0.14083159086E+03  0.00000000000E+00 0. -1.
          2   -1    0    0  502    0 -0.00000000000E+00 -0.00000000000E+00 -0.71107087336E+03  0.71107087336E+03  0.00000000000E+00 0. -1.
         24    2    1    2    0    0  0.57064700248E+02 -0.57365037386E+02 -0.23839111716E+03  0.26440863915E+03  0.80836106955E+02 0.  0.
         23    2    1    2    0    0  0.82539164412E+02 -0.54094706532E+01 -0.40105262275E+03  0.41950830542E+03  0.91115509478E+02 0.  0.
        -13    1    3    3    0    0  0.45067897419E+02 -0.69129532230E+02 -0.23232271070E+03  0.24654380850E+03  0.00000000000E+00 0.  1.
         14    1    3    3    0    0  0.11996802829E+02  0.11764494844E+02 -0.60684064593E+01  0.17864830646E+02  0.00000000000E+00 0. -1.
        -11    1    4    4    0    0  0.53259146142E+02  0.36590074693E+02 -0.15061691585E+03  0.16389272575E+03  0.00000000000E+00 0.  1.
         11    1    4    4    0    0  0.29280018270E+02 -0.41999545346E+02 -0.25043570691E+03  0.25561557968E+03  0.00000000000E+00 0. -1.
          1    1    1    2  501    0 -0.13960386466E+03  0.62774508039E+02  0.69204457413E+02  0.16798551965E+03  0.00000000000E+00 0. -1.
<scales pt_clust_5="13000.00000" pt_clust_6="13000.00000" pt_clust_7="13000.00000" pt_clust_8="13000.00000" pt_clust_9="144.98159"></scales>
<clustering>
<clus scale="   80.836">  5  6 -1 -1</clus>
<clus scale="   91.116">  7  8 -1 -1</clus>
<clus scale="  114.375">  2  5  1 -1</clus>
<clus scale="  144.982">  1  9  2 -1</clus>
<clus scale="  144.982">  1  5  2 -1</clus>
</clustering>
</event>
<event>
 9    2  0.4883225E-005  0.9664344E+02  0.7546771E-02  0.1289460E+00
          2   -1    0    0  502    0 -0.00000000000E+00  0.00000000000E+00  0.32235322104E+03  0.32235322104E+03  0.00000000000E+00 0. -1.
         21   -1    0    0  501  502  0.00000000000E+00 -0.00000000000E+00 -0.13335431402E+03  0.13335431402E+03  0.00000000000E+00 0.  1.
         23    2    1    2    0    0 -0.12003379537E+02 -0.30448830178E+02  0.27938887579E+03  0.29542928771E+03  0.90272408528E+02 0.  0.
         24    2    1    2    0    0  0.45100421680E+01  0.57274496523E+02 -0.64700559965E+02  0.12238745421E+03  0.86555289014E+02 0.  0.
        -13    1    4    4    0    0 -0.26404812555E+02  0.60718491841E+02 -0.22434734450E+02  0.69908988602E+02  0.00000000000E+00 0.  1.
         14    1    4    4    0    0  0.30914854723E+02 -0.34439953176E+01 -0.42265825515E+02  0.52478465610E+02  0.00000000000E+00 0. -1.
        -11    1    3    3    0    0 -0.37530032597E+02  0.30617748871E+01  0.21640362237E+03  0.21965519704E+03  0.00000000000E+00 0. -1.
         11    1    3    3    0    0  0.25526653060E+02 -0.33510605065E+02  0.62985253422E+02  0.75774090670E+02  0.00000000000E+00 0.  1.
          1    1    1    2  501    0  0.74933373689E+01 -0.26825666345E+02 -0.25689408804E+02  0.37890793137E+02  0.00000000000E+00 0. -1.
<scales pt_clust_5="13000.00000" pt_clust_6="13000.00000" pt_clust_7="13000.00000" pt_clust_8="13000.00000" pt_clust_9="27.85258"></scales>
<clustering>
<clus scale="   27.853">  2  9  1 -1</clus>
<clus scale="   86.555">  5  6 -1 -1</clus>
<clus scale="   90.272">  7  8 -1 -1</clus>
<clus scale="   93.181">  2  5  1 -1</clus>
<clus scale="   27.853">  2  5  1 -1</clus>
</clustering>
</event>
<event>
 9    2  0.4883225E-005  0.1319242E+03  0.7546771E-02  0.1227897E+00
         21   -1    0    0  501  502  0.00000000000E+00  0.00000000000E+00  0.16705774032E+02  0.16705774032E+02  0.00000000000E+00 0. -1.
          2   -1    0    0  502    0 -0.00000000000E+00 -0.00000000000E+00 -0.27090677489E+04  0.27090677489E+04  0.00000000000E+00 0. -1.
         24    2    1    2    0    0 -0.76635224992E+02 -0.38244847493E+02 -0.15105216287E+04  0.15150449390E+04  0.79686575624E+02 0.  0.
         23    2    1    2    0    0  0.85099574740E+02  0.12119262697E+03 -0.68297759159E+03  0.70494599503E+03  0.92524995771E+02 0.  0.
        -11    1    3    3    0    0 -0.11119964773E+02  0.18508454473E+02 -0.12796764483E+03  0.12977647948E+03  0.00000000000E+00 0.  1.
         12    1    3    3    0    0 -0.65515260219E+02 -0.56753301966E+02 -0.13825539838E+04  0.13852684595E+04  0.00000000000E+00 0. -1.
        -13    1    4    4    0    0  0.66689663910E+02  0.17049219749E+02 -0.26374438225E+03  0.27257895431E+03  0.00000000000E+00 0.  1.
         13    1    4    4    0    0  0.18409910830E+02  0.10414340722E+03 -0.41923320934E+03  0.43236704072E+03  0.00000000000E+00 0. -1.
          1    1    1    2  501    0 -0.84643497477E+01 -0.82947779474E+02 -0.49886275457E+03  0.50578258890E+03  0.00000000000E+00 0. -1.
<scales pt_clust_5="13000.00000" pt_clust_6="13000.00000" pt_clust_7="13000.00000" pt_clust_8="13000.00000" pt_clust_9="83.37853"></scales>
<clustering>
<clus scale="   79.687">  5  6 -1 -1</clus>
<clus scale="   83.379">  1  9  2 -1</clus>
<clus scale="   92.525">  7  8 -1 -1</clus>
<clus scale="  123.260">  2  5  1 -1</clus>
<clus scale="   83.379">  1  5  2 -1</clus>
</clustering>
</event>
<event>
 9    2  0.4883225E-005  0.9689977E+02  0.7546771E-02  0.1291841E+00
          2   -1    0    0  502    0 -0.00000000000E+00  0.00000000000E+00  0.16763274960E+03  0.16763274960E+03  0.00000000000E+00 0. -1.
         21   -1    0    0  501  502  0.00000000000E+00 -0.00000000000E+00 -0.16616330063E+03  0.16616330063E+03  0.00000000000E+00 0.  1.
         23    2    1    2    0    0 -0.91725406892E+01 -0.42876354891E+02  0.88910814423E+02  0.13480484963E+03  0.91349314458E+02 0.  0.
         24    2    1    2    0    0  0.47507746390E+02 -0.27197374370E+02 -0.46369840960E+02  0.10917591430E+03  0.82295412828E+02 0.  0.
        -11    1    4    4    0    0  0.42167733252E+02 -0.52838116762E+02 -0.16766759906E+02  0.69649899844E+02  0.00000000000E+00 0.  1.
         12    1    4    4    0    0  0.53400131380E+01  0.25640742392E+02 -0.29603081054E+02  0.39526014454E+02  0.00000000000E+00 0. -1.
        -11    1    3    3    0    0 -0.36422337620E+02  0.10690161605E+02  0.51627885383E+02  0.64080455538E+02  0.00000000000E+00 0. -1.
         11    1    3    3    0    0  0.27249796931E+02 -0.53566516497E+02  0.37282929039E+02  0.70724394095E+02  0.00000000000E+00 0.  1.
          1    1    1    2  501    0 -0.38335205701E+02  0.70073729261E+02 -0.41071524498E+02  0.89815286301E+02  0.00000000000E+00 0. -1.
<scales pt_clust_5="13000.00000" pt_clust_6="13000.00000" pt_clust_7="13000.00000" pt_clust_8="13000.00000" pt_clust_9="79.87437"></scales>
<clustering>
<clus scale="   79.874">  2  9  1 -1</clus>
<clus scale="   82.295">  5  6 -1 -1</clus>
<clus scale="   88.416">  2  5  1 -1</clus>
<clus scale="   91.349">  7  8 -1 -1</clus>
<clus scale="   79.874">  2  5  1 -1</clus>
</clustering>
</event>
<event>
 9    2  0.4883225E-005  0.1166182E+03  0.7546771E-02  0.1252434E+00
          2   -1    0    0  502    0 -0.00000000000E+00  0.00000000000E+00  0.38172131193E+03  0.38172131193E+03  0.00000000000E+00 0. -1.
         21   -1    0    0  501  502  0.00000000000E+00 -0.00000000000E+00 -0.65271473541E+02  0.65271473541E+02  0.00000000000E+00 0. -1.
         23    2    1    2    0    0  0.24950140195E+00  0.60711478309E+02  0.12463719110E+03  0.16518805151E+03  0.89814904716E+02 0.  0.
         24    2    1    2    0    0 -0.29990785614E+01 -0.10253379880E+03  0.58407878387E+02  0.14197090746E+03  0.78880187232E+02 0.  0.
        -11    1    4    4    0    0  0.81377669276E+00 -0.45829256794E+02  0.70285060537E+02  0.83910504381E+02  0.00000000000E+00 0.  1.
         12    1    4    4    0    0 -0.38128552541E+01 -0.56704542010E+02 -0.11877182150E+02  0.58060403079E+02  0.00000000000E+00 0. -1.
        -13    1    3    3    0    0 -0.29608175338E+02  0.56758540512E+02  0.40327704089E+02  0.75660423505E+02  0.00000000000E+00 0. -1.
         13    1    3    3    0    0  0.29857676740E+02  0.39529377978E+01  0.84309487007E+02  0.89527628009E+02  0.00000000000E+00 0.  1.
          1    1    1    2  501    0  0.27495771594E+01  0.41822320495E+02  0.13340476891E+03  0.13983382650E+03  0.00000000000E+00 0. -1.
<scales pt_clust_5="13000.00000" pt_clust_6="13000.00000" pt_clust_7="13000.00000" pt_clust_8="13000.00000" pt_clust_9="41.91263"></scales>
<clustering>
<clus scale="   41.913">  2  9  1 -1</clus>
<clus scale="   78.880">  5  6 -1 -1</clus>
<clus scale="   89.815">  7  8 -1 -1</clus>
<clus scale="  108.421">  2  5  1 -1</clus>
<clus scale="   41.913">  2  5  1 -1</clus>
</clustering>
</event>
<event>
 9    2  0.4883225E-005  0.1099078E+03  0.7546771E-02  0.1269487E+00
         21   -1    0    0  501  502  0.00000000000E+00  0.00000000000E+00  0.16256392068E+03  0.16256392068E+03  0.00000000000E+00 0.  1.
         -1   -1    0    0    0  501 -0.00000000000E+00 -0.00000000000E+00 -0.30730448343E+03  0.30730448343E+03  0.00000000000E+00 0.  1.
         23    2    1    2    0    0  0.41886375883E+02 -0.19958290580E+01 -0.19972531808E+03  0.22781358349E+03  0.10124413229E+03 0.  0.
         24    2    1    2    0    0 -0.42686099425E+02 -0.23118442070E+02 -0.67556400340E+02  0.11696404956E+03  0.82220169143E+02 0.  0.
        -11    1    4    4    0    0 -0.58809349695E+02 -0.17820350508E+01 -0.19528761785E+02  0.61992643090E+02  0.00000000000E+00 0.  1.
         12    1    4    4    0    0  0.16123250270E+02 -0.21336407019E+02 -0.48027638555E+02  0.54971406467E+02  0.00000000000E+00 0. -1.
        -11    1    3    3    0    0 -0.13632766763E+02 -0.38705758242E+02 -0.98043190487E+02  0.10628478373E+03  0.00000000000E+00 0.  1.
         11    1    3    3    0    0  0.55519142647E+02  0.36709929184E+02 -0.10168212759E+03  0.12152879977E+03  0.00000000000E+00 0. -1.
         -2    1    1    2    0  502  0.79972354202E+00  0.25114271128E+02  0.12254115567E+03  0.12509077106E+03  0.00000000000E+00 0.  1.
<scales pt_clust_5="13000.00000" pt_clust_6="13000.00000" pt_clust_7="13000.00000" pt_clust_8="13000.00000" pt_clust_9="25.12700"></scales>
<clustering>
<clus scale="   25.127">  1  9  2 -1</clus>
<clus scale="   82.220">  5  6 -1 -1</clus>
<clus scale="   92.680">  1  5  2 -1</clus>
<clus scale="  101.244">  7  8 -1 -1</clus>
<clus scale="   25.127">  1  5  2 -1</clus>
</clustering>
</event>
<event>
 9    2  0.4883225E-005  0.2134799E+03  0.7546771E-02  0.1138840E+00
         -3   -1    0    0    0  501 -0.00000000000E+00  0.00000000000E+00  0.44747360316E+03  0.44747360316E+03  0.00000000000E+00 0.  1.
         21   -1    0    0  501  502  0.00000000000E+00 -0.00000000000E+00 -0.66092194447E+02  0.66092194447E+02  0.00000000000E+00 0.  1.
         24    2    1    2    0    0  0.61413833050E+02  0.28775260288E+02  0.11083542070E+03  0.15315830238E+03  0.81075894139E+02 0.  0.
         23    2    1    2    0    0  0.43046941128E+02  0.28915217470E+02  0.19269036339E+03  0.21792331066E+03  0.87589178824E+02 0.  0.
        -13    1    3    3    0    0  0.79831931217E+02  0.32707978161E+02  0.96830986276E+02  0.12968881594E+03  0.00000000000E+00 0.  1.
         14    1    3    3    0    0 -0.18418098167E+02 -0.39327178732E+01  0.14004434423E+02  0.23469486433E+02  0.00000000000E+00 0. -1.
        -11    1    4    4    0    0  0.31408917292E+02 -0.21359148997E+02  0.13626171186E+03  0.14145666280E+03  0.00000000000E+00 0.  1.
         11    1    4    4    0    0  0.11638023835E+02  0.50274366467E+02  0.56428651524E+02  0.76466647863E+02  0.00000000000E+00 0. -1.
         -4    1    1    2    0  502 -0.10446077418E+03 -0.57690477757E+02  0.77855624628E+02  0.14248418457E+03  0.00000000000E+00 0.  1.
<scales pt_clust_5="13000.00000" pt_clust_6="13000.00000" pt_clust_7="13000.00000" pt_clust_8="13000.00000" pt_clust_9="119.33250"></scales>
<clustering>
<clus scale="   81.076">  5  6 -1 -1</clus>
<clus scale="   87.589">  7  8 -1 -1</clus>
<clus scale="   99.354">  5  7 -1 -1</clus>
<clus scale="  119.332">  2  9  1 -1</clus>
<clus scale="  119.332">  2  5  1 -1</clus>
</clustering>
</event>
<event>
 9    2  0.4883225E-005  0.1184490E+03  0.7546771E-02  0.1248889E+00
         21   -1    0    0  501  502  0.00000000000E+00  0.00000000000E+00  0.50947106300E+02  0.50947106300E+02  0.00000000000E+00 0. -1.
          2   -1    0    0  502    0 -0.00000000000E+00 -0.00000000000E+00 -0.84102536843E+03  0.84102536843E+03  0.00000000000E+00 0. -1.
         24    2    1    2    0    0 -0.72042067987E+02  0.48105633772E+02 -0.36653138991E+03  0.38539752279E+03  0.81742150845E+02 0.  0.
         23    2    1    2    0    0 -0.18814526405E+02 -0.73172283697E+02 -0.63924116264E+02  0.13480649673E+03  0.91533214824E+02 0.  0.
        -13    1    3    3    0    0 -0.86861116530E+02  0.29365615773E+02 -0.32275040571E+03  0.33552200724E+03  0.00000000000E+00 0.  1.
         14    1    3    3    0    0  0.14819048542E+02  0.18740017999E+02 -0.43780984192E+02  0.49875515547E+02  0.00000000000E+00 0. -1.
        -13    1    4    4    0    0  0.24959472936E+02 -0.54844526623E+02 -0.63232391664E+02  0.87345479249E+02  0.00000000000E+00 0.  1.
         13    1    4    4    0    0 -0.43773999341E+02 -0.18327757074E+02 -0.69172459970E+00  0.47461017484E+02  0.00000000000E+00 0. -1.
          1    1    1    2  501    0  0.90856594392E+02  0.25066649926E+02 -0.35962275596E+03  0.37176845521E+03  0.00000000000E+00 0. -1.
<scales pt_clust_5="13000.00000" pt_clust_6="13000.00000" pt_clust_7="13000.00000" pt_clust_8="13000.00000" pt_clust_9="94.25108"></scales>
<clustering>
<clus scale="   81.742">  5  6 -1 -1</clus>
<clus scale="   91.533">  7  8 -1 -1</clus>
<clus scale="   94.251">  1  9  2 -1</clus>
<clus scale="  111.057">  2  5  1 -1</clus>
<clus scale="   94.251">  1  5  2 -1</clus>
</clustering>
</event>
<event>
 9    2  0.4883225E-005  0.1191930E+03  0.7546771E-02  0.1261294E+00
          2   -1    0    0  502    0 -0.00000000000E+00  0.00000000000E+00  0.67887356321E+03  0.67887356321E+03  0.00000000000E+00 0. -1.
         21   -1    0    0  501  502  0.00000000000E+00 -0.00000000000E+00 -0.93149344542E+02  0.93149344542E+02  0.00000000000E+00 0.  1.
         24    2    1    2    0    0  0.31833584667E+02  0.17485852081E+02  0.55006727520E+03  0.55663258763E+03  0.77114837926E+02 0.  0.
         23    2    1    2    0    0  0.11742858401E+02  0.65772455833E+02 -0.57418463314E+01  0.11270287189E+03  0.90581774452E+02 0.  0.
        -11    1    3    3    0    0  0.19522578396E+02 -0.20417647709E+02  0.79298080164E+02  0.84179551691E+02  0.00000000000E+00 0.  1.
         12    1    3    3    0    0  0.12311006270E+02  0.37903499790E+02  0.47076919504E+03  0.47245303594E+03  0.00000000000E+00 0. -1.
        -11    1    4    4    0    0 -0.36326646805E+02  0.47289570880E+02  0.58377804737E+01  0.59916679339E+02  0.00000000000E+00 0. -1.
         11    1    4    4    0    0  0.48069505206E+02  0.18482884953E+02 -0.11579626805E+02  0.52786192550E+02  0.00000000000E+00 0.  1.
          1    1    1    2  501    0 -0.43576443068E+02 -0.83258307914E+02  0.41398789793E+02  0.10268744823E+03  0.00000000000E+00 0. -1.
<scales pt_clust_5="13000.00000" pt_clust_6="13000.00000" pt_clust_7="13000.00000" pt_clust_8="13000.00000" pt_clust_9="77.47207"></scales>
<clustering>
<clus scale="   77.115">  5  6 -1 -1</clus>
<clus scale="   85.240">  1  5  2 -1</clus>
<clus scale="   77.472">  2  9  1 -1</clus>
<clus scale="   90.582">  7  8 -1 -1</clus>
<clus scale="   77.472">  2  5  1 -1</clus>
</clustering>
</event>
<event>
 9    2  0.4883225E-005  0.9342656E+02  0.7546771E-02  0.1302566E+00
          2   -1    0    0  502    0 -0.00000000000E+00  0.00000000000E+00  0.58883371478E+03  0.58883371478E+03  0.00000000000E+00 0. -1.
         21   -1    0    0  501  502  0.00000000000E+00 -0.00000000000E+00 -0.12441005758E+03  0.12441005758E+03  0.00000000000E+00 0. -1.
         24    2    1    2    0    0  0.42562415870E+01  0.48019552931E+02  0.41422736745E+03  0.42580486695E+03  0.86031852934E+02 0.  0.
         23    2    1    2    0    0  0.51408410166E+02 -0.33214744195E+01  0.14426186256E+03  0.16935078718E+03  0.72210437619E+02 0.  0.
        -13    1    3    3    0    0 -0.84730270045E+01  0.40136432725E+02  0.69142525304E+02  0.80395361956E+02  0.00000000000E+00 0.  1.
         14    1    3    3    0    0  0.12729268591E+02  0.78831202059E+01  0.34508484215E+03  0.34540950500E+03  0.00000000000E+00 0. -1.
        -13    1    4    4    0    0  0.54201517279E+02  0.19480955461E+02  0.65092586858E+02  0.86915803884E+02  0.00000000000E+00 0. -1.
         13    1    4    4    0    0 -0.27931071132E+01 -0.22802429881E+02  0.79169275698E+02  0.82434983292E+02  0.00000000000E+00 0.  1.
          1    1    1    2  501    0 -0.55664651753E+02 -0.44698078512E+02 -0.94065572807E+02  0.11808811822E+03  0.00000000000E+00 0. -1.
<scales pt_clust_5="13000.00000" pt_clust_6="13000.00000" pt_clust_7="13000.00000" pt_clust_8="13000.00000" pt_clust_9="71.38958"></scales>
<clustering>
<clus scale="   71.390">  2  9  1 -1</clus>
<clus scale="   72.210">  7  8 -1 -1</clus>
<clus scale="   80.879">  2  7  1 -1</clus>
<clus scale="   86.032">  5  6 -1 -1</clus>
<clus scale="   71.390">  2  5  1 -1</clus>
</clustering>
</event>
<event>
 9    2  0.4883225E-005  0.2689882E+03  0.7546771E-02  0.1102221E+00
          2   -1    0    0  502    0 -0.00000000000E+00  0.00000000000E+00  0.11400332288E+04  0.11400332288E+04  0.00000000000E+00 0. -1.
         21   -1    0    0  501  502  0.00000000000E+00 -0.00000000000E+00 -0.22238458047E+03  0.22238458047E+03  0.00000000000E+00 0. -1.
         24    2    1    2    0    0 -0.21052817786E+03 -0.11189528588E+03  0.54779917445E+03  0.60287117148E+03  0.80790130534E+02 0.  0.
         23    2    1    2    0    0  0.36847412388E+03  0.47570270231E+02  0.34752424002E+02  0.38354841660E+03  0.88687915309E+02 0.  0.
        -11    1    3    3    0    0 -0.12409732009E+03 -0.10691806730E+03  0.38721293818E+03  0.42043486709E+03  0.00000000000E+00 0.  1.
         12    1    3    3    0    0 -0.86430857762E+02 -0.49772185810E+01  0.16058623628E+03  0.18243630439E+03  0.00000000000E+00 0. -1.
        -11    1    4    4    0    0  0.30846699099E+03  0.72140080543E+02  0.34890983938E+02  0.31870590912E+03  0.00000000000E+00 0. -1.
         11    1    4    4    0    0  0.60007132888E+02 -0.24569810312E+02 -0.13855993674E+00  0.64842507470E+02  0.00000000000E+00 0.  1.
          1    1    1    2  501    0 -0.15794594602E+03  0.64325015653E+02  0.33509704990E+03  0.37599822121E+03  0.00000000000E+00 0. -1.
<scales pt_clust_5="13000.00000" pt_clust_6="13000.00000" pt_clust_7="13000.00000" pt_clust_8="13000.00000" pt_clust_9="170.54225"></scales>
<clustering>
<clus scale="   80.790">  5  6 -1 -1</clus>
<clus scale="   88.688">  7  8 -1 -1</clus>
<clus scale="  170.542">  2  9  1 -1</clus>
<clus scale="  266.489">  1  5  2 -1</clus>
<clus scale="  170.542">  2  5  1 -1</clus>
</clustering>
</event>
<event>
 9    2  0.4883225E-005  0.1507998E+03  0.7546771E-02  0.1217210E+00
          2   -1    0    0  502    0 -0.00000000000E+00  0.00000000000E+00  0.34484480123E+03  0.34484480123E+03  0.00000000000E+00 0. -1.
         21   -1    0    0  501  502  0.00000000000E+00 -0.00000000000E+00 -0.13125941174E+03  0.13125941174E+03  0.00000000000E+00 0.  1.
         24    2    1    2    0    0 -0.40310282595E+02  0.56850168083E+02  0.89172610467E+02  0.13638100827E+03  0.76099700826E+02 0.  0.
         23    2    1    2    0    0  0.48319739224E+02  0.98608376502E+02  0.16984842210E+01  0.14150537344E+03  0.89232711209E+02 0.  0.
        -13    1    3    3    0    0 -0.83411247815E+01  0.65010274926E+02  0.38806060642E+02  0.76169682625E+02  0.00000000000E+00 0.  1.
         14    1    3    3    0    0 -0.31969157813E+02 -0.81601068429E+01  0.50366549825E+02  0.60211325647E+02  0.00000000000E+00 0. -1.
        -11    1    4    4    0    0 -0.22709392860E+02  0.50408451882E+02  0.56474528194E+01  0.55575374660E+02  0.00000000000E+00 0.  1.
         11    1    4    4    0    0  0.71029132084E+02  0.48199924620E+02 -0.39489685984E+01  0.85929998784E+02  0.00000000000E+00 0. -1.
          1    1    1    2  501    0 -0.80094566291E+01 -0.15545854459E+03  0.12271429480E+03  0.19821783126E+03  0.00000000000E+00 0. -1.
<scales pt_clust_5="13000.00000" pt_clust_6="13000.00000" pt_clust_7="13000.00000" pt_clust_8="13000.00000" pt_clust_9="121.56529"></scales>
<clustering>
<clus scale="   76.100">  5  6 -1 -1</clus>
<clus scale="   89.233">  7  8 -1 -1</clus>
<clus scale="  103.189">  1  5  2 -1</clus>
<clus scale="  121.565">  2  9  1 -1</clus>
<clus scale="  121.565">  2  5  1 -1</clus>
</clustering>
</event>
<event>
 9    2  0.4883225E-005  0.1535506E+03  0.7546771E-02  0.1212924E+00
         21   -1    0    0  501  502  0.00000000000E+00  0.00000000000E+00  0.16143158442E+03  0.16143158442E+03  0.00000000000E+00 0. -1.
         -3   -1    0    0    0  501 -0.00000000000E+00 -0.00000000000E+00 -0.31823873539E+03  0.31823873539E+03  0.00000000000E+00 0.  1.
         24    2    1    2    0    0 -0.87259640925E+01  0.69783478890E+02  0.39578769463E+02  0.11411123503E+03  0.80678489033E+02 0.  0.
         23    2    1    2    0    0  0.10482487770E+03  0.37729707680E+02 -0.40343921961E+02  0.15308981224E+03  0.96938499814E+02 0.  0.
        -11    1    3    3    0    0  0.33966432476E+02  0.48380769168E+02  0.18813394125E+02  0.62035160667E+02  0.00000000000E+00 0.  1.
         12    1    3    3    0    0 -0.42692396569E+02  0.21402709722E+02  0.20765375338E+02  0.52076074364E+02  0.00000000000E+00 0. -1.
        -13    1    4    4    0    0  0.10105848728E+03  0.90301364815E+01  0.23737958680E+01  0.10148889655E+03  0.00000000000E+00 0. -1.
         13    1    4    4    0    0  0.37663904224E+01  0.28699571199E+02 -0.42717717829E+02  0.51600915693E+02  0.00000000000E+00 0.  1.
         -4    1    1    2    0  502 -0.96098913607E+02 -0.10751318657E+03 -0.15604199847E+03  0.21246927253E+03  0.00000000000E+00 0.  1.
<scales pt_clust_5="13000.00000" pt_clust_6="13000.00000" pt_clust_7="13000.00000" pt_clust_8="13000.00000" pt_clust_9="119.08284"></scales>
<clustering>
<clus scale="   80.678">  5  6 -1 -1</clus>
<clus scale="   96.938">  7  8 -1 -1</clus>
<clus scale="  107.028">  2  5  1 -1</clus>
<clus scale="  119.083">  1  9  2 -1</clus>
<clus scale="  119.083">  1  5  2 -1</clus>
</clustering>
</event>
<event>
 9    2  0.4883225E-005  0.1772297E+03  0.7546771E-02  0.1173407E+00
          2   -1    0    0  502    0 -0.00000000000E+00  0.00000000000E+00  0.21220748915E+04  0.21220748915E+04  0.00000000000E+00 0. -1.
         21   -1    0    0  501  502  0.00000000000E+00 -0.00000000000E+00 -0.21149052098E+02  0.21149052098E+02  0.00000000000E+00 0.  1.
         24    2    1    2    0    0 -0.11729737412E+03  0.10238043610E+03  0.15381568336E+04  0.15480524256E+04  0.79369012196E+02 0.  0.
         23    2    1    2    0    0  0.84780678421E+02 -0.83687875210E+02  0.44735700159E+03  0.47381799288E+03  0.10091471458E+03 0.  0.
        -13    1    3    3    0    0 -0.23602173096E+02  0.62669268582E+00  0.81730618770E+02  0.85072612297E+02  0.00000000000E+00 0.  1.
         14    1    3    3    0    0 -0.93695201026E+02  0.10175374342E+03  0.14564262148E+04  0.14629798133E+04  0.00000000000E+00 0. -1.
        -11    1    4    4    0    0  0.42410383114E+02  0.15380488360E+02  0.91678067353E+02  0.10217665121E+03  0.00000000000E+00 0.  1.
         11    1    4    4    0    0  0.42370295307E+02 -0.99068363570E+02  0.35567893423E+03  0.37164134167E+03  0.00000000000E+00 0. -1.
          1    1    1    2  501    0  0.32516695701E+02 -0.18692560894E+02  0.11541200419E+03  0.12135352506E+03  0.00000000000E+00 0. -1.
<scales pt_clust_5="13000.00000" pt_clust_6="13000.00000" pt_clust_7="13000.00000" pt_clust_8="13000.00000" pt_clust_9="37.50663"></scales>
<clustering>
<clus scale="   37.507">  2  9  1 -1</clus>
<clus scale="   79.369">  5  6 -1 -1</clus>
<clus scale="  100.915">  7  8 -1 -1</clus>
<clus scale="  165.910">  1  5  2 -1</clus>
<clus scale="   37.507">  2  5  1 -1</clus>
</clustering>
</event>
<event>
 9    2  0.4883225E-005  0.2299335E+03  0.7546771E-02  0.1127490E+00
         21   -1    0    0  501  502  0.00000000000E+00  0.00000000000E+00  0.22469897928E+03  0.22469897928E+03  0.00000000000E+00 0.  1.
          2   -1    0    0  502    0 -0.00000000000E+00 -0.00000000000E+00 -0.56888476284E+03  0.56888476284E+03  0.00000000000E+00 0. -1.
         24    2    1    2    0    0  0.13747369321E+03 -0.17587541977E+03 -0.34530329497E+03  0.41904840118E+03  0.80845639392E+02 0.  0.
         23    2    1    2    0    0 -0.90798596987E+02  0.11756205004E+03  0.13508835547E+03  0.22114955034E+03  0.92698646200E+02 0.  0.
        -13    1    3    3    0    0  0.21885271463E+02 -0.19095762717E+02 -0.89969825360E+01  0.30406561060E+02  0.00000000000E+00 0.  1.
         14    1    3    3    0    0  0.11558842175E+03 -0.15677965706E+03 -0.33630631243E+03  0.38864184012E+03  0.00000000000E+00 0. -1.
        -13    1    4    4    0    0 -0.90729894999E+02  0.88346508401E+02  0.14286952182E+03  0.19091547779E+03  0.00000000000E+00 0.  1.
         13    1    4    4    0    0 -0.68701988198E-01  0.29215541639E+02 -0.77811663529E+01  0.30234072551E+02  0.00000000000E+00 0. -1.
          1    1    1    2  501    0 -0.46675096227E+02  0.58313369736E+02 -0.13397084407E+03  0.15338579060E+03  0.00000000000E+00 0. -1.
<scales pt_clust_5="13000.00000" pt_clust_6="13000.00000" pt_clust_7="13000.00000" pt_clust_8="13000.00000" pt_clust_9="74.69283"></scales>
<clustering>
<clus scale="   74.693">  1  9  2 -1</clus>
<clus scale="   80.846">  5  6 -1 -1</clus>
<clus scale="   92.699">  7  8 -1 -1</clus>
<clus scale="  225.416">  2  5  1 -1</clus>
<clus scale="   74.693">  1  5  2 -1</clus>
</clustering>
</event>
<event>
 9    2  0.4883225E-005  0.3352923E+03  0.7546771E-02  0.1113477E+00
          2   -1    0    0  502    0 -0.00000000000E+00  0.00000000000E+00  0.14629555959E+04  0.14629555959E+04  0.00000000000E+00 0. -1.
         21   -1    0    0  501  502  0.00000000000E+00 -0.00000000000E+00 -0.14112843377E+03  0.14112843377E+03  0.00000000000E+00 0. -1.
         24    2    1    2    0    0  0.58589466114E+02  0.30342096483E+02  0.61622388051E+03  0.62480239179E+03  0.79327104560E+02 0.  0.
         23    2    1    2    0    0  0.29793918075E+03 -0.41201704882E+02  0.25748695960E+03  0.40653488305E+03  0.92226573482E+02 0.  0.
        -13    1    3    3    0    0 -0.95704013242E+01  0.33020249539E+02  0.17617928175E+03  0.17950228070E+03  0.00000000000E+00 0.  1.
         14    1    3    3    0    0  0.68159867438E+02 -0.26781530562E+01  0.44004459877E+03  0.44530011109E+03  0.00000000000E+00 0. -1.
        -11    1    4    4    0    0  0.99840069778E+02  0.27454778855E+02  0.10348760228E+03  0.14639497342E+03  0.00000000000E+00 0.  1.
         11    1    4    4    0    0  0.19809911097E+03 -0.68656483738E+02  0.15399935732E+03  0.26013990963E+03  0.00000000000E+00 0. -1.
          1    1    1    2  501    0 -0.35652864686E+03  0.10859608399E+02  0.44811632205E+03  0.57274675487E+03  0.00000000000E+00 0. -1.
<scales pt_clust_5="13000.00000" pt_clust_6="13000.00000" pt_clust_7="13000.00000" pt_clust_8="13000.00000" pt_clust_9="322.35896"></scales>
<clustering>
<clus scale="   79.327">  5  6 -1 -1</clus>
<clus scale="   92.227">  7  8 -1 -1</clus>
<clus scale="  103.180">  1  5  2 -1</clus>
<clus scale="  322.359">  2  9  1 -1</clus>
<clus scale="  322.359">  2  5  1 -1</clus>
</clustering>
</event>
<event>
 9    2  0.4883225E-005  0.9444483E+02  0.7546771E-02  0.1296795E+00
         21   -1    0    0  501  502  0.00000000000E+00  0.00000000000E+00  0.12518391169E+03  0.12518391169E+03  0.00000000000E+00 0. -1.
          2   -1    0    0  502    0 -0.00000000000E+00 -0.00000000000E+00 -0.21660155002E+03  0.21660155002E+03  0.00000000000E+00 0. -1.
         23    2    1    2    0    0  0.33275477943E+02  0.35107221205E+02 -0.15368868908E+03  0.18353576835E+03  0.87894201736E+02 0.  0.
         24    2    1    2    0    0  0.63040604907E+01  0.18559472040E+01  0.64279280866E+01  0.80459783795E+02  0.79932927071E+02 0.  0.
        -11    1    4    4    0    0 -0.13613232687E+02  0.35390172817E+02  0.14560832860E+02  0.40617758306E+02  0.00000000000E+00 0.  1.
         12    1    4    4    0    0  0.19917293178E+02 -0.33534225613E+02 -0.81329047737E+01  0.39842025489E+02  0.00000000000E+00 0. -1.
        -11    1    3    3    0    0  0.13889091365E+01 -0.23766420027E+02 -0.82248936540E+02  0.85625109352E+02  0.00000000000E+00 0.  1.
         11    1    3    3    0    0  0.31886568806E+02  0.58873641233E+02 -0.71439752544E+02  0.97910658999E+02  0.00000000000E+00 0. -1.
          1    1    1    2  501    0 -0.39579538434E+02 -0.36963168409E+02  0.55843122667E+02  0.77789909569E+02  0.00000000000E+00 0. -1.
<scales pt_clust_5="13000.00000" pt_clust_6="13000.00000" pt_clust_7="13000.00000" pt_clust_8="13000.00000" pt_clust_9="54.15548"></scales>
<clustering>
<clus scale="   54.155">  1  9  2 -1</clus>
<clus scale="   79.933">  5  6 -1 -1</clus>
<clus scale="   87.084">  1  5  2 -1</clus>
<clus scale="   87.894">  7  8 -1 -1</clus>
<clus scale="   54.155">  1  5  2 -1</clus>
</clustering>
</event>
<event>
 9    2  0.4883225E-005  0.1017984E+03  0.7546771E-02  0.1283173E+00
          2   -1    0    0  502    0 -0.00000000000E+00  0.00000000000E+00  0.40842861676E+03  0.40842861676E+03  0.00000000000E+00 0. -1.
         21   -1    0    0  501  502  0.00000000000E+00 -0.00000000000E+00 -0.64184550227E+02  0.64184550227E+02  0.00000000000E+00 0.  1.
         24    2    1    2    0    0  0.35380640371E+02 -0.23599925898E+02  0.34110718924E+03  0.35300339318E+03  0.80302769747E+02 0.  0.
         23    2    1    2    0    0 -0.13748703339E+02  0.15372717924E+02 -0.22687714434E+01  0.95843228220E+02  0.93570453520E+02 0.  0.
        -11    1    3    3    0    0 -0.10326922171E+01 -0.34391998321E+02  0.58599074675E+02  0.67953863426E+02  0.00000000000E+00 0.  1.
         12    1    3    3    0    0  0.36413332588E+02  0.10792072423E+02  0.28250811457E+03  0.28504952975E+03  0.00000000000E+00 0. -1.
        -11    1    4    4    0    0  0.36618421956E+02  0.14486678406E+02 -0.17675797428E+02  0.43164875681E+02  0.00000000000E+00 0. -1.
         11    1    4    4    0    0 -0.50367125296E+02  0.88603951728E+00  0.15407025985E+02  0.52678352540E+02  0.00000000000E+00 0.  1.
          1    1    1    2  501    0 -0.21631937032E+02  0.82272079745E+01  0.54056487333E+01  0.23766545585E+02  0.00000000000E+00 0. -1.
<scales pt_clust_5="13000.00000" pt_clust_6="13000.00000" pt_clust_7="13000.00000" pt_clust_8="13000.00000" pt_clust_9="23.14363"></scales>
<clustering>
<clus scale="   23.144">  2  9  1 -1</clus>
<clus scale="   80.303">  5  6 -1 -1</clus>
<clus scale="   89.755">  1  5  2 -1</clus>
<clus scale="   93.570">  7  8 -1 -1</clus>
<clus scale="   23.144">  2  5  1 -1</clus>
</clustering>
</event>
<event>
 9    2  0.4883225E-005  0.1588384E+03  0.7546771E-02  0.1192315E+00
         21   -1    0    0  501  502  0.00000000000E+00  0.00000000000E+00  0.54402694332E+03  0.54402694332E+03  0.00000000000E+00 0. -1.
          2   -1    0    0  502    0 -0.00000000000E+00 -0.00000000000E+00 -0.11774430648E+03  0.11774430648E+03  0.00000000000E+00 0. -1.
         23    2    1    2    0    0  0.16890873593E+02  0.12029254600E+03  0.27533500036E+02  0.15603846230E+03  0.93991009468E+02 0.  0.
         24    2    1    2    0    0 -0.79546515985E+02 -0.14589422587E+03  0.39731627793E+03  0.43803324081E+03  0.80000762513E+02 0.  0.
        -11    1    4    4    0    0 -0.63564647378E+02 -0.67823404205E+02  0.28885996271E+03  0.30344778235E+03  0.00000000000E+00 0.  1.
         12    1    4    4    0    0 -0.15981868607E+02 -0.78070821666E+02  0.10845631521E+03  0.13458545846E+03  0.00000000000E+00 0. -1.
        -11    1    3    3    0    0 -0.78250612822E+01  0.79357871914E+02  0.58649499706E+02  0.98988217655E+02  0.00000000000E+00 0. -1.
         11    1    3    3    0    0  0.24715934875E+02  0.40934674084E+02 -0.31115999670E+02  0.57050244650E+02  0.00000000000E+00 0.  1.
          1    1    1    2  501    0  0.62655642391E+02  0.25601679873E+02  0.14328588775E+01  0.67699546678E+02  0.00000000000E+00 0. -1.
<scales pt_clust_5="13000.00000" pt_clust_6="13000.00000" pt_clust_7="13000.00000" pt_clust_8="13000.00000" pt_clust_9="67.68442"></scales>
<clustering>
<clus scale="   67.684">  1  9  2 -1</clus>
<clus scale="   80.001">  5  6 -1 -1</clus>
<clus scale="   93.991">  7  8 -1 -1</clus>
<clus scale="  150.982">  1  5  2 -1</clus>
<clus scale="   67.684">  1  5  2 -1</clus>
</clustering>
</event>
<event>
 9    2  0.4883225E-005  0.9611013E+02  0.7546771E-02  0.1294758E+00
         21   -1    0    0  501  502  0.00000000000E+00  0.00000000000E+00  0.25186622178E+02  0.25186622178E+02  0.00000000000E+00 0.  1.
          2   -1    0    0  502    0 -0.00000000000E+00 -0.00000000000E+00 -0.95030448983E+03  0.95030448983E+03  0.00000000000E+00 0. -1.
         24    2    1    2    0    0  0.20048891768E+02  0.32560268331E+02 -0.68127761432E+03  0.68706775891E+03  0.80379029796E+02 0.  0.
         23    2    1    2    0    0 -0.68148094740E+01 -0.28935915526E+01 -0.23852921651E+03  0.25550740320E+03  0.91285439474E+02 0.  0.
        -11    1    3    3    0    0 -0.23091198466E+02  0.26900748864E+02 -0.15537075444E+03  0.15936412730E+03  0.00000000000E+00 0.  1.
         12    1    3    3    0    0  0.43140090234E+02  0.56595194670E+01 -0.52590685988E+03  0.52770363161E+03  0.00000000000E+00 0. -1.
        -13    1    4    4    0    0  0.28313596005E+02  0.39154080254E+01 -0.22073688812E+02  0.36114233710E+02  0.00000000000E+00 0.  1.
         13    1    4    4    0    0 -0.35128405479E+02 -0.68089995781E+01 -0.21645552770E+03  0.21939316949E+03  0.00000000000E+00 0. -1.
          1    1    1    2  501    0 -0.13234082294E+02 -0.29666676778E+02 -0.53110368183E+01  0.32915949892E+02  0.00000000000E+00 0. -1.
<scales pt_clust_5="13000.00000" pt_clust_6="13000.00000" pt_clust_7="13000.00000" pt_clust_8="13000.00000" pt_clust_9="32.48465"></scales>
<clustering>
<clus scale="   32.485">  1  9  2 -1</clus>
<clus scale="   80.379">  5  6 -1 -1</clus>
<clus scale="   85.819">  2  5  1 -1</clus>
<clus scale="   91.285">  7  8 -1 -1</clus>
<clus scale="   32.485">  1  5  2 -1</clus>
</clustering>
</event>
<event>
 9    2  0.4883225E-005  0.1236473E+03  0.7546771E-02  0.1240480E+00
         21   -1    0    0  501  502  0.00000000000E+00  0.00000000000E+00  0.28132836307E+03  0.28132836307E+03  0.00000000000E+00 0. -1.
          2   -1    0    0  502    0 -0.00000000000E+00 -0.00000000000E+00 -0.31338085404E+03  0.31338085404E+03  0.00000000000E+00 0. -1.
         23    2    1    2    0    0 -0.66048024473E+02 -0.51709456860E+02 -0.20140623640E+03  0.23740920014E+03  0.93607941890E+02 0.  0.
         24    2    1    2    0    0 -0.21255324542E+01  0.10182977012E+03 -0.35245460596E+02  0.13589424747E+03  0.82771879471E+02 0.  0.
        -11    1    4    4    0    0 -0.31687798514E+02  0.11013400575E+02 -0.20339042884E+02  0.39231215025E+02  0.00000000000E+00 0.  1.
         12    1    4    4    0    0  0.29562266059E+02  0.90816369547E+02 -0.14906417711E+02  0.96663032444E+02  0.00000000000E+00 0. -1.
        -11    1    3    3    0    0 -0.42422570550E+02 -0.76895874178E+02 -0.11765110308E+03  0.14681427728E+03  0.00000000000E+00 0.  1.
         11    1    3    3    0    0 -0.23625453923E+02  0.25186417318E+02 -0.83755133322E+02  0.90594922860E+02  0.00000000000E+00 0. -1.
          1    1    1    2  501    0  0.68173556928E+02 -0.50120313262E+02  0.20459920603E+03  0.22140576951E+03  0.00000000000E+00 0. -1.
<scales pt_clust_5="13000.00000" pt_clust_6="13000.00000" pt_clust_7="13000.00000" pt_clust_8="13000.00000" pt_clust_9="84.61489"></scales>
<clustering>
<clus scale="   82.772">  5  6 -1 -1</clus>
<clus scale="   84.615">  1  9  2 -1</clus>
<clus scale="   93.608">  7  8 -1 -1</clus>
<clus scale="  115.661">  1  5  2 -1</clus>
<clus scale="   84.615">  1  5  2 -1</clus>
</clustering>
</event>
<event>
 9    2  0.4883225E-005  0.2992884E+03  0.7546771E-02  0.1085932E+00
          2   -1    0    0  502    0 -0.00000000000E+00  0.00000000000E+00  0.20566824068E+03  0.20566824068E+03  0.00000000000E+00 0. -1.
         21   -1    0    0  501  502  0.00000000000E+00 -0.00000000000E+00 -0.10467784956E+04  0.10467784956E+04  0.00000000000E+00 0.  1.
         24    2    1    2    0    0  0.14797520775E+03 -0.16801319731E+03 -0.16875803825E+03  0.29169710624E+03  0.80516021618E+02 0.  0.
         23    2    1    2    0    0 -0.23391681375E+03  0.37902150996E+03 -0.49587498465E+03  0.67255753945E+03  0.89817941980E+02 0.  0.
        -11    1    3    3    0    0  0.82582174606E+02 -0.11854989428E+03 -0.14860940220E+03  0.20726467962E+03  0.00000000000E+00 0.  1.
         12    1    3    3    0    0  0.65393033147E+02 -0.49463303031E+02 -0.20148636052E+02  0.84432426624E+02  0.00000000000E+00 0. -1.
        -13    1    4    4    0    0 -0.23247880499E+03  0.32718421934E+03 -0.45335428899E+03  0.60549650659E+03  0.00000000000E+00 0.  1.
         13    1    4    4    0    0 -0.14380087632E+01  0.51837290626E+02 -0.42520695666E+02  0.67061032862E+02  0.00000000000E+00 0. -1.
          1    1    1    2  501    0  0.85941605996E+02 -0.21100831265E+03 -0.17647723197E+03  0.28819209055E+03  0.00000000000E+00 0. -1.
<scales pt_clust_5="13000.00000" pt_clust_6="13000.00000" pt_clust_7="13000.00000" pt_clust_8="13000.00000" pt_clust_9="227.83880"></scales>
<clustering>
<clus scale="   80.516">  5  6 -1 -1</clus>
<clus scale="   89.818">  7  8 -1 -1</clus>
<clus scale="  227.839">  2  9  1 -1</clus>
<clus scale="  296.630">  1  5  2 -1</clus>
<clus scale="  227.839">  2  5  1 -1</clus>
</clustering>
</event>
<event>
 9    2  0.4883225E-005  0.9711751E+02  0.7546771E-02  0.1292531E+00
         21   -1    0    0  501  502  0.00000000000E+00  0.00000000000E+00  0.20315385435E+03  0.20315385435E+03  0.00000000000E+00 0. -1.
          2   -1    0    0  502    0 -0.00000000000E+00 -0.00000000000E+00 -0.25924457975E+03  0.25924457975E+03  0.00000000000E+00 0. -1.
         24    2    1    2    0    0  0.33642478566E+02  0.15170499343E+02 -0.18605670918E+03  0.20610184778E+03  0.80615831031E+02 0.  0.
         23    2    1    2    0    0 -0.76923009618E+01 -0.16582981556E+02 -0.26875648194E+02  0.97316385214E+02  0.91727921561E+02 0.  0.
        -11    1    3    3    0    0 -0.76152592498E+01  0.33652024310E+02 -0.38139057391E+02  0.51429938871E+02  0.00000000000E+00 0.  1.
         12    1    3    3    0    0  0.41257737816E+02 -0.18481524966E+02 -0.14791765179E+03  0.15467190891E+03  0.00000000000E+00 0. -1.
        -11    1    4    4    0    0 -0.44669683256E+02 -0.18842742276E+02  0.46069778958E+01  0.48699628171E+02  0.00000000000E+00 0.  1.
         11    1    4    4    0    0  0.36977382294E+02  0.22597607204E+01 -0.31482626090E+02  0.48616757042E+02  0.00000000000E+00 0. -1.
          1    1    1    2  501    0 -0.25950177604E+02  0.14124822126E+01  0.15684163197E+03  0.15898020111E+03  0.00000000000E+00 0. -1.
<scales pt_clust_5="13000.00000" pt_clust_6="13000.00000" pt_clust_7="13000.00000" pt_clust_8="13000.00000" pt_clust_9="25.98859"></scales>
<clustering>
<clus scale="   25.989">  1  9  2 -1</clus>
<clus scale="   80.616">  5  6 -1 -1</clus>
<clus scale="   86.699">  2  5  1 -1</clus>
<clus scale="   91.728">  7  8 -1 -1</clus>
<clus scale="   25.989">  1  5  2 -1</clus>
</clustering>
</event>
<event>
 9    2  0.4883225E-005  0.1022408E+03  0.7546771E-02  0.1279880E+00
          2   -1    0    0  502    0 -0.00000000000E+00  0.00000000000E+00  0.52596178042E+03  0.52596178042E+03  0.00000000000E+00 0. -1.
         21   -1    0    0  501  502  0.00000000000E+00 -0.00000000000E+00 -0.30005699720E+02  0.30005699720E+02  0.00000000000E+00 0. -1.
         23    2    1    2    0    0 -0.87114666222E+01 -0.56208054834E+02  0.30177640104E+03  0.32021861799E+03  0.90750933900E+02 0.  0.
         24    2    1    2    0    0  0.11432038174E+02  0.25561044214E+02  0.80836484219E+02  0.11830389324E+03  0.81714230688E+02 0.  0.
        -13    1    4    4    0    0 -0.21792964514E+02  0.36470667307E+02  0.69654838222E+02  0.81589456205E+02  0.00000000000E+00 0.  1.
         14    1    4    4    0    0  0.33225002688E+02 -0.10909623093E+02  0.11181645997E+02  0.36714437036E+02  0.00000000000E+00 0. -1.
        -11    1    3    3    0    0 -0.23263782828E+02 -0.77521947043E+02  0.21709381163E+03  0.23169069665E+03  0.00000000000E+00 0. -1.
         11    1    3    3    0    0  0.14552316206E+02  0.21313892209E+02  0.84682589414E+02  0.88527921347E+02  0.00000000000E+00 0.  1.
          1    1    1    2  501    0 -0.27205715517E+01  0.30647010619E+02  0.11334319544E+03  0.11744496891E+03  0.00000000000E+00 0. -1.
<scales pt_clust_5="13000.00000" pt_clust_6="13000.00000" pt_clust_7="13000.00000" pt_clust_8="13000.00000" pt_clust_9="30.76754"></scales>
<clustering>
<clus scale="   30.768">  2  9  1 -1</clus>
<clus scale="   81.714">  5  6 -1 -1</clus>
<clus scale="   90.751">  7  8 -1 -1</clus>
<clus scale="   94.311">  2  5  1 -1</clus>
<clus scale="   30.768">  2  5  1 -1</clus>
</clustering>
</event>
<event>
 9    2  0.4883225E-005  0.1639961E+03  0.7546771E-02  0.1200448E+00
         21   -1    0    0  501  502  0.00000000000E+00  0.00000000000E+00  0.21974754260E+03  0.21974754260E+03  0.00000000000E+00 0. -1.
         -3   -1    0    0    0  501 -0.00000000000E+00 -0.00000000000E+00 -0.21052411287E+03  0.21052411287E+03  0.00000000000E+00 0.  1.
         24    2    1    2    0    0 -0.72618486051E+02  0.38764114916E+02 -0.16922354478E+02  0.11608073979E+03  0.80076656690E+02 0.  0.
         23    2    1    2    0    0  0.15369766384E+03  0.57533757394E+02  0.23678290245E+02  0.18828141720E+03  0.89197116118E+02 0.  0.
        -11    1    3    3    0    0 -0.82203747541E+02  0.52861572911E+02 -0.13069398551E+02  0.98603302069E+02  0.00000000000E+00 0.  1.
         12    1    3    3    0    0  0.95852614905E+01 -0.14097457995E+02 -0.38529559268E+01  0.17477437717E+02  0.00000000000E+00 0. -1.
        -13    1    4    4    0    0  0.45167493127E+02 -0.22399363517E+02 -0.43676361460E+01  0.50605436139E+02  0.00000000000E+00 0.  1.
         13    1    4    4    0    0  0.10853017072E+03  0.79933120911E+02  0.28045926391E+02  0.13767598106E+03  0.00000000000E+00 0. -1.
         -4    1    1    2    0  502 -0.81079177794E+02 -0.96297872309E+02  0.24674939588E+01  0.12590949849E+03  0.00000000000E+00 0.  1.
<scales pt_clust_5="13000.00000" pt_clust_6="13000.00000" pt_clust_7="13000.00000" pt_clust_8="13000.00000" pt_clust_9="137.61756"></scales>
<clustering>
<clus scale="   80.077">  5  6 -1 -1</clus>
<clus scale="   89.197">  7  8 -1 -1</clus>
<clus scale="  114.841">  2  5  1 -1</clus>
<clus scale="  137.618">  1  9  2 -1</clus>
<clus scale="  137.618">  1  5  2 -1</clus>
</clustering>
</event>
<event>
 9    2  0.4883225E-005  0.1173801E+03  0.7546771E-02  0.1248800E+00
         21   -1    0    0  501  502  0.00000000000E+00  0.00000000000E+00  0.46366192658E+03  0.46366192658E+03  0.00000000000E+00 0. -1.
          2   -1    0    0  502    0 -0.00000000000E+00 -0.00000000000E+00 -0.52868801314E+02  0.52868801314E+02  0.00000000000E+00 0. -1.
         23    2    1    2    0    0 -0.24692272689E+02  0.10271494814E+03  0.14562395755E+03  0.20147049621E+03  0.90686023878E+02 0.  0.
         24    2    1    2    0    0 -0.14047262685E+02 -0.43666981415E+02  0.17398454855E+03  0.19972572364E+03  0.86692621908E+02 0.  0.
        -13    1    4    4    0    0  0.29146679625E+02  0.53668483715E+01  0.33128570029E+02  0.44450355980E+02  0.00000000000E+00 0.  1.
         14    1    4    4    0    0 -0.43193942310E+02 -0.49033829786E+02  0.14085597853E+03  0.15527536766E+03  0.00000000000E+00 0. -1.
        -11    1    3    3    0    0 -0.38880380963E+02  0.35520890164E+01  0.42007756471E+02  0.57349393753E+02  0.00000000000E+00 0.  1.
         11    1    3    3    0    0  0.14188108273E+02  0.99162859122E+02  0.10361620108E+03  0.14412110245E+03  0.00000000000E+00 0. -1.
          1    1    1    2  501    0  0.38739535374E+02 -0.59047966724E+02  0.91184619155E+02  0.11533450804E+03  0.00000000000E+00 0. -1.
<scales pt_clust_5="13000.00000" pt_clust_6="13000.00000" pt_clust_7="13000.00000" pt_clust_8="13000.00000" pt_clust_9="70.62166"></scales>
<clustering>
<clus scale="   70.622">  1  9  2 -1</clus>
<clus scale="   86.693">  5  6 -1 -1</clus>
<clus scale="   90.686">  7  8 -1 -1</clus>
<clus scale="  114.323">  1  5  2 -1</clus>
<clus scale="   70.622">  1  5  2 -1</clus>
</clustering>
</event>
<event>
 9    2  0.4883225E-005  0.1149534E+03  0.7546771E-02  0.1266069E+00
         21   -1    0    0  501  502  0.00000000000E+00  0.00000000000E+00  0.76331617604E+02  0.76331617604E+02  0.00000000000E+00 0.  1.
         -1   -1    0    0    0  501 -0.00000000000E+00 -0.00000000000E+00 -0.30704722975E+03  0.30704722975E+03  0.00000000000E+00 0.  1.
         23    2    1    2    0    0 -0.48127419214E+02  0.10687235821E+02 -0.21108256721E+03  0.24306158433E+03  0.10996644082E+03 0.  0.
         24    2    1    2    0    0 -0.32569530632E+01 -0.21563450330E+02 -0.27532697185E+02  0.87203702964E+02  0.79817581164E+02 0.  0.
        -11    1    4    4    0    0 -0.29918268394E+02 -0.39597217223E+02 -0.10275094634E+02  0.50681554487E+02  0.00000000000E+00 0.  1.
         12    1    4    4    0    0  0.26661315331E+02  0.18033766893E+02 -0.17257602551E+02  0.36522148476E+02  0.00000000000E+00 0. -1.
        -13    1    3    3    0    0 -0.84021487208E+01  0.53054246528E+02 -0.56642928760E+02  0.78062606646E+02  0.00000000000E+00 0.  1.
         13    1    3    3    0    0 -0.39725270494E+02 -0.42367010707E+02 -0.15443963845E+03  0.16499897769E+03  0.00000000000E+00 0. -1.
         -2    1    1    2    0  502  0.51384372278E+02  0.10876214509E+02  0.78996522510E+01  0.53113560059E+02  0.00000000000E+00 0.  1.
<scales pt_clust_5="13000.00000" pt_clust_6="13000.00000" pt_clust_7="13000.00000" pt_clust_8="13000.00000" pt_clust_9="52.52281"></scales>
<clustering>
<clus scale="   52.523">  1  9  2 -1</clus>
<clus scale="   79.818">  5  6 -1 -1</clus>
<clus scale="   86.559">  1  5  2 -1</clus>
<clus scale="  109.966">  7  8 -1 -1</clus>
<clus scale="   52.523">  1  5  2 -1</clus>
</clustering>
</event>
<event>
 9    2  0.4883225E-005  0.1109518E+03  0.7546771E-02  0.1271779E+00
         21   -1    0    0  501  502  0.00000000000E+00  0.00000000000E+00  0.14828926982E+02  0.14828926982E+02  0.00000000000E+00 0. -1.
          2   -1    0    0  502    0 -0.00000000000E+00 -0.00000000000E+00 -0.11741422293E+04  0.11741422293E+04  0.00000000000E+00 0. -1.
         24    2    1    2    0    0 -0.13542492153E+02 -0.23158507976E+02 -0.66969489321E+03  0.67495031276E+03  0.79667804803E+02 0.  0.
         23    2    1    2    0    0  0.70634812567E+01  0.53069451295E+02 -0.43988683826E+03  0.45562674064E+03  0.10596715001E+03 0.  0.
        -13    1    3    3    0    0 -0.25397169786E+02  0.17077760115E+02 -0.12695407529E+03  0.13059097731E+03  0.00000000000E+00 0.  1.
         14    1    3    3    0    0  0.11854677633E+02 -0.40236268091E+02 -0.54274081792E+03  0.54435933545E+03  0.00000000000E+00 0. -1.
        -11    1    4    4    0    0 -0.16936181784E+02 -0.28292978339E+02 -0.15009976392E+03  0.15367910075E+03  0.00000000000E+00 0. -1.
         11    1    4    4    0    0  0.23999663041E+02  0.81362429634E+02 -0.28978707434E+03  0.30194763989E+03  0.00000000000E+00 0.  1.
          1    1    1    2  501    0  0.64790108959E+01 -0.29910943319E+02 -0.49731570856E+02  0.58394102889E+02  0.00000000000E+00 0. -1.
<scales pt_clust_5="13000.00000" pt_clust_6="13000.00000" pt_clust_7="13000.00000" pt_clust_8="13000.00000" pt_clust_9="30.60461"></scales>
<clustering>
<clus scale="   30.605">  1  9  2 -1</clus>
<clus scale="   79.668">  5  6 -1 -1</clus>
<clus scale="   86.187">  2  5  1 -1</clus>
<clus scale="  105.967">  7  8 -1 -1</clus>
<clus scale="   30.605">  1  5  2 -1</clus>
</clustering>
</event>
<event>
 9    2  0.4883225E-005  0.1417576E+03  0.7546771E-02  0.1213301E+00
          2   -1    0    0  502    0 -0.00000000000E+00  0.00000000000E+00  0.17514262826E+04  0.17514262826E+04  0.00000000000E+00 0. -1.
         21   -1    0    0  501  502  0.00000000000E+00 -0.00000000000E+00 -0.19327893245E+02  0.19327893245E+02  0.00000000000E+00 0.  1.
         23    2    1    2    0    0 -0.23734447771E+02 -0.12469605446E+03  0.73124634344E+03  0.74779638059E+03  0.91464649006E+02 0.  0.
         24    2    1    2    0    0 -0.39354806773E+02  0.90610453979E+02  0.45823468548E+03  0.47562272234E+03  0.80491563797E+02 0.  0.
        -13    1    4    4    0    0 -0.11435173164E+02  0.61358453170E+02  0.12272148305E+03  0.13768146340E+03  0.00000000000E+00 0.  1.
         14    1    4    4    0    0 -0.27919633610E+02  0.29252000809E+02  0.33551320243E+03  0.33794125894E+03  0.00000000000E+00 0. -1.
        -11    1    3    3    0    0 -0.57170560167E+02 -0.60615142016E+02  0.35239884743E+03  0.36211547338E+03  0.00000000000E+00 0.  1.
         11    1    3    3    0    0  0.33436112396E+02 -0.64080912443E+02  0.37884749601E+03  0.38568090721E+03  0.00000000000E+00 0. -1.
          1    1    1    2  501    0  0.63089254544E+02  0.34085600479E+02  0.54261736044E+03  0.54733507292E+03  0.00000000000E+00 0. -1.
<scales pt_clust_5="13000.00000" pt_clust_6="13000.00000" pt_clust_7="13000.00000" pt_clust_8="13000.00000" pt_clust_9="71.70835"></scales>
<clustering>
<clus scale="   71.708">  2  9  1 -1</clus>
<clus scale="   80.492">  5  6 -1 -1</clus>
<clus scale="   91.465">  7  8 -1 -1</clus>
<clus scale="  134.938">  2  5  1 -1</clus>
<clus scale="   71.708">  2  5  1 -1</clus>
</clustering>
</event>
<event>
 9    2  0.4883225E-005  0.1002019E+03  0.7546771E-02  0.1284554E+00
          2   -1    0    0  502    0 -0.00000000000E+00  0.00000000000E+00  0.26663116814E+03  0.26663116814E+03  0.00000000000E+00 0. -1.
         21   -1    0    0  501  502  0.00000000000E+00 -0.00000000000E+00 -0.74876613151E+02  0.74876613151E+02  0.00000000000E+00 0.  1.
         23    2    1    2    0    0  0.58983368251E+01  0.46448453966E+02  0.20932509716E+03  0.23267658621E+03  0.90161789131E+02 0.  0.
         24    2    1    2    0    0  0.79514273397E+01 -0.31282292675E+02 -0.12940617172E+02  0.87777344567E+02  0.80595258017E+02 0.  0.
        -13    1    4    4    0    0 -0.30132764865E+02 -0.10150064109E+02 -0.27309149781E+02  0.41914162064E+02  0.00000000000E+00 0.  1.
         14    1    4    4    0    0  0.38084192204E+02 -0.21132228565E+02  0.14368532609E+02  0.45863182503E+02  0.00000000000E+00 0. -1.
        -11    1    3    3    0    0  0.31371333452E+02  0.21613889842E+02  0.18662940383E+03  0.19047796505E+03  0.00000000000E+00 0. -1.
         11    1    3    3    0    0 -0.25472996627E+02  0.24834564125E+02  0.22695693329E+02  0.42198621163E+02  0.00000000000E+00 0.  1.
          1    1    1    2  501    0 -0.13849764165E+02 -0.15166161292E+02 -0.46299249981E+01  0.21053850509E+02  0.00000000000E+00 0. -1.
<scales pt_clust_5="13000.00000" pt_clust_6="13000.00000" pt_clust_7="13000.00000" pt_clust_8="13000.00000" pt_clust_9="20.53846"></scales>
<clustering>
<clus scale="   20.538">  2  9  1 -1</clus>
<clus scale="   80.595">  5  6 -1 -1</clus>
<clus scale="   90.162">  7  8 -1 -1</clus>
<clus scale="   91.689">  2  5  1 -1</clus>
<clus scale="   20.538">  2  5  1 -1</clus>
</clustering>
</event>
<event>
 9    2  0.4883225E-005  0.1119670E+03  0.7546771E-02  0.1260628E+00
         21   -1    0    0  501  502  0.00000000000E+00  0.00000000000E+00  0.39081134871E+02  0.39081134871E+02  0.00000000000E+00 0.  1.
         -3   -1    0    0    0  501 -0.00000000000E+00 -0.00000000000E+00 -0.59377951545E+03  0.59377951545E+03  0.00000000000E+00 0.  1.
         24    2    1    2    0    0 -0.34516782774E+02  0.83374213275E+02 -0.34532960248E+03  0.36580860750E+03  0.80129490438E+02 0.  0.
         23    2    1    2    0    0  0.34240313421E+02 -0.15429584686E+02 -0.13115812918E+03  0.16344965581E+03  0.90015909648E+02 0.  0.
        -13    1    3    3    0    0 -0.60592805981E+02  0.53252365184E+02 -0.24013847375E+03  0.25332546084E+03  0.00000000000E+00 0.  1.
         14    1    3    3    0    0  0.26076023206E+02  0.30121848091E+02 -0.10519112873E+03  0.11248314666E+03  0.00000000000E+00 0. -1.
        -11    1    4    4    0    0  0.63822289588E+02 -0.33648494310E+01 -0.72440516756E+02  0.96603495422E+02  0.00000000000E+00 0.  1.
         11    1    4    4    0    0 -0.29581976166E+02 -0.12064735255E+02 -0.58717612421E+02  0.66846160392E+02  0.00000000000E+00 0. -1.
         -4    1    1    2    0  502  0.27646935307E+00 -0.67944628589E+02 -0.78210648922E+02  0.10360238701E+03  0.00000000000E+00 0.  1.
<scales pt_clust_5="13000.00000" pt_clust_6="13000.00000" pt_clust_7="13000.00000" pt_clust_8="13000.00000" pt_clust_9="67.94519"></scales>
<clustering>
<clus scale="   67.945">  1  9  2 -1</clus>
<clus scale="   80.129">  5  6 -1 -1</clus>
<clus scale="   90.016">  7  8 -1 -1</clus>
<clus scale="  104.185">  2  5  1 -1</clus>
<clus scale="   67.945">  1  5  2 -1</clus>
</clustering>
</event>
<event>
 9    2  0.4883225E-005  0.1093822E+03  0.7546771E-02  0.1262292E+00
          2   -1    0    0  502    0 -0.00000000000E+00  0.00000000000E+00  0.13283955134E+03  0.13283955134E+03  0.00000000000E+00 0. -1.
         21   -1    0    0  501  502  0.00000000000E+00 -0.00000000000E+00 -0.13637691835E+03  0.13637691835E+03  0.00000000000E+00 0. -1.
         24    2    1    2    0    0  0.58748399449E+02  0.62816260956E+02  0.35091858919E+02  0.12373827871E+03  0.81746351464E+02 0.  0.
         23    2    1    2    0    0 -0.36417602504E+02 -0.28354803380E+02 -0.42302421818E+02  0.10425017965E+03  0.83356873851E+02 0.  0.
        -11    1    3    3    0    0  0.57294241030E+01  0.54679852620E+02 -0.71771133595E+01  0.55445680980E+02  0.00000000000E+00 0.  1.
         12    1    3    3    0    0  0.53018975346E+02  0.81364083353E+01  0.42268972279E+02  0.68292597731E+02  0.00000000000E+00 0. -1.
        -11    1    4    4    0    0 -0.52780178226E+02 -0.56806207148E+01  0.54310794263E+00  0.53087772901E+02  0.00000000000E+00 0.  1.
         11    1    4    4    0    0  0.16362575722E+02 -0.22674182665E+02 -0.42845529760E+02  0.51162406748E+02  0.00000000000E+00 0. -1.
          1    1    1    2  501    0 -0.22330796945E+02 -0.34461457576E+02  0.36731958841E+01  0.41228011333E+02  0.00000000000E+00 0. -1.
<scales pt_clust_5="13000.00000" pt_clust_6="13000.00000" pt_clust_7="13000.00000" pt_clust_8="13000.00000" pt_clust_9="41.06407"></scales>
<clustering>
<clus scale="   41.064">  2  9  1 -1</clus>
<clus scale="   81.746">  5  6 -1 -1</clus>
<clus scale="   83.357">  7  8 -1 -1</clus>
<clus scale="  108.160">  1  5  2 -1</clus>
<clus scale="   41.064">  2  5  1 -1</clus>
</clustering>
</event>
<event>
 9    2  0.4883225E-005  0.1331222E+03  0.7546771E-02  0.1242156E+00
          2   -1    0    0  502    0 -0.00000000000E+00  0.00000000000E+00  0.30672864425E+03  0.30672864425E+03  0.00000000000E+00 0. -1.
         21   -1    0    0  501  502  0.00000000000E+00 -0.00000000000E+00 -0.10205590138E+03  0.10205590138E+03  0.00000000000E+00 0. -1.
         24    2    1    2    0    0  0.23901368243E+02  0.28101114383E+02  0.91668585084E+02  0.12817435301E+03  0.81636923289E+02 0.  0.
         23    2    1    2    0    0 -0.22474019466E+02  0.74863915387E+02  0.12901608409E+03  0.17639783028E+03  0.91440457104E+02 0.  0.
        -11    1    3    3    0    0 -0.68873443247E+00 -0.28143334308E+02  0.26879448441E+02  0.38923339651E+02  0.00000000000E+00 0.  1.
         12    1    3    3    0    0  0.24590102676E+02  0.56244448691E+02  0.64789136642E+02  0.89251013356E+02  0.00000000000E+00 0. -1.
        -11    1    4    4    0    0 -0.18832075179E+02  0.25040234381E+02  0.12199033077E+03  0.12594959784E+03  0.00000000000E+00 0. -1.
         11    1    4    4    0    0 -0.36419442872E+01  0.49823681006E+02  0.70257533227E+01  0.50448232446E+02  0.00000000000E+00 0.  1.
          1    1    1    2  501    0 -0.14273487773E+01 -0.10296502977E+03 -0.16011926301E+02  0.10421236234E+03  0.00000000000E+00 0. -1.
<scales pt_clust_5="13000.00000" pt_clust_6="13000.00000" pt_clust_7="13000.00000" pt_clust_8="13000.00000" pt_clust_9="96.74797"></scales>
<clustering>
<clus scale="   81.637">  5  6 -1 -1</clus>
<clus scale="   89.585">  1  5  2 -1</clus>
<clus scale="   91.440">  7  8 -1 -1</clus>
<clus scale="   96.748">  2  9  1 -1</clus>
<clus scale="   96.748">  2  5  1 -1</clus>
</clustering>
</event>
<event>
 9    2  0.4883225E-005  0.1063751E+03  0.7546771E-02  0.1272288E+00
         21   -1    0    0  501  502  0.00000000000E+00  0.00000000000E+00  0.80946591106E+02  0.80946591106E+02  0.00000000000E+00 0.  1.
         -1   -1    0    0    0  501 -0.00000000000E+00 -0.00000000000E+00 -0.21666143963E+03  0.21666143963E+03  0.00000000000E+00 0.  1.
         23    2    1    2    0    0 -0.16897714987E+02  0.75020583083E+02 -0.94575572561E+02  0.15289216519E+03  0.92292223910E+02 0.  0.
         24    2    1    2    0    0 -0.33541625380E+01 -0.25992366850E+02 -0.19656871593E+02  0.87484770607E+02  0.81119288376E+02 0.  0.
        -11    1    4    4    0    0 -0.38335979143E+01  0.29366601566E+02 -0.35471674125E+01  0.29827439668E+02  0.00000000000E+00 0.  1.
         12    1    4    4    0    0  0.47943537627E+00 -0.55358968415E+02 -0.16109704180E+02  0.57657330940E+02  0.00000000000E+00 0. -1.
        -11    1    3    3    0    0  0.69493867869E+01  0.33877791777E+02 -0.99255788588E+02  0.10510808875E+03  0.00000000000E+00 0.  1.
         11    1    3    3    0    0 -0.23847101774E+02  0.41142791307E+02  0.46802160266E+01  0.47784076444E+02  0.00000000000E+00 0. -1.
         -2    1    1    2    0  502  0.20251877525E+02 -0.49028216234E+02 -0.21482404374E+02  0.57231094940E+02  0.00000000000E+00 0.  1.
<scales pt_clust_5="13000.00000" pt_clust_6="13000.00000" pt_clust_7="13000.00000" pt_clust_8="13000.00000" pt_clust_9="53.04625"></scales>
<clustering>
<clus scale="   53.046">  1  9  2 -1</clus>
<clus scale="   81.119">  5  6 -1 -1</clus>
<clus scale="   92.292">  7  8 -1 -1</clus>
<clus scale="   96.841">  1  5  2 -1</clus>
<clus scale="   53.046">  1  5  2 -1</clus>
</clustering>
</event>
<event>
 9    2  0.4883225E-005  0.1239329E+03  0.7546771E-02  0.1244204E+00
          4   -1    0    0  502    0 -0.00000000000E+00  0.00000000000E+00  0.71073192791E+02  0.71073192791E+02  0.00000000000E+00 0. -1.
         21   -1    0    0  501  502  0.00000000000E+00 -0.00000000000E+00 -0.46556344955E+03  0.46556344955E+03  0.00000000000E+00 0.  1.
         24    2    1    2    0    0  0.64654317604E+02 -0.28451959864E+02 -0.42491869363E+02  0.11468928292E+03  0.79739437227E+02 0.  0.
         23    2    1    2    0    0  0.17232944940E+02 -0.60317886216E+02 -0.19373831758E+03  0.22286983926E+03  0.90560519876E+02 0.  0.
        -11    1    3    3    0    0  0.28310977427E+02 -0.22017299249E+02 -0.62979690246E+02  0.72475611709E+02  0.00000000000E+00 0.  1.
         12    1    3    3    0    0  0.36343340177E+02 -0.64346606155E+01  0.20487820883E+02  0.42213671209E+02  0.00000000000E+00 0. -1.
        -13    1    4    4    0    0  0.36720428348E+02 -0.76292957565E+02 -0.15590475598E+03  0.17741279032E+03  0.00000000000E+00 0.  1.
         13    1    4    4    0    0 -0.19487483408E+02  0.15975071348E+02 -0.37833561607E+02  0.45457048937E+02  0.00000000000E+00 0. -1.
          3    1    1    2  501    0 -0.81887262544E+02  0.88769846080E+02 -0.15826006981E+03  0.19907752017E+03  0.00000000000E+00 0. -1.
<scales pt_clust_5="13000.00000" pt_clust_6="13000.00000" pt_clust_7="13000.00000" pt_clust_8="13000.00000" pt_clust_9="84.60596"></scales>
<clustering>
<clus scale="   79.739">  5  6 -1 -1</clus>
<clus scale="   90.561">  7  8 -1 -1</clus>
<clus scale="  106.527">  1  5  2 -1</clus>
<clus scale="   84.606">  2  9  1 -1</clus>
<clus scale="   84.606">  2  5  1 -1</clus>
</clustering>
</event>
<event>
 9    2  0.4883225E-005  0.1065175E+03  0.7546771E-02  0.1272142E+00
          2   -1    0    0  502    0 -0.00000000000E+00  0.00000000000E+00  0.76514369899E+03  0.76514369899E+03  0.00000000000E+00 0. -1.
         21   -1    0    0  501  502  0.00000000000E+00 -0.00000000000E+00 -0.23627524377E+02  0.23627524377E+02  0.00000000000E+00 0. -1.
         24    2    1    2    0    0  0.44557358608E+02 -0.42523392020E+02  0.50944413854E+03  0.51936625964E+03  0.80089851297E+02 0.  0.
         23    2    1    2    0    0 -0.39989345088E+02  0.81458317015E+01  0.19008655624E+03  0.21494889045E+03  0.91676738302E+02 0.  0.
        -13    1    3    3    0    0  0.42655538690E+02  0.13516902231E+02  0.24309292257E+03  0.24717680035E+03  0.00000000000E+00 0.  1.
         14    1    3    3    0    0  0.19018199180E+01 -0.56040294251E+02  0.26635121597E+03  0.27218945929E+03  0.00000000000E+00 0. -1.
        -13    1    4    4    0    0 -0.10574835333E+02  0.47246554612E+02  0.12067556672E+03  0.13002559928E+03  0.00000000000E+00 0.  1.
         13    1    4    4    0    0 -0.29414509756E+02 -0.39100722910E+02  0.69410989526E+02  0.84923291171E+02  0.00000000000E+00 0. -1.
          1    1    1    2  501    0 -0.45680135191E+01  0.34377560318E+02  0.41985479832E+02  0.54456073285E+02  0.00000000000E+00 0. -1.
<scales pt_clust_5="13000.00000" pt_clust_6="13000.00000" pt_clust_7="13000.00000" pt_clust_8="13000.00000" pt_clust_9="34.67973"></scales>
<clustering>
<clus scale="   34.680">  2  9  1 -1</clus>
<clus scale="   80.090">  5  6 -1 -1</clus>
<clus scale="   91.677">  7  8 -1 -1</clus>
<clus scale="   96.725">  1  5  2 -1</clus>
<clus scale="   34.680">  2  5  1 -1</clus>
</clustering>
</event>
<event>
 9    2  0.4883225E-005  0.9083007E+02  0.7546771E-02  0.1306535E+00
         -1   -1    0    0    0  501 -0.00000000000E+00  0.00000000000E+00  0.31513483472E+02  0.31513483472E+02  0.00000000000E+00 0.  1.
         21   -1    0    0  501  502  0.00000000000E+00 -0.00000000000E+00 -0.39811551776E+03  0.39811551776E+03  0.00000000000E+00 0. -1.
         24    2    1    2    0    0 -0.10000722780E+01  0.10960778421E+02 -0.14648420419E+03  0.16752131469E+03  0.80527200305E+02 0.  0.
         23    2    1    2    0    0 -0.33887656045E+02  0.10782474388E+02 -0.18236268990E+03  0.20629215787E+03  0.89641891686E+02 0.  0.
        -11    1    3    3    0    0 -0.29638394099E+02 -0.22515794540E+02 -0.66967722326E+02  0.76616390166E+02  0.00000000000E+00 0.  1.
         12    1    3    3    0    0  0.28638321821E+02  0.33476572961E+02 -0.79516481864E+02  0.90904924520E+02  0.00000000000E+00 0. -1.
        -13    1    4    4    0    0  0.19375012563E+02  0.16071068093E+02 -0.12322996700E+02  0.28027247263E+02  0.00000000000E+00 0.  1.
         13    1    4    4    0    0 -0.53262668607E+02 -0.52885937044E+01 -0.17003969320E+03  0.17826491060E+03  0.00000000000E+00 0. -1.
         -2    1    1    2    0  502  0.34887728323E+02 -0.21743252809E+02 -0.37755140206E+02  0.55815528684E+02  0.00000000000E+00 0.  1.
<scales pt_clust_5="13000.00000" pt_clust_6="13000.00000" pt_clust_7="13000.00000" pt_clust_8="13000.00000" pt_clust_9="41.10869"></scales>
<clustering>
<clus scale="   41.109">  2  9  1 -1</clus>
<clus scale="   80.527">  5  6 -1 -1</clus>
<clus scale="   81.848">  1  5  2 -1</clus>
<clus scale="   89.642">  7  8 -1 -1</clus>
<clus scale="   41.109">  2  5  1 -1</clus>
</clustering>
</event>
<event>
 9    2  0.4883225E-005  0.1504718E+03  0.7546771E-02  0.1202486E+00
         -3   -1    0    0    0  501 -0.00000000000E+00  0.00000000000E+00  0.48835425661E+02  0.48835425661E+02  0.00000000000E+00 0.  1.
         21   -1    0    0  501  502  0.00000000000E+00 -0.00000000000E+00 -0.92427223912E+03  0.92427223912E+03  0.00000000000E+00 0.  1.
         24    2    1    2    0    0  0.14906245367E+03  0.36728504050E+02 -0.23609402500E+03  0.29272111558E+03  0.79854021565E+02 0.  0.
         23    2    1    2    0    0 -0.44188674359E+02 -0.50689239369E+02 -0.43806455694E+03  0.45299627192E+03  0.93717812624E+02 0.  0.
        -11    1    3    3    0    0  0.14601836425E+03  0.53089067402E+02 -0.22167431169E+03  0.27070151873E+03  0.00000000000E+00 0.  1.
         12    1    3    3    0    0  0.30440894150E+01 -0.16360563352E+02 -0.14419713311E+02  0.22019596852E+02  0.00000000000E+00 0. -1.
        -11    1    4    4    0    0  0.46145314256E+01 -0.57563987103E+02 -0.14974083709E+03  0.16049057544E+03  0.00000000000E+00 0. -1.
         11    1    4    4    0    0 -0.48803205785E+02  0.68747477340E+01 -0.28832371985E+03  0.29250569649E+03  0.00000000000E+00 0.  1.
         -4    1    1    2    0  502 -0.10487377931E+03  0.13960735319E+02 -0.20127823152E+03  0.22739027728E+03  0.00000000000E+00 0.  1.
<scales pt_clust_5="13000.00000" pt_clust_6="13000.00000" pt_clust_7="13000.00000" pt_clust_8="13000.00000" pt_clust_9="105.79897"></scales>
<clustering>
<clus scale="   79.854">  5  6 -1 -1</clus>
<clus scale="   93.718">  7  8 -1 -1</clus>
<clus scale="  105.799">  2  9  1 -1</clus>
<clus scale="  142.251">  1  5  2 -1</clus>
<clus scale="  105.799">  2  5  1 -1</clus>
</clustering>
</event>
<event>
 9    2  0.4883225E-005  0.1212974E+03  0.7546771E-02  0.1244199E+00
          4   -1    0    0  502    0 -0.00000000000E+00  0.00000000000E+00  0.92357270962E+03  0.92357270962E+03  0.00000000000E+00 0. -1.
         21   -1    0    0  501  502  0.00000000000E+00 -0.00000000000E+00 -0.46815634631E+02  0.46815634631E+02  0.00000000000E+00 0.  1.
         24    2    1    2    0    0  0.73607852785E+02 -0.32530714847E+02  0.78858383782E+03  0.79674949583E+03  0.80429636604E+02 0.  0.
         23    2    1    2    0    0 -0.60964619240E+02  0.55411657527E+02  0.78993040000E+02  0.14593208187E+03  0.90934787414E+02 0.  0.
        -13    1    3    3    0    0  0.15293577734E+02  0.15345366484E+02  0.52297335637E+02  0.56607288464E+02  0.00000000000E+00 0.  1.
         14    1    3    3    0    0  0.58314275051E+02 -0.47876081330E+02  0.73628650218E+03  0.74014220737E+03  0.00000000000E+00 0. -1.
        -11    1    4    4    0    0 -0.48160101774E+02 -0.35313225950E+01  0.22767365380E+01  0.48343036431E+02  0.00000000000E+00 0. -1.
         11    1    4    4    0    0 -0.12804517466E+02  0.58942980122E+02  0.76716303462E+02  0.97589045441E+02  0.00000000000E+00 0.  1.
          3    1    1    2  501    0 -0.12643233545E+02 -0.22880942680E+02  0.91801971733E+01  0.27706766548E+02  0.00000000000E+00 0. -1.
<scales pt_clust_5="13000.00000" pt_clust_6="13000.00000" pt_clust_7="13000.00000" pt_clust_8="13000.00000" pt_clust_9="26.14171"></scales>
<clustering>
<clus scale="   26.142">  2  9  1 -1</clus>
<clus scale="   80.430">  5  6 -1 -1</clus>
<clus scale="   90.935">  7  8 -1 -1</clus>
<clus scale="  113.635">  1  5  2 -1</clus>
<clus scale="   26.142">  2  5  1 -1</clus>
</clustering>
</event>
<event>
 9    2  0.4883225E-005  0.1394213E+03  0.7546771E-02  0.1237751E+00
         -3   -1    0    0    0  501 -0.00000000000E+00  0.00000000000E+00  0.12995916847E+03  0.12995916847E+03  0.00000000000E+00 0.  1.
         21   -1    0    0  501  502  0.00000000000E+00 -0.00000000000E+00 -0.42384963486E+03  0.42384963486E+03  0.00000000000E+00 0.  1.
         24    2    1    2    0    0  0.12199121595E+02  0.22086511014E+02  0.20114809505E+02  0.87622620108E+02  0.81464627027E+02 0.  0.
         23    2    1    2    0    0 -0.11467258662E+03 -0.32022357045E+02 -0.16620689028E+02  0.15148453948E+03  0.92174209646E+02 0.  0.
        -13    1    3    3    0    0 -0.83056400632E+01 -0.19579406055E+02 -0.17751614706E+02  0.27703007472E+02  0.00000000000E+00 0.  1.
         14    1    3    3    0    0  0.20504761658E+02  0.41665917069E+02  0.37866424211E+02  0.59919612636E+02  0.00000000000E+00 0. -1.
        -11    1    4    4    0    0 -0.48257630456E+02 -0.28112303116E+02  0.36183847352E+02  0.66546008842E+02  0.00000000000E+00 0.  1.
         11    1    4    4    0    0 -0.66414956163E+02 -0.39100539290E+01 -0.52804536380E+02  0.84938530633E+02  0.00000000000E+00 0. -1.
         -4    1    1    2    0  502  0.10247346502E+03  0.99358460306E+01 -0.29738458687E+03  0.31470164375E+03  0.00000000000E+00 0.  1.
<scales pt_clust_5="13000.00000" pt_clust_6="13000.00000" pt_clust_7="13000.00000" pt_clust_8="13000.00000" pt_clust_9="104.60507"></scales>
<clustering>
<clus scale="   81.465">  5  6 -1 -1</clus>
<clus scale="   85.283">  1  5  2 -1</clus>
<clus scale="   92.174">  7  8 -1 -1</clus>
<clus scale="  104.605">  2  9  1 -1</clus>
<clus scale="  104.605">  2  5  1 -1</clus>
</clustering>
</event>
<event>
 9    2  0.4883225E-005  0.1638090E+03  0.7546771E-02  0.1185828E+00
         21   -1    0    0  501  502  0.00000000000E+00  0.00000000000E+00  0.31245383785E+03  0.31245383785E+03  0.00000000000E+00 0. -1.
         -3   -1    0    0    0  501 -0.00000000000E+00 -0.00000000000E+00 -0.11797498317E+03  0.11797498317E+03  0.00000000000E+00 0.  1.
         23    2    1    2    0    0  0.52671667676E+01  0.15164751225E+03  0.26286090947E+02  0.17801875166E+03  0.89302891043E+02 0.  0.
         24    2    1    2    0    0  0.16758215462E+02 -0.11731747160E+03  0.10569901141E+03  0.17778341035E+03  0.79940184238E+02 0.  0.
        -11    1    4    4    0    0  0.36705431081E+02 -0.63607773143E+02  0.22581160005E+02  0.76831935172E+02  0.00000000000E+00 0.  1.
         12    1    4    4    0    0 -0.19947215620E+02 -0.53709698454E+02  0.83117851402E+02  0.10095147518E+03  0.00000000000E+00 0. -1.
        -13    1    3    3    0    0  0.20093616971E+02  0.96678565690E+02 -0.24485692528E+02  0.10173518391E+03  0.00000000000E+00 0.  1.
         13    1    3    3    0    0 -0.14826450203E+02  0.54968946563E+02  0.50771783475E+02  0.76283567753E+02  0.00000000000E+00 0. -1.
         -4    1    1    2    0  502 -0.22025382229E+02 -0.34330040656E+02  0.62493752329E+02  0.74626659003E+02  0.00000000000E+00 0.  1.
<scales pt_clust_5="13000.00000" pt_clust_6="13000.00000" pt_clust_7="13000.00000" pt_clust_8="13000.00000" pt_clust_9="40.78810"></scales>
<clustering>
<clus scale="   40.788">  1  9  2 -1</clus>
<clus scale="   79.940">  5  6 -1 -1</clus>
<clus scale="   89.303">  7  8 -1 -1</clus>
<clus scale="  158.899">  1  5  2 -1</clus>
<clus scale="   40.788">  1  5  2 -1</clus>
</clustering>
</event>
<event>
 9    2  0.4883225E-005  0.1211748E+03  0.7546771E-02  0.1244691E+00
         -1   -1    0    0    0  501 -0.00000000000E+00  0.00000000000E+00  0.12845445228E+03  0.12845445228E+03  0.00000000000E+00 0.  1.
         21   -1    0    0  501  502  0.00000000000E+00 -0.00000000000E+00 -0.44591853333E+03  0.44591853333E+03  0.00000000000E+00 0. -1.
         23    2    1    2    0    0  0.56000527390E+02 -0.60079547041E+02  0.69384917172E+02  0.14139883323E+03  0.91835463013E+02 0.  0.
         24    2    1    2    0    0 -0.87741893523E+02 -0.49083687701E+01 -0.20299864273E+03  0.23540923460E+03  0.80537735397E+02 0.  0.
        -11    1    4    4    0    0 -0.47029607930E+02  0.93639752336E+00 -0.26105327403E+02  0.53797295296E+02  0.00000000000E+00 0.  1.
         12    1    4    4    0    0 -0.40712285593E+02 -0.58447662935E+01 -0.17689331532E+03  0.18161193930E+03  0.00000000000E+00 0. -1.
        -11    1    3    3    0    0  0.33025718500E+01 -0.42950489766E+02  0.74179127905E+02  0.85779919379E+02  0.00000000000E+00 0.  1.
         11    1    3    3    0    0  0.52697955540E+02 -0.17129057275E+02 -0.47942107327E+01  0.55618913849E+02  0.00000000000E+00 0. -1.
         -2    1    1    2    0  502  0.31741366133E+02  0.64987915811E+02 -0.18385035549E+03  0.19756491778E+03  0.00000000000E+00 0.  1.
<scales pt_clust_5="13000.00000" pt_clust_6="13000.00000" pt_clust_7="13000.00000" pt_clust_8="13000.00000" pt_clust_9="72.32526"></scales>
<clustering>
<clus scale="   72.325">  2  9  1 -1</clus>
<clus scale="   80.538">  5  6 -1 -1</clus>
<clus scale="   91.835">  7  8 -1 -1</clus>
<clus scale="  112.853">  2  5  1 -1</clus>
<clus scale="   72.325">  2  5  1 -1</clus>
</clustering>
</event>
<event>
 9    2  0.4883225E-005  0.1048283E+03  0.7546771E-02  0.1271644E+00
         21   -1    0    0  501  502  0.00000000000E+00  0.00000000000E+00  0.20950990875E+03  0.20950990875E+03  0.00000000000E+00 0. -1.
          2   -1    0    0  502    0 -0.00000000000E+00 -0.00000000000E+00 -0.31595226419E+03  0.31595226419E+03  0.00000000000E+00 0. -1.
         24    2    1    2    0    0  0.46053445010E+02  0.12914093663E+02 -0.26102782145E+03  0.28178629760E+03  0.94764446564E+02 0.  0.
         23    2    1    2    0    0 -0.31572074257E+02  0.70363930949E+01  0.11314772028E+02  0.98299729522E+02  0.92133088830E+02 0.  0.
        -11    1    3    3    0    0 -0.12220927479E+02  0.39787443991E+02 -0.91606597680E+02  0.10061888742E+03  0.00000000000E+00 0.  1.
         12    1    3    3    0    0  0.58274372490E+02 -0.26873350328E+02 -0.16942122377E+03  0.18116741018E+03  0.00000000000E+00 0. -1.
        -13    1    4    4    0    0 -0.15527911115E+02 -0.41489891904E+02  0.15704594399E+02  0.47001717405E+02  0.00000000000E+00 0.  1.
         13    1    4    4    0    0 -0.16044163142E+02  0.48526284999E+02 -0.43898223707E+01  0.51298012117E+02  0.00000000000E+00 0. -1.
          1    1    1    2  501    0 -0.14481370753E+02 -0.19950486758E+02  0.14327069398E+03  0.14537614582E+03  0.00000000000E+00 0. -1.
<scales pt_clust_5="13000.00000" pt_clust_6="13000.00000" pt_clust_7="13000.00000" pt_clust_8="13000.00000" pt_clust_9="24.65222"></scales>
<clustering>
<clus scale="   24.652">  1  9  2 -1</clus>
<clus scale="   92.133">  7  8 -1 -1</clus>
<clus scale="   94.764">  5  6 -1 -1</clus>
<clus scale="  102.456">  1  7  2 -1</clus>
<clus scale="   24.652">  1  5  2 -1</clus>
</clustering>
</event>
<event>
 9    2  0.4883225E-005  0.3236724E+03  0.7546771E-02  0.1115907E+00
         21   -1    0    0  501  502  0.00000000000E+00  0.00000000000E+00  0.18322761042E+03  0.18322761042E+03  0.00000000000E+00 0. -1.
          2   -1    0    0  502    0 -0.00000000000E+00 -0.00000000000E+00 -0.10979774092E+04  0.10979774092E+04  0.00000000000E+00 0. -1.
         24    2    1    2    0    0 -0.52537027586E+02 -0.51416459921E+02 -0.21302148905E+03  0.23877636105E+03  0.78944310644E+02 0.  0.
         23    2    1    2    0    0 -0.28785448263E+03 -0.67876103460E+02 -0.74397049906E+02  0.31879780968E+03  0.92896468344E+02 0.  0.
        -11    1    3    3    0    0  0.15084560527E+02 -0.22004517408E+02 -0.24018898759E+02  0.35897775004E+02  0.00000000000E+00 0.  1.
         12    1    3    3    0    0 -0.67621588113E+02 -0.29411942513E+02 -0.18900259029E+03  0.20287858605E+03  0.00000000000E+00 0. -1.
        -11    1    4    4    0    0 -0.49017859582E+02 -0.26428548378E+02  0.19263792354E+02  0.58926330475E+02  0.00000000000E+00 0.  1.
         11    1    4    4    0    0 -0.23883662305E+03 -0.41447555082E+02 -0.93660842261E+02  0.25987147921E+03  0.00000000000E+00 0. -1.
          1    1    1    2  501    0  0.34039151022E+03  0.11929256338E+03 -0.62733125981E+03  0.72363084887E+03  0.00000000000E+00 0. -1.
<scales pt_clust_5="13000.00000" pt_clust_6="13000.00000" pt_clust_7="13000.00000" pt_clust_8="13000.00000" pt_clust_9="310.05506"></scales>
<clustering>
<clus scale="   78.944">  5  6 -1 -1</clus>
<clus scale="   92.896">  7  8 -1 -1</clus>
<clus scale="  107.870">  2  5  1 -1</clus>
<clus scale="  310.055">  1  9  2 -1</clus>
<clus scale="  310.055">  1  5  2 -1</clus>
</clustering>
</event>
<event>
 9    2  0.4883225E-005  0.2411629E+03  0.7546771E-02  0.1119556E+00
         21   -1    0    0  501  502  0.00000000000E+00  0.00000000000E+00  0.24630447486E+03  0.24630447486E+03  0.00000000000E+00 0. -1.
          2   -1    0    0  502    0 -0.00000000000E+00 -0.00000000000E+00 -0.39861690092E+03  0.39861690092E+03  0.00000000000E+00 0. -1.
         24    2    1    2    0    0 -0.18228277387E+03  0.15060418580E+03 -0.24792098893E+03  0.35201854136E+03  0.80892560118E+02 0.  0.
         23    2    1    2    0    0  0.17082142669E+03 -0.89589849799E+02  0.59033463669E+02  0.22084834422E+03  0.89904061691E+02 0.  0.
        -11    1    3    3    0    0 -0.57702907987E+02  0.95583702254E+02 -0.89418615353E+02  0.14304390409E+03  0.00000000000E+00 0.  1.
         12    1    3    3    0    0 -0.12457986588E+03  0.55020483544E+02 -0.15850237357E+03  0.20897463727E+03  0.00000000000E+00 0. -1.
        -11    1    4    4    0    0  0.11603028072E+03 -0.14350562580E+02  0.50591327727E+02  0.12739092249E+03  0.00000000000E+00 0. -1.
         11    1    4    4    0    0  0.54791145964E+02 -0.75239287219E+02  0.84421359422E+01  0.93457421730E+02  0.00000000000E+00 0.  1.
          1    1    1    2  501    0  0.11461347183E+02 -0.61014335999E+02  0.36575099200E+02  0.72054490201E+02  0.00000000000E+00 0. -1.
<scales pt_clust_5="13000.00000" pt_clust_6="13000.00000" pt_clust_7="13000.00000" pt_clust_8="13000.00000" pt_clust_9="62.08149"></scales>
<clustering>
<clus scale="   62.081">  1  9  2 -1</clus>
<clus scale="   80.893">  5  6 -1 -1</clus>
<clus scale="   89.904">  7  8 -1 -1</clus>
<clus scale="  237.950">  2  5  1 -1</clus>
<clus scale="   62.081">  1  5  2 -1</clus>
</clustering>
</event>
<event>
 9    2  0.4883225E-005  0.1007646E+03  0.7546771E-02  0.1281512E+00
          2   -1    0    0  502    0 -0.00000000000E+00  0.00000000000E+00  0.80989129209E+03  0.80989129209E+03  0.00000000000E+00 0. -1.
         21   -1    0    0  501  502  0.00000000000E+00 -0.00000000000E+00 -0.18876647011E+02  0.18876647011E+02  0.00000000000E+00 0. -1.
         24    2    1    2    0    0 -0.11547908542E+02 -0.38353853577E+02  0.33133412466E+03  0.34349442190E+03  0.81251113454E+02 0.  0.
         23    2    1    2    0    0  0.84993555521E+01  0.69535741229E+02  0.25916624507E+03  0.28232628659E+03  0.87370081628E+02 0.  0.
        -11    1    3    3    0    0  0.89263256023E+01  0.22787499949E+02  0.12297830514E+03  0.12538984400E+03  0.00000000000E+00 0.  1.
         12    1    3    3    0    0 -0.20474234144E+02 -0.61141353526E+02  0.20835581952E+03  0.21810457790E+03  0.00000000000E+00 0. -1.
        -13    1    4    4    0    0  0.20278986754E+02  0.87381516662E+02  0.22215438877E+03  0.23958159196E+03  0.00000000000E+00 0. -1.
         13    1    4    4    0    0 -0.11779631202E+02 -0.17845775434E+02  0.37011856302E+02  0.42744694630E+02  0.00000000000E+00 0.  1.
          1    1    1    2  501    0  0.30485529897E+01 -0.31181887651E+02  0.20051427536E+03  0.20294723062E+03  0.00000000000E+00 0. -1.
<scales pt_clust_5="13000.00000" pt_clust_6="13000.00000" pt_clust_7="13000.00000" pt_clust_8="13000.00000" pt_clust_9="31.33057"></scales>
<clustering>
<clus scale="   31.331">  2  9  1 -1</clus>
<clus scale="   81.251">  5  6 -1 -1</clus>
<clus scale="   87.370">  7  8 -1 -1</clus>
<clus scale="   95.508">  1  5  2 -1</clus>
<clus scale="   31.331">  2  5  1 -1</clus>
</clustering>
</event>
<event>
 9    2  0.4883225E-005  0.9494180E+02  0.7546771E-02  0.1298151E+00
         21   -1    0    0  501  502  0.00000000000E+00  0.00000000000E+00  0.80600049682E+03  0.80600049682E+03  0.00000000000E+00 0.  1.
         -1   -1    0    0    0  501 -0.00000000000E+00 -0.00000000000E+00 -0.29142085387E+02  0.29142085387E+02  0.00000000000E+00 0.  1.
         24    2    1    2    0    0 -0.40356185020E+02 -0.70683852128E+01  0.10137349332E+03  0.13617806734E+03  0.81174485751E+02 0.  0.
         23    2    1    2    0    0 -0.22445171626E+02 -0.94727320560E+01  0.23688006345E+03  0.25557773396E+03  0.92813227783E+02 0.  0.
        -11    1    3    3    0    0 -0.25908194826E+02 -0.28884139186E+02  0.85432399583E+01  0.39730529881E+02  0.00000000000E+00 0.  1.
         12    1    3    3    0    0 -0.14447990194E+02  0.21815753974E+02  0.92830253363E+02  0.96447537457E+02  0.00000000000E+00 0. -1.
        -11    1    4    4    0    0  0.31581159674E+02 -0.21679312787E+02  0.70704392546E+02  0.80414385371E+02  0.00000000000E+00 0. -1.
         11    1    4    4    0    0 -0.54026331300E+02  0.12206580731E+02  0.16617567090E+03  0.17516334858E+03  0.00000000000E+00 0.  1.
         -2    1    1    2    0  502  0.62801356646E+02  0.16541117269E+02  0.43860485466E+03  0.44338678091E+03  0.00000000000E+00 0.  1.
<scales pt_clust_5="13000.00000" pt_clust_6="13000.00000" pt_clust_7="13000.00000" pt_clust_8="13000.00000" pt_clust_9="64.94320"></scales>
<clustering>
<clus scale="   64.943">  1  9  2 -1</clus>
<clus scale="   81.174">  5  6 -1 -1</clus>
<clus scale="   83.600">  2  5  1 -1</clus>
<clus scale="   92.813">  7  8 -1 -1</clus>
<clus scale="   64.943">  1  5  2 -1</clus>
</clustering>
</event>
<event>
 9    2  0.4883225E-005  0.1934534E+03  0.7546771E-02  0.1156460E+00
          2   -1    0    0  502    0 -0.00000000000E+00  0.00000000000E+00  0.89024066367E+03  0.89024066367E+03  0.00000000000E+00 0. -1.
         21   -1    0    0  501  502  0.00000000000E+00 -0.00000000000E+00 -0.99815812008E+02  0.99815812008E+02  0.00000000000E+00 0. -1.
         23    2    1    2    0    0  0.31864392834E+01 -0.15817677922E+03  0.26956282561E+03  0.32579773654E+03  0.91923888620E+02 0.  0.
         24    2    1    2    0    0 -0.16241484943E+03  0.14195466040E+03  0.40731743559E+03  0.46802108281E+03  0.81280573936E+02 0.  0.
        -13    1    4    4    0    0 -0.10702705759E+02  0.44513105276E+02  0.12412570981E+03  0.13229949466E+03  0.00000000000E+00 0.  1.
         14    1    4    4    0    0 -0.15171214367E+03  0.97441555124E+02  0.28319172578E+03  0.33572158815E+03  0.00000000000E+00 0. -1.
        -13    1    3    3    0    0 -0.61834069374E+00 -0.10565106180E+03  0.24672677848E+03  0.26839640911E+03  0.00000000000E+00 0.  1.
         13    1    3    3    0    0  0.38047799771E+01 -0.52525717426E+02  0.22836047135E+02  0.57401327428E+02  0.00000000000E+00 0. -1.
          1    1    1    2  501    0  0.15922841015E+03  0.16222118825E+02  0.11354459046E+03  0.19623765633E+03  0.00000000000E+00 0. -1.
<scales pt_clust_5="13000.00000" pt_clust_6="13000.00000" pt_clust_7="13000.00000" pt_clust_8="13000.00000" pt_clust_9="160.05263"></scales>
<clustering>
<clus scale="   81.281">  5  6 -1 -1</clus>
<clus scale="   91.924">  7  8 -1 -1</clus>
<clus scale="  160.053">  2  9  1 -1</clus>
<clus scale="  188.629">  2  5  1 -1</clus>
<clus scale="  160.053">  2  5  1 -1</clus>
</clustering>
</event>
<event>
 9    2  0.4883225E-005  0.1139942E+03  0.7546771E-02  0.1256049E+00
         21   -1    0    0  501  502  0.00000000000E+00  0.00000000000E+00  0.40314985842E+02  0.40314985842E+02  0.00000000000E+00 0. -1.
          2   -1    0    0  502    0 -0.00000000000E+00 -0.00000000000E+00 -0.11936460331E+04  0.11936460331E+04  0.00000000000E+00 0. -1.
         24    2    1    2    0    0 -0.29437895306E+02 -0.77606916875E+02 -0.86216734718E+03  0.87020086552E+03  0.83830713789E+02 0.  0.
         23    2    1    2    0    0  0.16140377555E+02  0.35382334189E+02 -0.30223402789E+03  0.31812802084E+03  0.91365248685E+02 0.  0.
        -13    1    3    3    0    0 -0.21458324529E+02 -0.29330721609E+02 -0.98885636596E+02  0.10535236137E+03  0.00000000000E+00 0.  1.
         14    1    3    3    0    0 -0.79795707775E+01 -0.48276195267E+02 -0.76328171059E+03  0.76484850415E+03  0.00000000000E+00 0. -1.
        -13    1    4    4    0    0 -0.13156622590E+02  0.59618736038E+02 -0.19642658776E+03  0.20569612244E+03  0.00000000000E+00 0. -1.
         13    1    4    4    0    0  0.29297000145E+02 -0.24236401850E+02 -0.10580744012E+03  0.11243189840E+03  0.00000000000E+00 0.  1.
          1    1    1    2  501    0  0.13297517751E+02  0.42224582687E+02  0.11070327859E+02  0.45632132542E+02  0.00000000000E+00 0. -1.
<scales pt_clust_5="13000.00000" pt_clust_6="13000.00000" pt_clust_7="13000.00000" pt_clust_8="13000.00000" pt_clust_9="44.26894"></scales>
<clustering>
<clus scale="   44.269">  1  9  2 -1</clus>
<clus scale="   83.831">  5  6 -1 -1</clus>
<clus scale="   91.365">  7  8 -1 -1</clus>
<clus scale="  108.049">  2  5  1 -1</clus>
<clus scale="   44.269">  1  5  2 -1</clus>
</clustering>
</event>
<event>
 9    2  0.4883225E-005  0.1834179E+03  0.7546771E-02  0.1194037E+00
         21   -1    0    0  501  502  0.00000000000E+00  0.00000000000E+00  0.52088997096E+02  0.52088997096E+02  0.00000000000E+00 0.  1.
         -1   -1    0    0    0  501 -0.00000000000E+00 -0.00000000000E+00 -0.12305079922E+04  0.12305079922E+04  0.00000000000E+00 0.  1.
         23    2    1    2    0    0 -0.18792413908E+02 -0.15585756937E+02 -0.33870771852E+03  0.35162031617E+03  0.91202289000E+02 0.  0.
         24    2    1    2    0    0 -0.15605899180E+03 -0.30607294427E+02 -0.20792924211E+03  0.27381965144E+03  0.80320709617E+02 0.  0.
        -11    1    4    4    0    0 -0.76361266023E+02  0.17525907984E+02 -0.58577344184E+02  0.97823850113E+02  0.00000000000E+00 0.  1.
         12    1    4    4    0    0 -0.79697725777E+02 -0.48133202412E+02 -0.14935189793E+03  0.17599580132E+03  0.00000000000E+00 0. -1.
        -11    1    3    3    0    0 -0.82170683311E+01  0.37997856805E+02 -0.11725020179E+03  0.12352719196E+03  0.00000000000E+00 0.  1.
         11    1    3    3    0    0 -0.10575345577E+02 -0.53583613742E+02 -0.22145751673E+03  0.22809312421E+03  0.00000000000E+00 0. -1.
         -2    1    1    2    0  502  0.17485140571E+03  0.46193051364E+02 -0.63178203443E+03  0.65715702165E+03  0.00000000000E+00 0.  1.
<scales pt_clust_5="13000.00000" pt_clust_6="13000.00000" pt_clust_7="13000.00000" pt_clust_8="13000.00000" pt_clust_9="164.89616"></scales>
<clustering>
<clus scale="   80.321">  5  6 -1 -1</clus>
<clus scale="   91.202">  7  8 -1 -1</clus>
<clus scale="   94.414">  2  7  1 -1</clus>
<clus scale="  164.896">  1  9  2 -1</clus>
<clus scale="  164.896">  1  5  2 -1</clus>
</clustering>
</event>
<event>
 9    2  0.4883225E-005  0.1012920E+03  0.7546771E-02  0.1285916E+00
         21   -1    0    0  501  502  0.00000000000E+00  0.00000000000E+00  0.99406132476E+02  0.99406132476E+02  0.00000000000E+00 0.  1.
          2   -1    0    0  502    0 -0.00000000000E+00 -0.00000000000E+00 -0.17897585542E+03  0.17897585542E+03  0.00000000000E+00 0. -1.
         24    2    1    2    0    0  0.84386835916E+01 -0.32822089494E+02 -0.10471583468E+03  0.13530694814E+03  0.78702371256E+02 0.  0.
         23    2    1    2    0    0 -0.29262662853E+02  0.34989720668E+02 -0.62814390044E+01  0.10531225804E+03  0.94713416307E+02 0.  0.
        -11    1    3    3    0    0  0.31560157971E+02  0.10580945824E+02 -0.61079494719E+02  0.69560798304E+02  0.00000000000E+00 0.  1.
         12    1    3    3    0    0 -0.23121474379E+02 -0.43403035318E+02 -0.43636339963E+02  0.65746149831E+02  0.00000000000E+00 0. -1.
        -13    1    4    4    0    0  0.12436430375E+02 -0.21294763302E+02 -0.22531759896E+02  0.33403771472E+02  0.00000000000E+00 0. -1.
         13    1    4    4    0    0 -0.41699093228E+02  0.56284483970E+02  0.16250320892E+02  0.71908486570E+02  0.00000000000E+00 0.  1.
          1    1    1    2  501    0  0.20823979261E+02 -0.21676311741E+01  0.31427550744E+02  0.37762781716E+02  0.00000000000E+00 0. -1.
<scales pt_clust_5="13000.00000" pt_clust_6="13000.00000" pt_clust_7="13000.00000" pt_clust_8="13000.00000" pt_clust_9="20.93649"></scales>
<clustering>
<clus scale="   20.936">  1  9  2 -1</clus>
<clus scale="   78.702">  5  6 -1 -1</clus>
<clus scale="   86.507">  2  5  1 -1</clus>
<clus scale="   94.713">  7  8 -1 -1</clus>
<clus scale="   20.936">  1  5  2 -1</clus>
</clustering>
</event>
<event>
 9    2  0.4883225E-005  0.1719957E+03  0.7546771E-02  0.1176631E+00
          2   -1    0    0  502    0 -0.00000000000E+00  0.00000000000E+00  0.10356708262E+04  0.10356708262E+04  0.00000000000E+00 0. -1.
         21   -1    0    0  501  502  0.00000000000E+00 -0.00000000000E+00 -0.40455488520E+02  0.40455488520E+02  0.00000000000E+00 0.  1.
         24    2    1    2    0    0 -0.26044255878E+02  0.15047656908E+03  0.57482108035E+03  0.60026857629E+03  0.81126987852E+02 0.  0.
         23    2    1    2    0    0 -0.39196494604E+01 -0.14332301579E+03  0.41037348769E+03  0.44346291209E+03  0.87727444353E+02 0.  0.
        -11    1    3    3    0    0  0.19250581634E+02  0.10894263932E+03  0.34042011022E+03  0.35794543578E+03  0.00000000000E+00 0.  1.
         12    1    3    3    0    0 -0.45294837512E+02  0.41533929758E+02  0.23440097013E+03  0.24232314051E+03  0.00000000000E+00 0. -1.
        -13    1    4    4    0    0  0.11250655899E+02 -0.54193056827E+02  0.60076176213E+02  0.81686055204E+02  0.00000000000E+00 0.  1.
         13    1    4    4    0    0 -0.15170305359E+02 -0.89129958961E+02  0.35029731148E+03  0.36177685689E+03  0.00000000000E+00 0. -1.
          1    1    1    2  501    0  0.29963905339E+02 -0.71535532914E+01  0.10020769598E+02  0.32394826302E+02  0.00000000000E+00 0. -1.
<scales pt_clust_5="13000.00000" pt_clust_6="13000.00000" pt_clust_7="13000.00000" pt_clust_8="13000.00000" pt_clust_9="30.80599"></scales>
<clustering>
<clus scale="   30.806">  2  9  1 -1</clus>
<clus scale="   81.127">  5  6 -1 -1</clus>
<clus scale="   87.727">  7  8 -1 -1</clus>
<clus scale="  168.725">  1  5  2 -1</clus>
<clus scale="   30.806">  2  5  1 -1</clus>
</clustering>
</event>
<event>
 9    2  0.4883225E-005  0.1206564E+03  0.7546771E-02  0.1253907E+00
         21   -1    0    0  501  502  0.00000000000E+00  0.00000000000E+00  0.60078557323E+02  0.60078557323E+02  0.00000000000E+00 0. -1.
         -1   -1    0    0    0  501 -0.00000000000E+00 -0.00000000000E+00 -0.47318953970E+03  0.47318953970E+03  0.00000000000E+00 0.  1.
         23    2    1    2    0    0 -0.13618378056E+02 -0.21764602073E+02 -0.15395496192E+03  0.18094392944E+03  0.91539156518E+02 0.  0.
         24    2    1    2    0    0 -0.81039142266E+02  0.31962609271E+02 -0.64366915769E+02  0.13551355712E+03  0.81436314676E+02 0.  0.
        -13    1    4    4    0    0 -0.26690348403E+02  0.43357447976E+02 -0.61595442828E+02  0.79913963548E+02  0.00000000000E+00 0.  1.
         14    1    4    4    0    0 -0.54348793863E+02 -0.11394838705E+02 -0.27714729412E+01  0.55599593575E+02  0.00000000000E+00 0. -1.
        -11    1    3    3    0    0 -0.26016666956E+01  0.30633835975E+02 -0.19981400700E+02  0.36666837197E+02  0.00000000000E+00 0.  1.
         11    1    3    3    0    0 -0.11016711360E+02 -0.52398438048E+02 -0.13397356122E+03  0.14427709224E+03  0.00000000000E+00 0. -1.
         -2    1    1    2    0  502  0.94657520321E+02 -0.10198007198E+02 -0.19478910468E+03  0.21681061046E+03  0.00000000000E+00 0.  1.
<scales pt_clust_5="13000.00000" pt_clust_6="13000.00000" pt_clust_7="13000.00000" pt_clust_8="13000.00000" pt_clust_9="89.02867"></scales>
<clustering>
<clus scale="   81.436">  5  6 -1 -1</clus>
<clus scale="   91.539">  7  8 -1 -1</clus>
<clus scale="   95.071">  2  7  1 -1</clus>
<clus scale="   89.029">  1  9  2 -1</clus>
<clus scale="   89.029">  1  5  2 -1</clus>
</clustering>
</event>
<event>
 9    2  0.4883225E-005  0.1533809E+03  0.7546771E-02  0.1213050E+00
         -3   -1    0    0    0  501 -0.00000000000E+00  0.00000000000E+00  0.91932041365E+02  0.91932041365E+02  0.00000000000E+00 0.  1.
         21   -1    0    0  501  502  0.00000000000E+00 -0.00000000000E+00 -0.51703662823E+03  0.51703662823E+03  0.00000000000E+00 0.  1.
         24    2    1    2    0    0  0.23173362097E+02 -0.66798750696E+02 -0.28276251524E+02  0.11076484259E+03  0.80437715956E+02 0.  0.
         23    2    1    2    0    0 -0.66957012385E+02 -0.64512977878E+02 -0.81714494758E+02  0.15402871079E+03  0.91664711161E+02 0.  0.
        -11    1    3    3    0    0  0.38814673255E+02 -0.19043835974E+02  0.13630751222E+02  0.45332592330E+02  0.00000000000E+00 0.  1.
         12    1    3    3    0    0 -0.15641311158E+02 -0.47754914723E+02 -0.41907002746E+02  0.65432250260E+02  0.00000000000E+00 0. -1.
        -13    1    4    4    0    0 -0.80163271444E+02 -0.18018952179E+02 -0.53868640003E+02  0.98247967420E+02  0.00000000000E+00 0.  1.
         13    1    4    4    0    0  0.13206259059E+02 -0.46494025699E+02 -0.27845854755E+02  0.55780743371E+02  0.00000000000E+00 0. -1.
         -4    1    1    2    0  502  0.43783650289E+02  0.13131172857E+03 -0.31511384058E+03  0.34417511621E+03  0.00000000000E+00 0.  1.
<scales pt_clust_5="13000.00000" pt_clust_6="13000.00000" pt_clust_7="13000.00000" pt_clust_8="13000.00000" pt_clust_9="122.97681"></scales>
<clustering>
<clus scale="   80.438">  5  6 -1 -1</clus>
<clus scale="   91.665">  7  8 -1 -1</clus>
<clus scale="  107.095">  1  5  2 -1</clus>
<clus scale="  122.977">  2  9  1 -1</clus>
<clus scale="  122.977">  2  5  1 -1</clus>
</clustering>
</event>
<event>
 9    2  0.4883225E-005  0.1199962E+03  0.7546771E-02  0.1245409E+00
         -1   -1    0    0    0  501 -0.00000000000E+00  0.00000000000E+00  0.99313599380E+03  0.99313599380E+03  0.00000000000E+00 0.  1.
         21   -1    0    0  501  502  0.00000000000E+00 -0.00000000000E+00 -0.35895411084E+02  0.35895411084E+02  0.00000000000E+00 0.  1.
         23    2    1    2    0    0  0.30792632509E+02 -0.72878232521E+02  0.33742235927E+03  0.35802802644E+03  0.89837610084E+02 0.  0.
         24    2    1    2    0    0  0.27989507119E+02  0.91354351873E+02  0.14504269610E+03  0.19224612441E+03  0.82414552990E+02 0.  0.
        -11    1    4    4    0    0 -0.20613683391E+02  0.69955139752E+02  0.79358010392E+02  0.10777912290E+03  0.00000000000E+00 0.  1.
         12    1    4    4    0    0  0.48603190510E+02  0.21399212122E+02  0.65684685704E+02  0.84467001505E+02  0.00000000000E+00 0. -1.
        -11    1    3    3    0    0  0.11961633353E+02  0.20662721069E+02  0.56278149776E+02  0.61133124054E+02  0.00000000000E+00 0. -1.
         11    1    3    3    0    0  0.18830999156E+02 -0.93540953590E+02  0.28114420950E+03  0.29689490238E+03  0.00000000000E+00 0.  1.
         -2    1    1    2    0  502 -0.58782139628E+02 -0.18476119352E+02  0.47477552734E+03  0.47875725403E+03  0.00000000000E+00 0.  1.
<scales pt_clust_5="13000.00000" pt_clust_6="13000.00000" pt_clust_7="13000.00000" pt_clust_8="13000.00000" pt_clust_9="61.61745"></scales>
<clustering>
<clus scale="   61.617">  2  9  1 -1</clus>
<clus scale="   82.415">  5  6 -1 -1</clus>
<clus scale="   89.838">  7  8 -1 -1</clus>
<clus scale="  114.545">  2  5  1 -1</clus>
<clus scale="   61.617">  2  5  1 -1</clus>
</clustering>
</event>
<event>
 9    2  0.4883225E-005  0.9312907E+02  0.7546771E-02  0.1301360E+00
         21   -1    0    0  501  502  0.00000000000E+00  0.00000000000E+00  0.20696870486E+03  0.20696870486E+03  0.00000000000E+00 0.  1.
          2   -1    0    0  502    0 -0.00000000000E+00 -0.00000000000E+00 -0.10592018335E+03  0.10592018335E+03  0.00000000000E+00 0. -1.
         24    2    1    2    0    0  0.19355397754E+00 -0.17389847635E+02 -0.68761788998E+02  0.10853402398E+03  0.82152336977E+02 0.  0.
         23    2    1    2    0    0 -0.29776440614E+01 -0.35239391671E+01  0.12985761904E+03  0.15917350534E+03  0.91934319323E+02 0.  0.
        -13    1    3    3    0    0  0.12519370421E+02 -0.37989795285E+02 -0.48867322328E+01  0.40296889873E+02  0.00000000000E+00 0.  1.
         14    1    3    3    0    0 -0.12325816444E+02  0.20599947649E+02 -0.63875056765E+02  0.68237134105E+02  0.00000000000E+00 0. -1.
        -13    1    4    4    0    0  0.38712225366E+02 -0.16680426890E+02  0.92566590617E+02  0.10171256920E+03  0.00000000000E+00 0. -1.
         13    1    4    4    0    0 -0.41689869428E+02  0.13156487723E+02  0.37291028422E+02  0.57460936147E+02  0.00000000000E+00 0.  1.
          1    1    1    2  501    0  0.27840900838E+01  0.20913786802E+02  0.39952691464E+02  0.45181358891E+02  0.00000000000E+00 0. -1.
<scales pt_clust_5="13000.00000" pt_clust_6="13000.00000" pt_clust_7="13000.00000" pt_clust_8="13000.00000" pt_clust_9="21.09829"></scales>
<clustering>
<clus scale="   21.098">  1  9  2 -1</clus>
<clus scale="   82.152">  5  6 -1 -1</clus>
<clus scale="   83.487">  2  5  1 -1</clus>
<clus scale="   91.934">  7  8 -1 -1</clus>
<clus scale="   21.098">  1  5  2 -1</clus>
</clustering>
</event>
<event>
 9    2  0.4883225E-005  0.1449760E+03  0.7546771E-02  0.1209201E+00
         21   -1    0    0  501  502  0.00000000000E+00  0.00000000000E+00  0.40167068740E+02  0.40167068740E+02  0.00000000000E+00 0.  1.
          2   -1    0    0  502    0 -0.00000000000E+00 -0.00000000000E+00 -0.77465939631E+03  0.77465939631E+03  0.00000000000E+00 0. -1.
         23    2    1    2    0    0 -0.72211422065E+02 -0.48487382127E+02 -0.26959479348E+03  0.29802218343E+03  0.92576203435E+02 0.  0.
         24    2    1    2    0    0  0.13170073950E+03  0.56941266665E+02 -0.36166814162E+03  0.39736076140E+03  0.80649472440E+02 0.  0.
        -11    1    4    4    0    0  0.12975359282E+03  0.46806293088E+02 -0.36162606452E+03  0.38704035249E+03  0.00000000000E+00 0.  1.
         12    1    4    4    0    0  0.19471466815E+01  0.10134973576E+02 -0.42077107160E-01  0.10320408910E+02  0.00000000000E+00 0. -1.
        -13    1    3    3    0    0 -0.74173408018E+02  0.32440782459E+01 -0.17695210374E+03  0.19189649689E+03  0.00000000000E+00 0.  1.
         13    1    3    3    0    0  0.19619859536E+01 -0.51731460373E+02 -0.92642689742E+02  0.10612568654E+03  0.00000000000E+00 0. -1.
          1    1    1    2  501    0 -0.59489317434E+02 -0.84538845374E+01 -0.10322939246E+03  0.11944352021E+03  0.00000000000E+00 0. -1.
<scales pt_clust_5="13000.00000" pt_clust_6="13000.00000" pt_clust_7="13000.00000" pt_clust_8="13000.00000" pt_clust_9="60.08700"></scales>
<clustering>
<clus scale="   60.087">  1  9  2 -1</clus>
<clus scale="   80.649">  5  6 -1 -1</clus>
<clus scale="   92.576">  7  8 -1 -1</clus>
<clus scale="  137.666">  1  5  2 -1</clus>
<clus scale="   60.087">  1  5  2 -1</clus>
</clustering>
</event>
<event>
 9    2  0.4883225E-005  0.1610009E+03  0.7546771E-02  0.1208123E+00
         21   -1    0    0  501  502  0.00000000000E+00  0.00000000000E+00  0.17471664200E+04  0.17471664200E+04  0.00000000000E+00 0. -1.
          2   -1    0    0  502    0 -0.00000000000E+00 -0.00000000000E+00 -0.25303581616E+02  0.25303581616E+02  0.00000000000E+00 0. -1.
         24    2    1    2    0    0 -0.36576545165E+02 -0.53227219415E+02  0.36898717659E+03  0.38305587085E+03  0.80057998738E+02 0.  0.
         23    2    1    2    0    0 -0.84928077241E+02  0.10990885631E+03  0.52538494538E+03  0.55113191875E+03  0.91784072889E+02 0.  0.
        -11    1    3    3    0    0  0.35834530918E+01 -0.36003591341E+02  0.53680246415E+02  0.64735373489E+02  0.00000000000E+00 0.  1.
         12    1    3    3    0    0 -0.40159998257E+02 -0.17223628074E+02  0.31530693017E+03  0.31832049736E+03  0.00000000000E+00 0. -1.
        -11    1    4    4    0    0 -0.27678263779E+02 -0.69220255846E+01  0.43726128267E+02  0.52210870681E+02  0.00000000000E+00 0.  1.
         11    1    4    4    0    0 -0.57249813462E+02  0.11683088190E+03  0.48165881711E+03  0.49892104807E+03  0.00000000000E+00 0. -1.
          1    1    1    2  501    0  0.12150462241E+03 -0.56681636895E+02  0.82749071643E+03  0.83828221203E+03  0.00000000000E+00 0. -1.
<scales pt_clust_5="13000.00000" pt_clust_6="13000.00000" pt_clust_7="13000.00000" pt_clust_8="13000.00000" pt_clust_9="132.27611"></scales>
<clustering>
<clus scale="   80.058">  5  6 -1 -1</clus>
<clus scale="   91.784">  7  8 -1 -1</clus>
<clus scale="  102.860">  2  5  1 -1</clus>
<clus scale="  132.276">  1  9  2 -1</clus>
<clus scale="  132.276">  1  5  2 -1</clus>
</clustering>
</event>
<event>
 9    2  0.4883225E-005  0.9663452E+02  0.7546771E-02  0.1292076E+00
         21   -1    0    0  501  502  0.00000000000E+00  0.00000000000E+00  0.29999469011E+02  0.29999469011E+02  0.00000000000E+00 0.  1.
          2   -1    0    0  502    0 -0.00000000000E+00 -0.00000000000E+00 -0.10418681862E+04  0.10418681862E+04  0.00000000000E+00 0. -1.
         24    2    1    2    0    0  0.23407163303E+02 -0.20429555953E+02 -0.85728383188E+03  0.86183654343E+03  0.82833550823E+02 0.  0.
         23    2    1    2    0    0 -0.38757381658E+01  0.51983022704E+02 -0.11327983401E+03  0.15450449569E+03  0.91225338587E+02 0.  0.
        -13    1    3    3    0    0  0.28845686096E+02  0.96185943928E+01 -0.11584561634E+03  0.11976976993E+03  0.00000000000E+00 0.  1.
         14    1    3    3    0    0 -0.54385227932E+01 -0.30048150346E+02 -0.74143821554E+03  0.74206677350E+03  0.00000000000E+00 0. -1.
        -11    1    4    4    0    0 -0.36943693206E+02  0.39115981418E+02 -0.24937298469E+02  0.59302321412E+02  0.00000000000E+00 0.  1.
         11    1    4    4    0    0  0.33067955040E+02  0.12867041286E+02 -0.88342535539E+02  0.95202174279E+02  0.00000000000E+00 0. -1.
          1    1    1    2  501    0 -0.19531425137E+02 -0.31553466750E+02 -0.41305051325E+02  0.55526616112E+02  0.00000000000E+00 0. -1.
<scales pt_clust_5="13000.00000" pt_clust_6="13000.00000" pt_clust_7="13000.00000" pt_clust_8="13000.00000" pt_clust_9="37.10927"></scales>
<clustering>
<clus scale="   37.109">  1  9  2 -1</clus>
<clus scale="   82.834">  5  6 -1 -1</clus>
<clus scale="   88.756">  2  5  1 -1</clus>
<clus scale="   91.225">  7  8 -1 -1</clus>
<clus scale="   37.109">  1  5  2 -1</clus>
</clustering>
</event>
<event>
 9    2  0.4883225E-005  0.1227334E+03  0.7546771E-02  0.1251035E+00
         21   -1    0    0  501  502  0.00000000000E+00  0.00000000000E+00  0.15150542377E+03  0.15150542377E+03  0.00000000000E+00 0. -1.
         -1   -1    0    0    0  501 -0.00000000000E+00 -0.00000000000E+00 -0.24155033762E+03  0.24155033762E+03  0.00000000000E+00 0.  1.
         23    2    1    2    0    0  0.42594878972E+01  0.32606434848E+02  0.49711578988E+02  0.10778534247E+03  0.89805991644E+02 0.  0.
         24    2    1    2    0    0 -0.51524962050E+02  0.53084507619E+02 -0.15130292204E+03  0.18672965226E+03  0.80638713740E+02 0.  0.
        -11    1    4    4    0    0 -0.54334480429E+01  0.53736469866E+02 -0.11827212356E+03  0.13002086664E+03  0.00000000000E+00 0.  1.
         12    1    4    4    0    0 -0.46091514008E+02 -0.65196224731E+00 -0.33030798475E+02  0.56708785617E+02  0.00000000000E+00 0. -1.
        -11    1    3    3    0    0  0.24488261979E+02 -0.94942072025E+01 -0.13228226869E+02  0.29407497875E+02  0.00000000000E+00 0.  1.
         11    1    3    3    0    0 -0.20228774082E+02  0.42100642050E+02  0.62939805857E+02  0.78377844594E+02  0.00000000000E+00 0. -1.
         -2    1    1    2    0  502  0.47265474153E+02 -0.85690942467E+02  0.11546429195E+02  0.98540766665E+02  0.00000000000E+00 0.  1.
<scales pt_clust_5="13000.00000" pt_clust_6="13000.00000" pt_clust_7="13000.00000" pt_clust_8="13000.00000" pt_clust_9="92.52512"></scales>
<clustering>
<clus scale="   80.639">  5  6 -1 -1</clus>
<clus scale="   89.806">  7  8 -1 -1</clus>
<clus scale="   95.637">  2  7  1 -1</clus>
<clus scale="   92.525">  1  9  2 -1</clus>
<clus scale="   92.525">  1  5  2 -1</clus>
</clustering>
</event>
<event>
 9    2  0.4883225E-005  0.1325942E+03  0.7546771E-02  0.1226646E+00
         21   -1    0    0  501  502  0.00000000000E+00  0.00000000000E+00  0.55085945142E+02  0.55085945142E+02  0.00000000000E+00 0. -1.
          2   -1    0    0  502    0 -0.00000000000E+00 -0.00000000000E+00 -0.76524846721E+03  0.76524846721E+03  0.00000000000E+00 0. -1.
         24    2    1    2    0    0 -0.83753777068E+02  0.52910198242E+02 -0.60850779701E+03  0.62216497053E+03  0.83626116042E+02 0.  0.
         23    2    1    2    0    0  0.63581483304E+02 -0.26027877919E+02 -0.11278865836E+03  0.16276400364E+03  0.95135608363E+02 0.  0.
        -13    1    3    3    0    0 -0.42057540872E+02  0.44583159135E+02 -0.15514535178E+03  0.16681299410E+03  0.00000000000E+00 0.  1.
         14    1    3    3    0    0 -0.41696236196E+02  0.83270391077E+01 -0.45336244523E+03  0.45535197643E+03  0.00000000000E+00 0. -1.
        -13    1    4    4    0    0  0.84079127413E+02 -0.39215695556E+02 -0.85342848555E+02  0.12605781310E+03  0.00000000000E+00 0.  1.
         13    1    4    4    0    0 -0.20497644109E+02  0.13187817637E+02 -0.27445809804E+02  0.36706190539E+02  0.00000000000E+00 0. -1.
          1    1    1    2  501    0  0.20172293764E+02 -0.26882320323E+02  0.11133933304E+02  0.35405438176E+02  0.00000000000E+00 0. -1.
<scales pt_clust_5="13000.00000" pt_clust_6="13000.00000" pt_clust_7="13000.00000" pt_clust_8="13000.00000" pt_clust_9="33.60923"></scales>
<clustering>
<clus scale="   33.609">  1  9  2 -1</clus>
<clus scale="   83.626">  5  6 -1 -1</clus>
<clus scale="   95.136">  7  8 -1 -1</clus>
<clus scale="  124.594">  2  5  1 -1</clus>
<clus scale="   33.609">  1  5  2 -1</clus>
</clustering>
</event>
<event>
 9    2  0.4883225E-005  0.1617648E+03  0.7546771E-02  0.1188354E+00
         -1   -1    0    0    0  501 -0.00000000000E+00  0.00000000000E+00  0.64338268512E+03  0.64338268512E+03  0.00000000000E+00 0.  1.
         21   -1    0    0  501  502  0.00000000000E+00 -0.00000000000E+00 -0.47458738528E+02  0.47458738528E+02  0.00000000000E+00 0. -1.
         23    2    1    2    0    0  0.79955863646E+02  0.94533147691E+02  0.28388039956E+03  0.32282474275E+03  0.91094879852E+02 0.  0.
         24    2    1    2    0    0 -0.81337643838E+02 -0.12042820302E+03  0.28899399853E+03  0.33332165398E+03  0.80417842765E+02 0.  0.
        -11    1    4    4    0    0 -0.94978493439E+02 -0.90660240983E+02  0.25016361409E+03  0.28252792309E+03  0.00000000000E+00 0.  1.
         12    1    4    4    0    0  0.13640849601E+02 -0.29767962034E+02  0.38830384446E+02  0.50793730890E+02  0.00000000000E+00 0. -1.
        -13    1    3    3    0    0 -0.18056428872E+02  0.26270172330E+02  0.85667132310E+02  0.91405766427E+02  0.00000000000E+00 0.  1.
         13    1    3    3    0    0  0.98012292518E+02  0.68262975361E+02  0.19821326725E+03  0.23141897633E+03  0.00000000000E+00 0. -1.
         -2    1    1    2    0  502  0.13817801915E+01  0.25895055326E+02  0.23049548499E+02  0.34695026918E+02  0.00000000000E+00 0.  1.
<scales pt_clust_5="13000.00000" pt_clust_6="13000.00000" pt_clust_7="13000.00000" pt_clust_8="13000.00000" pt_clust_9="25.93190"></scales>
<clustering>
<clus scale="   25.932">  2  9  1 -1</clus>
<clus scale="   80.418">  5  6 -1 -1</clus>
<clus scale="   91.095">  7  8 -1 -1</clus>
<clus scale="  156.002">  2  5  1 -1</clus>
<clus scale="   25.932">  2  5  1 -1</clus>
</clustering>
</event>
<event>
 9    2  0.4883225E-005  0.1250694E+03  0.7546771E-02  0.1248969E+00
         21   -1    0    0  501  502  0.00000000000E+00  0.00000000000E+00  0.42924622793E+02  0.42924622793E+02  0.00000000000E+00 0.  1.
         -1   -1    0    0    0  501 -0.00000000000E+00 -0.00000000000E+00 -0.59933041231E+03  0.59933041231E+03  0.00000000000E+00 0.  1.
         24    2    1    2    0    0  0.46113213118E+02 -0.20322798915E+02 -0.24898990149E+03  0.26620875180E+03  0.79571878890E+02 0.  0.
         23    2    1    2    0    0  0.55638162450E+02 -0.22048053098E+01 -0.19707531496E+03  0.22427053607E+03  0.91422794192E+02 0.  0.
        -13    1    3    3    0    0 -0.89489238005E-02  0.26183736115E+02 -0.46205568990E+02  0.53108781974E+02  0.00000000000E+00 0.  1.
         14    1    3    3    0    0  0.46122162042E+02 -0.46506535030E+02 -0.20278433250E+03  0.21309996983E+03  0.00000000000E+00 0. -1.
        -11    1    4    4    0    0 -0.18215981230E+02 -0.23288638440E+02 -0.66597679213E+02  0.72865859832E+02  0.00000000000E+00 0. -1.
         11    1    4    4    0    0  0.73854143680E+02  0.21083833130E+02 -0.13047763574E+03  0.15140467624E+03  0.00000000000E+00 0.  1.
         -2    1    1    2    0  502 -0.10175137557E+03  0.22527604225E+02 -0.11034057307E+03  0.15177574723E+03  0.00000000000E+00 0.  1.
<scales pt_clust_5="13000.00000" pt_clust_6="13000.00000" pt_clust_7="13000.00000" pt_clust_8="13000.00000" pt_clust_9="85.34772"></scales>
<clustering>
<clus scale="   79.572">  5  6 -1 -1</clus>
<clus scale="   91.423">  7  8 -1 -1</clus>
<clus scale="   94.187">  2  5  1 -1</clus>
<clus scale="   85.348">  1  9  2 -1</clus>
<clus scale="   85.348">  1  5  2 -1</clus>
</clustering>
</event>
<event>
 9    2  0.5247481E-005  0.1355645E+03  0.7546771E-02  0.1233372E+00
         -3   -1    0    0    0  501 -0.00000000000E+00  0.00000000000E+00  0.11138420497E+03  0.11138420497E+03  0.00000000000E+00 0.  1.
         21   -1    0    0  501  502  0.00000000000E+00 -0.00000000000E+00 -0.10017403382E+04  0.10017403382E+04  0.00000000000E+00 0.  1.
         23    2    1    2    0    0 -0.25492837958E+02 -0.37558424298E+02 -0.18165515722E+03  0.20807117001E+03  0.90744121675E+02 0.  0.
         24    2    1    2    0    0 -0.75930980912E+02 -0.78890191796E+01  0.61811362385E+02  0.12656668427E+03  0.79816856378E+02 0.  0.
        -11    1    4    4    0    0 -0.70267774249E+02 -0.80606261918E+01  0.80429929063E+02  0.10710512257E+03  0.00000000000E+00 0.  1.
         12    1    4    4    0    0 -0.56632066624E+01  0.17160701219E+00 -0.18618566677E+02  0.19461561699E+02  0.00000000000E+00 0. -1.
        -11    1    3    3    0    0  0.98359950239E+01 -0.54408374862E+02 -0.66709116721E+02  0.86643662821E+02  0.00000000000E+00 0. -1.
         11    1    3    3    0    0 -0.35328832982E+02  0.16849950565E+02 -0.11494604050E+03  0.12142750719E+03  0.00000000000E+00 0.  1.
         -4    1    1    2    0  502  0.10142381887E+03  0.45447443477E+02 -0.77051233841E+03  0.77848668890E+03  0.00000000000E+00 0.  1.
<scales pt_clust_5="13000.00000" pt_clust_6="13000.00000" pt_clust_7="13000.00000" pt_clust_8="13000.00000" pt_clust_9="109.57646"></scales>
<clustering>
<clus scale="   79.817">  5  6 -1 -1</clus>
<clus scale="   90.744">  7  8 -1 -1</clus>
<clus scale="  101.464">  1  7  2 -1</clus>
<clus scale="  109.576">  2  9  1 -1</clus>
<clus scale="  109.576">  2  5  1 -1</clus>
</clustering>
</event>
<event>
 9    2  0.4883225E-005  0.1117766E+03  0.7546771E-02  0.1260424E+00
         21   -1    0    0  501  502  0.00000000000E+00  0.00000000000E+00  0.39887855819E+03  0.39887855819E+03  0.00000000000E+00 0.  1.
          2   -1    0    0  502    0 -0.00000000000E+00 -0.00000000000E+00 -0.14415780266E+03  0.14415780266E+03  0.00000000000E+00 0. -1.
         24    2    1    2    0    0 -0.47358026677E+02 -0.53192089348E+02  0.15025397083E+02  0.10935107068E+03  0.81607064896E+02 0.  0.
         23    2    1    2    0    0 -0.31119737522E+02  0.74010836201E+02  0.30596753946E+03  0.32887984341E+03  0.89998745868E+02 0.  0.
        -11    1    3    3    0    0 -0.21904176156E+02 -0.66947027658E+02 -0.99388800617E+01  0.71137042265E+02  0.00000000000E+00 0.  1.
         12    1    3    3    0    0 -0.25453850521E+02  0.13754938309E+02  0.24964277145E+02  0.38214028413E+02  0.00000000000E+00 0. -1.
        -11    1    4    4    0    0  0.21250233433E+02  0.59583461080E+02  0.12753615477E+03  0.14236302901E+03  0.00000000000E+00 0. -1.
         11    1    4    4    0    0 -0.52369970955E+02  0.14427375121E+02  0.17843138469E+03  0.18651681440E+03  0.00000000000E+00 0.  1.
          1    1    1    2  501    0  0.78477764198E+02 -0.20818746853E+02 -0.66272181016E+02  0.10480544676E+03  0.00000000000E+00 0. -1.
<scales pt_clust_5="13000.00000" pt_clust_6="13000.00000" pt_clust_7="13000.00000" pt_clust_8="13000.00000" pt_clust_9="81.19228"></scales>
<clustering>
<clus scale="   81.192">  1  9  2 -1</clus>
<clus scale="   81.607">  5  6 -1 -1</clus>
<clus scale="   89.999">  7  8 -1 -1</clus>
<clus scale="  105.138">  2  5  1 -1</clus>
<clus scale="   81.192">  1  5  2 -1</clus>
</clustering>
</event>
<event>
 9    2  0.4883225E-005  0.1240272E+03  0.7546771E-02  0.1240132E+00
          2   -1    0    0  502    0 -0.00000000000E+00  0.00000000000E+00  0.14208681925E+04  0.14208681925E+04  0.00000000000E+00 0. -1.
         21   -1    0    0  501  502  0.00000000000E+00 -0.00000000000E+00 -0.15634731125E+02  0.15634731125E+02  0.00000000000E+00 0. -1.
         24    2    1    2    0    0  0.69835852930E+02  0.58612899553E+02  0.85491966222E+03  0.86351925085E+03  0.80407396347E+02 0.  0.
         23    2    1    2    0    0 -0.37582684147E+02 -0.52191860792E+02  0.29809258960E+03  0.31862755395E+03  0.92346508760E+02 0.  0.
        -13    1    3    3    0    0  0.41330084724E+02  0.45647051347E+01  0.14137943668E+03  0.14736742364E+03  0.00000000000E+00 0.  1.
         14    1    3    3    0    0  0.28505768206E+02  0.54048194419E+02  0.71354022555E+03  0.71615182721E+03  0.00000000000E+00 0. -1.
        -13    1    4    4    0    0 -0.47661315527E+02  0.94669223018E+01  0.15633549676E+03  0.16371319788E+03  0.00000000000E+00 0. -1.
         13    1    4    4    0    0  0.10078631380E+02 -0.61658783094E+02  0.14175709284E+03  0.15491435606E+03  0.00000000000E+00 0.  1.
          1    1    1    2  501    0 -0.32253168783E+02 -0.64210387610E+01  0.25222120952E+03  0.25435611879E+03  0.00000000000E+00 0. -1.
<scales pt_clust_5="13000.00000" pt_clust_6="13000.00000" pt_clust_7="13000.00000" pt_clust_8="13000.00000" pt_clust_9="32.88613"></scales>
<clustering>
<clus scale="   32.886">  2  9  1 -1</clus>
<clus scale="   80.407">  5  6 -1 -1</clus>
<clus scale="   92.347">  7  8 -1 -1</clus>
<clus scale="  115.413">  1  5  2 -1</clus>
<clus scale="   32.886">  2  5  1 -1</clus>
</clustering>
</event>
<event>
 9    2  0.4883225E-005  0.1909799E+03  0.7546771E-02  0.1173964E+00
         21   -1    0    0  501  502  0.00000000000E+00  0.00000000000E+00  0.36313461880E+02  0.36313461880E+02  0.00000000000E+00 0.  1.
          2   -1    0    0  502    0 -0.00000000000E+00 -0.00000000000E+00 -0.22173737606E+04  0.22173737606E+04  0.00000000000E+00 0. -1.
         24    2    1    2    0    0  0.10028654355E+03 -0.26069457830E+02 -0.50716513762E+03  0.52379186147E+03  0.80027681948E+02 0.  0.
         23    2    1    2    0    0 -0.10878981630E+03 -0.13997274515E+03 -0.41576431619E+03  0.46082659150E+03  0.89853142989E+02 0.  0.
        -13    1    3    3    0    0  0.37336203356E+01 -0.31274086401E+02 -0.83756837150E+02  0.89483049626E+02  0.00000000000E+00 0.  1.
         14    1    3    3    0    0  0.96552923213E+02  0.52046285701E+01 -0.42340830047E+03  0.43430881185E+03  0.00000000000E+00 0. -1.
        -13    1    4    4    0    0 -0.42164428205E+02 -0.11122701730E+01 -0.12284006673E+03  0.12987978343E+03  0.00000000000E+00 0. -1.
         13    1    4    4    0    0 -0.66625388094E+02 -0.13886047498E+03 -0.29292424946E+03  0.33094680807E+03  0.00000000000E+00 0.  1.
          1    1    1    2  501    0  0.85032727502E+01  0.16604220298E+03 -0.12581308450E+04  0.12690687695E+04  0.00000000000E+00 0. -1.
<scales pt_clust_5="13000.00000" pt_clust_6="13000.00000" pt_clust_7="13000.00000" pt_clust_8="13000.00000" pt_clust_9="168.52229"></scales>
<clustering>
<clus scale="   80.028">  5  6 -1 -1</clus>
<clus scale="   89.853">  7  8 -1 -1</clus>
<clus scale="  130.925">  2  5  1 -1</clus>
<clus scale="  168.522">  1  9  2 -1</clus>
<clus scale="  168.522">  1  5  2 -1</clus>
</clustering>
</event>
<event>
 9    2  0.4883225E-005  0.1057757E+03  0.7546771E-02  0.1273285E+00
         21   -1    0    0  501  502  0.00000000000E+00  0.00000000000E+00  0.15202501435E+02  0.15202501435E+02  0.00000000000E+00 0. -1.
          2   -1    0    0  502    0 -0.00000000000E+00 -0.00000000000E+00 -0.11716281736E+04  0.11716281736E+04  0.00000000000E+00 0. -1.
         24    2    1    2    0    0 -0.55417662692E+02 -0.20624733814E+02 -0.71674322741E+03  0.72369779455E+03  0.80753617892E+02 0.  0.
         23    2    1    2    0    0  0.26866592820E+02  0.24547713988E+02 -0.21344784767E+03  0.23507006835E+03  0.91507099660E+02 0.  0.
        -11    1    3    3    0    0 -0.15960748866E+01 -0.30378336893E+02 -0.99767859984E+02  0.10430252486E+03  0.00000000000E+00 0.  1.
         12    1    3    3    0    0 -0.53821587806E+02  0.97536030791E+01 -0.61697536743E+03  0.61939526968E+03  0.00000000000E+00 0. -1.
        -13    1    4    4    0    0 -0.19444520707E+02  0.27059124899E+02 -0.16369791153E+03  0.16705475708E+03  0.00000000000E+00 0.  1.
         13    1    4    4    0    0  0.46311113527E+02 -0.25114109104E+01 -0.49749936148E+02  0.68015311273E+02  0.00000000000E+00 0. -1.
          1    1    1    2  501    0  0.28551069873E+02 -0.39229801746E+01 -0.22623459708E+03  0.22806281214E+03  0.00000000000E+00 0. -1.
<scales pt_clust_5="13000.00000" pt_clust_6="13000.00000" pt_clust_7="13000.00000" pt_clust_8="13000.00000" pt_clust_9="28.81934"></scales>
<clustering>
<clus scale="   28.819">  1  9  2 -1</clus>
<clus scale="   80.754">  5  6 -1 -1</clus>
<clus scale="   91.507">  7  8 -1 -1</clus>
<clus scale="   96.623">  2  5  1 -1</clus>
<clus scale="   28.819">  1  5  2 -1</clus>
</clustering>
</event>
<event>
 9    2  0.4883225E-005  0.9736987E+02  0.7546771E-02  0.1291418E+00
         21   -1    0    0  501  502  0.00000000000E+00  0.00000000000E+00  0.34312271483E+02  0.34312271483E+02  0.00000000000E+00 0. -1.
         -1   -1    0    0    0  501 -0.00000000000E+00 -0.00000000000E+00 -0.42581642553E+03  0.42581642553E+03  0.00000000000E+00 0.  1.
         23    2    1    2    0    0 -0.28452273715E+02 -0.23112527751E+02 -0.26106223419E+03  0.27885531976E+03  0.90901476432E+02 0.  0.
         24    2    1    2    0    0  0.36357491913E+02 -0.69423894761E-01 -0.60429451642E+02  0.10710032917E+03  0.80603286812E+02 0.  0.
        -11    1    4    4    0    0  0.50164280471E+02  0.69411281614E+01 -0.71818773322E+02  0.87878157109E+02  0.00000000000E+00 0.  1.
         12    1    4    4    0    0 -0.13806788558E+02 -0.70105520562E+01  0.11389321681E+02  0.19222172062E+02  0.00000000000E+00 0. -1.
        -13    1    3    3    0    0 -0.49914481665E+02 -0.44342369790E+02 -0.15974446647E+03  0.17313577275E+03  0.00000000000E+00 0.  1.
         13    1    3    3    0    0  0.21462207950E+02  0.21229842040E+02 -0.10131776772E+03  0.10571954700E+03  0.00000000000E+00 0. -1.
         -2    1    1    2    0  502 -0.79052181985E+01  0.23181951645E+02 -0.70012468211E+02  0.74173048082E+02  0.00000000000E+00 0.  1.
<scales pt_clust_5="13000.00000" pt_clust_6="13000.00000" pt_clust_7="13000.00000" pt_clust_8="13000.00000" pt_clust_9="24.49277"></scales>
<clustering>
<clus scale="   24.493">  1  9  2 -1</clus>
<clus scale="   80.603">  5  6 -1 -1</clus>
<clus scale="   87.833">  1  5  2 -1</clus>
<clus scale="   90.901">  7  8 -1 -1</clus>
<clus scale="   24.493">  1  5  2 -1</clus>
</clustering>
</event>
<event>
 9    2  0.4883225E-005  0.1038195E+03  0.7546771E-02  0.1277462E+00
         21   -1    0    0  501  502  0.00000000000E+00  0.00000000000E+00  0.22664942511E+03  0.22664942511E+03  0.00000000000E+00 0.  1.
          2   -1    0    0  502    0 -0.00000000000E+00 -0.00000000000E+00 -0.52934536656E+03  0.52934536656E+03  0.00000000000E+00 0. -1.
         24    2    1    2    0    0 -0.24125768015E+02  0.42847741893E+02 -0.49965193418E+03  0.50854729927E+03  0.80934038562E+02 0.  0.
         23    2    1    2    0    0 -0.10908181739E+02 -0.40040617161E+02  0.90859721693E+02  0.13568132438E+03  0.91824252291E+02 0.  0.
        -13    1    3    3    0    0 -0.27124309976E+02  0.99893874587E+01 -0.50517384342E+02  0.58202424127E+02  0.00000000000E+00 0.  1.
         14    1    3    3    0    0  0.29985419611E+01  0.32858354434E+02 -0.44913454984E+03  0.45034487514E+03  0.00000000000E+00 0. -1.
        -11    1    4    4    0    0 -0.30289814145E+02 -0.52644027956E+02  0.94442265011E+02  0.11228627672E+03  0.00000000000E+00 0.  1.
         11    1    4    4    0    0  0.19381632405E+02  0.12603410795E+02 -0.35825433173E+01  0.23395047659E+02  0.00000000000E+00 0. -1.
          1    1    1    2  501    0  0.35033949754E+02 -0.28071247325E+01  0.10609627104E+03  0.11176616801E+03  0.00000000000E+00 0. -1.
<scales pt_clust_5="13000.00000" pt_clust_6="13000.00000" pt_clust_7="13000.00000" pt_clust_8="13000.00000" pt_clust_9="35.14623"></scales>
<clustering>
<clus scale="   35.146">  1  9  2 -1</clus>
<clus scale="   80.934">  5  6 -1 -1</clus>
<clus scale="   91.824">  7  8 -1 -1</clus>
<clus scale="   94.324">  2  5  1 -1</clus>
<clus scale="   35.146">  1  5  2 -1</clus>
</clustering>
</event>
<event>
 9    2  0.4883225E-005  0.1273090E+03  0.7546771E-02  0.1234145E+00
          2   -1    0    0  502    0 -0.00000000000E+00  0.00000000000E+00  0.23390140582E+03  0.23390140582E+03  0.00000000000E+00 0. -1.
         21   -1    0    0  501  502  0.00000000000E+00 -0.00000000000E+00 -0.21523091061E+03  0.21523091061E+03  0.00000000000E+00 0. -1.
         24    2    1    2    0    0  0.16219058572E+01 -0.10612796404E+03  0.14811062092E+03  0.19938423706E+03  0.80941600099E+02 0.  0.
         23    2    1    2    0    0 -0.32869786397E+02  0.50238275965E+02 -0.38807997620E+01  0.10880400676E+03  0.90658392058E+02 0.  0.
        -11    1    3    3    0    0 -0.32793745559E+02 -0.16413509896E+02  0.32006291062E+02  0.48674795557E+02  0.00000000000E+00 0.  1.
         12    1    3    3    0    0  0.34415651417E+02 -0.89714454146E+02  0.11610432986E+03  0.15070944150E+03  0.00000000000E+00 0. -1.
        -13    1    4    4    0    0 -0.48231291201E+02  0.23646693968E+02  0.31248404006E+02  0.62144077267E+02  0.00000000000E+00 0. -1.
         13    1    4    4    0    0  0.15361504803E+02  0.26591581997E+02 -0.35129203768E+02  0.46659929493E+02  0.00000000000E+00 0.  1.
          1    1    1    2  501    0  0.31247880540E+02  0.55889688077E+02 -0.12555932595E+03  0.14094407261E+03  0.00000000000E+00 0. -1.
<scales pt_clust_5="13000.00000" pt_clust_6="13000.00000" pt_clust_7="13000.00000" pt_clust_8="13000.00000" pt_clust_9="64.03192"></scales>
<clustering>
<clus scale="   64.032">  2  9  1 -1</clus>
<clus scale="   80.942">  5  6 -1 -1</clus>
<clus scale="   90.658">  7  8 -1 -1</clus>
<clus scale="  120.583">  1  5  2 -1</clus>
<clus scale="   64.032">  2  5  1 -1</clus>
</clustering>
</event>
<event>
 9    2  0.4883225E-005  0.1935209E+03  0.7546771E-02  0.1187090E+00
         21   -1    0    0  501  502  0.00000000000E+00  0.00000000000E+00  0.97657942678E+02  0.97657942678E+02  0.00000000000E+00 0.  1.
          2   -1    0    0  502    0 -0.00000000000E+00 -0.00000000000E+00 -0.10432678365E+04  0.10432678365E+04  0.00000000000E+00 0. -1.
         24    2    1    2    0    0  0.43239639531E+02 -0.78481611528E+01 -0.68533919150E+03  0.69171572509E+03  0.82762170521E+02 0.  0.
         23    2    1    2    0    0 -0.17848307423E+03  0.70375108170E+02 -0.12038913594E+03  0.24483965912E+03  0.92973388602E+02 0.  0.
        -13    1    3    3    0    0  0.13559879378E+02  0.35251015662E+02 -0.19759140750E+03  0.20116875689E+03  0.00000000000E+00 0.  1.
         14    1    3    3    0    0  0.29679760153E+02 -0.43099176815E+02 -0.48774778400E+03  0.49054696819E+03  0.00000000000E+00 0. -1.
        -13    1    4    4    0    0 -0.46444926659E+02  0.63144405171E+02 -0.63528254603E+02  0.10089690902E+03  0.00000000000E+00 0. -1.
         13    1    4    4    0    0 -0.13203814757E+03  0.72307029989E+01 -0.56860881341E+02  0.14394275010E+03  0.00000000000E+00 0.  1.
          1    1    1    2  501    0  0.13524343469E+03 -0.62526947017E+02 -0.13988156640E+03  0.20437039499E+03  0.00000000000E+00 0. -1.
<scales pt_clust_5="13000.00000" pt_clust_6="13000.00000" pt_clust_7="13000.00000" pt_clust_8="13000.00000" pt_clust_9="169.72422"></scales>
<clustering>
<clus scale="   82.762">  5  6 -1 -1</clus>
<clus scale="   92.973">  7  8 -1 -1</clus>
<clus scale="   93.706">  2  5  1 -1</clus>
<clus scale="  169.724">  1  9  2 -1</clus>
<clus scale="  169.724">  1  5  2 -1</clus>
</clustering>
</event>
<event>
 9    2  0.4883225E-005  0.1608162E+03  0.7546771E-02  0.1189747E+00
          2   -1    0    0  502    0 -0.00000000000E+00  0.00000000000E+00  0.24543334072E+03  0.24543334072E+03  0.00000000000E+00 0. -1.
         21   -1    0    0  501  502  0.00000000000E+00 -0.00000000000E+00 -0.63717719509E+03  0.63717719509E+03  0.00000000000E+00 0. -1.
         23    2    1    2    0    0 -0.10582633495E+03 -0.93561635609E+02  0.18219618894E+03  0.24869883552E+03  0.93288084436E+02 0.  0.
         24    2    1    2    0    0  0.10353260517E+03 -0.26232641090E+02 -0.19586043933E+03  0.23730091267E+03  0.80890417641E+02 0.  0.
        -11    1    4    4    0    0  0.95179850234E+02  0.10418700289E+02 -0.12980393174E+03  0.16129728423E+03  0.00000000000E+00 0.  1.
         12    1    4    4    0    0  0.83527549380E+01 -0.36651341380E+02 -0.66056507591E+02  0.76003628433E+02  0.00000000000E+00 0. -1.
        -11    1    3    3    0    0 -0.90344418730E+02 -0.60752724546E+02  0.66792468799E+02  0.12772721489E+03  0.00000000000E+00 0. -1.
         11    1    3    3    0    0 -0.15481916215E+02 -0.32808911063E+02  0.11540372014E+03  0.12097162062E+03  0.00000000000E+00 0.  1.
          1    1    1    2  501    0  0.22937297730E+01  0.11979427670E+03 -0.37807960398E+03  0.39661078764E+03  0.00000000000E+00 0. -1.
<scales pt_clust_5="13000.00000" pt_clust_6="13000.00000" pt_clust_7="13000.00000" pt_clust_8="13000.00000" pt_clust_9="119.81623"></scales>
<clustering>
<clus scale="   80.890">  5  6 -1 -1</clus>
<clus scale="   93.288">  7  8 -1 -1</clus>
<clus scale="  119.816">  2  9  1 -1</clus>
<clus scale="  153.956">  2  5  1 -1</clus>
<clus scale="  119.816">  2  5  1 -1</clus>
</clustering>
</event>
<event>
 9    2  0.4883225E-005  0.1015057E+03  0.7546771E-02  0.1281500E+00
         21   -1    0    0  501  502  0.00000000000E+00  0.00000000000E+00  0.21568899805E+02  0.21568899805E+02  0.00000000000E+00 0. -1.
          2   -1    0    0  502    0 -0.00000000000E+00 -0.00000000000E+00 -0.68884855998E+03  0.68884855998E+03  0.00000000000E+00 0. -1.
         24    2    1    2    0    0  0.27557500155E+02  0.30246862056E+02 -0.28204035690E+03  0.29647054935E+03  0.81692932585E+02 0.  0.
         23    2    1    2    0    0 -0.52374700947E+02 -0.21915159138E+02 -0.19996745932E+03  0.22683473314E+03  0.90794426440E+02 0.  0.
        -11    1    3    3    0    0 -0.11201841154E+02 -0.19359833203E+02 -0.35010880283E+02  0.41545711272E+02  0.00000000000E+00 0.  1.
         12    1    3    3    0    0  0.38759341309E+02  0.49606695259E+02 -0.24702947662E+03  0.25492483808E+03  0.00000000000E+00 0. -1.
        -13    1    4    4    0    0  0.20589258990E+02  0.11459347596E+02 -0.72350812065E+02  0.76091223144E+02  0.00000000000E+00 0.  1.
         13    1    4    4    0    0 -0.72963959937E+02 -0.33374506734E+02 -0.12761664726E+03  0.15074351000E+03  0.00000000000E+00 0. -1.
          1    1    1    2  501    0  0.24817200791E+02 -0.83317029179E+01 -0.18527184396E+03  0.18711217729E+03  0.00000000000E+00 0. -1.
<scales pt_clust_5="13000.00000" pt_clust_6="13000.00000" pt_clust_7="13000.00000" pt_clust_8="13000.00000" pt_clust_9="26.17845"></scales>
<clustering>
<clus scale="   26.178">  1  9  2 -1</clus>
<clus scale="   81.693">  5  6 -1 -1</clus>
<clus scale="   90.794">  7  8 -1 -1</clus>
<clus scale="   93.453">  2  5  1 -1</clus>
<clus scale="   26.178">  1  5  2 -1</clus>
</clustering>
</event>
<event>
 9    2  0.4883225E-005  0.1036877E+03  0.7546771E-02  0.1274938E+00
          2   -1    0    0  502    0 -0.00000000000E+00  0.00000000000E+00  0.11037028714E+03  0.11037028714E+03  0.00000000000E+00 0. -1.
         21   -1    0    0  501  502  0.00000000000E+00 -0.00000000000E+00 -0.41389922448E+03  0.41389922448E+03  0.00000000000E+00 0.  1.
         23    2    1    2    0    0  0.15465077814E+02 -0.55712545730E+02  0.69444257339E+02  0.12411196258E+03  0.85077717376E+02 0.  0.
         24    2    1    2    0    0  0.55930542337E+01  0.76784062149E+02 -0.24744584655E+03  0.27114371699E+03  0.79764615180E+02 0.  0.
        -11    1    4    4    0    0  0.41200601641E+02  0.25805492634E+02 -0.11301625992E+03  0.12302880976E+03  0.00000000000E+00 0.  1.
         12    1    4    4    0    0 -0.35607547408E+02  0.50978569515E+02 -0.13442958663E+03  0.14811490723E+03  0.00000000000E+00 0. -1.
        -13    1    3    3    0    0 -0.31033033075E+02 -0.11996749874E+01  0.24210729930E+02  0.39378265651E+02  0.00000000000E+00 0. -1.
         13    1    3    3    0    0  0.46498110890E+02 -0.54512870743E+02  0.45233527409E+02  0.84733696926E+02  0.00000000000E+00 0.  1.
          1    1    1    2  501    0 -0.21058132048E+02 -0.21071516420E+02 -0.12552734814E+03  0.12901383205E+03  0.00000000000E+00 0. -1.
<scales pt_clust_5="13000.00000" pt_clust_6="13000.00000" pt_clust_7="13000.00000" pt_clust_8="13000.00000" pt_clust_9="29.79016"></scales>
<clustering>
<clus scale="   29.790">  2  9  1 -1</clus>
<clus scale="   79.765">  5  6 -1 -1</clus>
<clus scale="   85.078">  7  8 -1 -1</clus>
<clus scale="   99.375">  2  5  1 -1</clus>
<clus scale="   29.790">  2  5  1 -1</clus>
</clustering>
</event>
<event>
 9    2  0.4883225E-005  0.1128559E+03  0.7546771E-02  0.1258559E+00
         21   -1    0    0  501  502  0.00000000000E+00  0.00000000000E+00  0.30477307194E+02  0.30477307194E+02  0.00000000000E+00 0. -1.
          2   -1    0    0  502    0 -0.00000000000E+00 -0.00000000000E+00 -0.98177568622E+03  0.98177568622E+03  0.00000000000E+00 0. -1.
         24    2    1    2    0    0 -0.40497578080E+01  0.70817397875E+02 -0.73992877385E+03  0.74784973835E+03  0.82177468977E+02 0.  0.
         23    2    1    2    0    0 -0.12323418376E+02 -0.54586161215E+02 -0.21596046805E+03  0.24089559751E+03  0.90885914779E+02 0.  0.
        -11    1    3    3    0    0  0.33968585809E+02  0.10006541654E+02 -0.19089089893E+03  0.19414770406E+03  0.00000000000E+00 0.  1.
         12    1    3    3    0    0 -0.38018343617E+02  0.60810856221E+02 -0.54903787492E+03  0.55370203429E+03  0.00000000000E+00 0. -1.
        -13    1    4    4    0    0  0.25679653573E+02 -0.61840520736E+02 -0.15279208281E+03  0.16682060779E+03  0.00000000000E+00 0.  1.
         13    1    4    4    0    0 -0.38003071949E+02  0.72543595208E+01 -0.63168385236E+02  0.74074989726E+02  0.00000000000E+00 0. -1.
          1    1    1    2  501    0  0.16373176184E+02 -0.16231236660E+02  0.45908628634E+01  0.23507657554E+02  0.00000000000E+00 0. -1.
<scales pt_clust_5="13000.00000" pt_clust_6="13000.00000" pt_clust_7="13000.00000" pt_clust_8="13000.00000" pt_clust_9="23.05502"></scales>
<clustering>
<clus scale="   23.055">  1  9  2 -1</clus>
<clus scale="   82.177">  5  6 -1 -1</clus>
<clus scale="   90.886">  7  8 -1 -1</clus>
<clus scale="  105.969">  2  5  1 -1</clus>
<clus scale="   23.055">  1  5  2 -1</clus>
</clustering>
</event>
<event>
 9    2  0.4883225E-005  0.9804433E+02  0.7546771E-02  0.1290305E+00
          2   -1    0    0  502    0 -0.00000000000E+00  0.00000000000E+00  0.40455149356E+03  0.40455149356E+03  0.00000000000E+00 0. -1.
         21   -1    0    0  501  502  0.00000000000E+00 -0.00000000000E+00 -0.18177447457E+03  0.18177447457E+03  0.00000000000E+00 0. -1.
         24    2    1    2    0    0 -0.10725591932E+02 -0.48300338860E+02  0.23458415930E+03  0.25307060841E+03  0.81037299993E+02 0.  0.
         23    2    1    2    0    0  0.20607163677E+02  0.34733881246E+01  0.14326182636E+03  0.17153496707E+03  0.91997687004E+02 0.  0.
        -11    1    3    3    0    0  0.72065415127E+01  0.21597046701E+02  0.54139694945E+02  0.58732216334E+02  0.00000000000E+00 0.  1.
         12    1    3    3    0    0 -0.17932133445E+02 -0.69897385561E+02  0.18044446436E+03  0.19433839208E+03  0.00000000000E+00 0. -1.
        -11    1    4    4    0    0  0.91440540371E+01 -0.34391323086E+02  0.12103254879E+03  0.12615567643E+03  0.00000000000E+00 0. -1.
         11    1    4    4    0    0  0.11463109640E+02  0.37864711211E+02  0.22229277573E+02  0.45379290641E+02  0.00000000000E+00 0.  1.
          1    1    1    2  501    0 -0.98815717452E+01  0.44826950735E+02 -0.15506896668E+03  0.16172039265E+03  0.00000000000E+00 0. -1.
<scales pt_clust_5="13000.00000" pt_clust_6="13000.00000" pt_clust_7="13000.00000" pt_clust_8="13000.00000" pt_clust_9="45.90317"></scales>
<clustering>
<clus scale="   45.903">  2  9  1 -1</clus>
<clus scale="   81.037">  5  6 -1 -1</clus>
<clus scale="   87.842">  1  5  2 -1</clus>
<clus scale="   91.998">  7  8 -1 -1</clus>
<clus scale="   45.903">  2  5  1 -1</clus>
</clustering>
</event>
<event>
 9    2  0.4883225E-005  0.1234097E+03  0.7546771E-02  0.1256693E+00
          2   -1    0    0  502    0 -0.00000000000E+00  0.00000000000E+00  0.58963926017E+03  0.58963926017E+03  0.00000000000E+00 0. -1.
         21   -1    0    0  501  502  0.00000000000E+00 -0.00000000000E+00 -0.93301144548E+02  0.93301144548E+02  0.00000000000E+00 0. -1.
         24    2    1    2    0    0 -0.41784029880E+01 -0.41683181544E+02  0.29614135200E+03  0.30784574307E+03  0.72899619240E+02 0.  0.
         23    2    1    2    0    0  0.66442289228E+02 -0.19329509509E+02  0.25019703847E+03  0.27459905238E+03  0.89542580772E+02 0.  0.
        -13    1    3    3    0    0  0.24634614027E+02  0.13660297097E+01  0.44067220105E+02  0.50503961560E+02  0.00000000000E+00 0.  1.
         14    1    3    3    0    0 -0.28813017015E+02 -0.43049211254E+02  0.25207413190E+03  0.25734178151E+03  0.00000000000E+00 0. -1.
        -11    1    4    4    0    0  0.30639045675E+02 -0.54770447228E+02  0.14182577285E+03  0.15509062787E+03  0.00000000000E+00 0.  1.
         11    1    4    4    0    0  0.35803243553E+02  0.35440937720E+02  0.10837126562E+03  0.11950842451E+03  0.00000000000E+00 0. -1.
          1    1    1    2  501    0 -0.62263886240E+02  0.61012691053E+02 -0.50000274846E+02  0.10049560928E+03  0.00000000000E+00 0. -1.
<scales pt_clust_5="13000.00000" pt_clust_6="13000.00000" pt_clust_7="13000.00000" pt_clust_8="13000.00000" pt_clust_9="84.92396"></scales>
<clustering>
<clus scale="   72.900">  5  6 -1 -1</clus>
<clus scale="   84.079">  1  5  2 -1</clus>
<clus scale="   84.924">  2  9  1 -1</clus>
<clus scale="   89.543">  7  8 -1 -1</clus>
<clus scale="   84.924">  2  5  1 -1</clus>
</clustering>
</event>
<event>
 9    2  0.4883225E-005  0.1030501E+03  0.7546771E-02  0.1280184E+00
         21   -1    0    0  501  502  0.00000000000E+00  0.00000000000E+00  0.49270078783E+03  0.49270078783E+03  0.00000000000E+00 0. -1.
         -3   -1    0    0    0  501 -0.00000000000E+00 -0.00000000000E+00 -0.35459721511E+02  0.35459721511E+02  0.00000000000E+00 0.  1.
         24    2    1    2    0    0 -0.49186073744E+02 -0.18862164055E+02  0.94115385234E+02  0.13497276828E+03  0.81147343487E+02 0.  0.
         23    2    1    2    0    0  0.21711165683E+02 -0.18940419307E+02  0.29204279194E+03  0.30811904523E+03  0.93905481792E+02 0.  0.
        -13    1    3    3    0    0 -0.49122295251E+02 -0.46737279772E+02  0.57157568432E+02  0.88681231612E+02  0.00000000000E+00 0.  1.
         14    1    3    3    0    0 -0.63778492887E-01  0.27875115717E+02  0.36957816802E+02  0.46291536663E+02  0.00000000000E+00 0. -1.
        -11    1    4    4    0    0  0.10972188032E+02 -0.56925964466E+02  0.19230871205E+03  0.20085715091E+03  0.00000000000E+00 0. -1.
         11    1    4    4    0    0  0.10738977651E+02  0.37985545160E+02  0.99734079894E+02  0.10726189433E+03  0.00000000000E+00 0.  1.
         -4    1    1    2    0  502  0.27474908061E+02  0.37802583361E+02  0.71082889140E+02  0.85068695831E+02  0.00000000000E+00 0.  1.
<scales pt_clust_5="13000.00000" pt_clust_6="13000.00000" pt_clust_7="13000.00000" pt_clust_8="13000.00000" pt_clust_9="46.73230"></scales>
<clustering>
<clus scale="   46.732">  1  9  2 -1</clus>
<clus scale="   81.147">  5  6 -1 -1</clus>
<clus scale="   91.575">  2  5  1 -1</clus>
<clus scale="   93.905">  7  8 -1 -1</clus>
<clus scale="   46.732">  1  5  2 -1</clus>
</clustering>
</event>
<event>
 9    2  0.4883225E-005  0.1212888E+03  0.7546771E-02  0.1244487E+00
          2   -1    0    0  502    0 -0.00000000000E+00  0.00000000000E+00  0.12538291372E+04  0.12538291372E+04  0.00000000000E+00 0. -1.
         21   -1    0    0  501  502  0.00000000000E+00 -0.00000000000E+00 -0.69931500280E+02  0.69931500280E+02  0.00000000000E+00 0. -1.
         24    2    1    2    0    0  0.77122935762E+02  0.27437497350E+02  0.93782251818E+03  0.94470543341E+03  0.79098146844E+02 0.  0.
         23    2    1    2    0    0 -0.87601262359E+02  0.33006425212E+02  0.28010589821E+03  0.30890281951E+03  0.90544091018E+02 0.  0.
        -11    1    3    3    0    0  0.34763151249E+02  0.14873781382E+02  0.12287757213E+03  0.12856361768E+03  0.00000000000E+00 0.  1.
         12    1    3    3    0    0  0.42359784512E+02  0.12563715968E+02  0.81494494605E+03  0.81614181573E+03  0.00000000000E+00 0. -1.
        -11    1    4    4    0    0 -0.59065455724E+02  0.13125567876E+02  0.26351034103E+03  0.27036772814E+03  0.00000000000E+00 0. -1.
         11    1    4    4    0    0 -0.28535806634E+02  0.19880857336E+02  0.16595557181E+02  0.38535091369E+02  0.00000000000E+00 0.  1.
          1    1    1    2  501    0  0.10478326597E+02 -0.60443922562E+02 -0.34030779491E+02  0.70152384533E+02  0.00000000000E+00 0. -1.
<scales pt_clust_5="13000.00000" pt_clust_6="13000.00000" pt_clust_7="13000.00000" pt_clust_8="13000.00000" pt_clust_9="61.34544"></scales>
<clustering>
<clus scale="   61.345">  2  9  1 -1</clus>
<clus scale="   79.098">  5  6 -1 -1</clus>
<clus scale="   90.544">  7  8 -1 -1</clus>
<clus scale="  113.001">  1  5  2 -1</clus>
<clus scale="   61.345">  2  5  1 -1</clus>
</clustering>
</event>
<event>
 9    2  0.4883225E-005  0.1005980E+03  0.7546771E-02  0.1289218E+00
          2   -1    0    0  502    0 -0.00000000000E+00  0.00000000000E+00  0.74639943831E+03  0.74639943831E+03  0.00000000000E+00 0. -1.
         21   -1    0    0  501  502  0.00000000000E+00 -0.00000000000E+00 -0.31606218867E+03  0.31606218867E+03  0.00000000000E+00 0. -1.
         24    2    1    2    0    0  0.21698076573E+02  0.11810777985E+02  0.69728265556E+03  0.70227183315E+03  0.79826843101E+02 0.  0.
         23    2    1    2    0    0  0.18339398886E+02  0.14398098638E+02 -0.12762592757E+02  0.10154175661E+03  0.98001049816E+02 0.  0.
        -13    1    3    3    0    0  0.42255103753E+02 -0.10444861855E+02  0.23497276303E+03  0.23897026656E+03  0.00000000000E+00 0.  1.
         14    1    3    3    0    0 -0.20557027180E+02  0.22255639841E+02  0.46230989254E+03  0.46330156659E+03  0.00000000000E+00 0. -1.
        -13    1    4    4    0    0  0.37135665981E+02 -0.32635420164E+02 -0.55556767871E+00  0.49441247887E+02  0.00000000000E+00 0. -1.
         13    1    4    4    0    0 -0.18796267095E+02  0.47033518802E+02 -0.12207025078E+02  0.52100508720E+02  0.00000000000E+00 0.  1.
          1    1    1    2  501    0 -0.40037475458E+02 -0.26208876623E+02 -0.25418281317E+03  0.25864803723E+03  0.00000000000E+00 0. -1.
<scales pt_clust_5="13000.00000" pt_clust_6="13000.00000" pt_clust_7="13000.00000" pt_clust_8="13000.00000" pt_clust_9="47.85295"></scales>
<clustering>
<clus scale="   47.853">  2  9  1 -1</clus>
<clus scale="   79.827">  5  6 -1 -1</clus>
<clus scale="   82.994">  1  5  2 -1</clus>
<clus scale="   98.001">  7  8 -1 -1</clus>
<clus scale="   47.853">  2  5  1 -1</clus>
</clustering>
</event>
<event>
 9    2  0.4883225E-005  0.8695323E+02  0.7546771E-02  0.1320427E+00
         21   -1    0    0  501  502  0.00000000000E+00  0.00000000000E+00  0.14174321841E+03  0.14174321841E+03  0.00000000000E+00 0.  1.
         -1   -1    0    0    0  501 -0.00000000000E+00 -0.00000000000E+00 -0.89022263504E+02  0.89022263504E+02  0.00000000000E+00 0.  1.
         24    2    1    2    0    0  0.24237223986E+02 -0.43651801480E+01 -0.27792823251E+02  0.77169872833E+02  0.67647989065E+02 0.  0.
         23    2    1    2    0    0 -0.20421548509E+02  0.34195264202E+02  0.33631648852E+02  0.97897069225E+02  0.82863699054E+02 0.  0.
        -13    1    3    3    0    0  0.43396549218E+02  0.22309964534E+00 -0.35447239537E+02  0.56034070424E+02  0.00000000000E+00 0.  1.
         14    1    3    3    0    0 -0.19159325232E+02 -0.45882797933E+01  0.76544162856E+01  0.21135802409E+02  0.00000000000E+00 0. -1.
        -13    1    4    4    0    0 -0.36929547493E+02 -0.14796935789E+02  0.19478105864E+02  0.44296020079E+02  0.00000000000E+00 0. -1.
         13    1    4    4    0    0  0.16507998984E+02  0.48992199991E+02  0.14153542988E+02  0.53601049146E+02  0.00000000000E+00 0.  1.
         -2    1    1    2    0  502 -0.38156754773E+01 -0.29830084054E+02  0.46882129302E+02  0.55698539854E+02  0.00000000000E+00 0.  1.
<scales pt_clust_5="13000.00000" pt_clust_6="13000.00000" pt_clust_7="13000.00000" pt_clust_8="13000.00000" pt_clust_9="30.07313"></scales>
<clustering>
<clus scale="   30.073">  1  9  2 -1</clus>
<clus scale="   67.648">  5  6 -1 -1</clus>
<clus scale="   72.600">  2  5  1 -1</clus>
<clus scale="   82.864">  7  8 -1 -1</clus>
<clus scale="   30.073">  1  5  2 -1</clus>
</clustering>
</event>
<event>
 9    2  0.4883225E-005  0.1514586E+03  0.7546771E-02  0.1200390E+00
          2   -1    0    0  502    0 -0.00000000000E+00  0.00000000000E+00  0.58474192428E+02  0.58474192428E+02  0.00000000000E+00 0. -1.
         21   -1    0    0  501  502  0.00000000000E+00 -0.00000000000E+00 -0.59721173916E+03  0.59721173916E+03  0.00000000000E+00 0. -1.
         23    2    1    2    0    0 -0.10943972675E+03  0.36355494135E+02 -0.18047483608E+03  0.23263079475E+03  0.90813790043E+02 0.  0.
         24    2    1    2    0    0  0.11373349989E+03 -0.71053910794E+02 -0.35480107687E+03  0.38792111466E+03  0.81332772069E+02 0.  0.
        -11    1    4    4    0    0  0.68171093623E+02 -0.40366466586E+00 -0.11355543782E+03  0.13244734203E+03  0.00000000000E+00 0.  1.
         12    1    4    4    0    0  0.45562406270E+02 -0.70650246128E+02 -0.24124563905E+03  0.25547377263E+03  0.00000000000E+00 0. -1.
        -13    1    3    3    0    0 -0.10042396874E+03  0.56550244738E+02 -0.11213541372E+03  0.16080191133E+03  0.00000000000E+00 0. -1.
         13    1    3    3    0    0 -0.90157580076E+01 -0.20194750603E+02 -0.68339422359E+02  0.71828883416E+02  0.00000000000E+00 0.  1.
          1    1    1    2  501    0 -0.42937731477E+01  0.34698416659E+02 -0.34616337836E+01  0.35134022186E+02  0.00000000000E+00 0. -1.
<scales pt_clust_5="13000.00000" pt_clust_6="13000.00000" pt_clust_7="13000.00000" pt_clust_8="13000.00000" pt_clust_9="34.96309"></scales>
<clustering>
<clus scale="   34.963">  2  9  1 -1</clus>
<clus scale="   81.333">  5  6 -1 -1</clus>
<clus scale="   90.814">  7  8 -1 -1</clus>
<clus scale="  145.971">  2  5  1 -1</clus>
<clus scale="   34.963">  2  5  1 -1</clus>
</clustering>
</event>
<event>
 9    2  0.4883225E-005  0.1758941E+03  0.7546771E-02  0.1173012E+00
         21   -1    0    0  501  502  0.00000000000E+00  0.00000000000E+00  0.22182662118E+03  0.22182662118E+03  0.00000000000E+00 0.  1.
          2   -1    0    0  502    0 -0.00000000000E+00 -0.00000000000E+00 -0.16790479566E+03  0.16790479566E+03  0.00000000000E+00 0. -1.
         23    2    1    2    0    0 -0.10339724839E+03 -0.10505167410E+03 -0.44225358219E+01  0.17310805946E+03  0.90664194808E+02 0.  0.
         24    2    1    2    0    0  0.12579971448E+03  0.92140230096E+02  0.30232213369E+02  0.17842821716E+03  0.81285003466E+02 0.  0.
        -11    1    4    4    0    0  0.95440213543E+02  0.26931682646E+02  0.37744510695E+02  0.10610748314E+03  0.00000000000E+00 0.  1.
         12    1    4    4    0    0  0.30359500936E+02  0.65208547450E+02 -0.75122973261E+01  0.72320734017E+02  0.00000000000E+00 0. -1.
        -11    1    3    3    0    0 -0.33786457395E+02 -0.32463783933E+02 -0.44712783232E+02  0.64766155937E+02  0.00000000000E+00 0. -1.
         11    1    3    3    0    0 -0.69610791000E+02 -0.72587890169E+02  0.40290247410E+02  0.10834190352E+03  0.00000000000E+00 0.  1.
          1    1    1    2  501    0 -0.22402466084E+02  0.12911444005E+02  0.28112147975E+02  0.38195140224E+02  0.00000000000E+00 0. -1.
<scales pt_clust_5="13000.00000" pt_clust_6="13000.00000" pt_clust_7="13000.00000" pt_clust_8="13000.00000" pt_clust_9="25.85683"></scales>
<clustering>
<clus scale="   25.857">  1  9  2 -1</clus>
<clus scale="   81.285">  5  6 -1 -1</clus>
<clus scale="   90.664">  7  8 -1 -1</clus>
<clus scale="  171.248">  1  5  2 -1</clus>
<clus scale="   25.857">  1  5  2 -1</clus>
</clustering>
</event>
<event>
 9    2  0.4883225E-005  0.1416071E+03  0.7546771E-02  0.1213463E+00
          2   -1    0    0  502    0 -0.00000000000E+00  0.00000000000E+00  0.38606796207E+03  0.38606796207E+03  0.00000000000E+00 0. -1.
         21   -1    0    0  501  502  0.00000000000E+00 -0.00000000000E+00 -0.16485648790E+03  0.16485648790E+03  0.00000000000E+00 0.  1.
         24    2    1    2    0    0  0.10177395721E+03  0.25337468093E+02  0.24863596813E+03  0.28169339888E+03  0.80817081551E+02 0.  0.
         23    2    1    2    0    0 -0.93262687633E+02 -0.11508713593E+03  0.27246229247E+01  0.17417099726E+03  0.91570382524E+02 0.  0.
        -11    1    3    3    0    0 -0.32897042811E+01  0.26517948808E+02  0.40170812678E+02  0.48246429448E+02  0.00000000000E+00 0.  1.
         12    1    3    3    0    0  0.10506366149E+03 -0.11804807157E+01  0.20846515545E+03  0.23344696943E+03  0.00000000000E+00 0. -1.
        -11    1    4    4    0    0 -0.42231979478E+02  0.41175541675E+01 -0.10840180527E+02  0.43795020914E+02  0.00000000000E+00 0. -1.
         11    1    4    4    0    0 -0.51030708154E+02 -0.11920469009E+03  0.13564803452E+02  0.13037597634E+03  0.00000000000E+00 0.  1.
          1    1    1    2  501    0 -0.85112695739E+01  0.89749667832E+02 -0.30149116886E+02  0.95060053833E+02  0.00000000000E+00 0. -1.
<scales pt_clust_5="13000.00000" pt_clust_6="13000.00000" pt_clust_7="13000.00000" pt_clust_8="13000.00000" pt_clust_9="90.15234"></scales>
<clustering>
<clus scale="   80.817">  5  6 -1 -1</clus>
<clus scale="   90.152">  2  9  1 -1</clus>
<clus scale="   91.570">  7  8 -1 -1</clus>
<clus scale="  134.903">  1  5  2 -1</clus>
<clus scale="   90.152">  2  5  1 -1</clus>
</clustering>
</event>
<event>
 9    2  0.4883225E-005  0.9737523E+02  0.7546771E-02  0.1288225E+00
          2   -1    0    0  502    0 -0.00000000000E+00  0.00000000000E+00  0.11420562102E+03  0.11420562102E+03  0.00000000000E+00 0. -1.
         21   -1    0    0  501  502  0.00000000000E+00 -0.00000000000E+00 -0.10140000568E+03  0.10140000568E+03  0.00000000000E+00 0. -1.
         23    2    1    2    0    0  0.18680398812E+02  0.27650274542E+02  0.10933626094E+02  0.98810228636E+02  0.92360284329E+02 0.  0.
         24    2    1    2    0    0 -0.31320273889E+02 -0.84524846854E+01  0.24398119115E+01  0.93803138501E+02  0.87981089199E+02 0.  0.
        -11    1    4    4    0    0  0.30288873617E+02  0.48802045804E+01  0.23285749972E+01  0.30767751352E+02  0.00000000000E+00 0.  1.
         12    1    4    4    0    0 -0.61609147506E+02 -0.13332689266E+02  0.11123691429E+00  0.63035387150E+02  0.00000000000E+00 0. -1.
        -11    1    3    3    0    0 -0.29984372572E+02 -0.12139314050E+02  0.15327630392E+02  0.35796114280E+02  0.00000000000E+00 0.  1.
         11    1    3    3    0    0  0.48664771384E+02  0.39789588592E+02 -0.43940042983E+01  0.63014114355E+02  0.00000000000E+00 0. -1.
          1    1    1    2  501    0  0.12639875077E+02 -0.19197789857E+02 -0.56782265964E+00  0.22992259565E+02  0.00000000000E+00 0. -1.
<scales pt_clust_5="13000.00000" pt_clust_6="13000.00000" pt_clust_7="13000.00000" pt_clust_8="13000.00000" pt_clust_9="22.98525"></scales>
<clustering>
<clus scale="   22.985">  2  9  1 -1</clus>
<clus scale="   87.981">  5  6 -1 -1</clus>
<clus scale="   92.360">  7  8 -1 -1</clus>
<clus scale="   93.232">  2  5  1 -1</clus>
<clus scale="   22.985">  2  5  1 -1</clus>
</clustering>
</event>
<event>
 9    2  0.4883225E-005  0.1855885E+03  0.7546771E-02  0.1162765E+00
          2   -1    0    0  502    0 -0.00000000000E+00  0.00000000000E+00  0.53757966012E+03  0.53757966012E+03  0.00000000000E+00 0. -1.
         21   -1    0    0  501  502  0.00000000000E+00 -0.00000000000E+00 -0.12003730487E+03  0.12003730487E+03  0.00000000000E+00 0. -1.
         24    2    1    2    0    0  0.43499290016E+02  0.12513680094E+03  0.18113212991E+03  0.23938228020E+03  0.83328388978E+02 0.  0.
         23    2    1    2    0    0 -0.85523213127E+02 -0.21167711307E+03  0.19985883184E+03  0.31532093398E+03  0.85803954231E+02 0.  0.
        -13    1    3    3    0    0  0.36033504927E+02  0.94331124612E+01  0.67178938295E+02  0.76814105726E+02  0.00000000000E+00 0.  1.
         14    1    3    3    0    0  0.74657850886E+01  0.11570368848E+03  0.11395319161E+03  0.16256817448E+03  0.00000000000E+00 0. -1.
        -11    1    4    4    0    0 -0.50417084286E+02 -0.19383799114E+03  0.18667769750E+03  0.27379483549E+03  0.00000000000E+00 0. -1.
         11    1    4    4    0    0 -0.35106128842E+02 -0.17839121928E+02  0.13181134340E+02  0.41526098491E+02  0.00000000000E+00 0.  1.
          1    1    1    2  501    0  0.42023923112E+02  0.86540312132E+02  0.36551393509E+02  0.10291375081E+03  0.00000000000E+00 0. -1.
<scales pt_clust_5="13000.00000" pt_clust_6="13000.00000" pt_clust_7="13000.00000" pt_clust_8="13000.00000" pt_clust_9="96.20414"></scales>
<clustering>
<clus scale="   83.328">  5  6 -1 -1</clus>
<clus scale="   85.804">  7  8 -1 -1</clus>
<clus scale="   96.204">  2  9  1 -1</clus>
<clus scale="  184.457">  1  5  2 -1</clus>
<clus scale="   96.204">  2  5  1 -1</clus>
</clustering>
</event>
<event>
 9    2  0.4883225E-005  0.1084730E+03  0.7546771E-02  0.1268763E+00
         21   -1    0    0  501  502  0.00000000000E+00  0.00000000000E+00  0.37252206235E+02  0.37252206235E+02  0.00000000000E+00 0. -1.
          2   -1    0    0  502    0 -0.00000000000E+00 -0.00000000000E+00 -0.41048897318E+03  0.41048897318E+03  0.00000000000E+00 0. -1.
         23    2    1    2    0    0 -0.36997612040E+02  0.29268767252E+02 -0.22235313246E+03  0.24570461330E+03  0.93297145989E+02 0.  0.
         24    2    1    2    0    0  0.61586415030E+02 -0.35600597313E+02 -0.10925696520E+03  0.15327714753E+03  0.80600933407E+02 0.  0.
        -13    1    4    4    0    0  0.38329404554E+02 -0.35297357696E+02 -0.11755242077E+03  0.12858311842E+03  0.00000000000E+00 0.  1.
         14    1    4    4    0    0  0.23257010476E+02 -0.30323961740E+00  0.82954555733E+01  0.24694029111E+02  0.00000000000E+00 0. -1.
        -11    1    3    3    0    0  0.22392918614E+02 -0.53905608173E+01 -0.12134475909E+03  0.12351134162E+03  0.00000000000E+00 0.  1.
         11    1    3    3    0    0 -0.59390530654E+02  0.34659328070E+02 -0.10100837337E+03  0.12219327168E+03  0.00000000000E+00 0. -1.
          1    1    1    2  501    0 -0.24588802990E+02  0.63318300608E+01 -0.41626669282E+02  0.48759418577E+02  0.00000000000E+00 0. -1.
<scales pt_clust_5="13000.00000" pt_clust_6="13000.00000" pt_clust_7="13000.00000" pt_clust_8="13000.00000" pt_clust_9="25.39098"></scales>
<clustering>
<clus scale="   25.391">  1  9  2 -1</clus>
<clus scale="   80.601">  5  6 -1 -1</clus>
<clus scale="   93.297">  7  8 -1 -1</clus>
<clus scale="   97.768">  1  5  2 -1</clus>
<clus scale="   25.391">  1  5  2 -1</clus>
</clustering>
</event>
<event>
 9    2  0.4883225E-005  0.1053655E+03  0.7546771E-02  0.1273790E+00
         -3   -1    0    0    0  501 -0.00000000000E+00  0.00000000000E+00  0.11866826851E+03  0.11866826851E+03  0.00000000000E+00 0.  1.
         21   -1    0    0  501  502  0.00000000000E+00 -0.00000000000E+00 -0.21750324096E+03  0.21750324096E+03  0.00000000000E+00 0. -1.
         24    2    1    2    0    0 -0.64774950442E+02  0.81266516290E+01  0.59051647567E+02  0.11946245614E+03  0.80761034385E+02 0.  0.
         23    2    1    2    0    0  0.16785374736E+02 -0.53024802292E+01 -0.68181814975E+02  0.11493515015E+03  0.90837567922E+02 0.  0.
        -11    1    3    3    0    0 -0.45176386564E+02 -0.40126446873E+01  0.77594306477E+02  0.89877047226E+02  0.00000000000E+00 0.  1.
         12    1    3    3    0    0 -0.19598563877E+02  0.12139296316E+02 -0.18542658910E+02  0.29585408913E+02  0.00000000000E+00 0. -1.
        -11    1    4    4    0    0 -0.35621660756E+02  0.54095963501E+01 -0.13596882870E+02  0.38510280075E+02  0.00000000000E+00 0.  1.
         11    1    4    4    0    0  0.52407035492E+02 -0.10712076579E+02 -0.54584932105E+02  0.76424870079E+02  0.00000000000E+00 0. -1.
         -4    1    1    2    0  502  0.47989575705E+02 -0.28241713998E+01 -0.89704805044E+02  0.10177390318E+03  0.00000000000E+00 0.  1.
<scales pt_clust_5="13000.00000" pt_clust_6="13000.00000" pt_clust_7="13000.00000" pt_clust_8="13000.00000" pt_clust_9="48.07260"></scales>
<clustering>
<clus scale="   48.073">  2  9  1 -1</clus>
<clus scale="   80.761">  5  6 -1 -1</clus>
<clus scale="   90.838">  7  8 -1 -1</clus>
<clus scale="   96.813">  1  5  2 -1</clus>
<clus scale="   48.073">  2  5  1 -1</clus>
</clustering>
</event>
<event>
 9    2  0.4883225E-005  0.1404421E+03  0.7546771E-02  0.1215228E+00
         21   -1    0    0  501  502  0.00000000000E+00  0.00000000000E+00  0.27560189244E+03  0.27560189244E+03  0.00000000000E+00 0.  1.
          2   -1    0    0  502    0 -0.00000000000E+00 -0.00000000000E+00 -0.74189667245E+03  0.74189667245E+03  0.00000000000E+00 0. -1.
         24    2    1    2    0    0 -0.99446214645E+01 -0.10858057566E+03 -0.68087887944E+03  0.69424563883E+03  0.80574944371E+02 0.  0.
         23    2    1    2    0    0  0.86466275473E+01  0.75774727983E+02  0.14403421259E+02  0.12039777492E+03  0.92041252121E+02 0.  0.
        -13    1    3    3    0    0 -0.84465208290E+01 -0.51912413000E+02 -0.12681094778E+03  0.13728531900E+03  0.00000000000E+00 0.  1.
         14    1    3    3    0    0 -0.14981006355E+01 -0.56668162659E+02 -0.55406793166E+03  0.55696031983E+03  0.00000000000E+00 0. -1.
        -13    1    4    4    0    0 -0.20500926799E+02  0.63522006124E+02  0.41635257010E+02  0.78669103770E+02  0.00000000000E+00 0.  1.
         13    1    4    4    0    0  0.29147554346E+02  0.12252721859E+02 -0.27231835751E+02  0.41728671147E+02  0.00000000000E+00 0. -1.
          1    1    1    2  501    0  0.12979939172E+01  0.32805847676E+02  0.20018067817E+03  0.20285515114E+03  0.00000000000E+00 0. -1.
<scales pt_clust_5="13000.00000" pt_clust_6="13000.00000" pt_clust_7="13000.00000" pt_clust_8="13000.00000" pt_clust_9="32.83152"></scales>
<clustering>
<clus scale="   32.832">  1  9  2 -1</clus>
<clus scale="   80.575">  5  6 -1 -1</clus>
<clus scale="   92.041">  7  8 -1 -1</clus>
<clus scale="  133.209">  2  5  1 -1</clus>
<clus scale="   32.832">  1  5  2 -1</clus>
</clustering>
</event>
<event>
 9    2  0.4883225E-005  0.1077461E+03  0.7546771E-02  0.1270839E+00
          2   -1    0    0  502    0 -0.00000000000E+00  0.00000000000E+00  0.19860792065E+03  0.19860792065E+03  0.00000000000E+00 0. -1.
         21   -1    0    0  501  502  0.00000000000E+00 -0.00000000000E+00 -0.14140622477E+03  0.14140622477E+03  0.00000000000E+00 0.  1.
         24    2    1    2    0    0  0.14767263733E+01 -0.58202752313E+02  0.14880887580E+03  0.17807659816E+03  0.78596769652E+02 0.  0.
         23    2    1    2    0    0  0.10663505672E+02  0.36716288081E+02 -0.46617588392E+02  0.11062364345E+03  0.92750174007E+02 0.  0.
        -13    1    3    3    0    0 -0.16582239464E+02 -0.26169339334E+02  0.72477942193E+01  0.31817220304E+02  0.00000000000E+00 0.  1.
         14    1    3    3    0    0  0.18058965838E+02 -0.32033412980E+02  0.14156108158E+03  0.14625937786E+03  0.00000000000E+00 0. -1.
        -11    1    4    4    0    0  0.39108464843E+02  0.53083710413E+02 -0.40081233936E+02  0.77161244465E+02  0.00000000000E+00 0.  1.
         11    1    4    4    0    0 -0.28444959171E+02 -0.16367422332E+02 -0.65363544559E+01  0.33462398982E+02  0.00000000000E+00 0. -1.
          1    1    1    2  501    0 -0.12140232046E+02  0.21486464233E+02 -0.44989591525E+02  0.51313903817E+02  0.00000000000E+00 0. -1.
<scales pt_clust_5="13000.00000" pt_clust_6="13000.00000" pt_clust_7="13000.00000" pt_clust_8="13000.00000" pt_clust_9="24.67901"></scales>
<clustering>
<clus scale="   24.679">  2  9  1 -1</clus>
<clus scale="   78.597">  5  6 -1 -1</clus>
<clus scale="   92.750">  7  8 -1 -1</clus>
<clus scale="   95.834">  1  5  2 -1</clus>
<clus scale="   24.679">  2  5  1 -1</clus>
</clustering>
</event>
<event>
 9    2  0.5209180E-005  0.1143449E+03  0.7546771E-02  0.1255839E+00
         21   -1    0    0  501  502  0.00000000000E+00  0.00000000000E+00  0.69870378742E+03  0.69870378742E+03  0.00000000000E+00 0. -1.
          2   -1    0    0  502    0 -0.00000000000E+00 -0.00000000000E+00 -0.61101386429E+02  0.61101386429E+02  0.00000000000E+00 0. -1.
         23    2    1    2    0    0  0.48465745486E+02  0.68000390839E+02  0.14747190063E+03  0.19194316180E+03  0.90117890820E+02 0.  0.
         24    2    1    2    0    0 -0.39175214977E+02 -0.91381509298E+01  0.49939113006E+03  0.50755582242E+03  0.81260130619E+02 0.  0.
        -11    1    4    4    0    0  0.19771035170E+02  0.91186280978E+01  0.59519158918E+02  0.63376442692E+02  0.00000000000E+00 0.  1.
         12    1    4    4    0    0 -0.58946250146E+02 -0.18256779028E+02  0.43987197114E+03  0.44417937973E+03  0.00000000000E+00 0. -1.
        -11    1    3    3    0    0  0.17928181141E+02 -0.17370273684E+02  0.64025535576E+02  0.68719831873E+02  0.00000000000E+00 0. -1.
         11    1    3    3    0    0  0.30537564345E+02  0.85370664523E+02  0.83446365057E+02  0.12322332993E+03  0.00000000000E+00 0.  1.
          1    1    1    2  501    0 -0.92905305087E+01 -0.58862239910E+02 -0.92606296984E+01  0.60306189622E+02  0.00000000000E+00 0. -1.
<scales pt_clust_5="13000.00000" pt_clust_6="13000.00000" pt_clust_7="13000.00000" pt_clust_8="13000.00000" pt_clust_9="59.59095"></scales>
<clustering>
<clus scale="   59.591">  1  9  2 -1</clus>
<clus scale="   81.260">  5  6 -1 -1</clus>
<clus scale="   90.118">  7  8 -1 -1</clus>
<clus scale="  107.502">  1  5  2 -1</clus>
<clus scale="   59.591">  1  5  2 -1</clus>
</clustering>
</event>
<event>
 9    2  0.4883225E-005  0.1164883E+03  0.7546771E-02  0.1252877E+00
         21   -1    0    0  501  502  0.00000000000E+00  0.00000000000E+00  0.16073777585E+02  0.16073777585E+02  0.00000000000E+00 0. -1.
          2   -1    0    0  502    0 -0.00000000000E+00 -0.00000000000E+00 -0.11387875269E+04  0.11387875269E+04  0.00000000000E+00 0. -1.
         24    2    1    2    0    0  0.81332246001E+02 -0.12422932805E+02 -0.60426224914E+03  0.61511636554E+03  0.80411528504E+02 0.  0.
         23    2    1    2    0    0 -0.50090646676E+02  0.23692851827E+02 -0.29529247325E+03  0.31412800718E+03  0.91696979355E+02 0.  0.
        -13    1    3    3    0    0  0.18559144794E+02 -0.41310649708E+02 -0.27202402366E+03  0.27576816546E+03  0.00000000000E+00 0.  1.
         14    1    3    3    0    0  0.62773101208E+02  0.28887716903E+02 -0.33223822549E+03  0.33934820008E+03  0.00000000000E+00 0. -1.
        -13    1    4    4    0    0 -0.42473733079E+02 -0.16454457556E+02 -0.60093121216E+02  0.75405241148E+02  0.00000000000E+00 0.  1.
         13    1    4    4    0    0 -0.76169135974E+01  0.40147309383E+02 -0.23519935203E+03  0.23872276603E+03  0.00000000000E+00 0. -1.
          1    1    1    2  501    0 -0.31241599325E+02 -0.11269919022E+02 -0.22315902690E+03  0.22561693175E+03  0.00000000000E+00 0. -1.
<scales pt_clust_5="13000.00000" pt_clust_6="13000.00000" pt_clust_7="13000.00000" pt_clust_8="13000.00000" pt_clust_9="33.21219"></scales>
<clustering>
<clus scale="   33.212">  1  9  2 -1</clus>
<clus scale="   80.412">  5  6 -1 -1</clus>
<clus scale="   91.697">  7  8 -1 -1</clus>
<clus scale="  107.829">  2  5  1 -1</clus>
<clus scale="   33.212">  1  5  2 -1</clus>
</clustering>
</event>
<event>
 9    2  0.4883225E-005  0.9885180E+02  0.7546771E-02  0.1288582E+00
         21   -1    0    0  501  502  0.00000000000E+00  0.00000000000E+00  0.39960728301E+02  0.39960728301E+02  0.00000000000E+00 0. -1.
          2   -1    0    0  502    0 -0.00000000000E+00 -0.00000000000E+00 -0.36319405682E+03  0.36319405682E+03  0.00000000000E+00 0. -1.
         24    2    1    2    0    0  0.11353882569E+02 -0.32363527695E+02 -0.18027110072E+03  0.20065499278E+03  0.81169254013E+02 0.  0.
         23    2    1    2    0    0  0.18204595041E+02  0.40239254991E+02 -0.13752809191E+03  0.17143115041E+03  0.92325827054E+02 0.  0.
        -11    1    3    3    0    0 -0.12789909478E+02 -0.35323830433E+02 -0.29048733484E+02  0.47488774441E+02  0.00000000000E+00 0.  1.
         12    1    3    3    0    0  0.24143792047E+02  0.29603027373E+01 -0.15122236724E+03  0.15316621833E+03  0.00000000000E+00 0. -1.
        -11    1    4    4    0    0  0.18963399027E+02  0.64685890037E+02 -0.60371937378E+02  0.90491136005E+02  0.00000000000E+00 0. -1.
         11    1    4    4    0    0 -0.75880398601E+00 -0.24446635046E+02 -0.77156154536E+02  0.80940014402E+02  0.00000000000E+00 0.  1.
          1    1    1    2  501    0 -0.29558477610E+02 -0.78757272961E+01 -0.54341358835E+01  0.31068641938E+02  0.00000000000E+00 0. -1.
<scales pt_clust_5="13000.00000" pt_clust_6="13000.00000" pt_clust_7="13000.00000" pt_clust_8="13000.00000" pt_clust_9="30.58972"></scales>
<clustering>
<clus scale="   30.590">  1  9  2 -1</clus>
<clus scale="   81.169">  5  6 -1 -1</clus>
<clus scale="   88.522">  2  5  1 -1</clus>
<clus scale="   92.326">  7  8 -1 -1</clus>
<clus scale="   30.590">  1  5  2 -1</clus>
</clustering>
</event>
<event>
 9    2  0.4883225E-005  0.9402618E+02  0.7546771E-02  0.1301608E+00
          4   -1    0    0  502    0 -0.00000000000E+00  0.00000000000E+00  0.13320692572E+03  0.13320692572E+03  0.00000000000E+00 0. -1.
         21   -1    0    0  501  502  0.00000000000E+00 -0.00000000000E+00 -0.17330909224E+03  0.17330909224E+03  0.00000000000E+00 0.  1.
         24    2    1    2    0    0 -0.85403118215E+01  0.11824348509E+02  0.87773466267E+02  0.11875830561E+03  0.78654952976E+02 0.  0.
         23    2    1    2    0    0  0.35025267548E+02 -0.32455601104E+02 -0.98724289139E+02  0.14329534286E+03  0.92233045114E+02 0.  0.
        -13    1    3    3    0    0 -0.14589446577E+02 -0.27643350806E+02  0.12722952600E+02  0.33747300901E+02  0.00000000000E+00 0.  1.
         14    1    3    3    0    0  0.60491347551E+01  0.39467699315E+02  0.75050513667E+02  0.85011004712E+02  0.00000000000E+00 0. -1.
        -13    1    4    4    0    0 -0.24036199333E+02 -0.36648803451E+02 -0.33207204600E+02  0.54987199512E+02  0.00000000000E+00 0. -1.
         13    1    4    4    0    0  0.59061466881E+02  0.41932023476E+01 -0.65517084539E+02  0.88308143353E+02  0.00000000000E+00 0.  1.
          3    1    1    2  501    0 -0.26484955726E+02  0.20631252595E+02 -0.29151343650E+02  0.44462369483E+02  0.00000000000E+00 0. -1.
<scales pt_clust_5="13000.00000" pt_clust_6="13000.00000" pt_clust_7="13000.00000" pt_clust_8="13000.00000" pt_clust_9="33.57233"></scales>
<clustering>
<clus scale="   33.572">  2  9  1 -1</clus>
<clus scale="   78.655">  5  6 -1 -1</clus>
<clus scale="   80.750">  1  5  2 -1</clus>
<clus scale="   92.233">  7  8 -1 -1</clus>
<clus scale="   33.572">  2  5  1 -1</clus>
</clustering>
</event>
<event>
 9    2  0.4883225E-005  0.2219042E+03  0.7546771E-02  0.1133479E+00
         21   -1    0    0  501  502  0.00000000000E+00  0.00000000000E+00  0.10561219072E+03  0.10561219072E+03  0.00000000000E+00 0. -1.
          2   -1    0    0  502    0 -0.00000000000E+00 -0.00000000000E+00 -0.10909539490E+04  0.10909539490E+04  0.00000000000E+00 0. -1.
         23    2    1    2    0    0 -0.12589823156E+02  0.21208182884E+03 -0.65896588634E+03  0.69857627167E+03  0.92927725702E+02 0.  0.
         24    2    1    2    0    0 -0.96128196229E+02 -0.16150771583E+03 -0.71151547154E+02  0.21600262613E+03  0.79178402672E+02 0.  0.
        -13    1    4    4    0    0  0.74944535477E+00 -0.57213794960E+02 -0.41281646418E+02  0.70556036829E+02  0.00000000000E+00 0.  1.
         14    1    4    4    0    0 -0.96877641584E+02 -0.10429392087E+03 -0.29869900737E+02  0.14544658930E+03  0.00000000000E+00 0. -1.
        -13    1    3    3    0    0 -0.51050907003E+02  0.15345994445E+03 -0.45308045661E+03  0.48108008670E+03  0.00000000000E+00 0.  1.
         13    1    3    3    0    0  0.38461083847E+02  0.58621884388E+02 -0.20588542973E+03  0.21749618497E+03  0.00000000000E+00 0. -1.
          1    1    1    2  501    0  0.10871801939E+03 -0.50574113009E+02 -0.25522432474E+03  0.28198724188E+03  0.00000000000E+00 0. -1.
<scales pt_clust_5="13000.00000" pt_clust_6="13000.00000" pt_clust_7="13000.00000" pt_clust_8="13000.00000" pt_clust_9="119.90564"></scales>
<clustering>
<clus scale="   79.178">  5  6 -1 -1</clus>
<clus scale="   92.928">  7  8 -1 -1</clus>
<clus scale="  119.906">  1  9  2 -1</clus>
<clus scale="  216.507">  1  5  2 -1</clus>
<clus scale="  119.906">  1  5  2 -1</clus>
</clustering>
</event>
<event>
 9    2  0.4883225E-005  0.1486776E+03  0.7546771E-02  0.1204254E+00
          2   -1    0    0  502    0 -0.00000000000E+00  0.00000000000E+00  0.67787987238E+03  0.67787987238E+03  0.00000000000E+00 0. -1.
         21   -1    0    0  501  502  0.00000000000E+00 -0.00000000000E+00 -0.70478990714E+02  0.70478990714E+02  0.00000000000E+00 0.  1.
         24    2    1    2    0    0  0.12700630149E+03 -0.36326195984E+02  0.42113005263E+03  0.44857414070E+03  0.80112704043E+02 0.  0.
         23    2    1    2    0    0 -0.46778904952E+02  0.84784392076E+02  0.70216384950E+02  0.15060943651E+03  0.91521596155E+02 0.  0.
        -11    1    3    3    0    0  0.49042332722E+02 -0.21689165569E+02  0.67770155007E+02  0.86419698053E+02  0.00000000000E+00 0.  1.
         12    1    3    3    0    0  0.77963968771E+02 -0.14637030415E+02  0.35335989762E+03  0.36215444265E+03  0.00000000000E+00 0. -1.
        -11    1    4    4    0    0  0.19100213765E+02  0.19990874110E+02  0.48283389323E+02  0.55639364644E+02  0.00000000000E+00 0.  1.
         11    1    4    4    0    0 -0.65879118717E+02  0.64793517966E+02  0.21932995628E+02  0.94970071868E+02  0.00000000000E+00 0. -1.
          1    1    1    2  501    0 -0.80227396541E+02 -0.48458196093E+02  0.11605444409E+03  0.14917528588E+03  0.00000000000E+00 0. -1.
<scales pt_clust_5="13000.00000" pt_clust_6="13000.00000" pt_clust_7="13000.00000" pt_clust_8="13000.00000" pt_clust_9="93.72637"></scales>
<clustering>
<clus scale="   80.113">  5  6 -1 -1</clus>
<clus scale="   91.522">  7  8 -1 -1</clus>
<clus scale="   93.726">  2  9  1 -1</clus>
<clus scale="  141.940">  1  5  2 -1</clus>
<clus scale="   93.726">  2  5  1 -1</clus>
</clustering>
</event>
<event>
 9    2  0.4883225E-005  0.3075068E+03  0.7546771E-02  0.1111160E+00
          2   -1    0    0  502    0 -0.00000000000E+00  0.00000000000E+00  0.43169683160E+03  0.43169683160E+03  0.00000000000E+00 0. -1.
         21   -1    0    0  501  502  0.00000000000E+00 -0.00000000000E+00 -0.37220688595E+03  0.37220688595E+03  0.00000000000E+00 0. -1.
         24    2    1    2    0    0 -0.64705461523E+02  0.91216826102E+02  0.11197274184E+03  0.18071769751E+03  0.87256433363E+02 0.  0.
         23    2    1    2    0    0 -0.59012862563E+02  0.24205447731E+03 -0.25709520778E+02  0.26668525753E+03  0.91581434737E+02 0.  0.
        -13    1    3    3    0    0 -0.30589236896E+02 -0.31022052753E+00  0.66034125658E+02  0.72775706126E+02  0.00000000000E+00 0.  1.
         14    1    3    3    0    0 -0.34116224627E+02  0.91527046630E+02  0.45938616186E+02  0.10794199139E+03  0.00000000000E+00 0. -1.
        -11    1    4    4    0    0  0.19351145329E+02  0.89031456976E+02  0.81050747422E+01  0.91469991764E+02  0.00000000000E+00 0.  1.
         11    1    4    4    0    0 -0.78364007892E+02  0.15302302034E+03 -0.33814595520E+02  0.17521526576E+03  0.00000000000E+00 0. -1.
          1    1    1    2  501    0  0.12371832409E+03 -0.33327130341E+03 -0.26773275420E+02  0.35650076251E+03  0.00000000000E+00 0. -1.
<scales pt_clust_5="13000.00000" pt_clust_6="13000.00000" pt_clust_7="13000.00000" pt_clust_8="13000.00000" pt_clust_9="293.55295"></scales>
<clustering>
<clus scale="   87.256">  5  6 -1 -1</clus>
<clus scale="   91.581">  7  8 -1 -1</clus>
<clus scale="  141.848">  1  5  2 -1</clus>
<clus scale="  293.553">  2  9  1 -1</clus>
<clus scale="  293.553">  2  5  1 -1</clus>
</clustering>
</event>
<event>
 9    2  0.4883225E-005  0.9920575E+02  0.7546771E-02  0.1289687E+00
         -1   -1    0    0    0  501 -0.00000000000E+00  0.00000000000E+00  0.57545712628E+03  0.57545712628E+03  0.00000000000E+00 0.  1.
         21   -1    0    0  501  502  0.00000000000E+00 -0.00000000000E+00 -0.10350687906E+03  0.10350687906E+03  0.00000000000E+00 0. -1.
         24    2    1    2    0    0  0.23533329267E+02 -0.78896096824E+01  0.46256449562E+03  0.47019003669E+03  0.80602074811E+02 0.  0.
         23    2    1    2    0    0 -0.70702494977E+02  0.51122394202E+02  0.43884103006E+02  0.13608187760E+03  0.94763499991E+02 0.  0.
        -13    1    3    3    0    0  0.51993805929E+02 -0.15847532213E+02  0.27630020653E+03  0.28159599475E+03  0.00000000000E+00 0.  1.
         14    1    3    3    0    0 -0.28460476661E+02  0.79579225307E+01  0.18626428909E+03  0.18859404194E+03  0.00000000000E+00 0. -1.
        -13    1    4    4    0    0 -0.11762783217E+02  0.37704826513E+02  0.61525724621E+02  0.73112459961E+02  0.00000000000E+00 0.  1.
         13    1    4    4    0    0 -0.58939711760E+02  0.13417567690E+02 -0.17641621615E+02  0.62969417643E+02  0.00000000000E+00 0. -1.
         -2    1    1    2    0  502  0.47169165710E+02 -0.43232784520E+02 -0.34498351404E+02  0.72692091047E+02  0.00000000000E+00 0.  1.
<scales pt_clust_5="13000.00000" pt_clust_6="13000.00000" pt_clust_7="13000.00000" pt_clust_8="13000.00000" pt_clust_9="63.98440"></scales>
<clustering>
<clus scale="   63.984">  2  9  1 -1</clus>
<clus scale="   80.602">  5  6 -1 -1</clus>
<clus scale="   85.781">  1  5  2 -1</clus>
<clus scale="   94.763">  7  8 -1 -1</clus>
<clus scale="   63.984">  2  5  1 -1</clus>
</clustering>
</event>
<event>
 9    2  0.4883225E-005  0.9483493E+02  0.7546771E-02  0.1296408E+00
         21   -1    0    0  501  502  0.00000000000E+00  0.00000000000E+00  0.45861254381E+02  0.45861254381E+02  0.00000000000E+00 0. -1.
          2   -1    0    0  502    0 -0.00000000000E+00 -0.00000000000E+00 -0.35575310553E+03  0.35575310553E+03  0.00000000000E+00 0. -1.
         23    2    1    2    0    0 -0.17495825097E+02  0.11776688753E+02 -0.11020545495E+03  0.14304324027E+03  0.88720527463E+02 0.  0.
         24    2    1    2    0    0  0.39722772513E+02  0.46557610856E+02 -0.13809282833E+03  0.17087451021E+03  0.79893424129E+02 0.  0.
        -13    1    4    4    0    0  0.19606493729E+02 -0.13757170908E+02 -0.84154420644E+02  0.87496519140E+02  0.00000000000E+00 0.  1.
         14    1    4    4    0    0  0.20116278785E+02  0.60314781764E+02 -0.53938407685E+02  0.83377991071E+02  0.00000000000E+00 0. -1.
        -11    1    3    3    0    0  0.33620977886E+02 -0.10564820266E+02 -0.38521005039E+02  0.52209706094E+02  0.00000000000E+00 0.  1.
         11    1    3    3    0    0 -0.51116802983E+02  0.22341509018E+02 -0.71684449911E+02  0.90833534179E+02  0.00000000000E+00 0. -1.
          1    1    1    2  501    0 -0.22226947416E+02 -0.58334299608E+02 -0.61593567871E+02  0.87696609429E+02  0.00000000000E+00 0. -1.
<scales pt_clust_5="13000.00000" pt_clust_6="13000.00000" pt_clust_7="13000.00000" pt_clust_8="13000.00000" pt_clust_9="62.42538"></scales>
<clustering>
<clus scale="   62.425">  1  9  2 -1</clus>
<clus scale="   79.893">  5  6 -1 -1</clus>
<clus scale="   86.633">  1  5  2 -1</clus>
<clus scale="   88.721">  7  8 -1 -1</clus>
<clus scale="   62.425">  1  5  2 -1</clus>
</clustering>
</event>
<event>
 9    2  0.4883225E-005  0.1449964E+03  0.7546771E-02  0.1208965E+00
          2   -1    0    0  502    0 -0.00000000000E+00  0.00000000000E+00  0.65410926773E+03  0.65410926773E+03  0.00000000000E+00 0. -1.
         21   -1    0    0  501  502  0.00000000000E+00 -0.00000000000E+00 -0.64147330457E+02  0.64147330457E+02  0.00000000000E+00 0. -1.
         23    2    1    2    0    0  0.53358928267E+02 -0.11200592150E+03  0.46269035957E+03  0.48764692276E+03  0.91239524115E+02 0.  0.
         24    2    1    2    0    0 -0.78050086193E+02  0.55977313500E+02  0.11100070974E+03  0.16725670124E+03  0.80177122454E+02 0.  0.
        -13    1    4    4    0    0 -0.65900726728E+02  0.64973173233E+02  0.11852139042E+03  0.15037200208E+03  0.00000000000E+00 0.  1.
         14    1    4    4    0    0 -0.12149359465E+02 -0.89958597332E+01 -0.75206806784E+01  0.16884699157E+02  0.00000000000E+00 0. -1.
        -13    1    3    3    0    0 -0.15298864890E+02 -0.43748239641E+02  0.75960569686E+02  0.88982986495E+02  0.00000000000E+00 0.  1.
         13    1    3    3    0    0  0.68657793157E+02 -0.68257681863E+02  0.38672978988E+03  0.39866393626E+03  0.00000000000E+00 0. -1.
          1    1    1    2  501    0  0.24691157926E+02  0.56028608003E+02  0.16270867966E+02  0.63352974191E+02  0.00000000000E+00 0. -1.
<scales pt_clust_5="13000.00000" pt_clust_6="13000.00000" pt_clust_7="13000.00000" pt_clust_8="13000.00000" pt_clust_9="61.22792"></scales>
<clustering>
<clus scale="   61.228">  2  9  1 -1</clus>
<clus scale="   80.177">  5  6 -1 -1</clus>
<clus scale="   91.240">  7  8 -1 -1</clus>
<clus scale="  138.303">  2  5  1 -1</clus>
<clus scale="   61.228">  2  5  1 -1</clus>
</clustering>
</event>
<event>
 9    2  0.4883225E-005  0.1480723E+03  0.7546771E-02  0.1215577E+00
          2   -1    0    0  502    0 -0.00000000000E+00  0.00000000000E+00  0.23579285787E+04  0.23579285787E+04  0.00000000000E+00 0. -1.
         21   -1    0    0  501  502  0.00000000000E+00 -0.00000000000E+00 -0.27025294713E+02  0.27025294713E+02  0.00000000000E+00 0. -1.
         23    2    1    2    0    0 -0.32006304652E+02 -0.64689874749E+02  0.40158277163E+03  0.41713059914E+03  0.86718111317E+02 0.  0.
         24    2    1    2    0    0 -0.88422302981E+02  0.87002880598E+02  0.17096908718E+04  0.17163514095E+04  0.86204865650E+02 0.  0.
        -13    1    4    4    0    0 -0.33512045866E+02  0.15790589713E+02  0.16780859476E+03  0.17184913272E+03  0.00000000000E+00 0.  1.
         14    1    4    4    0    0 -0.54910257115E+02  0.71212290885E+02  0.15418822770E+04  0.15445022768E+04  0.00000000000E+00 0. -1.
        -11    1    3    3    0    0  0.25098341348E+02 -0.44636086756E+02  0.15552705893E+03  0.16374056626E+03  0.00000000000E+00 0.  1.
         11    1    3    3    0    0 -0.57104645999E+02 -0.20053787992E+02  0.24605571271E+03  0.25339003288E+03  0.00000000000E+00 0. -1.
          1    1    1    2  501    0  0.12042860763E+03 -0.22313005849E+02  0.21962964054E+03  0.25147186477E+03  0.00000000000E+00 0. -1.
<scales pt_clust_5="13000.00000" pt_clust_6="13000.00000" pt_clust_7="13000.00000" pt_clust_8="13000.00000" pt_clust_9="120.39156"></scales>
<clustering>
<clus scale="   86.205">  5  6 -1 -1</clus>
<clus scale="   86.718">  7  8 -1 -1</clus>
<clus scale="  112.824">  1  7  2 -1</clus>
<clus scale="  120.392">  2  9  1 -1</clus>
<clus scale="  120.392">  2  5  1 -1</clus>
</clustering>
</event>
<event>
 9    2  0.4883225E-005  0.3308629E+03  0.7546771E-02  0.1071287E+00
         21   -1    0    0  501  502  0.00000000000E+00  0.00000000000E+00  0.74826704515E+02  0.74826704515E+02  0.00000000000E+00 0. -1.
          2   -1    0    0  502    0 -0.00000000000E+00 -0.00000000000E+00 -0.18683063199E+04  0.18683063199E+04  0.00000000000E+00 0. -1.
         24    2    1    2    0    0 -0.33310749055E+03 -0.48194264807E+02 -0.12284302412E+04  0.12762184960E+04  0.80059381853E+02 0.  0.
         23    2    1    2    0    0  0.27493291868E+03  0.46154214734E+02 -0.45660079489E+03  0.54383107312E+03  0.97722202627E+02 0.  0.
        -13    1    3    3    0    0 -0.13969354667E+03 -0.12947150781E+01 -0.63911604049E+03  0.65420583648E+03  0.00000000000E+00 0.  1.
         14    1    3    3    0    0 -0.19341394388E+03 -0.46899549729E+02 -0.58931420072E+03  0.62201265953E+03  0.00000000000E+00 0. -1.
        -11    1    4    4    0    0  0.19921689737E+03  0.10719519175E+02 -0.24269874308E+03  0.31417345557E+03  0.00000000000E+00 0. -1.
         11    1    4    4    0    0  0.75716021302E+02  0.35434695558E+02 -0.21390205181E+03  0.22965761755E+03  0.00000000000E+00 0.  1.
          1    1    1    2  501    0  0.58174571869E+02  0.20400500734E+01 -0.10844857930E+03  0.12308345530E+03  0.00000000000E+00 0. -1.
<scales pt_clust_5="13000.00000" pt_clust_6="13000.00000" pt_clust_7="13000.00000" pt_clust_8="13000.00000" pt_clust_9="58.21033"></scales>
<clustering>
<clus scale="   58.210">  1  9  2 -1</clus>
<clus scale="   80.059">  5  6 -1 -1</clus>
<clus scale="   97.722">  7  8 -1 -1</clus>
<clus scale="  326.083">  2  5  1 -1</clus>
<clus scale="   58.210">  1  5  2 -1</clus>
</clustering>
</event>
<event>
 9    2  0.4883225E-005  0.9268650E+02  0.7546771E-02  0.1299440E+00
         21   -1    0    0  501  502  0.00000000000E+00  0.00000000000E+00  0.34570106837E+02  0.34570106837E+02  0.00000000000E+00 0. -1.
          2   -1    0    0  502    0 -0.00000000000E+00 -0.00000000000E+00 -0.12968518560E+04  0.12968518560E+04  0.00000000000E+00 0. -1.
         24    2    1    2    0    0  0.89203346903E+00 -0.50536427740E+02 -0.10730868006E+04  0.10771342749E+04  0.78410702464E+02 0.  0.
         23    2    1    2    0    0  0.19494705574E+02  0.44144193704E+02 -0.20820810579E+03  0.22568733955E+03  0.72494182780E+02 0.  0.
        -11    1    3    3    0    0 -0.25101438219E+02 -0.16463137321E+02 -0.14582621460E+03  0.14888385391E+03  0.00000000000E+00 0.  1.
         12    1    3    3    0    0  0.25993471688E+02 -0.34073290419E+02 -0.92726058600E+03  0.92825042097E+03  0.00000000000E+00 0. -1.
        -13    1    4    4    0    0 -0.26306866048E+02  0.10554018305E+02 -0.93255039171E+02  0.97467639934E+02  0.00000000000E+00 0.  1.
         13    1    4    4    0    0  0.45801571622E+02  0.33590175399E+02 -0.11495306662E+03  0.12821969962E+03  0.00000000000E+00 0. -1.
          1    1    1    2  501    0 -0.20386739043E+02  0.63922340362E+01  0.19013157182E+02  0.28600348438E+02  0.00000000000E+00 0. -1.
<scales pt_clust_5="13000.00000" pt_clust_6="13000.00000" pt_clust_7="13000.00000" pt_clust_8="13000.00000" pt_clust_9="21.36539"></scales>
<clustering>
<clus scale="   21.365">  1  9  2 -1</clus>
<clus scale="   72.494">  7  8 -1 -1</clus>
<clus scale="   78.411">  5  6 -1 -1</clus>
<clus scale="   87.738">  1  7  2 -1</clus>
<clus scale="   21.365">  1  5  2 -1</clus>
</clustering>
</event>
<event>
 9    2  0.4883225E-005  0.1061095E+03  0.7546771E-02  0.1271885E+00
         21   -1    0    0  501  502  0.00000000000E+00  0.00000000000E+00  0.59026312820E+02  0.59026312820E+02  0.00000000000E+00 0. -1.
          2   -1    0    0  502    0 -0.00000000000E+00 -0.00000000000E+00 -0.70411053515E+03  0.70411053515E+03  0.00000000000E+00 0. -1.
         24    2    1    2    0    0 -0.51215407873E+02 -0.34579076211E+02 -0.51144085058E+03  0.52126088159E+03  0.79513725387E+02 0.  0.
         23    2    1    2    0    0  0.20869199573E+02  0.48183891387E+02 -0.16597534111E+03  0.19549343090E+03  0.88953115682E+02 0.  0.
        -13    1    3    3    0    0 -0.26892701947E+02 -0.20972084423E+01 -0.41028020804E+02  0.49101061011E+02  0.00000000000E+00 0.  1.
         14    1    3    3    0    0 -0.24322705926E+02 -0.32481867769E+02 -0.47041282977E+03  0.47215982058E+03  0.00000000000E+00 0. -1.
        -13    1    4    4    0    0  0.35123930619E+02  0.67470434951E+02 -0.10251789538E+03  0.12765527395E+03  0.00000000000E+00 0.  1.
         13    1    4    4    0    0 -0.14254731046E+02 -0.19286543563E+02 -0.63457445735E+02  0.67838156955E+02  0.00000000000E+00 0. -1.
          1    1    1    2  501    0  0.30346208301E+02 -0.13604815177E+02  0.32331969359E+02  0.46382535472E+02  0.00000000000E+00 0. -1.
<scales pt_clust_5="13000.00000" pt_clust_6="13000.00000" pt_clust_7="13000.00000" pt_clust_8="13000.00000" pt_clust_9="33.25633"></scales>
<clustering>
<clus scale="   33.256">  1  9  2 -1</clus>
<clus scale="   79.514">  5  6 -1 -1</clus>
<clus scale="   88.953">  7  8 -1 -1</clus>
<clus scale="   98.331">  2  5  1 -1</clus>
<clus scale="   33.256">  1  5  2 -1</clus>
</clustering>
</event>
<event>
 9    2  0.4883225E-005  0.1124843E+03  0.7546771E-02  0.1262129E+00
         -1   -1    0    0    0  501 -0.00000000000E+00  0.00000000000E+00  0.62151336906E+02  0.62151336906E+02  0.00000000000E+00 0.  1.
         21   -1    0    0  501  502  0.00000000000E+00 -0.00000000000E+00 -0.56249927467E+03  0.56249927467E+03  0.00000000000E+00 0.  1.
         24    2    1    2    0    0 -0.68461273563E+02 -0.39030396523E+02 -0.24151976806E+02  0.11458747051E+03  0.79603094064E+02 0.  0.
         23    2    1    2    0    0 -0.12592877142E+02  0.13219647125E+02 -0.22795217427E+03  0.24764944523E+03  0.95051114374E+02 0.  0.
        -11    1    3    3    0    0 -0.37827198343E+02 -0.59485071840E+02  0.84570162813E-01  0.70493814327E+02  0.00000000000E+00 0.  1.
         12    1    3    3    0    0 -0.30634075220E+02  0.20454675318E+02 -0.24236546968E+02  0.44093656186E+02  0.00000000000E+00 0. -1.
        -13    1    4    4    0    0 -0.41505722138E+02 -0.13039032649E+00 -0.20297920745E+03  0.20717939238E+03  0.00000000000E+00 0.  1.
         13    1    4    4    0    0  0.28912844996E+02  0.13350037451E+02 -0.24972966825E+02  0.40470052851E+02  0.00000000000E+00 0. -1.
         -2    1    1    2    0  502  0.81054150705E+02  0.25810749398E+02 -0.24824378669E+03  0.26241369583E+03  0.00000000000E+00 0.  1.
<scales pt_clust_5="13000.00000" pt_clust_6="13000.00000" pt_clust_7="13000.00000" pt_clust_8="13000.00000" pt_clust_9="85.06451"></scales>
<clustering>
<clus scale="   79.603">  5  6 -1 -1</clus>
<clus scale="   85.065">  2  9  1 -1</clus>
<clus scale="   95.051">  7  8 -1 -1</clus>
<clus scale="   99.773">  1  5  2 -1</clus>
<clus scale="   85.065">  2  5  1 -1</clus>
</clustering>
</event>
<event>
 9    2  0.4883225E-005  0.1002998E+03  0.7546771E-02  0.1282436E+00
         21   -1    0    0  501  502  0.00000000000E+00  0.00000000000E+00  0.15888367121E+03  0.15888367121E+03  0.00000000000E+00 0. -1.
          4   -1    0    0  502    0 -0.00000000000E+00 -0.00000000000E+00 -0.12061676296E+03  0.12061676296E+03  0.00000000000E+00 0. -1.
         24    2    1    2    0    0 -0.18786359726E+02 -0.52411490133E+02 -0.19633195795E+02  0.10426701761E+03  0.85943335832E+02 0.  0.
         23    2    1    2    0    0 -0.34618493282E+02  0.18742871948E+02  0.50216683447E+02  0.11163554610E+03  0.91602644777E+02 0.  0.
        -11    1    3    3    0    0  0.22852514116E+02 -0.84448072744E+01  0.20315773736E+02  0.31721961381E+02  0.00000000000E+00 0.  1.
         12    1    3    3    0    0 -0.41638873842E+02 -0.43966682859E+02 -0.39948969531E+02  0.72545056228E+02  0.00000000000E+00 0. -1.
        -13    1    4    4    0    0  0.30841773690E+02  0.12631315634E-01  0.93606763603E+01  0.32231001006E+02  0.00000000000E+00 0.  1.
         13    1    4    4    0    0 -0.65460266972E+02  0.18730240632E+02  0.40856007087E+02  0.79404545092E+02  0.00000000000E+00 0. -1.
          3    1    1    2  501    0  0.53404853008E+02  0.33668618185E+02  0.76834206061E+01  0.63597870463E+02  0.00000000000E+00 0. -1.
<scales pt_clust_5="13000.00000" pt_clust_6="13000.00000" pt_clust_7="13000.00000" pt_clust_8="13000.00000" pt_clust_9="63.13207"></scales>
<clustering>
<clus scale="   63.132">  1  9  2 -1</clus>
<clus scale="   85.943">  5  6 -1 -1</clus>
<clus scale="   91.603">  7  8 -1 -1</clus>
<clus scale="   95.159">  2  5  1 -1</clus>
<clus scale="   63.132">  1  5  2 -1</clus>
</clustering>
</event>
<event>
 9    2  0.4883225E-005  0.1132068E+03  0.7546771E-02  0.1258449E+00
         -3   -1    0    0    0  501 -0.00000000000E+00  0.00000000000E+00  0.14968811285E+02  0.14968811285E+02  0.00000000000E+00 0.  1.
         21   -1    0    0  501  502  0.00000000000E+00 -0.00000000000E+00 -0.11675619604E+04  0.11675619604E+04  0.00000000000E+00 0. -1.
         23    2    1    2    0    0 -0.68325902841E+02  0.87852198372E+01 -0.41371252062E+03  0.42900764823E+03  0.90243578357E+02 0.  0.
         24    2    1    2    0    0  0.61058436338E+02 -0.36484295995E+02 -0.67608886497E+03  0.68450964321E+03  0.79987885391E+02 0.  0.
        -13    1    4    4    0    0  0.15177848978E+02 -0.29423827942E+02 -0.79512131388E+02  0.86129598793E+02  0.00000000000E+00 0.  1.
         14    1    4    4    0    0  0.45880587359E+02 -0.70604680525E+01 -0.59657673359E+03  0.59838004442E+03  0.00000000000E+00 0. -1.
        -13    1    3    3    0    0 -0.50465092705E+02  0.41139253519E+02 -0.34397617844E+03  0.35008395435E+03  0.00000000000E+00 0. -1.
         13    1    3    3    0    0 -0.17860810137E+02 -0.32354033682E+02 -0.69736342176E+02  0.78923693871E+02  0.00000000000E+00 0.  1.
         -4    1    1    2    0  502  0.72674665034E+01  0.27699076158E+02 -0.62791763556E+02  0.69013480276E+02  0.00000000000E+00 0.  1.
<scales pt_clust_5="13000.00000" pt_clust_6="13000.00000" pt_clust_7="13000.00000" pt_clust_8="13000.00000" pt_clust_9="28.63661"></scales>
<clustering>
<clus scale="   28.637">  2  9  1 -1</clus>
<clus scale="   79.988">  5  6 -1 -1</clus>
<clus scale="   90.244">  7  8 -1 -1</clus>
<clus scale="  105.214">  2  5  1 -1</clus>
<clus scale="   28.637">  2  5  1 -1</clus>
</clustering>
</event>
<event>
 9    2  0.4883225E-005  0.1318422E+03  0.7546771E-02  0.1242617E+00
          2   -1    0    0  502    0 -0.00000000000E+00  0.00000000000E+00  0.59289212450E+03  0.59289212450E+03  0.00000000000E+00 0. -1.
         21   -1    0    0  501  502  0.00000000000E+00 -0.00000000000E+00 -0.48107653744E+02  0.48107653744E+02  0.00000000000E+00 0.  1.
         24    2    1    2    0    0  0.40648635344E+02  0.39975303745E+01  0.11436810242E+03  0.14638177306E+03  0.81726793818E+02 0.  0.
         23    2    1    2    0    0 -0.45972979259E+02  0.91339600974E+02  0.32390202584E+03  0.35156968324E+03  0.90731925520E+02 0.  0.
        -11    1    3    3    0    0  0.28013735118E+02  0.39189989849E+02  0.88986759750E+02  0.10118926855E+03  0.00000000000E+00 0.  1.
         12    1    3    3    0    0  0.12634900226E+02 -0.35192459474E+02  0.25381342669E+02  0.45192504503E+02  0.00000000000E+00 0. -1.
        -11    1    4    4    0    0 -0.49500081526E+02  0.48970864942E+02  0.89771922763E+02  0.11361074685E+03  0.00000000000E+00 0.  1.
         11    1    4    4    0    0  0.35271022667E+01  0.42368736032E+02  0.23413010307E+03  0.23795893639E+03  0.00000000000E+00 0. -1.
          1    1    1    2  501    0  0.53243439148E+01 -0.95337131348E+02  0.10651434250E+03  0.14304832194E+03  0.00000000000E+00 0. -1.
<scales pt_clust_5="13000.00000" pt_clust_6="13000.00000" pt_clust_7="13000.00000" pt_clust_8="13000.00000" pt_clust_9="95.65607"></scales>
<clustering>
<clus scale="   81.727">  5  6 -1 -1</clus>
<clus scale="   90.732">  7  8 -1 -1</clus>
<clus scale="   91.365">  1  5  2 -1</clus>
<clus scale="   95.656">  2  9  1 -1</clus>
<clus scale="   95.656">  2  5  1 -1</clus>
</clustering>
</event>
<event>
 9    2  0.4883225E-005  0.9726069E+02  0.7546771E-02  0.1292460E+00
          2   -1    0    0  502    0 -0.00000000000E+00  0.00000000000E+00  0.65189242383E+03  0.65189242383E+03  0.00000000000E+00 0. -1.
         21   -1    0    0  501  502  0.00000000000E+00 -0.00000000000E+00 -0.37906858432E+02  0.37906858432E+02  0.00000000000E+00 0. -1.
         23    2    1    2    0    0 -0.91143920342E+01 -0.24027528403E+02  0.42553940940E+03  0.43609645189E+03  0.91847330627E+02 0.  0.
         24    2    1    2    0    0  0.29046270706E+01  0.44572415565E+02  0.20626792901E+03  0.22580535444E+03  0.80289865295E+02 0.  0.
        -13    1    4    4    0    0 -0.74063209298E+01 -0.20822416367E+02  0.82915298332E+02  0.85810100283E+02  0.00000000000E+00 0.  1.
         14    1    4    4    0    0  0.10310948000E+02  0.65394831932E+02  0.12335263068E+03  0.13999525416E+03  0.00000000000E+00 0. -1.
        -13    1    3    3    0    0  0.37120593337E+02  0.93407751679E+01  0.16233347627E+03  0.16678532924E+03  0.00000000000E+00 0.  1.
         13    1    3    3    0    0 -0.46234985371E+02 -0.33368303571E+02  0.26320593312E+03  0.26931112265E+03  0.00000000000E+00 0. -1.
          1    1    1    2  501    0  0.62097649636E+01 -0.20544887162E+02 -0.17821773012E+02  0.27897475920E+02  0.00000000000E+00 0. -1.
<scales pt_clust_5="13000.00000" pt_clust_6="13000.00000" pt_clust_7="13000.00000" pt_clust_8="13000.00000" pt_clust_9="21.46284"></scales>
<clustering>
<clus scale="   21.463">  2  9  1 -1</clus>
<clus scale="   80.290">  5  6 -1 -1</clus>
<clus scale="   86.430">  2  5  1 -1</clus>
<clus scale="   91.847">  7  8 -1 -1</clus>
<clus scale="   21.463">  2  5  1 -1</clus>
</clustering>
</event>
<event>
 9    2  0.4883225E-005  0.9772451E+02  0.7546771E-02  0.1293423E+00
         21   -1    0    0  501  502  0.00000000000E+00  0.00000000000E+00  0.15819894869E+03  0.15819894869E+03  0.00000000000E+00 0. -1.
          4   -1    0    0  502    0 -0.00000000000E+00 -0.00000000000E+00 -0.17059101248E+03  0.17059101248E+03  0.00000000000E+00 0. -1.
         24    2    1    2    0    0  0.23391326793E+01 -0.19749759707E+02 -0.10140082889E+03  0.13103391084E+03  0.80574395068E+02 0.  0.
         23    2    1    2    0    0  0.19909472337E+02  0.31468881178E+02 -0.32273555870E+01  0.10215353888E+03  0.95069722367E+02 0.  0.
        -11    1    3    3    0    0  0.22194046959E+02  0.11002040821E+02 -0.17043134582E+01  0.24829927648E+02  0.00000000000E+00 0.  1.
         12    1    3    3    0    0 -0.19854914280E+02 -0.30751800528E+02 -0.99696515434E+02  0.10620398319E+03  0.00000000000E+00 0. -1.
        -11    1    4    4    0    0 -0.32616017340E+01  0.49978907545E+02  0.29388296092E+02  0.58070656897E+02  0.00000000000E+00 0.  1.
         11    1    4    4    0    0  0.23171074071E+02 -0.18510026367E+02 -0.32615651679E+02  0.44082881986E+02  0.00000000000E+00 0. -1.
          3    1    1    2  501    0 -0.22248605016E+02 -0.11719121471E+02  0.92236120694E+02  0.95602511441E+02  0.00000000000E+00 0. -1.
<scales pt_clust_5="13000.00000" pt_clust_6="13000.00000" pt_clust_7="13000.00000" pt_clust_8="13000.00000" pt_clust_9="25.14634"></scales>
<clustering>
<clus scale="   25.146">  1  9  2 -1</clus>
<clus scale="   80.574">  5  6 -1 -1</clus>
<clus scale="   83.690">  2  5  1 -1</clus>
<clus scale="   95.070">  7  8 -1 -1</clus>
<clus scale="   25.146">  1  5  2 -1</clus>
</clustering>
</event>
<event>
 9    2  0.4883225E-005  0.1199587E+03  0.7546771E-02  0.1247653E+00
          2   -1    0    0  502    0 -0.00000000000E+00  0.00000000000E+00  0.11658385441E+03  0.11658385441E+03  0.00000000000E+00 0. -1.
         21   -1    0    0  501  502  0.00000000000E+00 -0.00000000000E+00 -0.14853371812E+03  0.14853371812E+03  0.00000000000E+00 0. -1.
         23    2    1    2    0    0 -0.59605750881E+02  0.35291306288E+02  0.10024886053E+02  0.11697081942E+03  0.93719541284E+02 0.  0.
         24    2    1    2    0    0  0.58671200256E+02 -0.60780365384E+02 -0.31358190145E+02  0.12051928749E+03  0.80031243972E+02 0.  0.
        -13    1    4    4    0    0  0.35782077929E+02 -0.35927071724E+02  0.23660067574E+02  0.55954538521E+02  0.00000000000E+00 0.  1.
         14    1    4    4    0    0  0.22889122328E+02 -0.24853293661E+02 -0.55018257719E+02  0.64564748967E+02  0.00000000000E+00 0. -1.
        -11    1    3    3    0    0 -0.88509882749E+01  0.33276503921E+02 -0.34996262916E+02  0.49095866677E+02  0.00000000000E+00 0.  1.
         11    1    3    3    0    0 -0.50754762606E+02  0.20148023676E+01  0.45021148970E+02  0.67874952746E+02  0.00000000000E+00 0. -1.
          1    1    1    2  501    0  0.93455062434E+00  0.25489059096E+02 -0.10616559624E+02  0.27627465622E+02  0.00000000000E+00 0. -1.
<scales pt_clust_5="13000.00000" pt_clust_6="13000.00000" pt_clust_7="13000.00000" pt_clust_8="13000.00000" pt_clust_9="25.50619"></scales>
<clustering>
<clus scale="   25.506">  2  9  1 -1</clus>
<clus scale="   80.031">  5  6 -1 -1</clus>
<clus scale="   93.720">  7  8 -1 -1</clus>
<clus scale="  109.598">  2  5  1 -1</clus>
<clus scale="   25.506">  2  5  1 -1</clus>
</clustering>
</event>
<event>
 9    2  0.4883225E-005  0.1339395E+03  0.7546771E-02  0.1244261E+00
          2   -1    0    0  502    0 -0.00000000000E+00  0.00000000000E+00  0.88019150596E+03  0.88019150596E+03  0.00000000000E+00 0. -1.
         21   -1    0    0  501  502  0.00000000000E+00 -0.00000000000E+00 -0.29682432259E+02  0.29682432259E+02  0.00000000000E+00 0. -1.
         24    2    1    2    0    0  0.13233105143E+02  0.21807243791E+02  0.17758341945E+03  0.19657390624E+03  0.80341513524E+02 0.  0.
         23    2    1    2    0    0  0.63965769173E+02  0.52307073766E+02  0.44276726297E+03  0.45947827693E+03  0.90828344803E+02 0.  0.
        -11    1    3    3    0    0  0.21397648290E+02  0.43497149591E+02  0.16083070656E+03  0.16797731260E+03  0.00000000000E+00 0.  1.
         12    1    3    3    0    0 -0.81645431478E+01 -0.21689905800E+02  0.16752712888E+02  0.28596593635E+02  0.00000000000E+00 0. -1.
        -11    1    4    4    0    0  0.85713607713E+02  0.48528047335E+02  0.39071116447E+03  0.40293548859E+03  0.00000000000E+00 0. -1.
         11    1    4    4    0    0 -0.21747838539E+02  0.37790264318E+01  0.52056098505E+02  0.56542788342E+02  0.00000000000E+00 0.  1.
          1    1    1    2  501    0 -0.77198874316E+02 -0.74114317558E+02  0.23015839128E+03  0.25382175505E+03  0.00000000000E+00 0. -1.
<scales pt_clust_5="13000.00000" pt_clust_6="13000.00000" pt_clust_7="13000.00000" pt_clust_8="13000.00000" pt_clust_9="98.43784"></scales>
<clustering>
<clus scale="   80.342">  5  6 -1 -1</clus>
<clus scale="   84.294">  1  5  2 -1</clus>
<clus scale="   90.828">  7  8 -1 -1</clus>
<clus scale="   98.438">  2  9  1 -1</clus>
<clus scale="   98.438">  2  5  1 -1</clus>
</clustering>
</event>
<event>
 9    2  0.4883225E-005  0.9949200E+02  0.7546771E-02  0.1286510E+00
         21   -1    0    0  501  502  0.00000000000E+00  0.00000000000E+00  0.28460492171E+03  0.28460492171E+03  0.00000000000E+00 0.  1.
         -3   -1    0    0    0  501 -0.00000000000E+00 -0.00000000000E+00 -0.23761706541E+03  0.23761706541E+03  0.00000000000E+00 0.  1.
         24    2    1    2    0    0  0.36851621382E+02  0.17128229806E+02 -0.20732458081E+03  0.22621389230E+03  0.80856817917E+02 0.  0.
         23    2    1    2    0    0 -0.72517450664E+01 -0.52412637411E+02  0.18244717391E+03  0.21065144217E+03  0.91035083643E+02 0.  0.
        -11    1    3    3    0    0  0.36771698611E+02  0.40471828423E+02 -0.18836254357E+03  0.19613917134E+03  0.00000000000E+00 0.  1.
         12    1    3    3    0    0  0.79922771602E-01 -0.23343598618E+02 -0.18962037245E+02  0.30074720955E+02  0.00000000000E+00 0. -1.
        -13    1    4    4    0    0 -0.42008947976E+02 -0.37846091742E+02  0.15208616161E+03  0.16225683013E+03  0.00000000000E+00 0. -1.
         13    1    4    4    0    0  0.34757202910E+02 -0.14566545669E+02  0.30361012301E+02  0.48394612043E+02  0.00000000000E+00 0.  1.
         -4    1    1    2    0  502 -0.29599876316E+02  0.35284407606E+02  0.71865263199E+02  0.85356652656E+02  0.00000000000E+00 0.  1.
<scales pt_clust_5="13000.00000" pt_clust_6="13000.00000" pt_clust_7="13000.00000" pt_clust_8="13000.00000" pt_clust_9="46.05586"></scales>
<clustering>
<clus scale="   46.056">  1  9  2 -1</clus>
<clus scale="   80.857">  5  6 -1 -1</clus>
<clus scale="   90.272">  2  5  1 -1</clus>
<clus scale="   91.035">  7  8 -1 -1</clus>
<clus scale="   46.056">  1  5  2 -1</clus>
</clustering>
</event>
<event>
 9    2  0.4883225E-005  0.1596037E+03  0.7546771E-02  0.1199958E+00
         -1   -1    0    0    0  501 -0.00000000000E+00  0.00000000000E+00  0.39755761225E+03  0.39755761225E+03  0.00000000000E+00 0.  1.
         21   -1    0    0  501  502  0.00000000000E+00 -0.00000000000E+00 -0.12280504146E+03  0.12280504146E+03  0.00000000000E+00 0.  1.
         24    2    1    2    0    0 -0.62780322998E+02 -0.73834226544E+02  0.32777202295E+02  0.13011456928E+03  0.80390261739E+02 0.  0.
         23    2    1    2    0    0 -0.94768246327E+02  0.32975161473E+02  0.15340516752E+03  0.20494914921E+03  0.91665841803E+02 0.  0.
        -13    1    3    3    0    0 -0.69389312385E+02 -0.53891780172E+02  0.51613532585E+02  0.10189777912E+03  0.00000000000E+00 0.  1.
         14    1    3    3    0    0  0.66089893867E+01 -0.19942446372E+02 -0.18836330290E+02  0.28216790158E+02  0.00000000000E+00 0. -1.
        -13    1    4    4    0    0 -0.34365015358E+02 -0.16701236752E+02  0.10790401122E+03  0.11446904047E+03  0.00000000000E+00 0.  1.
         13    1    4    4    0    0 -0.60403230969E+02  0.49676398225E+02  0.45501156299E+02  0.90480108734E+02  0.00000000000E+00 0. -1.
         -2    1    1    2    0  502  0.15754856932E+03  0.40859065071E+02  0.88570200973E+02  0.18529893522E+03  0.00000000000E+00 0.  1.
<scales pt_clust_5="13000.00000" pt_clust_6="13000.00000" pt_clust_7="13000.00000" pt_clust_8="13000.00000" pt_clust_9="130.65492"></scales>
<clustering>
<clus scale="   80.390">  5  6 -1 -1</clus>
<clus scale="   91.666">  7  8 -1 -1</clus>
<clus scale="  125.919">  1  5  2 -1</clus>
<clus scale="  130.655">  2  9  1 -1</clus>
<clus scale="  130.655">  2  5  1 -1</clus>
</clustering>
</event>
<event>
 9    2  0.4883225E-005  0.2063256E+03  0.7546771E-02  0.1144718E+00
         -1   -1    0    0    0  501 -0.00000000000E+00  0.00000000000E+00  0.97365861874E+02  0.97365861874E+02  0.00000000000E+00 0.  1.
         21   -1    0    0  501  502  0.00000000000E+00 -0.00000000000E+00 -0.60232582964E+03  0.60232582964E+03  0.00000000000E+00 0. -1.
         23    2    1    2    0    0  0.17635857753E+03 -0.32419836854E+02 -0.17964454023E+03  0.26602165701E+03  0.79636470728E+02 0.  0.
         24    2    1    2    0    0 -0.18840869699E+03  0.79476648155E+02 -0.18874818129E+03  0.28872121038E+03  0.76939500146E+02 0.  0.
        -11    1    4    4    0    0 -0.64355438254E+02  0.26357821501E+02 -0.19435212334E+02  0.72208619054E+02  0.00000000000E+00 0.  1.
         12    1    4    4    0    0 -0.12405325873E+03  0.53118826653E+02 -0.16931296896E+03  0.21651259133E+03  0.00000000000E+00 0. -1.
        -13    1    3    3    0    0  0.13735060115E+03 -0.16873435851E+02 -0.17597688529E+03  0.22386997259E+03  0.00000000000E+00 0. -1.
         13    1    3    3    0    0  0.39007976390E+02 -0.15546401003E+02 -0.36676549411E+01  0.42151684414E+02  0.00000000000E+00 0.  1.
         -2    1    1    2    0  502  0.12050119450E+02 -0.47056811300E+02 -0.13656724625E+03  0.14494882413E+03  0.00000000000E+00 0.  1.
<scales pt_clust_5="13000.00000" pt_clust_6="13000.00000" pt_clust_7="13000.00000" pt_clust_8="13000.00000" pt_clust_9="48.57519"></scales>
<clustering>
<clus scale="   48.575">  2  9  1 -1</clus>
<clus scale="   76.940">  5  6 -1 -1</clus>
<clus scale="   79.636">  7  8 -1 -1</clus>
<clus scale="  205.300">  2  5  1 -1</clus>
<clus scale="   48.575">  2  5  1 -1</clus>
</clustering>
</event>
<event>
 9    2  0.4883225E-005  0.1076331E+03  0.7546771E-02  0.1272558E+00
          2   -1    0    0  502    0 -0.00000000000E+00  0.00000000000E+00  0.49543305877E+02  0.49543305877E+02  0.00000000000E+00 0. -1.
         21   -1    0    0  501  502  0.00000000000E+00 -0.00000000000E+00 -0.87139738944E+03  0.87139738944E+03  0.00000000000E+00 0. -1.
         23    2    1    2    0    0  0.63110315297E+02 -0.19636117091E+02 -0.61166706497E+02  0.13253227191E+03  0.97236557539E+02 0.  0.
         24    2    1    2    0    0  0.18286817115E+02  0.44153632038E+02 -0.19532799193E+03  0.21669360284E+03  0.80741204939E+02 0.  0.
        -11    1    4    4    0    0 -0.24616493102E+02 -0.82455308042E+01 -0.59582040843E+02  0.64992154156E+02  0.00000000000E+00 0.  1.
         12    1    4    4    0    0  0.42903310217E+02  0.52399162842E+02 -0.13574595109E+03  0.15170144868E+03  0.00000000000E+00 0. -1.
        -13    1    3    3    0    0  0.60206670255E+02  0.30153653378E+02 -0.40257771010E+02  0.78452368237E+02  0.00000000000E+00 0. -1.
         13    1    3    3    0    0  0.29036450417E+01 -0.49789770469E+02 -0.20908935488E+02  0.54079903672E+02  0.00000000000E+00 0.  1.
          1    1    1    2  501    0 -0.81397132412E+02 -0.24517514947E+02 -0.56535938514E+03  0.57171482058E+03  0.00000000000E+00 0. -1.
<scales pt_clust_5="13000.00000" pt_clust_6="13000.00000" pt_clust_7="13000.00000" pt_clust_8="13000.00000" pt_clust_9="85.00942"></scales>
<clustering>
<clus scale="   80.741">  5  6 -1 -1</clus>
<clus scale="   85.009">  2  9  1 -1</clus>
<clus scale="   93.000">  2  5  1 -1</clus>
<clus scale="   97.237">  7  8 -1 -1</clus>
<clus scale="   85.009">  2  5  1 -1</clus>
</clustering>
</event>
<event>
 9    2  0.4883225E-005  0.1796027E+03  0.7546771E-02  0.1168256E+00
         21   -1    0    0  501  502  0.00000000000E+00  0.00000000000E+00  0.95932399574E+02  0.95932399574E+02  0.00000000000E+00 0. -1.
          2   -1    0    0  502    0 -0.00000000000E+00 -0.00000000000E+00 -0.46841531347E+03  0.46841531347E+03  0.00000000000E+00 0. -1.
         24    2    1    2    0    0  0.14014391334E+03  0.30870763996E+02 -0.18800093977E+03  0.25019952478E+03  0.81621861836E+02 0.  0.
         23    2    1    2    0    0 -0.18722195123E+03 -0.28413504352E+02 -0.13784721477E+03  0.24783694821E+03  0.81005629604E+02 0.  0.
        -11    1    3    3    0    0  0.77145915399E+02  0.54463453890E+02 -0.84280678238E+02  0.12657406052E+03  0.00000000000E+00 0.  1.
         12    1    3    3    0    0  0.62997997937E+02 -0.23592689894E+02 -0.10372026153E+03  0.12362546426E+03  0.00000000000E+00 0. -1.
        -11    1    4    4    0    0 -0.31163974146E+02  0.22765366114E+02 -0.10451682954E+02  0.39983657355E+02  0.00000000000E+00 0.  1.
         11    1    4    4    0    0 -0.15605797709E+03 -0.51178870467E+02 -0.12739553182E+03  0.20785329086E+03  0.00000000000E+00 0. -1.
          1    1    1    2  501    0  0.47078037895E+02 -0.24572596433E+01 -0.46634759351E+02  0.66311240048E+02  0.00000000000E+00 0. -1.
<scales pt_clust_5="13000.00000" pt_clust_6="13000.00000" pt_clust_7="13000.00000" pt_clust_8="13000.00000" pt_clust_9="47.14215"></scales>
<clustering>
<clus scale="   47.142">  1  9  2 -1</clus>
<clus scale="   81.006">  7  8 -1 -1</clus>
<clus scale="   81.622">  5  6 -1 -1</clus>
<clus scale="  179.323">  1  7  2 -1</clus>
<clus scale="   47.142">  1  5  2 -1</clus>
</clustering>
</event>
<event>
 9    2  0.4883225E-005  0.1036756E+03  0.7546771E-02  0.1279317E+00
         21   -1    0    0  501  502  0.00000000000E+00  0.00000000000E+00  0.45071181141E+02  0.45071181141E+02  0.00000000000E+00 0.  1.
         -1   -1    0    0    0  501 -0.00000000000E+00 -0.00000000000E+00 -0.55493047667E+03  0.55493047667E+03  0.00000000000E+00 0.  1.
         23    2    1    2    0    0 -0.28619462060E+02 -0.83383331971E+01 -0.15486087902E+03  0.18245281790E+03  0.91752588509E+02 0.  0.
         24    2    1    2    0    0  0.63220968882E+02  0.62793563290E+02 -0.10094014742E+03  0.15542627231E+03  0.77643352994E+02 0.  0.
        -13    1    4    4    0    0  0.78915182404E+02  0.35341413942E+02 -0.76687379316E+02  0.11557497869E+03  0.00000000000E+00 0.  1.
         14    1    4    4    0    0 -0.15694213522E+02  0.27452149349E+02 -0.24252768106E+02  0.39851293614E+02  0.00000000000E+00 0. -1.
        -13    1    3    3    0    0 -0.18032640203E+02  0.27644158647E+02 -0.13698144248E+03  0.14090170759E+03  0.00000000000E+00 0.  1.
         13    1    3    3    0    0 -0.10586821858E+02 -0.35982491844E+02 -0.17879436548E+02  0.41551110306E+02  0.00000000000E+00 0. -1.
         -2    1    1    2    0  502 -0.34601506822E+02 -0.54455230093E+02 -0.25405826908E+03  0.26212256761E+03  0.00000000000E+00 0.  1.
<scales pt_clust_5="13000.00000" pt_clust_6="13000.00000" pt_clust_7="13000.00000" pt_clust_8="13000.00000" pt_clust_9="64.51853"></scales>
<clustering>
<clus scale="   64.519">  1  9  2 -1</clus>
<clus scale="   77.643">  5  6 -1 -1</clus>
<clus scale="   91.425">  1  5  2 -1</clus>
<clus scale="   91.753">  7  8 -1 -1</clus>
<clus scale="   64.519">  1  5  2 -1</clus>
</clustering>
</event>
<event>
 9    2  0.4883225E-005  0.1195072E+03  0.7546771E-02  0.1247247E+00
         21   -1    0    0  501  502  0.00000000000E+00  0.00000000000E+00  0.30228649964E+03  0.30228649964E+03  0.00000000000E+00 0. -1.
          4   -1    0    0  502    0 -0.00000000000E+00 -0.00000000000E+00 -0.61880601022E+03  0.61880601022E+03  0.00000000000E+00 0. -1.
         24    2    1    2    0    0 -0.62114225737E+02 -0.44515746983E+02 -0.55007832796E+03  0.56107247576E+03  0.79851909155E+02 0.  0.
         23    2    1    2    0    0  0.10747290612E+03  0.30030713804E+02  0.24590710839E+02  0.14569575731E+03  0.90389608457E+02 0.  0.
        -13    1    3    3    0    0 -0.45963868394E+02  0.14747935488E+02 -0.20848480041E+03  0.21400021215E+03  0.00000000000E+00 0.  1.
         14    1    3    3    0    0 -0.16150357343E+02 -0.59263682470E+02 -0.34159352755E+03  0.34707226361E+03  0.00000000000E+00 0. -1.
        -11    1    4    4    0    0  0.94186805734E+02  0.47048225046E+01 -0.16394475829E+02  0.95718694971E+02  0.00000000000E+00 0. -1.
         11    1    4    4    0    0  0.13286100383E+02  0.25325891300E+02  0.40985186669E+02  0.49977062336E+02  0.00000000000E+00 0.  1.
          3    1    1    2  501    0 -0.45358680380E+02  0.14485033178E+02  0.20896810654E+03  0.21432427679E+03  0.00000000000E+00 0. -1.
<scales pt_clust_5="13000.00000" pt_clust_6="13000.00000" pt_clust_7="13000.00000" pt_clust_8="13000.00000" pt_clust_9="47.61540"></scales>
<clustering>
<clus scale="   47.615">  1  9  2 -1</clus>
<clus scale="   79.852">  5  6 -1 -1</clus>
<clus scale="   90.390">  7  8 -1 -1</clus>
<clus scale="  111.750">  2  5  1 -1</clus>
<clus scale="   47.615">  1  5  2 -1</clus>
</clustering>
</event>
<event>
 9    2  0.4883225E-005  0.9898635E+02  0.7546771E-02  0.1288641E+00
          2   -1    0    0  502    0 -0.00000000000E+00  0.00000000000E+00  0.38113079656E+03  0.38113079656E+03  0.00000000000E+00 0. -1.
         21   -1    0    0  501  502  0.00000000000E+00 -0.00000000000E+00 -0.55381791612E+02  0.55381791612E+02  0.00000000000E+00 0. -1.
         23    2    1    2    0    0 -0.14433486881E+02  0.33954642605E+02  0.30845135432E+03  0.32416856554E+03  0.92637884266E+02 0.  0.
         24    2    1    2    0    0  0.27802205696E+02 -0.14175353775E+02  0.93270000315E+01  0.87175109661E+02  0.80861631932E+02 0.  0.
        -13    1    4    4    0    0  0.44767758559E+02 -0.27609633422E+02  0.27103397395E+02  0.59169571694E+02  0.00000000000E+00 0.  1.
         14    1    4    4    0    0 -0.16965552863E+02  0.13434279647E+02 -0.17776397364E+02  0.28005537967E+02  0.00000000000E+00 0. -1.
        -11    1    3    3    0    0 -0.33498373177E+02 -0.20860889593E+02  0.92754279918E+02  0.10080016946E+03  0.00000000000E+00 0.  1.
         11    1    3    3    0    0  0.19064886295E+02  0.54815532197E+02  0.21569707440E+03  0.22336839608E+03  0.00000000000E+00 0. -1.
          1    1    1    2  501    0 -0.13368718815E+02 -0.19779288830E+02  0.79706505929E+01  0.25168912973E+02  0.00000000000E+00 0. -1.
<scales pt_clust_5="13000.00000" pt_clust_6="13000.00000" pt_clust_7="13000.00000" pt_clust_8="13000.00000" pt_clust_9="23.87348"></scales>
<clustering>
<clus scale="   23.873">  2  9  1 -1</clus>
<clus scale="   80.862">  5  6 -1 -1</clus>
<clus scale="   88.063">  2  5  1 -1</clus>
<clus scale="   92.638">  7  8 -1 -1</clus>
<clus scale="   23.873">  2  5  1 -1</clus>
</clustering>
</event>
<event>
 9    2  0.4883225E-005  0.2578947E+03  0.7546771E-02  0.1109069E+00
          2   -1    0    0  502    0 -0.00000000000E+00  0.00000000000E+00  0.59306201993E+03  0.59306201993E+03  0.00000000000E+00 0. -1.
         21   -1    0    0  501  502  0.00000000000E+00 -0.00000000000E+00 -0.15843656071E+03  0.15843656071E+03  0.00000000000E+00 0.  1.
         24    2    1    2    0    0 -0.22120010491E+03 -0.54870151966E+02  0.25613966209E+03  0.35212406103E+03  0.80272086497E+02 0.  0.
         23    2    1    2    0    0  0.26436448763E+03  0.48622385545E+02  0.85993229537E+02  0.29711468594E+03  0.92895545531E+02 0.  0.
        -11    1    3    3    0    0 -0.35573280944E+02 -0.42276656838E+02  0.66473532639E+02  0.86437865383E+02  0.00000000000E+00 0.  1.
         12    1    3    3    0    0 -0.18562682397E+03 -0.12593495128E+02  0.18966612945E+03  0.26568619565E+03  0.00000000000E+00 0. -1.
        -13    1    4    4    0    0  0.20503435840E+03  0.57333058219E+02  0.29874566831E+02  0.21498524934E+03  0.00000000000E+00 0.  1.
         13    1    4    4    0    0  0.59330129231E+02 -0.87106726736E+01  0.56118662706E+02  0.82129436604E+02  0.00000000000E+00 0. -1.
          1    1    1    2  501    0 -0.43164382720E+02  0.62477664207E+01  0.92492567598E+02  0.10225983367E+03  0.00000000000E+00 0. -1.
<scales pt_clust_5="13000.00000" pt_clust_6="13000.00000" pt_clust_7="13000.00000" pt_clust_8="13000.00000" pt_clust_9="43.61422"></scales>
<clustering>
<clus scale="   43.614">  2  9  1 -1</clus>
<clus scale="   80.272">  5  6 -1 -1</clus>
<clus scale="   92.896">  7  8 -1 -1</clus>
<clus scale="  253.621">  1  5  2 -1</clus>
<clus scale="   43.614">  2  5  1 -1</clus>
</clustering>
</event>
<event>
 9    2  0.4883225E-005  0.9307803E+02  0.7546771E-02  0.1302432E+00
         -1   -1    0    0    0  501 -0.00000000000E+00  0.00000000000E+00  0.34683568258E+03  0.34683568258E+03  0.00000000000E+00 0.  1.
         21   -1    0    0  501  502  0.00000000000E+00 -0.00000000000E+00 -0.34173258329E+02  0.34173258329E+02  0.00000000000E+00 0.  1.
         24    2    1    2    0    0  0.78356855876E+00 -0.88143923632E+01  0.14356717786E+03  0.16506522321E+03  0.80973365137E+02 0.  0.
         23    2    1    2    0    0 -0.31513481966E+02 -0.10390969212E+02  0.12703155792E+03  0.16042320456E+03  0.92181972575E+02 0.  0.
        -11    1    3    3    0    0 -0.37531423482E+02 -0.12837379661E+02  0.95874248068E+02  0.10375585529E+03  0.00000000000E+00 0.  1.
         12    1    3    3    0    0  0.38314992041E+02  0.40229872978E+01  0.47692929791E+02  0.61309367914E+02  0.00000000000E+00 0. -1.
        -13    1    4    4    0    0  0.15644891979E+01 -0.47754521846E+02  0.55973853778E+02  0.73593575059E+02  0.00000000000E+00 0.  1.
         13    1    4    4    0    0 -0.33077971163E+02  0.37363552635E+02  0.71057704145E+02  0.86829629506E+02  0.00000000000E+00 0. -1.
         -2    1    1    2    0  502  0.30729913407E+02  0.19205361575E+02  0.42063688465E+02  0.55520513132E+02  0.00000000000E+00 0.  1.
<scales pt_clust_5="13000.00000" pt_clust_6="13000.00000" pt_clust_7="13000.00000" pt_clust_8="13000.00000" pt_clust_9="36.23774"></scales>
<clustering>
<clus scale="   36.238">  2  9  1 -1</clus>
<clus scale="   80.973">  5  6 -1 -1</clus>
<clus scale="   81.992">  1  5  2 -1</clus>
<clus scale="   92.182">  7  8 -1 -1</clus>
<clus scale="   36.238">  2  5  1 -1</clus>
</clustering>
</event>
<event>
 9    2  0.4883225E-005  0.9234585E+02  0.7546771E-02  0.1304506E+00
         21   -1    0    0  501  502  0.00000000000E+00  0.00000000000E+00  0.45236975321E+02  0.45236975321E+02  0.00000000000E+00 0.  1.
         -1   -1    0    0    0  501 -0.00000000000E+00 -0.00000000000E+00 -0.44121497962E+03  0.44121497962E+03  0.00000000000E+00 0.  1.
         23    2    1    2    0    0  0.17568925966E+01 -0.89532757637E+01 -0.25979439848E+03  0.27533652187E+03  0.90740415355E+02 0.  0.
         24    2    1    2    0    0 -0.15582456224E+02  0.49171004459E+02 -0.33728749905E+02  0.10018478170E+03  0.78985829700E+02 0.  0.
        -11    1    4    4    0    0  0.22341651104E+02  0.49407529492E+02 -0.91471504551E+01  0.54990214639E+02  0.00000000000E+00 0.  1.
         12    1    4    4    0    0 -0.37924107327E+02 -0.23652503345E+00 -0.24581599450E+02  0.45194567065E+02  0.00000000000E+00 0. -1.
        -11    1    3    3    0    0  0.24314715835E+02 -0.43512699584E+02 -0.14793445255E+03  0.15610625446E+03  0.00000000000E+00 0.  1.
         11    1    3    3    0    0 -0.22557823238E+02  0.34559423820E+02 -0.11185994593E+03  0.11923026741E+03  0.00000000000E+00 0. -1.
         -2    1    1    2    0  502  0.13825563627E+02 -0.40217728695E+02 -0.10245485592E+03  0.11093065136E+03  0.00000000000E+00 0.  1.
<scales pt_clust_5="13000.00000" pt_clust_6="13000.00000" pt_clust_7="13000.00000" pt_clust_8="13000.00000" pt_clust_9="42.52780"></scales>
<clustering>
<clus scale="   42.528">  1  9  2 -1</clus>
<clus scale="   78.986">  5  6 -1 -1</clus>
<clus scale="   80.825">  1  5  2 -1</clus>
<clus scale="   90.740">  7  8 -1 -1</clus>
<clus scale="   42.528">  1  5  2 -1</clus>
</clustering>
</event>
<event>
 9    2  0.4883225E-005  0.9062374E+02  0.7546771E-02  0.1306050E+00
         -1   -1    0    0    0  501 -0.00000000000E+00  0.00000000000E+00  0.68839499854E+02  0.68839499854E+02  0.00000000000E+00 0.  1.
         21   -1    0    0  501  502  0.00000000000E+00 -0.00000000000E+00 -0.25787899536E+03  0.25787899536E+03  0.00000000000E+00 0. -1.
         24    2    1    2    0    0  0.92026156020E+01  0.16180696917E+01 -0.74872963140E+02  0.11132088086E+03  0.81847856552E+02 0.  0.
         23    2    1    2    0    0  0.19881861176E+02 -0.35274951612E+02 -0.13447333283E+03  0.16649916208E+03  0.89438711513E+02 0.  0.
        -13    1    3    3    0    0 -0.25151705875E+02 -0.95615625929E+01  0.13792215250E+01  0.26943163134E+02  0.00000000000E+00 0.  1.
         14    1    3    3    0    0  0.34354321477E+02  0.11179632285E+02 -0.76252184665E+02  0.84377717724E+02  0.00000000000E+00 0. -1.
        -13    1    4    4    0    0  0.29225352273E+02  0.23416675275E+02 -0.39233518080E+02  0.54237725223E+02  0.00000000000E+00 0.  1.
         13    1    4    4    0    0 -0.93434910971E+01 -0.58691626887E+02 -0.95239814745E+02  0.11226143686E+03  0.00000000000E+00 0. -1.
         -2    1    1    2    0  502 -0.29084476778E+02  0.33656881920E+02  0.20306800461E+02  0.48898452276E+02  0.00000000000E+00 0.  1.
<scales pt_clust_5="13000.00000" pt_clust_6="13000.00000" pt_clust_7="13000.00000" pt_clust_8="13000.00000" pt_clust_9="44.48252"></scales>
<clustering>
<clus scale="   44.483">  2  9  1 -1</clus>
<clus scale="   81.848">  5  6 -1 -1</clus>
<clus scale="   83.141">  1  5  2 -1</clus>
<clus scale="   89.439">  7  8 -1 -1</clus>
<clus scale="   44.483">  2  5  1 -1</clus>
</clustering>
</event>
<event>
 9    2  0.4883225E-005  0.2368671E+03  0.7546771E-02  0.1122352E+00
          2   -1    0    0  502    0 -0.00000000000E+00  0.00000000000E+00  0.10799612859E+04  0.10799612859E+04  0.00000000000E+00 0. -1.
         21   -1    0    0  501  502  0.00000000000E+00 -0.00000000000E+00 -0.16325329576E+03  0.16325329576E+03  0.00000000000E+00 0. -1.
         24    2    1    2    0    0  0.21842711402E+03  0.13783291017E+02  0.94450657323E+03  0.97309557231E+03  0.83198213554E+02 0.  0.
         23    2    1    2    0    0 -0.21736371422E+03 -0.39405678635E+02 -0.39474354799E+02  0.24194169202E+03  0.90431000667E+02 0.  0.
        -11    1    3    3    0    0  0.23802887892E+02 -0.26190923535E+02  0.13486826750E+03  0.13943454208E+03  0.00000000000E+00 0.  1.
         12    1    3    3    0    0  0.19462422612E+03  0.39974214552E+02  0.80963830573E+03  0.83366103023E+03  0.00000000000E+00 0. -1.
        -13    1    4    4    0    0 -0.17603036054E+03 -0.18058584095E+02  0.57695650853E+01  0.17704826509E+03  0.00000000000E+00 0. -1.
         13    1    4    4    0    0 -0.41333353685E+02 -0.21347094540E+02 -0.45243919884E+02  0.64893426929E+02  0.00000000000E+00 0.  1.
          1    1    1    2  501    0 -0.10633997907E+01  0.25622387618E+02  0.11675771722E+02  0.28177317325E+02  0.00000000000E+00 0. -1.
<scales pt_clust_5="13000.00000" pt_clust_6="13000.00000" pt_clust_7="13000.00000" pt_clust_8="13000.00000" pt_clust_9="25.64445"></scales>
<clustering>
<clus scale="   25.644">  2  9  1 -1</clus>
<clus scale="   83.198">  5  6 -1 -1</clus>
<clus scale="   90.431">  7  8 -1 -1</clus>
<clus scale="  234.201">  1  5  2 -1</clus>
<clus scale="   25.644">  2  5  1 -1</clus>
</clustering>
</event>
<event>
 9    2  0.4883225E-005  0.1228181E+03  0.7546771E-02  0.1240483E+00
         21   -1    0    0  501  502  0.00000000000E+00  0.00000000000E+00  0.77967722835E+03  0.77967722835E+03  0.00000000000E+00 0. -1.
          2   -1    0    0  502    0 -0.00000000000E+00 -0.00000000000E+00 -0.16455031345E+03  0.16455031345E+03  0.00000000000E+00 0. -1.
         23    2    1    2    0    0  0.65294617300E+02 -0.41577394547E+02 -0.12371117571E+03  0.17327909898E+03  0.93429783055E+02 0.  0.
         24    2    1    2    0    0 -0.11476417205E+03  0.71346855691E+02  0.58336508897E+03  0.60510118809E+03  0.87013974658E+02 0.  0.
        -11    1    4    4    0    0 -0.53836341316E+02  0.77890473249E+02  0.27900862482E+03  0.29463721793E+03  0.00000000000E+00 0.  1.
         12    1    4    4    0    0 -0.60927830732E+02 -0.65436175572E+01  0.30435646416E+03  0.31046397015E+03  0.00000000000E+00 0. -1.
        -11    1    3    3    0    0 -0.12654142901E+02 -0.37432215220E+02 -0.22523783745E+02  0.45482072325E+02  0.00000000000E+00 0.  1.
         11    1    3    3    0    0  0.77948760201E+02 -0.41451793271E+01 -0.10118739197E+03  0.12779702666E+03  0.00000000000E+00 0. -1.
          1    1    1    2  501    0  0.49469554748E+02 -0.29769461144E+02  0.15547300164E+03  0.16584725473E+03  0.00000000000E+00 0. -1.
<scales pt_clust_5="13000.00000" pt_clust_6="13000.00000" pt_clust_7="13000.00000" pt_clust_8="13000.00000" pt_clust_9="57.73610"></scales>
<clustering>
<clus scale="   57.736">  1  9  2 -1</clus>
<clus scale="   87.014">  5  6 -1 -1</clus>
<clus scale="   93.430">  7  8 -1 -1</clus>
<clus scale="  118.011">  1  5  2 -1</clus>
<clus scale="   57.736">  1  5  2 -1</clus>
</clustering>
</event>
<event>
 9    2  0.4883225E-005  0.2157545E+03  0.7546771E-02  0.1156011E+00
          2   -1    0    0  502    0 -0.00000000000E+00  0.00000000000E+00  0.82730078508E+03  0.82730078508E+03  0.00000000000E+00 0. -1.
         21   -1    0    0  501  502  0.00000000000E+00 -0.00000000000E+00 -0.11956912155E+03  0.11956912155E+03  0.00000000000E+00 0. -1.
         24    2    1    2    0    0 -0.58879957372E+02 -0.95284394515E+02  0.38860801018E+03  0.41218730565E+03  0.79600402892E+02 0.  0.
         23    2    1    2    0    0  0.70767840888E+02 -0.13720856321E+03  0.21477798888E+03  0.27957024366E+03  0.90529881857E+02 0.  0.
        -13    1    3    3    0    0  0.13021453433E+02 -0.51186180499E+02  0.16186230969E+03  0.17026153594E+03  0.00000000000E+00 0.  1.
         14    1    3    3    0    0 -0.71901410805E+02 -0.44098214016E+02  0.22674570050E+03  0.24192576971E+03  0.00000000000E+00 0. -1.
        -11    1    4    4    0    0  0.91730486987E+02 -0.11865539445E+03  0.16939762166E+03  0.22625016928E+03  0.00000000000E+00 0. -1.
         11    1    4    4    0    0 -0.20962646099E+02 -0.18553168759E+02  0.45380367227E+02  0.53320074382E+02  0.00000000000E+00 0.  1.
          1    1    1    2  501    0 -0.11887883516E+02  0.23249295772E+03  0.10434566446E+03  0.25511235732E+03  0.00000000000E+00 0. -1.
<scales pt_clust_5="13000.00000" pt_clust_6="13000.00000" pt_clust_7="13000.00000" pt_clust_8="13000.00000" pt_clust_9="195.84260"></scales>
<clustering>
<clus scale="   79.600">  5  6 -1 -1</clus>
<clus scale="   90.530">  7  8 -1 -1</clus>
<clus scale="  137.412">  1  5  2 -1</clus>
<clus scale="  195.843">  2  9  1 -1</clus>
<clus scale="  195.843">  2  5  1 -1</clus>
</clustering>
</event>
<event>
 9    2  0.4883225E-005  0.1733419E+03  0.7546771E-02  0.1175300E+00
         21   -1    0    0  501  502  0.00000000000E+00  0.00000000000E+00  0.11372908713E+03  0.11372908713E+03  0.00000000000E+00 0. -1.
          2   -1    0    0  502    0 -0.00000000000E+00 -0.00000000000E+00 -0.54378073968E+03  0.54378073968E+03  0.00000000000E+00 0. -1.
         24    2    1    2    0    0 -0.90161604103E+02 -0.52560818838E+02 -0.10582941140E+03  0.17046444041E+03  0.83465601260E+02 0.  0.
         23    2    1    2    0    0  0.16724131536E+03  0.14788468496E+03 -0.21194567607E+03  0.32081076786E+03  0.90327413112E+02 0.  0.
        -13    1    3    3    0    0 -0.43147499486E+02  0.12790699314E+02 -0.67927810862E+02  0.81483103705E+02  0.00000000000E+00 0.  1.
         14    1    3    3    0    0 -0.47014104617E+02 -0.65351518151E+02 -0.37901600542E+02  0.88981336702E+02  0.00000000000E+00 0. -1.
        -11    1    4    4    0    0  0.91821616055E+02  0.91523674381E+02 -0.61882997807E+02  0.14365687441E+03  0.00000000000E+00 0. -1.
         11    1    4    4    0    0  0.75419699305E+02  0.56361010579E+02 -0.15006267826E+03  0.17715389345E+03  0.00000000000E+00 0.  1.
          1    1    1    2  501    0 -0.77079711257E+02 -0.95323866122E+02 -0.11227656507E+03  0.16623461855E+03  0.00000000000E+00 0. -1.
<scales pt_clust_5="13000.00000" pt_clust_6="13000.00000" pt_clust_7="13000.00000" pt_clust_8="13000.00000" pt_clust_9="122.58848"></scales>
<clustering>
<clus scale="   83.466">  5  6 -1 -1</clus>
<clus scale="   90.327">  7  8 -1 -1</clus>
<clus scale="  122.588">  1  9  2 -1</clus>
<clus scale="  169.867">  2  5  1 -1</clus>
<clus scale="  122.588">  1  5  2 -1</clus>
</clustering>
</event>
<event>
 9    2  0.4883225E-005  0.1221104E+03  0.7546771E-02  0.1244710E+00
          2   -1    0    0  502    0 -0.00000000000E+00  0.00000000000E+00  0.13179741298E+04  0.13179741298E+04  0.00000000000E+00 0. -1.
         21   -1    0    0  501  502  0.00000000000E+00 -0.00000000000E+00 -0.37885840945E+02  0.37885840945E+02  0.00000000000E+00 0. -1.
         24    2    1    2    0    0  0.32918346579E+02 -0.76583523587E+02  0.98370565110E+03  0.99040001225E+03  0.79162634131E+02 0.  0.
         23    2    1    2    0    0  0.33111184629E+02  0.65269065032E+02  0.26623297564E+03  0.29199623894E+03  0.95002130693E+02 0.  0.
        -11    1    3    3    0    0  0.40623462436E+02 -0.74148402080E+01  0.24851104032E+03  0.25191860335E+03  0.00000000000E+00 0.  1.
         12    1    3    3    0    0 -0.77051158567E+01 -0.69168683379E+02  0.73519461078E+03  0.73848140890E+03  0.00000000000E+00 0. -1.
        -11    1    4    4    0    0  0.48953353318E+02  0.47181262306E+01  0.17183130707E+03  0.17873077409E+03  0.00000000000E+00 0. -1.
         11    1    4    4    0    0 -0.15842168689E+02  0.60550938801E+02  0.94401668574E+02  0.11326546485E+03  0.00000000000E+00 0.  1.
          1    1    1    2  501    0 -0.66029531208E+02  0.11314458555E+02  0.30149662101E+02  0.73463719541E+02  0.00000000000E+00 0. -1.
<scales pt_clust_5="13000.00000" pt_clust_6="13000.00000" pt_clust_7="13000.00000" pt_clust_8="13000.00000" pt_clust_9="66.99191"></scales>
<clustering>
<clus scale="   66.992">  2  9  1 -1</clus>
<clus scale="   79.163">  5  6 -1 -1</clus>
<clus scale="   95.002">  7  8 -1 -1</clus>
<clus scale="  110.237">  1  5  2 -1</clus>
<clus scale="   66.992">  2  5  1 -1</clus>
</clustering>
</event>
<event>
 9    2  0.4883225E-005  0.1636716E+03  0.7546771E-02  0.1186051E+00
          2   -1    0    0  502    0 -0.00000000000E+00  0.00000000000E+00  0.45952174608E+03  0.45952174608E+03  0.00000000000E+00 0. -1.
         21   -1    0    0  501  502  0.00000000000E+00 -0.00000000000E+00 -0.17163775546E+03  0.17163775546E+03  0.00000000000E+00 0. -1.
         23    2    1    2    0    0  0.12161589397E+03 -0.10090416872E+03  0.29695226434E+03  0.34827915528E+03  0.90253231406E+02 0.  0.
         24    2    1    2    0    0 -0.11463704034E+03  0.11498286167E+02  0.75554957537E+02  0.15957905876E+03  0.80517468801E+02 0.  0.
        -13    1    4    4    0    0 -0.25998494685E+02  0.39700580466E+02  0.28187166447E+02  0.55195780342E+02  0.00000000000E+00 0.  1.
         14    1    4    4    0    0 -0.88638545656E+02 -0.28202294299E+02  0.47367791090E+02  0.10438327841E+03  0.00000000000E+00 0. -1.
        -13    1    3    3    0    0  0.80488283554E+02 -0.60973897037E+02  0.96061176293E+02  0.13936975820E+03  0.00000000000E+00 0.  1.
         13    1    3    3    0    0  0.41127610418E+02 -0.39930271679E+02  0.20089108805E+03  0.20890939709E+03  0.00000000000E+00 0. -1.
          1    1    1    2  501    0 -0.69788536317E+01  0.89405882548E+02 -0.84623231257E+02  0.12330128751E+03  0.00000000000E+00 0. -1.
<scales pt_clust_5="13000.00000" pt_clust_6="13000.00000" pt_clust_7="13000.00000" pt_clust_8="13000.00000" pt_clust_9="89.67785"></scales>
<clustering>
<clus scale="   80.517">  5  6 -1 -1</clus>
<clus scale="   89.678">  2  9  1 -1</clus>
<clus scale="   90.253">  7  8 -1 -1</clus>
<clus scale="  158.511">  2  5  1 -1</clus>
<clus scale="   89.678">  2  5  1 -1</clus>
</clustering>
</event>
<event>
 9    2  0.4883225E-005  0.1299855E+03  0.7546771E-02  0.1229943E+00
          2   -1    0    0  502    0 -0.00000000000E+00  0.00000000000E+00  0.45204366616E+03  0.45204366616E+03  0.00000000000E+00 0. -1.
         21   -1    0    0  501  502  0.00000000000E+00 -0.00000000000E+00 -0.42446595225E+02  0.42446595225E+02  0.00000000000E+00 0. -1.
         23    2    1    2    0    0  0.79093457021E+02 -0.35210837035E+02  0.17313374560E+03  0.21335288005E+03  0.89713876130E+02 0.  0.
         24    2    1    2    0    0 -0.85476810194E+02  0.55759776365E+02  0.19154419375E+03  0.23133040906E+03  0.80057118701E+02 0.  0.
        -13    1    4    4    0    0  0.71430136573E+01  0.28118199360E+02  0.22937636394E+02  0.36983657779E+02  0.00000000000E+00 0.  1.
         14    1    4    4    0    0 -0.92619823851E+02  0.27641577006E+02  0.16860655736E+03  0.19434675128E+03  0.00000000000E+00 0. -1.
        -11    1    3    3    0    0  0.94296192908E+02 -0.15140029495E+02  0.11171552696E+03  0.14697398224E+03  0.00000000000E+00 0. -1.
         11    1    3    3    0    0 -0.15202735887E+02 -0.20070807540E+02  0.61418218639E+02  0.66378897811E+02  0.00000000000E+00 0.  1.
          1    1    1    2  501    0  0.63833531723E+01 -0.20548939330E+02  0.44919131583E+02  0.49806972278E+02  0.00000000000E+00 0. -1.
<scales pt_clust_5="13000.00000" pt_clust_6="13000.00000" pt_clust_7="13000.00000" pt_clust_8="13000.00000" pt_clust_9="21.51759"></scales>
<clustering>
<clus scale="   21.518">  2  9  1 -1</clus>
<clus scale="   80.057">  5  6 -1 -1</clus>
<clus scale="   89.714">  7  8 -1 -1</clus>
<clus scale="  123.518">  2  5  1 -1</clus>
<clus scale="   21.518">  2  5  1 -1</clus>
</clustering>
</event>
<event>
 9    2  0.4883225E-005  0.9166583E+02  0.7546771E-02  0.1301215E+00
         21   -1    0    0  501  502  0.00000000000E+00  0.00000000000E+00  0.82198951900E+02  0.82198951900E+02  0.00000000000E+00 0. -1.
         -3   -1    0    0    0  501 -0.00000000000E+00 -0.00000000000E+00 -0.24578899735E+03  0.24578899735E+03  0.00000000000E+00 0.  1.
         24    2    1    2    0    0 -0.57469268121E+02  0.29692382954E+02 -0.71601620094E+02  0.12557284275E+03  0.80357902240E+02 0.  0.
         23    2    1    2    0    0 -0.16692553955E+02 -0.97715388918E+01 -0.57698138737E+01  0.86957474237E+02  0.84582428694E+02 0.  0.
        -11    1    3    3    0    0  0.14416214468E+02  0.19358950368E+02 -0.39229361645E+02  0.46060167325E+02  0.00000000000E+00 0.  1.
         12    1    3    3    0    0 -0.71885482589E+02  0.10333432586E+02 -0.32372258448E+02  0.79512675424E+02  0.00000000000E+00 0. -1.
        -13    1    4    4    0    0 -0.40851311184E+02 -0.29826690306E+01  0.24429946978E+02  0.47692224202E+02  0.00000000000E+00 0. -1.
         13    1    4    4    0    0  0.24158757229E+02 -0.67888698612E+01 -0.30199760851E+02  0.39265250035E+02  0.00000000000E+00 0.  1.
         -4    1    1    2    0  502  0.74161822076E+02 -0.19920844062E+02 -0.86218611480E+02  0.11545763226E+03  0.00000000000E+00 0.  1.
<scales pt_clust_5="13000.00000" pt_clust_6="13000.00000" pt_clust_7="13000.00000" pt_clust_8="13000.00000" pt_clust_9="76.79077"></scales>
<clustering>
<clus scale="   76.791">  1  9  2 -1</clus>
<clus scale="   80.358">  5  6 -1 -1</clus>
<clus scale="   84.582">  7  8 -1 -1</clus>
<clus scale="   87.783">  2  5  1 -1</clus>
<clus scale="   76.791">  1  5  2 -1</clus>
</clustering>
</event>
<event>
 9    2  0.4883225E-005  0.1196789E+03  0.7546771E-02  0.1253534E+00
         21   -1    0    0  501  502  0.00000000000E+00  0.00000000000E+00  0.54288819283E+02  0.54288819283E+02  0.00000000000E+00 0.  1.
          2   -1    0    0  502    0 -0.00000000000E+00 -0.00000000000E+00 -0.48879448152E+03  0.48879448152E+03  0.00000000000E+00 0. -1.
         24    2    1    2    0    0  0.16054405310E+02 -0.51996099893E+02 -0.23761893802E+03  0.25708984074E+03  0.81676729698E+02 0.  0.
         23    2    1    2    0    0  0.11105356010E+02 -0.46469319114E+02 -0.95185564731E+02  0.14185388459E+03  0.93699019683E+02 0.  0.
        -11    1    3    3    0    0  0.36145218518E+02  0.58300301804E+01 -0.99093456518E+02  0.10564080271E+03  0.00000000000E+00 0.  1.
         12    1    3    3    0    0 -0.20090813207E+02 -0.57826130073E+02 -0.13852548150E+03  0.15144903803E+03  0.00000000000E+00 0. -1.
        -13    1    4    4    0    0  0.37162667809E+02 -0.91750485267E+00 -0.49965817399E+01  0.37508286057E+02  0.00000000000E+00 0. -1.
         13    1    4    4    0    0 -0.26057311799E+02 -0.45551814261E+02 -0.90188982991E+02  0.10434559853E+03  0.00000000000E+00 0.  1.
          1    1    1    2  501    0 -0.27159761320E+02  0.98465419007E+02 -0.10170115949E+03  0.14413957547E+03  0.00000000000E+00 0. -1.
<scales pt_clust_5="13000.00000" pt_clust_6="13000.00000" pt_clust_7="13000.00000" pt_clust_8="13000.00000" pt_clust_9="74.45501"></scales>
<clustering>
<clus scale="   81.677">  5  6 -1 -1</clus>
<clus scale="   93.699">  7  8 -1 -1</clus>
<clus scale="   98.145">  2  5  1 -1</clus>
<clus scale="   74.455">  1  9  2 -1</clus>
<clus scale="   74.455">  1  5  2 -1</clus>
</clustering>
</event>
<event>
 9    2  0.4883225E-005  0.1093604E+03  0.7546771E-02  0.1265416E+00
         21   -1    0    0  501  502  0.00000000000E+00  0.00000000000E+00  0.98197087402E+02  0.98197087402E+02  0.00000000000E+00 0. -1.
          2   -1    0    0  502    0 -0.00000000000E+00 -0.00000000000E+00 -0.19824210422E+03  0.19824210422E+03  0.00000000000E+00 0. -1.
         23    2    1    2    0    0 -0.44548624441E+02  0.55030638120E+02 -0.83214381991E+02  0.14190517819E+03  0.90551063802E+02 0.  0.
         24    2    1    2    0    0  0.38536234649E+02 -0.20561882217E+02  0.29137612553E+02  0.96764438984E+02  0.81280525376E+02 0.  0.
        -11    1    4    4    0    0 -0.19316876236E+02  0.14892444899E+02  0.87867942547E+01  0.25925554495E+02  0.00000000000E+00 0.  1.
         12    1    4    4    0    0  0.57853110885E+02 -0.35454327116E+02  0.20350818298E+02  0.70838884489E+02  0.00000000000E+00 0. -1.
        -11    1    3    3    0    0 -0.69400955569E+02  0.55699388909E+02 -0.56486723907E+02  0.10540239341E+03  0.00000000000E+00 0. -1.
         11    1    3    3    0    0  0.24852331128E+02 -0.66875078944E+00 -0.26727658084E+02  0.36502784781E+02  0.00000000000E+00 0.  1.
          1    1    1    2  501    0  0.60123897918E+01 -0.34468755903E+02 -0.45968247376E+02  0.57769574443E+02  0.00000000000E+00 0. -1.
<scales pt_clust_5="13000.00000" pt_clust_6="13000.00000" pt_clust_7="13000.00000" pt_clust_8="13000.00000" pt_clust_9="34.98922"></scales>
<clustering>
<clus scale="   34.989">  1  9  2 -1</clus>
<clus scale="   81.281">  5  6 -1 -1</clus>
<clus scale="   90.551">  7  8 -1 -1</clus>
<clus scale="  101.817">  1  5  2 -1</clus>
<clus scale="   34.989">  1  5  2 -1</clus>
</clustering>
</event>
<event>
 9    2  0.4883225E-005  0.9570493E+02  0.7546771E-02  0.1292328E+00
          2   -1    0    0  502    0 -0.00000000000E+00  0.00000000000E+00  0.31453489299E+03  0.31453489299E+03  0.00000000000E+00 0. -1.
         21   -1    0    0  501  502  0.00000000000E+00 -0.00000000000E+00 -0.10929855962E+03  0.10929855962E+03  0.00000000000E+00 0. -1.
         23    2    1    2    0    0  0.42208515170E+02  0.48681367035E+01  0.15294463294E+03  0.18356292364E+03  0.92184752985E+02 0.  0.
         24    2    1    2    0    0  0.45828145203E+02  0.38595045211E+02  0.91006466705E+02  0.13473221896E+03  0.79251482232E+02 0.  0.
        -13    1    4    4    0    0  0.37669562165E+02 -0.17941276514E+02  0.45188285755E+02  0.61505011878E+02  0.00000000000E+00 0.  1.
         14    1    4    4    0    0  0.81585830388E+01  0.56536321725E+02  0.45818180950E+02  0.73227207081E+02  0.00000000000E+00 0. -1.
        -11    1    3    3    0    0 -0.13942841594E+02 -0.31333996925E+02  0.44371096548E+02  0.56080445825E+02  0.00000000000E+00 0.  1.
         11    1    3    3    0    0  0.56151356764E+02  0.36202133628E+02  0.10857353639E+03  0.12748247782E+03  0.00000000000E+00 0. -1.
          1    1    1    2  501    0 -0.88036660374E+02 -0.43463181914E+02 -0.38714766270E+02  0.10553831001E+03  0.00000000000E+00 0. -1.
<scales pt_clust_5="13000.00000" pt_clust_6="13000.00000" pt_clust_7="13000.00000" pt_clust_8="13000.00000" pt_clust_9="98.18096"></scales>
<clustering>
<clus scale="   79.251">  5  6 -1 -1</clus>
<clus scale="   92.185">  7  8 -1 -1</clus>
<clus scale="   98.181">  2  9  1 -1</clus>
<clus scale="   98.181">  2  5  1 -1</clus>
<clus scale="   95.705">  2  5  1 -1</clus>
</clustering>
</event>
<event>
 9    2  0.4883225E-005  0.9548349E+02  0.7546771E-02  0.1296127E+00
         21   -1    0    0  501  502  0.00000000000E+00  0.00000000000E+00  0.59367829690E+02  0.59367829690E+02  0.00000000000E+00 0.  1.
          2   -1    0    0  502    0 -0.00000000000E+00 -0.00000000000E+00 -0.36222657573E+03  0.36222657573E+03  0.00000000000E+00 0. -1.
         23    2    1    2    0    0 -0.13546498424E+02 -0.33233312921E+02 -0.26422532285E+03  0.28137733696E+03  0.89834424425E+02 0.  0.
         24    2    1    2    0    0 -0.23921565761E+02  0.23032910692E+02 -0.29901759673E+00  0.85651230325E+02  0.78951172007E+02 0.  0.
        -11    1    4    4    0    0  0.13458266238E+02  0.38425671311E+02  0.13565295996E+02  0.42914734081E+02  0.00000000000E+00 0.  1.
         12    1    4    4    0    0 -0.37379831999E+02 -0.15392760619E+02 -0.13864313593E+02  0.42736496243E+02  0.00000000000E+00 0. -1.
        -13    1    3    3    0    0  0.31379120521E+02 -0.20039805317E+02 -0.51435426918E+02  0.63496819952E+02  0.00000000000E+00 0. -1.
         13    1    3    3    0    0 -0.44925618945E+02 -0.13193507604E+02 -0.21278989593E+03  0.21788051700E+03  0.00000000000E+00 0.  1.
          1    1    1    2  501    0  0.37468064185E+02  0.10200402229E+02 -0.38334405593E+02  0.54565838137E+02  0.00000000000E+00 0. -1.
<scales pt_clust_5="13000.00000" pt_clust_6="13000.00000" pt_clust_7="13000.00000" pt_clust_8="13000.00000" pt_clust_9="38.83174"></scales>
<clustering>
<clus scale="   38.832">  1  9  2 -1</clus>
<clus scale="   78.951">  5  6 -1 -1</clus>
<clus scale="   85.324">  1  5  2 -1</clus>
<clus scale="   89.834">  7  8 -1 -1</clus>
<clus scale="   38.832">  1  5  2 -1</clus>
</clustering>
</event>
<event>
 9    2  0.4883225E-005  0.3697137E+03  0.7546771E-02  0.1109735E+00
          2   -1    0    0  502    0 -0.00000000000E+00  0.00000000000E+00  0.24687062742E+04  0.24687062742E+04  0.00000000000E+00 0. -1.
         21   -1    0    0  501  502  0.00000000000E+00 -0.00000000000E+00 -0.93937930026E+02  0.93937930026E+02  0.00000000000E+00 0. -1.
         24    2    1    2    0    0  0.29102408151E+02 -0.67748713377E+01  0.14094213559E+03  0.16440087301E+03  0.79184041450E+02 0.  0.
         23    2    1    2    0    0  0.25842310840E+03 -0.21671407694E+03  0.17916586970E+04  0.18254167074E+04  0.91420866998E+02 0.  0.
        -11    1    3    3    0    0 -0.12058132328E+02 -0.27212962551E+02  0.22367739837E+02  0.37232508261E+02  0.00000000000E+00 0.  1.
         12    1    3    3    0    0  0.41160540480E+02  0.20438091213E+02  0.11857439575E+03  0.12716836475E+03  0.00000000000E+00 0. -1.
        -13    1    4    4    0    0  0.15604193500E+03 -0.83132690059E+02  0.10605079524E+04  0.10751452212E+04  0.00000000000E+00 0.  1.
         13    1    4    4    0    0  0.10238117341E+03 -0.13358138688E+03  0.73115074465E+03  0.75027148619E+03  0.00000000000E+00 0. -1.
          1    1    1    2  501    0 -0.28752551655E+03  0.22348894828E+03  0.44216751155E+03  0.57282662381E+03  0.00000000000E+00 0. -1.
<scales pt_clust_5="13000.00000" pt_clust_6="13000.00000" pt_clust_7="13000.00000" pt_clust_8="13000.00000" pt_clust_9="358.23238"></scales>
<clustering>
<clus scale="   79.184">  5  6 -1 -1</clus>
<clus scale="   84.634">  1  5  2 -1</clus>
<clus scale="   91.421">  7  8 -1 -1</clus>
<clus scale="  358.232">  2  9  1 -1</clus>
<clus scale="  358.232">  2  5  1 -1</clus>
</clustering>
</event>
<event>
 9    2  0.4883225E-005  0.9990641E+02  0.7546771E-02  0.1285286E+00
         21   -1    0    0  501  502  0.00000000000E+00  0.00000000000E+00  0.29232535347E+03  0.29232535347E+03  0.00000000000E+00 0. -1.
         -3   -1    0    0    0  501 -0.00000000000E+00 -0.00000000000E+00 -0.10007897834E+03  0.10007897834E+03  0.00000000000E+00 0.  1.
         24    2    1    2    0    0  0.35663519009E+02 -0.25121629671E+02 -0.60479403330E+02  0.11022751059E+03  0.81174891426E+02 0.  0.
         23    2    1    2    0    0 -0.16547814989E+02  0.14655760517E+02  0.23847824919E+03  0.25613960463E+03  0.90812995918E+02 0.  0.
        -13    1    3    3    0    0  0.41907141754E+02  0.82842062679E+01 -0.63036139835E+02  0.76147170195E+02  0.00000000000E+00 0.  1.
         14    1    3    3    0    0 -0.62436227450E+01 -0.33405835939E+02  0.25567365047E+01  0.34080340394E+02  0.00000000000E+00 0. -1.
        -11    1    4    4    0    0  0.26719826248E+02  0.12425131412E+02  0.26027481912E+02  0.39316190304E+02  0.00000000000E+00 0.  1.
         11    1    4    4    0    0 -0.43267641237E+02  0.22306291044E+01  0.21245076727E+03  0.21682341433E+03  0.00000000000E+00 0. -1.
         -4    1    1    2    0  502 -0.19115704020E+02  0.10465869155E+02  0.14247529280E+02  0.26037216593E+02  0.00000000000E+00 0.  1.
<scales pt_clust_5="13000.00000" pt_clust_6="13000.00000" pt_clust_7="13000.00000" pt_clust_8="13000.00000" pt_clust_9="21.79322"></scales>
<clustering>
<clus scale="   21.793">  1  9  2 -1</clus>
<clus scale="   81.175">  5  6 -1 -1</clus>
<clus scale="   90.813">  7  8 -1 -1</clus>
<clus scale="   91.234">  2  5  1 -1</clus>
<clus scale="   21.793">  1  5  2 -1</clus>
</clustering>
</event>
<event>
 9    2  0.4883225E-005  0.1078752E+03  0.7546771E-02  0.1269808E+00
         -3   -1    0    0    0  501 -0.00000000000E+00  0.00000000000E+00  0.29234625380E+03  0.29234625380E+03  0.00000000000E+00 0.  1.
         21   -1    0    0  501  502  0.00000000000E+00 -0.00000000000E+00 -0.66904672005E+02  0.66904672005E+02  0.00000000000E+00 0.  1.
         23    2    1    2    0    0  0.15766581652E+02  0.63091441653E+02  0.13662928559E+03  0.17693447105E+03  0.91701310014E+02 0.  0.
         24    2    1    2    0    0 -0.54704634038E+02 -0.22591281891E+02  0.35877757843E+02  0.10512513260E+03  0.79127220306E+02 0.  0.
        -11    1    4    4    0    0 -0.58862886858E+01 -0.32402642225E+02 -0.12947848627E+02  0.35386811127E+02  0.00000000000E+00 0.  1.
         12    1    4    4    0    0 -0.48818345352E+02  0.98113603345E+01  0.48825606470E+02  0.69738321472E+02  0.00000000000E+00 0. -1.
        -11    1    3    3    0    0 -0.23519698160E+02 -0.11228897931E+02  0.49012329814E+02  0.55511015340E+02  0.00000000000E+00 0. -1.
         11    1    3    3    0    0  0.39286279812E+02  0.74320339584E+02  0.87616955778E+02  0.12142345571E+03  0.00000000000E+00 0.  1.
         -4    1    1    2    0  502  0.38938052386E+02 -0.40500159762E+02  0.52934538356E+02  0.77191322150E+02  0.00000000000E+00 0.  1.
<scales pt_clust_5="13000.00000" pt_clust_6="13000.00000" pt_clust_7="13000.00000" pt_clust_8="13000.00000" pt_clust_9="56.18219"></scales>
<clustering>
<clus scale="   56.182">  2  9  1 -1</clus>
<clus scale="   79.127">  5  6 -1 -1</clus>
<clus scale="   91.701">  7  8 -1 -1</clus>
<clus scale="   97.412">  2  5  1 -1</clus>
<clus scale="   56.182">  2  5  1 -1</clus>
</clustering>
</event>
<event>
 9    2  0.4883225E-005  0.9892980E+02  0.7546771E-02  0.1293610E+00
         21   -1    0    0  501  502  0.00000000000E+00  0.00000000000E+00  0.39552953171E+02  0.39552953171E+02  0.00000000000E+00 0.  1.
          2   -1    0    0  502    0 -0.00000000000E+00 -0.00000000000E+00 -0.50387533030E+03  0.50387533030E+03  0.00000000000E+00 0. -1.
         23    2    1    2    0    0  0.13994145017E+02 -0.23416712172E+02 -0.28004768840E+03  0.29814226169E+03  0.98579520819E+02 0.  0.
         24    2    1    2    0    0  0.17859923632E+02 -0.33544860629E+02 -0.66812027701E+02  0.11091050615E+03  0.79956605616E+02 0.  0.
        -13    1    4    4    0    0  0.36000861763E+02 -0.10990214475E+02  0.49425354517E+00  0.37644271124E+02  0.00000000000E+00 0.  1.
         14    1    4    4    0    0 -0.18140938131E+02 -0.22554646154E+02 -0.67306281246E+02  0.73266235024E+02  0.00000000000E+00 0. -1.
        -13    1    3    3    0    0 -0.35544863859E+02  0.15150728075E+02 -0.12603471861E+03  0.13182462669E+03  0.00000000000E+00 0.  1.
         13    1    3    3    0    0  0.49539008877E+02 -0.38567440247E+02 -0.15401296979E+03  0.16631763500E+03  0.00000000000E+00 0. -1.
          1    1    1    2  501    0 -0.31854068649E+02  0.56961572801E+02 -0.11746266103E+03  0.13437551564E+03  0.00000000000E+00 0. -1.
<scales pt_clust_5="13000.00000" pt_clust_6="13000.00000" pt_clust_7="13000.00000" pt_clust_8="13000.00000" pt_clust_9="65.26336"></scales>
<clustering>
<clus scale="   65.263">  1  9  2 -1</clus>
<clus scale="   79.957">  5  6 -1 -1</clus>
<clus scale="   80.388">  1  5  2 -1</clus>
<clus scale="   98.580">  7  8 -1 -1</clus>
<clus scale="   65.263">  1  5  2 -1</clus>
</clustering>
</event>
<event>
 9    2  0.4883225E-005  0.1662834E+03  0.7546771E-02  0.1183603E+00
          2   -1    0    0  502    0 -0.00000000000E+00  0.00000000000E+00  0.67905071998E+03  0.67905071998E+03  0.00000000000E+00 0. -1.
         21   -1    0    0  501  502  0.00000000000E+00 -0.00000000000E+00 -0.81957656513E+02  0.81957656513E+02  0.00000000000E+00 0. -1.
         23    2    1    2    0    0  0.59950038465E+02  0.16160358608E+03  0.28888084985E+03  0.34863909175E+03  0.91582447796E+02 0.  0.
         24    2    1    2    0    0 -0.93256272580E+02 -0.57936252162E+02  0.74070408551E+02  0.15414727516E+03  0.78877216769E+02 0.  0.
        -11    1    4    4    0    0 -0.27157018456E+02 -0.52661230168E+01  0.63129390684E+02  0.68924274906E+02  0.00000000000E+00 0.  1.
         12    1    4    4    0    0 -0.66099254124E+02 -0.52670129145E+02  0.10941017867E+02  0.85223000251E+02  0.00000000000E+00 0. -1.
        -11    1    3    3    0    0  0.26966892178E+02  0.19055450279E+02  0.12344161862E+03  0.12778167578E+03  0.00000000000E+00 0.  1.
         11    1    3    3    0    0  0.32983146287E+02  0.14254813580E+03  0.16543923123E+03  0.22085741597E+03  0.00000000000E+00 0. -1.
          1    1    1    2  501    0  0.33306234115E+02 -0.10366733392E+03  0.23414180507E+03  0.25822200958E+03  0.00000000000E+00 0. -1.
<scales pt_clust_5="13000.00000" pt_clust_6="13000.00000" pt_clust_7="13000.00000" pt_clust_8="13000.00000" pt_clust_9="108.88633"></scales>
<clustering>
<clus scale="   78.877">  5  6 -1 -1</clus>
<clus scale="   91.582">  7  8 -1 -1</clus>
<clus scale="  108.886">  2  9  1 -1</clus>
<clus scale="  159.638">  2  5  1 -1</clus>
<clus scale="  108.886">  2  5  1 -1</clus>
</clustering>
</event>
<event>
 9    2  0.4883225E-005  0.1252784E+03  0.7546771E-02  0.1238023E+00
         21   -1    0    0  501  502  0.00000000000E+00  0.00000000000E+00  0.91173199787E+02  0.91173199787E+02  0.00000000000E+00 0.  1.
         -3   -1    0    0    0  501 -0.00000000000E+00 -0.00000000000E+00 -0.30224499557E+03  0.30224499557E+03  0.00000000000E+00 0.  1.
         24    2    1    2    0    0 -0.18945908006E+02  0.90088539579E+02 -0.13864506957E+03  0.18457424356E+03  0.79814182169E+02 0.  0.
         23    2    1    2    0    0 -0.31285255939E+02 -0.72833695852E+02 -0.27154594708E+01  0.12120514661E+03  0.91650419285E+02 0.  0.
        -11    1    3    3    0    0  0.12401209473E+02  0.88969231028E+02 -0.94092694011E+02  0.13008746724E+03  0.00000000000E+00 0.  1.
         12    1    3    3    0    0 -0.31347117479E+02  0.11193085519E+01 -0.44552375557E+02  0.54486776319E+02  0.00000000000E+00 0. -1.
        -13    1    4    4    0    0 -0.41758827879E+02 -0.49682890603E+02  0.36512136510E+02  0.74466941907E+02  0.00000000000E+00 0.  1.
         13    1    4    4    0    0  0.10473571941E+02 -0.23150805249E+02 -0.39227595980E+02  0.46738204707E+02  0.00000000000E+00 0. -1.
         -4    1    1    2    0  502  0.50231163945E+02 -0.17254843728E+02 -0.69711266744E+02  0.87638805186E+02  0.00000000000E+00 0.  1.
<scales pt_clust_5="13000.00000" pt_clust_6="13000.00000" pt_clust_7="13000.00000" pt_clust_8="13000.00000" pt_clust_9="53.11217"></scales>
<clustering>
<clus scale="   53.112">  1  9  2 -1</clus>
<clus scale="   79.814">  5  6 -1 -1</clus>
<clus scale="   91.650">  7  8 -1 -1</clus>
<clus scale="  116.898">  2  5  1 -1</clus>
<clus scale="   53.112">  1  5  2 -1</clus>
</clustering>
</event>
<event>
 9    2  0.4883225E-005  0.1030302E+03  0.7546771E-02  0.1278826E+00
         21   -1    0    0  501  502  0.00000000000E+00  0.00000000000E+00  0.17853102853E+03  0.17853102853E+03  0.00000000000E+00 0.  1.
         -3   -1    0    0    0  501 -0.00000000000E+00 -0.00000000000E+00 -0.13186106751E+03  0.13186106751E+03  0.00000000000E+00 0.  1.
         24    2    1    2    0    0 -0.34209913420E+02  0.23536559517E+02 -0.18416738644E+02  0.90759625170E+02  0.78573821904E+02 0.  0.
         23    2    1    2    0    0  0.31072501382E+02 -0.89720944558E+02  0.78444908813E+02  0.15204062277E+03  0.89148185730E+02 0.  0.
        -11    1    3    3    0    0  0.21752320070E+01  0.41507443790E+02  0.80142680576E+01  0.42329989568E+02  0.00000000000E+00 0.  1.
         12    1    3    3    0    0 -0.36385145427E+02 -0.17970884273E+02 -0.26431006702E+02  0.48429635603E+02  0.00000000000E+00 0. -1.
        -13    1    4    4    0    0  0.10940995236E+02 -0.17799899347E+02 -0.19695966459E+02  0.28713635929E+02  0.00000000000E+00 0. -1.
         13    1    4    4    0    0  0.20131506146E+02 -0.71921045211E+02  0.98140875272E+02  0.12332698684E+03  0.00000000000E+00 0.  1.
         -4    1    1    2    0  502  0.31374120385E+01  0.66184385041E+02 -0.13358209146E+02  0.67591848097E+02  0.00000000000E+00 0.  1.
<scales pt_clust_5="13000.00000" pt_clust_6="13000.00000" pt_clust_7="13000.00000" pt_clust_8="13000.00000" pt_clust_9="66.25874"></scales>
<clustering>
<clus scale="   66.259">  1  9  2 -1</clus>
<clus scale="   78.574">  5  6 -1 -1</clus>
<clus scale="   89.148">  7  8 -1 -1</clus>
<clus scale="   94.030">  2  5  1 -1</clus>
<clus scale="   66.259">  1  5  2 -1</clus>
</clustering>
</event>
<event>
 9    2  0.4883225E-005  0.1575936E+03  0.7546771E-02  0.1217419E+00
         21   -1    0    0  501  502  0.00000000000E+00  0.00000000000E+00  0.64249510886E+02  0.64249510886E+02  0.00000000000E+00 0. -1.
          2   -1    0    0  502    0 -0.00000000000E+00 -0.00000000000E+00 -0.66402008350E+03  0.66402008350E+03  0.00000000000E+00 0. -1.
         24    2    1    2    0    0 -0.28898561739E+02  0.27169283747E+02 -0.46850754417E+02  0.10147640692E+03  0.80803286579E+02 0.  0.
         23    2    1    2    0    0  0.53297517586E+02 -0.14132035634E+03 -0.36625257021E+03  0.40663315955E+03  0.91637943907E+02 0.  0.
        -13    1    3    3    0    0  0.83161885928E+01 -0.22642290554E+02 -0.27002062857E+02  0.36206956691E+02  0.00000000000E+00 0.  1.
         14    1    3    3    0    0 -0.37214750332E+02  0.49811574301E+02 -0.19848691560E+02  0.65269450229E+02  0.00000000000E+00 0. -1.
        -11    1    4    4    0    0  0.57285749895E+02 -0.51974353694E+02 -0.10442412372E+03  0.12995148401E+03  0.00000000000E+00 0.  1.
         11    1    4    4    0    0 -0.39882323087E+01 -0.89346002645E+02 -0.26182844649E+03  0.27668167554E+03  0.00000000000E+00 0. -1.
          1    1    1    2  501    0 -0.24398955847E+02  0.11415107259E+03 -0.18666724798E+03  0.22016002791E+03  0.00000000000E+00 0. -1.
<scales pt_clust_5="13000.00000" pt_clust_6="13000.00000" pt_clust_7="13000.00000" pt_clust_8="13000.00000" pt_clust_9="128.21170"></scales>
<clustering>
<clus scale="   80.803">  5  6 -1 -1</clus>
<clus scale="   90.014">  2  5  1 -1</clus>
<clus scale="   91.638">  7  8 -1 -1</clus>
<clus scale="  128.212">  1  9  2 -1</clus>
<clus scale="  128.212">  1  5  2 -1</clus>
</clustering>
</event>
<event>
 9    2  0.4883225E-005  0.3152044E+03  0.7546771E-02  0.1104316E+00
          2   -1    0    0  502    0 -0.00000000000E+00  0.00000000000E+00  0.26602164404E+04  0.26602164404E+04  0.00000000000E+00 0. -1.
         21   -1    0    0  501  502  0.00000000000E+00 -0.00000000000E+00 -0.83934753915E+02  0.83934753915E+02  0.00000000000E+00 0. -1.
         24    2    1    2    0    0  0.20679844936E+02  0.13355330215E+03  0.11951956965E+04  0.12054508882E+04  0.79717943734E+02 0.  0.
         23    2    1    2    0    0  0.27948661869E+03  0.51344337117E+02  0.42376462578E+03  0.51852814547E+03  0.92444408168E+02 0.  0.
        -13    1    3    3    0    0 -0.40997146975E+01  0.32612284502E+02  0.98467840151E+02  0.10380888356E+03  0.00000000000E+00 0.  1.
         14    1    3    3    0    0  0.24779559634E+02  0.10094101765E+03  0.10967278563E+04  0.11016420047E+04  0.00000000000E+00 0. -1.
        -11    1    4    4    0    0  0.46927079854E+02 -0.24239269978E+02  0.96323733430E+02  0.10985424277E+03  0.00000000000E+00 0.  1.
         11    1    4    4    0    0  0.23255953884E+03  0.75583607096E+02  0.32744089235E+03  0.40867390270E+03  0.00000000000E+00 0. -1.
          1    1    1    2  501    0 -0.30016646363E+03 -0.18489763926E+03  0.95732136424E+03  0.10201721606E+04  0.00000000000E+00 0. -1.
<scales pt_clust_5="13000.00000" pt_clust_6="13000.00000" pt_clust_7="13000.00000" pt_clust_8="13000.00000" pt_clust_9="301.34352"></scales>
<clustering>
<clus scale="   79.718">  5  6 -1 -1</clus>
<clus scale="   92.444">  7  8 -1 -1</clus>
<clus scale="  156.905">  1  5  2 -1</clus>
<clus scale="  301.344">  2  9  1 -1</clus>
<clus scale="  301.344">  2  5  1 -1</clus>
</clustering>
</event>
<event>
 9    2  0.4883225E-005  0.2775438E+03  0.7546771E-02  0.1128303E+00
          2   -1    0    0  502    0 -0.00000000000E+00  0.00000000000E+00  0.33947423475E+03  0.33947423475E+03  0.00000000000E+00 0. -1.
         21   -1    0    0  501  502  0.00000000000E+00 -0.00000000000E+00 -0.35619802393E+03  0.35619802393E+03  0.00000000000E+00 0. -1.
         24    2    1    2    0    0 -0.97667157198E+02 -0.88948832731E+00  0.54112502503E+02  0.13678761982E+03  0.79012816830E+02 0.  0.
         23    2    1    2    0    0 -0.14464649108E+03 -0.18244027441E+03 -0.39407755612E+02  0.25341212141E+03  0.91965596634E+02 0.  0.
        -13    1    3    3    0    0 -0.55412587700E+02 -0.26590940276E+02  0.61305473905E+02  0.86810103739E+02  0.00000000000E+00 0.  1.
         14    1    3    3    0    0 -0.42254569498E+02  0.25701451949E+02 -0.71929714023E+01  0.49977516078E+02  0.00000000000E+00 0. -1.
        -11    1    4    4    0    0 -0.68105092581E+02 -0.31755530867E+02  0.13429314098E+02  0.76335207168E+02  0.00000000000E+00 0.  1.
         11    1    4    4    0    0 -0.76541398502E+02 -0.15068474354E+03 -0.52837069711E+02  0.17707691424E+03  0.00000000000E+00 0. -1.
          1    1    1    2  501    0  0.24231364828E+03  0.18332976273E+03 -0.31428536069E+02  0.30547251747E+03  0.00000000000E+00 0. -1.
<scales pt_clust_5="13000.00000" pt_clust_6="13000.00000" pt_clust_7="13000.00000" pt_clust_8="13000.00000" pt_clust_9="261.86438"></scales>
<clustering>
<clus scale="   79.013">  5  6 -1 -1</clus>
<clus scale="   91.966">  7  8 -1 -1</clus>
<clus scale="  125.629">  1  5  2 -1</clus>
<clus scale="  261.864">  2  9  1 -1</clus>
<clus scale="  261.864">  2  5  1 -1</clus>
</clustering>
</event>
<event>
 9    2  0.4883225E-005  0.1679245E+03  0.7546771E-02  0.1206642E+00
         -3   -1    0    0    0  501 -0.00000000000E+00  0.00000000000E+00  0.14269242462E+03  0.14269242462E+03  0.00000000000E+00 0.  1.
         21   -1    0    0  501  502  0.00000000000E+00 -0.00000000000E+00 -0.90150578258E+03  0.90150578258E+03  0.00000000000E+00 0.  1.
         23    2    1    2    0    0 -0.17949232106E+02  0.12341918929E+02 -0.13259264262E+03  0.16228984450E+03  0.91009267972E+02 0.  0.
         24    2    1    2    0    0 -0.12752315287E+03 -0.46543533063E+02  0.68680113379E+02  0.17112068204E+03  0.78338208176E+02 0.  0.
        -13    1    4    4    0    0 -0.13310067329E+03 -0.50611736182E+02  0.75704699848E+02  0.16127163002E+03  0.00000000000E+00 0.  1.
         14    1    4    4    0    0  0.55775204208E+01  0.40682031193E+01 -0.70245864685E+01  0.98490520213E+01  0.00000000000E+00 0. -1.
        -13    1    3    3    0    0 -0.15294284656E+02 -0.23063158292E+02 -0.12220183397E+03  0.12529609985E+03  0.00000000000E+00 0.  1.
         13    1    3    3    0    0 -0.26549474495E+01  0.35405077220E+02 -0.10390808652E+02  0.36993744652E+02  0.00000000000E+00 0. -1.
         -4    1    1    2    0  502  0.14547238498E+03  0.34201614134E+02 -0.69490082873E+03  0.71078768065E+03  0.00000000000E+00 0.  1.
<scales pt_clust_5="13000.00000" pt_clust_6="13000.00000" pt_clust_7="13000.00000" pt_clust_8="13000.00000" pt_clust_9="148.53207"></scales>
<clustering>
<clus scale="   78.338">  5  6 -1 -1</clus>
<clus scale="   91.009">  7  8 -1 -1</clus>
<clus scale="   93.580">  1  7  2 -1</clus>
<clus scale="  148.532">  2  9  1 -1</clus>
<clus scale="  148.532">  2  5  1 -1</clus>
</clustering>
</event>
<event>
 9    2  0.4883225E-005  0.1558656E+03  0.7546771E-02  0.1220173E+00
         21   -1    0    0  501  502  0.00000000000E+00  0.00000000000E+00  0.77373736027E+02  0.77373736027E+02  0.00000000000E+00 0. -1.
          2   -1    0    0  502    0 -0.00000000000E+00 -0.00000000000E+00 -0.47475490142E+03  0.47475490142E+03  0.00000000000E+00 0. -1.
         24    2    1    2    0    0 -0.33745399613E+02  0.11801875729E+02 -0.11713518294E+03  0.14638958813E+03  0.80194913587E+02 0.  0.
         23    2    1    2    0    0  0.19998481559E+02 -0.13337788161E+03 -0.20434443557E+03  0.26175728734E+03  0.92577700126E+02 0.  0.
        -13    1    3    3    0    0  0.20595129356E+02  0.66511256742E+01 -0.58193247789E+01  0.22411188429E+02  0.00000000000E+00 0.  1.
         14    1    3    3    0    0 -0.54340528969E+02  0.51507500544E+01 -0.11131585816E+03  0.12397839970E+03  0.00000000000E+00 0. -1.
        -13    1    4    4    0    0  0.32297289776E+02 -0.37910172495E+02 -0.13277884787E+03  0.14181155999E+03  0.00000000000E+00 0.  1.
         13    1    4    4    0    0 -0.12298808216E+02 -0.95467709115E+02 -0.71565587705E+02  0.11994572736E+03  0.00000000000E+00 0. -1.
          1    1    1    2  501    0  0.13746918054E+02  0.12157600588E+03 -0.75901546885E+02  0.14398176198E+03  0.00000000000E+00 0. -1.
<scales pt_clust_5="13000.00000" pt_clust_6="13000.00000" pt_clust_7="13000.00000" pt_clust_8="13000.00000" pt_clust_9="125.39318"></scales>
<clustering>
<clus scale="   80.195">  5  6 -1 -1</clus>
<clus scale="   87.802">  2  5  1 -1</clus>
<clus scale="   92.578">  7  8 -1 -1</clus>
<clus scale="  125.393">  1  9  2 -1</clus>
<clus scale="  125.393">  1  5  2 -1</clus>
</clustering>
</event>
<event>
 9    2  0.4883225E-005  0.1101098E+03  0.7546771E-02  0.1260431E+00
         21   -1    0    0  501  502  0.00000000000E+00  0.00000000000E+00  0.65644316850E+02  0.65644316850E+02  0.00000000000E+00 0. -1.
          2   -1    0    0  502    0 -0.00000000000E+00 -0.00000000000E+00 -0.64989296119E+03  0.64989296119E+03  0.00000000000E+00 0. -1.
         24    2    1    2    0    0 -0.55062788377E+02  0.53043205468E+02 -0.55187026560E+03  0.56290949350E+03  0.80379198237E+02 0.  0.
         23    2    1    2    0    0  0.70796024607E+02 -0.21755113625E+02 -0.40925331654E+02  0.11657879263E+03  0.80189588172E+02 0.  0.
        -13    1    3    3    0    0 -0.30189283631E+02 -0.18164310045E+02 -0.15776356579E+03  0.16164986141E+03  0.00000000000E+00 0.  1.
         14    1    3    3    0    0 -0.24873504746E+02  0.71207515513E+02 -0.39410669982E+03  0.40125963209E+03  0.00000000000E+00 0. -1.
        -11    1    4    4    0    0  0.78251375355E+02  0.18906414527E+01 -0.13190825583E+02  0.79377894590E+02  0.00000000000E+00 0. -1.
         11    1    4    4    0    0 -0.74553507475E+01 -0.23645755078E+02 -0.27734506072E+02  0.37200898040E+02  0.00000000000E+00 0.  1.
          1    1    1    2  501    0 -0.15733236230E+02 -0.31288091843E+02  0.85469529152E+01  0.36048991908E+02  0.00000000000E+00 0. -1.
<scales pt_clust_5="13000.00000" pt_clust_6="13000.00000" pt_clust_7="13000.00000" pt_clust_8="13000.00000" pt_clust_9="35.02113"></scales>
<clustering>
<clus scale="   35.021">  1  9  2 -1</clus>
<clus scale="   80.190">  7  8 -1 -1</clus>
<clus scale="   80.379">  5  6 -1 -1</clus>
<clus scale="  109.971">  1  7  2 -1</clus>
<clus scale="   35.021">  1  5  2 -1</clus>
</clustering>
</event>
<event>
 9    2  0.4883225E-005  0.2642651E+03  0.7546771E-02  0.1105204E+00
          2   -1    0    0  502    0 -0.00000000000E+00  0.00000000000E+00  0.22227889030E+04  0.22227889030E+04  0.00000000000E+00 0. -1.
         21   -1    0    0  501  502  0.00000000000E+00 -0.00000000000E+00 -0.49775598953E+02  0.49775598953E+02  0.00000000000E+00 0.  1.
         24    2    1    2    0    0 -0.24290184572E+03  0.15632553376E+03  0.14582138432E+04  0.14886949131E+04  0.79912154525E+02 0.  0.
         23    2    1    2    0    0  0.16043681828E+03 -0.80100914588E+02  0.37171258392E+03  0.42287197336E+03  0.92164698407E+02 0.  0.
        -11    1    3    3    0    0 -0.19687652754E+03  0.13856377727E+03  0.13238007787E+04  0.13455143214E+04  0.00000000000E+00 0.  1.
         12    1    3    3    0    0 -0.46025318180E+02  0.17761756489E+02  0.13441306455E+03  0.14318059167E+03  0.00000000000E+00 0. -1.
        -11    1    4    4    0    0  0.98373739795E+02 -0.58370432417E+02  0.13376033669E+03  0.17600093106E+03  0.00000000000E+00 0.  1.
         11    1    4    4    0    0  0.62063078487E+02 -0.21730482171E+02  0.23795224723E+03  0.24687104230E+03  0.00000000000E+00 0. -1.
          1    1    1    2  501    0  0.82465027434E+02 -0.76224619174E+02  0.34308687694E+03  0.36099761557E+03  0.00000000000E+00 0. -1.
<scales pt_clust_5="13000.00000" pt_clust_6="13000.00000" pt_clust_7="13000.00000" pt_clust_8="13000.00000" pt_clust_9="112.29725"></scales>
<clustering>
<clus scale="   79.912">  5  6 -1 -1</clus>
<clus scale="   92.165">  7  8 -1 -1</clus>
<clus scale="  112.297">  2  9  1 -1</clus>
<clus scale="  260.245">  1  5  2 -1</clus>
<clus scale="  112.297">  2  5  1 -1</clus>
</clustering>
</event>
<event>
 9    2  0.4883225E-005  0.1647066E+03  0.7546771E-02  0.1185314E+00
          2   -1    0    0  502    0 -0.00000000000E+00  0.00000000000E+00  0.49483875142E+03  0.49483875142E+03  0.00000000000E+00 0. -1.
         21   -1    0    0  501  502  0.00000000000E+00 -0.00000000000E+00 -0.88979679753E+02  0.88979679753E+02  0.00000000000E+00 0.  1.
         24    2    1    2    0    0  0.10929866929E+03 -0.71789951062E+02  0.27505755905E+03  0.31485044219E+03  0.79838236286E+02 0.  0.
         23    2    1    2    0    0 -0.10692442043E+03  0.10527939001E+03  0.14907638295E+03  0.23074299109E+03  0.92206172989E+02 0.  0.
        -11    1    3    3    0    0  0.32763519345E+02 -0.61382922864E+02  0.85993323232E+02  0.11061719152E+03  0.00000000000E+00 0.  1.
         12    1    3    3    0    0  0.76535149945E+02 -0.10407028198E+02  0.18906423582E+03  0.20423325067E+03  0.00000000000E+00 0. -1.
        -13    1    4    4    0    0 -0.10624733035E+03  0.70233433144E+02  0.72564379336E+02  0.14658383092E+03  0.00000000000E+00 0.  1.
         13    1    4    4    0    0 -0.67709007978E+00  0.35045956865E+02  0.76512003615E+02  0.84159160172E+02  0.00000000000E+00 0. -1.
          1    1    1    2  501    0 -0.23742488616E+01 -0.33489438947E+02 -0.18274870334E+02  0.38224997899E+02  0.00000000000E+00 0. -1.
<scales pt_clust_5="13000.00000" pt_clust_6="13000.00000" pt_clust_7="13000.00000" pt_clust_8="13000.00000" pt_clust_9="33.57350"></scales>
<clustering>
<clus scale="   33.573">  2  9  1 -1</clus>
<clus scale="   79.838">  5  6 -1 -1</clus>
<clus scale="   92.206">  7  8 -1 -1</clus>
<clus scale="  158.115">  1  5  2 -1</clus>
<clus scale="   33.573">  2  5  1 -1</clus>
</clustering>
</event>
<event>
 9    2  0.4883225E-005  0.1191681E+03  0.7546771E-02  0.1247740E+00
          2   -1    0    0  502    0 -0.00000000000E+00  0.00000000000E+00  0.11493974475E+04  0.11493974475E+04  0.00000000000E+00 0. -1.
         21   -1    0    0  501  502  0.00000000000E+00 -0.00000000000E+00 -0.64973935374E+02  0.64973935374E+02  0.00000000000E+00 0. -1.
         24    2    1    2    0    0  0.58530560131E+02 -0.36292048049E+02  0.65394260746E+03  0.66248153408E+03  0.80609614311E+02 0.  0.
         23    2    1    2    0    0 -0.54619740095E+02  0.86977379917E+02  0.46866983239E+03  0.48830768474E+03  0.90799793789E+02 0.  0.
        -13    1    3    3    0    0  0.93147067636E+01 -0.43327933687E+02  0.15939797881E+03  0.16544421794E+03  0.00000000000E+00 0.  1.
         14    1    3    3    0    0  0.49215853367E+02  0.70358856380E+01  0.49454462865E+03  0.49703731614E+03  0.00000000000E+00 0. -1.
        -13    1    4    4    0    0 -0.79210904717E+02  0.72305967119E+02  0.39397300916E+03  0.40831024020E+03  0.00000000000E+00 0.  1.
         13    1    4    4    0    0  0.24591164622E+02  0.14671412798E+02  0.74696823233E+02  0.79997444534E+02  0.00000000000E+00 0. -1.
          1    1    1    2  501    0 -0.39108200356E+01 -0.50685331868E+02 -0.38188927756E+02  0.63582164033E+02  0.00000000000E+00 0. -1.
<scales pt_clust_5="13000.00000" pt_clust_6="13000.00000" pt_clust_7="13000.00000" pt_clust_8="13000.00000" pt_clust_9="50.83599"></scales>
<clustering>
<clus scale="   50.836">  2  9  1 -1</clus>
<clus scale="   80.610">  5  6 -1 -1</clus>
<clus scale="   90.800">  7  8 -1 -1</clus>
<clus scale="  111.599">  1  5  2 -1</clus>
<clus scale="   50.836">  2  5  1 -1</clus>
</clustering>
</event>
<event>
 9    2  0.4883225E-005  0.2181262E+03  0.7546771E-02  0.1140456E+00
          4   -1    0    0  502    0 -0.00000000000E+00  0.00000000000E+00  0.31315694673E+03  0.31315694673E+03  0.00000000000E+00 0. -1.
         21   -1    0    0  501  502  0.00000000000E+00 -0.00000000000E+00 -0.39648915724E+03  0.39648915724E+03  0.00000000000E+00 0. -1.
         24    2    1    2    0    0  0.98261410587E+02  0.15047843997E+03 -0.10477507266E+03  0.21913979162E+03  0.68886622184E+02 0.  0.
         23    2    1    2    0    0  0.12544459612E+03 -0.12618067565E+03  0.13167373709E+03  0.23993575427E+03  0.92592027370E+02 0.  0.
        -11    1    3    3    0    0  0.12398095989E+02  0.17596107099E+02  0.99482271712E+01  0.23712928817E+02  0.00000000000E+00 0.  1.
         12    1    3    3    0    0  0.85863314598E+02  0.13288233287E+03 -0.11472329983E+03  0.19542686281E+03  0.00000000000E+00 0. -1.
        -11    1    4    4    0    0  0.10753914596E+02 -0.55755566327E+02  0.83543432370E+01  0.57394467560E+02  0.00000000000E+00 0.  1.
         11    1    4    4    0    0  0.11469068153E+03 -0.70425109320E+02  0.12331939385E+03  0.18254128670E+03  0.00000000000E+00 0. -1.
          3    1    1    2  501    0 -0.22370600671E+03 -0.24297764323E+02 -0.11023087494E+03  0.25057055808E+03  0.00000000000E+00 0. -1.
<scales pt_clust_5="13000.00000" pt_clust_6="13000.00000" pt_clust_7="13000.00000" pt_clust_8="13000.00000" pt_clust_9="197.49871"></scales>
<clustering>
<clus scale="   68.887">  5  6 -1 -1</clus>
<clus scale="   92.592">  7  8 -1 -1</clus>
<clus scale="  192.469">  1  5  2 -1</clus>
<clus scale="  197.499">  2  9  1 -1</clus>
<clus scale="  197.499">  2  5  1 -1</clus>
</clustering>
</event>
<event>
 9    2  0.4883225E-005  0.1496679E+03  0.7546771E-02  0.1201569E+00
         21   -1    0    0  501  502  0.00000000000E+00  0.00000000000E+00  0.82661325761E+02  0.82661325761E+02  0.00000000000E+00 0. -1.
          2   -1    0    0  502    0 -0.00000000000E+00 -0.00000000000E+00 -0.38007938827E+03  0.38007938827E+03  0.00000000000E+00 0. -1.
         23    2    1    2    0    0 -0.10358088986E+03  0.28440780888E+02 -0.12238328423E+03  0.18293288283E+03  0.83360018012E+02 0.  0.
         24    2    1    2    0    0  0.14377596039E+03 -0.13764683170E+02 -0.10815874947E+03  0.20041365780E+03  0.87214252612E+02 0.  0.
        -11    1    4    4    0    0  0.81885118130E+02  0.29359061143E+02 -0.30580849743E+02  0.92208000810E+02  0.00000000000E+00 0.  1.
         12    1    4    4    0    0  0.61890842257E+02 -0.43123744313E+02 -0.77577899730E+02  0.10820565699E+03  0.00000000000E+00 0. -1.
        -11    1    3    3    0    0 -0.74835068129E+02  0.50985020715E+02 -0.54075834489E+02  0.10547016467E+03  0.00000000000E+00 0. -1.
         11    1    3    3    0    0 -0.28745821728E+02 -0.22544239828E+02 -0.68307449737E+02  0.77462718166E+02  0.00000000000E+00 0.  1.
          1    1    1    2  501    0 -0.40195070531E+02 -0.14676097718E+02 -0.66876028807E+02  0.79394173390E+02  0.00000000000E+00 0. -1.
<scales pt_clust_5="13000.00000" pt_clust_6="13000.00000" pt_clust_7="13000.00000" pt_clust_8="13000.00000" pt_clust_9="42.79058"></scales>
<clustering>
<clus scale="   42.791">  1  9  2 -1</clus>
<clus scale="   83.360">  7  8 -1 -1</clus>
<clus scale="   87.214">  5  6 -1 -1</clus>
<clus scale="  147.455">  2  7  1 -1</clus>
<clus scale="   42.791">  1  5  2 -1</clus>
</clustering>
</event>
<event>
 9    2  0.4883225E-005  0.9415496E+02  0.7546771E-02  0.1295277E+00
         21   -1    0    0  501  502  0.00000000000E+00  0.00000000000E+00  0.16637515379E+02  0.16637515379E+02  0.00000000000E+00 0.  1.
          2   -1    0    0  502    0 -0.00000000000E+00 -0.00000000000E+00 -0.10064521422E+04  0.10064521422E+04  0.00000000000E+00 0. -1.
         23    2    1    2    0    0 -0.99396398043E+01 -0.13343804754E+01 -0.50070941400E+03  0.50880326407E+03  0.89834666183E+02 0.  0.
         24    2    1    2    0    0 -0.39305063908E+02  0.23771218317E+02 -0.30087429144E+03  0.31843100732E+03  0.93610941155E+02 0.  0.
        -11    1    4    4    0    0  0.12377381318E+02  0.22483726476E+02 -0.19202011590E+02  0.32053623409E+02  0.00000000000E+00 0.  1.
         12    1    4    4    0    0 -0.51682445226E+02  0.12874918413E+01 -0.28167227985E+03  0.28637738391E+03  0.00000000000E+00 0. -1.
        -13    1    3    3    0    0 -0.39008571285E+02  0.28772462749E+02 -0.27872138775E+03  0.28290481656E+03  0.00000000000E+00 0.  1.
         13    1    3    3    0    0  0.29068931481E+02 -0.30106843224E+02 -0.22198802625E+03  0.22589844751E+03  0.00000000000E+00 0. -1.
          1    1    1    2  501    0  0.49244703712E+02 -0.22436837842E+02 -0.18823092138E+03  0.19585538619E+03  0.00000000000E+00 0. -1.
<scales pt_clust_5="13000.00000" pt_clust_6="13000.00000" pt_clust_7="13000.00000" pt_clust_8="13000.00000" pt_clust_9="54.11518"></scales>
<clustering>
<clus scale="   54.115">  1  9  2 -1</clus>
<clus scale="   89.835">  7  8 -1 -1</clus>
<clus scale="   90.401">  2  7  1 -1</clus>
<clus scale="   93.611">  5  6 -1 -1</clus>
<clus scale="   54.115">  1  5  2 -1</clus>
</clustering>
</event>
<event>
 9    2  0.4883225E-005  0.1557655E+03  0.7546771E-02  0.1197230E+00
         21   -1    0    0  501  502  0.00000000000E+00  0.00000000000E+00  0.11348095764E+03  0.11348095764E+03  0.00000000000E+00 0.  1.
          2   -1    0    0  502    0 -0.00000000000E+00 -0.00000000000E+00 -0.71076297089E+03  0.71076297089E+03  0.00000000000E+00 0. -1.
         24    2    1    2    0    0 -0.11926124276E+03  0.10621378546E+02 -0.61576212834E+03  0.63241767942E+03  0.80330970614E+02 0.  0.
         23    2    1    2    0    0  0.11621104113E+03  0.22771100156E+02  0.37749623451E+01  0.15521200488E+03  0.10026458514E+03 0.  0.
        -11    1    3    3    0    0 -0.62443236875E+02 -0.27783390931E+02 -0.20833681248E+03  0.21926080835E+03  0.00000000000E+00 0.  1.
         12    1    3    3    0    0 -0.56818005884E+02  0.38404769477E+02 -0.40742531586E+03  0.41315687108E+03  0.00000000000E+00 0. -1.
        -13    1    4    4    0    0  0.12230401650E+03 -0.67783397598E+01  0.14151409386E+02  0.12330645048E+03  0.00000000000E+00 0.  1.
         13    1    4    4    0    0 -0.60929753686E+01  0.29549439916E+02 -0.10376447041E+02  0.31905554397E+02  0.00000000000E+00 0. -1.
          1    1    1    2  501    0  0.30502016267E+01 -0.33392478702E+02  0.14705152748E+02  0.36614244239E+02  0.00000000000E+00 0. -1.
<scales pt_clust_5="13000.00000" pt_clust_6="13000.00000" pt_clust_7="13000.00000" pt_clust_8="13000.00000" pt_clust_9="33.53150"></scales>
<clustering>
<clus scale="   33.531">  1  9  2 -1</clus>
<clus scale="   80.331">  5  6 -1 -1</clus>
<clus scale="  100.265">  7  8 -1 -1</clus>
<clus scale="  143.746">  2  5  1 -1</clus>
<clus scale="   33.531">  1  5  2 -1</clus>
</clustering>
</event>
<event>
 9    2  0.4883225E-005  0.9143505E+02  0.7546771E-02  0.1306024E+00
         21   -1    0    0  501  502  0.00000000000E+00  0.00000000000E+00  0.56247127621E+02  0.56247127621E+02  0.00000000000E+00 0. -1.
          2   -1    0    0  502    0 -0.00000000000E+00 -0.00000000000E+00 -0.98086233102E+03  0.98086233102E+03  0.00000000000E+00 0. -1.
         24    2    1    2    0    0 -0.85313629754E+00 -0.55416292848E-01 -0.77376349563E+03  0.77796395707E+03  0.80729427290E+02 0.  0.
         23    2    1    2    0    0  0.25913182292E+02  0.34077520974E+02 -0.18105749868E+03  0.20720419510E+03  0.91208498442E+02 0.  0.
        -13    1    3    3    0    0 -0.26576566896E+02 -0.68999763043E+01 -0.10075801957E+03  0.10443228471E+03  0.00000000000E+00 0.  1.
         14    1    3    3    0    0  0.25723430599E+02  0.68445600114E+01 -0.67300547605E+03  0.67353167237E+03  0.00000000000E+00 0. -1.
        -13    1    4    4    0    0 -0.24254949800E+02  0.57531114581E+01 -0.12267489464E+03  0.12518199014E+03  0.00000000000E+00 0.  1.
         13    1    4    4    0    0  0.50168132092E+02  0.28324409516E+02 -0.58382604038E+02  0.82022204959E+02  0.00000000000E+00 0. -1.
          1    1    1    2  501    0 -0.25060045995E+02 -0.34022104681E+02  0.30205790910E+02  0.51941306460E+02  0.00000000000E+00 0. -1.
<scales pt_clust_5="13000.00000" pt_clust_6="13000.00000" pt_clust_7="13000.00000" pt_clust_8="13000.00000" pt_clust_9="42.25529"></scales>
<clustering>
<clus scale="   42.255">  1  9  2 -1</clus>
<clus scale="   80.729">  5  6 -1 -1</clus>
<clus scale="   80.985">  2  5  1 -1</clus>
<clus scale="   91.208">  7  8 -1 -1</clus>
<clus scale="   42.255">  1  5  2 -1</clus>
</clustering>
</event>
<event>
 9    2  0.4883225E-005  0.2045547E+03  0.7546771E-02  0.1147212E+00
          2   -1    0    0  502    0 -0.00000000000E+00  0.00000000000E+00  0.10892366542E+04  0.10892366542E+04  0.00000000000E+00 0. -1.
         21   -1    0    0  501  502  0.00000000000E+00 -0.00000000000E+00 -0.12231940499E+03  0.12231940499E+03  0.00000000000E+00 0. -1.
         23    2    1    2    0    0  0.20856401784E+02 -0.19552916586E+03  0.87630822097E+03  0.90290039298E+03  0.92985898402E+02 0.  0.
         24    2    1    2    0    0 -0.95425164321E+02  0.88975056769E+02  0.41247286691E+01  0.15247047937E+03  0.78789028297E+02 0.  0.
        -13    1    4    4    0    0 -0.36355270658E+01  0.36944166218E+02  0.25209794276E+02  0.44873401944E+02  0.00000000000E+00 0.  1.
         14    1    4    4    0    0 -0.91789637255E+02  0.52030890551E+02 -0.21085065607E+02  0.10759707743E+03  0.00000000000E+00 0. -1.
        -11    1    3    3    0    0 -0.11899401937E+02 -0.10027437517E+03  0.26965876420E+03  0.28794512532E+03  0.00000000000E+00 0.  1.
         11    1    3    3    0    0  0.32755803720E+02 -0.95254790686E+02  0.60664945677E+03  0.61495526766E+03  0.00000000000E+00 0. -1.
          1    1    1    2  501    0  0.74568762537E+02  0.10655410909E+03  0.86484299544E+02  0.15618518681E+03  0.00000000000E+00 0. -1.
<scales pt_clust_5="13000.00000" pt_clust_6="13000.00000" pt_clust_7="13000.00000" pt_clust_8="13000.00000" pt_clust_9="130.05491"></scales>
<clustering>
<clus scale="   78.789">  5  6 -1 -1</clus>
<clus scale="   92.986">  7  8 -1 -1</clus>
<clus scale="  130.055">  2  9  1 -1</clus>
<clus scale="  198.504">  2  5  1 -1</clus>
<clus scale="  130.055">  2  5  1 -1</clus>
</clustering>
</event>
<event>
 9    2  0.4883225E-005  0.1085830E+03  0.7546771E-02  0.1277640E+00
         21   -1    0    0  501  502  0.00000000000E+00  0.00000000000E+00  0.95472777140E+02  0.95472777140E+02  0.00000000000E+00 0. -1.
          2   -1    0    0  502    0 -0.00000000000E+00 -0.00000000000E+00 -0.29732095561E+03  0.29732095561E+03  0.00000000000E+00 0. -1.
         24    2    1    2    0    0 -0.25176809077E+02  0.23973149056E+01 -0.13722557085E+03  0.16139985926E+03  0.81113737665E+02 0.  0.
         23    2    1    2    0    0 -0.57071844419E+02 -0.21449048014E+02  0.19907553753E+01  0.12385248767E+03  0.10778784026E+03 0.  0.
        -13    1    3    3    0    0  0.18350428891E+02 -0.22119179645E+02 -0.23286061469E+02  0.36989687851E+02  0.00000000000E+00 0.  1.
         14    1    3    3    0    0 -0.43527237968E+02  0.24516494550E+02 -0.11393950939E+03  0.12441017141E+03  0.00000000000E+00 0. -1.
        -13    1    4    4    0    0 -0.67858066040E+02  0.19399015784E+02 -0.23648437533E+02  0.74433107807E+02  0.00000000000E+00 0. -1.
         13    1    4    4    0    0  0.10786221621E+02 -0.40848063798E+02  0.25639192908E+02  0.49419379861E+02  0.00000000000E+00 0.  1.
          1    1    1    2  501    0  0.82248653497E+02  0.19051733109E+02 -0.66613362993E+02  0.10754138583E+03  0.00000000000E+00 0. -1.
<scales pt_clust_5="13000.00000" pt_clust_6="13000.00000" pt_clust_7="13000.00000" pt_clust_8="13000.00000" pt_clust_9="84.42640"></scales>
<clustering>
<clus scale="   81.114">  5  6 -1 -1</clus>
<clus scale="   84.426">  1  9  2 -1</clus>
<clus scale="   82.167">  2  5  1 -1</clus>
<clus scale="  107.788">  7  8 -1 -1</clus>
<clus scale="   84.426">  1  5  2 -1</clus>
</clustering>
</event>
<event>
 9    2  0.4883225E-005  0.1284821E+03  0.7546771E-02  0.1233434E+00
          2   -1    0    0  502    0 -0.00000000000E+00  0.00000000000E+00  0.70119906268E+03  0.70119906268E+03  0.00000000000E+00 0. -1.
         21   -1    0    0  501  502  0.00000000000E+00 -0.00000000000E+00 -0.10323191130E+03  0.10323191130E+03  0.00000000000E+00 0. -1.
         24    2    1    2    0    0 -0.81600521853E+02  0.34241508886E+02  0.57595468406E+03  0.58821623729E+03  0.80270901513E+02 0.  0.
         23    2    1    2    0    0  0.70088300791E+02 -0.50615584888E+02  0.82928077879E+02  0.15209490194E+03  0.93709581976E+02 0.  0.
        -13    1    3    3    0    0  0.88684441579E+01  0.24960972870E+02  0.89680079683E+02  0.93510513636E+02  0.00000000000E+00 0.  1.
         14    1    3    3    0    0 -0.90468966011E+02  0.92805360161E+01  0.48627460437E+03  0.49470572366E+03  0.00000000000E+00 0. -1.
        -13    1    4    4    0    0  0.36586303921E+02  0.23395357353E+02  0.14220570145E+02  0.45696006341E+02  0.00000000000E+00 0.  1.
         13    1    4    4    0    0  0.33501996871E+02 -0.74010942241E+02  0.68707507734E+02  0.10639889560E+03  0.00000000000E+00 0. -1.
          1    1    1    2  501    0  0.11512221062E+02  0.16374076001E+02 -0.60915610552E+02  0.64119834744E+02  0.00000000000E+00 0. -1.
<scales pt_clust_5="13000.00000" pt_clust_6="13000.00000" pt_clust_7="13000.00000" pt_clust_8="13000.00000" pt_clust_9="20.01603"></scales>
<clustering>
<clus scale="   20.016">  2  9  1 -1</clus>
<clus scale="   80.271">  5  6 -1 -1</clus>
<clus scale="   93.710">  7  8 -1 -1</clus>
<clus scale="  119.036">  1  5  2 -1</clus>
<clus scale="   20.016">  2  5  1 -1</clus>
</clustering>
</event>
<event>
 9    2  0.4883225E-005  0.9549956E+02  0.7546771E-02  0.1295691E+00
          4   -1    0    0  502    0 -0.00000000000E+00  0.00000000000E+00  0.18060928163E+03  0.18060928163E+03  0.00000000000E+00 0. -1.
         21   -1    0    0  501  502  0.00000000000E+00 -0.00000000000E+00 -0.43031005213E+03  0.43031005213E+03  0.00000000000E+00 0.  1.
         24    2    1    2    0    0  0.67487322520E+00 -0.30278196881E+02  0.14431838757E+03  0.16821630570E+03  0.80942596042E+02 0.  0.
         23    2    1    2    0    0 -0.24178564624E+02 -0.13914175138E+02 -0.37852297583E+03  0.39030530942E+03  0.90996615757E+02 0.  0.
        -11    1    3    3    0    0 -0.20884834399E+01 -0.22033403611E+02 -0.14586279466E+01  0.22180176583E+02  0.00000000000E+00 0.  1.
         12    1    3    3    0    0  0.27633566651E+01 -0.82447932693E+01  0.14577701551E+03  0.14603612912E+03  0.00000000000E+00 0. -1.
        -11    1    4    4    0    0 -0.26698128639E+02 -0.51197316458E+02 -0.22253646333E+03  0.22990526918E+03  0.00000000000E+00 0.  1.
         11    1    4    4    0    0  0.25195640152E+01  0.37283141320E+02 -0.15598651249E+03  0.16040004024E+03  0.00000000000E+00 0. -1.
          3    1    1    2  501    0  0.23503691399E+02  0.44192372019E+02 -0.15496182246E+02  0.52397718636E+02  0.00000000000E+00 0. -1.
<scales pt_clust_5="13000.00000" pt_clust_6="13000.00000" pt_clust_7="13000.00000" pt_clust_8="13000.00000" pt_clust_9="50.05389"></scales>
<clustering>
<clus scale="   50.054">  2  9  1 -1</clus>
<clus scale="   80.943">  5  6 -1 -1</clus>
<clus scale="   85.974">  1  5  2 -1</clus>
<clus scale="   90.997">  7  8 -1 -1</clus>
<clus scale="   50.054">  2  5  1 -1</clus>
</clustering>
</event>
<event>
 9    2  0.4883225E-005  0.1193344E+03  0.7546771E-02  0.1249156E+00
          2   -1    0    0  502    0 -0.00000000000E+00  0.00000000000E+00  0.74581111993E+03  0.74581111993E+03  0.00000000000E+00 0. -1.
         21   -1    0    0  501  502  0.00000000000E+00 -0.00000000000E+00 -0.13514878611E+03  0.13514878611E+03  0.00000000000E+00 0. -1.
         24    2    1    2    0    0 -0.71529032477E+02 -0.25608044793E+02  0.66939161315E+03  0.67834284237E+03  0.79320272277E+02 0.  0.
         23    2    1    2    0    0  0.47049329581E+02  0.15348610277E+02  0.29587206052E+02  0.11039822915E+03  0.94144288124E+02 0.  0.
        -13    1    3    3    0    0 -0.13223330710E+02  0.27462367029E+02  0.15859472906E+03  0.16149713980E+03  0.00000000000E+00 0.  1.
         14    1    3    3    0    0 -0.58305701767E+02 -0.53070411822E+02  0.51079688408E+03  0.51684570256E+03  0.00000000000E+00 0. -1.
        -11    1    4    4    0    0  0.60941494870E+02 -0.98566847287E+00 -0.13359057836E+02  0.62396328141E+02  0.00000000000E+00 0.  1.
         11    1    4    4    0    0 -0.13892165289E+02  0.16334278750E+02  0.42946263888E+02  0.48001901010E+02  0.00000000000E+00 0. -1.
          1    1    1    2  501    0  0.24479702896E+02  0.10259434516E+02 -0.88316485381E+02  0.92218834522E+02  0.00000000000E+00 0. -1.
<scales pt_clust_5="13000.00000" pt_clust_6="13000.00000" pt_clust_7="13000.00000" pt_clust_8="13000.00000" pt_clust_9="26.54264"></scales>
<clustering>
<clus scale="   26.543">  2  9  1 -1</clus>
<clus scale="   79.320">  5  6 -1 -1</clus>
<clus scale="   94.144">  7  8 -1 -1</clus>
<clus scale="  108.024">  1  5  2 -1</clus>
<clus scale="   26.543">  2  5  1 -1</clus>
</clustering>
</event>
<event>
 9    2  0.4883225E-005  0.2007395E+03  0.7546771E-02  0.1187813E+00
         -1   -1    0    0    0  501 -0.00000000000E+00  0.00000000000E+00  0.11209419941E+04  0.11209419941E+04  0.00000000000E+00 0.  1.
         21   -1    0    0  501  502  0.00000000000E+00 -0.00000000000E+00 -0.48495781531E+02  0.48495781531E+02  0.00000000000E+00 0.  1.
         24    2    1    2    0    0 -0.19064796373E+02 -0.19185655754E+02  0.16443676491E+03  0.18402605285E+03  0.78067807891E+02 0.  0.
         23    2    1    2    0    0 -0.16543317012E+03  0.47286619465E+02  0.42460921980E+03  0.46723709575E+03  0.91724347606E+02 0.  0.
        -11    1    3    3    0    0 -0.43339793136E+02 -0.32843204094E+02  0.10004667563E+03  0.11386988640E+03  0.00000000000E+00 0.  1.
         12    1    3    3    0    0  0.24274996763E+02  0.13657548340E+02  0.64390089275E+02  0.70156166453E+02  0.00000000000E+00 0. -1.
        -13    1    4    4    0    0 -0.11244847485E+03  0.12803309397E+02  0.35774117341E+03  0.37521637941E+03  0.00000000000E+00 0.  1.
         13    1    4    4    0    0 -0.52984695270E+02  0.34483310068E+02  0.66868046393E+02  0.92020716333E+02  0.00000000000E+00 0. -1.
         -2    1    1    2    0  502  0.18449796650E+03 -0.28100963711E+02  0.48340022786E+03  0.51817462703E+03  0.00000000000E+00 0.  1.
<scales pt_clust_5="13000.00000" pt_clust_6="13000.00000" pt_clust_7="13000.00000" pt_clust_8="13000.00000" pt_clust_9="178.55816"></scales>
<clustering>
<clus scale="   78.068">  5  6 -1 -1</clus>
<clus scale="   82.620">  1  5  2 -1</clus>
<clus scale="   91.724">  7  8 -1 -1</clus>
<clus scale="  178.558">  2  9  1 -1</clus>
<clus scale="  178.558">  2  5  1 -1</clus>
</clustering>
</event>
<event>
 9    2  0.4883225E-005  0.1755802E+03  0.7546771E-02  0.1204882E+00
         21   -1    0    0  501  502  0.00000000000E+00  0.00000000000E+00  0.50466505911E+03  0.50466505911E+03  0.00000000000E+00 0. -1.
          4   -1    0    0  502    0 -0.00000000000E+00 -0.00000000000E+00 -0.12005248065E+03  0.12005248065E+03  0.00000000000E+00 0. -1.
         24    2    1    2    0    0  0.24491926595E+02  0.16398025599E+02 -0.28444292421E+02  0.89655968925E+02  0.79751898289E+02 0.  0.
         23    2    1    2    0    0  0.11713651299E+03  0.73702900504E+02  0.25767755602E+03  0.30632695765E+03  0.91024182974E+02 0.  0.
        -13    1    3    3    0    0 -0.13800897259E+02 -0.17100493450E+02  0.11656565447E+02  0.24875030842E+02  0.00000000000E+00 0.  1.
         14    1    3    3    0    0  0.38292823854E+02  0.33498519049E+02 -0.40100857867E+02  0.64780938083E+02  0.00000000000E+00 0. -1.
        -11    1    4    4    0    0  0.93810153525E+02  0.29216087138E+02  0.22729305854E+03  0.24762079701E+03  0.00000000000E+00 0. -1.
         11    1    4    4    0    0  0.23326359466E+02  0.44486813365E+02  0.30384497480E+02  0.58706160635E+02  0.00000000000E+00 0.  1.
          3    1    1    2  501    0 -0.14162843959E+03 -0.90100926103E+02  0.15537931486E+03  0.22873461319E+03  0.00000000000E+00 0. -1.
<scales pt_clust_5="13000.00000" pt_clust_6="13000.00000" pt_clust_7="13000.00000" pt_clust_8="13000.00000" pt_clust_9="150.14336"></scales>
<clustering>
<clus scale="   79.752">  5  6 -1 -1</clus>
<clus scale="   85.024">  2  5  1 -1</clus>
<clus scale="   91.024">  7  8 -1 -1</clus>
<clus scale="  150.143">  1  9  2 -1</clus>
<clus scale="  150.143">  1  5  2 -1</clus>
</clustering>
</event>
<event>
 9    2  0.4883225E-005  0.1255513E+03  0.7546771E-02  0.1236934E+00
          2   -1    0    0  502    0 -0.00000000000E+00  0.00000000000E+00  0.50323222140E+03  0.50323222140E+03  0.00000000000E+00 0. -1.
         21   -1    0    0  501  502  0.00000000000E+00 -0.00000000000E+00 -0.40155793651E+02  0.40155793651E+02  0.00000000000E+00 0. -1.
         24    2    1    2    0    0 -0.28934052524E+02 -0.75362193509E+02  0.20282189781E+03  0.23245332987E+03  0.79882343053E+02 0.  0.
         23    2    1    2    0    0  0.55560071438E+02  0.79719161042E+02  0.24852630630E+03  0.28151565598E+03  0.89686528902E+02 0.  0.
        -11    1    3    3    0    0  0.18863896896E+02 -0.16984887163E+02  0.13717411085E+02  0.28853082417E+02  0.00000000000E+00 0.  1.
         12    1    3    3    0    0 -0.47797949420E+02 -0.58377306346E+02  0.18910448672E+03  0.20360024745E+03  0.00000000000E+00 0. -1.
        -13    1    4    4    0    0 -0.23380175700E+02  0.33090375750E+02  0.73261253349E+02  0.83718676682E+02  0.00000000000E+00 0.  1.
         13    1    4    4    0    0  0.78940247137E+02  0.46628785292E+02  0.17526505295E+03  0.19779697930E+03  0.00000000000E+00 0. -1.
          1    1    1    2  501    0 -0.26626018914E+02 -0.43569675329E+01  0.11728223652E+02  0.29419029204E+02  0.00000000000E+00 0. -1.
<scales pt_clust_5="13000.00000" pt_clust_6="13000.00000" pt_clust_7="13000.00000" pt_clust_8="13000.00000" pt_clust_9="26.98014"></scales>
<clustering>
<clus scale="   26.980">  2  9  1 -1</clus>
<clus scale="   79.882">  5  6 -1 -1</clus>
<clus scale="   89.687">  7  8 -1 -1</clus>
<clus scale="  118.746">  1  5  2 -1</clus>
<clus scale="   26.980">  2  5  1 -1</clus>
</clustering>
</event>
<event>
 9    2  0.4883225E-005  0.1011582E+03  0.7546771E-02  0.1283828E+00
         21   -1    0    0  501  502  0.00000000000E+00  0.00000000000E+00  0.83391881593E+02  0.83391881593E+02  0.00000000000E+00 0. -1.
          2   -1    0    0  502    0 -0.00000000000E+00 -0.00000000000E+00 -0.46483589441E+03  0.46483589441E+03  0.00000000000E+00 0. -1.
         24    2    1    2    0    0  0.31794378720E+02  0.29079601435E+01 -0.28862898096E+03  0.30155328770E+03  0.81291807226E+02 0.  0.
         23    2    1    2    0    0 -0.63181898307E+02  0.31472950181E+02 -0.13865008760E+03  0.18134397694E+03  0.93162719548E+02 0.  0.
        -11    1    3    3    0    0  0.34646884757E+02  0.33423723691E+02 -0.23412390432E+03  0.23902207953E+03  0.00000000000E+00 0.  1.
         12    1    3    3    0    0 -0.28525060367E+01 -0.30515763548E+02 -0.54505076637E+02  0.62531208167E+02  0.00000000000E+00 0. -1.
        -11    1    4    4    0    0 -0.78031631019E+02  0.16567348970E+02 -0.13904210264E+03  0.16030008982E+03  0.00000000000E+00 0. -1.
         11    1    4    4    0    0  0.14849732712E+02  0.14905601212E+02  0.39201503855E+00  0.21043887115E+02  0.00000000000E+00 0.  1.
          1    1    1    2  501    0  0.31387519587E+02 -0.34380910325E+02  0.45835055741E+02  0.65330511366E+02  0.00000000000E+00 0. -1.
<scales pt_clust_5="13000.00000" pt_clust_6="13000.00000" pt_clust_7="13000.00000" pt_clust_8="13000.00000" pt_clust_9="46.55345"></scales>
<clustering>
<clus scale="   46.553">  1  9  2 -1</clus>
<clus scale="   81.292">  5  6 -1 -1</clus>
<clus scale="   90.344">  2  5  1 -1</clus>
<clus scale="   93.163">  7  8 -1 -1</clus>
<clus scale="   46.553">  1  5  2 -1</clus>
</clustering>
</event>
<event>
 9    2  0.4883225E-005  0.2485262E+03  0.7546771E-02  0.1114245E+00
          2   -1    0    0  502    0 -0.00000000000E+00  0.00000000000E+00  0.86076401788E+03  0.86076401788E+03  0.00000000000E+00 0. -1.
         21   -1    0    0  501  502  0.00000000000E+00 -0.00000000000E+00 -0.19627845241E+03  0.19627845241E+03  0.00000000000E+00 0.  1.
         24    2    1    2    0    0 -0.16029716057E+03  0.17443781556E+03  0.59807715346E+03  0.64977943996E+03  0.91614998357E+02 0.  0.
         23    2    1    2    0    0  0.15870536880E+03 -0.14935994893E+03  0.17607997615E+03  0.29474954145E+03  0.91527841417E+02 0.  0.
        -11    1    3    3    0    0 -0.88468941292E+02  0.39363756205E+02  0.17672911791E+03  0.20151784038E+03  0.00000000000E+00 0.  1.
         12    1    3    3    0    0 -0.71828219280E+02  0.13507405936E+03  0.42134803555E+03  0.44826159958E+03  0.00000000000E+00 0. -1.
        -11    1    4    4    0    0  0.12608110572E+03 -0.61274181902E+02  0.12503818775E+03  0.18784440099E+03  0.00000000000E+00 0.  1.
         11    1    4    4    0    0  0.32624263084E+02 -0.88085767030E+02  0.51041788405E+02  0.10690514047E+03  0.00000000000E+00 0. -1.
          1    1    1    2  501    0  0.15917917721E+01 -0.25077866632E+02 -0.10967156414E+03  0.11251348887E+03  0.00000000000E+00 0. -1.
<scales pt_clust_5="13000.00000" pt_clust_6="13000.00000" pt_clust_7="13000.00000" pt_clust_8="13000.00000" pt_clust_9="25.12833"></scales>
<clustering>
<clus scale="   25.128">  2  9  1 -1</clus>
<clus scale="   91.528">  7  8 -1 -1</clus>
<clus scale="   91.615">  5  6 -1 -1</clus>
<clus scale="  248.494">  2  7  1 -1</clus>
<clus scale="   25.128">  2  5  1 -1</clus>
</clustering>
</event>
<event>
 9    2  0.4883225E-005  0.9636334E+02  0.7546771E-02  0.1292002E+00
         21   -1    0    0  501  502  0.00000000000E+00  0.00000000000E+00  0.31356761961E+02  0.31356761961E+02  0.00000000000E+00 0. -1.
          4   -1    0    0  502    0 -0.00000000000E+00 -0.00000000000E+00 -0.86398579670E+03  0.86398579670E+03  0.00000000000E+00 0. -1.
         24    2    1    2    0    0  0.33072613562E+02 -0.23063475118E+02 -0.69812760893E+03  0.70401400328E+03  0.81411527545E+02 0.  0.
         23    2    1    2    0    0 -0.30973796352E+02 -0.62261600981E+01 -0.13155397367E+03  0.16181626575E+03  0.88768883876E+02 0.  0.
        -11    1    3    3    0    0 -0.76073618711E+01  0.24395832811E+02 -0.13239947001E+03  0.13484305051E+03  0.00000000000E+00 0.  1.
         12    1    3    3    0    0  0.40679975433E+02 -0.47459307929E+02 -0.56572813892E+03  0.56917095277E+03  0.00000000000E+00 0. -1.
        -13    1    4    4    0    0 -0.55962322989E+02 -0.18023333642E+02 -0.11614307125E+03  0.13017616967E+03  0.00000000000E+00 0. -1.
         13    1    4    4    0    0  0.24988526636E+02  0.11797173544E+02 -0.15410902420E+02  0.31640096088E+02  0.00000000000E+00 0.  1.
          3    1    1    2  501    0 -0.20988172094E+01  0.29289635216E+02 -0.29474521416E+01  0.29512289624E+02  0.00000000000E+00 0. -1.
<scales pt_clust_5="13000.00000" pt_clust_6="13000.00000" pt_clust_7="13000.00000" pt_clust_8="13000.00000" pt_clust_9="29.36474"></scales>
<clustering>
<clus scale="   29.365">  1  9  2 -1</clus>
<clus scale="   81.412">  5  6 -1 -1</clus>
<clus scale="   88.769">  7  8 -1 -1</clus>
<clus scale="   89.632">  2  5  1 -1</clus>
<clus scale="   29.365">  1  5  2 -1</clus>
</clustering>
</event>
<event>
 9    2  0.4883225E-005  0.9295030E+02  0.7546771E-02  0.1298666E+00
         21   -1    0    0  501  502  0.00000000000E+00  0.00000000000E+00  0.88924483121E+02  0.88924483121E+02  0.00000000000E+00 0. -1.
          2   -1    0    0  502    0 -0.00000000000E+00 -0.00000000000E+00 -0.29649881216E+03  0.29649881216E+03  0.00000000000E+00 0. -1.
         24    2    1    2    0    0  0.10283186257E+02 -0.20257852580E+02 -0.21582357780E+03  0.23344797850E+03  0.86034977878E+02 0.  0.
         23    2    1    2    0    0 -0.29274374905E+02 -0.22657632212E+02  0.26499140716E+02  0.10162193916E+03  0.90854040841E+02 0.  0.
        -11    1    3    3    0    0 -0.16590070512E+02 -0.35810710474E+02 -0.18687465044E+03  0.19099678637E+03  0.00000000000E+00 0.  1.
         12    1    3    3    0    0  0.26873256769E+02  0.15552857895E+02 -0.28948927358E+02  0.42451192130E+02  0.00000000000E+00 0. -1.
        -11    1    4    4    0    0 -0.57678482472E+01  0.27115077810E+02  0.36338211988E+02  0.45705154726E+02  0.00000000000E+00 0.  1.
         11    1    4    4    0    0 -0.23506526658E+02 -0.49772710022E+02 -0.98390712712E+01  0.55916784438E+02  0.00000000000E+00 0. -1.
          1    1    1    2  501    0  0.18991188648E+02  0.42915484792E+02 -0.18249891948E+02  0.50353377615E+02  0.00000000000E+00 0. -1.
<scales pt_clust_5="13000.00000" pt_clust_6="13000.00000" pt_clust_7="13000.00000" pt_clust_8="13000.00000" pt_clust_9="46.92978"></scales>
<clustering>
<clus scale="   46.930">  1  9  2 -1</clus>
<clus scale="   86.035">  5  6 -1 -1</clus>
<clus scale="   88.246">  2  5  1 -1</clus>
<clus scale="   90.854">  7  8 -1 -1</clus>
<clus scale="   46.930">  1  5  2 -1</clus>
</clustering>
</event>
<event>
 9    2  0.4883225E-005  0.9530038E+02  0.7546771E-02  0.1295251E+00
         21   -1    0    0  501  502  0.00000000000E+00  0.00000000000E+00  0.18202229931E+03  0.18202229931E+03  0.00000000000E+00 0. -1.
          2   -1    0    0  502    0 -0.00000000000E+00 -0.00000000000E+00 -0.32638039966E+03  0.32638039966E+03  0.00000000000E+00 0. -1.
         23    2    1    2    0    0 -0.38594457226E+02  0.60503203056E+01 -0.24210775916E+03  0.26145963319E+03  0.90657786411E+02 0.  0.
         24    2    1    2    0    0  0.64271552392E+01  0.13229570033E+02 -0.48130892940E+02  0.96319080754E+02  0.82124616372E+02 0.  0.
        -13    1    4    4    0    0  0.22750857357E+01 -0.29123504028E+02 -0.44996937086E+02  0.53647729207E+02  0.00000000000E+00 0.  1.
         14    1    4    4    0    0  0.41520695035E+01  0.42353074061E+02 -0.31339558545E+01  0.42671351547E+02  0.00000000000E+00 0. -1.
        -11    1    3    3    0    0  0.13194481953E+02 -0.21966639852E+02 -0.14976558994E+03  0.15194196113E+03  0.00000000000E+00 0.  1.
         11    1    3    3    0    0 -0.51788939179E+02  0.28016960158E+02 -0.92342169217E+02  0.10951767206E+03  0.00000000000E+00 0. -1.
          1    1    1    2  501    0  0.32167301987E+02 -0.19279890339E+02  0.14588055175E+03  0.15062398503E+03  0.00000000000E+00 0. -1.
<scales pt_clust_5="13000.00000" pt_clust_6="13000.00000" pt_clust_7="13000.00000" pt_clust_8="13000.00000" pt_clust_9="37.50266"></scales>
<clustering>
<clus scale="   37.503">  1  9  2 -1</clus>
<clus scale="   82.125">  5  6 -1 -1</clus>
<clus scale="   87.223">  1  5  2 -1</clus>
<clus scale="   90.658">  7  8 -1 -1</clus>
<clus scale="   37.503">  1  5  2 -1</clus>
</clustering>
</event>
<event>
 9    2  0.4883225E-005  0.9778777E+02  0.7546771E-02  0.1291861E+00
         21   -1    0    0  501  502  0.00000000000E+00  0.00000000000E+00  0.59623483739E+02  0.59623483739E+02  0.00000000000E+00 0.  1.
          4   -1    0    0  502    0 -0.00000000000E+00 -0.00000000000E+00 -0.53206583649E+03  0.53206583649E+03  0.00000000000E+00 0. -1.
         24    2    1    2    0    0 -0.14543578107E+02 -0.28419879064E+02 -0.44261374751E+03  0.45085491728E+03  0.79649367641E+02 0.  0.
         23    2    1    2    0    0  0.44538871533E+02  0.17171874621E+02 -0.32098991600E+02  0.10871914355E+03  0.92254661444E+02 0.  0.
        -13    1    3    3    0    0  0.31233080512E+02 -0.69066712389E+01 -0.11524892246E+03  0.11960569198E+03  0.00000000000E+00 0.  1.
         14    1    3    3    0    0 -0.45776658620E+02 -0.21513207826E+02 -0.32736482505E+03  0.33124922531E+03  0.00000000000E+00 0. -1.
        -13    1    4    4    0    0  0.12864494099E+02  0.53534350885E+02 -0.22876566237E+02  0.59621801515E+02  0.00000000000E+00 0.  1.
         13    1    4    4    0    0  0.31674377434E+02 -0.36362476263E+02 -0.92224253623E+01  0.49097342040E+02  0.00000000000E+00 0. -1.
          3    1    1    2  501    0 -0.29995293425E+02  0.11248004443E+02  0.22703863546E+01  0.32115259392E+02  0.00000000000E+00 0. -1.
<scales pt_clust_5="13000.00000" pt_clust_6="13000.00000" pt_clust_7="13000.00000" pt_clust_8="13000.00000" pt_clust_9="32.03491"></scales>
<clustering>
<clus scale="   32.035">  1  9  2 -1</clus>
<clus scale="   79.649">  5  6 -1 -1</clus>
<clus scale="   85.997">  2  5  1 -1</clus>
<clus scale="   92.255">  7  8 -1 -1</clus>
<clus scale="   32.035">  1  5  2 -1</clus>
</clustering>
</event>
<event>
 9    2  0.4883225E-005  0.9804073E+02  0.7546771E-02  0.1290937E+00
         21   -1    0    0  501  502  0.00000000000E+00  0.00000000000E+00  0.33407446025E+03  0.33407446025E+03  0.00000000000E+00 0.  1.
         -1   -1    0    0    0  501 -0.00000000000E+00 -0.00000000000E+00 -0.41889603167E+02  0.41889603167E+02  0.00000000000E+00 0.  1.
         23    2    1    2    0    0 -0.19800807625E+02  0.31565460429E+02  0.83351731399E+02  0.13021195111E+03  0.92839597209E+02 0.  0.
         24    2    1    2    0    0 -0.75528792586E+01 -0.30099616048E+02  0.94619153225E+02  0.12829912431E+03  0.80900236520E+02 0.  0.
        -13    1    4    4    0    0 -0.30831870685E+02 -0.28360569903E-01  0.82989641086E+02  0.88531833720E+02  0.00000000000E+00 0.  1.
         14    1    4    4    0    0  0.23278991426E+02 -0.30071255479E+02  0.11629512140E+02  0.39767290585E+02  0.00000000000E+00 0. -1.
        -11    1    3    3    0    0  0.59179699849E+00  0.53765614977E+02  0.15489127177E+02  0.55955380780E+02  0.00000000000E+00 0.  1.
         11    1    3    3    0    0 -0.20392604623E+02 -0.22200154548E+02  0.67862604222E+02  0.74256570329E+02  0.00000000000E+00 0. -1.
         -2    1    1    2    0  502  0.27353686883E+02 -0.14658443804E+01  0.11421397246E+03  0.11745298800E+03  0.00000000000E+00 0.  1.
<scales pt_clust_5="13000.00000" pt_clust_6="13000.00000" pt_clust_7="13000.00000" pt_clust_8="13000.00000" pt_clust_9="27.39293"></scales>
<clustering>
<clus scale="   27.393">  1  9  2 -1</clus>
<clus scale="   80.900">  5  6 -1 -1</clus>
<clus scale="   86.820">  1  5  2 -1</clus>
<clus scale="   92.840">  7  8 -1 -1</clus>
<clus scale="   27.393">  1  5  2 -1</clus>
</clustering>
</event>
<event>
 9    2  0.4883225E-005  0.2659680E+03  0.7546771E-02  0.1119340E+00
          2   -1    0    0  502    0 -0.00000000000E+00  0.00000000000E+00  0.14618579532E+04  0.14618579532E+04  0.00000000000E+00 0. -1.
         21   -1    0    0  501  502  0.00000000000E+00 -0.00000000000E+00 -0.14962197937E+03  0.14962197937E+03  0.00000000000E+00 0. -1.
         24    2    1    2    0    0  0.16031567488E+03 -0.12828457353E+02  0.81763915100E+03  0.83686557370E+03  0.77100728005E+02 0.  0.
         23    2    1    2    0    0 -0.10771357196E+02 -0.21634381756E+03  0.43504364295E+03  0.49456076441E+03  0.91688106625E+02 0.  0.
        -11    1    3    3    0    0  0.90309931404E+02 -0.29354997893E+02  0.31186345446E+03  0.32600063472E+03  0.00000000000E+00 0.  1.
         12    1    3    3    0    0  0.70005743474E+02  0.16526540540E+02  0.50577569654E+03  0.51086493898E+03  0.00000000000E+00 0. -1.
        -13    1    4    4    0    0  0.28476377439E+02 -0.17151245461E+03  0.29591298901E+03  0.34320827965E+03  0.00000000000E+00 0.  1.
         13    1    4    4    0    0 -0.39247734635E+02 -0.44831362951E+02  0.13913065394E+03  0.15135248476E+03  0.00000000000E+00 0. -1.
          1    1    1    2  501    0 -0.14954431768E+03  0.22917227491E+03  0.59553179896E+02  0.28005359447E+03  0.00000000000E+00 0. -1.
<scales pt_clust_5="13000.00000" pt_clust_6="13000.00000" pt_clust_7="13000.00000" pt_clust_8="13000.00000" pt_clust_9="249.66428"></scales>
<clustering>
<clus scale="   77.101">  5  6 -1 -1</clus>
<clus scale="   91.688">  7  8 -1 -1</clus>
<clus scale="  178.354">  1  5  2 -1</clus>
<clus scale="  249.664">  2  9  1 -1</clus>
<clus scale="  249.664">  2  5  1 -1</clus>
</clustering>
</event>
<event>
 9    2  0.4883225E-005  0.1038434E+03  0.7546771E-02  0.1276892E+00
         21   -1    0    0  501  502  0.00000000000E+00  0.00000000000E+00  0.14837090799E+03  0.14837090799E+03  0.00000000000E+00 0.  1.
          2   -1    0    0  502    0 -0.00000000000E+00 -0.00000000000E+00 -0.35961917896E+03  0.35961917896E+03  0.00000000000E+00 0. -1.
         24    2    1    2    0    0  0.71408228618E+01  0.51053980184E+02 -0.31399951734E+03  0.32822053448E+03  0.80470628923E+02 0.  0.
         23    2    1    2    0    0 -0.23802854965E+02 -0.38206403448E+02  0.11683502016E+03  0.15445085926E+03  0.90434179495E+02 0.  0.
        -13    1    3    3    0    0  0.40082965944E+02  0.10071330807E+02 -0.16905060186E+03  0.17402925574E+03  0.00000000000E+00 0.  1.
         14    1    3    3    0    0 -0.32942143082E+02  0.40982649377E+02 -0.14494891548E+03  0.15419127874E+03  0.00000000000E+00 0. -1.
        -13    1    4    4    0    0 -0.54222990288E+02 -0.42044112319E+02  0.66748533921E+02  0.95724640700E+02  0.00000000000E+00 0.  1.
         13    1    4    4    0    0  0.30420135323E+02  0.38377088709E+01  0.50086486242E+02  0.58726218561E+02  0.00000000000E+00 0. -1.
          1    1    1    2  501    0  0.16662032103E+02 -0.12847576735E+02 -0.14083773793E+02  0.25318693214E+02  0.00000000000E+00 0. -1.
<scales pt_clust_5="13000.00000" pt_clust_6="13000.00000" pt_clust_7="13000.00000" pt_clust_8="13000.00000" pt_clust_9="21.04006"></scales>
<clustering>
<clus scale="   21.040">  1  9  2 -1</clus>
<clus scale="   80.471">  5  6 -1 -1</clus>
<clus scale="   90.434">  7  8 -1 -1</clus>
<clus scale="   95.292">  2  5  1 -1</clus>
<clus scale="   21.040">  1  5  2 -1</clus>
</clustering>
</event>
<event>
 9    2  0.5223422E-005  0.1437070E+03  0.7546771E-02  0.1211110E+00
         21   -1    0    0  501  502  0.00000000000E+00  0.00000000000E+00  0.46627696468E+03  0.46627696468E+03  0.00000000000E+00 0. -1.
          4   -1    0    0  502    0 -0.00000000000E+00 -0.00000000000E+00 -0.16933053587E+03  0.16933053587E+03  0.00000000000E+00 0. -1.
         23    2    1    2    0    0  0.84838997767E+02 -0.88497044594E+01  0.12310461778E+03  0.17585209309E+03  0.92158770146E+02 0.  0.
         24    2    1    2    0    0 -0.16161478102E+03 -0.21942478709E+02  0.27482346093E+03  0.32921815969E+03  0.79093945255E+02 0.  0.
        -11    1    4    4    0    0 -0.46180984852E+02  0.12443309954E+02  0.30240637038E+02  0.56586353947E+02  0.00000000000E+00 0.  1.
         12    1    4    4    0    0 -0.11543379616E+03 -0.34385788663E+02  0.24458282389E+03  0.27263180574E+03  0.00000000000E+00 0. -1.
        -11    1    3    3    0    0  0.23413212870E+02 -0.46315130821E+02  0.66211857581E+02  0.84126571095E+02  0.00000000000E+00 0.  1.
         11    1    3    3    0    0  0.61425784896E+02  0.37465426362E+02  0.56892760203E+02  0.91725522000E+02  0.00000000000E+00 0. -1.
          3    1    1    2  501    0  0.76775783250E+02  0.30792183169E+02 -0.10098164990E+03  0.13053724777E+03  0.00000000000E+00 0. -1.
<scales pt_clust_5="13000.00000" pt_clust_6="13000.00000" pt_clust_7="13000.00000" pt_clust_8="13000.00000" pt_clust_9="82.72053"></scales>
<clustering>
<clus scale="   79.094">  5  6 -1 -1</clus>
<clus scale="   82.721">  1  9  2 -1</clus>
<clus scale="   92.159">  7  8 -1 -1</clus>
<clus scale="  135.699">  1  5  2 -1</clus>
<clus scale="   82.721">  1  5  2 -1</clus>
</clustering>
</event>
<event>
 9    2  0.4883225E-005  0.1158691E+03  0.7546771E-02  0.1260261E+00
         21   -1    0    0  501  502  0.00000000000E+00  0.00000000000E+00  0.30690408784E+02  0.30690408784E+02  0.00000000000E+00 0. -1.
          2   -1    0    0  502    0 -0.00000000000E+00 -0.00000000000E+00 -0.10296032722E+04  0.10296032722E+04  0.00000000000E+00 0. -1.
         24    2    1    2    0    0  0.10534146408E+02 -0.44257166706E+02 -0.14611953944E+03  0.17411815338E+03  0.83045448310E+02 0.  0.
         23    2    1    2    0    0  0.20432299522E+02 -0.52361958519E+02 -0.22292186667E+03  0.24818475270E+03  0.93500049570E+02 0.  0.
        -13    1    3    3    0    0 -0.10174736919E+02 -0.63005967627E+02 -0.79996325847E+02  0.10233615870E+03  0.00000000000E+00 0.  1.
         14    1    3    3    0    0  0.20708883327E+02  0.18748800922E+02 -0.66123213595E+02  0.71781994684E+02  0.00000000000E+00 0. -1.
        -11    1    4    4    0    0  0.11181838287E+02  0.26973291686E+02 -0.61912743445E+02  0.68452755772E+02  0.00000000000E+00 0.  1.
         11    1    4    4    0    0  0.92504612355E+01 -0.79335250206E+02 -0.16100912323E+03  0.17973199693E+03  0.00000000000E+00 0. -1.
          1    1    1    2  501    0 -0.30966445930E+02  0.96619125225E+02 -0.62987145726E+03  0.63799077486E+03  0.00000000000E+00 0. -1.
<scales pt_clust_5="13000.00000" pt_clust_6="13000.00000" pt_clust_7="13000.00000" pt_clust_8="13000.00000" pt_clust_9="68.43532"></scales>
<clustering>
<clus scale="   83.045">  5  6 -1 -1</clus>
<clus scale="   93.500">  7  8 -1 -1</clus>
<clus scale="   94.690">  2  5  1 -1</clus>
<clus scale="   68.435">  1  9  2 -1</clus>
<clus scale="   68.435">  1  5  2 -1</clus>
</clustering>
</event>
<event>
 9    2  0.4883225E-005  0.1030588E+03  0.7546771E-02  0.1279627E+00
         21   -1    0    0  501  502  0.00000000000E+00  0.00000000000E+00  0.35849996961E+02  0.35849996961E+02  0.00000000000E+00 0. -1.
          2   -1    0    0  502    0 -0.00000000000E+00 -0.00000000000E+00 -0.15689681378E+04  0.15689681378E+04  0.00000000000E+00 0. -1.
         24    2    1    2    0    0  0.47437218757E+02  0.13251714091E+01 -0.13368411342E+04  0.13400860652E+04  0.80214701782E+02 0.  0.
         23    2    1    2    0    0 -0.34323996024E+02 -0.29886501368E+02 -0.20733528301E+03  0.23141553227E+03  0.92162298861E+02 0.  0.
        -13    1    3    3    0    0  0.34345612465E+02  0.13037182070E+02 -0.21560779797E+03  0.21871513838E+03  0.00000000000E+00 0.  1.
         14    1    3    3    0    0  0.13091606292E+02 -0.11712010661E+02 -0.11212333362E+04  0.11213709268E+04  0.00000000000E+00 0. -1.
        -11    1    4    4    0    0 -0.27543785048E+02  0.28564557781E+02 -0.52743470381E+02  0.66003543267E+02  0.00000000000E+00 0.  1.
         11    1    4    4    0    0 -0.67802109761E+01 -0.58451059149E+02 -0.15459181263E+03  0.16541198901E+03  0.00000000000E+00 0. -1.
          1    1    1    2  501    0 -0.13113222733E+02  0.28561329959E+02  0.11058276343E+02  0.33316537262E+02  0.00000000000E+00 0. -1.
<scales pt_clust_5="13000.00000" pt_clust_6="13000.00000" pt_clust_7="13000.00000" pt_clust_8="13000.00000" pt_clust_9="31.42779"></scales>
<clustering>
<clus scale="   31.428">  1  9  2 -1</clus>
<clus scale="   80.215">  5  6 -1 -1</clus>
<clus scale="   92.162">  7  8 -1 -1</clus>
<clus scale="   92.529">  2  5  1 -1</clus>
<clus scale="   31.428">  1  5  2 -1</clus>
</clustering>
</event>
<event>
 9    2  0.4883225E-005  0.1130429E+03  0.7546771E-02  0.1266056E+00
          2   -1    0    0  502    0 -0.00000000000E+00  0.00000000000E+00  0.11457659692E+04  0.11457659692E+04  0.00000000000E+00 0. -1.
         21   -1    0    0  501  502  0.00000000000E+00 -0.00000000000E+00 -0.23523966547E+02  0.23523966547E+02  0.00000000000E+00 0. -1.
         24    2    1    2    0    0  0.50895318088E+02  0.19456463996E+01  0.80956297664E+03  0.81511638017E+03  0.80177185783E+02 0.  0.
         23    2    1    2    0    0 -0.90945068139E+01  0.31158767909E+02  0.24245792575E+03  0.26600205796E+03  0.10448765578E+03 0.  0.
        -13    1    3    3    0    0 -0.45990698763E+01 -0.28173130389E+02  0.16330034968E+03  0.16577659945E+03  0.00000000000E+00 0.  1.
         14    1    3    3    0    0  0.55494387964E+02  0.30118776788E+02  0.64626262696E+03  0.64933978071E+03  0.00000000000E+00 0. -1.
        -13    1    4    4    0    0  0.31810551194E+02  0.52948632330E+02  0.15832856498E+03  0.16995117923E+03  0.00000000000E+00 0. -1.
         13    1    4    4    0    0 -0.40905058008E+02 -0.21789864421E+02  0.84129360769E+02  0.96050878734E+02  0.00000000000E+00 0.  1.
          1    1    1    2  501    0 -0.41800811274E+02 -0.33104414308E+02  0.70221100249E+02  0.88171497606E+02  0.00000000000E+00 0. -1.
<scales pt_clust_5="13000.00000" pt_clust_6="13000.00000" pt_clust_7="13000.00000" pt_clust_8="13000.00000" pt_clust_9="53.32176"></scales>
<clustering>
<clus scale="   53.322">  2  9  1 -1</clus>
<clus scale="   80.177">  5  6 -1 -1</clus>
<clus scale="   91.046">  1  5  2 -1</clus>
<clus scale="  104.488">  7  8 -1 -1</clus>
<clus scale="   53.322">  2  5  1 -1</clus>
</clustering>
</event>
<event>
 9    2  0.4883225E-005  0.1279977E+03  0.7546771E-02  0.1233454E+00
         21   -1    0    0  501  502  0.00000000000E+00  0.00000000000E+00  0.28965472323E+03  0.28965472323E+03  0.00000000000E+00 0.  1.
          2   -1    0    0  502    0 -0.00000000000E+00 -0.00000000000E+00 -0.45074669905E+03  0.45074669905E+03  0.00000000000E+00 0. -1.
         24    2    1    2    0    0  0.82462382938E+02 -0.40858533006E+02 -0.37094825825E+03  0.39044907287E+03  0.79864910236E+02 0.  0.
         23    2    1    2    0    0 -0.59542795090E+02 -0.35799582935E+02  0.23883453902E+03  0.26485526602E+03  0.90991320057E+02 0.  0.
        -11    1    3    3    0    0  0.33966922359E+02 -0.46287504008E+01 -0.34635662812E+02  0.48731984192E+02  0.00000000000E+00 0.  1.
         12    1    3    3    0    0  0.48495460579E+02 -0.36229782605E+02 -0.33631259544E+03  0.34171708868E+03  0.00000000000E+00 0. -1.
        -13    1    4    4    0    0 -0.67936611410E+02  0.83551371846E+01  0.16153528415E+03  0.17543899085E+03  0.00000000000E+00 0.  1.
         13    1    4    4    0    0  0.83938163197E+01 -0.44154720120E+02  0.77299254873E+02  0.89416275169E+02  0.00000000000E+00 0. -1.
          1    1    1    2  501    0 -0.22919587848E+02  0.76658115941E+02 -0.28978256584E+02  0.85097083389E+02  0.00000000000E+00 0. -1.
<scales pt_clust_5="13000.00000" pt_clust_6="13000.00000" pt_clust_7="13000.00000" pt_clust_8="13000.00000" pt_clust_9="80.01113"></scales>
<clustering>
<clus scale="   79.865">  5  6 -1 -1</clus>
<clus scale="   80.011">  1  9  2 -1</clus>
<clus scale="   90.991">  7  8 -1 -1</clus>
<clus scale="  120.343">  2  5  1 -1</clus>
<clus scale="   80.011">  1  5  2 -1</clus>
</clustering>
</event>
<event>
 9    2  0.4883225E-005  0.9423541E+02  0.7546771E-02  0.1299397E+00
          2   -1    0    0  502    0 -0.00000000000E+00  0.00000000000E+00  0.18966341054E+03  0.18966341054E+03  0.00000000000E+00 0. -1.
         21   -1    0    0  501  502  0.00000000000E+00 -0.00000000000E+00 -0.66989254312E+02  0.66989254312E+02  0.00000000000E+00 0. -1.
         23    2    1    2    0    0 -0.10228952253E+02  0.38929879465E+01  0.71733286809E+02  0.11678385438E+03  0.91504193279E+02 0.  0.
         24    2    1    2    0    0  0.10338839871E+02 -0.42551966608E+02  0.35422541592E+02  0.98211311692E+02  0.80455850125E+02 0.  0.
        -11    1    4    4    0    0  0.68609403263E+01 -0.56043072158E+02 -0.37986439730E+01  0.56589116755E+02  0.00000000000E+00 0.  1.
         12    1    4    4    0    0  0.34778995443E+01  0.13491105551E+02  0.39221185565E+02  0.41622194937E+02  0.00000000000E+00 0. -1.
        -13    1    3    3    0    0 -0.99576775955E+01  0.44895516017E+02  0.18449075492E+02  0.49549279390E+02  0.00000000000E+00 0.  1.
         13    1    3    3    0    0 -0.27127465735E+00 -0.41002528071E+02  0.53284211317E+02  0.67234574988E+02  0.00000000000E+00 0. -1.
          1    1    1    2  501    0 -0.10988761775E+00  0.38658978661E+02  0.15518327831E+02  0.41657498786E+02  0.00000000000E+00 0. -1.
<scales pt_clust_5="13000.00000" pt_clust_6="13000.00000" pt_clust_7="13000.00000" pt_clust_8="13000.00000" pt_clust_9="38.65913"></scales>
<clustering>
<clus scale="   38.659">  2  9  1 -1</clus>
<clus scale="   80.456">  5  6 -1 -1</clus>
<clus scale="   83.549">  2  5  1 -1</clus>
<clus scale="   91.504">  7  8 -1 -1</clus>
<clus scale="   38.659">  2  5  1 -1</clus>
</clustering>
</event>
<event>
 9    2  0.4883225E-005  0.1358555E+03  0.7546771E-02  0.1243388E+00
         21   -1    0    0  501  502  0.00000000000E+00  0.00000000000E+00  0.17435003679E+03  0.17435003679E+03  0.00000000000E+00 0. -1.
          2   -1    0    0  502    0 -0.00000000000E+00 -0.00000000000E+00 -0.20266377842E+03  0.20266377842E+03  0.00000000000E+00 0. -1.
         24    2    1    2    0    0 -0.13586042653E+02 -0.11217782075E+02 -0.92593995055E+02  0.12382533863E+03  0.80303470518E+02 0.  0.
         23    2    1    2    0    0 -0.83094393999E+02 -0.32112939850E+02 -0.33443432173E+01  0.12749939844E+03  0.91153676562E+02 0.  0.
        -11    1    3    3    0    0 -0.71890811998E+01  0.21558970730E+02  0.26654483922E+01  0.22881798936E+02  0.00000000000E+00 0.  1.
         12    1    3    3    0    0 -0.63969614530E+01 -0.32776752805E+02 -0.95259443448E+02  0.10094353970E+03  0.00000000000E+00 0. -1.
        -13    1    4    4    0    0 -0.24622333539E+02 -0.55082132270E+02  0.14773486026E+02  0.62117280154E+02  0.00000000000E+00 0.  1.
         13    1    4    4    0    0 -0.58472060461E+02  0.22969192420E+02 -0.18117829244E+02  0.65382118285E+02  0.00000000000E+00 0. -1.
          1    1    1    2  501    0  0.96680436652E+02  0.43330721925E+02  0.67624596642E+02  0.12568907814E+03  0.00000000000E+00 0. -1.
<scales pt_clust_5="13000.00000" pt_clust_6="13000.00000" pt_clust_7="13000.00000" pt_clust_8="13000.00000" pt_clust_9="100.73588"></scales>
<clustering>
<clus scale="   80.303">  5  6 -1 -1</clus>
<clus scale="   82.214">  2  5  1 -1</clus>
<clus scale="   91.154">  7  8 -1 -1</clus>
<clus scale="  100.736">  1  9  2 -1</clus>
<clus scale="  100.736">  1  5  2 -1</clus>
</clustering>
</event>
<event>
 9    2  0.4883225E-005  0.1191312E+03  0.7546771E-02  0.1248196E+00
         21   -1    0    0  501  502  0.00000000000E+00  0.00000000000E+00  0.26554891371E+03  0.26554891371E+03  0.00000000000E+00 0. -1.
          2   -1    0    0  502    0 -0.00000000000E+00 -0.00000000000E+00 -0.10657358464E+03  0.10657358464E+03  0.00000000000E+00 0. -1.
         24    2    1    2    0    0 -0.97718815379E+01  0.86088847783E+02 -0.26100086349E+02  0.12059883876E+03  0.79725065207E+02 0.  0.
         23    2    1    2    0    0 -0.37468237028E+02 -0.48221108545E+02  0.12371987877E+03  0.16532565290E+03  0.91086876167E+02 0.  0.
        -11    1    3    3    0    0  0.23789749075E+02  0.46431626294E+02  0.15077691918E+02  0.54306398104E+02  0.00000000000E+00 0.  1.
         12    1    3    3    0    0 -0.33561630613E+02  0.39657221489E+02 -0.41177778267E+02  0.66292440660E+02  0.00000000000E+00 0. -1.
        -13    1    4    4    0    0  0.20451317060E+02 -0.47524990888E+02  0.58091078297E+02  0.77791095288E+02  0.00000000000E+00 0.  1.
         13    1    4    4    0    0 -0.57919554088E+02 -0.69611765750E+00  0.65628800470E+02  0.87534557614E+02  0.00000000000E+00 0. -1.
          1    1    1    2  501    0  0.47240118566E+02 -0.37867739238E+02  0.61355536655E+02  0.86198006679E+02  0.00000000000E+00 0. -1.
<scales pt_clust_5="13000.00000" pt_clust_6="13000.00000" pt_clust_7="13000.00000" pt_clust_8="13000.00000" pt_clust_9="60.54415"></scales>
<clustering>
<clus scale="   60.544">  1  9  2 -1</clus>
<clus scale="   79.725">  5  6 -1 -1</clus>
<clus scale="   91.087">  7  8 -1 -1</clus>
<clus scale="  110.686">  2  5  1 -1</clus>
<clus scale="   60.544">  1  5  2 -1</clus>
</clustering>
</event>
<event>
 9    2  0.4883225E-005  0.9853819E+02  0.7546771E-02  0.1286768E+00
          2   -1    0    0  502    0 -0.00000000000E+00  0.00000000000E+00  0.55586696925E+03  0.55586696925E+03  0.00000000000E+00 0. -1.
         21   -1    0    0  501  502  0.00000000000E+00 -0.00000000000E+00 -0.20897119260E+02  0.20897119260E+02  0.00000000000E+00 0.  1.
         24    2    1    2    0    0 -0.24449483910E+02  0.35949472798E+02  0.27262390404E+03  0.28796452347E+03  0.81912342571E+02 0.  0.
         23    2    1    2    0    0  0.39156309960E+02 -0.21880709730E+02  0.23030438249E+03  0.25084060542E+03  0.88706925679E+02 0.  0.
        -13    1    3    3    0    0  0.21407602965E+02 -0.11167162928E+02  0.45423411854E+02  0.51441980299E+02  0.00000000000E+00 0.  1.
         14    1    3    3    0    0 -0.45857086875E+02  0.47116635726E+02  0.22720049219E+03  0.23652254317E+03  0.00000000000E+00 0. -1.
        -13    1    4    4    0    0  0.53312918356E+01 -0.53086538724E+02  0.12661886271E+03  0.13740065378E+03  0.00000000000E+00 0.  1.
         13    1    4    4    0    0  0.33825018125E+02  0.31205828993E+02  0.10368551978E+03  0.11343995164E+03  0.00000000000E+00 0. -1.
          1    1    1    2  501    0 -0.14706826050E+02 -0.14068763068E+02  0.32041563452E+02  0.37958959617E+02  0.00000000000E+00 0. -1.
<scales pt_clust_5="13000.00000" pt_clust_6="13000.00000" pt_clust_7="13000.00000" pt_clust_8="13000.00000" pt_clust_9="20.35242"></scales>
<clustering>
<clus scale="   20.352">  2  9  1 -1</clus>
<clus scale="   81.912">  5  6 -1 -1</clus>
<clus scale="   88.707">  7  8 -1 -1</clus>
<clus scale="   92.469">  1  5  2 -1</clus>
<clus scale="   20.352">  2  5  1 -1</clus>
</clustering>
</event>
<event>
 9    2  0.4883225E-005  0.9442937E+02  0.7546771E-02  0.1300186E+00
          2   -1    0    0  502    0 -0.00000000000E+00  0.00000000000E+00  0.23200263107E+03  0.23200263107E+03  0.00000000000E+00 0. -1.
         21   -1    0    0  501  502  0.00000000000E+00 -0.00000000000E+00 -0.64267153046E+02  0.64267153046E+02  0.00000000000E+00 0.  1.
         24    2    1    2    0    0 -0.65084717553E+01  0.16576526969E+02  0.89903169604E+02  0.12212805140E+03  0.80718892349E+02 0.  0.
         23    2    1    2    0    0  0.26034334019E+02  0.20623643275E+02  0.17654230998E+02  0.10074886545E+03  0.93464115082E+02 0.  0.
        -11    1    3    3    0    0  0.33698576765E+02  0.19295320994E+02  0.61838047406E+02  0.73019501472E+02  0.00000000000E+00 0.  1.
         12    1    3    3    0    0 -0.40207048520E+02 -0.27187940251E+01  0.28065122198E+02  0.49108549924E+02  0.00000000000E+00 0. -1.
        -11    1    4    4    0    0 -0.29571379353E+02  0.20041320778E+02 -0.12054287767E+02  0.37701815194E+02  0.00000000000E+00 0.  1.
         11    1    4    4    0    0  0.55605713372E+02  0.58232249723E+00  0.29708518765E+02  0.63047050258E+02  0.00000000000E+00 0. -1.
          1    1    1    2  501    0 -0.19525862264E+02 -0.37200170245E+02  0.60178077418E+02  0.73392867263E+02  0.00000000000E+00 0. -1.
<scales pt_clust_5="13000.00000" pt_clust_6="13000.00000" pt_clust_7="13000.00000" pt_clust_8="13000.00000" pt_clust_9="42.01326"></scales>
<clustering>
<clus scale="   42.013">  2  9  1 -1</clus>
<clus scale="   80.719">  5  6 -1 -1</clus>
<clus scale="   81.835">  1  5  2 -1</clus>
<clus scale="   93.464">  7  8 -1 -1</clus>
<clus scale="   42.013">  2  5  1 -1</clus>
</clustering>
</event>
<event>
 9    2  0.4883225E-005  0.1030499E+03  0.7546771E-02  0.1279351E+00
         21   -1    0    0  501  502  0.00000000000E+00  0.00000000000E+00  0.41353996265E+03  0.41353996265E+03  0.00000000000E+00 0.  1.
         -1   -1    0    0    0  501 -0.00000000000E+00 -0.00000000000E+00 -0.91469150379E+02  0.91469150379E+02  0.00000000000E+00 0.  1.
         23    2    1    2    0    0  0.17334577267E+02 -0.32336158486E+02 -0.19817554091E+02  0.10120493026E+03  0.92214899792E+02 0.  0.
         24    2    1    2    0    0 -0.10989586522E+02  0.69439829967E+02  0.67067592402E+02  0.12641745067E+03  0.80874278273E+02 0.  0.
        -11    1    4    4    0    0 -0.45386243944E+02  0.33038232974E+02  0.43755098871E+02  0.71175449803E+02  0.00000000000E+00 0.  1.
         12    1    4    4    0    0  0.34396657422E+02  0.36401596993E+02  0.23312493531E+02  0.55242000870E+02  0.00000000000E+00 0. -1.
        -13    1    3    3    0    0 -0.32104037872E+02 -0.52881582376E+01 -0.29625933594E+02  0.44003747642E+02  0.00000000000E+00 0.  1.
         13    1    3    3    0    0  0.49438615138E+02 -0.27048000249E+02  0.98083795029E+01  0.57201182616E+02  0.00000000000E+00 0. -1.
         -2    1    1    2    0  502 -0.63449907450E+01 -0.37103671480E+02  0.27482077396E+03  0.27738673210E+03  0.00000000000E+00 0.  1.
<scales pt_clust_5="13000.00000" pt_clust_6="13000.00000" pt_clust_7="13000.00000" pt_clust_8="13000.00000" pt_clust_9="37.64228"></scales>
<clustering>
<clus scale="   37.642">  1  9  2 -1</clus>
<clus scale="   80.874">  5  6 -1 -1</clus>
<clus scale="   92.215">  7  8 -1 -1</clus>
<clus scale="   93.040">  1  5  2 -1</clus>
<clus scale="   37.642">  1  5  2 -1</clus>
</clustering>
</event>
<event>
 9    2  0.4883225E-005  0.9090186E+02  0.7546771E-02  0.1313303E+00
          2   -1    0    0  502    0 -0.00000000000E+00  0.00000000000E+00  0.48487107592E+03  0.48487107592E+03  0.00000000000E+00 0. -1.
         21   -1    0    0  501  502  0.00000000000E+00 -0.00000000000E+00 -0.28424142551E+02  0.28424142551E+02  0.00000000000E+00 0. -1.
         24    2    1    2    0    0  0.67616247910E+01 -0.23283936708E+01  0.30432925448E+03  0.31275950940E+03  0.71770987186E+02 0.  0.
         23    2    1    2    0    0  0.12394946815E+02  0.29808939769E+02  0.10114810435E+03  0.13954347860E+03  0.90549631741E+02 0.  0.
        -11    1    3    3    0    0 -0.23341765888E+02 -0.22670392495E+02  0.98136750562E+02  0.10339055344E+03  0.00000000000E+00 0.  1.
         12    1    3    3    0    0  0.30103390679E+02  0.20341998824E+02  0.20619250392E+03  0.20936895596E+03  0.00000000000E+00 0. -1.
        -13    1    4    4    0    0 -0.25668186787E+02 -0.16433313638E+02  0.58677304052E+02  0.66120614190E+02  0.00000000000E+00 0.  1.
         13    1    4    4    0    0  0.38063133602E+02  0.46242253407E+02  0.42470800300E+02  0.73422864408E+02  0.00000000000E+00 0. -1.
          1    1    1    2  501    0 -0.19156571606E+02 -0.27480546098E+02  0.50969574537E+02  0.60992230473E+02  0.00000000000E+00 0. -1.
<scales pt_clust_5="13000.00000" pt_clust_6="13000.00000" pt_clust_7="13000.00000" pt_clust_8="13000.00000" pt_clust_9="33.49858"></scales>
<clustering>
<clus scale="   33.499">  2  9  1 -1</clus>
<clus scale="   71.771">  5  6 -1 -1</clus>
<clus scale="   72.215">  1  5  2 -1</clus>
<clus scale="   90.550">  7  8 -1 -1</clus>
<clus scale="   33.499">  2  5  1 -1</clus>
</clustering>
</event>
<event>
 9    2  0.4883225E-005  0.1191577E+03  0.7546771E-02  0.1252009E+00
          4   -1    0    0  502    0 -0.00000000000E+00  0.00000000000E+00  0.17785116903E+03  0.17785116903E+03  0.00000000000E+00 0. -1.
         21   -1    0    0  501  502  0.00000000000E+00 -0.00000000000E+00 -0.23498846411E+03  0.23498846411E+03  0.00000000000E+00 0.  1.
         24    2    1    2    0    0 -0.69007944781E+00  0.65798445380E+02  0.12980421986E+03  0.16645523899E+03  0.80797892738E+02 0.  0.
         23    2    1    2    0    0  0.10409521345E+02 -0.46592320153E+02 -0.80449740008E+02  0.13773891138E+03  0.10109720377E+03 0.  0.
        -11    1    3    3    0    0  0.20938051921E+02 -0.63662477725E+01  0.81288403324E+01  0.23345431547E+02  0.00000000000E+00 0.  1.
         12    1    3    3    0    0 -0.21628131369E+02  0.72164693152E+02  0.12167537952E+03  0.14310980744E+03  0.00000000000E+00 0. -1.
        -13    1    4    4    0    0 -0.15623125101E+02  0.22393628033E+02 -0.51949360181E+02  0.58688096217E+02  0.00000000000E+00 0.  1.
         13    1    4    4    0    0  0.26032646446E+02 -0.68985948186E+02 -0.28500379828E+02  0.79050815166E+02  0.00000000000E+00 0. -1.
          3    1    1    2  501    0 -0.97194418972E+01 -0.19206125227E+02 -0.10649177493E+03  0.10864548277E+03  0.00000000000E+00 0. -1.
<scales pt_clust_5="13000.00000" pt_clust_6="13000.00000" pt_clust_7="13000.00000" pt_clust_8="13000.00000" pt_clust_9="21.52540"></scales>
<clustering>
<clus scale="   21.525">  2  9  1 -1</clus>
<clus scale="   80.798">  5  6 -1 -1</clus>
<clus scale="  101.097">  7  8 -1 -1</clus>
<clus scale="  102.500">  1  5  2 -1</clus>
<clus scale="   21.525">  2  5  1 -1</clus>
</clustering>
</event>
<event>
 9    2  0.4883225E-005  0.9325753E+02  0.7546771E-02  0.1299369E+00
         21   -1    0    0  501  502  0.00000000000E+00  0.00000000000E+00  0.29442538608E+02  0.29442538608E+02  0.00000000000E+00 0. -1.
          2   -1    0    0  502    0 -0.00000000000E+00 -0.00000000000E+00 -0.56312753393E+03  0.56312753393E+03  0.00000000000E+00 0. -1.
         23    2    1    2    0    0  0.33542601011E+02  0.92884505550E+00 -0.29596476540E+03  0.31091471675E+03  0.89145105839E+02 0.  0.
         24    2    1    2    0    0 -0.17501065277E+02 -0.19104785330E+02 -0.24225095923E+03  0.25699317458E+03  0.81784377650E+02 0.  0.
        -11    1    4    4    0    0  0.27826299416E+02  0.10571301326E+02 -0.61986622882E+02  0.68763338831E+02  0.00000000000E+00 0.  1.
         12    1    4    4    0    0 -0.45327364693E+02 -0.29676086656E+02 -0.18026433635E+03  0.18822983575E+03  0.00000000000E+00 0. -1.
        -11    1    3    3    0    0  0.29337180020E+01  0.38912542678E+02 -0.19394662522E+03  0.19783348077E+03  0.00000000000E+00 0.  1.
         11    1    3    3    0    0  0.30608883009E+02 -0.37983697623E+02 -0.10201814018E+03  0.11308123598E+03  0.00000000000E+00 0. -1.
          1    1    1    2  501    0 -0.16041535734E+02  0.18175940275E+02  0.45307293119E+01  0.24662181202E+02  0.00000000000E+00 0. -1.
<scales pt_clust_5="13000.00000" pt_clust_6="13000.00000" pt_clust_7="13000.00000" pt_clust_8="13000.00000" pt_clust_9="24.24244"></scales>
<clustering>
<clus scale="   24.242">  1  9  2 -1</clus>
<clus scale="   81.784">  5  6 -1 -1</clus>
<clus scale="   86.248">  1  5  2 -1</clus>
<clus scale="   89.145">  7  8 -1 -1</clus>
<clus scale="   24.242">  1  5  2 -1</clus>
</clustering>
</event>
<event>
 9    2  0.4883225E-005  0.1217558E+03  0.7546771E-02  0.1248567E+00
          4   -1    0    0  502    0 -0.00000000000E+00  0.00000000000E+00  0.52110511569E+03  0.52110511569E+03  0.00000000000E+00 0. -1.
         21   -1    0    0  501  502  0.00000000000E+00 -0.00000000000E+00 -0.65831396999E+02  0.65831396999E+02  0.00000000000E+00 0. -1.
         23    2    1    2    0    0  0.31417017731E+02 -0.32185034022E+02  0.29913625840E+02  0.10717256382E+03  0.92564723343E+02 0.  0.
         24    2    1    2    0    0  0.27613763596E+02 -0.64432510134E+02  0.19263109661E+03  0.22095442688E+03  0.82462422177E+02 0.  0.
        -13    1    4    4    0    0  0.43147218189E+02 -0.17889888250E+01  0.66930514715E+02  0.79652851289E+02  0.00000000000E+00 0.  1.
         14    1    4    4    0    0 -0.15533454593E+02 -0.62643521309E+02  0.12570058190E+03  0.14130157559E+03  0.00000000000E+00 0. -1.
        -11    1    3    3    0    0 -0.26626451642E+02 -0.15218044792E+02  0.34941317659E+02  0.46491423876E+02  0.00000000000E+00 0.  1.
         11    1    3    3    0    0  0.58043469373E+02 -0.16966989230E+02 -0.50276918186E+01  0.60681139948E+02  0.00000000000E+00 0. -1.
          3    1    1    2  501    0 -0.59030781327E+02  0.96617544156E+02  0.23272899623E+03  0.25880952198E+03  0.00000000000E+00 0. -1.
<scales pt_clust_5="13000.00000" pt_clust_6="13000.00000" pt_clust_7="13000.00000" pt_clust_8="13000.00000" pt_clust_9="89.57919"></scales>
<clustering>
<clus scale="   82.462">  5  6 -1 -1</clus>
<clus scale="   92.565">  7  8 -1 -1</clus>
<clus scale="  102.913">  1  7  2 -1</clus>
<clus scale="   89.579">  2  9  1 -1</clus>
<clus scale="   89.579">  2  5  1 -1</clus>
</clustering>
</event>
<event>
 9    2  0.5084354E-005  0.9138783E+02  0.7546771E-02  0.1305801E+00
         -3   -1    0    0    0  501 -0.00000000000E+00  0.00000000000E+00  0.25076669696E+03  0.25076669696E+03  0.00000000000E+00 0.  1.
         21   -1    0    0  501  502  0.00000000000E+00 -0.00000000000E+00 -0.59048904215E+02  0.59048904215E+02  0.00000000000E+00 0.  1.
         23    2    1    2    0    0 -0.20105553118E+02  0.81316682964E+00  0.16648940740E+03  0.19043351539E+03  0.90229188736E+02 0.  0.
         24    2    1    2    0    0 -0.61928785581E+01 -0.21397611828E+02  0.20337313256E+02  0.85629315963E+02  0.80140900326E+02 0.  0.
        -11    1    4    4    0    0 -0.40073865147E+02 -0.26460587077E+02  0.56373611707E+01  0.48351392712E+02  0.00000000000E+00 0.  1.
         12    1    4    4    0    0  0.33880986589E+02  0.50629752490E+01  0.14699952085E+02  0.37277923251E+02  0.00000000000E+00 0. -1.
        -11    1    3    3    0    0 -0.45164998094E+02 -0.25117494604E+02  0.12615287412E+03  0.13632796205E+03  0.00000000000E+00 0.  1.
         11    1    3    3    0    0  0.25059444976E+02  0.25930661433E+02  0.40336533280E+02  0.54105553337E+02  0.00000000000E+00 0. -1.
         -4    1    1    2    0  502  0.26298431676E+02  0.20584444998E+02  0.48910720862E+01  0.33752769822E+02  0.00000000000E+00 0.  1.
<scales pt_clust_5="13000.00000" pt_clust_6="13000.00000" pt_clust_7="13000.00000" pt_clust_8="13000.00000" pt_clust_9="33.39651"></scales>
<clustering>
<clus scale="   33.397">  2  9  1 -1</clus>
<clus scale="   80.141">  5  6 -1 -1</clus>
<clus scale="   81.443">  2  5  1 -1</clus>
<clus scale="   90.229">  7  8 -1 -1</clus>
<clus scale="   33.397">  2  5  1 -1</clus>
</clustering>
</event>
<event>
 9    2  0.4883225E-005  0.9537626E+02  0.7546771E-02  0.1295549E+00
         21   -1    0    0  501  502  0.00000000000E+00  0.00000000000E+00  0.60977653748E+02  0.60977653748E+02  0.00000000000E+00 0.  1.
          2   -1    0    0  502    0 -0.00000000000E+00 -0.00000000000E+00 -0.26042479418E+03  0.26042479418E+03  0.00000000000E+00 0. -1.
         24    2    1    2    0    0 -0.21917771408E+02  0.11881647229E+02 -0.13936615832E+03  0.16355583316E+03  0.81890306084E+02 0.  0.
         23    2    1    2    0    0  0.14663240375E+02 -0.45162810185E+02 -0.19111860596E+02  0.10456685364E+03  0.91182638824E+02 0.  0.
        -11    1    3    3    0    0  0.28421495509E+02  0.52532792840E+01 -0.82013927921E+02  0.86957821518E+02  0.00000000000E+00 0.  1.
         12    1    3    3    0    0 -0.50339266917E+02  0.66283679453E+01 -0.57352230403E+02  0.76598011642E+02  0.00000000000E+00 0. -1.
        -11    1    4    4    0    0  0.44810533890E+02 -0.42780782732E+02 -0.34205026785E+02  0.70768376949E+02  0.00000000000E+00 0. -1.
         11    1    4    4    0    0 -0.30147293515E+02 -0.23820274526E+01  0.15093166190E+02  0.33798476692E+02  0.00000000000E+00 0.  1.
          1    1    1    2  501    0  0.72545310326E+01  0.33281162955E+02 -0.40969121517E+02  0.53279761130E+02  0.00000000000E+00 0. -1.
<scales pt_clust_5="13000.00000" pt_clust_6="13000.00000" pt_clust_7="13000.00000" pt_clust_8="13000.00000" pt_clust_9="34.06267"></scales>
<clustering>
<clus scale="   34.063">  1  9  2 -1</clus>
<clus scale="   81.890">  5  6 -1 -1</clus>
<clus scale="   86.535">  2  5  1 -1</clus>
<clus scale="   91.183">  7  8 -1 -1</clus>
<clus scale="   34.063">  1  5  2 -1</clus>
</clustering>
</event>
<event>
 9    2  0.1044460E-004  0.1370288E+03  0.7546771E-02  0.1225290E+00
         21   -1    0    0  501  502  0.00000000000E+00  0.00000000000E+00  0.94174195176E+02  0.94174195176E+02  0.00000000000E+00 0. -1.
          2   -1    0    0  502    0 -0.00000000000E+00 -0.00000000000E+00 -0.15741006315E+04  0.15741006315E+04  0.00000000000E+00 0. -1.
         24    2    1    2    0    0  0.74171415047E+02  0.40318458697E+02  0.33157889744E+02  0.12075291765E+03  0.79717278842E+02 0.  0.
         23    2    1    2    0    0  0.67393804118E+02  0.51844698551E+02 -0.32894135422E+03  0.35139092264E+03  0.89684828118E+02 0.  0.
        -13    1    3    3    0    0  0.23619905969E+02  0.53341000425E+02 -0.10413975425E+01  0.58345923535E+02  0.00000000000E+00 0.  1.
         14    1    3    3    0    0  0.50551509078E+02 -0.13022541727E+02  0.34199287286E+02  0.62406994111E+02  0.00000000000E+00 0. -1.
        -13    1    4    4    0    0  0.81103249136E+02  0.12680355350E+02 -0.21765018414E+03  0.23261584445E+03  0.00000000000E+00 0.  1.
         13    1    4    4    0    0 -0.13709445018E+02  0.39164343201E+02 -0.11129117008E+03  0.11877507819E+03  0.00000000000E+00 0. -1.
          1    1    1    2  501    0 -0.14156521917E+03 -0.92163157248E+02 -0.11841429719E+04  0.11961309864E+04  0.00000000000E+00 0. -1.
<scales pt_clust_5="13000.00000" pt_clust_6="13000.00000" pt_clust_7="13000.00000" pt_clust_8="13000.00000" pt_clust_9="103.60280"></scales>
<clustering>
<clus scale="   79.717">  5  6 -1 -1</clus>
<clus scale="   89.685">  7  8 -1 -1</clus>
<clus scale="  116.111">  2  5  1 -1</clus>
<clus scale="  103.603">  1  9  2 -1</clus>
<clus scale="  103.603">  1  5  2 -1</clus>
</clustering>
</event>
<event>
 9    2  0.4883225E-005  0.1190886E+03  0.7546771E-02  0.1260848E+00
          2   -1    0    0  502    0 -0.00000000000E+00  0.00000000000E+00  0.67378644879E+02  0.67378644879E+02  0.00000000000E+00 0. -1.
         21   -1    0    0  501  502  0.00000000000E+00 -0.00000000000E+00 -0.37672361873E+03  0.37672361873E+03  0.00000000000E+00 0.  1.
         24    2    1    2    0    0  0.59550992524E+01 -0.19793104970E+02  0.54890041951E-01  0.86156912933E+02  0.83640782049E+02 0.  0.
         23    2    1    2    0    0 -0.35291748519E+02  0.68332149574E+01 -0.14252644882E+03  0.18801791206E+03  0.11723799000E+03 0.  0.
        -13    1    3    3    0    0 -0.31927958967E+02  0.12782321826E+02 -0.85986259737E+01  0.35450228261E+02  0.00000000000E+00 0.  1.
         14    1    3    3    0    0  0.37883058220E+02 -0.32575426796E+02  0.86535160157E+01  0.50706684672E+02  0.00000000000E+00 0. -1.
        -11    1    4    4    0    0  0.12912366760E+02 -0.44884205828E+02 -0.31296278760E+02  0.56220798752E+02  0.00000000000E+00 0. -1.
         11    1    4    4    0    0 -0.48204115279E+02  0.51717420785E+02 -0.11123017006E+03  0.13179711330E+03  0.00000000000E+00 0.  1.
          1    1    1    2  501    0  0.29336649266E+02  0.12959890012E+02 -0.16687341507E+03  0.16992743862E+03  0.00000000000E+00 0. -1.
<scales pt_clust_5="13000.00000" pt_clust_6="13000.00000" pt_clust_7="13000.00000" pt_clust_8="13000.00000" pt_clust_9="32.07176"></scales>
<clustering>
<clus scale="   32.072">  2  9  1 -1</clus>
<clus scale="   83.641">  5  6 -1 -1</clus>
<clus scale="   86.216">  1  5  2 -1</clus>
<clus scale="  117.238">  7  8 -1 -1</clus>
<clus scale="   32.072">  2  5  1 -1</clus>
</clustering>
</event>
<event>
 9    2  0.4883225E-005  0.1074963E+03  0.7546771E-02  0.1270847E+00
          2   -1    0    0  502    0 -0.00000000000E+00  0.00000000000E+00  0.40079019736E+03  0.40079019736E+03  0.00000000000E+00 0. -1.
         21   -1    0    0  501  502  0.00000000000E+00 -0.00000000000E+00 -0.26890966169E+03  0.26890966169E+03  0.00000000000E+00 0.  1.
         24    2    1    2    0    0 -0.14389630334E+02  0.51539975836E+02  0.37075003893E+03  0.38311998673E+03  0.80385958337E+02 0.  0.
         23    2    1    2    0    0  0.55442100036E+02 -0.34766746993E+02 -0.17034163675E+03  0.20495441695E+03  0.93313914626E+02 0.  0.
        -11    1    3    3    0    0 -0.29668178626E+02  0.41351167979E+02  0.10446697092E+03  0.11620442302E+03  0.00000000000E+00 0.  1.
         12    1    3    3    0    0  0.15278548293E+02  0.10188807857E+02  0.26628306801E+03  0.26691556371E+03  0.00000000000E+00 0. -1.
        -11    1    4    4    0    0 -0.76377823202E+01 -0.48525946809E+02 -0.80868725100E+02  0.94619521938E+02  0.00000000000E+00 0.  1.
         11    1    4    4    0    0  0.63079882357E+02  0.13759199815E+02 -0.89472911647E+02  0.11033489501E+03  0.00000000000E+00 0. -1.
          1    1    1    2  501    0 -0.41052469703E+02 -0.16773228842E+02 -0.68527866516E+02  0.81625455366E+02  0.00000000000E+00 0. -1.
<scales pt_clust_5="13000.00000" pt_clust_6="13000.00000" pt_clust_7="13000.00000" pt_clust_8="13000.00000" pt_clust_9="44.34689"></scales>
<clustering>
<clus scale="   44.347">  2  9  1 -1</clus>
<clus scale="   80.386">  5  6 -1 -1</clus>
<clus scale="   93.314">  7  8 -1 -1</clus>
<clus scale="   96.488">  1  5  2 -1</clus>
<clus scale="   44.347">  2  5  1 -1</clus>
</clustering>
</event>
<event>
 9    2  0.4883225E-005  0.1659236E+03  0.7546771E-02  0.1200126E+00
          2   -1    0    0  502    0 -0.00000000000E+00  0.00000000000E+00  0.52059615539E+03  0.52059615539E+03  0.00000000000E+00 0. -1.
         21   -1    0    0  501  502  0.00000000000E+00 -0.00000000000E+00 -0.11261100054E+03  0.11261100054E+03  0.00000000000E+00 0. -1.
         23    2    1    2    0    0  0.19472967093E+02  0.60906110598E+02  0.15182510656E+03  0.18846708672E+03  0.91543590933E+02 0.  0.
         24    2    1    2    0    0  0.41769304521E+02 -0.18021605866E+03  0.23345740412E+03  0.30872209396E+03  0.81144742035E+02 0.  0.
        -13    1    4    4    0    0  0.27953008044E+02 -0.80944652831E+01  0.28671675608E+02  0.40852858028E+02  0.00000000000E+00 0.  1.
         14    1    4    4    0    0  0.13816296477E+02 -0.17212159338E+03  0.20478572851E+03  0.26786923593E+03  0.00000000000E+00 0. -1.
        -13    1    3    3    0    0 -0.33191399498E+02  0.44417194758E+02  0.88863106309E+02  0.10474353371E+03  0.00000000000E+00 0. -1.
         13    1    3    3    0    0  0.52664366591E+02  0.16488915840E+02  0.62962000248E+02  0.83723553014E+02  0.00000000000E+00 0.  1.
          1    1    1    2  501    0 -0.61242271615E+02  0.11930994806E+03  0.22702644175E+02  0.13601797525E+03  0.00000000000E+00 0. -1.
<scales pt_clust_5="13000.00000" pt_clust_6="13000.00000" pt_clust_7="13000.00000" pt_clust_8="13000.00000" pt_clust_9="144.72789"></scales>
<clustering>
<clus scale="   81.145">  5  6 -1 -1</clus>
<clus scale="   91.544">  7  8 -1 -1</clus>
<clus scale="  111.665">  1  7  2 -1</clus>
<clus scale="  144.728">  2  9  1 -1</clus>
<clus scale="  144.728">  2  5  1 -1</clus>
</clustering>
</event>
<event>
 9    2  0.4883225E-005  0.1023584E+03  0.7546771E-02  0.1281311E+00
          2   -1    0    0  502    0 -0.00000000000E+00  0.00000000000E+00  0.95934906542E+03  0.95934906542E+03  0.00000000000E+00 0. -1.
         21   -1    0    0  501  502  0.00000000000E+00 -0.00000000000E+00 -0.15633973628E+02  0.15633973628E+02  0.00000000000E+00 0.  1.
         24    2    1    2    0    0 -0.36087769039E+02 -0.50728986189E+00  0.52352708219E+03  0.53093354204E+03  0.80667439909E+02 0.  0.
         23    2    1    2    0    0  0.57455685366E+02 -0.19493922907E+02  0.36636142821E+03  0.38278011457E+03  0.92837229688E+02 0.  0.
        -13    1    3    3    0    0 -0.65882205790E+01  0.26524687177E+02  0.63016735205E+02  0.68688227493E+02  0.00000000000E+00 0.  1.
         14    1    3    3    0    0 -0.29499548460E+02 -0.27031977039E+02  0.46051034698E+03  0.46224531455E+03  0.00000000000E+00 0. -1.
        -11    1    4    4    0    0 -0.20382642445E+02  0.15456166711E+02  0.84690183602E+02  0.88469047700E+02  0.00000000000E+00 0. -1.
         11    1    4    4    0    0  0.77838327812E+02 -0.34950089618E+02  0.28167124461E+03  0.29431106687E+03  0.00000000000E+00 0.  1.
          1    1    1    2  501    0 -0.21367916327E+02  0.20001212769E+02  0.53826581395E+02  0.61269382444E+02  0.00000000000E+00 0. -1.
<scales pt_clust_5="13000.00000" pt_clust_6="13000.00000" pt_clust_7="13000.00000" pt_clust_8="13000.00000" pt_clust_9="29.26835"></scales>
<clustering>
<clus scale="   29.268">  2  9  1 -1</clus>
<clus scale="   80.667">  5  6 -1 -1</clus>
<clus scale="   91.464">  1  5  2 -1</clus>
<clus scale="   92.837">  7  8 -1 -1</clus>
<clus scale="   29.268">  2  5  1 -1</clus>
</clustering>
</event>
<event>
 9    2  0.4883225E-005  0.1038692E+03  0.7546771E-02  0.1276527E+00
          2   -1    0    0  502    0 -0.00000000000E+00  0.00000000000E+00  0.37660495324E+03  0.37660495324E+03  0.00000000000E+00 0. -1.
         21   -1    0    0  501  502  0.00000000000E+00 -0.00000000000E+00 -0.51015037190E+02  0.51015037190E+02  0.00000000000E+00 0. -1.
         23    2    1    2    0    0 -0.61078566384E+02  0.23596052812E+02  0.25015838363E+03  0.27404554649E+03  0.90743482781E+02 0.  0.
         24    2    1    2    0    0  0.12173185726E+02 -0.19167525891E+02  0.45224747520E+02  0.95922054906E+02  0.81487313918E+02 0.  0.
        -13    1    4    4    0    0  0.22780978842E+02 -0.10035979321E+02  0.66188569746E+02  0.70715066591E+02  0.00000000000E+00 0.  1.
         14    1    4    4    0    0 -0.10607793116E+02 -0.91315465701E+01 -0.20963822226E+02  0.25206988314E+02  0.00000000000E+00 0. -1.
        -13    1    3    3    0    0 -0.69979610605E+02  0.42956033524E+02  0.14396611057E+03  0.16573656117E+03  0.00000000000E+00 0. -1.
         13    1    3    3    0    0  0.89010442205E+01 -0.19359980713E+02  0.10619227306E+03  0.10830898531E+03  0.00000000000E+00 0.  1.
          1    1    1    2  501    0  0.48905380658E+02 -0.44285269202E+01  0.30206784895E+02  0.57652389037E+02  0.00000000000E+00 0. -1.
<scales pt_clust_5="13000.00000" pt_clust_6="13000.00000" pt_clust_7="13000.00000" pt_clust_8="13000.00000" pt_clust_9="49.10548"></scales>
<clustering>
<clus scale="   49.105">  2  9  1 -1</clus>
<clus scale="   81.487">  5  6 -1 -1</clus>
<clus scale="   90.743">  7  8 -1 -1</clus>
<clus scale="   95.889">  2  5  1 -1</clus>
<clus scale="   49.105">  2  5  1 -1</clus>
</clustering>
</event>
<event>
 9    2  0.4883225E-005  0.2358357E+03  0.7546771E-02  0.1161661E+00
          2   -1    0    0  502    0 -0.00000000000E+00  0.00000000000E+00  0.10964226412E+04  0.10964226412E+04  0.00000000000E+00 0. -1.
         21   -1    0    0  501  502  0.00000000000E+00 -0.00000000000E+00 -0.72469226538E+02  0.72469226538E+02  0.00000000000E+00 0. -1.
         24    2    1    2    0    0  0.13361136635E+01  0.44356711047E+02  0.94476867873E+02  0.13202611875E+03  0.80843765710E+02 0.  0.
         23    2    1    2    0    0 -0.88701608832E+02  0.17321534134E+03  0.55453813370E+03  0.59465636268E+03  0.90731020393E+02 0.  0.
        -13    1    3    3    0    0 -0.36712421743E+02  0.44059122931E+01  0.35290570349E+02  0.51113973911E+02  0.00000000000E+00 0.  1.
         14    1    3    3    0    0  0.38048535407E+02  0.39950798754E+02  0.59186297524E+02  0.80912144838E+02  0.00000000000E+00 0. -1.
        -13    1    4    4    0    0 -0.29962631472E+02  0.14410983545E+03  0.41889955477E+03  0.44400702803E+03  0.00000000000E+00 0. -1.
         13    1    4    4    0    0 -0.58738977360E+02  0.29105505894E+02  0.13563857893E+03  0.15064933464E+03  0.00000000000E+00 0.  1.
          1    1    1    2  501    0  0.87365495169E+02 -0.21757205239E+03  0.37493841307E+03  0.44220938629E+03  0.00000000000E+00 0. -1.
<scales pt_clust_5="13000.00000" pt_clust_6="13000.00000" pt_clust_7="13000.00000" pt_clust_8="13000.00000" pt_clust_9="217.68403"></scales>
<clustering>
<clus scale="   80.844">  5  6 -1 -1</clus>
<clus scale="   90.731">  7  8 -1 -1</clus>
<clus scale="   92.223">  1  5  2 -1</clus>
<clus scale="  217.684">  2  9  1 -1</clus>
<clus scale="  217.684">  2  5  1 -1</clus>
</clustering>
</event>
<event>
 9    2  0.4883225E-005  0.9151689E+02  0.7546771E-02  0.1307292E+00
         21   -1    0    0  501  502  0.00000000000E+00  0.00000000000E+00  0.21284928705E+03  0.21284928705E+03  0.00000000000E+00 0. -1.
          2   -1    0    0  502    0 -0.00000000000E+00 -0.00000000000E+00 -0.10650347983E+03  0.10650347983E+03  0.00000000000E+00 0. -1.
         24    2    1    2    0    0 -0.11259939934E+02  0.47076630158E+01 -0.56454150248E+02  0.97345304157E+02  0.78358718869E+02 0.  0.
         23    2    1    2    0    0 -0.19535818368E+02 -0.20586627802E+02  0.57951509709E+02  0.11158229689E+03  0.91031720071E+02 0.  0.
        -11    1    3    3    0    0  0.29439614480E+02  0.20050391342E+02 -0.28772581175E+02  0.45788322978E+02  0.00000000000E+00 0.  1.
         12    1    3    3    0    0 -0.40699554413E+02 -0.15342728326E+02 -0.27681569073E+02  0.51556981179E+02  0.00000000000E+00 0. -1.
        -13    1    4    4    0    0  0.36042918392E+02 -0.33040808108E+01  0.30019508223E+02  0.47023183539E+02  0.00000000000E+00 0.  1.
         13    1    4    4    0    0 -0.55578736759E+02 -0.17282546991E+02  0.27932001486E+02  0.64559113355E+02  0.00000000000E+00 0. -1.
          1    1    1    2  501    0  0.30795758301E+02  0.15878964786E+02  0.10484844776E+03  0.11042516583E+03  0.00000000000E+00 0. -1.
<scales pt_clust_5="13000.00000" pt_clust_6="13000.00000" pt_clust_7="13000.00000" pt_clust_8="13000.00000" pt_clust_9="34.64852"></scales>
<clustering>
<clus scale="   34.649">  1  9  2 -1</clus>
<clus scale="   78.359">  5  6 -1 -1</clus>
<clus scale="   78.922">  2  5  1 -1</clus>
<clus scale="   91.032">  7  8 -1 -1</clus>
<clus scale="   34.649">  1  5  2 -1</clus>
</clustering>
</event>
<event>
 9    2  0.4883225E-005  0.1005533E+03  0.7546771E-02  0.1283739E+00
         21   -1    0    0  501  502  0.00000000000E+00  0.00000000000E+00  0.79076743831E+02  0.79076743831E+02  0.00000000000E+00 0. -1.
          2   -1    0    0  502    0 -0.00000000000E+00 -0.00000000000E+00 -0.34112854405E+03  0.34112854405E+03  0.00000000000E+00 0. -1.
         24    2    1    2    0    0  0.42307020949E+02 -0.50030190257E+02 -0.16896411616E+03  0.19777696701E+03  0.79208283476E+02 0.  0.
         23    2    1    2    0    0 -0.42404222085E+02 -0.43327190968E+02 -0.61301431614E+02  0.12380795826E+03  0.88854833761E+02 0.  0.
        -11    1    3    3    0    0  0.26464774410E+02  0.18581917676E+02 -0.50602645628E+02  0.60052474501E+02  0.00000000000E+00 0.  1.
         12    1    3    3    0    0  0.15842246539E+02 -0.68612107933E+02 -0.11836147053E+03  0.13772449250E+03  0.00000000000E+00 0. -1.
        -11    1    4    4    0    0 -0.58529974001E+02 -0.45571523219E+01 -0.56612991266E+02  0.81557073721E+02  0.00000000000E+00 0.  1.
         11    1    4    4    0    0  0.16125751916E+02 -0.38770038646E+02 -0.46884403484E+01  0.42250884539E+02  0.00000000000E+00 0. -1.
          1    1    1    2  501    0  0.97201136014E-01  0.93357381224E+02 -0.31786252445E+02  0.98620362611E+02  0.00000000000E+00 0. -1.
<scales pt_clust_5="13000.00000" pt_clust_6="13000.00000" pt_clust_7="13000.00000" pt_clust_8="13000.00000" pt_clust_9="93.35743"></scales>
<clustering>
<clus scale="   79.208">  5  6 -1 -1</clus>
<clus scale="   88.855">  7  8 -1 -1</clus>
<clus scale="   93.357">  1  9  2 -1</clus>
<clus scale="   92.140">  2  5  1 -1</clus>
<clus scale="   93.357">  1  5  2 -1</clus>
</clustering>
</event>
<event>
 9    2  0.4883225E-005  0.1341596E+03  0.7546771E-02  0.1239378E+00
          2   -1    0    0  502    0 -0.00000000000E+00  0.00000000000E+00  0.26506515162E+03  0.26506515162E+03  0.00000000000E+00 0. -1.
         21   -1    0    0  501  502  0.00000000000E+00 -0.00000000000E+00 -0.15788178562E+03  0.15788178562E+03  0.00000000000E+00 0.  1.
         24    2    1    2    0    0  0.34509824121E+02 -0.30249776987E+02  0.10995638426E+03  0.14375145285E+03  0.80424478787E+02 0.  0.
         23    2    1    2    0    0  0.69314828067E+02  0.43813037477E+02  0.79948441553E+02  0.14575500945E+03  0.90158980855E+02 0.  0.
        -11    1    3    3    0    0  0.30670608867E+02  0.23541274181E+02  0.46634443550E+02  0.60577629234E+02  0.00000000000E+00 0.  1.
         12    1    3    3    0    0  0.38392152535E+01 -0.53791051168E+02  0.63321940713E+02  0.83173823618E+02  0.00000000000E+00 0. -1.
        -11    1    4    4    0    0  0.40412975026E+02  0.93791406044E+00 -0.10325249300E+02  0.41721685085E+02  0.00000000000E+00 0.  1.
         11    1    4    4    0    0  0.28901853041E+02  0.42875123417E+02  0.90273690853E+02  0.10403332436E+03  0.00000000000E+00 0. -1.
          1    1    1    2  501    0 -0.10382465219E+03 -0.13563260490E+02 -0.82721459816E+02  0.13344047494E+03  0.00000000000E+00 0. -1.
<scales pt_clust_5="13000.00000" pt_clust_6="13000.00000" pt_clust_7="13000.00000" pt_clust_8="13000.00000" pt_clust_9="99.34862"></scales>
<clustering>
<clus scale="   80.424">  5  6 -1 -1</clus>
<clus scale="   90.159">  7  8 -1 -1</clus>
<clus scale="   92.596">  1  5  2 -1</clus>
<clus scale="   99.349">  2  9  1 -1</clus>
<clus scale="   99.349">  2  5  1 -1</clus>
</clustering>
</event>
<event>
 9    2  0.4883225E-005  0.1374795E+03  0.7546771E-02  0.1217913E+00
         21   -1    0    0  501  502  0.00000000000E+00  0.00000000000E+00  0.68952009162E+02  0.68952009162E+02  0.00000000000E+00 0. -1.
          2   -1    0    0  502    0 -0.00000000000E+00 -0.00000000000E+00 -0.10205204219E+04  0.10205204219E+04  0.00000000000E+00 0. -1.
         24    2    1    2    0    0 -0.91320147467E+02  0.20531741137E+02 -0.58430965733E+03  0.59713506763E+03  0.79947430309E+02 0.  0.
         23    2    1    2    0    0  0.18952823860E+03  0.27829136556E+02 -0.29193168533E+03  0.35945481703E+03  0.85371204277E+02 0.  0.
        -11    1    3    3    0    0 -0.19852857816E+02 -0.13020826817E+02 -0.35702402492E+02  0.42875860786E+02  0.00000000000E+00 0.  1.
         12    1    3    3    0    0 -0.71467289651E+02  0.33552567954E+02 -0.54860725484E+03  0.55425920684E+03  0.00000000000E+00 0. -1.
        -11    1    4    4    0    0  0.39416250878E+02  0.24197687934E+02 -0.23497728109E+02  0.51877858099E+02  0.00000000000E+00 0.  1.
         11    1    4    4    0    0  0.15011198772E+03  0.36314486215E+01 -0.26843395723E+03  0.30757695893E+03  0.00000000000E+00 0. -1.
          1    1    1    2  501    0 -0.98208091129E+02 -0.48360877693E+02 -0.75327070092E+02  0.13288254642E+03  0.00000000000E+00 0. -1.
<scales pt_clust_5="13000.00000" pt_clust_6="13000.00000" pt_clust_7="13000.00000" pt_clust_8="13000.00000" pt_clust_9="109.46965"></scales>
<clustering>
<clus scale="   79.947">  5  6 -1 -1</clus>
<clus scale="   85.371">  7  8 -1 -1</clus>
<clus scale="  109.470">  1  9  2 -1</clus>
<clus scale="  134.179">  2  5  1 -1</clus>
<clus scale="  109.470">  1  5  2 -1</clus>
</clustering>
</event>
<event>
 9    2  0.4883225E-005  0.9648559E+02  0.7546771E-02  0.1293691E+00
         -1   -1    0    0    0  501 -0.00000000000E+00  0.00000000000E+00  0.34460605376E+02  0.34460605376E+02  0.00000000000E+00 0.  1.
         21   -1    0    0  501  502  0.00000000000E+00 -0.00000000000E+00 -0.35495781246E+03  0.35495781246E+03  0.00000000000E+00 0.  1.
         24    2    1    2    0    0 -0.23369537077E+02 -0.31424136163E+02 -0.99676454961E+02  0.13418219847E+03  0.80844635670E+02 0.  0.
         23    2    1    2    0    0  0.21193404257E+02  0.25966597153E+01 -0.19520564394E+03  0.21661119224E+03  0.91429000624E+02 0.  0.
        -11    1    3    3    0    0 -0.50308390118E+02 -0.10686977883E+02 -0.38684198990E+02  0.64355363910E+02  0.00000000000E+00 0.  1.
         12    1    3    3    0    0  0.26938853040E+02 -0.20737158281E+02 -0.60992255971E+02  0.69826834563E+02  0.00000000000E+00 0. -1.
        -11    1    4    4    0    0  0.16743955673E+02  0.45434153535E+02 -0.12731698057E+03  0.13621393432E+03  0.00000000000E+00 0.  1.
         11    1    4    4    0    0  0.44494485841E+01 -0.42837493819E+02 -0.67888663362E+02  0.80397257929E+02  0.00000000000E+00 0. -1.
         -2    1    1    2    0  502  0.21761328206E+01  0.28827476448E+02 -0.25615108181E+02  0.38625027114E+02  0.00000000000E+00 0.  1.
<scales pt_clust_5="13000.00000" pt_clust_6="13000.00000" pt_clust_7="13000.00000" pt_clust_8="13000.00000" pt_clust_9="28.90951"></scales>
<clustering>
<clus scale="   28.910">  2  9  1 -1</clus>
<clus scale="   80.845">  5  6 -1 -1</clus>
<clus scale="   86.522">  1  5  2 -1</clus>
<clus scale="   91.429">  7  8 -1 -1</clus>
<clus scale="   28.910">  2  5  1 -1</clus>
</clustering>
</event>
<event>
 9    2  0.4883225E-005  0.1016903E+03  0.7546771E-02  0.1280816E+00
         21   -1    0    0  501  502  0.00000000000E+00  0.00000000000E+00  0.28525722828E+02  0.28525722828E+02  0.00000000000E+00 0.  1.
          2   -1    0    0  502    0 -0.00000000000E+00 -0.00000000000E+00 -0.65338003925E+03  0.65338003925E+03  0.00000000000E+00 0. -1.
         23    2    1    2    0    0  0.10383630213E+02  0.47748788024E+02 -0.28774637371E+03  0.30523093102E+03  0.89331848372E+02 0.  0.
         24    2    1    2    0    0 -0.52038224707E+02 -0.30752701682E+02 -0.12872552614E+03  0.16349133327E+03  0.80656366661E+02 0.  0.
        -11    1    4    4    0    0 -0.36048536919E+02 -0.42192901150E+02 -0.30514017872E+02  0.63331218275E+02  0.00000000000E+00 0.  1.
         12    1    4    4    0    0 -0.15989687788E+02  0.11440199468E+02 -0.98211508271E+02  0.10016011500E+03  0.00000000000E+00 0. -1.
        -13    1    3    3    0    0 -0.26227665052E+02  0.56492272105E+02 -0.14958256219E+03  0.16203150969E+03  0.00000000000E+00 0.  1.
         13    1    3    3    0    0  0.36611295265E+02 -0.87434840808E+01 -0.13816381152E+03  0.14319942133E+03  0.00000000000E+00 0. -1.
          1    1    1    2  501    0  0.41654594494E+02 -0.16996086342E+02 -0.20838241656E+03  0.21318349778E+03  0.00000000000E+00 0. -1.
<scales pt_clust_5="13000.00000" pt_clust_6="13000.00000" pt_clust_7="13000.00000" pt_clust_8="13000.00000" pt_clust_9="44.98860"></scales>
<clustering>
<clus scale="   44.989">  1  9  2 -1</clus>
<clus scale="   80.656">  5  6 -1 -1</clus>
<clus scale="   89.332">  7  8 -1 -1</clus>
<clus scale="   94.160">  1  5  2 -1</clus>
<clus scale="   44.989">  1  5  2 -1</clus>
</clustering>
</event>
<event>
 9    2  0.4883225E-005  0.1088590E+03  0.7546771E-02  0.1267563E+00
         -3   -1    0    0    0  501 -0.00000000000E+00  0.00000000000E+00  0.66606489630E+02  0.66606489630E+02  0.00000000000E+00 0.  1.
         21   -1    0    0  501  502  0.00000000000E+00 -0.00000000000E+00 -0.50392417369E+03  0.50392417369E+03  0.00000000000E+00 0.  1.
         23    2    1    2    0    0  0.38561616772E+02  0.27373857110E+02 -0.79666339973E+02  0.13084028004E+03  0.92391162000E+02 0.  0.
         24    2    1    2    0    0 -0.10858548010E+03  0.22861101239E+02 -0.31496472729E+03  0.34351845531E+03  0.80552549721E+02 0.  0.
        -11    1    4    4    0    0 -0.53610133505E+02 -0.18232213672E+02 -0.21448524167E+03  0.22183412479E+03  0.00000000000E+00 0.  1.
         12    1    4    4    0    0 -0.54975346590E+02  0.41093314911E+02 -0.10047948562E+03  0.12168433052E+03  0.00000000000E+00 0. -1.
        -11    1    3    3    0    0  0.29004561728E+02  0.55290274650E+02 -0.79812773436E+02  0.10133290618E+03  0.00000000000E+00 0.  1.
         11    1    3    3    0    0  0.95570550438E+01 -0.27916417540E+02  0.14643346255E+00  0.29507373860E+02  0.00000000000E+00 0. -1.
         -4    1    1    2    0  502  0.70023863323E+02 -0.50234958349E+02 -0.42686616799E+02  0.96171927966E+02  0.00000000000E+00 0.  1.
<scales pt_clust_5="13000.00000" pt_clust_6="13000.00000" pt_clust_7="13000.00000" pt_clust_8="13000.00000" pt_clust_9="86.17946"></scales>
<clustering>
<clus scale="   80.553">  5  6 -1 -1</clus>
<clus scale="   86.179">  2  9  1 -1</clus>
<clus scale="   92.391">  7  8 -1 -1</clus>
<clus scale="   99.009">  2  5  1 -1</clus>
<clus scale="   86.179">  2  5  1 -1</clus>
</clustering>
</event>
<event>
 9    2  0.4883225E-005  0.1280386E+03  0.7546771E-02  0.1232009E+00
          2   -1    0    0  502    0 -0.00000000000E+00  0.00000000000E+00  0.33978554538E+03  0.33978554538E+03  0.00000000000E+00 0. -1.
         21   -1    0    0  501  502  0.00000000000E+00 -0.00000000000E+00 -0.78606165290E+02  0.78606165290E+02  0.00000000000E+00 0.  1.
         23    2    1    2    0    0 -0.21252854693E+02 -0.98833312838E+02  0.24141945408E+03  0.27568283047E+03  0.86590776921E+02 0.  0.
         24    2    1    2    0    0  0.19342570271E+02  0.75244018017E+02  0.31812950583E+02  0.11614990021E+03  0.80267915278E+02 0.  0.
        -13    1    4    4    0    0 -0.21389528822E+02  0.30742962302E+02 -0.14432141675E+02  0.40136372378E+02  0.00000000000E+00 0.  1.
         14    1    4    4    0    0  0.40732099092E+02  0.44501055715E+02  0.46245092258E+02  0.76013527837E+02  0.00000000000E+00 0. -1.
        -13    1    3    3    0    0 -0.48099858936E+02 -0.85323545895E+02  0.14739458594E+03  0.17697137587E+03  0.00000000000E+00 0.  1.
         13    1    3    3    0    0  0.26847004243E+02 -0.13509766942E+02  0.94024868145E+02  0.98711454601E+02  0.00000000000E+00 0. -1.
          1    1    1    2  501    0  0.19102844225E+01  0.23589294820E+02 -0.12053024572E+02  0.26558979989E+02  0.00000000000E+00 0. -1.
<scales pt_clust_5="13000.00000" pt_clust_6="13000.00000" pt_clust_7="13000.00000" pt_clust_8="13000.00000" pt_clust_9="23.66652"></scales>
<clustering>
<clus scale="   23.667">  2  9  1 -1</clus>
<clus scale="   80.268">  5  6 -1 -1</clus>
<clus scale="   86.591">  7  8 -1 -1</clus>
<clus scale="  123.850">  2  5  1 -1</clus>
<clus scale="   23.667">  2  5  1 -1</clus>
</clustering>
</event>
<event>
 9    2  0.4883225E-005  0.9507000E+02  0.7546771E-02  0.1297352E+00
         -1   -1    0    0    0  501 -0.00000000000E+00  0.00000000000E+00  0.63258825151E+02  0.63258825151E+02  0.00000000000E+00 0.  1.
         21   -1    0    0  501  502  0.00000000000E+00 -0.00000000000E+00 -0.79648971781E+03  0.79648971781E+03  0.00000000000E+00 0.  1.
         24    2    1    2    0    0 -0.30944333126E+02  0.19995514311E+02  0.11407885507E+02  0.88885212214E+02  0.80081638054E+02 0.  0.
         23    2    1    2    0    0 -0.20197488855E+02  0.37623187949E+02 -0.23821292799E+03  0.25861091003E+03  0.91163374753E+02 0.  0.
        -13    1    3    3    0    0 -0.29832359936E+02  0.48443308309E+02 -0.30124261914E+01  0.56971910016E+02  0.00000000000E+00 0.  1.
         14    1    3    3    0    0 -0.11119731894E+01 -0.28447793997E+02  0.14420311699E+02  0.31913302198E+02  0.00000000000E+00 0. -1.
        -11    1    4    4    0    0 -0.44959412217E+02  0.52858337256E+02 -0.14111753104E+03  0.15725619267E+03  0.00000000000E+00 0.  1.
         11    1    4    4    0    0  0.24761923363E+02 -0.15235149307E+02 -0.97095396947E+02  0.10135471736E+03  0.00000000000E+00 0. -1.
         -2    1    1    2    0  502  0.51141821981E+02 -0.57618702261E+02 -0.50642585018E+03  0.51225242072E+03  0.00000000000E+00 0.  1.
<scales pt_clust_5="13000.00000" pt_clust_6="13000.00000" pt_clust_7="13000.00000" pt_clust_8="13000.00000" pt_clust_9="77.04155"></scales>
<clustering>
<clus scale="   77.042">  2  9  1 -1</clus>
<clus scale="   80.082">  5  6 -1 -1</clus>
<clus scale="   84.502">  1  5  2 -1</clus>
<clus scale="   91.163">  7  8 -1 -1</clus>
<clus scale="   77.042">  2  5  1 -1</clus>
</clustering>
</event>
<event>
 9    2  0.4883225E-005  0.1044648E+03  0.7546771E-02  0.1273890E+00
         21   -1    0    0  501  502  0.00000000000E+00  0.00000000000E+00  0.36980552566E+02  0.36980552566E+02  0.00000000000E+00 0. -1.
          2   -1    0    0  502    0 -0.00000000000E+00 -0.00000000000E+00 -0.12596773952E+04  0.12596773952E+04  0.00000000000E+00 0. -1.
         24    2    1    2    0    0  0.46033275602E+02 -0.16243895219E+02 -0.92507959227E+03  0.93033134260E+03  0.85797601340E+02 0.  0.
         23    2    1    2    0    0 -0.41195138513E+02  0.38024334452E+02 -0.31823535316E+03  0.33594731504E+03  0.91891071594E+02 0.  0.
        -13    1    3    3    0    0  0.17353008157E+02  0.27139920249E+02 -0.14570460402E+03  0.14922310075E+03  0.00000000000E+00 0.  1.
         14    1    3    3    0    0  0.28680267445E+02 -0.43383815468E+02 -0.77937498824E+03  0.78110824185E+03  0.00000000000E+00 0. -1.
        -11    1    4    4    0    0 -0.24608567314E+02 -0.28817918854E+02 -0.13420392854E+03  0.13945159901E+03  0.00000000000E+00 0.  1.
         11    1    4    4    0    0 -0.16586571199E+02  0.66842253306E+02 -0.18403142462E+03  0.19649571603E+03  0.00000000000E+00 0. -1.
          1    1    1    2  501    0 -0.48381370893E+01 -0.21780439233E+02  0.20618102811E+02  0.30379290104E+02  0.00000000000E+00 0. -1.
<scales pt_clust_5="13000.00000" pt_clust_6="13000.00000" pt_clust_7="13000.00000" pt_clust_8="13000.00000" pt_clust_9="22.31132"></scales>
<clustering>
<clus scale="   22.311">  1  9  2 -1</clus>
<clus scale="   85.798">  5  6 -1 -1</clus>
<clus scale="   91.891">  7  8 -1 -1</clus>
<clus scale="   99.147">  2  5  1 -1</clus>
<clus scale="   22.311">  1  5  2 -1</clus>
</clustering>
</event>
<event>
 9    2  0.7862478E-005  0.1366646E+03  0.7546771E-02  0.1240949E+00
         21   -1    0    0  501  502  0.00000000000E+00  0.00000000000E+00  0.41105045091E+03  0.41105045091E+03  0.00000000000E+00 0. -1.
          2   -1    0    0  502    0 -0.00000000000E+00 -0.00000000000E+00 -0.10240610138E+04  0.10240610138E+04  0.00000000000E+00 0. -1.
         24    2    1    2    0    0  0.27450609416E+02 -0.14650460294E+02 -0.82693502042E+03  0.83127649253E+03  0.78936094991E+02 0.  0.
         23    2    1    2    0    0  0.44455870635E+02 -0.63861745076E+02 -0.16955162084E+03  0.20585430555E+03  0.87026410159E+02 0.  0.
        -13    1    3    3    0    0  0.46130285675E+01 -0.20001328577E+02 -0.50843594043E+02  0.54830686961E+02  0.00000000000E+00 0.  1.
         14    1    3    3    0    0  0.22837580849E+02  0.53508682829E+01 -0.77609142638E+03  0.77644580557E+03  0.00000000000E+00 0. -1.
        -11    1    4    4    0    0  0.71035677436E+02 -0.46155270060E+02 -0.12665732336E+03  0.15237602825E+03  0.00000000000E+00 0.  1.
         11    1    4    4    0    0 -0.26579806800E+02 -0.17706475016E+02 -0.42894297481E+02  0.53478277304E+02  0.00000000000E+00 0. -1.
          1    1    1    2  501    0 -0.71906480052E+02  0.78512205369E+02  0.38347607842E+03  0.39798066659E+03  0.00000000000E+00 0. -1.
<scales pt_clust_5="13000.00000" pt_clust_6="13000.00000" pt_clust_7="13000.00000" pt_clust_8="13000.00000" pt_clust_9="105.37369"></scales>
<clustering>
<clus scale="   78.936">  5  6 -1 -1</clus>
<clus scale="   84.847">  2  5  1 -1</clus>
<clus scale="   87.026">  7  8 -1 -1</clus>
<clus scale="  105.374">  1  9  2 -1</clus>
<clus scale="  105.374">  1  5  2 -1</clus>
</clustering>
</event>
<event>
 9    2  0.4883225E-005  0.1107855E+03  0.7546771E-02  0.1262955E+00
         21   -1    0    0  501  502  0.00000000000E+00  0.00000000000E+00  0.16259033002E+02  0.16259033002E+02  0.00000000000E+00 0.  1.
          2   -1    0    0  502    0 -0.00000000000E+00 -0.00000000000E+00 -0.15108529732E+04  0.15108529732E+04  0.00000000000E+00 0. -1.
         24    2    1    2    0    0 -0.17920326673E+02  0.49790556754E+02 -0.81390372112E+03  0.81954647384E+03  0.80105667063E+02 0.  0.
         23    2    1    2    0    0  0.50424628823E+01 -0.10317631311E+03 -0.51879108291E+03  0.53660586270E+03  0.90171426502E+02 0.  0.
        -13    1    3    3    0    0 -0.10936424631E+01  0.32585743322E+02 -0.98855573264E+02  0.10409347284E+03  0.00000000000E+00 0.  1.
         14    1    3    3    0    0 -0.16826684210E+02  0.17204813432E+02 -0.71504814785E+03  0.71545300101E+03  0.00000000000E+00 0. -1.
        -11    1    4    4    0    0 -0.30945864651E+02 -0.42356478643E+01 -0.14107078344E+03  0.14448720771E+03  0.00000000000E+00 0. -1.
         11    1    4    4    0    0  0.35988327534E+02 -0.98940665243E+02 -0.37772029948E+03  0.39211865499E+03  0.00000000000E+00 0.  1.
          1    1    1    2  501    0  0.12877863791E+02  0.53385756354E+02 -0.16189913622E+03  0.17095966970E+03  0.00000000000E+00 0. -1.
<scales pt_clust_5="13000.00000" pt_clust_6="13000.00000" pt_clust_7="13000.00000" pt_clust_8="13000.00000" pt_clust_9="54.91701"></scales>
<clustering>
<clus scale="   54.917">  1  9  2 -1</clus>
<clus scale="   80.106">  5  6 -1 -1</clus>
<clus scale="   90.171">  7  8 -1 -1</clus>
<clus scale="  102.759">  2  5  1 -1</clus>
<clus scale="   54.917">  1  5  2 -1</clus>
</clustering>
</event>
<event>
 9    2  0.4883225E-005  0.1530548E+03  0.7546771E-02  0.1198354E+00
         21   -1    0    0  501  502  0.00000000000E+00  0.00000000000E+00  0.12594928266E+03  0.12594928266E+03  0.00000000000E+00 0. -1.
          2   -1    0    0  502    0 -0.00000000000E+00 -0.00000000000E+00 -0.79359427212E+03  0.79359427212E+03  0.00000000000E+00 0. -1.
         24    2    1    2    0    0  0.83235191787E+02 -0.86690740805E+02 -0.44555216421E+03  0.46836575208E+03  0.80039771333E+02 0.  0.
         23    2    1    2    0    0  0.14281165403E+02  0.17967700320E+03 -0.24231883789E+03  0.31492444861E+03  0.89281644097E+02 0.  0.
        -11    1    3    3    0    0  0.31879054752E+02  0.10432697876E+02 -0.12902229671E+03  0.13331117119E+03  0.00000000000E+00 0.  1.
         12    1    3    3    0    0  0.51356137035E+02 -0.97123438681E+02 -0.31652986750E+03  0.33505458088E+03  0.00000000000E+00 0. -1.
        -11    1    4    4    0    0  0.42257239868E+02  0.39419290808E+02 -0.61680473516E+02  0.84522397163E+02  0.00000000000E+00 0.  1.
         11    1    4    4    0    0 -0.27976074465E+02  0.14025771239E+03 -0.18063836437E+03  0.23040205145E+03  0.00000000000E+00 0. -1.
          1    1    1    2  501    0 -0.97516357190E+02 -0.92986262398E+02  0.20226012635E+02  0.13625335409E+03  0.00000000000E+00 0. -1.
<scales pt_clust_5="13000.00000" pt_clust_6="13000.00000" pt_clust_7="13000.00000" pt_clust_8="13000.00000" pt_clust_9="134.74378"></scales>
<clustering>
<clus scale="   80.040">  5  6 -1 -1</clus>
<clus scale="   89.282">  7  8 -1 -1</clus>
<clus scale="  134.744">  1  9  2 -1</clus>
<clus scale="  147.854">  2  5  1 -1</clus>
<clus scale="  134.744">  1  5  2 -1</clus>
</clustering>
</event>
<event>
 9    2  0.4883225E-005  0.1610896E+03  0.7546771E-02  0.1202329E+00
         21   -1    0    0  501  502  0.00000000000E+00  0.00000000000E+00  0.29752061003E+02  0.29752061003E+02  0.00000000000E+00 0. -1.
          2   -1    0    0  502    0 -0.00000000000E+00 -0.00000000000E+00 -0.22065374504E+04  0.22065374504E+04  0.00000000000E+00 0. -1.
         24    2    1    2    0    0 -0.67328814833E+02 -0.52332974452E+02 -0.11382203240E+04  0.11441497916E+04  0.79128566808E+02 0.  0.
         23    2    1    2    0    0 -0.10486494518E+03  0.90932869271E+01 -0.31325214548E+03  0.34541407183E+03  0.10052178758E+03 0.  0.
        -13    1    3    3    0    0 -0.71926537692E+01 -0.20800662897E+02 -0.62018879530E+02  0.65808382926E+02  0.00000000000E+00 0.  1.
         14    1    3    3    0    0 -0.60136161063E+02 -0.31532311555E+02 -0.10762014444E+04  0.10783414086E+04  0.00000000000E+00 0. -1.
        -11    1    4    4    0    0 -0.72083729465E+02  0.51049455486E+02 -0.23224958065E+03  0.24847933248E+03  0.00000000000E+00 0.  1.
         11    1    4    4    0    0 -0.32781215719E+02 -0.41956168559E+02 -0.81002564826E+02  0.96934739349E+02  0.00000000000E+00 0. -1.
          1    1    1    2  501    0  0.17219376002E+03  0.43239687525E+02 -0.72531291996E+03  0.74672564803E+03  0.00000000000E+00 0. -1.
<scales pt_clust_5="13000.00000" pt_clust_6="13000.00000" pt_clust_7="13000.00000" pt_clust_8="13000.00000" pt_clust_9="125.87793"></scales>
<clustering>
<clus scale="   79.129">  5  6 -1 -1</clus>
<clus scale="  100.522">  7  8 -1 -1</clus>
<clus scale="  116.332">  2  5  1 -1</clus>
<clus scale="  125.878">  1  9  2 -1</clus>
<clus scale="  125.878">  1  5  2 -1</clus>
</clustering>
</event>
<event>
 9    2  0.4883225E-005  0.1839120E+03  0.7546771E-02  0.1165402E+00
         21   -1    0    0  501  502  0.00000000000E+00  0.00000000000E+00  0.37223369985E+02  0.37223369985E+02  0.00000000000E+00 0.  1.
          2   -1    0    0  502    0 -0.00000000000E+00 -0.00000000000E+00 -0.18734003045E+04  0.18734003045E+04  0.00000000000E+00 0. -1.
         23    2    1    2    0    0  0.13602551131E+03  0.17370691225E+02 -0.90809289418E+03  0.92308586483E+03  0.93006068363E+02 0.  0.
         24    2    1    2    0    0 -0.21371018256E+03  0.44231628063E+02 -0.72579453605E+03  0.76225843325E+03  0.81435443478E+02 0.  0.
        -13    1    4    4    0    0 -0.20294258773E+03  0.61949336132E+02 -0.65844623731E+03  0.69179105342E+03  0.00000000000E+00 0.  1.
         14    1    4    4    0    0 -0.10767594829E+02 -0.17717708069E+02 -0.67348298731E+02  0.70467379826E+02  0.00000000000E+00 0. -1.
        -11    1    3    3    0    0  0.20698918888E+02  0.42594921396E+02 -0.23622183299E+03  0.24092224255E+03  0.00000000000E+00 0. -1.
         11    1    3    3    0    0  0.11532659242E+03 -0.25224230170E+02 -0.67187106119E+03  0.68216362229E+03  0.00000000000E+00 0.  1.
          1    1    1    2  501    0  0.77684671244E+02 -0.61602319289E+02 -0.20228950429E+03  0.22527937641E+03  0.00000000000E+00 0. -1.
<scales pt_clust_5="13000.00000" pt_clust_6="13000.00000" pt_clust_7="13000.00000" pt_clust_8="13000.00000" pt_clust_9="99.14512"></scales>
<clustering>
<clus scale="   81.435">  5  6 -1 -1</clus>
<clus scale="   93.006">  7  8 -1 -1</clus>
<clus scale="   99.145">  1  9  2 -1</clus>
<clus scale="  178.340">  1  5  2 -1</clus>
<clus scale="   99.145">  1  5  2 -1</clus>
</clustering>
</event>
<event>
 9    2  0.4883225E-005  0.9170376E+02  0.7546771E-02  0.1299755E+00
          2   -1    0    0  502    0 -0.00000000000E+00  0.00000000000E+00  0.18503648641E+03  0.18503648641E+03  0.00000000000E+00 0. -1.
         21   -1    0    0  501  502  0.00000000000E+00 -0.00000000000E+00 -0.12335101060E+03  0.12335101060E+03  0.00000000000E+00 0. -1.
         24    2    1    2    0    0  0.56387936861E+02 -0.27244929063E+02  0.58583871265E+02  0.11744872306E+03  0.80251149488E+02 0.  0.
         23    2    1    2    0    0  0.16733326835E+02  0.22903900944E+02 -0.52913590331E+02  0.98725619860E+02  0.78372872026E+02 0.  0.
        -11    1    3    3    0    0 -0.12418888877E+02 -0.27865155208E+02  0.30469608040E+02  0.43117197147E+02  0.00000000000E+00 0.  1.
         12    1    3    3    0    0  0.68806825738E+02  0.62022614497E+00  0.28114263225E+02  0.74331525918E+02  0.00000000000E+00 0. -1.
        -11    1    4    4    0    0  0.13521046210E+02 -0.27528786114E+02 -0.31114758191E+02  0.43689597535E+02  0.00000000000E+00 0.  1.
         11    1    4    4    0    0  0.32122806253E+01  0.50432687058E+02 -0.21798832140E+02  0.55036022325E+02  0.00000000000E+00 0. -1.
          1    1    1    2  501    0 -0.73121263696E+02  0.43410281190E+01  0.56015194869E+02  0.92213154083E+02  0.00000000000E+00 0. -1.
<scales pt_clust_5="13000.00000" pt_clust_6="13000.00000" pt_clust_7="13000.00000" pt_clust_8="13000.00000" pt_clust_9="73.25005"></scales>
<clustering>
<clus scale="   73.250">  2  9  1 -1</clus>
<clus scale="   78.373">  7  8 -1 -1</clus>
<clus scale="   80.251">  5  6 -1 -1</clus>
<clus scale="   90.065">  2  7  1 -1</clus>
<clus scale="   73.250">  2  5  1 -1</clus>
</clustering>
</event>
<event>
 9    2  0.4883225E-005  0.3216105E+03  0.7546771E-02  0.1075278E+00
         21   -1    0    0  501  502  0.00000000000E+00  0.00000000000E+00  0.11055975125E+04  0.11055975125E+04  0.00000000000E+00 0. -1.
          4   -1    0    0  502    0 -0.00000000000E+00 -0.00000000000E+00 -0.22034454138E+03  0.22034454138E+03  0.00000000000E+00 0. -1.
         24    2    1    2    0    0  0.29992169382E+03 -0.10383873575E+03  0.34614959769E+02  0.32903623567E+03  0.79568482906E+02 0.  0.
         23    2    1    2    0    0 -0.27803119372E+03  0.80767329315E-01  0.84093342970E+03  0.89042066009E+03  0.91534515464E+02 0.  0.
        -11    1    3    3    0    0  0.80350534974E+02 -0.63420854429E+02  0.25978160939E+02  0.10560908149E+03  0.00000000000E+00 0.  1.
         12    1    3    3    0    0  0.21957115885E+03 -0.40417881323E+02  0.86367988309E+01  0.22342715418E+03  0.00000000000E+00 0. -1.
        -13    1    4    4    0    0 -0.74513175067E+02  0.52716652437E+01  0.12050639481E+03  0.14178079878E+03  0.00000000000E+00 0.  1.
         13    1    4    4    0    0 -0.20351801865E+03 -0.51908979144E+01  0.72042703490E+03  0.74863986131E+03  0.00000000000E+00 0. -1.
          3    1    1    2  501    0 -0.21890500107E+02  0.10375796842E+03  0.97045816907E+01  0.10648515818E+03  0.00000000000E+00 0. -1.
<scales pt_clust_5="13000.00000" pt_clust_6="13000.00000" pt_clust_7="13000.00000" pt_clust_8="13000.00000" pt_clust_9="106.04207"></scales>
<clustering>
<clus scale="   79.568">  5  6 -1 -1</clus>
<clus scale="   91.535">  7  8 -1 -1</clus>
<clus scale="  106.042">  1  9  2 -1</clus>
<clus scale="  318.411">  2  5  1 -1</clus>
<clus scale="  106.042">  1  5  2 -1</clus>
</clustering>
</event>
<event>
 9    2  0.4883225E-005  0.1436093E+03  0.7546771E-02  0.1210988E+00
         21   -1    0    0  501  502  0.00000000000E+00  0.00000000000E+00  0.91081057930E+02  0.91081057930E+02  0.00000000000E+00 0.  1.
          2   -1    0    0  502    0 -0.00000000000E+00 -0.00000000000E+00 -0.36406605525E+03  0.36406605525E+03  0.00000000000E+00 0. -1.
         24    2    1    2    0    0  0.70432930820E+01 -0.11687345411E+03 -0.25544323179E+03  0.29174451852E+03  0.78451304390E+02 0.  0.
         23    2    1    2    0    0 -0.20340685502E+02  0.90442338393E+02 -0.11230946599E+01  0.12956478628E+03  0.90510841573E+02 0.  0.
        -11    1    3    3    0    0  0.20206990054E+02 -0.34375518780E+02 -0.26094206107E+02  0.47654027435E+02  0.00000000000E+00 0.  1.
         12    1    3    3    0    0 -0.13163696972E+02 -0.82497935331E+02 -0.22934902569E+03  0.24409049108E+03  0.00000000000E+00 0. -1.
        -13    1    4    4    0    0  0.21472909386E+02 -0.20910702197E+01 -0.16105922165E+02  0.26923208221E+02  0.00000000000E+00 0. -1.
         13    1    4    4    0    0 -0.41813594887E+02  0.92533408612E+02  0.14982827505E+02  0.10264157806E+03  0.00000000000E+00 0.  1.
          1    1    1    2  501    0  0.13297392420E+02  0.26431115718E+02 -0.16418670868E+02  0.33837808386E+02  0.00000000000E+00 0. -1.
<scales pt_clust_5="13000.00000" pt_clust_6="13000.00000" pt_clust_7="13000.00000" pt_clust_8="13000.00000" pt_clust_9="29.58757"></scales>
<clustering>
<clus scale="   29.588">  1  9  2 -1</clus>
<clus scale="   78.451">  5  6 -1 -1</clus>
<clus scale="   90.511">  7  8 -1 -1</clus>
<clus scale="  136.331">  2  5  1 -1</clus>
<clus scale="   29.588">  1  5  2 -1</clus>
</clustering>
</event>
<event>
 9    2  0.4883225E-005  0.1906873E+03  0.7546771E-02  0.1160589E+00
          2   -1    0    0  502    0 -0.00000000000E+00  0.00000000000E+00  0.97284625683E+03  0.97284625683E+03  0.00000000000E+00 0. -1.
         21   -1    0    0  501  502  0.00000000000E+00 -0.00000000000E+00 -0.31939117737E+03  0.31939117737E+03  0.00000000000E+00 0.  1.
         24    2    1    2    0    0 -0.11324212324E+03  0.11150800086E+03  0.88070929985E+03  0.89857145315E+03  0.80771113980E+02 0.  0.
         23    2    1    2    0    0  0.13558997543E+03 -0.10224597414E+03 -0.38061854657E+02  0.20293328095E+03  0.10437591232E+03 0.  0.
        -11    1    3    3    0    0 -0.99785579518E+02  0.92945603906E+02  0.53511322785E+03  0.55221573120E+03  0.00000000000E+00 0.  1.
         12    1    3    3    0    0 -0.13456543719E+02  0.18562396956E+02  0.34559607200E+03  0.34635572195E+03  0.00000000000E+00 0. -1.
        -13    1    4    4    0    0  0.56965545640E+02 -0.42419441423E+02 -0.69382626468E+02  0.99289633176E+02  0.00000000000E+00 0.  1.
         13    1    4    4    0    0  0.78624429793E+02 -0.59826532719E+02  0.31320771811E+02  0.10364364778E+03  0.00000000000E+00 0. -1.
          1    1    1    2  501    0 -0.22347852196E+02 -0.92620267204E+01 -0.18919236573E+03  0.19073270010E+03  0.00000000000E+00 0. -1.
<scales pt_clust_5="13000.00000" pt_clust_6="13000.00000" pt_clust_7="13000.00000" pt_clust_8="13000.00000" pt_clust_9="24.19115"></scales>
<clustering>
<clus scale="   24.191">  2  9  1 -1</clus>
<clus scale="   80.771">  5  6 -1 -1</clus>
<clus scale="  104.376">  7  8 -1 -1</clus>
<clus scale="  178.861">  1  5  2 -1</clus>
<clus scale="   24.191">  2  5  1 -1</clus>
</clustering>
</event>
<event>
 9    2  0.4883225E-005  0.1282311E+03  0.7546771E-02  0.1241235E+00
          2   -1    0    0  502    0 -0.00000000000E+00  0.00000000000E+00  0.11768848491E+04  0.11768848491E+04  0.00000000000E+00 0. -1.
         21   -1    0    0  501  502  0.00000000000E+00 -0.00000000000E+00 -0.53630882366E+02  0.53630882366E+02  0.00000000000E+00 0. -1.
         24    2    1    2    0    0 -0.39931188410E+02 -0.52016846233E+02  0.51126963480E+03  0.52136834865E+03  0.78281948153E+02 0.  0.
         23    2    1    2    0    0 -0.25900401254E+02 -0.78081202591E+02  0.55807268181E+02  0.13417588200E+03  0.90117762649E+02 0.  0.
        -13    1    3    3    0    0  0.23633625876E+02 -0.19150979740E+02  0.14023531630E+03  0.14349652342E+03  0.00000000000E+00 0.  1.
         14    1    3    3    0    0 -0.63564814286E+02 -0.32865866494E+02  0.37103431850E+03  0.37787182523E+03  0.00000000000E+00 0. -1.
        -11    1    4    4    0    0 -0.32229516533E+01  0.20340932679E+02  0.53782330075E+01  0.21285355291E+02  0.00000000000E+00 0.  1.
         11    1    4    4    0    0 -0.22677449601E+02 -0.98422135270E+02  0.50429035174E+02  0.11289052671E+03  0.00000000000E+00 0. -1.
          1    1    1    2  501    0  0.65831589664E+02  0.13009804882E+03  0.55617706373E+03  0.57497150079E+03  0.00000000000E+00 0. -1.
<scales pt_clust_5="13000.00000" pt_clust_6="13000.00000" pt_clust_7="13000.00000" pt_clust_8="13000.00000" pt_clust_9="91.22509"></scales>
<clustering>
<clus scale="   78.282">  5  6 -1 -1</clus>
<clus scale="   90.118">  7  8 -1 -1</clus>
<clus scale="  102.119">  1  5  2 -1</clus>
<clus scale="   91.225">  2  9  1 -1</clus>
<clus scale="   91.225">  2  5  1 -1</clus>
</clustering>
</event>
<event>
 9    2  0.4883225E-005  0.1076696E+03  0.7546771E-02  0.1269687E+00
          2   -1    0    0  502    0 -0.00000000000E+00  0.00000000000E+00  0.11340840189E+03  0.11340840189E+03  0.00000000000E+00 0. -1.
         21   -1    0    0  501  502  0.00000000000E+00 -0.00000000000E+00 -0.17922728593E+03  0.17922728593E+03  0.00000000000E+00 0. -1.
         23    2    1    2    0    0 -0.27059526002E+01  0.83599245521E+02  0.10801949531E+01  0.12406534558E+03  0.91623616609E+02 0.  0.
         24    2    1    2    0    0 -0.26783359620E+02 -0.28466996461E+02 -0.23100277666E+02  0.92232151159E+02  0.80283426927E+02 0.  0.
        -11    1    4    4    0    0 -0.34747248066E+02 -0.46583491827E+02  0.44786554762E+01  0.58287660048E+02  0.00000000000E+00 0.  1.
         12    1    4    4    0    0  0.79638884458E+01  0.18116495366E+02 -0.27578933143E+02  0.33944491111E+02  0.00000000000E+00 0. -1.
        -11    1    3    3    0    0 -0.33969411467E+02  0.16956881988E+02 -0.25574651254E+02  0.45776845118E+02  0.00000000000E+00 0.  1.
         11    1    3    3    0    0  0.31263458867E+02  0.66642363534E+02  0.26654846207E+02  0.78288500458E+02  0.00000000000E+00 0. -1.
          1    1    1    2  501    0  0.29489312220E+02 -0.55132249061E+02 -0.43798801326E+02  0.76338191093E+02  0.00000000000E+00 0. -1.
<scales pt_clust_5="13000.00000" pt_clust_6="13000.00000" pt_clust_7="13000.00000" pt_clust_8="13000.00000" pt_clust_9="62.52347"></scales>
<clustering>
<clus scale="   62.523">  2  9  1 -1</clus>
<clus scale="   80.283">  5  6 -1 -1</clus>
<clus scale="   91.624">  7  8 -1 -1</clus>
<clus scale="   98.200">  2  5  1 -1</clus>
<clus scale="   62.523">  2  5  1 -1</clus>
</clustering>
</event>
<event>
 9    2  0.4883225E-005  0.9293075E+02  0.7546771E-02  0.1301253E+00
          2   -1    0    0  502    0 -0.00000000000E+00  0.00000000000E+00  0.29477707585E+03  0.29477707585E+03  0.00000000000E+00 0. -1.
         21   -1    0    0  501  502  0.00000000000E+00 -0.00000000000E+00 -0.59092124844E+02  0.59092124844E+02  0.00000000000E+00 0. -1.
         23    2    1    2    0    0 -0.20014021336E+02  0.24743791379E+01  0.21538529549E+03  0.23465480891E+03  0.90914081580E+02 0.  0.
         24    2    1    2    0    0  0.14991965040E+02  0.25206567793E+02  0.25283499715E+02  0.90643522425E+02  0.81956468470E+02 0.  0.
        -13    1    4    4    0    0  0.40313506160E+02  0.17057180595E+02  0.40807294700E+02  0.59844477519E+02  0.00000000000E+00 0.  1.
         14    1    4    4    0    0 -0.25321541120E+02  0.81493871977E+01 -0.15523794985E+02  0.30799044906E+02  0.00000000000E+00 0. -1.
        -11    1    3    3    0    0 -0.56143615042E+02  0.60519440411E+01  0.12101870459E+03  0.13354496770E+03  0.00000000000E+00 0. -1.
         11    1    3    3    0    0  0.36129593707E+02 -0.35775649032E+01  0.94366590905E+02  0.10110984122E+03  0.00000000000E+00 0.  1.
          1    1    1    2  501    0  0.50220562956E+01 -0.27680946931E+02 -0.49838442063E+01  0.28570869351E+02  0.00000000000E+00 0. -1.
<scales pt_clust_5="13000.00000" pt_clust_6="13000.00000" pt_clust_7="13000.00000" pt_clust_8="13000.00000" pt_clust_9="28.13283"></scales>
<clustering>
<clus scale="   28.133">  2  9  1 -1</clus>
<clus scale="   81.956">  5  6 -1 -1</clus>
<clus scale="   84.188">  2  5  1 -1</clus>
<clus scale="   90.914">  7  8 -1 -1</clus>
<clus scale="   28.133">  2  5  1 -1</clus>
</clustering>
</event>
<event>
 9    2  0.4883225E-005  0.1196673E+03  0.7546771E-02  0.1247100E+00
         21   -1    0    0  501  502  0.00000000000E+00  0.00000000000E+00  0.22381419701E+03  0.22381419701E+03  0.00000000000E+00 0.  1.
          2   -1    0    0  502    0 -0.00000000000E+00 -0.00000000000E+00 -0.11162925004E+03  0.11162925004E+03  0.00000000000E+00 0. -1.
         24    2    1    2    0    0 -0.73054795035E+02 -0.43125821008E+01 -0.28118884473E+02  0.11284390654E+03  0.81163256077E+02 0.  0.
         23    2    1    2    0    0  0.85578028612E+02  0.39196430706E+02  0.12799460603E+03  0.18354533071E+03  0.91903808910E+02 0.  0.
        -11    1    3    3    0    0 -0.40701565497E+02  0.36303710644E+02 -0.27112797957E+02  0.60907147803E+02  0.00000000000E+00 0.  1.
         12    1    3    3    0    0 -0.32353229538E+02 -0.40616292745E+02 -0.10060865154E+01  0.51936758736E+02  0.00000000000E+00 0. -1.
        -11    1    4    4    0    0 -0.20506421828E+01  0.43554372862E+02  0.47487794468E+02  0.64469210886E+02  0.00000000000E+00 0. -1.
         11    1    4    4    0    0  0.87628670795E+02 -0.43579421558E+01  0.80506811566E+02  0.11907611983E+03  0.00000000000E+00 0.  1.
          1    1    1    2  501    0 -0.12523233578E+02 -0.34883848605E+02  0.12309225403E+02  0.39054209796E+02  0.00000000000E+00 0. -1.
<scales pt_clust_5="13000.00000" pt_clust_6="13000.00000" pt_clust_7="13000.00000" pt_clust_8="13000.00000" pt_clust_9="37.06367"></scales>
<clustering>
<clus scale="   37.064">  1  9  2 -1</clus>
<clus scale="   81.163">  5  6 -1 -1</clus>
<clus scale="   91.904">  7  8 -1 -1</clus>
<clus scale="  111.631">  2  5  1 -1</clus>
<clus scale="   37.064">  1  5  2 -1</clus>
</clustering>
</event>
<event>
 9    2  0.4883225E-005  0.1039755E+03  0.7546771E-02  0.1280697E+00
         21   -1    0    0  501  502  0.00000000000E+00  0.00000000000E+00  0.41669384891E+02  0.41669384891E+02  0.00000000000E+00 0.  1.
          2   -1    0    0  502    0 -0.00000000000E+00 -0.00000000000E+00 -0.50716140309E+03  0.50716140309E+03  0.00000000000E+00 0. -1.
         23    2    1    2    0    0  0.38792402245E+01  0.55140060765E+02 -0.33653845930E+03  0.35377393429E+03  0.94033968273E+02 0.  0.
         24    2    1    2    0    0 -0.26225070624E+02 -0.24219422326E+02 -0.13219772493E+03  0.15676917119E+03  0.76328237326E+02 0.  0.
        -13    1    4    4    0    0 -0.32717035855E+02  0.62894016225E+01 -0.16959780009E+02  0.37384423840E+02  0.00000000000E+00 0.  1.
         14    1    4    4    0    0  0.64919652310E+01 -0.30508823948E+02 -0.11523794492E+03  0.11938474735E+03  0.00000000000E+00 0. -1.
        -11    1    3    3    0    0 -0.32816676014E-01 -0.26770800167E+02 -0.71951241873E+02  0.76770163642E+02  0.00000000000E+00 0.  1.
         11    1    3    3    0    0  0.39120569005E+01  0.81910860931E+02 -0.26458721743E+03  0.27700377065E+03  0.00000000000E+00 0. -1.
          1    1    1    2  501    0  0.22345830399E+02 -0.30920638439E+02  0.32441660322E+01  0.38287682496E+02  0.00000000000E+00 0. -1.
<scales pt_clust_5="13000.00000" pt_clust_6="13000.00000" pt_clust_7="13000.00000" pt_clust_8="13000.00000" pt_clust_9="38.14999"></scales>
<clustering>
<clus scale="   38.150">  1  9  2 -1</clus>
<clus scale="   76.328">  5  6 -1 -1</clus>
<clus scale="   88.287">  1  5  2 -1</clus>
<clus scale="   94.034">  7  8 -1 -1</clus>
<clus scale="   38.150">  1  5  2 -1</clus>
</clustering>
</event>
<event>
 9    2  0.4883225E-005  0.1018076E+03  0.7546771E-02  0.1278189E+00
         21   -1    0    0  501  502  0.00000000000E+00  0.00000000000E+00  0.54822193009E+03  0.54822193009E+03  0.00000000000E+00 0.  1.
         -1   -1    0    0    0  501 -0.00000000000E+00 -0.00000000000E+00 -0.75969641575E+02  0.75969641575E+02  0.00000000000E+00 0.  1.
         24    2    1    2    0    0 -0.55839135771E+02 -0.90884564504E+01 -0.22003451578E+02  0.10087757313E+03  0.80569992888E+02 0.  0.
         23    2    1    2    0    0  0.63071306448E+02 -0.35068549753E+02  0.23129307806E+03  0.25657160013E+03  0.84407968537E+02 0.  0.
        -11    1    3    3    0    0 -0.59779722793E+02 -0.52327462226E+01 -0.46406936344E+02  0.75859084038E+02  0.00000000000E+00 0.  1.
         12    1    3    3    0    0  0.39405870218E+01 -0.38557102277E+01  0.24403484767E+02  0.25018489087E+02  0.00000000000E+00 0. -1.
        -11    1    4    4    0    0  0.14111597016E+02 -0.30692211696E+02  0.19198078548E+02  0.38855054357E+02  0.00000000000E+00 0.  1.
         11    1    4    4    0    0  0.48959709432E+02 -0.43763380570E+01  0.21209499952E+03  0.21771654577E+03  0.00000000000E+00 0. -1.
         -2    1    1    2    0  502 -0.72321706770E+01  0.44157006203E+02  0.26296266203E+03  0.26674239842E+03  0.00000000000E+00 0.  1.
<scales pt_clust_5="13000.00000" pt_clust_6="13000.00000" pt_clust_7="13000.00000" pt_clust_8="13000.00000" pt_clust_9="44.74534"></scales>
<clustering>
<clus scale="   44.745">  1  9  2 -1</clus>
<clus scale="   80.570">  5  6 -1 -1</clus>
<clus scale="   84.408">  7  8 -1 -1</clus>
<clus scale="   98.649">  2  5  1 -1</clus>
<clus scale="   44.745">  1  5  2 -1</clus>
</clustering>
</event>
<event>
 9    2  0.4883225E-005  0.9161420E+02  0.7546771E-02  0.1304745E+00
         21   -1    0    0  501  502  0.00000000000E+00  0.00000000000E+00  0.30732067358E+02  0.30732067358E+02  0.00000000000E+00 0. -1.
          2   -1    0    0  502    0 -0.00000000000E+00 -0.00000000000E+00 -0.47811289802E+03  0.47811289802E+03  0.00000000000E+00 0. -1.
         24    2    1    2    0    0  0.39609138741E+01  0.32135610481E+02 -0.20023402909E+03  0.21823419391E+03  0.80523975854E+02 0.  0.
         23    2    1    2    0    0  0.14673493391E+02  0.11948896271E+02 -0.99670046323E+02  0.13556213971E+03  0.89916005577E+02 0.  0.
        -11    1    3    3    0    0  0.20623366271E+02  0.51810807676E+02 -0.16766396938E+03  0.17669433962E+03  0.00000000000E+00 0.  1.
         12    1    3    3    0    0 -0.16662452396E+02 -0.19675197195E+02 -0.32570059716E+02  0.41539854290E+02  0.00000000000E+00 0. -1.
        -13    1    4    4    0    0  0.24427848736E+02 -0.24098023718E+02 -0.90959127332E+02  0.97216240341E+02  0.00000000000E+00 0.  1.
         13    1    4    4    0    0 -0.97543553448E+01  0.36046919989E+02 -0.87109189905E+01  0.38345899371E+02  0.00000000000E+00 0. -1.
          1    1    1    2  501    0 -0.18634407265E+02 -0.44084506751E+02 -0.14747675525E+03  0.15504863176E+03  0.00000000000E+00 0. -1.
<scales pt_clust_5="13000.00000" pt_clust_6="13000.00000" pt_clust_7="13000.00000" pt_clust_8="13000.00000" pt_clust_9="47.86112"></scales>
<clustering>
<clus scale="   47.861">  1  9  2 -1</clus>
<clus scale="   80.524">  5  6 -1 -1</clus>
<clus scale="   82.416">  2  5  1 -1</clus>
<clus scale="   89.916">  7  8 -1 -1</clus>
<clus scale="   47.861">  1  5  2 -1</clus>
</clustering>
</event>
<event>
 9    2  0.4883225E-005  0.1063701E+03  0.7546771E-02  0.1271580E+00
         -1   -1    0    0    0  501 -0.00000000000E+00  0.00000000000E+00  0.25436658061E+03  0.25436658061E+03  0.00000000000E+00 0.  1.
         21   -1    0    0  501  502  0.00000000000E+00 -0.00000000000E+00 -0.20374609418E+03  0.20374609418E+03  0.00000000000E+00 0. -1.
         24    2    1    2    0    0 -0.52787313625E+02  0.19376524753E+02  0.21939768369E+03  0.24050008939E+03  0.80888807621E+02 0.  0.
         23    2    1    2    0    0  0.33771114966E+02 -0.43909123969E+02 -0.13390323788E+03  0.17092578557E+03  0.90647932588E+02 0.  0.
        -13    1    3    3    0    0 -0.25677671211E+02  0.24938911356E+02  0.20717871023E+03  0.21024821062E+03  0.00000000000E+00 0.  1.
         14    1    3    3    0    0 -0.27109642414E+02 -0.55623866030E+01  0.12218973458E+02  0.30251878766E+02  0.00000000000E+00 0. -1.
        -13    1    4    4    0    0  0.36261235047E+02 -0.64878464112E+02 -0.12956321535E+03  0.14936773093E+03  0.00000000000E+00 0. -1.
         13    1    4    4    0    0 -0.24901200810E+01  0.20969340142E+02 -0.43400225343E+01  0.21558054634E+02  0.00000000000E+00 0.  1.
         -2    1    1    2    0  502  0.19016198659E+02  0.24532599216E+02 -0.34873959373E+02  0.46686799827E+02  0.00000000000E+00 0.  1.
<scales pt_clust_5="13000.00000" pt_clust_6="13000.00000" pt_clust_7="13000.00000" pt_clust_8="13000.00000" pt_clust_9="31.03972"></scales>
<clustering>
<clus scale="   31.040">  2  9  1 -1</clus>
<clus scale="   80.889">  5  6 -1 -1</clus>
<clus scale="   90.648">  7  8 -1 -1</clus>
<clus scale="   98.186">  1  5  2 -1</clus>
<clus scale="   31.040">  2  5  1 -1</clus>
</clustering>
</event>
<event>
 9    2  0.4883225E-005  0.1460469E+03  0.7546771E-02  0.1232213E+00
         21   -1    0    0  501  502  0.00000000000E+00  0.00000000000E+00  0.70248149807E+02  0.70248149807E+02  0.00000000000E+00 0. -1.
          2   -1    0    0  502    0 -0.00000000000E+00 -0.00000000000E+00 -0.54128122215E+03  0.54128122215E+03  0.00000000000E+00 0. -1.
         24    2    1    2    0    0  0.23681551097E+02  0.10643510897E+02 -0.24642006162E+02  0.86680270749E+02  0.78943908459E+02 0.  0.
         23    2    1    2    0    0 -0.66581126451E+02  0.93406758534E+02 -0.33675570436E+03  0.36772894115E+03  0.93071482229E+02 0.  0.
        -13    1    3    3    0    0  0.21440429284E+02 -0.20719887478E+02 -0.41423974131E+02  0.51038724297E+02  0.00000000000E+00 0.  1.
         14    1    3    3    0    0  0.22411218123E+01  0.31363398375E+02  0.16781967968E+02  0.35641546452E+02  0.00000000000E+00 0. -1.
        -11    1    4    4    0    0 -0.22278921067E+02  0.56071316684E+02 -0.60426549522E+02  0.85391514600E+02  0.00000000000E+00 0.  1.
         11    1    4    4    0    0 -0.44302205384E+02  0.37335441851E+02 -0.27632915484E+03  0.28233742655E+03  0.00000000000E+00 0. -1.
          1    1    1    2  501    0  0.42899575355E+02 -0.10405026943E+03 -0.10963536183E+03  0.15712016006E+03  0.00000000000E+00 0. -1.
<scales pt_clust_5="13000.00000" pt_clust_6="13000.00000" pt_clust_7="13000.00000" pt_clust_8="13000.00000" pt_clust_9="112.54956"></scales>
<clustering>
<clus scale="   78.944">  5  6 -1 -1</clus>
<clus scale="   83.104">  2  5  1 -1</clus>
<clus scale="   93.071">  7  8 -1 -1</clus>
<clus scale="  112.550">  1  9  2 -1</clus>
<clus scale="  112.550">  1  5  2 -1</clus>
</clustering>
</event>
<event>
 9    2  0.4883225E-005  0.1033555E+03  0.7546771E-02  0.1278426E+00
         21   -1    0    0  501  502  0.00000000000E+00  0.00000000000E+00  0.21039391307E+03  0.21039391307E+03  0.00000000000E+00 0. -1.
         -1   -1    0    0    0  501 -0.00000000000E+00 -0.00000000000E+00 -0.12870519413E+03  0.12870519413E+03  0.00000000000E+00 0.  1.
         24    2    1    2    0    0  0.45221317900E+02  0.25190892985E+02 -0.89112973027E+02  0.13045831000E+03  0.79991874619E+02 0.  0.
         23    2    1    2    0    0 -0.21789814545E+02 -0.20363910494E+02  0.14114733203E+03  0.17053940387E+03  0.90948524261E+02 0.  0.
        -11    1    3    3    0    0  0.41905358101E+02  0.25194123049E+02 -0.10415180015E+03  0.11505824763E+03  0.00000000000E+00 0.  1.
         12    1    3    3    0    0  0.33159597986E+01 -0.32300640115E-02  0.15038827122E+02  0.15400062371E+02  0.00000000000E+00 0. -1.
        -13    1    4    4    0    0  0.50801045728E+00 -0.28507963120E+02  0.11414798948E+01  0.28535329195E+02  0.00000000000E+00 0.  1.
         13    1    4    4    0    0 -0.22297825003E+02  0.81440526263E+01  0.14000585213E+03  0.14200407468E+03  0.00000000000E+00 0. -1.
         -2    1    1    2    0  502 -0.23431503354E+02 -0.48269824908E+01  0.29654359939E+02  0.38101393319E+02  0.00000000000E+00 0.  1.
<scales pt_clust_5="13000.00000" pt_clust_6="13000.00000" pt_clust_7="13000.00000" pt_clust_8="13000.00000" pt_clust_9="23.92353"></scales>
<clustering>
<clus scale="   23.924">  1  9  2 -1</clus>
<clus scale="   79.992">  5  6 -1 -1</clus>
<clus scale="   90.949">  7  8 -1 -1</clus>
<clus scale="   93.859">  2  5  1 -1</clus>
<clus scale="   23.924">  1  5  2 -1</clus>
</clustering>
</event>
<event>
 9    2  0.4883225E-005  0.1558207E+03  0.7546771E-02  0.1195447E+00
          2   -1    0    0  502    0 -0.00000000000E+00  0.00000000000E+00  0.15468420843E+04  0.15468420843E+04  0.00000000000E+00 0. -1.
         21   -1    0    0  501  502  0.00000000000E+00 -0.00000000000E+00 -0.29897329052E+02  0.29897329052E+02  0.00000000000E+00 0.  1.
         24    2    1    2    0    0 -0.12260878905E+02  0.12077333087E+03  0.97134744528E+03  0.98214064959E+03  0.79673518318E+02 0.  0.
         23    2    1    2    0    0 -0.89756105292E+01 -0.13849031979E+03  0.54178399016E+03  0.56668064083E+03  0.91306771033E+02 0.  0.
        -11    1    3    3    0    0  0.27827241115E+02  0.52544511646E+02  0.27770964070E+03  0.28400339010E+03  0.00000000000E+00 0.  1.
         12    1    3    3    0    0 -0.40088120020E+02  0.68228819219E+02  0.69363780458E+03  0.69813725949E+03  0.00000000000E+00 0. -1.
        -11    1    4    4    0    0 -0.43789056219E+02 -0.11539974085E+03  0.42923912658E+03  0.44663274558E+03  0.00000000000E+00 0. -1.
         11    1    4    4    0    0  0.34813445690E+02 -0.23090578941E+02  0.11254486358E+03  0.12004789525E+03  0.00000000000E+00 0.  1.
          1    1    1    2  501    0  0.21236489434E+02  0.17716988927E+02  0.38133198061E+01  0.27918122932E+02  0.00000000000E+00 0. -1.
<scales pt_clust_5="13000.00000" pt_clust_6="13000.00000" pt_clust_7="13000.00000" pt_clust_8="13000.00000" pt_clust_9="27.65647"></scales>
<clustering>
<clus scale="   27.656">  2  9  1 -1</clus>
<clus scale="   79.674">  5  6 -1 -1</clus>
<clus scale="   91.307">  7  8 -1 -1</clus>
<clus scale="  149.302">  1  5  2 -1</clus>
<clus scale="   27.656">  2  5  1 -1</clus>
</clustering>
</event>
<event>
 9    2  0.4883225E-005  0.9953352E+02  0.7546771E-02  0.1286549E+00
         21   -1    0    0  501  502  0.00000000000E+00  0.00000000000E+00  0.12516851807E+03  0.12516851807E+03  0.00000000000E+00 0.  1.
          2   -1    0    0  502    0 -0.00000000000E+00 -0.00000000000E+00 -0.12613827424E+03  0.12613827424E+03  0.00000000000E+00 0. -1.
         23    2    1    2    0    0 -0.11539564043E+02  0.26509385193E+02 -0.48255657474E+02  0.10797717539E+03  0.92165898706E+02 0.  0.
         24    2    1    2    0    0  0.11044649913E+02 -0.59410542604E+02  0.41589963651E+02  0.10993538383E+03  0.81880807743E+02 0.  0.
        -11    1    4    4    0    0  0.29459920318E+02 -0.58759988889E+02  0.56151103282E+02  0.86449809711E+02  0.00000000000E+00 0.  1.
         12    1    4    4    0    0 -0.18415270405E+02 -0.65055371467E+00 -0.14561139630E+02  0.23485574116E+02  0.00000000000E+00 0. -1.
        -13    1    3    3    0    0  0.78269112813E+01  0.57879177061E+02 -0.20756990526E+02  0.61984775011E+02  0.00000000000E+00 0. -1.
         13    1    3    3    0    0 -0.19366475324E+02 -0.31369791868E+02 -0.27498666947E+02  0.45992400374E+02  0.00000000000E+00 0.  1.
          1    1    1    2  501    0  0.49491412986E+00  0.32901157411E+02  0.56959376505E+01  0.33394233106E+02  0.00000000000E+00 0. -1.
<scales pt_clust_5="13000.00000" pt_clust_6="13000.00000" pt_clust_7="13000.00000" pt_clust_8="13000.00000" pt_clust_9="32.90488"></scales>
<clustering>
<clus scale="   32.905">  1  9  2 -1</clus>
<clus scale="   81.881">  5  6 -1 -1</clus>
<clus scale="   90.093">  1  5  2 -1</clus>
<clus scale="   92.166">  7  8 -1 -1</clus>
<clus scale="   32.905">  1  5  2 -1</clus>
</clustering>
</event>
<event>
 9    2  0.4883225E-005  0.3011946E+03  0.7546771E-02  0.1084645E+00
         21   -1    0    0  501  502  0.00000000000E+00  0.00000000000E+00  0.28103595240E+02  0.28103595240E+02  0.00000000000E+00 0. -1.
          2   -1    0    0  502    0 -0.00000000000E+00 -0.00000000000E+00 -0.28327784433E+04  0.28327784433E+04  0.00000000000E+00 0. -1.
         24    2    1    2    0    0 -0.14153378870E+02 -0.88263867790E+02 -0.58314764844E+03  0.59543517780E+03  0.80567006810E+02 0.  0.
         23    2    1    2    0    0 -0.70409569856E+02 -0.12951955812E+03 -0.52524550740E+03  0.55315246658E+03  0.91443888715E+02 0.  0.
        -13    1    3    3    0    0  0.15240764535E+02 -0.24640871205E+02 -0.50699602738E+02  0.58394376058E+02  0.00000000000E+00 0.  1.
         14    1    3    3    0    0 -0.29394143405E+02 -0.63622996585E+02 -0.53244804570E+03  0.53704080174E+03  0.00000000000E+00 0. -1.
        -11    1    4    4    0    0 -0.12385925518E+02 -0.75682074499E+02 -0.38076168196E+03  0.38840783463E+03  0.00000000000E+00 0.  1.
         11    1    4    4    0    0 -0.58023644338E+02 -0.53837483625E+02 -0.14448382543E+03  0.16474463195E+03  0.00000000000E+00 0. -1.
          1    1    1    2  501    0  0.84562948726E+02  0.21778342591E+03 -0.16962816922E+04  0.17122943941E+04  0.00000000000E+00 0. -1.
<scales pt_clust_5="13000.00000" pt_clust_6="13000.00000" pt_clust_7="13000.00000" pt_clust_8="13000.00000" pt_clust_9="233.62484"></scales>
<clustering>
<clus scale="   80.567">  5  6 -1 -1</clus>
<clus scale="   91.444">  7  8 -1 -1</clus>
<clus scale="  107.286">  5  7 -1 -1</clus>
<clus scale="  233.625">  1  9  2 -1</clus>
<clus scale="  233.625">  1  5  2 -1</clus>
</clustering>
</event>
<event>
 9    2  0.4883225E-005  0.3386054E+03  0.7546771E-02  0.1067391E+00
          2   -1    0    0  502    0 -0.00000000000E+00  0.00000000000E+00  0.15218556287E+04  0.15218556287E+04  0.00000000000E+00 0. -1.
         21   -1    0    0  501  502  0.00000000000E+00 -0.00000000000E+00 -0.87173156809E+02  0.87173156809E+02  0.00000000000E+00 0. -1.
         24    2    1    2    0    0 -0.21317228185E+02 -0.76262500549E+02  0.13639247958E+03  0.17823181195E+03  0.83025761653E+02 0.  0.
         23    2    1    2    0    0  0.99051919782E+02 -0.17606845590E+03  0.19209661884E+03  0.29352947056E+03  0.91907862237E+02 0.  0.
        -11    1    3    3    0    0 -0.27746081177E+02 -0.92504325612E+02  0.12199940470E+03  0.15559803991E+03  0.00000000000E+00 0.  1.
         12    1    3    3    0    0  0.64288529916E+01  0.16241825063E+02  0.14393074875E+02  0.22633772035E+02  0.00000000000E+00 0. -1.
        -13    1    4    4    0    0  0.97695301705E+02 -0.87718343990E+02  0.13504713407E+03  0.18835235138E+03  0.00000000000E+00 0.  1.
         13    1    4    4    0    0  0.13566180764E+01 -0.88350111914E+02  0.57049484770E+02  0.10517711919E+03  0.00000000000E+00 0. -1.
          1    1    1    2  501    0 -0.77734691596E+02  0.25233095645E+03  0.11061933735E+04  0.11372675030E+04  0.00000000000E+00 0. -1.
<scales pt_clust_5="13000.00000" pt_clust_6="13000.00000" pt_clust_7="13000.00000" pt_clust_8="13000.00000" pt_clust_9="264.03345"></scales>
<clustering>
<clus scale="   83.026">  5  6 -1 -1</clus>
<clus scale="   91.908">  7  8 -1 -1</clus>
<clus scale="  110.415">  5  7 -1 -1</clus>
<clus scale="  264.033">  2  9  1 -1</clus>
<clus scale="  264.033">  2  5  1 -1</clus>
</clustering>
</event>
<event>
 9    2  0.4883225E-005  0.1341672E+03  0.7546771E-02  0.1223463E+00
         -3   -1    0    0    0  501 -0.00000000000E+00  0.00000000000E+00  0.94299379790E+03  0.94299379790E+03  0.00000000000E+00 0.  1.
         21   -1    0    0  501  502  0.00000000000E+00 -0.00000000000E+00 -0.53567097194E+02  0.53567097194E+02  0.00000000000E+00 0. -1.
         24    2    1    2    0    0  0.84590582123E+02 -0.49895244784E+02  0.69832219039E+03  0.70980890375E+03  0.80806535689E+02 0.  0.
         23    2    1    2    0    0 -0.70276169700E+02  0.98826558284E+02  0.95625726818E+02  0.17851441034E+03  0.89541534612E+02 0.  0.
        -13    1    3    3    0    0  0.61810067765E+02 -0.59262608782E+02  0.33915174096E+03  0.34979486084E+03  0.00000000000E+00 0.  1.
         14    1    3    3    0    0  0.22780514358E+02  0.93673639981E+01  0.35917044944E+03  0.36001404291E+03  0.00000000000E+00 0. -1.
        -11    1    4    4    0    0 -0.23364066252E+02  0.24943620861E+02  0.83419399166E+02  0.90149098558E+02  0.00000000000E+00 0.  1.
         11    1    4    4    0    0 -0.46912103448E+02  0.73882937423E+02  0.12206327652E+02  0.88365311785E+02  0.00000000000E+00 0. -1.
         -4    1    1    2    0  502 -0.14314412423E+02 -0.48931313500E+02  0.95478783501E+02  0.10823758101E+03  0.00000000000E+00 0.  1.
<scales pt_clust_5="13000.00000" pt_clust_6="13000.00000" pt_clust_7="13000.00000" pt_clust_8="13000.00000" pt_clust_9="50.98211"></scales>
<clustering>
<clus scale="   50.982">  2  9  1 -1</clus>
<clus scale="   80.807">  5  6 -1 -1</clus>
<clus scale="   89.542">  7  8 -1 -1</clus>
<clus scale="  128.502">  1  5  2 -1</clus>
<clus scale="   50.982">  2  5  1 -1</clus>
</clustering>
</event>
<event>
 9    2  0.4883225E-005  0.9605494E+02  0.7546771E-02  0.1294755E+00
          2   -1    0    0  502    0 -0.00000000000E+00  0.00000000000E+00  0.78226222331E+02  0.78226222331E+02  0.00000000000E+00 0. -1.
         21   -1    0    0  501  502  0.00000000000E+00 -0.00000000000E+00 -0.19778519420E+03  0.19778519420E+03  0.00000000000E+00 0.  1.
         24    2    1    2    0    0 -0.31355788103E+02 -0.24283384632E+02 -0.17512158418E+02  0.91477851703E+02  0.80552178388E+02 0.  0.
         23    2    1    2    0    0 -0.21204782606E+02  0.33774673298E+02 -0.57471830721E+02  0.11496613539E+03  0.91235023964E+02 0.  0.
        -11    1    3    3    0    0  0.22780993131E+02  0.93990557350E+01  0.21967943895E+01  0.24741499598E+02  0.00000000000E+00 0.  1.
         12    1    3    3    0    0 -0.54136781234E+02 -0.33682440367E+02 -0.19708952808E+02  0.66736352105E+02  0.00000000000E+00 0. -1.
        -13    1    4    4    0    0  0.32123516910E+02 -0.64386264670E+01 -0.19909723626E+02  0.38337623092E+02  0.00000000000E+00 0. -1.
         13    1    4    4    0    0 -0.53328299516E+02  0.40213299765E+02 -0.37562107094E+02  0.76628512295E+02  0.00000000000E+00 0.  1.
          1    1    1    2  501    0  0.52560570709E+02 -0.94912886653E+01 -0.44574982733E+02  0.69567429444E+02  0.00000000000E+00 0. -1.
<scales pt_clust_5="13000.00000" pt_clust_6="13000.00000" pt_clust_7="13000.00000" pt_clust_8="13000.00000" pt_clust_9="53.41066"></scales>
<clustering>
<clus scale="   53.411">  2  9  1 -1</clus>
<clus scale="   80.552">  5  6 -1 -1</clus>
<clus scale="   85.973">  1  5  2 -1</clus>
<clus scale="   91.235">  7  8 -1 -1</clus>
<clus scale="   53.411">  2  5  1 -1</clus>
</clustering>
</event>
<event>
 9    2  0.4883225E-005  0.1203260E+03  0.7546771E-02  0.1247550E+00
          2   -1    0    0  502    0 -0.00000000000E+00  0.00000000000E+00  0.26048323295E+03  0.26048323295E+03  0.00000000000E+00 0. -1.
         21   -1    0    0  501  502  0.00000000000E+00 -0.00000000000E+00 -0.22926579344E+03  0.22926579344E+03  0.00000000000E+00 0. -1.
         24    2    1    2    0    0 -0.21786101132E+02  0.70075782835E+02  0.51502310301E+02  0.12039316239E+03  0.80354066738E+02 0.  0.
         23    2    1    2    0    0  0.67931826448E+02  0.36063831768E+02 -0.15263645727E+03  0.19353780976E+03  0.90794618299E+02 0.  0.
        -11    1    3    3    0    0 -0.35149604528E+02  0.26992099192E+02 -0.87024741617E+01  0.45164158066E+02  0.00000000000E+00 0.  1.
         12    1    3    3    0    0  0.13363503397E+02  0.43083683644E+02  0.60204784463E+02  0.75229004324E+02  0.00000000000E+00 0. -1.
        -11    1    4    4    0    0  0.63482593700E+02  0.72345129545E+01 -0.36059541460E+02  0.73366670982E+02  0.00000000000E+00 0.  1.
         11    1    4    4    0    0  0.44492327471E+01  0.28829318814E+02 -0.11657691581E+03  0.12017113878E+03  0.00000000000E+00 0. -1.
          1    1    1    2  501    0 -0.46145725316E+02 -0.10613961460E+03  0.13235158648E+03  0.17581805424E+03  0.00000000000E+00 0. -1.
<scales pt_clust_5="13000.00000" pt_clust_6="13000.00000" pt_clust_7="13000.00000" pt_clust_8="13000.00000" pt_clust_9="78.96004"></scales>
<clustering>
<clus scale="   80.354">  5  6 -1 -1</clus>
<clus scale="   90.795">  7  8 -1 -1</clus>
<clus scale="  108.821">  1  5  2 -1</clus>
<clus scale="   78.960">  2  9  1 -1</clus>
<clus scale="   78.960">  2  5  1 -1</clus>
</clustering>
</event>
<event>
 9    2  0.4883225E-005  0.1135546E+03  0.7546771E-02  0.1256662E+00
         21   -1    0    0  501  502  0.00000000000E+00  0.00000000000E+00  0.25079084548E+02  0.25079084548E+02  0.00000000000E+00 0. -1.
          2   -1    0    0  502    0 -0.00000000000E+00 -0.00000000000E+00 -0.15850244733E+04  0.15850244733E+04  0.00000000000E+00 0. -1.
         24    2    1    2    0    0  0.55901750102E+02  0.48441693616E+02 -0.11831085679E+04  0.11883188792E+04  0.82971513416E+02 0.  0.
         23    2    1    2    0    0 -0.92313341276E+00 -0.70078348062E+02 -0.32021571668E+03  0.33995105137E+03  0.90093202130E+02 0.  0.
        -13    1    3    3    0    0  0.18108525113E+02  0.18783197322E+02 -0.79636705108E+02  0.83801742129E+02  0.00000000000E+00 0.  1.
         14    1    3    3    0    0  0.37793224989E+02  0.29658496294E+02 -0.11034718628E+04  0.11045171371E+04  0.00000000000E+00 0. -1.
        -11    1    4    4    0    0  0.43766580085E+02 -0.45470594610E+02 -0.17438191743E+03  0.18545118396E+03  0.00000000000E+00 0. -1.
         11    1    4    4    0    0 -0.44689713497E+02 -0.24607753452E+02 -0.14583379925E+03  0.15449986740E+03  0.00000000000E+00 0.  1.
          1    1    1    2  501    0 -0.54978616689E+02  0.21636654447E+02 -0.56621104218E+02  0.81833627266E+02  0.00000000000E+00 0. -1.
<scales pt_clust_5="13000.00000" pt_clust_6="13000.00000" pt_clust_7="13000.00000" pt_clust_8="13000.00000" pt_clust_9="59.08293"></scales>
<clustering>
<clus scale="   59.083">  1  9  2 -1</clus>
<clus scale="   82.972">  5  6 -1 -1</clus>
<clus scale="   90.093">  7  8 -1 -1</clus>
<clus scale="  107.991">  2  5  1 -1</clus>
<clus scale="   59.083">  1  5  2 -1</clus>
</clustering>
</event>
<event>
 9    2  0.4883225E-005  0.1310843E+03  0.7546771E-02  0.1228890E+00
         21   -1    0    0  501  502  0.00000000000E+00  0.00000000000E+00  0.67152898668E+02  0.67152898668E+02  0.00000000000E+00 0. -1.
          2   -1    0    0  502    0 -0.00000000000E+00 -0.00000000000E+00 -0.89433820422E+03  0.89433820422E+03  0.00000000000E+00 0. -1.
         24    2    1    2    0    0  0.91382290478E+02  0.38094511123E+02 -0.71203538672E+03  0.72335596817E+03  0.80296637244E+02 0.  0.
         23    2    1    2    0    0 -0.39711655245E+02 -0.47759306423E+01  0.77692930493E+01  0.10069745793E+03  0.92085780900E+02 0.  0.
        -11    1    3    3    0    0  0.28804125120E+02  0.44161692122E+02 -0.17835741312E+03  0.18598736379E+03  0.00000000000E+00 0.  1.
         12    1    3    3    0    0  0.62578165359E+02 -0.60671809987E+01 -0.53367797361E+03  0.53736860438E+03  0.00000000000E+00 0. -1.
        -13    1    4    4    0    0 -0.53333650650E+02  0.22436006580E+02  0.27874198657E+02  0.64224789869E+02  0.00000000000E+00 0. -1.
         13    1    4    4    0    0  0.13621995406E+02 -0.27211937223E+02 -0.20104905608E+02  0.36472668064E+02  0.00000000000E+00 0.  1.
          1    1    1    2  501    0 -0.51670635234E+02 -0.33318580481E+02 -0.12291921188E+03  0.13743767678E+03  0.00000000000E+00 0. -1.
<scales pt_clust_5="13000.00000" pt_clust_6="13000.00000" pt_clust_7="13000.00000" pt_clust_8="13000.00000" pt_clust_9="61.48159"></scales>
<clustering>
<clus scale="   61.482">  1  9  2 -1</clus>
<clus scale="   80.297">  5  6 -1 -1</clus>
<clus scale="   92.086">  7  8 -1 -1</clus>
<clus scale="  123.089">  2  5  1 -1</clus>
<clus scale="   61.482">  1  5  2 -1</clus>
</clustering>
</event>
<event>
 9    2  0.4883225E-005  0.1708743E+03  0.7546771E-02  0.1178424E+00
         -1   -1    0    0    0  501 -0.00000000000E+00  0.00000000000E+00  0.11191786742E+04  0.11191786742E+04  0.00000000000E+00 0.  1.
         21   -1    0    0  501  502  0.00000000000E+00 -0.00000000000E+00 -0.39341856147E+02  0.39341856147E+02  0.00000000000E+00 0.  1.
         23    2    1    2    0    0  0.15675560787E+03 -0.29196205551E+02  0.75996385593E+03  0.78198171766E+03  0.92334205018E+02 0.  0.
         24    2    1    2    0    0 -0.11934705544E+03  0.12591557828E+02  0.29478823750E+03  0.32853508854E+03  0.81442817161E+02 0.  0.
        -13    1    4    4    0    0 -0.66999169990E+02  0.21430960309E+02  0.24795900048E+03  0.25774375018E+03  0.00000000000E+00 0.  1.
         14    1    4    4    0    0 -0.52347885450E+02 -0.88394024809E+01  0.46829237016E+02  0.70791338361E+02  0.00000000000E+00 0. -1.
        -11    1    3    3    0    0  0.88853807536E+02  0.20842298966E+02  0.51184146565E+03  0.51991449922E+03  0.00000000000E+00 0. -1.
         11    1    3    3    0    0  0.67901800329E+02 -0.50038504517E+02  0.24812239029E+03  0.26206721844E+03  0.00000000000E+00 0.  1.
         -2    1    1    2    0  502 -0.37408552425E+02  0.16604647722E+02  0.25084724589E+02  0.48003724108E+02  0.00000000000E+00 0.  1.
<scales pt_clust_5="13000.00000" pt_clust_6="13000.00000" pt_clust_7="13000.00000" pt_clust_8="13000.00000" pt_clust_9="40.92816"></scales>
<clustering>
<clus scale="   40.928">  2  9  1 -1</clus>
<clus scale="   81.443">  5  6 -1 -1</clus>
<clus scale="   92.334">  7  8 -1 -1</clus>
<clus scale="  165.243">  2  5  1 -1</clus>
<clus scale="   40.928">  2  5  1 -1</clus>
</clustering>
</event>
<event>
 9    2  0.4883225E-005  0.1593009E+03  0.7546771E-02  0.1209173E+00
         21   -1    0    0  501  502  0.00000000000E+00  0.00000000000E+00  0.14697687174E+03  0.14697687174E+03  0.00000000000E+00 0.  1.
          2   -1    0    0  502    0 -0.00000000000E+00 -0.00000000000E+00 -0.28583414982E+03  0.28583414982E+03  0.00000000000E+00 0. -1.
         24    2    1    2    0    0  0.55675423156E+02 -0.29021194115E+02 -0.23899429086E+02  0.10654305793E+03  0.82693760530E+02 0.  0.
         23    2    1    2    0    0 -0.51948053766E+02 -0.12175022576E+03 -0.72957929543E+02  0.16971155984E+03  0.77184430397E+02 0.  0.
        -13    1    3    3    0    0  0.73047815544E+02 -0.39980004664E+02 -0.18449794459E+02  0.85292315271E+02  0.00000000000E+00 0.  1.
         14    1    3    3    0    0 -0.17372392388E+02  0.10958810549E+02 -0.54496346271E+01  0.21250742658E+02  0.00000000000E+00 0. -1.
        -11    1    4    4    0    0 -0.17451357625E+02 -0.34042088393E+02  0.14717601560E+02  0.40988064858E+02  0.00000000000E+00 0.  1.
         11    1    4    4    0    0 -0.34496696141E+02 -0.87708137371E+02 -0.87675531103E+02  0.12872349498E+03  0.00000000000E+00 0. -1.
          1    1    1    2  501    0 -0.37273693904E+01  0.15077141988E+03 -0.41999919453E+02  0.15655640379E+03  0.00000000000E+00 0. -1.
<scales pt_clust_5="13000.00000" pt_clust_6="13000.00000" pt_clust_7="13000.00000" pt_clust_8="13000.00000" pt_clust_9="139.35324"></scales>
<clustering>
<clus scale="   77.184">  7  8 -1 -1</clus>
<clus scale="   82.694">  5  6 -1 -1</clus>
<clus scale="  103.828">  2  5  1 -1</clus>
<clus scale="  139.353">  1  9  2 -1</clus>
<clus scale="  139.353">  1  5  2 -1</clus>
</clustering>
</event>
<event>
 9    2  0.4883225E-005  0.9127033E+02  0.7546771E-02  0.1300227E+00
          2   -1    0    0  502    0 -0.00000000000E+00  0.00000000000E+00  0.21859721905E+03  0.21859721905E+03  0.00000000000E+00 0. -1.
         21   -1    0    0  501  502  0.00000000000E+00 -0.00000000000E+00 -0.25928239598E+03  0.25928239598E+03  0.00000000000E+00 0. -1.
         24    2    1    2    0    0 -0.21012190100E+01 -0.15349301250E+00  0.17082243984E+03  0.19323860017E+03  0.90312856010E+02 0.  0.
         23    2    1    2    0    0  0.17085234207E+02 -0.45473659200E+02 -0.47199680113E+02  0.11345849304E+03  0.91023408698E+02 0.  0.
        -13    1    3    3    0    0  0.35624790652E+02 -0.24860061106E+02  0.10306552348E+03  0.11184654880E+03  0.00000000000E+00 0.  1.
         14    1    3    3    0    0 -0.37726009662E+02  0.24706568094E+02  0.67756916353E+02  0.81392051367E+02  0.00000000000E+00 0. -1.
        -11    1    4    4    0    0 -0.42853985923E+01  0.21725221727E+02 -0.35702553034E+02  0.42012167206E+02  0.00000000000E+00 0.  1.
         11    1    4    4    0    0  0.21370632800E+02 -0.67198880927E+02 -0.11497127079E+02  0.71446325833E+02  0.00000000000E+00 0. -1.
          1    1    1    2  501    0 -0.14984015197E+02  0.45627152212E+02 -0.16430793666E+03  0.17118252183E+03  0.00000000000E+00 0. -1.
<scales pt_clust_5="13000.00000" pt_clust_6="13000.00000" pt_clust_7="13000.00000" pt_clust_8="13000.00000" pt_clust_9="48.02455"></scales>
<clustering>
<clus scale="   48.025">  2  9  1 -1</clus>
<clus scale="   90.313">  5  6 -1 -1</clus>
<clus scale="   90.562">  1  5  2 -1</clus>
<clus scale="   91.023">  7  8 -1 -1</clus>
<clus scale="   48.025">  2  5  1 -1</clus>
</clustering>
</event>
<event>
 9    2  0.4883225E-005  0.9281345E+02  0.7546771E-02  0.1303020E+00
         21   -1    0    0  501  502  0.00000000000E+00  0.00000000000E+00  0.66192509446E+02  0.66192509446E+02  0.00000000000E+00 0. -1.
          2   -1    0    0  502    0 -0.00000000000E+00 -0.00000000000E+00 -0.46731519115E+03  0.46731519115E+03  0.00000000000E+00 0. -1.
         23    2    1    2    0    0  0.41009926053E+01  0.12664680870E+02 -0.23795277858E+03  0.25538520239E+03  0.91776165118E+02 0.  0.
         24    2    1    2    0    0  0.22560878724E+02 -0.72852091062E+01 -0.20875639572E+03  0.22503839129E+03  0.80628638077E+02 0.  0.
        -11    1    4    4    0    0  0.38460472060E+02 -0.33571544224E+02 -0.10374535401E+03  0.11562592690E+03  0.00000000000E+00 0.  1.
         12    1    4    4    0    0 -0.15899593336E+02  0.26286335117E+02 -0.10501104172E+03  0.10941246439E+03  0.00000000000E+00 0. -1.
        -13    1    3    3    0    0 -0.41198538601E+02  0.21617744124E+02 -0.11591561937E+03  0.12490427238E+03  0.00000000000E+00 0.  1.
         13    1    3    3    0    0  0.45299531206E+02 -0.89530632542E+01 -0.12203715921E+03  0.13048093001E+03  0.00000000000E+00 0. -1.
          1    1    1    2  501    0 -0.26661871329E+02 -0.53794717639E+01  0.45586492602E+02  0.53084106915E+02  0.00000000000E+00 0. -1.
<scales pt_clust_5="13000.00000" pt_clust_6="13000.00000" pt_clust_7="13000.00000" pt_clust_8="13000.00000" pt_clust_9="27.19916"></scales>
<clustering>
<clus scale="   27.199">  1  9  2 -1</clus>
<clus scale="   80.629">  5  6 -1 -1</clus>
<clus scale="   81.807">  1  5  2 -1</clus>
<clus scale="   91.776">  7  8 -1 -1</clus>
<clus scale="   27.199">  1  5  2 -1</clus>
</clustering>
</event>
<event>
 9    2  0.4883225E-005  0.9935338E+02  0.7546771E-02  0.1289584E+00
         -1   -1    0    0    0  501 -0.00000000000E+00  0.00000000000E+00  0.12891778839E+03  0.12891778839E+03  0.00000000000E+00 0.  1.
         21   -1    0    0  501  502  0.00000000000E+00 -0.00000000000E+00 -0.20545760368E+03  0.20545760368E+03  0.00000000000E+00 0.  1.
         24    2    1    2    0    0  0.36277283821E+02 -0.17134820785E+02  0.60815041533E+02  0.10864460597E+03  0.80594898874E+02 0.  0.
         23    2    1    2    0    0  0.42751776253E+00 -0.42844548202E+02 -0.56702825872E+02  0.11872836903E+03  0.95107187257E+02 0.  0.
        -13    1    3    3    0    0  0.60158106099E+00 -0.27869913625E+02  0.65413831883E+02  0.71106001061E+02  0.00000000000E+00 0.  1.
         14    1    3    3    0    0  0.35675702760E+02  0.10735092840E+02 -0.45987903496E+01  0.37538604907E+02  0.00000000000E+00 0. -1.
        -13    1    4    4    0    0  0.26692581711E+02 -0.24280355856E+02 -0.73912547235E+02  0.82250192934E+02  0.00000000000E+00 0.  1.
         13    1    4    4    0    0 -0.26265063948E+02 -0.18564192346E+02  0.17209721363E+02  0.36478176093E+02  0.00000000000E+00 0. -1.
         -2    1    1    2    0  502 -0.36704801583E+02  0.59979368987E+02 -0.80652030946E+02  0.10700241707E+03  0.00000000000E+00 0.  1.
<scales pt_clust_5="13000.00000" pt_clust_6="13000.00000" pt_clust_7="13000.00000" pt_clust_8="13000.00000" pt_clust_9="70.31904"></scales>
<clustering>
<clus scale="   70.319">  2  9  1 -1</clus>
<clus scale="   80.595">  5  6 -1 -1</clus>
<clus scale="   85.564">  1  5  2 -1</clus>
<clus scale="   95.107">  7  8 -1 -1</clus>
<clus scale="   70.319">  2  5  1 -1</clus>
</clustering>
</event>
<event>
 9    2  0.4883225E-005  0.9521176E+02  0.7546771E-02  0.1294670E+00
         21   -1    0    0  501  502  0.00000000000E+00  0.00000000000E+00  0.74919420606E+02  0.74919420606E+02  0.00000000000E+00 0. -1.
          2   -1    0    0  502    0 -0.00000000000E+00 -0.00000000000E+00 -0.55344296642E+03  0.55344296642E+03  0.00000000000E+00 0. -1.
         23    2    1    2    0    0  0.31450829609E+02  0.57983773397E+02 -0.31011605034E+03  0.32955329546E+03  0.89900707490E+02 0.  0.
         24    2    1    2    0    0  0.38169812544E+02 -0.34811716455E+01 -0.18806267295E+03  0.20823374496E+03  0.80775432129E+02 0.  0.
        -11    1    4    4    0    0 -0.43697345219E+01 -0.30780806354E+02 -0.11678954302E+03  0.12085673328E+03  0.00000000000E+00 0.  1.
         12    1    4    4    0    0  0.42539547066E+02  0.27299634709E+02 -0.71273129928E+02  0.87377011677E+02  0.00000000000E+00 0. -1.
        -13    1    3    3    0    0  0.53854394950E+02  0.58387395217E+01 -0.13468660992E+03  0.14517186237E+03  0.00000000000E+00 0. -1.
         13    1    3    3    0    0 -0.22403565340E+02  0.52145033875E+02 -0.17542944043E+03  0.18438143309E+03  0.00000000000E+00 0.  1.
          1    1    1    2  501    0 -0.69620642153E+02 -0.54502601751E+02  0.19655177481E+02  0.90575346609E+02  0.00000000000E+00 0. -1.
<scales pt_clust_5="13000.00000" pt_clust_6="13000.00000" pt_clust_7="13000.00000" pt_clust_8="13000.00000" pt_clust_9="88.41701"></scales>
<clustering>
<clus scale="   80.775">  5  6 -1 -1</clus>
<clus scale="   88.417">  1  9  2 -1</clus>
<clus scale="   88.417">  1  5  2 -1</clus>
<clus scale="   89.901">  7  8 -1 -1</clus>
<clus scale="   88.417">  1  5  2 -1</clus>
</clustering>
</event>
<event>
 9    2  0.4883225E-005  0.1478994E+03  0.7546771E-02  0.1209544E+00
          2   -1    0    0  502    0 -0.00000000000E+00  0.00000000000E+00  0.12631554998E+04  0.12631554998E+04  0.00000000000E+00 0. -1.
         21   -1    0    0  501  502  0.00000000000E+00 -0.00000000000E+00 -0.39488099096E+02  0.39488099096E+02  0.00000000000E+00 0.  1.
         24    2    1    2    0    0  0.98786241076E+02  0.46052201538E+02  0.10193257099E+04  0.10282634455E+04  0.80132914315E+02 0.  0.
         23    2    1    2    0    0 -0.63623948097E+02 -0.15831578157E+02  0.18494130762E+03  0.22412035038E+03  0.10829588428E+03 0.  0.
        -13    1    3    3    0    0 -0.45383819501E+01  0.28684607486E+02  0.16490722050E+03  0.16744490135E+03  0.00000000000E+00 0.  1.
         14    1    3    3    0    0  0.10332462303E+03  0.17367594052E+02  0.85441848938E+03  0.86081854420E+03  0.00000000000E+00 0. -1.
        -13    1    4    4    0    0  0.10436881198E+02 -0.26487724314E+02  0.45556176900E+01  0.28831955900E+02  0.00000000000E+00 0. -1.
         13    1    4    4    0    0 -0.74060829295E+02  0.10656146157E+02  0.18038568993E+03  0.19528839448E+03  0.00000000000E+00 0.  1.
          1    1    1    2  501    0 -0.35162292979E+02 -0.30220623381E+02  0.19400383205E+02  0.50259802960E+02  0.00000000000E+00 0. -1.
<scales pt_clust_5="13000.00000" pt_clust_6="13000.00000" pt_clust_7="13000.00000" pt_clust_8="13000.00000" pt_clust_9="46.36457"></scales>
<clustering>
<clus scale="   46.365">  2  9  1 -1</clus>
<clus scale="   80.133">  5  6 -1 -1</clus>
<clus scale="  108.296">  7  8 -1 -1</clus>
<clus scale="  128.715">  1  5  2 -1</clus>
<clus scale="   46.365">  2  5  1 -1</clus>
</clustering>
</event>
<event>
 9    2  0.4883225E-005  0.1664253E+03  0.7546771E-02  0.1200326E+00
         21   -1    0    0  501  502  0.00000000000E+00  0.00000000000E+00  0.10706885812E+04  0.10706885812E+04  0.00000000000E+00 0. -1.
          4   -1    0    0  502    0 -0.00000000000E+00 -0.00000000000E+00 -0.45319991822E+02  0.45319991822E+02  0.00000000000E+00 0. -1.
         24    2    1    2    0    0 -0.73462434420E+02  0.23057662847E+02  0.17284914637E+03  0.20497732321E+03  0.78806665603E+02 0.  0.
         23    2    1    2    0    0 -0.36466344601E+02  0.95081505176E+02  0.22998419873E+03  0.26792058294E+03  0.92295287968E+02 0.  0.
        -13    1    3    3    0    0 -0.52527129371E+02 -0.54130750070E+01  0.36674079772E+02  0.64291436662E+02  0.00000000000E+00 0.  1.
         14    1    3    3    0    0 -0.20935305049E+02  0.28470737854E+02  0.13617506659E+03  0.14068588655E+03  0.00000000000E+00 0. -1.
        -11    1    4    4    0    0  0.27134809236E+02  0.17567436217E+02  0.90790964588E+02  0.96373813551E+02  0.00000000000E+00 0.  1.
         11    1    4    4    0    0 -0.63601153838E+02  0.77514068959E+02  0.13919323414E+03  0.17154676938E+03  0.00000000000E+00 0. -1.
          3    1    1    2  501    0  0.10992877902E+03 -0.11813916802E+03  0.62253524431E+03  0.64311066691E+03  0.00000000000E+00 0. -1.
<scales pt_clust_5="13000.00000" pt_clust_6="13000.00000" pt_clust_7="13000.00000" pt_clust_8="13000.00000" pt_clust_9="138.48817"></scales>
<clustering>
<clus scale="   78.807">  5  6 -1 -1</clus>
<clus scale="   92.295">  7  8 -1 -1</clus>
<clus scale="  110.177">  2  5  1 -1</clus>
<clus scale="  138.488">  1  9  2 -1</clus>
<clus scale="  138.488">  1  5  2 -1</clus>
</clustering>
</event>
<event>
 9    2  0.4883225E-005  0.1252404E+03  0.7546771E-02  0.1237653E+00
         21   -1    0    0  501  502  0.00000000000E+00  0.00000000000E+00  0.63903604092E+02  0.63903604092E+02  0.00000000000E+00 0. -1.
          2   -1    0    0  502    0 -0.00000000000E+00 -0.00000000000E+00 -0.78694515877E+03  0.78694515877E+03  0.00000000000E+00 0. -1.
         23    2    1    2    0    0 -0.20105557354E+01 -0.88437294934E+02 -0.67012727981E+03  0.68197182950E+03  0.90497555879E+02 0.  0.
         24    2    1    2    0    0  0.40122651064E+02  0.69602706712E+02 -0.20061695761E+02  0.11515016649E+03  0.80017031292E+02 0.  0.
        -11    1    4    4    0    0 -0.24230724112E+02  0.26570347991E+02 -0.72021192075E+01  0.36673994934E+02  0.00000000000E+00 0.  1.
         12    1    4    4    0    0  0.64353375176E+02  0.43032358721E+02 -0.12859576554E+02  0.78476171561E+02  0.00000000000E+00 0. -1.
        -13    1    3    3    0    0  0.13896970674E+02 -0.10360893334E+03 -0.55932340876E+03  0.56900844673E+03  0.00000000000E+00 0. -1.
         13    1    3    3    0    0 -0.15907526409E+02  0.15171638402E+02 -0.11080387105E+03  0.11296338277E+03  0.00000000000E+00 0.  1.
          1    1    1    2  501    0 -0.38112095329E+02  0.18834588222E+02 -0.32852579110E+02  0.53726766867E+02  0.00000000000E+00 0. -1.
<scales pt_clust_5="13000.00000" pt_clust_6="13000.00000" pt_clust_7="13000.00000" pt_clust_8="13000.00000" pt_clust_9="42.51204"></scales>
<clustering>
<clus scale="   42.512">  1  9  2 -1</clus>
<clus scale="   80.017">  5  6 -1 -1</clus>
<clus scale="   90.498">  7  8 -1 -1</clus>
<clus scale="  117.890">  1  5  2 -1</clus>
<clus scale="   42.512">  1  5  2 -1</clus>
</clustering>
</event>
<event>
 9    2  0.4883225E-005  0.1473076E+03  0.7546771E-02  0.1206003E+00
         -1   -1    0    0    0  501 -0.00000000000E+00  0.00000000000E+00  0.42066468181E+03  0.42066468181E+03  0.00000000000E+00 0.  1.
         21   -1    0    0  501  502  0.00000000000E+00 -0.00000000000E+00 -0.80596098617E+02  0.80596098617E+02  0.00000000000E+00 0.  1.
         23    2    1    2    0    0  0.79135498632E+02  0.19030365973E+02  0.90799377027E+02  0.15293972491E+03  0.92311703556E+02 0.  0.
         24    2    1    2    0    0 -0.14037197453E+03 -0.55329020951E+02  0.18875154640E+03  0.25488719936E+03  0.81084809519E+02 0.  0.
        -11    1    4    4    0    0 -0.14183140220E+03 -0.33884095702E+02  0.14251674097E+03  0.20390022081E+03  0.00000000000E+00 0.  1.
         12    1    4    4    0    0  0.14594276641E+01 -0.21444925249E+02  0.46234805432E+02  0.50986978547E+02  0.00000000000E+00 0. -1.
        -11    1    3    3    0    0  0.57061259197E+02 -0.30168768970E+02  0.69804168267E+02  0.95072413611E+02  0.00000000000E+00 0.  1.
         11    1    3    3    0    0  0.22074239435E+02  0.49199134943E+02  0.20995208759E+02  0.57867311296E+02  0.00000000000E+00 0. -1.
         -2    1    1    2    0  502  0.61236475899E+02  0.36298654979E+02  0.60517659770E+02  0.93433856165E+02  0.00000000000E+00 0.  1.
<scales pt_clust_5="13000.00000" pt_clust_6="13000.00000" pt_clust_7="13000.00000" pt_clust_8="13000.00000" pt_clust_9="71.18636"></scales>
<clustering>
<clus scale="   71.186">  2  9  1 -1</clus>
<clus scale="   81.085">  5  6 -1 -1</clus>
<clus scale="   92.312">  7  8 -1 -1</clus>
<clus scale="  140.545">  2  5  1 -1</clus>
<clus scale="   71.186">  2  5  1 -1</clus>
</clustering>
</event>
<event>
 9    2  0.4883225E-005  0.9324938E+02  0.7546771E-02  0.1300478E+00
          2   -1    0    0  502    0 -0.00000000000E+00  0.00000000000E+00  0.40148928883E+03  0.40148928883E+03  0.00000000000E+00 0. -1.
         21   -1    0    0  501  502  0.00000000000E+00 -0.00000000000E+00 -0.43694381205E+02  0.43694381205E+02  0.00000000000E+00 0.  1.
         24    2    1    2    0    0 -0.55463111097E+01  0.26054730388E+02  0.29594744719E+03  0.30755208184E+03  0.79333353682E+02 0.  0.
         23    2    1    2    0    0  0.23740254970E+02 -0.38787057162E+02  0.42787205369E+02  0.10836684726E+03  0.88569707764E+02 0.  0.
        -13    1    3    3    0    0 -0.13772270090E+02 -0.24722423615E+02  0.64136839347E+02  0.70102837420E+02  0.00000000000E+00 0.  1.
         14    1    3    3    0    0  0.82259589805E+01  0.50777154003E+02  0.23181060784E+03  0.23744924442E+03  0.00000000000E+00 0. -1.
        -11    1    4    4    0    0 -0.67255664756E+01  0.20962285461E+02 -0.88460527044E+01  0.23725583335E+02  0.00000000000E+00 0. -1.
         11    1    4    4    0    0  0.30465821446E+02 -0.59749342623E+02  0.51633258073E+02  0.84641263929E+02  0.00000000000E+00 0.  1.
          1    1    1    2  501    0 -0.18193943861E+02  0.12732326774E+02  0.19060255065E+02  0.29264740926E+02  0.00000000000E+00 0. -1.
<scales pt_clust_5="13000.00000" pt_clust_6="13000.00000" pt_clust_7="13000.00000" pt_clust_8="13000.00000" pt_clust_9="22.20657"></scales>
<clustering>
<clus scale="   22.207">  2  9  1 -1</clus>
<clus scale="   79.333">  5  6 -1 -1</clus>
<clus scale="   84.526">  1  5  2 -1</clus>
<clus scale="   88.570">  7  8 -1 -1</clus>
<clus scale="   22.207">  2  5  1 -1</clus>
</clustering>
</event>
<event>
 9    2  0.4883225E-005  0.1796063E+03  0.7546771E-02  0.1171159E+00
         -1   -1    0    0    0  501 -0.00000000000E+00  0.00000000000E+00  0.59349670451E+03  0.59349670451E+03  0.00000000000E+00 0.  1.
         21   -1    0    0  501  502  0.00000000000E+00 -0.00000000000E+00 -0.85701533765E+02  0.85701533765E+02  0.00000000000E+00 0. -1.
         23    2    1    2    0    0 -0.12259966145E+03 -0.79247540798E+02  0.23668164168E+03  0.29301027918E+03  0.92336203552E+02 0.  0.
         24    2    1    2    0    0  0.88046314296E+02  0.15447970266E+03  0.16438612322E+03  0.25111556689E+03  0.66483820838E+02 0.  0.
        -11    1    4    4    0    0  0.33757746221E+02  0.27424482994E+02  0.74551121923E+02  0.86310819006E+02  0.00000000000E+00 0.  1.
         12    1    4    4    0    0  0.54288568075E+02  0.12705521966E+03  0.89835001297E+02  0.16480474789E+03  0.00000000000E+00 0. -1.
        -11    1    3    3    0    0 -0.10225036625E+03 -0.50475994013E+02  0.23059366028E+03  0.25724773960E+03  0.00000000000E+00 0.  1.
         11    1    3    3    0    0 -0.20349295200E+02 -0.28771546785E+02  0.60879814022E+01  0.35762539578E+02  0.00000000000E+00 0. -1.
         -2    1    1    2    0  502  0.34553347152E+02 -0.75232161860E+02  0.10672740585E+03  0.13507239221E+03  0.00000000000E+00 0.  1.
<scales pt_clust_5="13000.00000" pt_clust_6="13000.00000" pt_clust_7="13000.00000" pt_clust_8="13000.00000" pt_clust_9="82.78779"></scales>
<clustering>
<clus scale="   66.484">  5  6 -1 -1</clus>
<clus scale="   82.788">  2  9  1 -1</clus>
<clus scale="   92.336">  7  8 -1 -1</clus>
<clus scale="  167.787">  2  5  1 -1</clus>
<clus scale="   82.788">  2  5  1 -1</clus>
</clustering>
</event>
<event>
 9    2  0.4883225E-005  0.9585470E+02  0.7546771E-02  0.1295131E+00
          2   -1    0    0  502    0 -0.00000000000E+00  0.00000000000E+00  0.81339125113E+03  0.81339125113E+03  0.00000000000E+00 0. -1.
         21   -1    0    0  501  502  0.00000000000E+00 -0.00000000000E+00 -0.23957477909E+02  0.23957477909E+02  0.00000000000E+00 0. -1.
         24    2    1    2    0    0 -0.11609889355E+02 -0.16353234695E+02  0.17807452682E+03  0.19687236556E+03  0.81522839770E+02 0.  0.
         23    2    1    2    0    0  0.34516201202E+02 -0.51767145635E+02  0.27575860607E+03  0.29726669705E+03  0.91942780247E+02 0.  0.
        -13    1    3    3    0    0  0.24742366170E+02 -0.73685594185E+01  0.15654889275E+02  0.30191984198E+02  0.00000000000E+00 0.  1.
         14    1    3    3    0    0 -0.36352255526E+02 -0.89846752761E+01  0.16241963754E+03  0.16668038136E+03  0.00000000000E+00 0. -1.
        -11    1    4    4    0    0  0.42596652235E+02 -0.73244935083E+02  0.18224919068E+03  0.20098274255E+03  0.00000000000E+00 0. -1.
         11    1    4    4    0    0 -0.80804510330E+01  0.21477789447E+02  0.93509415386E+02  0.96283954500E+02  0.00000000000E+00 0.  1.
          1    1    1    2  501    0 -0.22906311847E+02  0.68120380330E+02  0.33560064033E+03  0.34320966643E+03  0.00000000000E+00 0. -1.
<scales pt_clust_5="13000.00000" pt_clust_6="13000.00000" pt_clust_7="13000.00000" pt_clust_8="13000.00000" pt_clust_9="71.86856"></scales>
<clustering>
<clus scale="   71.869">  2  9  1 -1</clus>
<clus scale="   81.523">  5  6 -1 -1</clus>
<clus scale="   85.911">  1  5  2 -1</clus>
<clus scale="   91.943">  7  8 -1 -1</clus>
<clus scale="   71.869">  2  5  1 -1</clus>
</clustering>
</event>
<event>
 9    2  0.4883225E-005  0.1320101E+03  0.7546771E-02  0.1230326E+00
          2   -1    0    0  502    0 -0.00000000000E+00  0.00000000000E+00  0.69534365408E+03  0.69534365408E+03  0.00000000000E+00 0. -1.
         21   -1    0    0  501  502  0.00000000000E+00 -0.00000000000E+00 -0.59660795608E+02  0.59660795608E+02  0.00000000000E+00 0. -1.
         24    2    1    2    0    0  0.80177329198E+02 -0.27006403114E+02  0.50644444679E+03  0.51999847396E+03  0.82186892573E+02 0.  0.
         23    2    1    2    0    0 -0.86583165787E+02 -0.29693103071E+02  0.76158735430E+02  0.15707446237E+03  0.10243978123E+03 0.  0.
        -13    1    3    3    0    0  0.34559307148E+01  0.23556094166E+02  0.68522190581E+02  0.72540496493E+02  0.00000000000E+00 0.  1.
         14    1    3    3    0    0  0.76721398483E+02 -0.50562497280E+02  0.43792225621E+03  0.44745797747E+03  0.00000000000E+00 0. -1.
        -11    1    4    4    0    0 -0.70692196378E+02 -0.55716107366E+02  0.18560030763E+02  0.91902916117E+02  0.00000000000E+00 0. -1.
         11    1    4    4    0    0 -0.15890969409E+02  0.26023004295E+02  0.57598704666E+02  0.65171546249E+02  0.00000000000E+00 0.  1.
          1    1    1    2  501    0  0.64058365896E+01  0.56699506185E+02  0.53079676257E+02  0.77931513367E+02  0.00000000000E+00 0. -1.
<scales pt_clust_5="13000.00000" pt_clust_6="13000.00000" pt_clust_7="13000.00000" pt_clust_8="13000.00000" pt_clust_9="57.06022"></scales>
<clustering>
<clus scale="   57.060">  2  9  1 -1</clus>
<clus scale="   82.187">  5  6 -1 -1</clus>
<clus scale="  102.440">  7  8 -1 -1</clus>
<clus scale="  116.993">  1  5  2 -1</clus>
<clus scale="   57.060">  2  5  1 -1</clus>
</clustering>
</event>
<event>
 9    2  0.4883225E-005  0.9279696E+02  0.7546771E-02  0.1300327E+00
         21   -1    0    0  501  502  0.00000000000E+00  0.00000000000E+00  0.14578095521E+02  0.14578095521E+02  0.00000000000E+00 0. -1.
          4   -1    0    0  502    0 -0.00000000000E+00 -0.00000000000E+00 -0.95220305956E+03  0.95220305956E+03  0.00000000000E+00 0. -1.
         24    2    1    2    0    0 -0.54272569931E+01 -0.20695519710E+02 -0.33661771503E+03  0.34691571529E+03  0.81125013338E+02 0.  0.
         23    2    1    2    0    0 -0.31146419676E+02  0.37299009047E+02 -0.30679307031E+03  0.32292219162E+03  0.88291779457E+02 0.  0.
        -13    1    3    3    0    0  0.23786849715E+02  0.21657812444E+02 -0.11602837148E+03  0.12040539044E+03  0.00000000000E+00 0.  1.
         14    1    3    3    0    0 -0.29214106708E+02 -0.42353332154E+02 -0.22058934355E+03  0.22651032485E+03  0.00000000000E+00 0. -1.
        -13    1    4    4    0    0  0.16408474341E+01  0.59975652192E+02 -0.20505971074E+03  0.21365686557E+03  0.00000000000E+00 0. -1.
         13    1    4    4    0    0 -0.32787267110E+02 -0.22676643145E+02 -0.10173335957E+03  0.10926532606E+03  0.00000000000E+00 0.  1.
          3    1    1    2  501    0  0.36573676669E+02 -0.16603489337E+02 -0.29421417870E+03  0.29694324817E+03  0.00000000000E+00 0. -1.
<scales pt_clust_5="13000.00000" pt_clust_6="13000.00000" pt_clust_7="13000.00000" pt_clust_8="13000.00000" pt_clust_9="40.16605"></scales>
<clustering>
<clus scale="   40.166">  1  9  2 -1</clus>
<clus scale="   81.125">  5  6 -1 -1</clus>
<clus scale="   86.006">  2  5  1 -1</clus>
<clus scale="   88.292">  7  8 -1 -1</clus>
<clus scale="   40.166">  1  5  2 -1</clus>
</clustering>
</event>
<event>
 9    2  0.4883225E-005  0.9221942E+02  0.7546771E-02  0.1301784E+00
         21   -1    0    0  501  502  0.00000000000E+00  0.00000000000E+00  0.27445431993E+02  0.27445431993E+02  0.00000000000E+00 0. -1.
          2   -1    0    0  502    0 -0.00000000000E+00 -0.00000000000E+00 -0.69730262757E+03  0.69730262757E+03  0.00000000000E+00 0. -1.
         23    2    1    2    0    0  0.23028189970E+02  0.86836345294E+01 -0.34399789834E+03  0.35656216122E+03  0.90533517059E+02 0.  0.
         24    2    1    2    0    0  0.31274878300E+02 -0.33674900291E+02 -0.11679466741E+03  0.15074301841E+03  0.83488600071E+02 0.  0.
        -13    1    4    4    0    0  0.59496180149E+02 -0.19620368695E+02 -0.88163742256E+02  0.10815544262E+03  0.00000000000E+00 0.  1.
         14    1    4    4    0    0 -0.28221301849E+02 -0.14054531595E+02 -0.28630925154E+02  0.42587575789E+02  0.00000000000E+00 0. -1.
        -13    1    3    3    0    0 -0.32455297425E+02 -0.63021885354E+01 -0.17397410796E+03  0.17708770187E+03  0.00000000000E+00 0.  1.
         13    1    3    3    0    0  0.55483487395E+02  0.14985823065E+02 -0.17002379038E+03  0.17947445936E+03  0.00000000000E+00 0. -1.
          1    1    1    2  501    0 -0.54303068270E+02  0.24991265761E+02 -0.20906462983E+03  0.21744287993E+03  0.00000000000E+00 0. -1.
<scales pt_clust_5="13000.00000" pt_clust_6="13000.00000" pt_clust_7="13000.00000" pt_clust_8="13000.00000" pt_clust_9="59.77784"></scales>
<clustering>
<clus scale="   59.778">  1  9  2 -1</clus>
<clus scale="   83.489">  5  6 -1 -1</clus>
<clus scale="   85.314">  1  5  2 -1</clus>
<clus scale="   90.534">  7  8 -1 -1</clus>
<clus scale="   59.778">  1  5  2 -1</clus>
</clustering>
</event>
<event>
 9    2  0.4883225E-005  0.1094735E+03  0.7546771E-02  0.1269263E+00
          2   -1    0    0  502    0 -0.00000000000E+00  0.00000000000E+00  0.56784951475E+03  0.56784951475E+03  0.00000000000E+00 0. -1.
         21   -1    0    0  501  502  0.00000000000E+00 -0.00000000000E+00 -0.54202065352E+02  0.54202065352E+02  0.00000000000E+00 0.  1.
         24    2    1    2    0    0  0.53572366196E+02  0.76682441249E+01  0.45170752750E+03  0.46208758775E+03  0.80971896094E+02 0.  0.
         23    2    1    2    0    0 -0.66267333334E+01  0.23525298147E-01  0.31391173701E+02  0.10342832416E+03  0.98326488317E+02 0.  0.
        -13    1    3    3    0    0  0.19054846752E+02  0.41159810033E+02  0.15472975529E+03  0.16124054800E+03  0.00000000000E+00 0.  1.
         14    1    3    3    0    0  0.34517519444E+02 -0.33491565908E+02  0.29697777221E+03  0.30084703975E+03  0.00000000000E+00 0. -1.
        -11    1    4    4    0    0 -0.12849394768E+02  0.39220543173E+02  0.45385969731E+02  0.61345286707E+02  0.00000000000E+00 0. -1.
         11    1    4    4    0    0  0.62226614347E+01 -0.39197017875E+02 -0.13994796030E+02  0.42083037456E+02  0.00000000000E+00 0.  1.
          1    1    1    2  501    0 -0.46945632863E+02 -0.76917694231E+01  0.30548748189E+02  0.56535668189E+02  0.00000000000E+00 0. -1.
<scales pt_clust_5="13000.00000" pt_clust_6="13000.00000" pt_clust_7="13000.00000" pt_clust_8="13000.00000" pt_clust_9="47.57159"></scales>
<clustering>
<clus scale="   47.572">  2  9  1 -1</clus>
<clus scale="   80.972">  5  6 -1 -1</clus>
<clus scale="   94.195">  1  5  2 -1</clus>
<clus scale="   98.326">  7  8 -1 -1</clus>
<clus scale="   47.572">  2  5  1 -1</clus>
</clustering>
</event>
<event>
 9    2  0.4883225E-005  0.1261247E+03  0.7546771E-02  0.1254525E+00
         -1   -1    0    0    0  501 -0.00000000000E+00  0.00000000000E+00  0.60347005286E+02  0.60347005286E+02  0.00000000000E+00 0.  1.
         21   -1    0    0  501  502  0.00000000000E+00 -0.00000000000E+00 -0.37012211452E+03  0.37012211452E+03  0.00000000000E+00 0.  1.
         24    2    1    2    0    0  0.72147441214E+01 -0.47688362994E+01 -0.89948983286E+02  0.12186427206E+03  0.81763603620E+02 0.  0.
         23    2    1    2    0    0 -0.65379895103E+02 -0.62150513735E+02 -0.14476451326E+03  0.19243415482E+03  0.89089407891E+02 0.  0.
        -11    1    3    3    0    0  0.16191263324E+02 -0.41392187382E+02 -0.51091459409E+02  0.67718589832E+02  0.00000000000E+00 0.  1.
         12    1    3    3    0    0 -0.89765192028E+01  0.36623351083E+02 -0.38857523877E+02  0.54145682223E+02  0.00000000000E+00 0. -1.
        -13    1    4    4    0    0 -0.68912724085E+02 -0.19413711102E+02 -0.12746079831E+03  0.14619203407E+03  0.00000000000E+00 0.  1.
         13    1    4    4    0    0  0.35328289823E+01 -0.42736802634E+02 -0.17303714953E+02  0.46242120747E+02  0.00000000000E+00 0. -1.
         -2    1    1    2    0  502  0.58165150981E+02  0.66919350035E+02 -0.75061612681E+02  0.11617069293E+03  0.00000000000E+00 0.  1.
<scales pt_clust_5="13000.00000" pt_clust_6="13000.00000" pt_clust_7="13000.00000" pt_clust_8="13000.00000" pt_clust_9="89.27777"></scales>
<clustering>
<clus scale="   81.764">  5  6 -1 -1</clus>
<clus scale="   82.220">  1  5  2 -1</clus>
<clus scale="   89.089">  7  8 -1 -1</clus>
<clus scale="   89.278">  2  9  1 -1</clus>
<clus scale="   89.278">  2  5  1 -1</clus>
</clustering>
</event>
<event>
 9    2  0.4883225E-005  0.1711137E+03  0.7546771E-02  0.1177543E+00
          2   -1    0    0  502    0 -0.00000000000E+00  0.00000000000E+00  0.15892774027E+04  0.15892774027E+04  0.00000000000E+00 0. -1.
         21   -1    0    0  501  502  0.00000000000E+00 -0.00000000000E+00 -0.75971844124E+02  0.75971844124E+02  0.00000000000E+00 0. -1.
         23    2    1    2    0    0 -0.15496877623E+03 -0.13607526251E+02  0.67690544475E+03  0.70047267204E+03  0.90887275101E+02 0.  0.
         24    2    1    2    0    0  0.70556065623E+02  0.16435054566E+03  0.74186310379E+03  0.76783442623E+03  0.84968117990E+02 0.  0.
        -13    1    4    4    0    0  0.31680979235E+02  0.11193299339E+02  0.70091108945E+02  0.77728617307E+02  0.00000000000E+00 0.  1.
         14    1    4    4    0    0  0.38875086388E+02  0.15315724632E+03  0.67177199485E+03  0.69010580892E+03  0.00000000000E+00 0. -1.
        -11    1    3    3    0    0 -0.15434953909E+03  0.10711204265E+02  0.60880680384E+03  0.62815940216E+03  0.00000000000E+00 0.  1.
         11    1    3    3    0    0 -0.61923713694E+00 -0.24318730515E+02  0.68098640905E+02  0.72313269886E+02  0.00000000000E+00 0. -1.
          1    1    1    2  501    0  0.84412710604E+02 -0.15074301940E+03  0.94537010034E+02  0.19694214855E+03  0.00000000000E+00 0. -1.
<scales pt_clust_5="13000.00000" pt_clust_6="13000.00000" pt_clust_7="13000.00000" pt_clust_8="13000.00000" pt_clust_9="172.76853"></scales>
<clustering>
<clus scale="   84.968">  5  6 -1 -1</clus>
<clus scale="   90.887">  7  8 -1 -1</clus>
<clus scale="  172.769">  2  9  1 -1</clus>
<clus scale="  172.769">  2  5  1 -1</clus>
<clus scale="  171.114">  2  5  1 -1</clus>
</clustering>
</event>
<event>
 9    2  0.4883225E-005  0.9182336E+02  0.7546771E-02  0.1303332E+00
         21   -1    0    0  501  502  0.00000000000E+00  0.00000000000E+00  0.35082623960E+03  0.35082623960E+03  0.00000000000E+00 0. -1.
         -1   -1    0    0    0  501 -0.00000000000E+00 -0.00000000000E+00 -0.16080061548E+03  0.16080061548E+03  0.00000000000E+00 0.  1.
         24    2    1    2    0    0 -0.19040819322E+02  0.15724138826E+02 -0.13850715956E+03  0.16187057271E+03  0.80050282429E+02 0.  0.
         23    2    1    2    0    0  0.26723441331E+02 -0.35231624616E+02  0.26048672942E+03  0.27855354238E+03  0.88223183341E+02 0.  0.
        -13    1    3    3    0    0 -0.47750996615E+02  0.22415563904E+02 -0.73285811350E+02  0.90296319571E+02  0.00000000000E+00 0.  1.
         14    1    3    3    0    0  0.28710177292E+02 -0.66914250779E+01 -0.65221348209E+02  0.71574253136E+02  0.00000000000E+00 0. -1.
        -11    1    4    4    0    0  0.20273277633E+02  0.26731288430E+02  0.61670849828E+02  0.70205849369E+02  0.00000000000E+00 0.  1.
         11    1    4    4    0    0  0.64501636982E+01 -0.61962913046E+02  0.19881587960E+03  0.20834769301E+03  0.00000000000E+00 0. -1.
         -2    1    1    2    0  502 -0.76826220094E+01  0.19507485790E+02  0.68046054258E+02  0.71202739995E+02  0.00000000000E+00 0.  1.
<scales pt_clust_5="13000.00000" pt_clust_6="13000.00000" pt_clust_7="13000.00000" pt_clust_8="13000.00000" pt_clust_9="20.96580"></scales>
<clustering>
<clus scale="   20.966">  1  9  2 -1</clus>
<clus scale="   80.050">  5  6 -1 -1</clus>
<clus scale="   84.001">  2  5  1 -1</clus>
<clus scale="   88.223">  7  8 -1 -1</clus>
<clus scale="   20.966">  1  5  2 -1</clus>
</clustering>
</event>
<event>
 9    2  0.4883225E-005  0.8863344E+02  0.7546771E-02  0.1313709E+00
          2   -1    0    0  502    0 -0.00000000000E+00  0.00000000000E+00  0.33527759827E+03  0.33527759827E+03  0.00000000000E+00 0. -1.
         21   -1    0    0  501  502  0.00000000000E+00 -0.00000000000E+00 -0.63394904002E+02  0.63394904002E+02  0.00000000000E+00 0.  1.
         23    2    1    2    0    0 -0.52330392866E+01 -0.11291236474E+02  0.16468339737E+03  0.18716717710E+03  0.88068462530E+02 0.  0.
         24    2    1    2    0    0 -0.31283195951E+02  0.36409821256E+01 -0.14548999752E+02  0.84168725704E+02  0.76686412702E+02 0.  0.
        -11    1    4    4    0    0 -0.30947635900E+02  0.69412805660E+01 -0.44161650194E+02  0.54370845971E+02  0.00000000000E+00 0.  1.
         12    1    4    4    0    0 -0.33556005129E+00 -0.33002984404E+01  0.29612650443E+02  0.29797879733E+02  0.00000000000E+00 0. -1.
        -13    1    3    3    0    0 -0.29751572074E+02 -0.40501686814E+02  0.10380295451E+03  0.11532821008E+03  0.00000000000E+00 0.  1.
         13    1    3    3    0    0  0.24518532788E+02  0.29210450340E+02  0.60880442858E+02  0.71838967015E+02  0.00000000000E+00 0. -1.
          1    1    1    2  501    0  0.36516235238E+02  0.76502543483E+01  0.12174829665E+03  0.12733659947E+03  0.00000000000E+00 0. -1.
<scales pt_clust_5="13000.00000" pt_clust_6="13000.00000" pt_clust_7="13000.00000" pt_clust_8="13000.00000" pt_clust_9="37.30902"></scales>
<clustering>
<clus scale="   37.309">  2  9  1 -1</clus>
<clus scale="   76.686">  5  6 -1 -1</clus>
<clus scale="   77.335">  2  5  1 -1</clus>
<clus scale="   88.068">  7  8 -1 -1</clus>
<clus scale="   37.309">  2  5  1 -1</clus>
</clustering>
</event>
<event>
 9    2  0.4883225E-005  0.1015527E+03  0.7546771E-02  0.1282238E+00
          2   -1    0    0  502    0 -0.00000000000E+00  0.00000000000E+00  0.26077521840E+03  0.26077521840E+03  0.00000000000E+00 0. -1.
         21   -1    0    0  501  502  0.00000000000E+00 -0.00000000000E+00 -0.17631641362E+03  0.17631641362E+03  0.00000000000E+00 0. -1.
         24    2    1    2    0    0  0.41492297765E+02  0.33577102785E+02  0.20564094446E+03  0.22692953300E+03  0.79748243255E+02 0.  0.
         23    2    1    2    0    0 -0.14205431355E+02  0.30597965101E+02 -0.44172351829E+02  0.10627023291E+03  0.90576685680E+02 0.  0.
        -11    1    3    3    0    0  0.56964872801E+02  0.17647806906E+02  0.82471513901E+02  0.10177422280E+03  0.00000000000E+00 0.  1.
         12    1    3    3    0    0 -0.15472575037E+02  0.15929295880E+02  0.12316943056E+03  0.12515531020E+03  0.00000000000E+00 0. -1.
        -11    1    4    4    0    0  0.15709273220E+02  0.55301114416E+02 -0.30896746120E+02  0.65265637525E+02  0.00000000000E+00 0. -1.
         11    1    4    4    0    0 -0.29914704575E+02 -0.24703149315E+02 -0.13275605709E+02  0.41004595387E+02  0.00000000000E+00 0.  1.
          1    1    1    2  501    0 -0.27286866409E+02 -0.64175067886E+02 -0.77009787859E+02  0.10389186610E+03  0.00000000000E+00 0. -1.
<scales pt_clust_5="13000.00000" pt_clust_6="13000.00000" pt_clust_7="13000.00000" pt_clust_8="13000.00000" pt_clust_9="69.73530"></scales>
<clustering>
<clus scale="   69.735">  2  9  1 -1</clus>
<clus scale="   79.748">  5  6 -1 -1</clus>
<clus scale="   90.577">  7  8 -1 -1</clus>
<clus scale="   92.025">  1  5  2 -1</clus>
<clus scale="   69.735">  2  5  1 -1</clus>
</clustering>
</event>
<event>
 9    2  0.4883225E-005  0.1006802E+03  0.7546771E-02  0.1290573E+00
         21   -1    0    0  501  502  0.00000000000E+00  0.00000000000E+00  0.52678447682E+02  0.52678447682E+02  0.00000000000E+00 0. -1.
          2   -1    0    0  502    0 -0.00000000000E+00 -0.00000000000E+00 -0.54544933775E+03  0.54544933775E+03  0.00000000000E+00 0. -1.
         24    2    1    2    0    0  0.25078627508E+02  0.14959119359E+02 -0.14487473629E+03  0.16536996040E+03  0.74201224898E+02 0.  0.
         23    2    1    2    0    0 -0.56413062480E+02  0.51313662175E+02 -0.60944790003E+02  0.13659061963E+03  0.95536403523E+02 0.  0.
        -11    1    3    3    0    0  0.48544452425E+02  0.22962292482E+02 -0.11185738723E+03  0.12408023943E+03  0.00000000000E+00 0.  1.
         12    1    3    3    0    0 -0.23465824916E+02 -0.80031731225E+01 -0.33017349058E+02  0.41289720971E+02  0.00000000000E+00 0. -1.
        -13    1    4    4    0    0 -0.21147392670E+02  0.72084232622E+02 -0.17963389490E+02  0.77240094325E+02  0.00000000000E+00 0. -1.
         13    1    4    4    0    0 -0.35265669809E+02 -0.20770570447E+02 -0.42981400513E+02  0.59350525304E+02  0.00000000000E+00 0.  1.
          1    1    1    2  501    0  0.31334434971E+02 -0.66272781534E+02 -0.28695136377E+03  0.29616720541E+03  0.00000000000E+00 0. -1.
<scales pt_clust_5="13000.00000" pt_clust_6="13000.00000" pt_clust_7="13000.00000" pt_clust_8="13000.00000" pt_clust_9="73.30712"></scales>
<clustering>
<clus scale="   73.307">  1  9  2 -1</clus>
<clus scale="   74.201">  5  6 -1 -1</clus>
<clus scale="   80.716">  2  5  1 -1</clus>
<clus scale="   95.536">  7  8 -1 -1</clus>
<clus scale="   73.307">  1  5  2 -1</clus>
</clustering>
</event>
<event>
 9    2  0.4883225E-005  0.1061114E+03  0.7546771E-02  0.1275311E+00
         21   -1    0    0  501  502  0.00000000000E+00  0.00000000000E+00  0.38232258214E+03  0.38232258214E+03  0.00000000000E+00 0.  1.
          2   -1    0    0  502    0 -0.00000000000E+00 -0.00000000000E+00 -0.11558212626E+03  0.11558212626E+03  0.00000000000E+00 0. -1.
         24    2    1    2    0    0 -0.23610003047E+02 -0.38557468410E+02 -0.81405904074E+02  0.12369824002E+03  0.81426179762E+02 0.  0.
         23    2    1    2    0    0  0.31343748641E+01  0.10419480054E+02  0.29447548328E+03  0.31024115949E+03  0.97032865149E+02 0.  0.
        -13    1    3    3    0    0  0.85960044525E+01  0.21817200394E+02 -0.12437109379E+02  0.26543609688E+02  0.00000000000E+00 0.  1.
         14    1    3    3    0    0 -0.32206007499E+02 -0.60374668804E+02 -0.68968794696E+02  0.97154630327E+02  0.00000000000E+00 0. -1.
        -13    1    4    4    0    0 -0.44250144767E+02  0.11743273082E+01  0.92080477468E+02  0.10216784566E+03  0.00000000000E+00 0.  1.
         13    1    4    4    0    0  0.47384519631E+02  0.92451527462E+01  0.20239500581E+03  0.20807331383E+03  0.00000000000E+00 0. -1.
          1    1    1    2  501    0  0.20475628183E+02  0.28137988356E+02  0.53670876674E+02  0.63965308888E+02  0.00000000000E+00 0. -1.
<scales pt_clust_5="13000.00000" pt_clust_6="13000.00000" pt_clust_7="13000.00000" pt_clust_8="13000.00000" pt_clust_9="34.79939"></scales>
<clustering>
<clus scale="   34.799">  1  9  2 -1</clus>
<clus scale="   81.426">  5  6 -1 -1</clus>
<clus scale="   92.057">  2  5  1 -1</clus>
<clus scale="   97.033">  7  8 -1 -1</clus>
<clus scale="   34.799">  1  5  2 -1</clus>
</clustering>
</event>
<event>
 9    2  0.4883225E-005  0.1115024E+03  0.7546771E-02  0.1262917E+00
          2   -1    0    0  502    0 -0.00000000000E+00  0.00000000000E+00  0.10002935755E+03  0.10002935755E+03  0.00000000000E+00 0. -1.
         21   -1    0    0  501  502  0.00000000000E+00 -0.00000000000E+00 -0.25637884506E+03  0.25637884506E+03  0.00000000000E+00 0. -1.
         24    2    1    2    0    0  0.45014629812E+02  0.50860197552E+02 -0.69627447167E+00  0.10726793619E+03  0.83023181969E+02 0.  0.
         23    2    1    2    0    0  0.18150106728E+02 -0.43119488522E+02 -0.15174434546E+03  0.18538305692E+03  0.95665117714E+02 0.  0.
        -13    1    3    3    0    0  0.22556579277E+02 -0.63714737278E+00 -0.34851471040E+02  0.41519034901E+02  0.00000000000E+00 0.  1.
         14    1    3    3    0    0  0.22458050535E+02  0.51497344925E+02  0.34155196568E+02  0.65748901289E+02  0.00000000000E+00 0. -1.
        -11    1    4    4    0    0  0.34636010375E+02 -0.10962938014E+02 -0.80449321965E+01  0.37209678293E+02  0.00000000000E+00 0.  1.
         11    1    4    4    0    0 -0.16485903648E+02 -0.32156550508E+02 -0.14369941327E+03  0.14817337862E+03  0.00000000000E+00 0. -1.
          1    1    1    2  501    0 -0.63164736540E+02 -0.77407090303E+01 -0.39088675743E+01  0.63757209507E+02  0.00000000000E+00 0. -1.
<scales pt_clust_5="13000.00000" pt_clust_6="13000.00000" pt_clust_7="13000.00000" pt_clust_8="13000.00000" pt_clust_9="63.63730"></scales>
<clustering>
<clus scale="   63.637">  2  9  1 -1</clus>
<clus scale="   83.023">  5  6 -1 -1</clus>
<clus scale="   95.665">  7  8 -1 -1</clus>
<clus scale="  100.865">  1  5  2 -1</clus>
<clus scale="   63.637">  2  5  1 -1</clus>
</clustering>
</event>
<event>
 9    2  0.4883225E-005  0.9930276E+02  0.7546771E-02  0.1285587E+00
         21   -1    0    0  501  502  0.00000000000E+00  0.00000000000E+00  0.31951748305E+02  0.31951748305E+02  0.00000000000E+00 0.  1.
          2   -1    0    0  502    0 -0.00000000000E+00 -0.00000000000E+00 -0.75370803221E+03  0.75370803221E+03  0.00000000000E+00 0. -1.
         24    2    1    2    0    0  0.60063802458E+02  0.64615284498E+01 -0.39767624956E+03  0.40982399161E+03  0.78484985324E+02 0.  0.
         23    2    1    2    0    0 -0.14298964031E+01 -0.29353730361E+02 -0.72916316143E+02  0.11690490780E+03  0.86523304480E+02 0.  0.
        -11    1    3    3    0    0  0.32348354174E+02  0.39540454910E+02 -0.15117421950E+03  0.15957289317E+03  0.00000000000E+00 0.  1.
         12    1    3    3    0    0  0.27715448284E+02 -0.33078926460E+02 -0.24650203006E+03  0.25025109845E+03  0.00000000000E+00 0. -1.
        -13    1    4    4    0    0 -0.38136588524E+02 -0.86598568942E+01 -0.86448397085E+01  0.40051538788E+02  0.00000000000E+00 0.  1.
         13    1    4    4    0    0  0.36706692121E+02 -0.20693873467E+02 -0.64271476435E+02  0.76853369013E+02  0.00000000000E+00 0. -1.
          1    1    1    2  501    0 -0.58633906055E+02  0.22892201911E+02 -0.25116371820E+03  0.25893088110E+03  0.00000000000E+00 0. -1.
<scales pt_clust_5="13000.00000" pt_clust_6="13000.00000" pt_clust_7="13000.00000" pt_clust_8="13000.00000" pt_clust_9="62.94435"></scales>
<clustering>
<clus scale="   62.944">  1  9  2 -1</clus>
<clus scale="   78.485">  5  6 -1 -1</clus>
<clus scale="   86.523">  7  8 -1 -1</clus>
<clus scale="   92.383">  2  5  1 -1</clus>
<clus scale="   62.944">  1  5  2 -1</clus>
</clustering>
</event>
<event>
 9    2  0.4883225E-005  0.1721856E+03  0.7546771E-02  0.1176433E+00
         21   -1    0    0  501  502  0.00000000000E+00  0.00000000000E+00  0.44716383107E+02  0.44716383107E+02  0.00000000000E+00 0.  1.
          2   -1    0    0  502    0 -0.00000000000E+00 -0.00000000000E+00 -0.13552103375E+04  0.13552103375E+04  0.00000000000E+00 0. -1.
         24    2    1    2    0    0 -0.15024424946E+03  0.31484279147E+02 -0.11126869218E+04  0.11264339016E+04  0.84950305230E+02 0.  0.
         23    2    1    2    0    0  0.11558083537E+03 -0.14073862627E+02 -0.17214315750E+03  0.22698142942E+03  0.91270474493E+02 0.  0.
        -13    1    3    3    0    0 -0.41107623733E+02  0.46459540492E+02 -0.30277881418E+03  0.30906849718E+03  0.00000000000E+00 0.  1.
         14    1    3    3    0    0 -0.10913662573E+03 -0.14975261344E+02 -0.80990810761E+03  0.81736540440E+03  0.00000000000E+00 0. -1.
        -13    1    4    4    0    0  0.56872051067E+02  0.29849371566E+02 -0.12286135890E+03  0.13863740003E+03  0.00000000000E+00 0.  1.
         13    1    4    4    0    0  0.58708784299E+02 -0.43923234193E+02 -0.49281798597E+02  0.88344029389E+02  0.00000000000E+00 0. -1.
          1    1    1    2  501    0  0.34663414095E+02 -0.17410416520E+02 -0.25663875137E+02  0.46511389649E+02  0.00000000000E+00 0. -1.
<scales pt_clust_5="13000.00000" pt_clust_6="13000.00000" pt_clust_7="13000.00000" pt_clust_8="13000.00000" pt_clust_9="38.79014"></scales>
<clustering>
<clus scale="   38.790">  1  9  2 -1</clus>
<clus scale="   84.950">  5  6 -1 -1</clus>
<clus scale="   91.270">  7  8 -1 -1</clus>
<clus scale="  168.920">  2  5  1 -1</clus>
<clus scale="   38.790">  1  5  2 -1</clus>
</clustering>
</event>
<event>
 9    2  0.4883225E-005  0.9062518E+02  0.7546771E-02  0.1302068E+00
         21   -1    0    0  501  502  0.00000000000E+00  0.00000000000E+00  0.78944631564E+02  0.78944631564E+02  0.00000000000E+00 0.  1.
          4   -1    0    0  502    0 -0.00000000000E+00 -0.00000000000E+00 -0.17898326584E+03  0.17898326584E+03  0.00000000000E+00 0. -1.
         24    2    1    2    0    0  0.46543299037E+02 -0.49290182489E+01 -0.66046888232E+02  0.11399097359E+03  0.80256941817E+02 0.  0.
         23    2    1    2    0    0 -0.28927118880E+02  0.19246251062E+02  0.17221919001E+02  0.87917708837E+02  0.78903312011E+02 0.  0.
        -11    1    3    3    0    0  0.50808243180E+02  0.29139884655E+02 -0.41385240156E+02  0.71717142690E+02  0.00000000000E+00 0.  1.
         12    1    3    3    0    0 -0.42649441428E+01 -0.34068902904E+02 -0.24661648075E+02  0.42273830905E+02  0.00000000000E+00 0. -1.
        -13    1    4    4    0    0 -0.25926675750E+00  0.29871307606E+02  0.39905776787E+02  0.49848101852E+02  0.00000000000E+00 0.  1.
         13    1    4    4    0    0 -0.28667852123E+02 -0.10625056544E+02 -0.22683857785E+02  0.38069606984E+02  0.00000000000E+00 0. -1.
          3    1    1    2  501    0 -0.17616180157E+02 -0.14317232813E+02 -0.51213665049E+02  0.56019214976E+02  0.00000000000E+00 0. -1.
<scales pt_clust_5="13000.00000" pt_clust_6="13000.00000" pt_clust_7="13000.00000" pt_clust_8="13000.00000" pt_clust_9="22.70052"></scales>
<clustering>
<clus scale="   22.701">  1  9  2 -1</clus>
<clus scale="   78.903">  7  8 -1 -1</clus>
<clus scale="   80.257">  5  6 -1 -1</clus>
<clus scale="   89.429">  1  7  2 -1</clus>
<clus scale="   22.701">  1  5  2 -1</clus>
</clustering>
</event>
<event>
 9    2  0.4883225E-005  0.9382859E+02  0.7546771E-02  0.1299666E+00
         21   -1    0    0  501  502  0.00000000000E+00  0.00000000000E+00  0.73772812002E+02  0.73772812002E+02  0.00000000000E+00 0.  1.
          2   -1    0    0  502    0 -0.00000000000E+00 -0.00000000000E+00 -0.16107257709E+03  0.16107257709E+03  0.00000000000E+00 0. -1.
         24    2    1    2    0    0 -0.24311005977E+02 -0.97110496069E+01 -0.67160196047E+02  0.10852192759E+03  0.81124517498E+02 0.  0.
         23    2    1    2    0    0  0.19836392418E+02 -0.14506218827E+02 -0.31176674777E+02  0.99336131876E+02  0.91059152188E+02 0.  0.
        -11    1    3    3    0    0 -0.33978730436E+02  0.25151571498E+02 -0.14621747949E+02  0.44731992845E+02  0.00000000000E+00 0.  1.
         12    1    3    3    0    0  0.96677244589E+01 -0.34862621105E+02 -0.52538448098E+02  0.63789934747E+02  0.00000000000E+00 0. -1.
        -13    1    4    4    0    0  0.43597284086E+02 -0.81355390016E+01  0.15164031329E+02  0.46870652019E+02  0.00000000000E+00 0.  1.
         13    1    4    4    0    0 -0.23760891668E+02 -0.63706798251E+01 -0.46340706106E+02  0.52465479858E+02  0.00000000000E+00 0. -1.
          1    1    1    2  501    0  0.44746135590E+01  0.24217268434E+02  0.11037105740E+02  0.26987329620E+02  0.00000000000E+00 0. -1.
<scales pt_clust_5="13000.00000" pt_clust_6="13000.00000" pt_clust_7="13000.00000" pt_clust_8="13000.00000" pt_clust_9="24.62719"></scales>
<clustering>
<clus scale="   24.627">  1  9  2 -1</clus>
<clus scale="   81.125">  5  6 -1 -1</clus>
<clus scale="   84.221">  2  5  1 -1</clus>
<clus scale="   91.059">  7  8 -1 -1</clus>
<clus scale="   24.627">  1  5  2 -1</clus>
</clustering>
</event>
<event>
 9    2  0.4883225E-005  0.4326756E+03  0.7546771E-02  0.1049482E+00
         21   -1    0    0  501  502  0.00000000000E+00  0.00000000000E+00  0.16120196536E+03  0.16120196536E+03  0.00000000000E+00 0. -1.
          2   -1    0    0  502    0 -0.00000000000E+00 -0.00000000000E+00 -0.23169596629E+04  0.23169596629E+04  0.00000000000E+00 0. -1.
         24    2    1    2    0    0 -0.24050004523E+03 -0.98401814663E+02 -0.27466093995E+03  0.38396316123E+03  0.66827302550E+02 0.  0.
         23    2    1    2    0    0 -0.11911125482E+03 -0.26334077815E+03 -0.12315827731E+04  0.12683374577E+04  0.91366970285E+02 0.  0.
        -13    1    3    3    0    0 -0.12297494782E+03 -0.30773087133E+02 -0.17308628383E+03  0.21454296151E+03  0.00000000000E+00 0.  1.
         14    1    3    3    0    0 -0.11752509741E+03 -0.67628727529E+02 -0.10157465611E+03  0.16942019972E+03  0.00000000000E+00 0. -1.
        -13    1    4    4    0    0 -0.61523406091E+02 -0.46387610886E+02 -0.26094665954E+03  0.27208472773E+03  0.00000000000E+00 0.  1.
         13    1    4    4    0    0 -0.57587848733E+02 -0.21695316727E+03 -0.97063611356E+03  0.99625273002E+03  0.00000000000E+00 0. -1.
          1    1    1    2  501    0  0.35961130006E+03  0.36174259282E+03 -0.64951398447E+03  0.82586100925E+03  0.00000000000E+00 0. -1.
<scales pt_clust_5="13000.00000" pt_clust_6="13000.00000" pt_clust_7="13000.00000" pt_clust_8="13000.00000" pt_clust_9="422.91871"></scales>
<clustering>
<clus scale="   66.827">  5  6 -1 -1</clus>
<clus scale="   91.367">  7  8 -1 -1</clus>
<clus scale="  268.308">  2  5  1 -1</clus>
<clus scale="  422.919">  1  9  2 -1</clus>
<clus scale="  422.919">  1  5  2 -1</clus>
</clustering>
</event>
<event>
 9    2  0.8941629E-005  0.9508155E+02  0.7546771E-02  0.1297142E+00
          4   -1    0    0  502    0 -0.00000000000E+00  0.00000000000E+00  0.29935450068E+03  0.29935450068E+03  0.00000000000E+00 0. -1.
         21   -1    0    0  501  502  0.00000000000E+00 -0.00000000000E+00 -0.16898502626E+03  0.16898502626E+03  0.00000000000E+00 0. -1.
         23    2    1    2    0    0 -0.18964193655E+02  0.92800696858E+01  0.26456223921E+03  0.28102166674E+03  0.92380941902E+02 0.  0.
         24    2    1    2    0    0  0.45735174188E+02  0.76186126426E+01 -0.75222185890E+02  0.12038670123E+03  0.81760816821E+02 0.  0.
        -13    1    4    4    0    0  0.34065902471E+02 -0.31969955160E+02 -0.60780287437E+02  0.76660335801E+02  0.00000000000E+00 0.  1.
         14    1    4    4    0    0  0.11669271717E+02  0.39588567803E+02 -0.14441898452E+02  0.43726365433E+02  0.00000000000E+00 0. -1.
        -13    1    3    3    0    0  0.37265853824E+02  0.95887809507E+01  0.11209815501E+03  0.11851871134E+03  0.00000000000E+00 0.  1.
         13    1    3    3    0    0 -0.56230047479E+02 -0.30871126485E+00  0.15246408420E+03  0.16250295540E+03  0.00000000000E+00 0. -1.
          3    1    1    2  501    0 -0.26770980533E+02 -0.16898682328E+02 -0.58970578910E+02  0.66931158963E+02  0.00000000000E+00 0. -1.
<scales pt_clust_5="13000.00000" pt_clust_6="13000.00000" pt_clust_7="13000.00000" pt_clust_8="13000.00000" pt_clust_9="31.65835"></scales>
<clustering>
<clus scale="   31.658">  2  9  1 -1</clus>
<clus scale="   81.761">  5  6 -1 -1</clus>
<clus scale="   84.800">  2  5  1 -1</clus>
<clus scale="   92.381">  7  8 -1 -1</clus>
<clus scale="   31.658">  2  5  1 -1</clus>
</clustering>
</event>
<event>
 9    2  0.4883225E-005  0.3145872E+03  0.7546771E-02  0.1098391E+00
          2   -1    0    0  502    0 -0.00000000000E+00  0.00000000000E+00  0.41678611012E+03  0.41678611012E+03  0.00000000000E+00 0. -1.
         21   -1    0    0  501  502  0.00000000000E+00 -0.00000000000E+00 -0.11182976977E+04  0.11182976977E+04  0.00000000000E+00 0. -1.
         24    2    1    2    0    0 -0.88021516338E+02 -0.14095029370E+03 -0.22202701634E+02  0.18532411757E+03  0.78976553226E+02 0.  0.
         23    2    1    2    0    0 -0.22295879884E+03  0.11910553776E+03  0.25328443646E+03  0.36644069075E+03  0.78924134287E+02 0.  0.
        -13    1    3    3    0    0 -0.72078053511E+02 -0.41783634676E+02 -0.53997540693E+01  0.83488174425E+02  0.00000000000E+00 0.  1.
         14    1    3    3    0    0 -0.15943462827E+02 -0.99166659023E+02 -0.16802947565E+02  0.10183594314E+03  0.00000000000E+00 0. -1.
        -13    1    4    4    0    0 -0.67597707482E+02  0.75285992837E+02  0.12107510727E+03  0.15778660391E+03  0.00000000000E+00 0.  1.
         13    1    4    4    0    0 -0.15536109136E+03  0.43819544928E+02  0.13220932919E+03  0.20865408683E+03  0.00000000000E+00 0. -1.
          1    1    1    2  501    0  0.31098031518E+03  0.21844755934E+02 -0.93259332238E+03  0.98331899948E+03  0.00000000000E+00 0. -1.
<scales pt_clust_5="13000.00000" pt_clust_6="13000.00000" pt_clust_7="13000.00000" pt_clust_8="13000.00000" pt_clust_9="304.52601"></scales>
<clustering>
<clus scale="   78.924">  7  8 -1 -1</clus>
<clus scale="   78.977">  5  6 -1 -1</clus>
<clus scale="  183.989">  1  5  2 -1</clus>
<clus scale="  304.526">  2  9  1 -1</clus>
<clus scale="  304.526">  2  5  1 -1</clus>
</clustering>
</event>
<event>
 9    2  0.4883225E-005  0.1442247E+03  0.7546771E-02  0.1225082E+00
         21   -1    0    0  501  502  0.00000000000E+00  0.00000000000E+00  0.89412034255E+03  0.89412034255E+03  0.00000000000E+00 0.  1.
         -1   -1    0    0    0  501 -0.00000000000E+00 -0.00000000000E+00 -0.40490673657E+02  0.40490673657E+02  0.00000000000E+00 0.  1.
         24    2    1    2    0    0  0.14152559427E+01 -0.59657386480E+02  0.23459785873E+03  0.25502837688E+03  0.80264008015E+02 0.  0.
         23    2    1    2    0    0 -0.10890690300E+03 -0.10001814548E+02  0.41805634483E+03  0.44125933761E+03  0.89319347071E+02 0.  0.
        -11    1    3    3    0    0 -0.53310690596E+00 -0.73488642233E+02  0.22805567310E+03  0.23960437136E+03  0.00000000000E+00 0.  1.
         12    1    3    3    0    0  0.19483628487E+01  0.13831255753E+02  0.65421856238E+01  0.15424005518E+02  0.00000000000E+00 0. -1.
        -13    1    4    4    0    0 -0.77965790922E+02  0.34276624792E+02  0.29073908639E+03  0.30295670964E+03  0.00000000000E+00 0.  1.
         13    1    4    4    0    0 -0.30941112075E+02 -0.44278439339E+02  0.12731725844E+03  0.13830262797E+03  0.00000000000E+00 0. -1.
         -2    1    1    2    0  502  0.10749164705E+03  0.69659201028E+02  0.20097546533E+03  0.23832330172E+03  0.00000000000E+00 0.  1.
<scales pt_clust_5="13000.00000" pt_clust_6="13000.00000" pt_clust_7="13000.00000" pt_clust_8="13000.00000" pt_clust_9="113.23796"></scales>
<clustering>
<clus scale="   80.264">  5  6 -1 -1</clus>
<clus scale="   89.319">  7  8 -1 -1</clus>
<clus scale="  100.017">  2  5  1 -1</clus>
<clus scale="  113.238">  1  9  2 -1</clus>
<clus scale="  113.238">  1  5  2 -1</clus>
</clustering>
</event>
<event>
 9    2  0.4883225E-005  0.1472420E+03  0.7546771E-02  0.1205844E+00
         21   -1    0    0  501  502  0.00000000000E+00  0.00000000000E+00  0.84229511700E+03  0.84229511700E+03  0.00000000000E+00 0. -1.
         -1   -1    0    0    0  501 -0.00000000000E+00 -0.00000000000E+00 -0.11712564479E+03  0.11712564479E+03  0.00000000000E+00 0.  1.
         23    2    1    2    0    0  0.84411407766E+02 -0.11157921523E+03  0.38537608833E+03  0.41994944254E+03  0.90926331757E+02 0.  0.
         24    2    1    2    0    0 -0.31457685751E+02  0.87146278530E+02  0.42151440564E+03  0.43907515165E+03  0.80799348845E+02 0.  0.
        -13    1    4    4    0    0  0.24694694651E+02  0.48732198785E+02  0.20219135912E+03  0.20944211812E+03  0.00000000000E+00 0.  1.
         14    1    4    4    0    0 -0.56152380402E+02  0.38414079745E+02  0.21932304653E+03  0.22963303353E+03  0.00000000000E+00 0. -1.
        -11    1    3    3    0    0 -0.19465900402E+01 -0.36572499511E+02  0.19046094915E+03  0.19395027735E+03  0.00000000000E+00 0.  1.
         11    1    3    3    0    0  0.86357997806E+02 -0.75006715718E+02  0.19491513918E+03  0.22599916519E+03  0.00000000000E+00 0. -1.
         -2    1    1    2    0  502 -0.52953722014E+02  0.24432936699E+02 -0.81721021763E+02  0.10039616760E+03  0.00000000000E+00 0.  1.
<scales pt_clust_5="13000.00000" pt_clust_6="13000.00000" pt_clust_7="13000.00000" pt_clust_8="13000.00000" pt_clust_9="58.31868"></scales>
<clustering>
<clus scale="   58.319">  1  9  2 -1</clus>
<clus scale="   80.799">  5  6 -1 -1</clus>
<clus scale="   90.926">  7  8 -1 -1</clus>
<clus scale="  141.213">  1  5  2 -1</clus>
<clus scale="   58.319">  1  5  2 -1</clus>
</clustering>
</event>
<event>
 9    2  0.4883225E-005  0.1185126E+03  0.7546771E-02  0.1249833E+00
         21   -1    0    0  501  502  0.00000000000E+00  0.00000000000E+00  0.16103652606E+03  0.16103652606E+03  0.00000000000E+00 0. -1.
         -3   -1    0    0    0  501 -0.00000000000E+00 -0.00000000000E+00 -0.17379799218E+03  0.17379799218E+03  0.00000000000E+00 0.  1.
         24    2    1    2    0    0  0.29683046415E+02  0.61691385637E+02  0.22129734138E+02  0.10758118367E+03  0.79981720668E+02 0.  0.
         23    2    1    2    0    0 -0.94601454907E+02 -0.22208641101E+02  0.16758574797E+02  0.13537849503E+03  0.92756822264E+02 0.  0.
        -13    1    3    3    0    0 -0.63102144114E+00  0.71780833569E+02  0.66831227362E+01  0.72094038487E+02  0.00000000000E+00 0.  1.
         14    1    3    3    0    0  0.30314067856E+02 -0.10089447932E+02  0.15446611402E+02  0.35487145185E+02  0.00000000000E+00 0. -1.
        -11    1    4    4    0    0 -0.14127025766E+02 -0.47603322047E+02  0.10554228427E+02  0.50764563079E+02  0.00000000000E+00 0.  1.
         11    1    4    4    0    0 -0.80474429141E+02  0.25394680946E+02  0.62043463701E+01  0.84613931948E+02  0.00000000000E+00 0. -1.
         -4    1    1    2    0  502  0.64918408492E+02 -0.39482744536E+02 -0.51649775054E+02  0.91874839539E+02  0.00000000000E+00 0.  1.
<scales pt_clust_5="13000.00000" pt_clust_6="13000.00000" pt_clust_7="13000.00000" pt_clust_8="13000.00000" pt_clust_9="75.98219"></scales>
<clustering>
<clus scale="   75.982">  1  9  2 -1</clus>
<clus scale="   79.982">  5  6 -1 -1</clus>
<clus scale="   92.757">  7  8 -1 -1</clus>
<clus scale="  108.805">  2  5  1 -1</clus>
<clus scale="   75.982">  1  5  2 -1</clus>
</clustering>
</event>
<event>
 9    2  0.4883225E-005  0.1409446E+03  0.7546771E-02  0.1214288E+00
         21   -1    0    0  501  502  0.00000000000E+00  0.00000000000E+00  0.13140483415E+03  0.13140483415E+03  0.00000000000E+00 0.  1.
          2   -1    0    0  502    0 -0.00000000000E+00 -0.00000000000E+00 -0.38635948896E+03  0.38635948896E+03  0.00000000000E+00 0. -1.
         24    2    1    2    0    0 -0.10970338341E+03 -0.24215305285E+02 -0.31164347049E+03  0.34113788195E+03  0.81438249395E+02 0.  0.
         23    2    1    2    0    0  0.79509224385E+02  0.19897711237E+02  0.13547569810E+02  0.12379183175E+03  0.91778239711E+02 0.  0.
        -13    1    3    3    0    0 -0.58775371067E+01 -0.27712088755E+02 -0.31559562469E+02  0.42408858613E+02  0.00000000000E+00 0.  1.
         14    1    3    3    0    0 -0.10382584630E+03  0.34967834696E+01 -0.28008390802E+03  0.29872902334E+03  0.00000000000E+00 0. -1.
        -13    1    4    4    0    0  0.53011224356E+02  0.39846560950E+02  0.43327866561E+02  0.79216427261E+02  0.00000000000E+00 0.  1.
         13    1    4    4    0    0  0.26498000029E+02 -0.19948849713E+02 -0.29780296751E+02  0.44575404485E+02  0.00000000000E+00 0. -1.
          1    1    1    2  501    0  0.30194159024E+02  0.43175940484E+01  0.43141245867E+02  0.52834609419E+02  0.00000000000E+00 0. -1.
<scales pt_clust_5="13000.00000" pt_clust_6="13000.00000" pt_clust_7="13000.00000" pt_clust_8="13000.00000" pt_clust_9="30.50129"></scales>
<clustering>
<clus scale="   30.501">  1  9  2 -1</clus>
<clus scale="   81.438">  5  6 -1 -1</clus>
<clus scale="   91.778">  7  8 -1 -1</clus>
<clus scale="  134.441">  2  5  1 -1</clus>
<clus scale="   30.501">  1  5  2 -1</clus>
</clustering>
</event>
<event>
 9    2  0.4883225E-005  0.1397688E+03  0.7546771E-02  0.1216713E+00
         21   -1    0    0  501  502  0.00000000000E+00  0.00000000000E+00  0.64104394691E+02  0.64104394691E+02  0.00000000000E+00 0. -1.
          2   -1    0    0  502    0 -0.00000000000E+00 -0.00000000000E+00 -0.10003454789E+04  0.10003454789E+04  0.00000000000E+00 0. -1.
         24    2    1    2    0    0  0.43379123099E+02 -0.85671164462E+02 -0.56232035308E+03  0.57607186163E+03  0.80207939323E+02 0.  0.
         23    2    1    2    0    0 -0.15882704252E+03  0.64177088326E+02 -0.25527641284E+03  0.32144481672E+03  0.93893530898E+02 0.  0.
        -11    1    3    3    0    0 -0.23778576099E+02 -0.21266416579E+02 -0.15696214763E+03  0.16017114891E+03  0.00000000000E+00 0.  1.
         12    1    3    3    0    0  0.67157699198E+02 -0.64404747883E+02 -0.40535820545E+03  0.41590071272E+03  0.00000000000E+00 0. -1.
        -11    1    4    4    0    0 -0.78687297558E+02 -0.10810539553E+02 -0.68862972163E+02  0.10512215512E+03  0.00000000000E+00 0.  1.
         11    1    4    4    0    0 -0.80139744960E+02  0.74987627879E+02 -0.18641344067E+03  0.21632266160E+03  0.00000000000E+00 0. -1.
          1    1    1    2  501    0  0.11544791942E+03  0.21494076136E+02 -0.11864431825E+03  0.16693319520E+03  0.00000000000E+00 0. -1.
<scales pt_clust_5="13000.00000" pt_clust_6="13000.00000" pt_clust_7="13000.00000" pt_clust_8="13000.00000" pt_clust_9="117.43176"></scales>
<clustering>
<clus scale="   80.208">  5  6 -1 -1</clus>
<clus scale="   93.894">  7  8 -1 -1</clus>
<clus scale="  117.432">  1  9  2 -1</clus>
<clus scale="  130.968">  2  5  1 -1</clus>
<clus scale="  117.432">  1  5  2 -1</clus>
</clustering>
</event>
<event>
 9    2  0.4883225E-005  0.9254254E+02  0.7546771E-02  0.1298250E+00
          2   -1    0    0  502    0 -0.00000000000E+00  0.00000000000E+00  0.50076914816E+03  0.50076914816E+03  0.00000000000E+00 0. -1.
         21   -1    0    0  501  502  0.00000000000E+00 -0.00000000000E+00 -0.80897560246E+03  0.80897560246E+03  0.00000000000E+00 0. -1.
         24    2    1    2    0    0  0.34776755711E+02 -0.22745761163E+02  0.48175035760E+03  0.49023124185E+03  0.80724662008E+02 0.  0.
         23    2    1    2    0    0  0.42317608691E+02  0.17366328871E+02 -0.17049144018E+03  0.19524607723E+03  0.83434585834E+02 0.  0.
        -13    1    3    3    0    0  0.23691446079E+02  0.12464318322E+01  0.32677840076E+02  0.40381672101E+02  0.00000000000E+00 0.  1.
         14    1    3    3    0    0  0.11085309631E+02 -0.23992192995E+02  0.44907251752E+03  0.44984956975E+03  0.00000000000E+00 0. -1.
        -11    1    4    4    0    0 -0.35537967127E+01 -0.28083907433E+02 -0.33939655806E+02  0.44195424695E+02  0.00000000000E+00 0.  1.
         11    1    4    4    0    0  0.45871405403E+02  0.45450236304E+02 -0.13655178438E+03  0.15105065253E+03  0.00000000000E+00 0. -1.
          1    1    1    2  501    0 -0.77094364401E+02  0.53794322919E+01 -0.61946537172E+03  0.62426743153E+03  0.00000000000E+00 0. -1.
<scales pt_clust_5="13000.00000" pt_clust_6="13000.00000" pt_clust_7="13000.00000" pt_clust_8="13000.00000" pt_clust_9="77.28182"></scales>
<clustering>
<clus scale="   77.282">  2  9  1 -1</clus>
<clus scale="   80.725">  5  6 -1 -1</clus>
<clus scale="   83.435">  7  8 -1 -1</clus>
<clus scale="   90.107">  1  5  2 -1</clus>
<clus scale="   77.282">  2  5  1 -1</clus>
</clustering>
</event>
<event>
 9    2  0.4883225E-005  0.9838099E+02  0.7546771E-02  0.1288569E+00
         -1   -1    0    0    0  501 -0.00000000000E+00  0.00000000000E+00  0.46054784908E+03  0.46054784908E+03  0.00000000000E+00 0.  1.
         21   -1    0    0  501  502  0.00000000000E+00 -0.00000000000E+00 -0.47420477410E+02  0.47420477410E+02  0.00000000000E+00 0. -1.
         23    2    1    2    0    0 -0.21318242165E+02 -0.35410684238E+02  0.30438151248E+03  0.32081453509E+03  0.92549861027E+02 0.  0.
         24    2    1    2    0    0 -0.20547102493E+01  0.83701117155E+00  0.15301682633E+02  0.84813926704E+02  0.83392675036E+02 0.  0.
        -11    1    4    4    0    0  0.37785161962E+02  0.51703645513E+01 -0.72635509386E+01  0.38822806523E+02  0.00000000000E+00 0.  1.
         12    1    4    4    0    0 -0.39839872212E+02 -0.43333533797E+01  0.22565233571E+02  0.45991120181E+02  0.00000000000E+00 0. -1.
        -13    1    3    3    0    0 -0.41644205067E+02  0.12124599356E+02  0.19589697368E+03  0.20064114738E+03  0.00000000000E+00 0. -1.
         13    1    3    3    0    0  0.20325962902E+02 -0.47535283594E+02  0.10848453881E+03  0.12017338771E+03  0.00000000000E+00 0.  1.
         -2    1    1    2    0  502  0.23372952414E+02  0.34573673066E+02  0.93444176548E+02  0.10233986469E+03  0.00000000000E+00 0.  1.
<scales pt_clust_5="13000.00000" pt_clust_6="13000.00000" pt_clust_7="13000.00000" pt_clust_8="13000.00000" pt_clust_9="41.73291"></scales>
<clustering>
<clus scale="   41.733">  2  9  1 -1</clus>
<clus scale="   83.393">  5  6 -1 -1</clus>
<clus scale="   89.820">  2  5  1 -1</clus>
<clus scale="   92.550">  7  8 -1 -1</clus>
<clus scale="   41.733">  2  5  1 -1</clus>
</clustering>
</event>
<event>
 9    2  0.4883225E-005  0.1519684E+03  0.7546771E-02  0.1199712E+00
         21   -1    0    0  501  502  0.00000000000E+00  0.00000000000E+00  0.61192848176E+02  0.61192848176E+02  0.00000000000E+00 0.  1.
          2   -1    0    0  502    0 -0.00000000000E+00 -0.00000000000E+00 -0.83858980207E+03  0.83858980207E+03  0.00000000000E+00 0. -1.
         24    2    1    2    0    0  0.11698402637E+03  0.37611060073E+02 -0.52878054173E+03  0.54894644882E+03  0.81446228214E+02 0.  0.
         23    2    1    2    0    0 -0.12530668314E+03  0.11227612449E+02 -0.78819173196E+02  0.17395888544E+03  0.90671978257E+02 0.  0.
        -13    1    3    3    0    0  0.23749222360E+02  0.35380346311E+02 -0.80659357212E+02  0.91223496829E+02  0.00000000000E+00 0.  1.
         14    1    3    3    0    0  0.93234804006E+02  0.22307137620E+01 -0.44812118452E+03  0.45772295199E+03  0.00000000000E+00 0. -1.
        -13    1    4    4    0    0 -0.10880997875E+03 -0.28714646187E+01 -0.19219832081E+02  0.11053170916E+03  0.00000000000E+00 0.  1.
         13    1    4    4    0    0 -0.16496704388E+02  0.14099077068E+02 -0.59599341115E+02  0.63427176283E+02  0.00000000000E+00 0. -1.
          1    1    1    2  501    0  0.83226567726E+01 -0.48838672521E+02 -0.16979723897E+03  0.17687731598E+03  0.00000000000E+00 0. -1.
<scales pt_clust_5="13000.00000" pt_clust_6="13000.00000" pt_clust_7="13000.00000" pt_clust_8="13000.00000" pt_clust_9="49.54276"></scales>
<clustering>
<clus scale="   49.543">  1  9  2 -1</clus>
<clus scale="   81.446">  5  6 -1 -1</clus>
<clus scale="   90.672">  7  8 -1 -1</clus>
<clus scale="  146.651">  2  5  1 -1</clus>
<clus scale="   49.543">  1  5  2 -1</clus>
</clustering>
</event>
<event>
 9    2  0.4883225E-005  0.1470684E+03  0.7546771E-02  0.1207073E+00
          2   -1    0    0  502    0 -0.00000000000E+00  0.00000000000E+00  0.59260998930E+02  0.59260998930E+02  0.00000000000E+00 0. -1.
         21   -1    0    0  501  502  0.00000000000E+00 -0.00000000000E+00 -0.57411989956E+03  0.57411989956E+03  0.00000000000E+00 0.  1.
         24    2    1    2    0    0 -0.10173583644E+03 -0.27303779699E+02 -0.15426206659E+03  0.20228547064E+03  0.77633431212E+02 0.  0.
         23    2    1    2    0    0  0.13399333036E+03 -0.34159156762E+02 -0.26452949699E+03  0.31257466291E+03  0.92768553666E+02 0.  0.
        -11    1    3    3    0    0 -0.18604306820E+02 -0.31095347125E+02 -0.90385825105E+02  0.97378838692E+02  0.00000000000E+00 0.  1.
         12    1    3    3    0    0 -0.83131529622E+02  0.37915674263E+01 -0.63876241488E+02  0.10490663195E+03  0.00000000000E+00 0. -1.
        -11    1    4    4    0    0 -0.86633832425E+01 -0.19743103068E+02 -0.21811123296E+02  0.30668704364E+02  0.00000000000E+00 0. -1.
         11    1    4    4    0    0  0.14265671360E+03 -0.14416053694E+02 -0.24271837369E+03  0.28190595855E+03  0.00000000000E+00 0.  1.
          1    1    1    2  501    0 -0.32257493914E+02  0.61462936461E+02 -0.96067337050E+02  0.11852076493E+03  0.00000000000E+00 0. -1.
<scales pt_clust_5="13000.00000" pt_clust_6="13000.00000" pt_clust_7="13000.00000" pt_clust_8="13000.00000" pt_clust_9="69.41357"></scales>
<clustering>
<clus scale="   69.414">  2  9  1 -1</clus>
<clus scale="   77.633">  5  6 -1 -1</clus>
<clus scale="   92.769">  7  8 -1 -1</clus>
<clus scale="  138.022">  1  5  2 -1</clus>
<clus scale="   69.414">  2  5  1 -1</clus>
</clustering>
</event>
<event>
 9    2  0.4883225E-005  0.9143082E+02  0.7546771E-02  0.1302995E+00
         21   -1    0    0  501  502  0.00000000000E+00  0.00000000000E+00  0.13211363314E+03  0.13211363314E+03  0.00000000000E+00 0.  1.
          2   -1    0    0  502    0 -0.00000000000E+00 -0.00000000000E+00 -0.15787050425E+03  0.15787050425E+03  0.00000000000E+00 0. -1.
         24    2    1    2    0    0  0.41208701436E+02  0.43472304988E+02 -0.16182382286E+02  0.10194893855E+03  0.80893251887E+02 0.  0.
         23    2    1    2    0    0  0.34582086749E+02 -0.28209376827E+01  0.22316252189E+02  0.96308449193E+02  0.87025420773E+02 0.  0.
        -11    1    3    3    0    0  0.45177533665E+01  0.59419227898E+02 -0.16882997348E+02  0.61936179564E+02  0.00000000000E+00 0.  1.
         12    1    3    3    0    0  0.36690948070E+02 -0.15946922911E+02  0.70061506151E+00  0.40012758991E+02  0.00000000000E+00 0. -1.
        -11    1    4    4    0    0  0.16733585661E+02 -0.21879761585E+02  0.50725754243E+02  0.57722084158E+02  0.00000000000E+00 0.  1.
         11    1    4    4    0    0  0.17848501089E+02  0.19058823902E+02 -0.28409502054E+02  0.38586365035E+02  0.00000000000E+00 0. -1.
          1    1    1    2  501    0 -0.75790788185E+02 -0.40651367305E+02 -0.31890741019E+02  0.91726749644E+02  0.00000000000E+00 0. -1.
<scales pt_clust_5="13000.00000" pt_clust_6="13000.00000" pt_clust_7="13000.00000" pt_clust_8="13000.00000" pt_clust_9="86.00456"></scales>
<clustering>
<clus scale="   80.893">  5  6 -1 -1</clus>
<clus scale="   86.005">  1  9  2 -1</clus>
<clus scale="   85.615">  2  5  1 -1</clus>
<clus scale="   87.025">  7  8 -1 -1</clus>
<clus scale="   86.005">  1  5  2 -1</clus>
</clustering>
</event>
<event>
 9    2  0.4883225E-005  0.1054462E+03  0.7546771E-02  0.1274532E+00
          4   -1    0    0  502    0 -0.00000000000E+00  0.00000000000E+00  0.27211595934E+03  0.27211595934E+03  0.00000000000E+00 0. -1.
         21   -1    0    0  501  502  0.00000000000E+00 -0.00000000000E+00 -0.69147397136E+02  0.69147397136E+02  0.00000000000E+00 0.  1.
         23    2    1    2    0    0  0.45848865546E+02  0.25240676887E+02  0.12709097881E+03  0.16489781195E+03  0.91104123119E+02 0.  0.
         24    2    1    2    0    0 -0.65013729138E+02  0.20322250125E+02  0.29140958089E+02  0.10833919331E+03  0.79046862954E+02 0.  0.
        -11    1    4    4    0    0 -0.66066847545E+02  0.55798607152E+01 -0.94896439047E+01  0.66977731609E+02  0.00000000000E+00 0.  1.
         12    1    4    4    0    0  0.10531184071E+01  0.14742389409E+02  0.38630601993E+02  0.41361461703E+02  0.00000000000E+00 0. -1.
        -13    1    3    3    0    0  0.73394548203E+02  0.11733838505E+02  0.87354395738E+02  0.11469626466E+03  0.00000000000E+00 0. -1.
         13    1    3    3    0    0 -0.27545682657E+02  0.13506838382E+02  0.39736583076E+02  0.50201547293E+02  0.00000000000E+00 0.  1.
          3    1    1    2  501    0  0.19164863592E+02 -0.45562927011E+02  0.46736625297E+02  0.68026351206E+02  0.00000000000E+00 0. -1.
<scales pt_clust_5="13000.00000" pt_clust_6="13000.00000" pt_clust_7="13000.00000" pt_clust_8="13000.00000" pt_clust_9="49.42949"></scales>
<clustering>
<clus scale="   49.429">  2  9  1 -1</clus>
<clus scale="   79.047">  5  6 -1 -1</clus>
<clus scale="   91.104">  7  8 -1 -1</clus>
<clus scale="   95.223">  2  5  1 -1</clus>
<clus scale="   49.429">  2  5  1 -1</clus>
</clustering>
</event>
<event>
 9    2  0.4883225E-005  0.3828692E+03  0.7546771E-02  0.1080871E+00
          2   -1    0    0  502    0 -0.00000000000E+00  0.00000000000E+00  0.26248204181E+03  0.26248204181E+03  0.00000000000E+00 0. -1.
         21   -1    0    0  501  502  0.00000000000E+00 -0.00000000000E+00 -0.13432244432E+04  0.13432244432E+04  0.00000000000E+00 0. -1.
         24    2    1    2    0    0  0.77030553758E+02 -0.11740868302E+03  0.96856263804E+02  0.18895396155E+03  0.81264744430E+02 0.  0.
         23    2    1    2    0    0  0.26994539242E+03  0.26317672687E+03 -0.43162979349E+03  0.58122263925E+03  0.96865748849E+02 0.  0.
        -13    1    3    3    0    0 -0.14555314598E+02 -0.21254609687E+02  0.21503066403E+01  0.25850327553E+02  0.00000000000E+00 0.  1.
         14    1    3    3    0    0  0.91585868356E+02 -0.96154073331E+02  0.94705957164E+02  0.16310363400E+03  0.00000000000E+00 0. -1.
        -11    1    4    4    0    0  0.24910723962E+03  0.19305449717E+03 -0.33386621945E+03  0.45911992791E+03  0.00000000000E+00 0. -1.
         11    1    4    4    0    0  0.20838152797E+02  0.70122229696E+02 -0.97763574039E+02  0.12210271135E+03  0.00000000000E+00 0.  1.
          1    1    1    2  501    0 -0.34697594618E+03 -0.14576804385E+03 -0.74596887170E+03  0.83552988419E+03  0.00000000000E+00 0. -1.
<scales pt_clust_5="13000.00000" pt_clust_6="13000.00000" pt_clust_7="13000.00000" pt_clust_8="13000.00000" pt_clust_9="370.41304"></scales>
<clustering>
<clus scale="   81.265">  5  6 -1 -1</clus>
<clus scale="   96.866">  7  8 -1 -1</clus>
<clus scale="  162.242">  1  5  2 -1</clus>
<clus scale="  370.413">  2  9  1 -1</clus>
<clus scale="  370.413">  2  5  1 -1</clus>
</clustering>
</event>
<event>
 9    2  0.4883225E-005  0.1635489E+03  0.7546771E-02  0.1187603E+00
         21   -1    0    0  501  502  0.00000000000E+00  0.00000000000E+00  0.72753804695E+02  0.72753804695E+02  0.00000000000E+00 0. -1.
          2   -1    0    0  502    0 -0.00000000000E+00 -0.00000000000E+00 -0.91572099380E+03  0.91572099380E+03  0.00000000000E+00 0. -1.
         24    2    1    2    0    0  0.10822000223E+03  0.10620705353E+03 -0.55454460990E+03  0.58034603677E+03  0.79311354254E+02 0.  0.
         23    2    1    2    0    0 -0.96874064527E+02 -0.50115550989E+02 -0.31329361821E+03  0.34573040004E+03  0.97367681869E+02 0.  0.
        -11    1    3    3    0    0  0.47908564089E+02  0.54861048959E+02 -0.40114704655E+03  0.40770567590E+03  0.00000000000E+00 0.  1.
         12    1    3    3    0    0  0.60311438146E+02  0.51346004575E+02 -0.15339756335E+03  0.17264036087E+03  0.00000000000E+00 0. -1.
        -13    1    4    4    0    0 -0.22946986004E+02 -0.95678796486E+01 -0.40392822225E+01  0.25187780539E+02  0.00000000000E+00 0.  1.
         13    1    4    4    0    0 -0.73927078523E+02 -0.40547671341E+02 -0.30925433598E+03  0.32054261950E+03  0.00000000000E+00 0. -1.
          1    1    1    2  501    0 -0.11345937708E+02 -0.56091502545E+02  0.24871039006E+02  0.62398361689E+02  0.00000000000E+00 0. -1.
<scales pt_clust_5="13000.00000" pt_clust_6="13000.00000" pt_clust_7="13000.00000" pt_clust_8="13000.00000" pt_clust_9="57.22750"></scales>
<clustering>
<clus scale="   57.228">  1  9  2 -1</clus>
<clus scale="   79.311">  5  6 -1 -1</clus>
<clus scale="   97.368">  7  8 -1 -1</clus>
<clus scale="  153.486">  2  5  1 -1</clus>
<clus scale="   57.228">  1  5  2 -1</clus>
</clustering>
</event>
<event>
 9    2  0.4883225E-005  0.9190184E+02  0.7546771E-02  0.1298322E+00
          2   -1    0    0  502    0 -0.00000000000E+00  0.00000000000E+00  0.38748594123E+03  0.38748594123E+03  0.00000000000E+00 0. -1.
         21   -1    0    0  501  502  0.00000000000E+00 -0.00000000000E+00 -0.13332312504E+03  0.13332312504E+03  0.00000000000E+00 0. -1.
         24    2    1    2    0    0 -0.22460671765E+02 -0.45427127106E+02  0.25150476833E+03  0.26906311048E+03  0.81069126513E+02 0.  0.
         23    2    1    2    0    0  0.16266248777E+01  0.32344040427E+02  0.11066888220E+03  0.14096885979E+03  0.81091522871E+02 0.  0.
        -11    1    3    3    0    0 -0.17251880336E+02 -0.27109876602E+02  0.22405446085E+02  0.39173674818E+02  0.00000000000E+00 0.  1.
         12    1    3    3    0    0 -0.52087914288E+01 -0.18317250504E+02  0.22909932224E+03  0.22988943566E+03  0.00000000000E+00 0. -1.
        -11    1    4    4    0    0  0.20944312986E+02  0.53448135490E+02  0.61855467371E+02  0.84388780519E+02  0.00000000000E+00 0.  1.
         11    1    4    4    0    0 -0.19317688108E+02 -0.21104095063E+02  0.48813414832E+02  0.56580079267E+02  0.00000000000E+00 0. -1.
          1    1    1    2  501    0  0.20834046887E+02  0.13083086679E+02 -0.10801083434E+03  0.11077709601E+03  0.00000000000E+00 0. -1.
<scales pt_clust_5="13000.00000" pt_clust_6="13000.00000" pt_clust_7="13000.00000" pt_clust_8="13000.00000" pt_clust_9="24.60131"></scales>
<clustering>
<clus scale="   24.601">  2  9  1 -1</clus>
<clus scale="   81.069">  5  6 -1 -1</clus>
<clus scale="   81.092">  7  8 -1 -1</clus>
<clus scale="   91.882">  1  5  2 -1</clus>
<clus scale="   24.601">  2  5  1 -1</clus>
</clustering>
</event>
<event>
 9    2  0.4883225E-005  0.3293135E+03  0.7546771E-02  0.1071786E+00
         21   -1    0    0  501  502  0.00000000000E+00  0.00000000000E+00  0.92497548977E+03  0.92497548977E+03  0.00000000000E+00 0. -1.
          2   -1    0    0  502    0 -0.00000000000E+00 -0.00000000000E+00 -0.19211913630E+03  0.19211913630E+03  0.00000000000E+00 0. -1.
         24    2    1    2    0    0 -0.30089614158E+03  0.12786621744E+03  0.47999563148E+02  0.34048336146E+03  0.82077425606E+02 0.  0.
         23    2    1    2    0    0  0.26424210327E+03 -0.85353426548E+02  0.64288630837E+03  0.70652291130E+03  0.93609412636E+02 0.  0.
        -11    1    3    3    0    0 -0.17255080764E+03  0.96762664165E+02  0.62890257310E+02  0.20758607578E+03  0.00000000000E+00 0.  1.
         12    1    3    3    0    0 -0.12834533394E+03  0.31103553272E+02 -0.14890694161E+02  0.13289728568E+03  0.00000000000E+00 0. -1.
        -11    1    4    4    0    0  0.19476869662E+03 -0.95376166941E+02  0.54051477200E+03  0.58239821184E+03  0.00000000000E+00 0. -1.
         11    1    4    4    0    0  0.69473406654E+02  0.10022740394E+02  0.10237153637E+03  0.12412469946E+03  0.00000000000E+00 0.  1.
          1    1    1    2  501    0  0.36654038304E+02 -0.42512790889E+02  0.41970481956E+02  0.70088353304E+02  0.00000000000E+00 0. -1.
<scales pt_clust_5="13000.00000" pt_clust_6="13000.00000" pt_clust_7="13000.00000" pt_clust_8="13000.00000" pt_clust_9="56.13251"></scales>
<clustering>
<clus scale="   56.133">  1  9  2 -1</clus>
<clus scale="   82.077">  5  6 -1 -1</clus>
<clus scale="   93.609">  7  8 -1 -1</clus>
<clus scale="  326.223">  2  5  1 -1</clus>
<clus scale="   56.133">  1  5  2 -1</clus>
</clustering>
</event>
<event>
 9    2  0.4883225E-005  0.1220885E+03  0.7546771E-02  0.1243154E+00
         21   -1    0    0  501  502  0.00000000000E+00  0.00000000000E+00  0.95508948006E+02  0.95508948006E+02  0.00000000000E+00 0. -1.
          2   -1    0    0  502    0 -0.00000000000E+00 -0.00000000000E+00 -0.31896969630E+03  0.31896969630E+03  0.00000000000E+00 0. -1.
         23    2    1    2    0    0  0.59605815860E+02  0.54081990491E+02 -0.15497030329E+03  0.19673271851E+03  0.90610444501E+02 0.  0.
         24    2    1    2    0    0 -0.47069073257E+02 -0.70378119910E+02 -0.11723865113E+03  0.16483920269E+03  0.79110580866E+02 0.  0.
        -11    1    4    4    0    0 -0.10564132563E+02 -0.71540988238E+02 -0.48729718411E+02  0.87202633856E+02  0.00000000000E+00 0.  1.
         12    1    4    4    0    0 -0.36504940694E+02  0.11628683287E+01 -0.68508932722E+02  0.77636568835E+02  0.00000000000E+00 0. -1.
        -13    1    3    3    0    0  0.64508111450E+02  0.77918129897E+01 -0.50275893342E+02  0.82156401113E+02  0.00000000000E+00 0.  1.
         13    1    3    3    0    0 -0.49022955893E+01  0.46290177501E+02 -0.10469440995E+03  0.11457631740E+03  0.00000000000E+00 0. -1.
          1    1    1    2  501    0 -0.12536742603E+02  0.16296129419E+02  0.48748206125E+02  0.52906723103E+02  0.00000000000E+00 0. -1.
<scales pt_clust_5="13000.00000" pt_clust_6="13000.00000" pt_clust_7="13000.00000" pt_clust_8="13000.00000" pt_clust_9="20.56049"></scales>
<clustering>
<clus scale="   20.560">  1  9  2 -1</clus>
<clus scale="   79.111">  5  6 -1 -1</clus>
<clus scale="   90.610">  7  8 -1 -1</clus>
<clus scale="  113.815">  1  5  2 -1</clus>
<clus scale="   20.560">  1  5  2 -1</clus>
</clustering>
</event>
<event>
 9    2  0.4883225E-005  0.1538989E+03  0.7546771E-02  0.1225042E+00
         21   -1    0    0  501  502  0.00000000000E+00  0.00000000000E+00  0.29179131769E+03  0.29179131769E+03  0.00000000000E+00 0.  1.
         -3   -1    0    0    0  501 -0.00000000000E+00 -0.00000000000E+00 -0.14061452041E+03  0.14061452041E+03  0.00000000000E+00 0.  1.
         24    2    1    2    0    0 -0.92101933910E+01 -0.42286575627E+01  0.53724259299E+02  0.98353989144E+02  0.81758803418E+02 0.  0.
         23    2    1    2    0    0 -0.11809735708E+03 -0.12574282488E+02 -0.32511253891E+02  0.15134952712E+03  0.88003405619E+02 0.  0.
        -11    1    3    3    0    0 -0.40724406182E+02  0.15338924092E+02  0.39025587138E+02  0.58453026462E+02  0.00000000000E+00 0.  1.
         12    1    3    3    0    0  0.31514212791E+02 -0.19567581655E+02  0.14698672161E+02  0.39900962682E+02  0.00000000000E+00 0. -1.
        -13    1    4    4    0    0 -0.10026927927E+03 -0.36790745686E+02 -0.48488739258E+02  0.11729725133E+03  0.00000000000E+00 0.  1.
         13    1    4    4    0    0 -0.17828077812E+02  0.24216463198E+02  0.15977485367E+02  0.34052275797E+02  0.00000000000E+00 0. -1.
         -4    1    1    2    0  502  0.12730755048E+03  0.16802940051E+02  0.12996379188E+03  0.18270232183E+03  0.00000000000E+00 0.  1.
<scales pt_clust_5="13000.00000" pt_clust_6="13000.00000" pt_clust_7="13000.00000" pt_clust_8="13000.00000" pt_clust_9="126.25474"></scales>
<clustering>
<clus scale="   81.759">  5  6 -1 -1</clus>
<clus scale="   82.385">  2  5  1 -1</clus>
<clus scale="   88.003">  7  8 -1 -1</clus>
<clus scale="  126.255">  1  9  2 -1</clus>
<clus scale="  126.255">  1  5  2 -1</clus>
</clustering>
</event>
<event>
 9    2  0.4883225E-005  0.2726760E+03  0.7546771E-02  0.1099758E+00
         21   -1    0    0  501  502  0.00000000000E+00  0.00000000000E+00  0.11437049809E+03  0.11437049809E+03  0.00000000000E+00 0.  1.
         -1   -1    0    0    0  501 -0.00000000000E+00 -0.00000000000E+00 -0.68507816891E+03  0.68507816891E+03  0.00000000000E+00 0.  1.
         24    2    1    2    0    0  0.85042930034E+02 -0.24804760951E+02 -0.24410405698E+03  0.27254468190E+03  0.82741989854E+02 0.  0.
         23    2    1    2    0    0  0.11437703536E+03 -0.46974540386E+02 -0.26698380290E+03  0.30673334092E+03  0.86696469104E+02 0.  0.
        -11    1    3    3    0    0  0.90815112623E+02 -0.39055972069E+02 -0.23431996231E+03  0.25431987412E+03  0.00000000000E+00 0.  1.
         12    1    3    3    0    0 -0.57721825893E+01  0.14251211118E+02 -0.97840946654E+01  0.18224807780E+02  0.00000000000E+00 0. -1.
        -13    1    4    4    0    0  0.15786776706E+02 -0.46370182182E+02 -0.12136761564E+03  0.13087977017E+03  0.00000000000E+00 0. -1.
         13    1    4    4    0    0  0.98590258656E+02 -0.60435820449E+00 -0.14561618727E+03  0.17585357075E+03  0.00000000000E+00 0.  1.
         -2    1    1    2    0  502 -0.19941996540E+03  0.71779301337E+02 -0.59619810936E+02  0.22017064417E+03  0.00000000000E+00 0.  1.
<scales pt_clust_5="13000.00000" pt_clust_6="13000.00000" pt_clust_7="13000.00000" pt_clust_8="13000.00000" pt_clust_9="211.94478"></scales>
<clustering>
<clus scale="   82.742">  5  6 -1 -1</clus>
<clus scale="   86.696">  7  8 -1 -1</clus>
<clus scale="   89.028">  5  7 -1 -1</clus>
<clus scale="  211.945">  1  9  2 -1</clus>
<clus scale="  211.945">  1  5  2 -1</clus>
</clustering>
</event>
<event>
 9    2  0.4883225E-005  0.1014159E+03  0.7546771E-02  0.1284509E+00
          2   -1    0    0  502    0 -0.00000000000E+00  0.00000000000E+00  0.40082594707E+03  0.40082594707E+03  0.00000000000E+00 0. -1.
         21   -1    0    0  501  502  0.00000000000E+00 -0.00000000000E+00 -0.51027710122E+02  0.51027710122E+02  0.00000000000E+00 0. -1.
         24    2    1    2    0    0 -0.26182692375E+02  0.24879364862E+02  0.59646539682E+02  0.10552376687E+03  0.79202522076E+02 0.  0.
         23    2    1    2    0    0  0.53048291190E+01 -0.48754445197E+02  0.76441234593E+02  0.13027881651E+03  0.93403268401E+02 0.  0.
        -13    1    3    3    0    0  0.23051522143E+02  0.27470243299E+02  0.14525043497E+02  0.38690616803E+02  0.00000000000E+00 0.  1.
         14    1    3    3    0    0 -0.49234214519E+02 -0.25908784372E+01  0.45121496184E+02  0.66833150070E+02  0.00000000000E+00 0. -1.
        -11    1    4    4    0    0  0.14521410645E+02 -0.14369565421E+02  0.89921754352E+02  0.92213218592E+02  0.00000000000E+00 0.  1.
         11    1    4    4    0    0 -0.92165815264E+01 -0.34384879776E+02 -0.13480519759E+02  0.38065597923E+02  0.00000000000E+00 0. -1.
          1    1    1    2  501    0  0.20877863256E+02  0.23875080335E+02  0.21371046268E+03  0.21605107381E+03  0.00000000000E+00 0. -1.
<scales pt_clust_5="13000.00000" pt_clust_6="13000.00000" pt_clust_7="13000.00000" pt_clust_8="13000.00000" pt_clust_9="31.71602"></scales>
<clustering>
<clus scale="   31.716">  2  9  1 -1</clus>
<clus scale="   79.203">  5  6 -1 -1</clus>
<clus scale="   88.510">  1  5  2 -1</clus>
<clus scale="   93.403">  7  8 -1 -1</clus>
<clus scale="   31.716">  2  5  1 -1</clus>
</clustering>
</event>
<event>
 9    2  0.6863199E-005  0.2207757E+03  0.7546771E-02  0.1174277E+00
         21   -1    0    0  501  502  0.00000000000E+00  0.00000000000E+00  0.14047886611E+03  0.14047886611E+03  0.00000000000E+00 0. -1.
          2   -1    0    0  502    0 -0.00000000000E+00 -0.00000000000E+00 -0.77799181529E+03  0.77799181529E+03  0.00000000000E+00 0. -1.
         24    2    1    2    0    0  0.15703614476E+02  0.19970307698E+02 -0.63365142378E+02  0.10533783193E+03  0.80221573597E+02 0.  0.
         23    2    1    2    0    0 -0.44638784522E+02  0.19419182142E+03 -0.20958732224E+02  0.21922981542E+03  0.88990779999E+02 0.  0.
        -11    1    3    3    0    0  0.27220377498E+02 -0.24212850744E+02 -0.16786213721E+02  0.40112193450E+02  0.00000000000E+00 0.  1.
         12    1    3    3    0    0 -0.11516763022E+02  0.44183158443E+02 -0.46578928657E+02  0.65225638482E+02  0.00000000000E+00 0. -1.
        -13    1    4    4    0    0 -0.26272102804E+02  0.69289631045E+02 -0.50372971208E+02  0.89603083565E+02  0.00000000000E+00 0.  1.
         13    1    4    4    0    0 -0.18366681718E+02  0.12490219037E+03  0.29414238983E+02  0.12962673186E+03  0.00000000000E+00 0. -1.
          1    1    1    2  501    0  0.28935170046E+02 -0.21416212912E+03 -0.55318907458E+03  0.59390303404E+03  0.00000000000E+00 0. -1.
<scales pt_clust_5="13000.00000" pt_clust_6="13000.00000" pt_clust_7="13000.00000" pt_clust_8="13000.00000" pt_clust_9="202.04605"></scales>
<clustering>
<clus scale="   80.222">  5  6 -1 -1</clus>
<clus scale="   84.148">  2  5  1 -1</clus>
<clus scale="   88.991">  7  8 -1 -1</clus>
<clus scale="  202.046">  1  9  2 -1</clus>
<clus scale="  202.046">  1  5  2 -1</clus>
</clustering>
</event>
<event>
 9    2  0.4883225E-005  0.1251235E+03  0.7546771E-02  0.1238505E+00
         -1   -1    0    0    0  501 -0.00000000000E+00  0.00000000000E+00  0.33982257492E+03  0.33982257492E+03  0.00000000000E+00 0.  1.
         21   -1    0    0  501  502  0.00000000000E+00 -0.00000000000E+00 -0.12531749374E+03  0.12531749374E+03  0.00000000000E+00 0. -1.
         24    2    1    2    0    0 -0.82514280078E+02 -0.30483913897E+02  0.28455410850E+03  0.30774784161E+03  0.77458491652E+02 0.  0.
         23    2    1    2    0    0  0.76774724175E+02  0.92490926750E+01 -0.57556494149E+02  0.13209551739E+03  0.90313740425E+02 0.  0.
        -11    1    3    3    0    0 -0.81574266564E+02 -0.58802501259E+01  0.14894988307E+03  0.16992647226E+03  0.00000000000E+00 0.  1.
         12    1    3    3    0    0 -0.94001351401E+00 -0.24603663771E+02  0.13560422543E+03  0.13782136936E+03  0.00000000000E+00 0. -1.
        -11    1    4    4    0    0  0.56064258054E+02 -0.27490304422E+02 -0.21691733450E+01  0.62478981917E+02  0.00000000000E+00 0.  1.
         11    1    4    4    0    0  0.20710466120E+02  0.36739397097E+02 -0.55387320804E+02  0.69616535477E+02  0.00000000000E+00 0. -1.
         -2    1    1    2    0  502  0.57395559039E+01  0.21234821222E+02 -0.12492533175E+02  0.25296709656E+02  0.00000000000E+00 0.  1.
<scales pt_clust_5="13000.00000" pt_clust_6="13000.00000" pt_clust_7="13000.00000" pt_clust_8="13000.00000" pt_clust_9="21.99682"></scales>
<clustering>
<clus scale="   21.997">  2  9  1 -1</clus>
<clus scale="   77.458">  5  6 -1 -1</clus>
<clus scale="   90.314">  7  8 -1 -1</clus>
<clus scale="  116.186">  1  5  2 -1</clus>
<clus scale="   21.997">  2  5  1 -1</clus>
</clustering>
</event>
<event>
 9    2  0.4883225E-005  0.1117424E+03  0.7546771E-02  0.1260441E+00
          2   -1    0    0  502    0 -0.00000000000E+00  0.00000000000E+00  0.45768405871E+03  0.45768405871E+03  0.00000000000E+00 0. -1.
         21   -1    0    0  501  502  0.00000000000E+00 -0.00000000000E+00 -0.18704207136E+03  0.18704207136E+03  0.00000000000E+00 0.  1.
         23    2    1    2    0    0 -0.65036896907E+02 -0.14924121585E+01  0.39133052025E+03  0.40680935514E+03  0.90123526889E+02 0.  0.
         24    2    1    2    0    0  0.72473481495E+02  0.59911502632E+02 -0.27493413877E+02  0.12767420996E+03  0.81871987970E+02 0.  0.
        -11    1    4    4    0    0 -0.74028984037E+01  0.34888667934E+02 -0.25683198980E+02  0.43950526332E+02  0.00000000000E+00 0.  1.
         12    1    4    4    0    0  0.79876379898E+02  0.25022834698E+02 -0.18102148977E+01  0.83723683626E+02  0.00000000000E+00 0. -1.
        -11    1    3    3    0    0 -0.69953893013E+01 -0.39134363777E+02  0.18387335005E+03  0.18812188272E+03  0.00000000000E+00 0. -1.
         11    1    3    3    0    0 -0.58041507606E+02  0.37641951619E+02  0.20745717019E+03  0.21868747242E+03  0.00000000000E+00 0.  1.
          1    1    1    2  501    0 -0.74365845875E+01 -0.58419090474E+02 -0.93195119018E+02  0.11024256497E+03  0.00000000000E+00 0. -1.
<scales pt_clust_5="13000.00000" pt_clust_6="13000.00000" pt_clust_7="13000.00000" pt_clust_8="13000.00000" pt_clust_9="58.89052"></scales>
<clustering>
<clus scale="   58.891">  2  9  1 -1</clus>
<clus scale="   81.872">  5  6 -1 -1</clus>
<clus scale="   90.124">  7  8 -1 -1</clus>
<clus scale="  105.200">  2  5  1 -1</clus>
<clus scale="   58.891">  2  5  1 -1</clus>
</clustering>
</event>
<event>
 9    2  0.4883225E-005  0.8726208E+02  0.7546771E-02  0.1310524E+00
         21   -1    0    0  501  502  0.00000000000E+00  0.00000000000E+00  0.82479801615E+02  0.82479801615E+02  0.00000000000E+00 0. -1.
          2   -1    0    0  502    0 -0.00000000000E+00 -0.00000000000E+00 -0.14158499410E+03  0.14158499410E+03  0.00000000000E+00 0. -1.
         23    2    1    2    0    0  0.32145982969E+02  0.18807808858E+02 -0.15882921833E+02  0.92816255557E+02  0.83519412082E+02 0.  0.
         24    2    1    2    0    0 -0.10303956162E+02 -0.74076963991E+01 -0.17744068998E+01  0.83030679267E+02  0.82035965901E+02 0.  0.
        -13    1    4    4    0    0 -0.18127042489E+02 -0.27222595501E+02 -0.32194608469E+02  0.45892833751E+02  0.00000000000E+00 0.  1.
         14    1    4    4    0    0  0.78230863268E+01  0.19814899101E+02  0.30420201570E+02  0.37137845517E+02  0.00000000000E+00 0. -1.
        -11    1    3    3    0    0  0.10930985141E+02  0.48089126436E+02 -0.25334168132E+02  0.55442498072E+02  0.00000000000E+00 0.  1.
         11    1    3    3    0    0  0.21214997828E+02 -0.29281317578E+02  0.94512462991E+01  0.37373757485E+02  0.00000000000E+00 0. -1.
          1    1    1    2  501    0 -0.21842026807E+02 -0.11400112459E+02 -0.41447863750E+02  0.48217860888E+02  0.00000000000E+00 0. -1.
<scales pt_clust_5="13000.00000" pt_clust_6="13000.00000" pt_clust_7="13000.00000" pt_clust_8="13000.00000" pt_clust_9="24.63813"></scales>
<clustering>
<clus scale="   24.638">  1  9  2 -1</clus>
<clus scale="   82.036">  5  6 -1 -1</clus>
<clus scale="   83.519">  7  8 -1 -1</clus>
<clus scale="   85.843">  1  5  2 -1</clus>
<clus scale="   24.638">  1  5  2 -1</clus>
</clustering>
</event>
<event>
 9    2  0.4883225E-005  0.8219984E+02  0.7546771E-02  0.1323846E+00
          2   -1    0    0  502    0 -0.00000000000E+00  0.00000000000E+00  0.26443079927E+03  0.26443079927E+03  0.00000000000E+00 0. -1.
         21   -1    0    0  501  502  0.00000000000E+00 -0.00000000000E+00 -0.12339302329E+03  0.12339302329E+03  0.00000000000E+00 0. -1.
         24    2    1    2    0    0 -0.32174266902E+02  0.22828728214E+02  0.13380018834E+03  0.16118921436E+03  0.80765946676E+02 0.  0.
         23    2    1    2    0    0 -0.52547373712E+01  0.27472208285E+02  0.89717329967E+02  0.12302948058E+03  0.79402262571E+02 0.  0.
        -13    1    3    3    0    0 -0.18972910832E+02 -0.10820639651E+02 -0.76380311979E+00  0.21854999041E+02  0.00000000000E+00 0.  1.
         14    1    3    3    0    0 -0.13201356070E+02  0.33649367865E+02  0.13456399146E+03  0.13933421532E+03  0.00000000000E+00 0. -1.
        -13    1    4    4    0    0 -0.16667301082E+02 -0.14047827489E+02  0.74076252140E+02  0.77216782590E+02  0.00000000000E+00 0.  1.
         13    1    4    4    0    0  0.11412563711E+02  0.41520035774E+02  0.15641077828E+02  0.45812697986E+02  0.00000000000E+00 0. -1.
          1    1    1    2  501    0  0.37429004273E+02 -0.50300936499E+02 -0.82479742332E+02  0.10360512762E+03  0.00000000000E+00 0. -1.
<scales pt_clust_5="13000.00000" pt_clust_6="13000.00000" pt_clust_7="13000.00000" pt_clust_8="13000.00000" pt_clust_9="62.69860"></scales>
<clustering>
<clus scale="   62.699">  2  9  1 -1</clus>
<clus scale="   79.402">  7  8 -1 -1</clus>
<clus scale="   80.766">  5  6 -1 -1</clus>
<clus scale="   80.860">  2  7  1 -1</clus>
<clus scale="   62.699">  2  5  1 -1</clus>
</clustering>
</event>
<event>
 9    2  0.4883225E-005  0.1029984E+03  0.7546771E-02  0.1279519E+00
          2   -1    0    0  502    0 -0.00000000000E+00  0.00000000000E+00  0.50091226115E+03  0.50091226115E+03  0.00000000000E+00 0. -1.
         21   -1    0    0  501  502  0.00000000000E+00 -0.00000000000E+00 -0.34257361943E+02  0.34257361943E+02  0.00000000000E+00 0. -1.
         23    2    1    2    0    0 -0.45643661872E+02 -0.15072519732E+02  0.14659002015E+03  0.17925472915E+03  0.91285810486E+02 0.  0.
         24    2    1    2    0    0  0.49733975933E+02 -0.10855006915E+02  0.11369862288E+03  0.14788605220E+03  0.79696976437E+02 0.  0.
        -13    1    4    4    0    0 -0.21314706294E+02  0.16171828451E+01  0.17378914687E+02  0.27549204352E+02  0.00000000000E+00 0.  1.
         14    1    4    4    0    0  0.71048682226E+02 -0.12472189761E+02  0.96319708192E+02  0.12033684785E+03  0.00000000000E+00 0. -1.
        -13    1    3    3    0    0 -0.32520272430E+02 -0.53447429850E+02  0.86263564071E+02  0.10656264994E+03  0.00000000000E+00 0. -1.
         13    1    3    3    0    0 -0.13123389442E+02  0.38374910118E+02  0.60326456078E+02  0.72692079211E+02  0.00000000000E+00 0.  1.
          1    1    1    2  501    0 -0.40903140608E+01  0.25927526647E+02  0.20636625618E+03  0.20802884175E+03  0.00000000000E+00 0. -1.
<scales pt_clust_5="13000.00000" pt_clust_6="13000.00000" pt_clust_7="13000.00000" pt_clust_8="13000.00000" pt_clust_9="26.24820"></scales>
<clustering>
<clus scale="   26.248">  2  9  1 -1</clus>
<clus scale="   79.697">  5  6 -1 -1</clus>
<clus scale="   91.286">  7  8 -1 -1</clus>
<clus scale="   92.883">  2  5  1 -1</clus>
<clus scale="   26.248">  2  5  1 -1</clus>
</clustering>
</event>
<event>
 9    2  0.4883225E-005  0.1533839E+03  0.7546771E-02  0.1198298E+00
         21   -1    0    0  501  502  0.00000000000E+00  0.00000000000E+00  0.53212904478E+03  0.53212904478E+03  0.00000000000E+00 0.  1.
          2   -1    0    0  502    0 -0.00000000000E+00 -0.00000000000E+00 -0.10905524482E+03  0.10905524482E+03  0.00000000000E+00 0. -1.
         24    2    1    2    0    0 -0.73691299192E+02  0.10499283532E+03 -0.34152025558E+02  0.15493212275E+03  0.79898052324E+02 0.  0.
         23    2    1    2    0    0  0.55687037790E+02 -0.77114071693E+02  0.34636410494E+03  0.37052965400E+03  0.90975299261E+02 0.  0.
        -11    1    3    3    0    0 -0.89831818128E+02  0.99493796226E+02 -0.31129658892E+02  0.13761477645E+03  0.00000000000E+00 0.  1.
         12    1    3    3    0    0  0.16140518935E+02  0.54990390899E+01 -0.30223666657E+01  0.17317346294E+02  0.00000000000E+00 0. -1.
        -13    1    4    4    0    0 -0.69879585020E+01 -0.26519876521E+02  0.18905289646E+02  0.33309839257E+02  0.00000000000E+00 0.  1.
         13    1    4    4    0    0  0.62674996292E+02 -0.50594195171E+02  0.32745881529E+03  0.33721981474E+03  0.00000000000E+00 0. -1.
          1    1    1    2  501    0  0.18004261402E+02 -0.27878763624E+02  0.11086172058E+03  0.11572251285E+03  0.00000000000E+00 0. -1.
<scales pt_clust_5="13000.00000" pt_clust_6="13000.00000" pt_clust_7="13000.00000" pt_clust_8="13000.00000" pt_clust_9="33.18703"></scales>
<clustering>
<clus scale="   33.187">  1  9  2 -1</clus>
<clus scale="   79.898">  5  6 -1 -1</clus>
<clus scale="   90.975">  7  8 -1 -1</clus>
<clus scale="  147.084">  2  5  1 -1</clus>
<clus scale="   33.187">  1  5  2 -1</clus>
</clustering>
</event>
<event>
 9    2  0.4883225E-005  0.1118197E+03  0.7546771E-02  0.1262030E+00
         -3   -1    0    0    0  501 -0.00000000000E+00  0.00000000000E+00  0.39996629872E+03  0.39996629872E+03  0.00000000000E+00 0.  1.
         21   -1    0    0  501  502  0.00000000000E+00 -0.00000000000E+00 -0.70011176296E+02  0.70011176296E+02  0.00000000000E+00 0. -1.
         24    2    1    2    0    0 -0.55930961823E+02 -0.33530694214E+02  0.30097280981E+03  0.31780558592E+03  0.78505912207E+02 0.  0.
         23    2    1    2    0    0  0.38118350653E+02  0.54824171854E+02  0.13677100457E+01  0.11301492826E+03  0.91169100595E+02 0.  0.
        -13    1    3    3    0    0  0.44733746141E+01 -0.40445199705E+02  0.13740163525E+03  0.14330050464E+03  0.00000000000E+00 0.  1.
         14    1    3    3    0    0 -0.60404336437E+02  0.69145054911E+01  0.16357117456E+03  0.17450508129E+03  0.00000000000E+00 0. -1.
        -11    1    4    4    0    0  0.66366868691E+01  0.34130185479E+02 -0.42682253708E+02  0.55051702563E+02  0.00000000000E+00 0. -1.
         11    1    4    4    0    0  0.31481663784E+02  0.20693986375E+02  0.44049963754E+02  0.57963225699E+02  0.00000000000E+00 0.  1.
         -4    1    1    2    0  502  0.17812611170E+02 -0.21293477640E+02  0.27614602564E+02  0.39156960830E+02  0.00000000000E+00 0.  1.
<scales pt_clust_5="13000.00000" pt_clust_6="13000.00000" pt_clust_7="13000.00000" pt_clust_8="13000.00000" pt_clust_9="27.76152"></scales>
<clustering>
<clus scale="   27.762">  2  9  1 -1</clus>
<clus scale="   78.506">  5  6 -1 -1</clus>
<clus scale="   91.169">  7  8 -1 -1</clus>
<clus scale="  101.760">  1  5  2 -1</clus>
<clus scale="   27.762">  2  5  1 -1</clus>
</clustering>
</event>
<event>
 9    2  0.4883225E-005  0.9012709E+02  0.7546771E-02  0.1307575E+00
         21   -1    0    0  501  502  0.00000000000E+00  0.00000000000E+00  0.36504393978E+03  0.36504393978E+03  0.00000000000E+00 0.  1.
          4   -1    0    0  502    0 -0.00000000000E+00 -0.00000000000E+00 -0.78697294826E+02  0.78697294826E+02  0.00000000000E+00 0. -1.
         24    2    1    2    0    0  0.11179418584E+01 -0.19384476826E+01 -0.30498879660E+02  0.87567273248E+02  0.82053874437E+02 0.  0.
         23    2    1    2    0    0  0.47294095661E+01 -0.37562136551E+02  0.11702148747E+03  0.15239924876E+03  0.89990116546E+02 0.  0.
        -13    1    3    3    0    0 -0.38554183387E+02  0.10854162096E+02 -0.10922473258E+02  0.41515518948E+02  0.00000000000E+00 0.  1.
         14    1    3    3    0    0  0.39672125246E+02 -0.12792609779E+02 -0.19576406402E+02  0.46051754300E+02  0.00000000000E+00 0. -1.
        -11    1    4    4    0    0 -0.30848054158E+02 -0.69459586543E+01  0.64412796552E+01  0.32269782624E+02  0.00000000000E+00 0.  1.
         11    1    4    4    0    0  0.35577463724E+02 -0.30616177896E+02  0.11058020781E+03  0.12012946614E+03  0.00000000000E+00 0. -1.
          3    1    1    2  501    0 -0.58473514246E+01  0.39500584233E+02  0.19982403715E+03  0.20377471260E+03  0.00000000000E+00 0. -1.
<scales pt_clust_5="13000.00000" pt_clust_6="13000.00000" pt_clust_7="13000.00000" pt_clust_8="13000.00000" pt_clust_9="39.93104"></scales>
<clustering>
<clus scale="   39.931">  1  9  2 -1</clus>
<clus scale="   82.054">  5  6 -1 -1</clus>
<clus scale="   82.204">  2  5  1 -1</clus>
<clus scale="   89.990">  7  8 -1 -1</clus>
<clus scale="   39.931">  1  5  2 -1</clus>
</clustering>
</event>
<event>
 9    2  0.4883225E-005  0.1347334E+03  0.7546771E-02  0.1223190E+00
          2   -1    0    0  502    0 -0.00000000000E+00  0.00000000000E+00  0.87466662873E+03  0.87466662873E+03  0.00000000000E+00 0. -1.
         21   -1    0    0  501  502  0.00000000000E+00 -0.00000000000E+00 -0.34078559416E+02  0.34078559416E+02  0.00000000000E+00 0.  1.
         23    2    1    2    0    0  0.10657761777E+03 -0.64360327174E+01  0.63480430899E+03  0.65003253556E+03  0.90363573669E+02 0.  0.
         24    2    1    2    0    0 -0.86083609332E+02 -0.80014388622E+01  0.20163891487E+03  0.23330350637E+03  0.79359078091E+02 0.  0.
        -11    1    4    4    0    0 -0.57305492914E+02  0.17627490211E+02  0.53900808755E+02  0.80622237091E+02  0.00000000000E+00 0.  1.
         12    1    4    4    0    0 -0.28778116419E+02 -0.25628929074E+02  0.14773810612E+03  0.15268126928E+03  0.00000000000E+00 0. -1.
        -13    1    3    3    0    0  0.14686584147E+02  0.32117506744E+02  0.10074479180E+03  0.10675552945E+03  0.00000000000E+00 0.  1.
         13    1    3    3    0    0  0.91891033621E+02 -0.38553539461E+02  0.53405951720E+03  0.54327700611E+03  0.00000000000E+00 0. -1.
          1    1    1    2  501    0 -0.20494008435E+02  0.14437471580E+02  0.41448454457E+01  0.25409146210E+02  0.00000000000E+00 0. -1.
<scales pt_clust_5="13000.00000" pt_clust_6="13000.00000" pt_clust_7="13000.00000" pt_clust_8="13000.00000" pt_clust_9="25.06880"></scales>
<clustering>
<clus scale="   25.069">  2  9  1 -1</clus>
<clus scale="   79.359">  5  6 -1 -1</clus>
<clus scale="   90.364">  7  8 -1 -1</clus>
<clus scale="  127.614">  2  5  1 -1</clus>
<clus scale="   25.069">  2  5  1 -1</clus>
</clustering>
</event>
<event>
 9    2  0.4883225E-005  0.9230768E+02  0.7546771E-02  0.1306698E+00
          2   -1    0    0  502    0 -0.00000000000E+00  0.00000000000E+00  0.14114382303E+04  0.14114382303E+04  0.00000000000E+00 0. -1.
         21   -1    0    0  501  502  0.00000000000E+00 -0.00000000000E+00 -0.15370731297E+02  0.15370731297E+02  0.00000000000E+00 0. -1.
         24    2    1    2    0    0  0.47520341580E+01 -0.26558317258E+02  0.11167110229E+04  0.11195169988E+04  0.74477351233E+02 0.  0.
         23    2    1    2    0    0 -0.52025580043E+01 -0.10986216930E+02  0.20219806181E+03  0.22148277965E+03  0.89570094957E+02 0.  0.
        -13    1    3    3    0    0 -0.16808259791E+02 -0.21752939727E+02  0.14663901160E+03  0.14919352435E+03  0.00000000000E+00 0.  1.
         14    1    3    3    0    0  0.21560293949E+02 -0.48053775303E+01  0.97007201131E+03  0.97032347445E+03  0.00000000000E+00 0. -1.
        -11    1    4    4    0    0  0.80546021547E+01 -0.38670802147E+02  0.39309825342E+02  0.55727640565E+02  0.00000000000E+00 0. -1.
         11    1    4    4    0    0 -0.13257160159E+02  0.27684585217E+02  0.16288823647E+03  0.16575513909E+03  0.00000000000E+00 0.  1.
          1    1    1    2  501    0  0.45052384634E+00  0.37544534187E+02  0.77158414283E+02  0.85809183155E+02  0.00000000000E+00 0. -1.
<scales pt_clust_5="13000.00000" pt_clust_6="13000.00000" pt_clust_7="13000.00000" pt_clust_8="13000.00000" pt_clust_9="37.54724"></scales>
<clustering>
<clus scale="   37.547">  2  9  1 -1</clus>
<clus scale="   74.477">  5  6 -1 -1</clus>
<clus scale="   77.748">  1  5  2 -1</clus>
<clus scale="   89.570">  7  8 -1 -1</clus>
<clus scale="   37.547">  2  5  1 -1</clus>
</clustering>
</event>
<event>
 9    2  0.4883225E-005  0.1006062E+03  0.7546771E-02  0.1283563E+00
          2   -1    0    0  502    0 -0.00000000000E+00  0.00000000000E+00  0.14862271549E+04  0.14862271549E+04  0.00000000000E+00 0. -1.
         21   -1    0    0  501  502  0.00000000000E+00 -0.00000000000E+00 -0.17711936136E+02  0.17711936136E+02  0.00000000000E+00 0. -1.
         24    2    1    2    0    0  0.77993225609E+01  0.54344094512E+02  0.54432630344E+03  0.55296114074E+03  0.80379030258E+02 0.  0.
         23    2    1    2    0    0 -0.69264301663E+02  0.39253890691E+01  0.29425689680E+03  0.31537774237E+03  0.89794470312E+02 0.  0.
        -11    1    3    3    0    0 -0.99403544153E+01 -0.18706385092E+02  0.90132140911E+02  0.92588024681E+02  0.00000000000E+00 0.  1.
         12    1    3    3    0    0  0.17739676976E+02  0.73050479604E+02  0.45419416253E+03  0.46037311606E+03  0.00000000000E+00 0. -1.
        -13    1    4    4    0    0 -0.75967264734E+01  0.40874496137E+02  0.10598334332E+03  0.11384596501E+03  0.00000000000E+00 0. -1.
         13    1    4    4    0    0 -0.61667575189E+02 -0.36949107068E+02  0.18827355348E+03  0.20153177735E+03  0.00000000000E+00 0.  1.
          1    1    1    2  501    0  0.61464979102E+02 -0.58269483581E+02  0.62993201855E+03  0.63560020797E+03  0.00000000000E+00 0. -1.
<scales pt_clust_5="13000.00000" pt_clust_6="13000.00000" pt_clust_7="13000.00000" pt_clust_8="13000.00000" pt_clust_9="84.69524"></scales>
<clustering>
<clus scale="   80.379">  5  6 -1 -1</clus>
<clus scale="   84.695">  2  9  1 -1</clus>
<clus scale="   89.794">  7  8 -1 -1</clus>
<clus scale="   92.300">  1  5  2 -1</clus>
<clus scale="   84.695">  2  5  1 -1</clus>
</clustering>
</event>
<event>
 9    2  0.4883225E-005  0.1066335E+03  0.7546771E-02  0.1272160E+00
         21   -1    0    0  501  502  0.00000000000E+00  0.00000000000E+00  0.63034052709E+02  0.63034052709E+02  0.00000000000E+00 0.  1.
          2   -1    0    0  502    0 -0.00000000000E+00 -0.00000000000E+00 -0.37463315140E+03  0.37463315140E+03  0.00000000000E+00 0. -1.
         24    2    1    2    0    0  0.19585295334E+02  0.52728366320E+02 -0.25148126080E+03  0.26989203799E+03  0.80218596545E+02 0.  0.
         23    2    1    2    0    0 -0.29048723184E+01 -0.38661237770E+02  0.38618707124E+01  0.10017691369E+03  0.92289600725E+02 0.  0.
        -11    1    3    3    0    0  0.24929519845E+01  0.53184881482E+02 -0.71738741021E+02  0.89338084774E+02  0.00000000000E+00 0.  1.
         12    1    3    3    0    0  0.17092343349E+02 -0.45651516237E+00 -0.17974251978E+03  0.18055395322E+03  0.00000000000E+00 0. -1.
        -13    1    4    4    0    0 -0.95648483952E+01 -0.67205992089E+02  0.13712877282E+02  0.69254420082E+02  0.00000000000E+00 0.  1.
         13    1    4    4    0    0  0.66599760768E+01  0.28544754320E+02 -0.98510065701E+01  0.30922493608E+02  0.00000000000E+00 0. -1.
          1    1    1    2  501    0 -0.16680423015E+02 -0.14067128550E+02 -0.63979708600E+02  0.67598252419E+02  0.00000000000E+00 0. -1.
<scales pt_clust_5="13000.00000" pt_clust_6="13000.00000" pt_clust_7="13000.00000" pt_clust_8="13000.00000" pt_clust_9="21.82020"></scales>
<clustering>
<clus scale="   21.820">  1  9  2 -1</clus>
<clus scale="   80.219">  5  6 -1 -1</clus>
<clus scale="   92.290">  7  8 -1 -1</clus>
<clus scale="   96.376">  2  5  1 -1</clus>
<clus scale="   21.820">  1  5  2 -1</clus>
</clustering>
</event>
<event>
 9    2  0.4883225E-005  0.9719594E+02  0.7546771E-02  0.1292621E+00
          2   -1    0    0  502    0 -0.00000000000E+00  0.00000000000E+00  0.97250069449E+03  0.97250069449E+03  0.00000000000E+00 0. -1.
         21   -1    0    0  501  502  0.00000000000E+00 -0.00000000000E+00 -0.37057674194E+02  0.37057674194E+02  0.00000000000E+00 0. -1.
         24    2    1    2    0    0 -0.38095531122E+02  0.40914531541E+01  0.72135562768E+03  0.72689893867E+03  0.80994542857E+02 0.  0.
         23    2    1    2    0    0 -0.11865839572E+02  0.42510523455E+02  0.17801430920E+03  0.20539915476E+03  0.92475811662E+02 0.  0.
        -13    1    3    3    0    0 -0.70576464051E+01  0.27926039897E+02  0.93767246265E+02  0.98091643626E+02  0.00000000000E+00 0.  1.
         14    1    3    3    0    0 -0.31037884717E+02 -0.23834586742E+02  0.62758838141E+03  0.62880729504E+03  0.00000000000E+00 0. -1.
        -11    1    4    4    0    0 -0.27208919032E+02 -0.18740691159E+02  0.98315017753E+02  0.10371779739E+03  0.00000000000E+00 0.  1.
         11    1    4    4    0    0  0.15343079459E+02  0.61251214614E+02  0.79699291448E+02  0.10168135737E+03  0.00000000000E+00 0. -1.
          1    1    1    2  501    0  0.49961370694E+02 -0.46601976609E+02  0.36073083418E+02  0.77260275257E+02  0.00000000000E+00 0. -1.
<scales pt_clust_5="13000.00000" pt_clust_6="13000.00000" pt_clust_7="13000.00000" pt_clust_8="13000.00000" pt_clust_9="68.32191"></scales>
<clustering>
<clus scale="   68.322">  2  9  1 -1</clus>
<clus scale="   80.995">  5  6 -1 -1</clus>
<clus scale="   86.345">  1  5  2 -1</clus>
<clus scale="   92.476">  7  8 -1 -1</clus>
<clus scale="   68.322">  2  5  1 -1</clus>
</clustering>
</event>
<event>
 9    2  0.4883225E-005  0.9319298E+02  0.7546771E-02  0.1301415E+00
         21   -1    0    0  501  502  0.00000000000E+00  0.00000000000E+00  0.80796837352E+02  0.80796837352E+02  0.00000000000E+00 0. -1.
          2   -1    0    0  502    0 -0.00000000000E+00 -0.00000000000E+00 -0.14451009613E+03  0.14451009613E+03  0.00000000000E+00 0. -1.
         23    2    1    2    0    0  0.14560255357E+02 -0.54251586687E+01 -0.30271207574E+02  0.97544400434E+02  0.91417343351E+02 0.  0.
         24    2    1    2    0    0 -0.15524739336E+02 -0.27777317952E+02 -0.11617513482E+02  0.88017783333E+02  0.81237716852E+02 0.  0.
        -11    1    4    4    0    0 -0.44290412835E+02 -0.94580868043E+01 -0.24585309706E+02  0.51531869056E+02  0.00000000000E+00 0.  1.
         12    1    4    4    0    0  0.28765673500E+02 -0.18319231148E+02  0.12967796224E+02  0.36485914277E+02  0.00000000000E+00 0. -1.
        -11    1    3    3    0    0 -0.38557945212E+01  0.20841161254E+02  0.25528845972E+02  0.33180463084E+02  0.00000000000E+00 0.  1.
         11    1    3    3    0    0  0.18416049879E+02 -0.26266319923E+02 -0.55800053546E+02  0.64363937350E+02  0.00000000000E+00 0. -1.
          1    1    1    2  501    0  0.96448397801E+00  0.33202476621E+02 -0.21824537722E+02  0.39744749715E+02  0.00000000000E+00 0. -1.
<scales pt_clust_5="13000.00000" pt_clust_6="13000.00000" pt_clust_7="13000.00000" pt_clust_8="13000.00000" pt_clust_9="33.21650"></scales>
<clustering>
<clus scale="   33.216">  1  9  2 -1</clus>
<clus scale="   81.238">  5  6 -1 -1</clus>
<clus scale="   83.231">  1  5  2 -1</clus>
<clus scale="   91.417">  7  8 -1 -1</clus>
<clus scale="   33.216">  1  5  2 -1</clus>
</clustering>
</event>
<event>
 9    2  0.4883225E-005  0.1150640E+03  0.7546771E-02  0.1266018E+00
         21   -1    0    0  501  502  0.00000000000E+00  0.00000000000E+00  0.62143911922E+02  0.62143911922E+02  0.00000000000E+00 0. -1.
          2   -1    0    0  502    0 -0.00000000000E+00 -0.00000000000E+00 -0.74227048820E+03  0.74227048820E+03  0.00000000000E+00 0. -1.
         24    2    1    2    0    0  0.30205818375E+02 -0.68500778009E+01 -0.54612966592E+03  0.55292121997E+03  0.80653260725E+02 0.  0.
         23    2    1    2    0    0  0.55699777077E+02 -0.14328449907E+02 -0.26013803928E+02  0.11189141569E+03  0.92386153010E+02 0.  0.
        -13    1    3    3    0    0  0.20353563619E+02  0.45634867755E+01 -0.29819087009E+02  0.36390533296E+02  0.00000000000E+00 0.  1.
         14    1    3    3    0    0  0.98522547557E+01 -0.11413564576E+02 -0.51631057891E+03  0.51653068667E+03  0.00000000000E+00 0. -1.
        -11    1    4    4    0    0 -0.25245452822E+02 -0.91650115131E+01 -0.12652004244E+02  0.29688441111E+02  0.00000000000E+00 0.  1.
         11    1    4    4    0    0  0.80945229899E+02 -0.51634383943E+01 -0.13361799685E+02  0.82202974582E+02  0.00000000000E+00 0. -1.
          1    1    1    2  501    0 -0.85905595451E+02  0.21178527708E+02 -0.10798310643E+03  0.13960176446E+03  0.00000000000E+00 0. -1.
<scales pt_clust_5="13000.00000" pt_clust_6="13000.00000" pt_clust_7="13000.00000" pt_clust_8="13000.00000" pt_clust_9="68.58961"></scales>
<clustering>
<clus scale="   80.653">  5  6 -1 -1</clus>
<clus scale="   86.396">  2  5  1 -1</clus>
<clus scale="   68.590">  1  9  2 -1</clus>
<clus scale="   92.386">  7  8 -1 -1</clus>
<clus scale="   68.590">  1  5  2 -1</clus>
</clustering>
</event>
<event>
 9    2  0.4883225E-005  0.1045393E+03  0.7546771E-02  0.1275293E+00
         21   -1    0    0  501  502  0.00000000000E+00  0.00000000000E+00  0.15900522545E+03  0.15900522545E+03  0.00000000000E+00 0. -1.
         -1   -1    0    0    0  501 -0.00000000000E+00 -0.00000000000E+00 -0.16366739893E+03  0.16366739893E+03  0.00000000000E+00 0.  1.
         23    2    1    2    0    0 -0.31940099086E+02  0.36307566430E+02 -0.10538244570E+03  0.14774762032E+03  0.91572321895E+02 0.  0.
         24    2    1    2    0    0  0.57558341985E+02 -0.32121236489E+02  0.10494171629E+03  0.14862594861E+03  0.82049815457E+02 0.  0.
        -13    1    4    4    0    0  0.70796700078E+02 -0.16494528974E+02  0.45508225333E+02  0.85762700523E+02  0.00000000000E+00 0.  1.
         14    1    4    4    0    0 -0.13238358093E+02 -0.15626707516E+02  0.59433490955E+02  0.62863248085E+02  0.00000000000E+00 0. -1.
        -13    1    3    3    0    0 -0.60449582448E+02  0.42931147472E+02 -0.79003691499E+02  0.10834582923E+03  0.00000000000E+00 0.  1.
         13    1    3    3    0    0  0.28509483362E+02 -0.66235810421E+01 -0.26378754205E+02  0.39401791086E+02  0.00000000000E+00 0. -1.
         -2    1    1    2    0  502 -0.25618242899E+02 -0.41863299404E+01 -0.42214440677E+01  0.26299055452E+02  0.00000000000E+00 0.  1.
<scales pt_clust_5="13000.00000" pt_clust_6="13000.00000" pt_clust_7="13000.00000" pt_clust_8="13000.00000" pt_clust_9="25.95805"></scales>
<clustering>
<clus scale="   25.958">  1  9  2 -1</clus>
<clus scale="   82.050">  5  6 -1 -1</clus>
<clus scale="   91.572">  7  8 -1 -1</clus>
<clus scale="   96.308">  1  5  2 -1</clus>
<clus scale="   25.958">  1  5  2 -1</clus>
</clustering>
</event>
<event>
 9    2  0.4883225E-005  0.3119853E+03  0.7546771E-02  0.1102318E+00
         21   -1    0    0  501  502  0.00000000000E+00  0.00000000000E+00  0.21722169415E+03  0.21722169415E+03  0.00000000000E+00 0. -1.
          2   -1    0    0  502    0 -0.00000000000E+00 -0.00000000000E+00 -0.78000450139E+03  0.78000450139E+03  0.00000000000E+00 0. -1.
         24    2    1    2    0    0  0.10641124599E+03 -0.10728212850E+03 -0.21404726180E+03  0.27357254396E+03  0.78694969073E+02 0.  0.
         23    2    1    2    0    0 -0.20590356930E+03  0.32294220951E+03 -0.17875045094E+03  0.43158700628E+03  0.87336531581E+02 0.  0.
        -11    1    3    3    0    0  0.63672107410E+01 -0.26509434257E+02 -0.93235268500E+02  0.97139625126E+02  0.00000000000E+00 0.  1.
         12    1    3    3    0    0  0.10004403525E+03 -0.80772694243E+02 -0.12081199330E+03  0.17643291883E+03  0.00000000000E+00 0. -1.
        -11    1    4    4    0    0 -0.31960050617E+02  0.26107132253E+02 -0.48573958944E+02  0.63737404068E+02  0.00000000000E+00 0.  1.
         11    1    4    4    0    0 -0.17394351869E+03  0.29683507725E+03 -0.13017649199E+03  0.36784960221E+03  0.00000000000E+00 0. -1.
          1    1    1    2  501    0  0.99492323314E+02 -0.21566008101E+03 -0.16998509451E+03  0.29206664529E+03  0.00000000000E+00 0. -1.
<scales pt_clust_5="13000.00000" pt_clust_6="13000.00000" pt_clust_7="13000.00000" pt_clust_8="13000.00000" pt_clust_9="299.51149"></scales>
<clustering>
<clus scale="   78.695">  5  6 -1 -1</clus>
<clus scale="   87.337">  7  8 -1 -1</clus>
<clus scale="  170.369">  2  5  1 -1</clus>
<clus scale="  299.511">  1  9  2 -1</clus>
<clus scale="  299.511">  1  5  2 -1</clus>
</clustering>
</event>
<event>
 9    2  0.4883225E-005  0.1311164E+03  0.7546771E-02  0.1228454E+00
         21   -1    0    0  501  502  0.00000000000E+00  0.00000000000E+00  0.57299076813E+02  0.57299076813E+02  0.00000000000E+00 0.  1.
          2   -1    0    0  502    0 -0.00000000000E+00 -0.00000000000E+00 -0.63580845466E+03  0.63580845466E+03  0.00000000000E+00 0. -1.
         24    2    1    2    0    0  0.95508595393E+02  0.30298460567E+02 -0.42612681840E+03  0.44528426380E+03  0.81572800116E+02 0.  0.
         23    2    1    2    0    0 -0.78932152652E+02 -0.16314363120E+02 -0.17694743734E+03  0.21505488868E+03  0.91879085747E+02 0.  0.
        -11    1    3    3    0    0  0.50291085027E+01  0.37620097520E+02 -0.10886887786E+03  0.11529525678E+03  0.00000000000E+00 0.  1.
         12    1    3    3    0    0  0.90479486890E+02 -0.73216369524E+01 -0.31725794055E+03  0.32998900702E+03  0.00000000000E+00 0. -1.
        -13    1    4    4    0    0 -0.45366179655E+02 -0.38362370287E+02 -0.38248853012E+02  0.70659298520E+02  0.00000000000E+00 0.  1.
         13    1    4    4    0    0 -0.33565972997E+02  0.22048007167E+02 -0.13869858433E+03  0.14439559016E+03  0.00000000000E+00 0. -1.
          1    1    1    2  501    0 -0.16576442741E+02 -0.13984097447E+02  0.24564877900E+02  0.32768378990E+02  0.00000000000E+00 0. -1.
<scales pt_clust_5="13000.00000" pt_clust_6="13000.00000" pt_clust_7="13000.00000" pt_clust_8="13000.00000" pt_clust_9="21.68717"></scales>
<clustering>
<clus scale="   21.687">  1  9  2 -1</clus>
<clus scale="   81.573">  5  6 -1 -1</clus>
<clus scale="   91.879">  7  8 -1 -1</clus>
<clus scale="  124.112">  2  5  1 -1</clus>
<clus scale="   21.687">  1  5  2 -1</clus>
</clustering>
</event>
<event>
 9    2  0.4883225E-005  0.2092274E+03  0.7546771E-02  0.1142844E+00
          2   -1    0    0  502    0 -0.00000000000E+00  0.00000000000E+00  0.54883902028E+03  0.54883902028E+03  0.00000000000E+00 0. -1.
         21   -1    0    0  501  502  0.00000000000E+00 -0.00000000000E+00 -0.15109915458E+03  0.15109915458E+03  0.00000000000E+00 0. -1.
         24    2    1    2    0    0 -0.48887818715E+02  0.23443677964E+03  0.27774712570E+03  0.37580116642E+03  0.82051376456E+02 0.  0.
         23    2    1    2    0    0  0.85679031936E+02 -0.10381449623E+03  0.40772069703E+02  0.16700111535E+03  0.90048124474E+02 0.  0.
        -11    1    3    3    0    0 -0.42549257769E+02  0.72247960788E+02  0.55332670662E+02  0.10045850694E+03  0.00000000000E+00 0.  1.
         12    1    3    3    0    0 -0.63385609458E+01  0.16218881885E+03  0.22241445504E+03  0.27534265947E+03  0.00000000000E+00 0. -1.
        -11    1    4    4    0    0  0.17381003712E+02 -0.50345294211E+02 -0.24324044340E+02  0.58552600901E+02  0.00000000000E+00 0. -1.
         11    1    4    4    0    0  0.68298028224E+02 -0.53469202015E+02  0.65096114043E+02  0.10844851445E+03  0.00000000000E+00 0.  1.
          1    1    1    2  501    0 -0.36791213221E+02 -0.13062228341E+03  0.79220670300E+02  0.15713589309E+03  0.00000000000E+00 0. -1.
<scales pt_clust_5="13000.00000" pt_clust_6="13000.00000" pt_clust_7="13000.00000" pt_clust_8="13000.00000" pt_clust_9="135.70473"></scales>
<clustering>
<clus scale="   82.051">  5  6 -1 -1</clus>
<clus scale="   90.048">  7  8 -1 -1</clus>
<clus scale="  135.705">  2  9  1 -1</clus>
<clus scale="  205.912">  1  5  2 -1</clus>
<clus scale="  135.705">  2  5  1 -1</clus>
</clustering>
</event>
<event>
 9    2  0.4883225E-005  0.1248027E+03  0.7546771E-02  0.1237423E+00
          2   -1    0    0  502    0 -0.00000000000E+00  0.00000000000E+00  0.28270325689E+03  0.28270325689E+03  0.00000000000E+00 0. -1.
         21   -1    0    0  501  502  0.00000000000E+00 -0.00000000000E+00 -0.15265244559E+03  0.15265244559E+03  0.00000000000E+00 0.  1.
         24    2    1    2    0    0  0.70010950534E+02 -0.35269601917E+02  0.15742461618E+03  0.19555767874E+03  0.85526708812E+02 0.  0.
         23    2    1    2    0    0 -0.11629406285E+03  0.31931403194E+02 -0.78224339254E+02  0.17095728796E+03  0.92538767498E+02 0.  0.
        -13    1    3    3    0    0 -0.19716684748E+02 -0.83707987657E+01  0.39728533450E+02  0.45135067293E+02  0.00000000000E+00 0.  1.
         14    1    3    3    0    0  0.89727635282E+02 -0.26898803151E+02  0.11769608273E+03  0.15042261145E+03  0.00000000000E+00 0. -1.
        -11    1    4    4    0    0 -0.36365259417E+02  0.34356545550E+02  0.10916387728E+02  0.51205193444E+02  0.00000000000E+00 0. -1.
         11    1    4    4    0    0 -0.79928803431E+02 -0.24251423559E+01 -0.89140726982E+02  0.11975209451E+03  0.00000000000E+00 0.  1.
          1    1    1    2  501    0  0.46283112314E+02  0.33381987228E+01  0.50850534377E+02  0.68840735779E+02  0.00000000000E+00 0. -1.
<scales pt_clust_5="13000.00000" pt_clust_6="13000.00000" pt_clust_7="13000.00000" pt_clust_8="13000.00000" pt_clust_9="46.40336"></scales>
<clustering>
<clus scale="   46.403">  2  9  1 -1</clus>
<clus scale="   85.527">  5  6 -1 -1</clus>
<clus scale="   92.539">  7  8 -1 -1</clus>
<clus scale="  119.696">  1  5  2 -1</clus>
<clus scale="   46.403">  2  5  1 -1</clus>
</clustering>
</event>
<event>
 9    2  0.4883225E-005  0.9689032E+02  0.7546771E-02  0.1293253E+00
         21   -1    0    0  501  502  0.00000000000E+00  0.00000000000E+00  0.30046195823E+02  0.30046195823E+02  0.00000000000E+00 0. -1.
          2   -1    0    0  502    0 -0.00000000000E+00 -0.00000000000E+00 -0.53392987169E+03  0.53392987169E+03  0.00000000000E+00 0. -1.
         23    2    1    2    0    0  0.41258697935E+01 -0.58213312156E+01 -0.18121719917E+03  0.20344602843E+03  0.92193831184E+02 0.  0.
         24    2    1    2    0    0 -0.42270272949E+02 -0.39419154917E+02 -0.23046725450E+03  0.25097460266E+03  0.80823573499E+02 0.  0.
        -11    1    4    4    0    0  0.20540082450E+02  0.57926472665E+01 -0.38978322763E+02  0.44438264984E+02  0.00000000000E+00 0.  1.
         12    1    4    4    0    0 -0.62810355399E+02 -0.45211802184E+02 -0.19148893173E+03  0.20653633767E+03  0.00000000000E+00 0. -1.
        -11    1    3    3    0    0  0.41951464980E+02 -0.24731461816E+02 -0.11488178616E+03  0.12477738340E+03  0.00000000000E+00 0.  1.
         11    1    3    3    0    0 -0.37825595186E+02  0.18910130600E+02 -0.66335413013E+02  0.78668645025E+02  0.00000000000E+00 0. -1.
          1    1    1    2  501    0  0.38144403155E+02  0.45240486133E+02 -0.92199222198E+02  0.10955543643E+03  0.00000000000E+00 0. -1.
<scales pt_clust_5="13000.00000" pt_clust_6="13000.00000" pt_clust_7="13000.00000" pt_clust_8="13000.00000" pt_clust_9="59.17514"></scales>
<clustering>
<clus scale="   59.175">  1  9  2 -1</clus>
<clus scale="   80.824">  5  6 -1 -1</clus>
<clus scale="   86.142">  1  5  2 -1</clus>
<clus scale="   92.194">  7  8 -1 -1</clus>
<clus scale="   59.175">  1  5  2 -1</clus>
</clustering>
</event>
<event>
 9    2  0.4883225E-005  0.9251670E+02  0.7546771E-02  0.1303924E+00
          2   -1    0    0  502    0 -0.00000000000E+00  0.00000000000E+00  0.84145196127E+02  0.84145196127E+02  0.00000000000E+00 0. -1.
         21   -1    0    0  501  502  0.00000000000E+00 -0.00000000000E+00 -0.11960094838E+03  0.11960094838E+03  0.00000000000E+00 0. -1.
         24    2    1    2    0    0  0.70558525942E+01  0.60000098381E+01 -0.55522060697E+01  0.81832099560E+02  0.81116461660E+02 0.  0.
         23    2    1    2    0    0  0.21885694883E+01  0.16102843866E+02 -0.27827873576E+02  0.97866094968E+02  0.92408281985E+02 0.  0.
        -13    1    3    3    0    0  0.12749715702E+02 -0.36544964260E+02 -0.33912693476E+01  0.38853447351E+02  0.00000000000E+00 0.  1.
         14    1    3    3    0    0 -0.56938631081E+01  0.42544974099E+02 -0.21609367221E+01  0.42978652208E+02  0.00000000000E+00 0. -1.
        -11    1    4    4    0    0 -0.39711018319E+02  0.73949973919E+01 -0.36222006913E+02  0.54255734694E+02  0.00000000000E+00 0.  1.
         11    1    4    4    0    0  0.41899587808E+02  0.87078464738E+01  0.83941333377E+01  0.43610360273E+02  0.00000000000E+00 0. -1.
          1    1    1    2  501    0 -0.92444220825E+01 -0.22102853704E+02 -0.20756726091E+01  0.24047949981E+02  0.00000000000E+00 0. -1.
<scales pt_clust_5="13000.00000" pt_clust_6="13000.00000" pt_clust_7="13000.00000" pt_clust_8="13000.00000" pt_clust_9="23.95821"></scales>
<clustering>
<clus scale="   23.958">  2  9  1 -1</clus>
<clus scale="   81.116">  5  6 -1 -1</clus>
<clus scale="   81.240">  1  5  2 -1</clus>
<clus scale="   92.408">  7  8 -1 -1</clus>
<clus scale="   23.958">  2  5  1 -1</clus>
</clustering>
</event>
<event>
 9    2  0.4883225E-005  0.2827384E+03  0.7546771E-02  0.1094642E+00
          2   -1    0    0  502    0 -0.00000000000E+00  0.00000000000E+00  0.12056066722E+04  0.12056066722E+04  0.00000000000E+00 0. -1.
         21   -1    0    0  501  502  0.00000000000E+00 -0.00000000000E+00 -0.11980049283E+03  0.11980049283E+03  0.00000000000E+00 0. -1.
         23    2    1    2    0    0  0.65786075364E+02 -0.31043217920E+03  0.78070517930E+03  0.84762732670E+03  0.90970118153E+02 0.  0.
         24    2    1    2    0    0 -0.85456411019E+02  0.19245904542E+03  0.27286420164E+03  0.35390977103E+03  0.80336611495E+02 0.  0.
        -13    1    4    4    0    0 -0.19197289140E+01  0.66432425923E+02  0.44336976907E+02  0.79891927592E+02  0.00000000000E+00 0.  1.
         14    1    4    4    0    0 -0.83536682105E+02  0.12602661950E+03  0.22852722474E+03  0.27401784344E+03  0.00000000000E+00 0. -1.
        -11    1    3    3    0    0  0.60550088268E+02 -0.15738470402E+03  0.50277461968E+03  0.53030045865E+03  0.00000000000E+00 0. -1.
         11    1    3    3    0    0  0.52359870958E+01 -0.15304747518E+03  0.27793055961E+03  0.31732686805E+03  0.00000000000E+00 0.  1.
          1    1    1    2  501    0  0.19670335656E+02  0.11797313378E+03  0.32236798424E+02  0.12387006729E+03  0.00000000000E+00 0. -1.
<scales pt_clust_5="13000.00000" pt_clust_6="13000.00000" pt_clust_7="13000.00000" pt_clust_8="13000.00000" pt_clust_9="119.60177"></scales>
<clustering>
<clus scale="   80.337">  5  6 -1 -1</clus>
<clus scale="   90.970">  7  8 -1 -1</clus>
<clus scale="  119.602">  2  9  1 -1</clus>
<clus scale="  279.499">  2  5  1 -1</clus>
<clus scale="  119.602">  2  5  1 -1</clus>
</clustering>
</event>
<event>
 9    2  0.4883225E-005  0.1019430E+03  0.7546771E-02  0.1280380E+00
         21   -1    0    0  501  502  0.00000000000E+00  0.00000000000E+00  0.14140451984E+03  0.14140451984E+03  0.00000000000E+00 0.  1.
          2   -1    0    0  502    0 -0.00000000000E+00 -0.00000000000E+00 -0.14507325353E+03  0.14507325353E+03  0.00000000000E+00 0. -1.
         24    2    1    2    0    0 -0.36036169892E+02  0.40912880640E+02 -0.66427034586E+02  0.11891482594E+03  0.82193160067E+02 0.  0.
         23    2    1    2    0    0  0.85745048254E+01 -0.10349820294E+02  0.81091275593E+02  0.12257026284E+03  0.90923228282E+02 0.  0.
        -11    1    3    3    0    0 -0.32131398984E+02 -0.73559618354E+01  0.42535073077E+01  0.33235963949E+02  0.00000000000E+00 0.  1.
         12    1    3    3    0    0 -0.39047709078E+01  0.48268842475E+02 -0.70680541893E+02  0.85678861991E+02  0.00000000000E+00 0. -1.
        -13    1    4    4    0    0  0.33799958632E+02  0.22204188444E+02  0.12083375527E+02  0.42207477443E+02  0.00000000000E+00 0. -1.
         13    1    4    4    0    0 -0.25225453807E+02 -0.32554008738E+02  0.69007900066E+02  0.80362785393E+02  0.00000000000E+00 0.  1.
          1    1    1    2  501    0  0.27461665066E+02 -0.30563060346E+02 -0.18332974690E+02  0.44992684593E+02  0.00000000000E+00 0. -1.
<scales pt_clust_5="13000.00000" pt_clust_6="13000.00000" pt_clust_7="13000.00000" pt_clust_8="13000.00000" pt_clust_9="41.08826"></scales>
<clustering>
<clus scale="   41.088">  1  9  2 -1</clus>
<clus scale="   82.193">  5  6 -1 -1</clus>
<clus scale="   90.923">  7  8 -1 -1</clus>
<clus scale="   94.239">  2  5  1 -1</clus>
<clus scale="   41.088">  1  5  2 -1</clus>
</clustering>
</event>
<event>
 9    2  0.4883225E-005  0.1323026E+03  0.7546771E-02  0.1225868E+00
          2   -1    0    0  502    0 -0.00000000000E+00  0.00000000000E+00  0.11947003621E+03  0.11947003621E+03  0.00000000000E+00 0. -1.
         21   -1    0    0  501  502  0.00000000000E+00 -0.00000000000E+00 -0.20360556513E+03  0.20360556513E+03  0.00000000000E+00 0.  1.
         23    2    1    2    0    0 -0.51341834566E+02  0.92186641164E+02  0.90303906158E+01  0.14018680950E+03  0.91850056171E+02 0.  0.
         24    2    1    2    0    0  0.14284294714E+02 -0.81394414855E+02 -0.64326477637E+02  0.13470739691E+03  0.84729541553E+02 0.  0.
        -13    1    4    4    0    0  0.15162521946E+02 -0.30779995295E+02 -0.75442978795E+02  0.82879148352E+02  0.00000000000E+00 0.  1.
         14    1    4    4    0    0 -0.87822723213E+00 -0.50614419560E+02  0.11116501158E+02  0.51828248557E+02  0.00000000000E+00 0. -1.
        -13    1    3    3    0    0 -0.67853784305E+02  0.27754858155E+02  0.25044370995E+01  0.73353530255E+02  0.00000000000E+00 0.  1.
         13    1    3    3    0    0  0.16511949739E+02  0.64431783009E+02  0.65259535163E+01  0.66833279249E+02  0.00000000000E+00 0. -1.
          1    1    1    2  501    0  0.37057539852E+02 -0.10792226309E+02 -0.28839441894E+02  0.48181394930E+02  0.00000000000E+00 0. -1.
<scales pt_clust_5="13000.00000" pt_clust_6="13000.00000" pt_clust_7="13000.00000" pt_clust_8="13000.00000" pt_clust_9="38.59706"></scales>
<clustering>
<clus scale="   38.597">  2  9  1 -1</clus>
<clus scale="   84.730">  5  6 -1 -1</clus>
<clus scale="   91.850">  7  8 -1 -1</clus>
<clus scale="  127.462">  2  5  1 -1</clus>
<clus scale="   38.597">  2  5  1 -1</clus>
</clustering>
</event>
<event>
 9    2  0.4883225E-005  0.9876661E+02  0.7546771E-02  0.1287651E+00
         21   -1    0    0  501  502  0.00000000000E+00  0.00000000000E+00  0.28474323566E+03  0.28474323566E+03  0.00000000000E+00 0.  1.
         -1   -1    0    0    0  501 -0.00000000000E+00 -0.00000000000E+00 -0.66653071534E+02  0.66653071534E+02  0.00000000000E+00 0.  1.
         23    2    1    2    0    0  0.23292243369E+02 -0.18577943372E+02  0.91084454666E+01  0.97348610677E+02  0.92228627013E+02 0.  0.
         24    2    1    2    0    0 -0.53598008628E+02  0.34525376931E+01  0.10321669116E+03  0.14299159202E+03  0.83115843907E+02 0.  0.
        -13    1    4    4    0    0 -0.72343840087E+02 -0.13557538928E+02  0.74944713876E+02  0.10504355382E+03  0.00000000000E+00 0.  1.
         14    1    4    4    0    0  0.18745831460E+02  0.17010076621E+02  0.28271977287E+02  0.37948038203E+02  0.00000000000E+00 0. -1.
        -11    1    3    3    0    0  0.33510454047E+02 -0.47822258002E+02  0.23806089399E+02  0.63060675411E+02  0.00000000000E+00 0.  1.
         11    1    3    3    0    0 -0.10218210678E+02  0.29244314629E+02 -0.14697643933E+02  0.34287935266E+02  0.00000000000E+00 0. -1.
         -2    1    1    2    0  502  0.30305765259E+02  0.15125405679E+02  0.10576502750E+03  0.11105610450E+03  0.00000000000E+00 0.  1.
<scales pt_clust_5="13000.00000" pt_clust_6="13000.00000" pt_clust_7="13000.00000" pt_clust_8="13000.00000" pt_clust_9="33.87060"></scales>
<clustering>
<clus scale="   33.871">  1  9  2 -1</clus>
<clus scale="   83.116">  5  6 -1 -1</clus>
<clus scale="   90.316">  1  5  2 -1</clus>
<clus scale="   92.229">  7  8 -1 -1</clus>
<clus scale="   33.871">  1  5  2 -1</clus>
</clustering>
</event>
<event>
 9    2  0.4883225E-005  0.1307736E+03  0.7546771E-02  0.1229070E+00
         21   -1    0    0  501  502  0.00000000000E+00  0.00000000000E+00  0.17690178636E+03  0.17690178636E+03  0.00000000000E+00 0.  1.
          2   -1    0    0  502    0 -0.00000000000E+00 -0.00000000000E+00 -0.17958376542E+03  0.17958376542E+03  0.00000000000E+00 0. -1.
         23    2    1    2    0    0  0.25288502513E+02 -0.97153222514E+02 -0.72711524582E+02  0.15421097464E+03  0.91737679762E+02 0.  0.
         24    2    1    2    0    0 -0.63034680171E+01  0.70751036939E+02  0.10780309903E+03  0.15243134006E+03  0.81045433775E+02 0.  0.
        -13    1    4    4    0    0 -0.28013419988E+02  0.26699559822E+02  0.93636324852E+02  0.10131820925E+03  0.00000000000E+00 0.  1.
         14    1    4    4    0    0  0.21709951971E+02  0.44051477117E+02  0.14166774181E+02  0.51113130813E+02  0.00000000000E+00 0. -1.
        -13    1    3    3    0    0  0.40457872770E+02 -0.12449911496E+02 -0.49406035850E+02  0.65059942697E+02  0.00000000000E+00 0.  1.
         13    1    3    3    0    0 -0.15169370257E+02 -0.84703311018E+02 -0.23305488731E+02  0.89151031942E+02  0.00000000000E+00 0. -1.
          1    1    1    2  501    0 -0.18985034496E+02  0.26402185575E+02 -0.37773553513E+02  0.49843237083E+02  0.00000000000E+00 0. -1.
<scales pt_clust_5="13000.00000" pt_clust_6="13000.00000" pt_clust_7="13000.00000" pt_clust_8="13000.00000" pt_clust_9="32.51935"></scales>
<clustering>
<clus scale="   32.519">  1  9  2 -1</clus>
<clus scale="   81.045">  5  6 -1 -1</clus>
<clus scale="   91.738">  7  8 -1 -1</clus>
<clus scale="  123.508">  1  5  2 -1</clus>
<clus scale="   32.519">  1  5  2 -1</clus>
</clustering>
</event>
<event>
 9    2  0.4883225E-005  0.1029206E+03  0.7546771E-02  0.1278977E+00
         21   -1    0    0  501  502  0.00000000000E+00  0.00000000000E+00  0.13050823331E+02  0.13050823331E+02  0.00000000000E+00 0.  1.
         -1   -1    0    0    0  501 -0.00000000000E+00 -0.00000000000E+00 -0.11826239270E+04  0.11826239270E+04  0.00000000000E+00 0.  1.
         23    2    1    2    0    0  0.25319076513E+02 -0.25531569270E+02 -0.51734604092E+03  0.52671236398E+03  0.92119876480E+02 0.  0.
         24    2    1    2    0    0 -0.14452021503E+02  0.63393803657E+02 -0.39103567612E+03  0.40481738427E+03  0.82101031308E+02 0.  0.
        -13    1    4    4    0    0  0.30392095380E+02  0.79466762731E+01 -0.86026416431E+02  0.91582604513E+02  0.00000000000E+00 0.  1.
         14    1    4    4    0    0 -0.44844116884E+02  0.55447127384E+02 -0.30500925969E+03  0.31323477976E+03  0.00000000000E+00 0. -1.
        -13    1    3    3    0    0  0.38996296260E+02 -0.53734765330E+02 -0.38674040254E+03  0.39239810790E+03  0.00000000000E+00 0.  1.
         13    1    3    3    0    0 -0.13677219747E+02  0.28203196059E+02 -0.13060563838E+03  0.13431425608E+03  0.00000000000E+00 0. -1.
         -2    1    1    2    0  502 -0.10867055009E+02 -0.37862234387E+02 -0.26119138658E+03  0.26414500204E+03  0.00000000000E+00 0.  1.
<scales pt_clust_5="13000.00000" pt_clust_6="13000.00000" pt_clust_7="13000.00000" pt_clust_8="13000.00000" pt_clust_9="39.39090"></scales>
<clustering>
<clus scale="   39.391">  1  9  2 -1</clus>
<clus scale="   82.101">  5  6 -1 -1</clus>
<clus scale="   92.120">  7  8 -1 -1</clus>
<clus scale="   94.059">  1  5  2 -1</clus>
<clus scale="   39.391">  1  5  2 -1</clus>
</clustering>
</event>
<event>
 9    2  0.4883225E-005  0.9183499E+02  0.7546771E-02  0.1305373E+00
          2   -1    0    0  502    0 -0.00000000000E+00  0.00000000000E+00  0.36346888710E+02  0.36346888710E+02  0.00000000000E+00 0. -1.
         21   -1    0    0  501  502  0.00000000000E+00 -0.00000000000E+00 -0.43081301673E+03  0.43081301673E+03  0.00000000000E+00 0. -1.
         24    2    1    2    0    0  0.20528629510E+02  0.23035164034E+02 -0.87702843922E+02  0.12213382908E+03  0.79201262373E+02 0.  0.
         23    2    1    2    0    0 -0.10391198408E+02  0.20729288458E+02 -0.11502071200E+03  0.14809129334E+03  0.90352568136E+02 0.  0.
        -13    1    3    3    0    0 -0.22116484710E+02  0.30814586814E+02 -0.59011200013E+02  0.70149835235E+02  0.00000000000E+00 0.  1.
         14    1    3    3    0    0  0.42645114220E+02 -0.77794227808E+01 -0.28691643909E+02  0.51983993843E+02  0.00000000000E+00 0. -1.
        -13    1    4    4    0    0  0.39341739644E+01  0.45714258128E+02 -0.22328331515E+02  0.51027693552E+02  0.00000000000E+00 0.  1.
         13    1    4    4    0    0 -0.14325372373E+02 -0.24984969671E+02 -0.92692380489E+02  0.97063599788E+02  0.00000000000E+00 0. -1.
          1    1    1    2  501    0 -0.10137431102E+02 -0.43764452491E+02 -0.19174257209E+03  0.19693478302E+03  0.00000000000E+00 0. -1.
<scales pt_clust_5="13000.00000" pt_clust_6="13000.00000" pt_clust_7="13000.00000" pt_clust_8="13000.00000" pt_clust_9="44.92321"></scales>
<clustering>
<clus scale="   44.923">  2  9  1 -1</clus>
<clus scale="   79.201">  5  6 -1 -1</clus>
<clus scale="   80.888">  1  5  2 -1</clus>
<clus scale="   90.353">  7  8 -1 -1</clus>
<clus scale="   44.923">  2  5  1 -1</clus>
</clustering>
</event>
<event>
 9    2  0.4883225E-005  0.1010142E+03  0.7546771E-02  0.1280721E+00
         21   -1    0    0  501  502  0.00000000000E+00  0.00000000000E+00  0.16366926368E+02  0.16366926368E+02  0.00000000000E+00 0.  1.
          2   -1    0    0  502    0 -0.00000000000E+00 -0.00000000000E+00 -0.17532492198E+04  0.17532492198E+04  0.00000000000E+00 0. -1.
         24    2    1    2    0    0  0.22460773582E+02 -0.42055914761E+02 -0.14821650382E+04  0.14854180364E+04  0.85908998657E+02 0.  0.
         23    2    1    2    0    0 -0.76100964077E+01  0.16647101535E+02 -0.21880182453E+03  0.23776462441E+03  0.91229044964E+02 0.  0.
        -13    1    3    3    0    0 -0.21943828718E+02 -0.71266074009E+01 -0.12718922316E+03  0.12926491651E+03  0.00000000000E+00 0.  1.
         14    1    3    3    0    0  0.44404602300E+02 -0.34929307360E+02 -0.13549758150E+04  0.13561531199E+04  0.00000000000E+00 0. -1.
        -11    1    4    4    0    0 -0.47401291554E+02  0.19210994370E+02 -0.97867690470E+02  0.11042658006E+03  0.00000000000E+00 0.  1.
         11    1    4    4    0    0  0.39791195146E+02 -0.25638928351E+01 -0.12093413406E+03  0.12733804435E+03  0.00000000000E+00 0. -1.
          1    1    1    2  501    0 -0.14850677174E+02  0.25408813226E+02 -0.35915430746E+02  0.46433485415E+02  0.00000000000E+00 0. -1.
<scales pt_clust_5="13000.00000" pt_clust_6="13000.00000" pt_clust_7="13000.00000" pt_clust_8="13000.00000" pt_clust_9="29.43043"></scales>
<clustering>
<clus scale="   29.430">  1  9  2 -1</clus>
<clus scale="   85.909">  5  6 -1 -1</clus>
<clus scale="   91.229">  7  8 -1 -1</clus>
<clus scale="   96.237">  2  5  1 -1</clus>
<clus scale="   29.430">  1  5  2 -1</clus>
</clustering>
</event>
<event>
 9    2  0.4883225E-005  0.1381528E+03  0.7546771E-02  0.1235211E+00
         21   -1    0    0  501  502  0.00000000000E+00  0.00000000000E+00  0.58946855162E+02  0.58946855162E+02  0.00000000000E+00 0. -1.
          4   -1    0    0  502    0 -0.00000000000E+00 -0.00000000000E+00 -0.69408897970E+03  0.69408897970E+03  0.00000000000E+00 0. -1.
         24    2    1    2    0    0 -0.45117876850E+02 -0.65129837131E+01 -0.25257900158E+03  0.26892264316E+03  0.80281966827E+02 0.  0.
         23    2    1    2    0    0 -0.78456292000E+02  0.42054666178E+02 -0.75982097268E+02  0.15165911711E+03  0.96453221799E+02 0.  0.
        -11    1    3    3    0    0 -0.16435257595E+02  0.33355131644E+02 -0.63664181413E+02  0.73727949206E+02  0.00000000000E+00 0.  1.
         12    1    3    3    0    0 -0.28682619256E+02 -0.39868115358E+02 -0.18891482017E+03  0.19519469395E+03  0.00000000000E+00 0. -1.
        -11    1    4    4    0    0  0.19366775444E+00 -0.26633025968E+02 -0.12160794993E+02  0.29278669954E+02  0.00000000000E+00 0.  1.
         11    1    4    4    0    0 -0.78649959754E+02  0.68687692147E+02 -0.63821302275E+02  0.12238044715E+03  0.00000000000E+00 0. -1.
          3    1    1    2  501    0  0.12357416885E+03 -0.35541682465E+02 -0.30658102569E+03  0.33245407459E+03  0.00000000000E+00 0. -1.
<scales pt_clust_5="13000.00000" pt_clust_6="13000.00000" pt_clust_7="13000.00000" pt_clust_8="13000.00000" pt_clust_9="98.90901"></scales>
<clustering>
<clus scale="   80.282">  5  6 -1 -1</clus>
<clus scale="   92.321">  2  5  1 -1</clus>
<clus scale="   96.453">  7  8 -1 -1</clus>
<clus scale="   98.909">  1  9  2 -1</clus>
<clus scale="   98.909">  1  5  2 -1</clus>
</clustering>
</event>
<event>
 9    2  0.4883225E-005  0.1237215E+03  0.7546771E-02  0.1242939E+00
         21   -1    0    0  501  502  0.00000000000E+00  0.00000000000E+00  0.34012904794E+02  0.34012904794E+02  0.00000000000E+00 0. -1.
          2   -1    0    0  502    0 -0.00000000000E+00 -0.00000000000E+00 -0.56624489958E+03  0.56624489958E+03  0.00000000000E+00 0. -1.
         24    2    1    2    0    0 -0.43564521087E+02  0.56979832591E+02 -0.28664245946E+03  0.30577174278E+03  0.78663144476E+02 0.  0.
         23    2    1    2    0    0  0.65149005520E+02 -0.61103264281E+02 -0.16670233197E+03  0.21259538135E+03  0.97103691282E+02 0.  0.
        -13    1    3    3    0    0 -0.24105576100E+02  0.95053501250E+01 -0.16319681249E+02  0.30622907703E+02  0.00000000000E+00 0.  1.
         14    1    3    3    0    0 -0.19458944986E+02  0.47474482466E+02 -0.27032277821E+03  0.27514883508E+03  0.00000000000E+00 0. -1.
        -11    1    4    4    0    0  0.62792052973E+02 -0.86094900629E+02 -0.12933092985E+03  0.16757584327E+03  0.00000000000E+00 0.  1.
         11    1    4    4    0    0  0.23569525472E+01  0.24991636348E+02 -0.37371402119E+02  0.45019538080E+02  0.00000000000E+00 0. -1.
          1    1    1    2  501    0 -0.21584484433E+02  0.41234316898E+01 -0.78887203360E+02  0.81890680246E+02  0.00000000000E+00 0. -1.
<scales pt_clust_5="13000.00000" pt_clust_6="13000.00000" pt_clust_7="13000.00000" pt_clust_8="13000.00000" pt_clust_9="21.97483"></scales>
<clustering>
<clus scale="   21.975">  1  9  2 -1</clus>
<clus scale="   78.663">  5  6 -1 -1</clus>
<clus scale="   97.104">  7  8 -1 -1</clus>
<clus scale="  109.844">  2  5  1 -1</clus>
<clus scale="   21.975">  1  5  2 -1</clus>
</clustering>
</event>
<event>
 9    2  0.4883225E-005  0.1559406E+03  0.7546771E-02  0.1194388E+00
         21   -1    0    0  501  502  0.00000000000E+00  0.00000000000E+00  0.52290828852E+02  0.52290828852E+02  0.00000000000E+00 0. -1.
          2   -1    0    0  502    0 -0.00000000000E+00 -0.00000000000E+00 -0.77482848466E+03  0.77482848466E+03  0.00000000000E+00 0. -1.
         24    2    1    2    0    0 -0.12351992902E+03  0.73218270045E+02 -0.55453107152E+03  0.57900941190E+03  0.84434008873E+02 0.  0.
         23    2    1    2    0    0  0.81800916275E+02 -0.38184490826E+02 -0.12317586336E+03  0.17755754340E+03  0.90581138550E+02 0.  0.
        -13    1    3    3    0    0 -0.10768545668E+02  0.19127939968E+02 -0.18877151165E+02  0.28951450729E+02  0.00000000000E+00 0.  1.
         14    1    3    3    0    0 -0.11275138335E+03  0.54090330077E+02 -0.53565392036E+03  0.55005796117E+03  0.00000000000E+00 0. -1.
        -13    1    4    4    0    0  0.40723505272E+02 -0.76780719708E+01 -0.11924462305E+03  0.12624039289E+03  0.00000000000E+00 0.  1.
         13    1    4    4    0    0  0.41077411003E+02 -0.30506418855E+02 -0.39312403095E+01  0.51317150510E+02  0.00000000000E+00 0. -1.
          1    1    1    2  501    0  0.41719012740E+02 -0.35033779219E+02 -0.44830720931E+02  0.70552358214E+02  0.00000000000E+00 0. -1.
<scales pt_clust_5="13000.00000" pt_clust_6="13000.00000" pt_clust_7="13000.00000" pt_clust_8="13000.00000" pt_clust_9="54.47790"></scales>
<clustering>
<clus scale="   54.478">  1  9  2 -1</clus>
<clus scale="   84.434">  5  6 -1 -1</clus>
<clus scale="   90.581">  7  8 -1 -1</clus>
<clus scale="  152.452">  2  5  1 -1</clus>
<clus scale="   54.478">  1  5  2 -1</clus>
</clustering>
</event>
<event>
 9    2  0.4883225E-005  0.1434201E+03  0.7546771E-02  0.1211243E+00
          2   -1    0    0  502    0 -0.00000000000E+00  0.00000000000E+00  0.35885491560E+03  0.35885491560E+03  0.00000000000E+00 0. -1.
         21   -1    0    0  501  502  0.00000000000E+00 -0.00000000000E+00 -0.14491460419E+03  0.14491460419E+03  0.00000000000E+00 0. -1.
         24    2    1    2    0    0 -0.83979297250E+01  0.98384741053E+02  0.31820745958E+02  0.13119338718E+03  0.80306055002E+02 0.  0.
         23    2    1    2    0    0  0.12229910393E+03 -0.92682643135E+02  0.28475370387E+02  0.18123212282E+03  0.92125417021E+02 0.  0.
        -11    1    3    3    0    0 -0.33186385783E+02  0.60960223648E+02 -0.96548456202E+01  0.70076394831E+02  0.00000000000E+00 0.  1.
         12    1    3    3    0    0  0.24788456058E+02  0.37424517405E+02  0.41475591578E+02  0.61116992347E+02  0.00000000000E+00 0. -1.
        -13    1    4    4    0    0  0.38703631493E+02  0.14333049679E+02 -0.44206642959E+01  0.41508428984E+02  0.00000000000E+00 0.  1.
         13    1    4    4    0    0  0.83595472437E+02 -0.10701569281E+03  0.32896034683E+02  0.13972369383E+03  0.00000000000E+00 0. -1.
          1    1    1    2  501    0 -0.11390117421E+03 -0.57020979179E+01  0.15364419506E+03  0.19134400979E+03  0.00000000000E+00 0. -1.
<scales pt_clust_5="13000.00000" pt_clust_6="13000.00000" pt_clust_7="13000.00000" pt_clust_8="13000.00000" pt_clust_9="114.04387"></scales>
<clustering>
<clus scale="   80.306">  5  6 -1 -1</clus>
<clus scale="   92.125">  7  8 -1 -1</clus>
<clus scale="  114.044">  2  9  1 -1</clus>
<clus scale="  136.130">  1  5  2 -1</clus>
<clus scale="  114.044">  2  5  1 -1</clus>
</clustering>
</event>
<event>
 9    2  0.4883225E-005  0.9679648E+02  0.7546771E-02  0.1287593E+00
          2   -1    0    0  502    0 -0.00000000000E+00  0.00000000000E+00  0.25383414800E+03  0.25383414800E+03  0.00000000000E+00 0. -1.
         21   -1    0    0  501  502  0.00000000000E+00 -0.00000000000E+00 -0.10998614462E+03  0.10998614462E+03  0.00000000000E+00 0. -1.
         24    2    1    2    0    0 -0.26587650629E+02 -0.21601623633E+02  0.16684188503E+03  0.19183839479E+03  0.88273562322E+02 0.  0.
         23    2    1    2    0    0  0.24401415123E+02  0.44610414415E+02  0.35929284132E+02  0.10868795227E+03  0.89087818340E+02 0.  0.
        -11    1    3    3    0    0 -0.11534277503E+02  0.18539226428E+02  0.24768607670E+01  0.21974469580E+02  0.00000000000E+00 0.  1.
         12    1    3    3    0    0 -0.15053373126E+02 -0.40140850062E+02  0.16436502426E+03  0.16986392521E+03  0.00000000000E+00 0. -1.
        -13    1    4    4    0    0  0.56726735825E+02  0.37803493112E+02  0.15706080666E+02  0.69955039981E+02  0.00000000000E+00 0.  1.
         13    1    4    4    0    0 -0.32325320702E+02  0.68069213028E+01  0.20223203466E+02  0.38732912291E+02  0.00000000000E+00 0. -1.
          1    1    1    2  501    0  0.21862355061E+01 -0.23008790782E+02 -0.58923165777E+02  0.63293945557E+02  0.00000000000E+00 0. -1.
<scales pt_clust_5="13000.00000" pt_clust_6="13000.00000" pt_clust_7="13000.00000" pt_clust_8="13000.00000" pt_clust_9="23.11242"></scales>
<clustering>
<clus scale="   23.112">  2  9  1 -1</clus>
<clus scale="   88.274">  5  6 -1 -1</clus>
<clus scale="   89.088">  7  8 -1 -1</clus>
<clus scale="   96.048">  1  5  2 -1</clus>
<clus scale="   23.112">  2  5  1 -1</clus>
</clustering>
</event>
<event>
 9    2  0.4883225E-005  0.1022307E+03  0.7546771E-02  0.1278227E+00
         21   -1    0    0  501  502  0.00000000000E+00  0.00000000000E+00  0.89337226696E+02  0.89337226696E+02  0.00000000000E+00 0.  1.
          2   -1    0    0  502    0 -0.00000000000E+00 -0.00000000000E+00 -0.36391757064E+03  0.36391757064E+03  0.00000000000E+00 0. -1.
         24    2    1    2    0    0 -0.18089994229E+02  0.52078042413E+02 -0.30688261874E+03  0.32195827775E+03  0.80254722831E+02 0.  0.
         23    2    1    2    0    0 -0.21616171859E+01 -0.58498852225E+02  0.17935221866E+02  0.10564955538E+03  0.86100917924E+02 0.  0.
        -11    1    3    3    0    0 -0.39073917900E+02  0.43854291842E+02 -0.11876782499E+03  0.13249817443E+03  0.00000000000E+00 0.  1.
         12    1    3    3    0    0  0.20983923670E+02  0.82237505710E+01 -0.18811479375E+03  0.18946010333E+03  0.00000000000E+00 0. -1.
        -11    1    4    4    0    0  0.28785683747E+02 -0.56922801619E+02  0.32294835965E+02  0.71496694769E+02  0.00000000000E+00 0.  1.
         11    1    4    4    0    0 -0.30947300933E+02 -0.15760506056E+01 -0.14359614099E+02  0.34152860607E+02  0.00000000000E+00 0. -1.
          1    1    1    2  501    0  0.20251611415E+02  0.64208098120E+01  0.14367052924E+02  0.25646964212E+02  0.00000000000E+00 0. -1.
<scales pt_clust_5="13000.00000" pt_clust_6="13000.00000" pt_clust_7="13000.00000" pt_clust_8="13000.00000" pt_clust_9="21.24511"></scales>
<clustering>
<clus scale="   21.245">  1  9  2 -1</clus>
<clus scale="   80.255">  5  6 -1 -1</clus>
<clus scale="   86.101">  7  8 -1 -1</clus>
<clus scale="   97.358">  2  5  1 -1</clus>
<clus scale="   21.245">  1  5  2 -1</clus>
</clustering>
</event>
<event>
 9    2  0.4883225E-005  0.1436084E+03  0.7546771E-02  0.1228411E+00
         21   -1    0    0  501  502  0.00000000000E+00  0.00000000000E+00  0.29402108663E+02  0.29402108663E+02  0.00000000000E+00 0. -1.
          2   -1    0    0  502    0 -0.00000000000E+00 -0.00000000000E+00 -0.16411624892E+04  0.16411624892E+04  0.00000000000E+00 0. -1.
         23    2    1    2    0    0 -0.14306501680E+02  0.23247000996E+02 -0.12560451322E+03  0.15721066744E+03  0.90518512858E+02 0.  0.
         24    2    1    2    0    0 -0.11737400365E+03 -0.20711505906E+02 -0.53271252888E+03  0.55085697779E+03  0.73858976043E+02 0.  0.
        -11    1    4    4    0    0 -0.34905869964E+02  0.16829534415E+02 -0.76746109729E+02  0.85974521488E+02  0.00000000000E+00 0.  1.
         12    1    4    4    0    0 -0.82468133690E+02 -0.37541040321E+02 -0.45596641915E+03  0.46488245630E+03  0.00000000000E+00 0. -1.
        -13    1    3    3    0    0  0.25195584254E+02 -0.21170312429E+02 -0.61746079006E+02  0.69968406205E+02  0.00000000000E+00 0.  1.
         13    1    3    3    0    0 -0.39502085934E+02  0.44417313425E+02 -0.63858434216E+02  0.87242261236E+02  0.00000000000E+00 0. -1.
          1    1    1    2  501    0  0.13168050533E+03 -0.25354950896E+01 -0.95344333839E+03  0.96249695259E+03  0.00000000000E+00 0. -1.
<scales pt_clust_5="13000.00000" pt_clust_6="13000.00000" pt_clust_7="13000.00000" pt_clust_8="13000.00000" pt_clust_9="123.15938"></scales>
<clustering>
<clus scale="   73.859">  5  6 -1 -1</clus>
<clus scale="   90.519">  7  8 -1 -1</clus>
<clus scale="   94.545">  2  7  1 -1</clus>
<clus scale="  123.159">  1  9  2 -1</clus>
<clus scale="  123.159">  1  5  2 -1</clus>
</clustering>
</event>
<event>
 9    2  0.4883225E-005  0.1068153E+03  0.7546771E-02  0.1272146E+00
          4   -1    0    0  502    0 -0.00000000000E+00  0.00000000000E+00  0.20518285801E+03  0.20518285801E+03  0.00000000000E+00 0. -1.
         21   -1    0    0  501  502  0.00000000000E+00 -0.00000000000E+00 -0.28233503807E+03  0.28233503807E+03  0.00000000000E+00 0.  1.
         24    2    1    2    0    0 -0.52582898045E+02 -0.21788957025E+02  0.16020569377E+03  0.18782680453E+03  0.79833103196E+02 0.  0.
         23    2    1    2    0    0  0.22072641782E+02 -0.46256081989E+02 -0.16308542039E+03  0.19444186158E+03  0.92649644108E+02 0.  0.
        -13    1    3    3    0    0 -0.44521734668E+02 -0.46848985053E+02  0.76853912542E+02  0.10041681200E+03  0.00000000000E+00 0.  1.
         14    1    3    3    0    0 -0.80611633772E+01  0.25060028027E+02  0.83351781231E+02  0.87409992530E+02  0.00000000000E+00 0. -1.
        -13    1    4    4    0    0  0.32700019451E+02  0.17187152861E+02 -0.88786540987E+02  0.96165167062E+02  0.00000000000E+00 0. -1.
         13    1    4    4    0    0 -0.10627377669E+02 -0.63443234850E+02 -0.74298879405E+02  0.98276694517E+02  0.00000000000E+00 0.  1.
          3    1    1    2  501    0  0.30510256263E+02  0.68045039014E+02 -0.74272453432E+02  0.10524922998E+03  0.00000000000E+00 0. -1.
<scales pt_clust_5="13000.00000" pt_clust_6="13000.00000" pt_clust_7="13000.00000" pt_clust_8="13000.00000" pt_clust_9="74.57213"></scales>
<clustering>
<clus scale="   74.572">  2  9  1 -1</clus>
<clus scale="   79.833">  5  6 -1 -1</clus>
<clus scale="   92.650">  7  8 -1 -1</clus>
<clus scale="   95.911">  1  5  2 -1</clus>
<clus scale="   74.572">  2  5  1 -1</clus>
</clustering>
</event>
<event>
 9    2  0.4883225E-005  0.9446628E+02  0.7546771E-02  0.1301613E+00
         21   -1    0    0  501  502  0.00000000000E+00  0.00000000000E+00  0.67060023521E+02  0.67060023521E+02  0.00000000000E+00 0.  1.
          2   -1    0    0  502    0 -0.00000000000E+00 -0.00000000000E+00 -0.27637399868E+03  0.27637399868E+03  0.00000000000E+00 0. -1.
         23    2    1    2    0    0 -0.15981358351E+02  0.13651449111E+02 -0.20980848831E+03  0.23058481346E+03  0.93316603850E+02 0.  0.
         24    2    1    2    0    0  0.16597289237E+01  0.11738540703E+02 -0.13870408133E+02  0.80351337802E+02  0.78252164359E+02 0.  0.
        -11    1    4    4    0    0 -0.30957028849E+02 -0.16991614471E+02 -0.10061299376E+02  0.36718964346E+02  0.00000000000E+00 0.  1.
         12    1    4    4    0    0  0.32616757773E+02  0.28730155173E+02 -0.38091087567E+01  0.43632373456E+02  0.00000000000E+00 0. -1.
        -11    1    3    3    0    0  0.19977731238E+02  0.43610935694E+02 -0.90557436960E+02  0.10247766999E+03  0.00000000000E+00 0. -1.
         11    1    3    3    0    0 -0.35959089589E+02 -0.29959486583E+02 -0.11925105135E+03  0.12810714347E+03  0.00000000000E+00 0.  1.
          1    1    1    2  501    0  0.14321629427E+02 -0.25389989813E+02  0.14364921283E+02  0.32497870940E+02  0.00000000000E+00 0. -1.
<scales pt_clust_5="13000.00000" pt_clust_6="13000.00000" pt_clust_7="13000.00000" pt_clust_8="13000.00000" pt_clust_9="29.15065"></scales>
<clustering>
<clus scale="   29.151">  1  9  2 -1</clus>
<clus scale="   78.252">  5  6 -1 -1</clus>
<clus scale="   79.620">  1  5  2 -1</clus>
<clus scale="   93.317">  7  8 -1 -1</clus>
<clus scale="   29.151">  1  5  2 -1</clus>
</clustering>
</event>
<event>
 9    2  0.4883225E-005  0.1047176E+03  0.7546771E-02  0.1273725E+00
         21   -1    0    0  501  502  0.00000000000E+00  0.00000000000E+00  0.15866915005E+02  0.15866915005E+02  0.00000000000E+00 0. -1.
          2   -1    0    0  502    0 -0.00000000000E+00 -0.00000000000E+00 -0.11498510290E+04  0.11498510290E+04  0.00000000000E+00 0. -1.
         24    2    1    2    0    0  0.59824942184E+02  0.36656578208E+01 -0.64426765581E+03  0.65235460802E+03  0.83025667894E+02 0.  0.
         23    2    1    2    0    0 -0.32226046331E+02 -0.36058411722E+02 -0.25326497702E+03  0.27311285731E+03  0.90048637553E+02 0.  0.
        -13    1    3    3    0    0  0.12519938785E+02 -0.36786034047E+02 -0.19907760028E+03  0.20283454366E+03  0.00000000000E+00 0.  1.
         14    1    3    3    0    0  0.47305003399E+02  0.40451691868E+02 -0.44519005553E+03  0.44952006436E+03  0.00000000000E+00 0. -1.
        -11    1    4    4    0    0 -0.12751747151E+02  0.15854571673E+02 -0.83380575141E+01  0.21988581160E+02  0.00000000000E+00 0.  1.
         11    1    4    4    0    0 -0.19474299181E+02 -0.51912983395E+02 -0.24492691951E+03  0.25112427615E+03  0.00000000000E+00 0. -1.
          1    1    1    2  501    0 -0.27598895852E+02  0.32392753902E+02 -0.23645148121E+03  0.24025047872E+03  0.00000000000E+00 0. -1.
<scales pt_clust_5="13000.00000" pt_clust_6="13000.00000" pt_clust_7="13000.00000" pt_clust_8="13000.00000" pt_clust_9="42.55574"></scales>
<clustering>
<clus scale="   42.556">  1  9  2 -1</clus>
<clus scale="   83.026">  5  6 -1 -1</clus>
<clus scale="   90.049">  7  8 -1 -1</clus>
<clus scale="   98.743">  2  5  1 -1</clus>
<clus scale="   42.556">  1  5  2 -1</clus>
</clustering>
</event>
<event>
 9    2  0.4883225E-005  0.2439580E+03  0.7546771E-02  0.1117184E+00
          4   -1    0    0  502    0 -0.00000000000E+00  0.00000000000E+00  0.90433371682E+02  0.90433371682E+02  0.00000000000E+00 0. -1.
         21   -1    0    0  501  502  0.00000000000E+00 -0.00000000000E+00 -0.46886652439E+03  0.46886652439E+03  0.00000000000E+00 0.  1.
         24    2    1    2    0    0 -0.62579556988E+02 -0.35033571100E+02 -0.10879613485E+03  0.15790049767E+03  0.89176320560E+02 0.  0.
         23    2    1    2    0    0 -0.83850626104E+02 -0.34928678080E+02 -0.16243401525E+03  0.20690261540E+03  0.90404330084E+02 0.  0.
        -11    1    3    3    0    0 -0.80314696354E+02 -0.46801575331E+02 -0.84796762063E+02  0.12582260830E+03  0.00000000000E+00 0.  1.
         12    1    3    3    0    0  0.17735139366E+02  0.11768004231E+02 -0.23999372787E+02  0.32077889364E+02  0.00000000000E+00 0. -1.
        -11    1    4    4    0    0 -0.69348323592E+02 -0.23789475359E+01 -0.15594007575E+03  0.17068144774E+03  0.00000000000E+00 0.  1.
         11    1    4    4    0    0 -0.14502302511E+02 -0.32549730544E+02 -0.64939395014E+01  0.36221167663E+02  0.00000000000E+00 0. -1.
          3    1    1    2  501    0  0.14643018309E+03  0.69962249180E+02 -0.10720300260E+03  0.19449678300E+03  0.00000000000E+00 0. -1.
<scales pt_clust_5="13000.00000" pt_clust_6="13000.00000" pt_clust_7="13000.00000" pt_clust_8="13000.00000" pt_clust_9="162.28537"></scales>
<clustering>
<clus scale="   89.176">  5  6 -1 -1</clus>
<clus scale="   90.404">  7  8 -1 -1</clus>
<clus scale="   93.192">  5  7 -1 -1</clus>
<clus scale="  162.285">  2  9  1 -1</clus>
<clus scale="  162.285">  2  5  1 -1</clus>
</clustering>
</event>
<event>
 9    2  0.4883225E-005  0.1334759E+03  0.7546771E-02  0.1224686E+00
          2   -1    0    0  502    0 -0.00000000000E+00  0.00000000000E+00  0.40146982526E+03  0.40146982526E+03  0.00000000000E+00 0. -1.
         21   -1    0    0  501  502  0.00000000000E+00 -0.00000000000E+00 -0.83550573073E+02  0.83550573073E+02  0.00000000000E+00 0.  1.
         23    2    1    2    0    0  0.62116310161E+01 -0.12848743056E+03  0.22502380726E+03  0.27432333094E+03  0.89833022301E+02 0.  0.
         24    2    1    2    0    0  0.74429360832E+01  0.47842184883E+02  0.10023049035E+02  0.94258513409E+02  0.80249198663E+02 0.  0.
        -11    1    4    4    0    0  0.19673463845E+02  0.60684158423E+02  0.27400904181E+02  0.69429257616E+02  0.00000000000E+00 0.  1.
         12    1    4    4    0    0 -0.12230527762E+02 -0.12841973540E+02 -0.17377855146E+02  0.24829255792E+02  0.00000000000E+00 0. -1.
        -11    1    3    3    0    0  0.48053313623E+02 -0.72643518806E+02  0.12270217743E+03  0.15047267566E+03  0.00000000000E+00 0. -1.
         11    1    3    3    0    0 -0.41841682607E+02 -0.55843911750E+02  0.10232162983E+03  0.12385065529E+03  0.00000000000E+00 0.  1.
          1    1    1    2  501    0 -0.13654567099E+02  0.80645245673E+02  0.82872395897E+02  0.11643855398E+03  0.00000000000E+00 0. -1.
<scales pt_clust_5="13000.00000" pt_clust_6="13000.00000" pt_clust_7="13000.00000" pt_clust_8="13000.00000" pt_clust_9="81.79309"></scales>
<clustering>
<clus scale="   80.249">  5  6 -1 -1</clus>
<clus scale="   81.793">  2  9  1 -1</clus>
<clus scale="   89.833">  7  8 -1 -1</clus>
<clus scale="  127.223">  2  5  1 -1</clus>
<clus scale="   81.793">  2  5  1 -1</clus>
</clustering>
</event>
<event>
 9    2  0.4883225E-005  0.1163700E+03  0.7546771E-02  0.1252591E+00
          2   -1    0    0  502    0 -0.00000000000E+00  0.00000000000E+00  0.11857335618E+03  0.11857335618E+03  0.00000000000E+00 0. -1.
         21   -1    0    0  501  502  0.00000000000E+00 -0.00000000000E+00 -0.39939143306E+03  0.39939143306E+03  0.00000000000E+00 0. -1.
         23    2    1    2    0    0  0.49057129695E+02 -0.49521086103E+02  0.54882972079E+02  0.12647777926E+03  0.90141822028E+02 0.  0.
         24    2    1    2    0    0 -0.34549186981E+02  0.90010355785E+02 -0.12714246798E+03  0.17853973233E+03  0.80098179683E+02 0.  0.
        -13    1    4    4    0    0 -0.33810960047E+02  0.27799373024E+02 -0.10280126265E+03  0.11173220557E+03  0.00000000000E+00 0.  1.
         14    1    4    4    0    0 -0.73822693318E+00  0.62210982761E+02 -0.24341205331E+02  0.66807526762E+02  0.00000000000E+00 0. -1.
        -11    1    3    3    0    0  0.28697773096E+02  0.23902021898E+02  0.23146598132E+02  0.43938978556E+02  0.00000000000E+00 0.  1.
         11    1    3    3    0    0  0.20359356599E+02 -0.73423108001E+02  0.31736373947E+02  0.82538800700E+02  0.00000000000E+00 0. -1.
          1    1    1    2  501    0 -0.14507942715E+02 -0.40489269682E+02 -0.20855858097E+03  0.21294727765E+03  0.00000000000E+00 0. -1.
<scales pt_clust_5="13000.00000" pt_clust_6="13000.00000" pt_clust_7="13000.00000" pt_clust_8="13000.00000" pt_clust_9="43.01001"></scales>
<clustering>
<clus scale="   43.010">  2  9  1 -1</clus>
<clus scale="   80.098">  5  6 -1 -1</clus>
<clus scale="   90.142">  7  8 -1 -1</clus>
<clus scale="  108.776">  2  5  1 -1</clus>
<clus scale="   43.010">  2  5  1 -1</clus>
</clustering>
</event>
<event>
 9    2  0.4883225E-005  0.1058991E+03  0.7546771E-02  0.1273584E+00
         21   -1    0    0  501  502  0.00000000000E+00  0.00000000000E+00  0.94248316548E+02  0.94248316548E+02  0.00000000000E+00 0.  1.
         -3   -1    0    0    0  501 -0.00000000000E+00 -0.00000000000E+00 -0.22465290816E+03  0.22465290816E+03  0.00000000000E+00 0.  1.
         23    2    1    2    0    0 -0.20772210010E+02 -0.47575330821E+02 -0.13884669924E+03  0.17525095872E+03  0.93485805494E+02 0.  0.
         24    2    1    2    0    0  0.51152806046E+02  0.21453092050E+02 -0.10399607381E+02  0.99374288321E+02  0.81793964451E+02 0.  0.
        -11    1    4    4    0    0  0.35674172243E+02 -0.28775684969E+02 -0.94972309049E+01  0.46806879895E+02  0.00000000000E+00 0.  1.
         12    1    4    4    0    0  0.15478633803E+02  0.50228777019E+02 -0.90237647615E+00  0.52567408425E+02  0.00000000000E+00 0. -1.
        -11    1    3    3    0    0  0.13044735869E+02 -0.50158418527E+02 -0.13036761937E+03  0.14029165429E+03  0.00000000000E+00 0.  1.
         11    1    3    3    0    0 -0.33816945879E+02  0.25830877061E+01 -0.84790798762E+01  0.34959304430E+02  0.00000000000E+00 0. -1.
         -4    1    1    2    0  502 -0.30380596036E+02  0.26122238771E+02  0.18841715015E+02  0.44275977669E+02  0.00000000000E+00 0.  1.
<scales pt_clust_5="13000.00000" pt_clust_6="13000.00000" pt_clust_7="13000.00000" pt_clust_8="13000.00000" pt_clust_9="40.06684"></scales>
<clustering>
<clus scale="   40.067">  1  9  2 -1</clus>
<clus scale="   81.794">  5  6 -1 -1</clus>
<clus scale="   93.486">  7  8 -1 -1</clus>
<clus scale="   95.735">  1  5  2 -1</clus>
<clus scale="   40.067">  1  5  2 -1</clus>
</clustering>
</event>
<event>
 9    2  0.4883225E-005  0.9436948E+02  0.7546771E-02  0.1299872E+00
          2   -1    0    0  502    0 -0.00000000000E+00  0.00000000000E+00  0.24283266458E+03  0.24283266458E+03  0.00000000000E+00 0. -1.
         21   -1    0    0  501  502  0.00000000000E+00 -0.00000000000E+00 -0.87379821567E+02  0.87379821567E+02  0.00000000000E+00 0.  1.
         24    2    1    2    0    0  0.50775533420E+02  0.68181693105E+01  0.65331377498E+02  0.11416223624E+03  0.78359333022E+02 0.  0.
         23    2    1    2    0    0  0.27861822320E+02 -0.10790825261E+02 -0.10349915131E+01  0.95596460543E+02  0.90801371180E+02 0.  0.
        -13    1    3    3    0    0  0.52892609003E+02  0.32175954552E+02  0.63444971495E+02  0.88646401768E+02  0.00000000000E+00 0.  1.
         14    1    3    3    0    0 -0.21170755828E+01 -0.25357785242E+02  0.18864060031E+01  0.25515834476E+02  0.00000000000E+00 0. -1.
        -11    1    4    4    0    0 -0.13758268585E+02  0.25748064005E+02  0.21030119280E+02  0.35979420110E+02  0.00000000000E+00 0. -1.
         11    1    4    4    0    0  0.41620090905E+02 -0.36538889267E+02 -0.22065110793E+02  0.59617040434E+02  0.00000000000E+00 0.  1.
          1    1    1    2  501    0 -0.78637355740E+02  0.39726559508E+01  0.91156457028E+02  0.12045378936E+03  0.00000000000E+00 0. -1.
<scales pt_clust_5="13000.00000" pt_clust_6="13000.00000" pt_clust_7="13000.00000" pt_clust_8="13000.00000" pt_clust_9="78.73768"></scales>
<clustering>
<clus scale="   78.359">  5  6 -1 -1</clus>
<clus scale="   78.738">  2  9  1 -1</clus>
<clus scale="   82.468">  1  5  2 -1</clus>
<clus scale="   90.801">  7  8 -1 -1</clus>
<clus scale="   78.738">  2  5  1 -1</clus>
</clustering>
</event>
<event>
 9    2  0.4883225E-005  0.1354111E+03  0.7546771E-02  0.1221792E+00
         -1   -1    0    0    0  501 -0.00000000000E+00  0.00000000000E+00  0.49923402993E+02  0.49923402993E+02  0.00000000000E+00 0.  1.
         21   -1    0    0  501  502  0.00000000000E+00 -0.00000000000E+00 -0.81458229825E+03  0.81458229825E+03  0.00000000000E+00 0.  1.
         24    2    1    2    0    0  0.35813583771E+02 -0.69171934165E+02 -0.19297444228E+03  0.22386928793E+03  0.82528500821E+02 0.  0.
         23    2    1    2    0    0 -0.12030692529E+03  0.10154580957E+03 -0.47243011177E+03  0.50632849538E+03  0.91613465263E+02 0.  0.
        -11    1    3    3    0    0  0.15310163230E+02 -0.46159008970E+02 -0.28157550850E+02  0.56195221124E+02  0.00000000000E+00 0.  1.
         12    1    3    3    0    0  0.20503420542E+02 -0.23012925194E+02 -0.16481689143E+03  0.16767406681E+03  0.00000000000E+00 0. -1.
        -11    1    4    4    0    0 -0.86530943697E+02  0.24909125223E+02 -0.16825592278E+03  0.19083533291E+03  0.00000000000E+00 0. -1.
         11    1    4    4    0    0 -0.33775981590E+02  0.76636684345E+02 -0.30417418899E+03  0.31549316247E+03  0.00000000000E+00 0.  1.
         -2    1    1    2    0  502  0.84493341516E+02 -0.32373875403E+02 -0.99254341206E+02  0.13430791792E+03  0.00000000000E+00 0.  1.
<scales pt_clust_5="13000.00000" pt_clust_6="13000.00000" pt_clust_7="13000.00000" pt_clust_8="13000.00000" pt_clust_9="90.48315"></scales>
<clustering>
<clus scale="   82.529">  5  6 -1 -1</clus>
<clus scale="   90.483">  2  9  1 -1</clus>
<clus scale="   91.613">  7  8 -1 -1</clus>
<clus scale="  129.438">  1  5  2 -1</clus>
<clus scale="   90.483">  2  5  1 -1</clus>
</clustering>
</event>
<event>
 9    2  0.4883225E-005  0.1013490E+03  0.7546771E-02  0.1288171E+00
         21   -1    0    0  501  502  0.00000000000E+00  0.00000000000E+00  0.22596827949E+02  0.22596827949E+02  0.00000000000E+00 0.  1.
          2   -1    0    0  502    0 -0.00000000000E+00 -0.00000000000E+00 -0.55894236407E+03  0.55894236407E+03  0.00000000000E+00 0. -1.
         23    2    1    2    0    0 -0.24493553897E+02  0.19040335529E+02 -0.25263065306E+03  0.27321864189E+03  0.99316216471E+02 0.  0.
         24    2    1    2    0    0  0.16163777920E+02  0.15514091029E+02 -0.17275276155E+03  0.19180451701E+03  0.80271423213E+02 0.  0.
        -13    1    4    4    0    0 -0.26027758173E+02  0.21542873678E+02 -0.39903309730E+02  0.52285884608E+02  0.00000000000E+00 0.  1.
         14    1    4    4    0    0  0.42191536093E+02 -0.60287826491E+01 -0.13284945182E+03  0.13951863240E+03  0.00000000000E+00 0. -1.
        -13    1    3    3    0    0  0.33556214064E+02 -0.11604637674E+02 -0.60091764656E+02  0.69797616703E+02  0.00000000000E+00 0.  1.
         13    1    3    3    0    0 -0.58049767961E+02  0.30644973203E+02 -0.19253888840E+03  0.20342102519E+03  0.00000000000E+00 0. -1.
          1    1    1    2  501    0  0.83297759769E+01 -0.34554426558E+02 -0.11096212151E+03  0.11651603312E+03  0.00000000000E+00 0. -1.
<scales pt_clust_5="13000.00000" pt_clust_6="13000.00000" pt_clust_7="13000.00000" pt_clust_8="13000.00000" pt_clust_9="35.54427"></scales>
<clustering>
<clus scale="   35.544">  1  9  2 -1</clus>
<clus scale="   80.271">  5  6 -1 -1</clus>
<clus scale="   82.773">  1  5  2 -1</clus>
<clus scale="   99.316">  7  8 -1 -1</clus>
<clus scale="   35.544">  1  5  2 -1</clus>
</clustering>
</event>
<event>
 9    2  0.4883225E-005  0.2431872E+03  0.7546771E-02  0.1118493E+00
         21   -1    0    0  501  502  0.00000000000E+00  0.00000000000E+00  0.53225576142E+03  0.53225576142E+03  0.00000000000E+00 0. -1.
         -1   -1    0    0    0  501 -0.00000000000E+00 -0.00000000000E+00 -0.17255537006E+03  0.17255537006E+03  0.00000000000E+00 0.  1.
         24    2    1    2    0    0  0.21687250566E+03  0.44356918696E+02  0.73027464030E+01  0.23552243190E+03  0.80101597214E+02 0.  0.
         23    2    1    2    0    0 -0.22265159046E+03 -0.64802868293E+02  0.21359770988E+03  0.32887197460E+03  0.93593010110E+02 0.  0.
        -11    1    3    3    0    0  0.19787913705E+03  0.22756676681E+02 -0.14082305970E+02  0.19968057130E+03  0.00000000000E+00 0.  1.
         12    1    3    3    0    0  0.18993368606E+02  0.21600242015E+02  0.21385052372E+02  0.35841860597E+02  0.00000000000E+00 0. -1.
        -11    1    4    4    0    0 -0.38663081248E+02  0.20592990729E+02  0.18891638919E+02  0.47705336596E+02  0.00000000000E+00 0.  1.
         11    1    4    4    0    0 -0.18398850921E+03 -0.85395859022E+02  0.19470607096E+03  0.28116663801E+03  0.00000000000E+00 0. -1.
         -2    1    1    2    0  502  0.57790848002E+01  0.20445949598E+02  0.13879993508E+03  0.14041672498E+03  0.00000000000E+00 0.  1.
<scales pt_clust_5="13000.00000" pt_clust_6="13000.00000" pt_clust_7="13000.00000" pt_clust_8="13000.00000" pt_clust_9="21.24699"></scales>
<clustering>
<clus scale="   21.247">  1  9  2 -1</clus>
<clus scale="   80.102">  5  6 -1 -1</clus>
<clus scale="   93.593">  7  8 -1 -1</clus>
<clus scale="  238.320">  2  5  1 -1</clus>
<clus scale="   21.247">  1  5  2 -1</clus>
</clustering>
</event>
<event>
 9    2  0.4883225E-005  0.2222582E+03  0.7546771E-02  0.1132211E+00
         21   -1    0    0  501  502  0.00000000000E+00  0.00000000000E+00  0.61942254010E+02  0.61942254010E+02  0.00000000000E+00 0.  1.
         -1   -1    0    0    0  501 -0.00000000000E+00 -0.00000000000E+00 -0.50494797200E+03  0.50494797200E+03  0.00000000000E+00 0.  1.
         24    2    1    2    0    0  0.48385173264E+02 -0.76670112142E+02 -0.14246479570E+03  0.18971090893E+03  0.86455652589E+02 0.  0.
         23    2    1    2    0    0  0.26036166790E+02 -0.22947780820E+02 -0.84807203358E+02  0.12817470279E+03  0.89621482186E+02 0.  0.
        -11    1    3    3    0    0  0.64977750073E+02 -0.84418816567E+02 -0.12681451748E+03  0.16562175714E+03  0.00000000000E+00 0.  1.
         12    1    3    3    0    0 -0.16592576808E+02  0.77487044254E+01 -0.15650278225E+02  0.24089151790E+02  0.00000000000E+00 0. -1.
        -11    1    4    4    0    0  0.20001088912E+02  0.29573164743E+02 -0.10943702459E+02  0.37341401341E+02  0.00000000000E+00 0.  1.
         11    1    4    4    0    0  0.60350778781E+01 -0.52520945563E+02 -0.73863500899E+02  0.90833301453E+02  0.00000000000E+00 0. -1.
         -2    1    1    2    0  502 -0.74421340054E+02  0.99617892961E+02 -0.21573371893E+03  0.24900461429E+03  0.00000000000E+00 0.  1.
<scales pt_clust_5="13000.00000" pt_clust_6="13000.00000" pt_clust_7="13000.00000" pt_clust_8="13000.00000" pt_clust_9="124.34740"></scales>
<clustering>
<clus scale="   86.456">  5  6 -1 -1</clus>
<clus scale="   89.621">  7  8 -1 -1</clus>
<clus scale="   92.273">  5  7 -1 -1</clus>
<clus scale="  124.347">  1  9  2 -1</clus>
<clus scale="  124.347">  1  5  2 -1</clus>
</clustering>
</event>
<event>
 9    2  0.4883225E-005  0.1179349E+03  0.7546771E-02  0.1249823E+00
          2   -1    0    0  502    0 -0.00000000000E+00  0.00000000000E+00  0.82698713990E+03  0.82698713990E+03  0.00000000000E+00 0. -1.
         21   -1    0    0  501  502  0.00000000000E+00 -0.00000000000E+00 -0.46291047331E+02  0.46291047331E+02  0.00000000000E+00 0. -1.
         24    2    1    2    0    0 -0.44080070948E+02 -0.70226529051E+02  0.61617966643E+03  0.62678382506E+03  0.79408840809E+02 0.  0.
         23    2    1    2    0    0  0.44061031413E+02  0.42137257623E+02  0.18314710947E+03  0.21278813288E+03  0.89548885071E+02 0.  0.
        -13    1    3    3    0    0  0.24343270570E+01 -0.68065098231E+02  0.38067822306E+03  0.38672301852E+03  0.00000000000E+00 0.  1.
         14    1    3    3    0    0 -0.46514398005E+02 -0.21614308195E+01  0.23550144337E+03  0.24006080654E+03  0.00000000000E+00 0. -1.
        -11    1    4    4    0    0  0.99291835757E+01 -0.19517640907E+02  0.10625116055E+03  0.10848426665E+03  0.00000000000E+00 0. -1.
         11    1    4    4    0    0  0.34131847837E+02  0.61654898530E+02  0.76895948927E+02  0.10430386623E+03  0.00000000000E+00 0.  1.
          1    1    1    2  501    0  0.19039534857E-01  0.28089271428E+02 -0.18630683330E+02  0.33706229293E+02  0.00000000000E+00 0. -1.
<scales pt_clust_5="13000.00000" pt_clust_6="13000.00000" pt_clust_7="13000.00000" pt_clust_8="13000.00000" pt_clust_9="28.08928"></scales>
<clustering>
<clus scale="   28.089">  2  9  1 -1</clus>
<clus scale="   79.409">  5  6 -1 -1</clus>
<clus scale="   89.549">  7  8 -1 -1</clus>
<clus scale="  110.433">  1  5  2 -1</clus>
<clus scale="   28.089">  2  5  1 -1</clus>
</clustering>
</event>
<event>
 9    2  0.4883225E-005  0.1396053E+03  0.7546771E-02  0.1230412E+00
         -1   -1    0    0    0  501 -0.00000000000E+00  0.00000000000E+00  0.10338116315E+03  0.10338116315E+03  0.00000000000E+00 0.  1.
         21   -1    0    0  501  502  0.00000000000E+00 -0.00000000000E+00 -0.31761553781E+03  0.31761553781E+03  0.00000000000E+00 0.  1.
         23    2    1    2    0    0 -0.34921335502E+02 -0.11830203918E+02 -0.83321514400E+02  0.12920117975E+03  0.91602492803E+02 0.  0.
         24    2    1    2    0    0 -0.74171259938E+02  0.74184267470E+02 -0.86070895934E+02  0.15837878543E+03  0.81675940203E+02 0.  0.
        -13    1    4    4    0    0 -0.19240241773E+02  0.75587632714E+02 -0.51010859282E+02  0.93197558378E+02  0.00000000000E+00 0.  1.
         14    1    4    4    0    0 -0.54931018165E+02 -0.14033652439E+01 -0.35060036652E+02  0.65181227057E+02  0.00000000000E+00 0. -1.
        -13    1    3    3    0    0  0.28458434400E+02 -0.53316063552E+01 -0.48786520351E+02  0.56731235513E+02  0.00000000000E+00 0. -1.
         13    1    3    3    0    0 -0.63379769902E+02 -0.64985975631E+01 -0.34534994049E+02  0.72469944233E+02  0.00000000000E+00 0.  1.
         -2    1    1    2    0  502  0.10909259544E+03 -0.62354063552E+02 -0.44841964330E+02  0.13341673578E+03  0.00000000000E+00 0.  1.
<scales pt_clust_5="13000.00000" pt_clust_6="13000.00000" pt_clust_7="13000.00000" pt_clust_8="13000.00000" pt_clust_9="113.21967"></scales>
<clustering>
<clus scale="   81.676">  5  6 -1 -1</clus>
<clus scale="   91.602">  7  8 -1 -1</clus>
<clus scale="   98.745">  1  7  2 -1</clus>
<clus scale="  113.220">  2  9  1 -1</clus>
<clus scale="  113.220">  2  5  1 -1</clus>
</clustering>
</event>
<event>
 9    2  0.4883225E-005  0.9833544E+02  0.7546771E-02  0.1290662E+00
          2   -1    0    0  502    0 -0.00000000000E+00  0.00000000000E+00  0.69792570031E+03  0.69792570031E+03  0.00000000000E+00 0. -1.
         21   -1    0    0  501  502  0.00000000000E+00 -0.00000000000E+00 -0.27641071651E+03  0.27641071651E+03  0.00000000000E+00 0. -1.
         24    2    1    2    0    0 -0.32491501677E+01 -0.27073543611E+02  0.64672353015E+03  0.65242256831E+03  0.81610964025E+02 0.  0.
         23    2    1    2    0    0  0.16856277988E+02  0.59011068752E+02 -0.20373309487E+02  0.11415766040E+03  0.94076879976E+02 0.  0.
        -11    1    3    3    0    0  0.21570781828E+02 -0.28848273207E+02  0.12449142734E+03  0.12959798215E+03  0.00000000000E+00 0.  1.
         12    1    3    3    0    0 -0.24819931996E+02  0.17747295956E+01  0.52223210281E+03  0.52282458616E+03  0.00000000000E+00 0. -1.
        -13    1    4    4    0    0 -0.33823196482E+01  0.68023837410E+02  0.17464140160E+02  0.70311298762E+02  0.00000000000E+00 0. -1.
         13    1    4    4    0    0  0.20238597636E+02 -0.90127686577E+01 -0.37837449648E+02  0.43846361639E+02  0.00000000000E+00 0.  1.
          1    1    1    2  501    0 -0.13607127820E+02 -0.31937525141E+02 -0.20483523686E+03  0.20775618811E+03  0.00000000000E+00 0. -1.
<scales pt_clust_5="13000.00000" pt_clust_6="13000.00000" pt_clust_7="13000.00000" pt_clust_8="13000.00000" pt_clust_9="34.71541"></scales>
<clustering>
<clus scale="   34.715">  2  9  1 -1</clus>
<clus scale="   81.611">  5  6 -1 -1</clus>
<clus scale="   86.486">  1  5  2 -1</clus>
<clus scale="   94.077">  7  8 -1 -1</clus>
<clus scale="   34.715">  2  5  1 -1</clus>
</clustering>
</event>
<event>
 9    2  0.4883225E-005  0.1185593E+03  0.7546771E-02  0.1248150E+00
         -3   -1    0    0    0  501 -0.00000000000E+00  0.00000000000E+00  0.21013904331E+02  0.21013904331E+02  0.00000000000E+00 0.  1.
         21   -1    0    0  501  502  0.00000000000E+00 -0.00000000000E+00 -0.10133251589E+04  0.10133251589E+04  0.00000000000E+00 0.  1.
         24    2    1    2    0    0 -0.82648042096E+02 -0.34271824732E+02 -0.24193718915E+03  0.27047035884E+03  0.81334830704E+02 0.  0.
         23    2    1    2    0    0  0.44675337593E+02  0.29535518742E+02 -0.52862036703E+03  0.53883745849E+03  0.89655348850E+02 0.  0.
        -13    1    3    3    0    0 -0.72620961266E+02 -0.46900649814E+02 -0.12240164705E+03  0.14985205427E+03  0.00000000000E+00 0.  1.
         14    1    3    3    0    0 -0.10027080829E+02  0.12628825082E+02 -0.11953554210E+03  0.12061830457E+03  0.00000000000E+00 0. -1.
        -11    1    4    4    0    0 -0.83634249208E+01 -0.24916172683E+02 -0.93337894217E+02  0.96967649423E+02  0.00000000000E+00 0. -1.
         11    1    4    4    0    0  0.53038762514E+02  0.54451691425E+02 -0.43528247281E+03  0.44186980907E+03  0.00000000000E+00 0.  1.
         -4    1    1    2    0  502  0.37972704503E+02  0.47363059898E+01 -0.22175369843E+03  0.22503124594E+03  0.00000000000E+00 0.  1.
<scales pt_clust_5="13000.00000" pt_clust_6="13000.00000" pt_clust_7="13000.00000" pt_clust_8="13000.00000" pt_clust_9="38.26694"></scales>
<clustering>
<clus scale="   38.267">  2  9  1 -1</clus>
<clus scale="   81.335">  5  6 -1 -1</clus>
<clus scale="   89.655">  7  8 -1 -1</clus>
<clus scale="  112.399">  1  5  2 -1</clus>
<clus scale="   38.267">  2  5  1 -1</clus>
</clustering>
</event>
<event>
 9    2  0.4883225E-005  0.1049985E+03  0.7546771E-02  0.1271612E+00
         -1   -1    0    0    0  501 -0.00000000000E+00  0.00000000000E+00  0.20176905481E+03  0.20176905481E+03  0.00000000000E+00 0.  1.
         21   -1    0    0  501  502  0.00000000000E+00 -0.00000000000E+00 -0.71251448971E+02  0.71251448971E+02  0.00000000000E+00 0. -1.
         24    2    1    2    0    0  0.54652056181E+02 -0.15880873916E+02  0.89143976596E+02  0.13269284108E+03  0.80135460995E+02 0.  0.
         23    2    1    2    0    0 -0.74329532061E+02  0.95564603080E+01  0.40766546456E+02  0.11964990137E+03  0.83892683333E+02 0.  0.
        -11    1    3    3    0    0  0.18348706279E+02  0.31543841971E+02  0.21091366867E+02  0.42148958999E+02  0.00000000000E+00 0.  1.
         12    1    3    3    0    0  0.36303349901E+02 -0.47424715886E+02  0.68052609729E+02  0.90543882079E+02  0.00000000000E+00 0. -1.
        -13    1    4    4    0    0 -0.88174591992E+01  0.38146900024E+02  0.24997353156E+02  0.46452139165E+02  0.00000000000E+00 0.  1.
         13    1    4    4    0    0 -0.65512072862E+02 -0.28590439716E+02  0.15769193300E+02  0.73197762201E+02  0.00000000000E+00 0. -1.
         -2    1    1    2    0  502  0.19677475880E+02  0.63244136077E+01  0.60708278794E+00  0.20677761339E+02  0.00000000000E+00 0.  1.
<scales pt_clust_5="13000.00000" pt_clust_6="13000.00000" pt_clust_7="13000.00000" pt_clust_8="13000.00000" pt_clust_9="20.66885"></scales>
<clustering>
<clus scale="   20.669">  2  9  1 -1</clus>
<clus scale="   80.135">  5  6 -1 -1</clus>
<clus scale="   83.893">  7  8 -1 -1</clus>
<clus scale="  102.021">  1  5  2 -1</clus>
<clus scale="   20.669">  2  5  1 -1</clus>
</clustering>
</event>
<event>
 9    2  0.4883225E-005  0.1692958E+03  0.7546771E-02  0.1218825E+00
         21   -1    0    0  501  502  0.00000000000E+00  0.00000000000E+00  0.69132783852E+03  0.69132783852E+03  0.00000000000E+00 0.  1.
         -1   -1    0    0    0  501 -0.00000000000E+00 -0.00000000000E+00 -0.18825945520E+03  0.18825945520E+03  0.00000000000E+00 0.  1.
         24    2    1    2    0    0  0.17587103964E+02  0.25166767474E+01  0.26525670539E+01  0.70539208843E+02  0.68213664206E+02 0.  0.
         23    2    1    2    0    0 -0.65384129238E+02  0.13397665910E+03 -0.94304791293E+02  0.19699613657E+03  0.87688395038E+02 0.  0.
        -11    1    3    3    0    0  0.17309394423E+02  0.29236183203E+02  0.19282084661E+02  0.39066204479E+02  0.00000000000E+00 0.  1.
         12    1    3    3    0    0  0.27770954114E+00 -0.26719506455E+02 -0.16629517607E+02  0.31473004363E+02  0.00000000000E+00 0. -1.
        -13    1    4    4    0    0 -0.56991563117E+02  0.23768296380E+02 -0.25533927103E+02  0.66820293419E+02  0.00000000000E+00 0.  1.
         13    1    4    4    0    0 -0.83925661205E+01  0.11020836272E+03 -0.68770864190E+02  0.13017584315E+03  0.00000000000E+00 0. -1.
         -2    1    1    2    0  502  0.47797025274E+02 -0.13649333585E+03  0.59472060757E+03  0.61205194830E+03  0.00000000000E+00 0.  1.
<scales pt_clust_5="13000.00000" pt_clust_6="13000.00000" pt_clust_7="13000.00000" pt_clust_8="13000.00000" pt_clust_9="144.81648"></scales>
<clustering>
<clus scale="   68.214">  5  6 -1 -1</clus>
<clus scale="   70.489">  2  5  1 -1</clus>
<clus scale="   87.688">  7  8 -1 -1</clus>
<clus scale="  144.816">  1  9  2 -1</clus>
<clus scale="  144.816">  1  5  2 -1</clus>
</clustering>
</event>
<event>
 9    2  0.4883225E-005  0.1703971E+03  0.7546771E-02  0.1199585E+00
          2   -1    0    0  502    0 -0.00000000000E+00  0.00000000000E+00  0.42217806545E+03  0.42217806545E+03  0.00000000000E+00 0. -1.
         21   -1    0    0  501  502  0.00000000000E+00 -0.00000000000E+00 -0.17141047471E+03  0.17141047471E+03  0.00000000000E+00 0.  1.
         24    2    1    2    0    0  0.49645543679E+02 -0.43986448485E+02  0.21923425119E+03  0.24278683236E+03  0.80512740714E+02 0.  0.
         23    2    1    2    0    0 -0.10595911450E+03 -0.93919776737E+02  0.89920320668E+02  0.19080675545E+03  0.90957657445E+02 0.  0.
        -11    1    3    3    0    0 -0.99434234590E+01 -0.40840736639E+02  0.11814329195E+03  0.12539806566E+03  0.00000000000E+00 0.  1.
         12    1    3    3    0    0  0.59588967138E+02 -0.31457118461E+01  0.10109095924E+03  0.11738876670E+03  0.00000000000E+00 0. -1.
        -11    1    4    4    0    0 -0.34760752335E+02  0.62168707881E+01 -0.48395041145E+01  0.35642393093E+02  0.00000000000E+00 0. -1.
         11    1    4    4    0    0 -0.71198362164E+02 -0.10013664753E+03  0.94759824782E+02  0.15516436236E+03  0.00000000000E+00 0.  1.
          1    1    1    2  501    0  0.56313570820E+02  0.13790622522E+03 -0.58386981122E+02  0.15999495235E+03  0.00000000000E+00 0. -1.
<scales pt_clust_5="13000.00000" pt_clust_6="13000.00000" pt_clust_7="13000.00000" pt_clust_8="13000.00000" pt_clust_9="144.08978"></scales>
<clustering>
<clus scale="   80.513">  5  6 -1 -1</clus>
<clus scale="   90.958">  7  8 -1 -1</clus>
<clus scale="  104.316">  1  5  2 -1</clus>
<clus scale="  144.090">  2  9  1 -1</clus>
<clus scale="  144.090">  2  5  1 -1</clus>
</clustering>
</event>
<event>
 9    2  0.4883225E-005  0.1028602E+03  0.7546771E-02  0.1278823E+00
          2   -1    0    0  502    0 -0.00000000000E+00  0.00000000000E+00  0.62955856914E+03  0.62955856914E+03  0.00000000000E+00 0. -1.
         21   -1    0    0  501  502  0.00000000000E+00 -0.00000000000E+00 -0.36800725934E+02  0.36800725934E+02  0.00000000000E+00 0.  1.
         24    2    1    2    0    0 -0.45619687275E+02  0.18890303562E+02  0.51817918214E+03  0.52697840433E+03  0.82210549150E+02 0.  0.
         23    2    1    2    0    0  0.30785695827E+02 -0.43185296876E+01  0.63872709681E+02  0.11599283201E+03  0.91696266394E+02 0.  0.
        -11    1    3    3    0    0 -0.40136377285E+02 -0.22644011642E+02  0.16471538126E+03  0.17104045389E+03  0.00000000000E+00 0.  1.
         12    1    3    3    0    0 -0.54833099900E+01  0.41534315204E+02  0.35346380088E+03  0.35593795044E+03  0.00000000000E+00 0. -1.
        -11    1    4    4    0    0  0.24227909416E+02  0.36393538740E+02  0.48456848531E+01  0.43988202037E+02  0.00000000000E+00 0.  1.
         11    1    4    4    0    0  0.65577864109E+01 -0.40712068428E+02  0.59027024828E+02  0.72004629978E+02  0.00000000000E+00 0. -1.
          1    1    1    2  501    0  0.14833991448E+02 -0.14571773874E+02  0.10705951388E+02  0.23388058731E+02  0.00000000000E+00 0. -1.
<scales pt_clust_5="13000.00000" pt_clust_6="13000.00000" pt_clust_7="13000.00000" pt_clust_8="13000.00000" pt_clust_9="20.79384"></scales>
<clustering>
<clus scale="   20.794">  2  9  1 -1</clus>
<clus scale="   82.211">  5  6 -1 -1</clus>
<clus scale="   91.696">  7  8 -1 -1</clus>
<clus scale="   94.502">  1  5  2 -1</clus>
<clus scale="   20.794">  2  5  1 -1</clus>
</clustering>
</event>
<event>
 9    2  0.4883225E-005  0.9751375E+02  0.7546771E-02  0.1291482E+00
          2   -1    0    0  502    0 -0.00000000000E+00  0.00000000000E+00  0.71499750303E+02  0.71499750303E+02  0.00000000000E+00 0. -1.
         21   -1    0    0  501  502  0.00000000000E+00 -0.00000000000E+00 -0.26214675966E+03  0.26214675966E+03  0.00000000000E+00 0. -1.
         24    2    1    2    0    0 -0.43963102534E+02  0.38614105558E+01 -0.13996204657E+02  0.91982695287E+02  0.79481177718E+02 0.  0.
         23    2    1    2    0    0  0.24061760185E+02 -0.12323484395E+02 -0.38834874530E+02  0.10216148233E+03  0.90542721529E+02 0.  0.
        -11    1    3    3    0    0 -0.42498609039E+01  0.20353883564E+02 -0.37572370950E+02  0.42942111646E+02  0.00000000000E+00 0.  1.
         12    1    3    3    0    0 -0.39713241630E+02 -0.16492473008E+02  0.23576166292E+02  0.49040583640E+02  0.00000000000E+00 0. -1.
        -13    1    4    4    0    0  0.47819901641E+02 -0.32612554671E+02 -0.82975422825E+01  0.58473677181E+02  0.00000000000E+00 0.  1.
         13    1    4    4    0    0 -0.23758141456E+02  0.20289070276E+02 -0.30537332248E+02  0.43687805151E+02  0.00000000000E+00 0. -1.
          1    1    1    2  501    0  0.19901342349E+02  0.84620738389E+01 -0.13781593017E+03  0.13950233234E+03  0.00000000000E+00 0. -1.
<scales pt_clust_5="13000.00000" pt_clust_6="13000.00000" pt_clust_7="13000.00000" pt_clust_8="13000.00000" pt_clust_9="21.62568"></scales>
<clustering>
<clus scale="   21.626">  2  9  1 -1</clus>
<clus scale="   79.481">  5  6 -1 -1</clus>
<clus scale="   87.340">  1  5  2 -1</clus>
<clus scale="   90.543">  7  8 -1 -1</clus>
<clus scale="   21.626">  2  5  1 -1</clus>
</clustering>
</event>
<event>
 9    2  0.4883225E-005  0.1252779E+03  0.7546771E-02  0.1246333E+00
         21   -1    0    0  501  502  0.00000000000E+00  0.00000000000E+00  0.28441655882E+03  0.28441655882E+03  0.00000000000E+00 0. -1.
          2   -1    0    0  502    0 -0.00000000000E+00 -0.00000000000E+00 -0.12672097166E+03  0.12672097166E+03  0.00000000000E+00 0. -1.
         23    2    1    2    0    0 -0.45870621125E+00 -0.36893691492E+02  0.11158054928E+03  0.14903883520E+03  0.91656972107E+02 0.  0.
         24    2    1    2    0    0 -0.12821576618E+02 -0.66308751944E+02 -0.54010707111E+02  0.11769552686E+03  0.79836314725E+02 0.  0.
        -13    1    4    4    0    0  0.24287285227E+02 -0.17170858187E+02  0.74842353403E+01  0.30671230383E+02  0.00000000000E+00 0.  1.
         14    1    4    4    0    0 -0.37108861844E+02 -0.49137893757E+02 -0.61494942451E+02  0.87024296477E+02  0.00000000000E+00 0. -1.
        -11    1    3    3    0    0 -0.21668649239E+02  0.25167276149E+02  0.36555399472E+02  0.49388453906E+02  0.00000000000E+00 0.  1.
         11    1    3    3    0    0  0.21209943027E+02 -0.62060967641E+02  0.75025149809E+02  0.99650381292E+02  0.00000000000E+00 0. -1.
          1    1    1    2  501    0  0.13280282829E+02  0.10320244344E+03  0.10012574499E+03  0.14440316843E+03  0.00000000000E+00 0. -1.
<scales pt_clust_5="13000.00000" pt_clust_6="13000.00000" pt_clust_7="13000.00000" pt_clust_8="13000.00000" pt_clust_9="96.54385"></scales>
<clustering>
<clus scale="   79.836">  5  6 -1 -1</clus>
<clus scale="   91.657">  7  8 -1 -1</clus>
<clus scale="   98.805">  2  7  1 -1</clus>
<clus scale="   96.544">  1  9  2 -1</clus>
<clus scale="   96.544">  1  5  2 -1</clus>
</clustering>
</event>
<event>
 9    2  0.4883225E-005  0.9203289E+02  0.7546771E-02  0.1304416E+00
          4   -1    0    0  502    0 -0.00000000000E+00  0.00000000000E+00  0.71099490155E+02  0.71099490155E+02  0.00000000000E+00 0. -1.
         21   -1    0    0  501  502  0.00000000000E+00 -0.00000000000E+00 -0.19820472909E+03  0.19820472909E+03  0.00000000000E+00 0. -1.
         23    2    1    2    0    0  0.13328817452E+02 -0.12722428030E+02 -0.57054153328E+02  0.10931102644E+03  0.91401348679E+02 0.  0.
         24    2    1    2    0    0  0.34371521892E+02 -0.94460604295E+01 -0.58489962949E+02  0.10613760989E+03  0.81077042942E+02 0.  0.
        -13    1    4    4    0    0  0.31102783572E+02  0.33200702980E+02 -0.25767265799E+02  0.52284049298E+02  0.00000000000E+00 0.  1.
         14    1    4    4    0    0  0.32687383204E+01 -0.42646763409E+02 -0.32722697150E+02  0.53853560590E+02  0.00000000000E+00 0. -1.
        -11    1    3    3    0    0 -0.30919576361E+02 -0.14901138494E+02 -0.55162129786E+02  0.64968643924E+02  0.00000000000E+00 0.  1.
         11    1    3    3    0    0  0.44248393814E+02  0.21787104641E+01 -0.18920235414E+01  0.44342382519E+02  0.00000000000E+00 0. -1.
          3    1    1    2  501    0 -0.47700339345E+02  0.22168488460E+02 -0.11561122663E+02  0.53855582918E+02  0.00000000000E+00 0. -1.
<scales pt_clust_5="13000.00000" pt_clust_6="13000.00000" pt_clust_7="13000.00000" pt_clust_8="13000.00000" pt_clust_9="52.60007"></scales>
<clustering>
<clus scale="   52.600">  2  9  1 -1</clus>
<clus scale="   81.077">  5  6 -1 -1</clus>
<clus scale="   81.788">  2  5  1 -1</clus>
<clus scale="   91.401">  7  8 -1 -1</clus>
<clus scale="   52.600">  2  5  1 -1</clus>
</clustering>
</event>
<event>
 9    2  0.4883225E-005  0.1068997E+03  0.7546771E-02  0.1271992E+00
         21   -1    0    0  501  502  0.00000000000E+00  0.00000000000E+00  0.76141918276E+02  0.76141918276E+02  0.00000000000E+00 0.  1.
          2   -1    0    0  502    0 -0.00000000000E+00 -0.00000000000E+00 -0.44366288579E+03  0.44366288579E+03  0.00000000000E+00 0. -1.
         24    2    1    2    0    0 -0.28184751497E+02  0.40507624226E+02 -0.29638988738E+03  0.31115066480E+03  0.80824025077E+02 0.  0.
         23    2    1    2    0    0 -0.19764280961E+02 -0.87018991881E+02 -0.49637179522E+02  0.13848003579E+03  0.93541108459E+02 0.  0.
        -11    1    3    3    0    0  0.14805614303E+02 -0.16212597400E+02 -0.96566595548E+02  0.99031115843E+02  0.00000000000E+00 0.  1.
         12    1    3    3    0    0 -0.42990365800E+02  0.56720221627E+02 -0.19982329183E+03  0.21211954896E+03  0.00000000000E+00 0. -1.
        -11    1    4    4    0    0  0.25735636188E+02 -0.43098421593E+01  0.87049933147E+01  0.27507719245E+02  0.00000000000E+00 0.  1.
         11    1    4    4    0    0 -0.45499917149E+02 -0.82709149722E+02 -0.58342172837E+02  0.11097231655E+03  0.00000000000E+00 0. -1.
          1    1    1    2  501    0  0.47949032458E+02  0.46511367655E+02 -0.21493900616E+02  0.70174103475E+02  0.00000000000E+00 0. -1.
<scales pt_clust_5="13000.00000" pt_clust_6="13000.00000" pt_clust_7="13000.00000" pt_clust_8="13000.00000" pt_clust_9="66.80133"></scales>
<clustering>
<clus scale="   66.801">  1  9  2 -1</clus>
<clus scale="   80.824">  5  6 -1 -1</clus>
<clus scale="   93.541">  7  8 -1 -1</clus>
<clus scale="   95.969">  2  5  1 -1</clus>
<clus scale="   66.801">  1  5  2 -1</clus>
</clustering>
</event>
<event>
 9    2  0.4883225E-005  0.1460713E+03  0.7546771E-02  0.1229917E+00
          2   -1    0    0  502    0 -0.00000000000E+00  0.00000000000E+00  0.53879529751E+03  0.53879529751E+03  0.00000000000E+00 0. -1.
         21   -1    0    0  501  502  0.00000000000E+00 -0.00000000000E+00 -0.23426134100E+03  0.23426134100E+03  0.00000000000E+00 0. -1.
         24    2    1    2    0    0 -0.13447581658E+02 -0.35635528203E+02  0.46031033898E+03  0.46847603212E+03  0.78316385076E+02 0.  0.
         23    2    1    2    0    0  0.30696112782E+02 -0.88037216356E+02 -0.51643869707E+02  0.14198897134E+03  0.93813516613E+02 0.  0.
        -13    1    3    3    0    0 -0.43437327192E+02 -0.42034944116E+01  0.22865021031E+03  0.23277755354E+03  0.00000000000E+00 0.  1.
         14    1    3    3    0    0  0.29989745534E+02 -0.31432033792E+02  0.23166012868E+03  0.23569847858E+03  0.00000000000E+00 0. -1.
        -11    1    4    4    0    0  0.56752517174E+02 -0.87723714314E+02 -0.31730718938E+02  0.10919311692E+03  0.00000000000E+00 0. -1.
         11    1    4    4    0    0 -0.26056404392E+02 -0.31350204261E+00 -0.19913150768E+02  0.32795854416E+02  0.00000000000E+00 0.  1.
          1    1    1    2  501    0 -0.17248531124E+02  0.12367274456E+03 -0.10413251278E+03  0.16259163506E+03  0.00000000000E+00 0. -1.
<scales pt_clust_5="13000.00000" pt_clust_6="13000.00000" pt_clust_7="13000.00000" pt_clust_8="13000.00000" pt_clust_9="111.96355"></scales>
<clustering>
<clus scale="   78.316">  5  6 -1 -1</clus>
<clus scale="   87.087">  1  5  2 -1</clus>
<clus scale="   93.814">  7  8 -1 -1</clus>
<clus scale="  111.964">  2  9  1 -1</clus>
<clus scale="  111.964">  2  5  1 -1</clus>
</clustering>
</event>
<event>
 9    2  0.4883225E-005  0.1489296E+03  0.7546771E-02  0.1204554E+00
          2   -1    0    0  502    0 -0.00000000000E+00  0.00000000000E+00  0.11664444125E+04  0.11664444125E+04  0.00000000000E+00 0. -1.
         21   -1    0    0  501  502  0.00000000000E+00 -0.00000000000E+00 -0.64569609909E+02  0.64569609909E+02  0.00000000000E+00 0. -1.
         24    2    1    2    0    0  0.56072297902E+02 -0.94203126938E+02  0.56599163247E+03  0.58197856660E+03  0.79587638697E+02 0.  0.
         23    2    1    2    0    0 -0.82588980817E+02  0.93013181216E+02  0.57833133381E+03  0.59897152618E+03  0.93954062592E+02 0.  0.
        -13    1    3    3    0    0  0.44139899460E+02 -0.10760638251E+03  0.45984542640E+03  0.47432613301E+03  0.00000000000E+00 0.  1.
         14    1    3    3    0    0  0.11932398442E+02  0.13403255570E+02  0.10614620607E+03  0.10765243358E+03  0.00000000000E+00 0. -1.
        -11    1    4    4    0    0 -0.13501307303E+02  0.76963570272E+02  0.21445164685E+03  0.22824369714E+03  0.00000000000E+00 0. -1.
         11    1    4    4    0    0 -0.69087673514E+02  0.16049610944E+02  0.36387968696E+03  0.37072782904E+03  0.00000000000E+00 0.  1.
          1    1    1    2  501    0  0.26516682915E+02  0.11899457220E+01 -0.42448163721E+02  0.50063929599E+02  0.00000000000E+00 0. -1.
<scales pt_clust_5="13000.00000" pt_clust_6="13000.00000" pt_clust_7="13000.00000" pt_clust_8="13000.00000" pt_clust_9="26.54337"></scales>
<clustering>
<clus scale="   26.543">  2  9  1 -1</clus>
<clus scale="   79.588">  5  6 -1 -1</clus>
<clus scale="   93.954">  7  8 -1 -1</clus>
<clus scale="  140.310">  1  5  2 -1</clus>
<clus scale="   26.543">  2  5  1 -1</clus>
</clustering>
</event>
<event>
 9    2  0.4883225E-005  0.2419891E+03  0.7546771E-02  0.1142809E+00
          2   -1    0    0  502    0 -0.00000000000E+00  0.00000000000E+00  0.89659362610E+03  0.89659362610E+03  0.00000000000E+00 0. -1.
         21   -1    0    0  501  502  0.00000000000E+00 -0.00000000000E+00 -0.82625171112E+03  0.82625171112E+03  0.00000000000E+00 0. -1.
         23    2    1    2    0    0  0.43410853923E+02  0.85394334235E+02 -0.16570926014E+02  0.13423057257E+03  0.92555693861E+02 0.  0.
         24    2    1    2    0    0  0.16292930267E+03  0.15589268721E+02  0.80979315454E+03  0.83010972446E+03  0.80797391913E+02 0.  0.
        -11    1    4    4    0    0  0.18020594996E+02  0.31630099684E+02  0.14262895669E+03  0.14720130549E+03  0.00000000000E+00 0.  1.
         12    1    4    4    0    0  0.14490870767E+03 -0.16040830963E+02  0.66716419784E+03  0.68290841897E+03  0.00000000000E+00 0. -1.
        -13    1    3    3    0    0  0.60893696713E+02  0.26984181547E+02  0.10665392497E+02  0.67453235284E+02  0.00000000000E+00 0. -1.
         13    1    3    3    0    0 -0.17482842791E+02  0.58410152688E+02 -0.27236318511E+02  0.66777337287E+02  0.00000000000E+00 0.  1.
          1    1    1    2  501    0 -0.20634015659E+03 -0.10098360296E+03 -0.72288031354E+03  0.75850504019E+03  0.00000000000E+00 0. -1.
<scales pt_clust_5="13000.00000" pt_clust_6="13000.00000" pt_clust_7="13000.00000" pt_clust_8="13000.00000" pt_clust_9="228.10194"></scales>
<clustering>
<clus scale="   80.797">  5  6 -1 -1</clus>
<clus scale="   92.556">  7  8 -1 -1</clus>
<clus scale="  133.204">  1  7  2 -1</clus>
<clus scale="  228.102">  2  9  1 -1</clus>
<clus scale="  228.102">  2  5  1 -1</clus>
</clustering>
</event>
<event>
 9    2  0.4883225E-005  0.1135820E+03  0.7546771E-02  0.1263066E+00
          2   -1    0    0  502    0 -0.00000000000E+00  0.00000000000E+00  0.44522750074E+03  0.44522750074E+03  0.00000000000E+00 0. -1.
         21   -1    0    0  501  502  0.00000000000E+00 -0.00000000000E+00 -0.52354553178E+02  0.52354553178E+02  0.00000000000E+00 0. -1.
         24    2    1    2    0    0 -0.12226819667E+02 -0.44575966373E+02  0.23220540768E+03  0.25015869639E+03  0.80768249496E+02 0.  0.
         23    2    1    2    0    0 -0.65375312427E+01  0.60576591662E+02  0.18033567615E+03  0.21588042712E+03  0.10183879392E+03 0.  0.
        -11    1    3    3    0    0  0.21010759263E+02 -0.53682568761E+02  0.16198868215E+03  0.17194069715E+03  0.00000000000E+00 0.  1.
         12    1    3    3    0    0 -0.33237578930E+02  0.91066023880E+01  0.70216725533E+02  0.78217999237E+02  0.00000000000E+00 0. -1.
        -11    1    4    4    0    0 -0.54000897945E+02  0.37386035691E+02  0.94212285844E+02  0.11484671283E+03  0.00000000000E+00 0. -1.
         11    1    4    4    0    0  0.47463366702E+02  0.23190555971E+02  0.86123390305E+02  0.10103371429E+03  0.00000000000E+00 0.  1.
          1    1    1    2  501    0  0.18764350909E+02 -0.16000625290E+02 -0.19668136267E+02  0.31542930412E+02  0.00000000000E+00 0. -1.
<scales pt_clust_5="13000.00000" pt_clust_6="13000.00000" pt_clust_7="13000.00000" pt_clust_8="13000.00000" pt_clust_9="24.66011"></scales>
<clustering>
<clus scale="   24.660">  2  9  1 -1</clus>
<clus scale="   80.768">  5  6 -1 -1</clus>
<clus scale="   95.148">  1  5  2 -1</clus>
<clus scale="  101.839">  7  8 -1 -1</clus>
<clus scale="   24.660">  2  5  1 -1</clus>
</clustering>
</event>
<event>
 9    2  0.4890903E-005  0.9583508E+02  0.7546771E-02  0.1295354E+00
         21   -1    0    0  501  502  0.00000000000E+00  0.00000000000E+00  0.79884730630E+02  0.79884730630E+02  0.00000000000E+00 0. -1.
          2   -1    0    0  502    0 -0.00000000000E+00 -0.00000000000E+00 -0.29977583719E+03  0.29977583719E+03  0.00000000000E+00 0. -1.
         23    2    1    2    0    0  0.17875778405E+02 -0.18521319435E+02 -0.24078121277E+03  0.25882063880E+03  0.91378049438E+02 0.  0.
         24    2    1    2    0    0 -0.37559327909E+02  0.26859083650E+02  0.29364796016E+01  0.92924106591E+02  0.80586308923E+02 0.  0.
        -11    1    4    4    0    0 -0.50783526249E+02  0.46605929314E+02  0.47332549242E+01  0.69090396494E+02  0.00000000000E+00 0.  1.
         12    1    4    4    0    0  0.13224198340E+02 -0.19746845664E+02 -0.17967753226E+01  0.23833710097E+02  0.00000000000E+00 0. -1.
        -13    1    3    3    0    0  0.28630031601E+02  0.15385919432E+02 -0.27446941004E+02  0.42541036620E+02  0.00000000000E+00 0.  1.
         13    1    3    3    0    0 -0.10754253196E+02 -0.33907238867E+02 -0.21333427177E+03  0.21627960218E+03  0.00000000000E+00 0. -1.
          1    1    1    2  501    0  0.19683549504E+02 -0.83377642152E+01  0.17953626611E+02  0.27915822425E+02  0.00000000000E+00 0. -1.
<scales pt_clust_5="13000.00000" pt_clust_6="13000.00000" pt_clust_7="13000.00000" pt_clust_8="13000.00000" pt_clust_9="21.37663"></scales>
<clustering>
<clus scale="   21.377">  1  9  2 -1</clus>
<clus scale="   80.586">  5  6 -1 -1</clus>
<clus scale="   85.607">  1  5  2 -1</clus>
<clus scale="   91.378">  7  8 -1 -1</clus>
<clus scale="   21.377">  1  5  2 -1</clus>
</clustering>
</event>
<event>
 9    2  0.4883225E-005  0.8576120E+02  0.7546771E-02  0.1316658E+00
         21   -1    0    0  501  502  0.00000000000E+00  0.00000000000E+00  0.44107875111E+02  0.44107875111E+02  0.00000000000E+00 0. -1.
          2   -1    0    0  502    0 -0.00000000000E+00 -0.00000000000E+00 -0.21945996397E+03  0.21945996397E+03  0.00000000000E+00 0. -1.
         23    2    1    2    0    0  0.51768237180E+01 -0.14129948076E+02 -0.10025451807E+03  0.13247271258E+03  0.85273655064E+02 0.  0.
         24    2    1    2    0    0  0.13637021949E+02  0.87641508186E+00 -0.44898671081E+02  0.93126844094E+02  0.80436198039E+02 0.  0.
        -13    1    4    4    0    0  0.16522283300E+02 -0.27695659769E+02 -0.54090095305E+02  0.62974390236E+02  0.00000000000E+00 0.  1.
         14    1    4    4    0    0 -0.28852613509E+01  0.28572074851E+02  0.91914242239E+01  0.30152453857E+02  0.00000000000E+00 0. -1.
        -11    1    3    3    0    0  0.36527545832E+02  0.10119449014E+02 -0.78710189851E+02  0.87361083094E+02  0.00000000000E+00 0. -1.
         11    1    3    3    0    0 -0.31350722114E+02 -0.24249397090E+02 -0.21544328214E+02  0.45111629482E+02  0.00000000000E+00 0.  1.
          1    1    1    2  501    0 -0.18813845667E+02  0.13253532994E+02 -0.30198899716E+02  0.37968282416E+02  0.00000000000E+00 0. -1.
<scales pt_clust_5="13000.00000" pt_clust_6="13000.00000" pt_clust_7="13000.00000" pt_clust_8="13000.00000" pt_clust_9="23.01342"></scales>
<clustering>
<clus scale="   23.013">  1  9  2 -1</clus>
<clus scale="   80.436">  5  6 -1 -1</clus>
<clus scale="   80.953">  1  5  2 -1</clus>
<clus scale="   85.274">  7  8 -1 -1</clus>
<clus scale="   23.013">  1  5  2 -1</clus>
</clustering>
</event>
<event>
 9    2  0.4883225E-005  0.1643459E+03  0.7546771E-02  0.1210487E+00
         21   -1    0    0  501  502  0.00000000000E+00  0.00000000000E+00  0.43344371875E+03  0.43344371875E+03  0.00000000000E+00 0. -1.
          4   -1    0    0  502    0 -0.00000000000E+00 -0.00000000000E+00 -0.93566974641E+02  0.93566974641E+02  0.00000000000E+00 0. -1.
         24    2    1    2    0    0 -0.43001441627E+02 -0.75018718076E+01  0.11965875566E+03  0.15090135355E+03  0.80917233234E+02 0.  0.
         23    2    1    2    0    0 -0.10721593681E+03 -0.39734665276E+02  0.85731663557E+02  0.16902693402E+03  0.90255667728E+02 0.  0.
        -13    1    3    3    0    0 -0.24028859014E+02  0.31656894582E+02  0.89590620358E+02  0.98010327497E+02  0.00000000000E+00 0.  1.
         14    1    3    3    0    0 -0.18972582613E+02 -0.39158766389E+02  0.30068135297E+02  0.52891026048E+02  0.00000000000E+00 0. -1.
        -13    1    4    4    0    0 -0.17182153872E+02  0.25793515329E+02  0.34729077345E+02  0.46547187433E+02  0.00000000000E+00 0.  1.
         13    1    4    4    0    0 -0.90033782935E+02 -0.65528180605E+02  0.51002586212E+02  0.12247974658E+03  0.00000000000E+00 0. -1.
          3    1    1    2  501    0  0.15021737843E+03  0.47236537083E+02  0.13448632490E+03  0.20708240583E+03  0.00000000000E+00 0. -1.
<scales pt_clust_5="13000.00000" pt_clust_6="13000.00000" pt_clust_7="13000.00000" pt_clust_8="13000.00000" pt_clust_9="137.34449"></scales>
<clustering>
<clus scale="   80.917">  5  6 -1 -1</clus>
<clus scale="   90.256">  7  8 -1 -1</clus>
<clus scale="   91.940">  2  5  1 -1</clus>
<clus scale="  137.344">  1  9  2 -1</clus>
<clus scale="  137.344">  1  5  2 -1</clus>
</clustering>
</event>
<event>
 9    2  0.4883225E-005  0.1130915E+03  0.7546771E-02  0.1258905E+00
         21   -1    0    0  501  502  0.00000000000E+00  0.00000000000E+00  0.13427116963E+03  0.13427116963E+03  0.00000000000E+00 0.  1.
         -3   -1    0    0    0  501 -0.00000000000E+00 -0.00000000000E+00 -0.49947448128E+03  0.49947448128E+03  0.00000000000E+00 0.  1.
         24    2    1    2    0    0 -0.64471485825E+02  0.47508702837E+01 -0.37544875842E+03  0.38928236660E+03  0.79999046838E+02 0.  0.
         23    2    1    2    0    0  0.84684861929E+02 -0.90487579295E+02 -0.10342162827E+02  0.15400216828E+03  0.90830499597E+02 0.  0.
        -11    1    3    3    0    0 -0.57061060544E+02 -0.29175085778E+02 -0.29098398414E+03  0.29795776426E+03  0.00000000000E+00 0.  1.
         12    1    3    3    0    0 -0.74104252805E+01  0.33925956062E+02 -0.84464774278E+02  0.91324602334E+02  0.00000000000E+00 0. -1.
        -11    1    4    4    0    0  0.29937194228E+02  0.38946155068E+01 -0.30645244385E+02  0.43017840852E+02  0.00000000000E+00 0. -1.
         11    1    4    4    0    0  0.54747667701E+02 -0.94382194801E+02  0.20303081557E+02  0.11098432743E+03  0.00000000000E+00 0.  1.
         -4    1    1    2    0  502 -0.20213376105E+02  0.85736709011E+02  0.20587609588E+02  0.90461116034E+02  0.00000000000E+00 0.  1.
<scales pt_clust_5="13000.00000" pt_clust_6="13000.00000" pt_clust_7="13000.00000" pt_clust_8="13000.00000" pt_clust_9="88.08725"></scales>
<clustering>
<clus scale="   79.999">  5  6 -1 -1</clus>
<clus scale="   88.087">  1  9  2 -1</clus>
<clus scale="   90.830">  7  8 -1 -1</clus>
<clus scale="  104.591">  2  5  1 -1</clus>
<clus scale="   88.087">  1  5  2 -1</clus>
</clustering>
</event>
<event>
 9    2  0.4883225E-005  0.1272070E+03  0.7546771E-02  0.1231925E+00
         21   -1    0    0  501  502  0.00000000000E+00  0.00000000000E+00  0.52516256546E+03  0.52516256546E+03  0.00000000000E+00 0. -1.
         -1   -1    0    0    0  501 -0.00000000000E+00 -0.00000000000E+00 -0.49860750705E+02  0.49860750705E+02  0.00000000000E+00 0.  1.
         23    2    1    2    0    0  0.59569239796E+02 -0.52178381829E+02  0.19296380073E+03  0.22838353702E+03  0.93021146693E+02 0.  0.
         24    2    1    2    0    0 -0.10368457565E+03  0.84298255256E+01  0.19889230790E+03  0.24260476145E+03  0.92072617805E+02 0.  0.
        -13    1    4    4    0    0 -0.11597715144E+03  0.22650330891E+02  0.15540802158E+03  0.19523163247E+03  0.00000000000E+00 0.  1.
         14    1    4    4    0    0  0.12292575790E+02 -0.14220505365E+02  0.43484286324E+02  0.47373128982E+02  0.00000000000E+00 0. -1.
        -11    1    3    3    0    0  0.54351408257E+00 -0.40026553599E+02  0.19064406091E+02  0.44338154902E+02  0.00000000000E+00 0.  1.
         11    1    3    3    0    0  0.59025725713E+02 -0.12151828231E+02  0.17389939463E+03  0.18404538212E+03  0.00000000000E+00 0. -1.
         -2    1    1    2    0  502  0.44115335851E+02  0.43748556304E+02  0.83445706132E+02  0.10403501770E+03  0.00000000000E+00 0.  1.
<scales pt_clust_5="13000.00000" pt_clust_6="13000.00000" pt_clust_7="13000.00000" pt_clust_8="13000.00000" pt_clust_9="62.12973"></scales>
<clustering>
<clus scale="   62.130">  1  9  2 -1</clus>
<clus scale="   92.073">  5  6 -1 -1</clus>
<clus scale="   93.021">  7  8 -1 -1</clus>
<clus scale="  126.515">  1  5  2 -1</clus>
<clus scale="   62.130">  1  5  2 -1</clus>
</clustering>
</event>
<event>
 9    2  0.4883225E-005  0.1512353E+03  0.7546771E-02  0.1201002E+00
         21   -1    0    0  501  502  0.00000000000E+00  0.00000000000E+00  0.55883351190E+03  0.55883351190E+03  0.00000000000E+00 0. -1.
          4   -1    0    0  502    0 -0.00000000000E+00 -0.00000000000E+00 -0.11047145968E+03  0.11047145968E+03  0.00000000000E+00 0. -1.
         24    2    1    2    0    0 -0.54531777152E+02  0.99333329415E+02 -0.97303884506E+01  0.13905573208E+03  0.80006194209E+02 0.  0.
         23    2    1    2    0    0  0.12937111406E+03 -0.10474651715E+03  0.29642137190E+03  0.35201410428E+03  0.91321311252E+02 0.  0.
        -13    1    3    3    0    0 -0.60750261418E+02  0.31380008035E+02  0.71865067424E+01  0.68752782095E+02  0.00000000000E+00 0.  1.
         14    1    3    3    0    0  0.62184842653E+01  0.67953321380E+02 -0.16916895193E+02  0.70302949981E+02  0.00000000000E+00 0. -1.
        -13    1    4    4    0    0  0.73963356818E+02 -0.51486692099E+02  0.24089351243E+03  0.25719864297E+03  0.00000000000E+00 0.  1.
         13    1    4    4    0    0  0.55407757240E+02 -0.53259825053E+02  0.55527859470E+02  0.94815461315E+02  0.00000000000E+00 0. -1.
          3    1    1    2  501    0 -0.74839336906E+02  0.54131877371E+01  0.16167106878E+03  0.17823513523E+03  0.00000000000E+00 0. -1.
<scales pt_clust_5="13000.00000" pt_clust_6="13000.00000" pt_clust_7="13000.00000" pt_clust_8="13000.00000" pt_clust_9="75.03485"></scales>
<clustering>
<clus scale="   75.035">  1  9  2 -1</clus>
<clus scale="   80.006">  5  6 -1 -1</clus>
<clus scale="   91.321">  7  8 -1 -1</clus>
<clus scale="  144.684">  2  5  1 -1</clus>
<clus scale="   75.035">  1  5  2 -1</clus>
</clustering>
</event>
<event>
 9    2  0.4883225E-005  0.1253791E+03  0.7546771E-02  0.1236910E+00
          2   -1    0    0  502    0 -0.00000000000E+00  0.00000000000E+00  0.34899658254E+03  0.34899658254E+03  0.00000000000E+00 0. -1.
         21   -1    0    0  501  502  0.00000000000E+00 -0.00000000000E+00 -0.12436832581E+03  0.12436832581E+03  0.00000000000E+00 0.  1.
         24    2    1    2    0    0 -0.62396471264E+02 -0.54733644829E+02  0.28020540190E+03  0.30393851949E+03  0.83513261652E+02 0.  0.
         23    2    1    2    0    0  0.81353643133E+02  0.61494525936E+02 -0.37494417003E+02  0.14236961640E+03  0.91996110768E+02 0.  0.
        -13    1    3    3    0    0 -0.13305276417E+02 -0.20114483365E+02  0.83437406630E+01  0.25519420641E+02  0.00000000000E+00 0.  1.
         14    1    3    3    0    0 -0.49091194847E+02 -0.34619161464E+02  0.27186166124E+03  0.27841909885E+03  0.00000000000E+00 0. -1.
        -13    1    4    4    0    0  0.81327103840E+02  0.56767701113E+01 -0.22003880095E+02  0.84442254098E+02  0.00000000000E+00 0.  1.
         13    1    4    4    0    0  0.26539293191E-01  0.55817755824E+02 -0.15490536908E+02  0.57927362302E+02  0.00000000000E+00 0. -1.
          1    1    1    2  501    0 -0.18957171869E+02 -0.67608811060E+01 -0.18082728166E+02  0.27056772471E+02  0.00000000000E+00 0. -1.
<scales pt_clust_5="13000.00000" pt_clust_6="13000.00000" pt_clust_7="13000.00000" pt_clust_8="13000.00000" pt_clust_9="20.12670"></scales>
<clustering>
<clus scale="   20.127">  2  9  1 -1</clus>
<clus scale="   83.513">  5  6 -1 -1</clus>
<clus scale="   91.996">  7  8 -1 -1</clus>
<clus scale="  119.294">  1  5  2 -1</clus>
<clus scale="   20.127">  2  5  1 -1</clus>
</clustering>
</event>
<event>
 9    2  0.4883225E-005  0.1021419E+03  0.7546771E-02  0.1280395E+00
          2   -1    0    0  502    0 -0.00000000000E+00  0.00000000000E+00  0.35857249748E+03  0.35857249748E+03  0.00000000000E+00 0. -1.
         21   -1    0    0  501  502  0.00000000000E+00 -0.00000000000E+00 -0.12708186723E+03  0.12708186723E+03  0.00000000000E+00 0. -1.
         24    2    1    2    0    0  0.23692878556E+02  0.42031217738E+02  0.30562461358E+03  0.31952605087E+03  0.79765387242E+02 0.  0.
         23    2    1    2    0    0 -0.81396901639E+01 -0.60765609742E+02 -0.25136146900E+02  0.11141389994E+03  0.89568506380E+02 0.  0.
        -13    1    3    3    0    0  0.39987097790E+02 -0.67074936815E+01  0.10900782240E+03  0.11630418654E+03  0.00000000000E+00 0.  1.
         14    1    3    3    0    0 -0.16294219234E+02  0.48738711419E+02  0.19661679118E+03  0.20322186434E+03  0.00000000000E+00 0. -1.
        -11    1    4    4    0    0 -0.43526935979E+02 -0.10406886814E+02 -0.21783911551E+02  0.49773851080E+02  0.00000000000E+00 0.  1.
         11    1    4    4    0    0  0.35387245815E+02 -0.50358722927E+02 -0.33522353487E+01  0.61640048857E+02  0.00000000000E+00 0. -1.
          1    1    1    2  501    0 -0.15553188393E+02  0.18734392004E+02 -0.48997836432E+02  0.54714413896E+02  0.00000000000E+00 0. -1.
<scales pt_clust_5="13000.00000" pt_clust_6="13000.00000" pt_clust_7="13000.00000" pt_clust_8="13000.00000" pt_clust_9="24.34911"></scales>
<clustering>
<clus scale="   24.349">  2  9  1 -1</clus>
<clus scale="   79.765">  5  6 -1 -1</clus>
<clus scale="   89.569">  7  8 -1 -1</clus>
<clus scale="   93.664">  1  5  2 -1</clus>
<clus scale="   24.349">  2  5  1 -1</clus>
</clustering>
</event>
<event>
 9    2  0.4883225E-005  0.1490374E+03  0.7546771E-02  0.1203618E+00
         21   -1    0    0  501  502  0.00000000000E+00  0.00000000000E+00  0.76393209829E+02  0.76393209829E+02  0.00000000000E+00 0. -1.
          2   -1    0    0  502    0 -0.00000000000E+00 -0.00000000000E+00 -0.46740097539E+03  0.46740097539E+03  0.00000000000E+00 0. -1.
         23    2    1    2    0    0 -0.26050982527E+02  0.11898273730E+03 -0.29080049265E+03  0.32805324528E+03  0.90655721012E+02 0.  0.
         24    2    1    2    0    0 -0.68960314421E+00 -0.10999395666E+03 -0.28966381878E+02  0.13911769506E+03  0.80097039557E+02 0.  0.
        -13    1    4    4    0    0  0.38674784967E+02 -0.59704498465E+02 -0.23939276059E+02  0.75056345951E+02  0.00000000000E+00 0.  1.
         14    1    4    4    0    0 -0.39364388111E+02 -0.50289458192E+02 -0.50271058185E+01  0.64061349108E+02  0.00000000000E+00 0. -1.
        -13    1    3    3    0    0 -0.15953064935E+02  0.59904542186E+02 -0.49239973834E+02  0.79168361600E+02  0.00000000000E+00 0.  1.
         13    1    3    3    0    0 -0.10097917593E+02  0.59078195114E+02 -0.24156051881E+03  0.24888488368E+03  0.00000000000E+00 0. -1.
          1    1    1    2  501    0  0.26740585671E+02 -0.89887806430E+01 -0.71240891037E+02  0.76623244876E+02  0.00000000000E+00 0. -1.
<scales pt_clust_5="13000.00000" pt_clust_6="13000.00000" pt_clust_7="13000.00000" pt_clust_8="13000.00000" pt_clust_9="28.21095"></scales>
<clustering>
<clus scale="   28.211">  1  9  2 -1</clus>
<clus scale="   80.097">  5  6 -1 -1</clus>
<clus scale="   90.656">  7  8 -1 -1</clus>
<clus scale="  142.861">  1  5  2 -1</clus>
<clus scale="   28.211">  1  5  2 -1</clus>
</clustering>
</event>
<event>
 9    2  0.4883225E-005  0.1089768E+03  0.7546771E-02  0.1266334E+00
          2   -1    0    0  502    0 -0.00000000000E+00  0.00000000000E+00  0.46611087999E+03  0.46611087999E+03  0.00000000000E+00 0. -1.
         21   -1    0    0  501  502  0.00000000000E+00 -0.00000000000E+00 -0.13550225225E+03  0.13550225225E+03  0.00000000000E+00 0.  1.
         24    2    1    2    0    0  0.53189542081E+02  0.15512818977E+02  0.36600497018E+03  0.37934628196E+03  0.82910726098E+02 0.  0.
         23    2    1    2    0    0 -0.86355346763E+02 -0.57016072867E+02 -0.73407485474E+02  0.15694198764E+03  0.92379922506E+02 0.  0.
        -11    1    3    3    0    0 -0.20381010598E+02  0.71434242342E+01  0.45026676104E+02  0.49938118344E+02  0.00000000000E+00 0.  1.
         12    1    3    3    0    0  0.73570552679E+02  0.83693947425E+01  0.32097829408E+03  0.32940816362E+03  0.00000000000E+00 0. -1.
        -13    1    4    4    0    0 -0.20494137421E+02 -0.65719452268E+02 -0.54692974394E+02  0.87922565494E+02  0.00000000000E+00 0.  1.
         13    1    4    4    0    0 -0.65861209342E+02  0.87033794005E+01 -0.18714511080E+02  0.69019422150E+02  0.00000000000E+00 0. -1.
          1    1    1    2  501    0  0.33165804682E+02  0.41503253890E+02  0.38011143026E+02  0.65324862632E+02  0.00000000000E+00 0. -1.
<scales pt_clust_5="13000.00000" pt_clust_6="13000.00000" pt_clust_7="13000.00000" pt_clust_8="13000.00000" pt_clust_9="53.12714"></scales>
<clustering>
<clus scale="   53.127">  2  9  1 -1</clus>
<clus scale="   82.911">  5  6 -1 -1</clus>
<clus scale="   92.380">  7  8 -1 -1</clus>
<clus scale="  101.075">  1  5  2 -1</clus>
<clus scale="   53.127">  2  5  1 -1</clus>
</clustering>
</event>
<event>
 9    2  0.4883225E-005  0.9708176E+02  0.7546771E-02  0.1289973E+00
          2   -1    0    0  502    0 -0.00000000000E+00  0.00000000000E+00  0.40601492243E+03  0.40601492243E+03  0.00000000000E+00 0. -1.
         21   -1    0    0  501  502  0.00000000000E+00 -0.00000000000E+00 -0.52667412248E+02  0.52667412248E+02  0.00000000000E+00 0.  1.
         24    2    1    2    0    0 -0.18998685760E+02  0.33225002363E+02  0.21995195917E+03  0.23767589262E+03  0.81523706662E+02 0.  0.
         23    2    1    2    0    0  0.38891603847E+02 -0.26350664788E+02  0.15903672496E+03  0.18783334289E+03  0.88214343684E+02 0.  0.
        -13    1    3    3    0    0 -0.18916885048E+02  0.11357606519E+02  0.63536178078E+01  0.22961102435E+02  0.00000000000E+00 0.  1.
         14    1    3    3    0    0 -0.81800711866E-01  0.21867395844E+02  0.21359834136E+03  0.21471479018E+03  0.00000000000E+00 0. -1.
        -11    1    4    4    0    0  0.10313831147E+02 -0.27593376007E+02  0.34734240407E+01  0.29661999039E+02  0.00000000000E+00 0. -1.
         11    1    4    4    0    0  0.28577772700E+02  0.12427112190E+01  0.15556330092E+03  0.15817134385E+03  0.00000000000E+00 0.  1.
          1    1    1    2  501    0 -0.19892918088E+02 -0.68743375753E+01 -0.25641173944E+02  0.33173099167E+02  0.00000000000E+00 0. -1.
<scales pt_clust_5="13000.00000" pt_clust_6="13000.00000" pt_clust_7="13000.00000" pt_clust_8="13000.00000" pt_clust_9="21.04720"></scales>
<clustering>
<clus scale="   21.047">  2  9  1 -1</clus>
<clus scale="   81.524">  5  6 -1 -1</clus>
<clus scale="   88.214">  7  8 -1 -1</clus>
<clus scale="   91.045">  1  5  2 -1</clus>
<clus scale="   21.047">  2  5  1 -1</clus>
</clustering>
</event>
<event>
 9    2  0.4883225E-005  0.1177664E+03  0.7546771E-02  0.1254326E+00
          4   -1    0    0  502    0 -0.00000000000E+00  0.00000000000E+00  0.84673690203E+03  0.84673690203E+03  0.00000000000E+00 0. -1.
         21   -1    0    0  501  502  0.00000000000E+00 -0.00000000000E+00 -0.89712713526E+02  0.89712713526E+02  0.00000000000E+00 0. -1.
         24    2    1    2    0    0  0.41838582328E+02 -0.49558710731E+02  0.74177924386E+03  0.74890781441E+03  0.80124497360E+02 0.  0.
         23    2    1    2    0    0 -0.37887551510E+02  0.18696933110E+02  0.66677291307E+02  0.12743068532E+03  0.10003837523E+03 0.  0.
        -13    1    3    3    0    0 -0.89853812109E+01 -0.22327917650E+02  0.59313157792E+02  0.64010340332E+02  0.00000000000E+00 0.  1.
         14    1    3    3    0    0  0.50823963539E+02 -0.27230793081E+02  0.68246608607E+03  0.68489747408E+03  0.00000000000E+00 0. -1.
        -11    1    4    4    0    0 -0.63554248357E+02 -0.58943433858E+01  0.66091165141E+02  0.91879964507E+02  0.00000000000E+00 0. -1.
         11    1    4    4    0    0  0.25666696847E+02  0.24591276495E+02  0.58612616632E+00  0.35550720817E+02  0.00000000000E+00 0.  1.
          3    1    1    2  501    0 -0.39510308177E+01  0.30861777622E+02 -0.51432346663E+02  0.60111115826E+02  0.00000000000E+00 0. -1.
<scales pt_clust_5="13000.00000" pt_clust_6="13000.00000" pt_clust_7="13000.00000" pt_clust_8="13000.00000" pt_clust_9="31.11366"></scales>
<clustering>
<clus scale="   31.114">  2  9  1 -1</clus>
<clus scale="   80.124">  5  6 -1 -1</clus>
<clus scale="  100.038">  7  8 -1 -1</clus>
<clus scale="  101.396">  1  5  2 -1</clus>
<clus scale="   31.114">  2  5  1 -1</clus>
</clustering>
</event>
<event>
 9    2  0.6388020E-005  0.9610865E+02  0.7546771E-02  0.1292192E+00
          2   -1    0    0  502    0 -0.00000000000E+00  0.00000000000E+00  0.65065053698E+03  0.65065053698E+03  0.00000000000E+00 0. -1.
         21   -1    0    0  501  502  0.00000000000E+00 -0.00000000000E+00 -0.15355096999E+03  0.15355096999E+03  0.00000000000E+00 0.  1.
         24    2    1    2    0    0 -0.33234995142E+02  0.92111717654E+01  0.54668484190E+03  0.55415704060E+03  0.83882648330E+02 0.  0.
         23    2    1    2    0    0  0.26464289973E+02  0.23216423766E+02  0.74061168625E+02  0.12203730096E+03  0.90380778654E+02 0.  0.
        -11    1    3    3    0    0 -0.18471289187E+02  0.44181896310E+02  0.21282021885E+03  0.21814140835E+03  0.00000000000E+00 0.  1.
         12    1    3    3    0    0 -0.14763705955E+02 -0.34970724544E+02  0.33386462305E+03  0.33601563225E+03  0.00000000000E+00 0. -1.
        -13    1    4    4    0    0  0.51102474433E+02  0.77140523496E+01  0.11369783288E+02  0.52917307839E+02  0.00000000000E+00 0. -1.
         13    1    4    4    0    0 -0.24638184460E+02  0.15502371416E+02  0.62691385337E+02  0.69119993117E+02  0.00000000000E+00 0.  1.
          1    1    1    2  501    0  0.67707051690E+01 -0.32427595531E+02 -0.12364644353E+03  0.12800716542E+03  0.00000000000E+00 0. -1.
<scales pt_clust_5="13000.00000" pt_clust_6="13000.00000" pt_clust_7="13000.00000" pt_clust_8="13000.00000" pt_clust_9="33.12690"></scales>
<clustering>
<clus scale="   33.127">  2  9  1 -1</clus>
<clus scale="   83.883">  5  6 -1 -1</clus>
<clus scale="   90.025">  1  5  2 -1</clus>
<clus scale="   90.381">  7  8 -1 -1</clus>
<clus scale="   33.127">  2  5  1 -1</clus>
</clustering>
</event>
<event>
 9    2  0.5083550E-005  0.1203979E+03  0.7546771E-02  0.1248830E+00
         21   -1    0    0  501  502  0.00000000000E+00  0.00000000000E+00  0.11692282546E+03  0.11692282546E+03  0.00000000000E+00 0. -1.
          2   -1    0    0  502    0 -0.00000000000E+00 -0.00000000000E+00 -0.67980256351E+03  0.67980256351E+03  0.00000000000E+00 0. -1.
         23    2    1    2    0    0 -0.18291831760E+02  0.70549407897E+02 -0.52348319139E+03  0.53764558516E+03  0.98571362532E+02 0.  0.
         24    2    1    2    0    0  0.85743284709E+02 -0.24898329438E+02 -0.10108391208E+03  0.15690813199E+03  0.80189568654E+02 0.  0.
        -11    1    4    4    0    0  0.29608288235E+02 -0.35264496449E+02 -0.65969413548E+01  0.46516180811E+02  0.00000000000E+00 0.  1.
         12    1    4    4    0    0  0.56134996474E+02  0.10366167011E+02 -0.94486970727E+02  0.11039195118E+03  0.00000000000E+00 0. -1.
        -13    1    3    3    0    0 -0.37815874073E+02 -0.10091522206E+02 -0.19069970888E+03  0.19467474957E+03  0.00000000000E+00 0.  1.
         13    1    3    3    0    0  0.19524042313E+02  0.80640930102E+02 -0.33278348251E+03  0.34297083559E+03  0.00000000000E+00 0. -1.
          1    1    1    2  501    0 -0.67451452948E+02 -0.45651078458E+02  0.61687365420E+02  0.10217167182E+03  0.00000000000E+00 0. -1.
<scales pt_clust_5="13000.00000" pt_clust_6="13000.00000" pt_clust_7="13000.00000" pt_clust_8="13000.00000" pt_clust_9="81.44765"></scales>
<clustering>
<clus scale="   80.190">  5  6 -1 -1</clus>
<clus scale="   81.448">  1  9  2 -1</clus>
<clus scale="   98.571">  7  8 -1 -1</clus>
<clus scale="  105.876">  1  5  2 -1</clus>
<clus scale="   81.448">  1  5  2 -1</clus>
</clustering>
</event>
<event>
 9    2  0.4883225E-005  0.1011351E+03  0.7546771E-02  0.1284475E+00
         21   -1    0    0  501  502  0.00000000000E+00  0.00000000000E+00  0.10038330984E+03  0.10038330984E+03  0.00000000000E+00 0.  1.
          2   -1    0    0  502    0 -0.00000000000E+00 -0.00000000000E+00 -0.24916161605E+03  0.24916161605E+03  0.00000000000E+00 0. -1.
         24    2    1    2    0    0 -0.36406785336E+02 -0.10035653661E+02 -0.18538347549E+03  0.20520636714E+03  0.79476108169E+02 0.  0.
         23    2    1    2    0    0  0.55273103440E+02  0.20529008276E+02  0.10189791788E+02  0.11022374352E+03  0.92568275526E+02 0.  0.
        -11    1    3    3    0    0  0.21263926410E+02 -0.13134607386E+02 -0.92623768251E+02  0.95936619299E+02  0.00000000000E+00 0.  1.
         12    1    3    3    0    0 -0.57670711746E+02  0.30989537250E+01 -0.92759707237E+02  0.10926974784E+03  0.00000000000E+00 0. -1.
        -13    1    4    4    0    0  0.14366723106E+02  0.39592377416E+02 -0.28437630034E+02  0.50819857184E+02  0.00000000000E+00 0. -1.
         13    1    4    4    0    0  0.40906380333E+02 -0.19063369140E+02  0.38627421822E+02  0.59403886334E+02  0.00000000000E+00 0.  1.
          1    1    1    2  501    0 -0.18866318103E+02 -0.10493354615E+02  0.26415377487E+02  0.34114815222E+02  0.00000000000E+00 0. -1.
<scales pt_clust_5="13000.00000" pt_clust_6="13000.00000" pt_clust_7="13000.00000" pt_clust_8="13000.00000" pt_clust_9="21.58816"></scales>
<clustering>
<clus scale="   21.588">  1  9  2 -1</clus>
<clus scale="   79.476">  5  6 -1 -1</clus>
<clus scale="   89.308">  2  5  1 -1</clus>
<clus scale="   92.568">  7  8 -1 -1</clus>
<clus scale="   21.588">  1  5  2 -1</clus>
</clustering>
</event>
<event>
 9    2  0.4883225E-005  0.1110013E+03  0.7546771E-02  0.1266162E+00
          2   -1    0    0  502    0 -0.00000000000E+00  0.00000000000E+00  0.74247522842E+03  0.74247522842E+03  0.00000000000E+00 0. -1.
         21   -1    0    0  501  502  0.00000000000E+00 -0.00000000000E+00 -0.60713186180E+02  0.60713186180E+02  0.00000000000E+00 0. -1.
         24    2    1    2    0    0  0.53103028378E+02  0.56514520473E+01  0.25841844676E+03  0.27566197589E+03  0.79734313802E+02 0.  0.
         23    2    1    2    0    0  0.54043775764E+02 -0.10748848972E+02  0.18727190848E+02  0.10893253527E+03  0.92083234684E+02 0.  0.
        -13    1    3    3    0    0  0.36533872492E+02  0.42058438356E+02  0.16021927625E+03  0.16962857235E+03  0.00000000000E+00 0.  1.
         14    1    3    3    0    0  0.16569155886E+02 -0.36406986308E+02  0.98199170508E+02  0.10603340355E+03  0.00000000000E+00 0. -1.
        -11    1    4    4    0    0  0.50381650705E+02 -0.39323763466E+02  0.37921771119E+02  0.74315071323E+02  0.00000000000E+00 0. -1.
         11    1    4    4    0    0  0.36621250593E+01  0.28574914494E+02 -0.19194580271E+02  0.34617463946E+02  0.00000000000E+00 0.  1.
          1    1    1    2  501    0 -0.10714680414E+03  0.50973969245E+01  0.40461640464E+03  0.41859390344E+03  0.00000000000E+00 0. -1.
<scales pt_clust_5="13000.00000" pt_clust_6="13000.00000" pt_clust_7="13000.00000" pt_clust_8="13000.00000" pt_clust_9="61.98356"></scales>
<clustering>
<clus scale="   79.734">  5  6 -1 -1</clus>
<clus scale="   92.083">  7  8 -1 -1</clus>
<clus scale="   95.966">  1  5  2 -1</clus>
<clus scale="   61.984">  2  9  1 -1</clus>
<clus scale="   61.984">  2  5  1 -1</clus>
</clustering>
</event>
<event>
 9    2  0.4883225E-005  0.1009938E+03  0.7546771E-02  0.1286297E+00
         -1   -1    0    0    0  501 -0.00000000000E+00  0.00000000000E+00  0.40926356133E+03  0.40926356133E+03  0.00000000000E+00 0.  1.
         21   -1    0    0  501  502  0.00000000000E+00 -0.00000000000E+00 -0.35598441272E+02  0.35598441272E+02  0.00000000000E+00 0.  1.
         23    2    1    2    0    0  0.47842275125E+01  0.51658554021E+02  0.21511323276E+03  0.24083883619E+03  0.95069169931E+02 0.  0.
         24    2    1    2    0    0 -0.13070488909E+02 -0.16587055313E+02  0.14239958516E+03  0.16453178743E+03  0.79668683539E+02 0.  0.
        -11    1    4    4    0    0 -0.14488833838E+02 -0.48282068240E+02  0.80635515467E+02  0.95095587564E+02  0.00000000000E+00 0.  1.
         12    1    4    4    0    0  0.14183449290E+01  0.31695012927E+02  0.61764069698E+02  0.69436199870E+02  0.00000000000E+00 0. -1.
        -13    1    3    3    0    0 -0.20343633435E+02  0.66778911488E+02  0.99382695295E+02  0.12145042843E+03  0.00000000000E+00 0.  1.
         13    1    3    3    0    0  0.25127860947E+02 -0.15120357468E+02  0.11573053747E+03  0.11938840776E+03  0.00000000000E+00 0. -1.
         -2    1    1    2    0  502  0.82862613961E+01 -0.35071498708E+02  0.16152302132E+02  0.39491378979E+02  0.00000000000E+00 0.  1.
<scales pt_clust_5="13000.00000" pt_clust_6="13000.00000" pt_clust_7="13000.00000" pt_clust_8="13000.00000" pt_clust_9="36.03709"></scales>
<clustering>
<clus scale="   36.037">  2  9  1 -1</clus>
<clus scale="   79.669">  5  6 -1 -1</clus>
<clus scale="   86.653">  2  5  1 -1</clus>
<clus scale="   95.069">  7  8 -1 -1</clus>
<clus scale="   36.037">  2  5  1 -1</clus>
</clustering>
</event>
<event>
 9    2  0.4883225E-005  0.9391912E+02  0.7546771E-02  0.1299649E+00
         21   -1    0    0  501  502  0.00000000000E+00  0.00000000000E+00  0.58238613354E+02  0.58238613354E+02  0.00000000000E+00 0.  1.
          4   -1    0    0  502    0 -0.00000000000E+00 -0.00000000000E+00 -0.27909400669E+03  0.27909400669E+03  0.00000000000E+00 0. -1.
         24    2    1    2    0    0 -0.24109319228E+02  0.83359321777E+01 -0.18190472542E+03  0.20040350878E+03  0.80134200945E+02 0.  0.
         23    2    1    2    0    0  0.98463864538E+01 -0.33773475488E+02 -0.45236119552E+02  0.10709613014E+03  0.90474723576E+02 0.  0.
        -11    1    3    3    0    0  0.20315148211E+02  0.83101527458E+01 -0.12475085116E+02  0.25246616291E+02  0.00000000000E+00 0.  1.
         12    1    3    3    0    0 -0.44424467439E+02  0.25779431965E-01 -0.16942964030E+03  0.17515689248E+03  0.00000000000E+00 0. -1.
        -11    1    4    4    0    0 -0.19981859780E+02 -0.48207941670E+02 -0.14770884242E+01  0.52205958956E+02  0.00000000000E+00 0. -1.
         11    1    4    4    0    0  0.29828246234E+02  0.14434466182E+02 -0.43759031128E+02  0.54890171184E+02  0.00000000000E+00 0.  1.
          3    1    1    2  501    0  0.14262932774E+02  0.25437543311E+02  0.62854516316E+01  0.29832981132E+02  0.00000000000E+00 0. -1.
<scales pt_clust_5="13000.00000" pt_clust_6="13000.00000" pt_clust_7="13000.00000" pt_clust_8="13000.00000" pt_clust_9="29.16333"></scales>
<clustering>
<clus scale="   29.163">  1  9  2 -1</clus>
<clus scale="   80.134">  5  6 -1 -1</clus>
<clus scale="   84.004">  2  5  1 -1</clus>
<clus scale="   90.475">  7  8 -1 -1</clus>
<clus scale="   29.163">  1  5  2 -1</clus>
</clustering>
</event>
<event>
 9    2  0.4883225E-005  0.9123658E+02  0.7546771E-02  0.1303791E+00
         21   -1    0    0  501  502  0.00000000000E+00  0.00000000000E+00  0.29052303664E+03  0.29052303664E+03  0.00000000000E+00 0. -1.
          4   -1    0    0  502    0 -0.00000000000E+00 -0.00000000000E+00 -0.15866080463E+03  0.15866080463E+03  0.00000000000E+00 0. -1.
         24    2    1    2    0    0 -0.44589332954E+01 -0.22859897462E+02 -0.11459051158E+03  0.14253276490E+03  0.81499366419E+02 0.  0.
         23    2    1    2    0    0  0.51938376408E+02  0.11714754338E+02  0.72226310425E+02  0.12572744125E+03  0.88067696417E+02 0.  0.
        -11    1    3    3    0    0  0.13998128048E+02  0.21715546266E+02 -0.77454552302E+02  0.81649985981E+02  0.00000000000E+00 0.  1.
         12    1    3    3    0    0 -0.18457061344E+02 -0.44575443727E+02 -0.37135959279E+02  0.60882778916E+02  0.00000000000E+00 0. -1.
        -11    1    4    4    0    0 -0.76536415282E+01  0.37257383088E+02  0.28415713458E+02  0.47477822133E+02  0.00000000000E+00 0.  1.
         11    1    4    4    0    0  0.59592017936E+02 -0.25542628749E+02  0.43810596967E+02  0.78249619116E+02  0.00000000000E+00 0. -1.
          3    1    1    2  501    0 -0.47479443113E+02  0.11145143123E+02  0.17422643317E+03  0.18092363513E+03  0.00000000000E+00 0. -1.
<scales pt_clust_5="13000.00000" pt_clust_6="13000.00000" pt_clust_7="13000.00000" pt_clust_8="13000.00000" pt_clust_9="48.76999"></scales>
<clustering>
<clus scale="   48.770">  1  9  2 -1</clus>
<clus scale="   81.499">  5  6 -1 -1</clus>
<clus scale="   84.914">  2  5  1 -1</clus>
<clus scale="   88.068">  7  8 -1 -1</clus>
<clus scale="   48.770">  1  5  2 -1</clus>
</clustering>
</event>
<event>
 9    2  0.4883225E-005  0.1008573E+03  0.7546771E-02  0.1283936E+00
          2   -1    0    0  502    0 -0.00000000000E+00  0.00000000000E+00  0.71884789265E+03  0.71884789265E+03  0.00000000000E+00 0. -1.
         21   -1    0    0  501  502  0.00000000000E+00 -0.00000000000E+00 -0.27736158981E+02  0.27736158981E+02  0.00000000000E+00 0.  1.
         23    2    1    2    0    0 -0.23026507424E+02  0.46777569599E+02  0.49044551935E+03  0.50163122911E+03  0.91535356598E+02 0.  0.
         24    2    1    2    0    0 -0.24623031794E+02 -0.26368147716E+02  0.11709895048E+03  0.14661406782E+03  0.80510544476E+02 0.  0.
        -11    1    4    4    0    0 -0.17342874176E+00 -0.33816104161E+02  0.82550487547E+01  0.34809550530E+02  0.00000000000E+00 0.  1.
         12    1    4    4    0    0 -0.24449603052E+02  0.74479564456E+01  0.10884390172E+03  0.11180451729E+03  0.00000000000E+00 0. -1.
        -13    1    3    3    0    0  0.33164751516E+02  0.34393159779E+02  0.21713971492E+03  0.22233408641E+03  0.00000000000E+00 0.  1.
         13    1    3    3    0    0 -0.56191258941E+02  0.12384409820E+02  0.27330580443E+03  0.27929714270E+03  0.00000000000E+00 0. -1.
          1    1    1    2  501    0  0.47649539218E+02 -0.20409421883E+02  0.83567263836E+02  0.98338754692E+02  0.00000000000E+00 0. -1.
<scales pt_clust_5="13000.00000" pt_clust_6="13000.00000" pt_clust_7="13000.00000" pt_clust_8="13000.00000" pt_clust_9="51.83650"></scales>
<clustering>
<clus scale="   51.837">  2  9  1 -1</clus>
<clus scale="   80.511">  5  6 -1 -1</clus>
<clus scale="   90.969">  2  5  1 -1</clus>
<clus scale="   91.535">  7  8 -1 -1</clus>
<clus scale="   51.837">  2  5  1 -1</clus>
</clustering>
</event>
<event>
 9    2  0.4883225E-005  0.2418058E+03  0.7546771E-02  0.1130953E+00
         21   -1    0    0  501  502  0.00000000000E+00  0.00000000000E+00  0.28813245528E+03  0.28813245528E+03  0.00000000000E+00 0. -1.
          2   -1    0    0  502    0 -0.00000000000E+00 -0.00000000000E+00 -0.54938953812E+03  0.54938953812E+03  0.00000000000E+00 0. -1.
         24    2    1    2    0    0  0.12546341719E+03  0.98497868033E+02 -0.21650414399E+03  0.28027939154E+03  0.78991100088E+02 0.  0.
         23    2    1    2    0    0 -0.31413959911E+02  0.19671452633E+03  0.64481537584E+02  0.22871889033E+03  0.92038146209E+02 0.  0.
        -13    1    3    3    0    0  0.22993796234E+02  0.58515277671E+02 -0.48205478212E+02  0.79224494418E+02  0.00000000000E+00 0.  1.
         14    1    3    3    0    0  0.10246962096E+03  0.39982590362E+02 -0.16829866578E+03  0.20105489712E+03  0.00000000000E+00 0. -1.
        -13    1    4    4    0    0  0.86252189265E+01  0.15883524717E+03  0.25240862205E+02  0.16105940292E+03  0.00000000000E+00 0. -1.
         13    1    4    4    0    0 -0.40039178837E+02  0.37879279156E+02  0.39240675380E+02  0.67659487403E+02  0.00000000000E+00 0.  1.
          1    1    1    2  501    0 -0.94049457283E+02 -0.29521239436E+03 -0.10923447643E+03  0.32852371154E+03  0.00000000000E+00 0. -1.
<scales pt_clust_5="13000.00000" pt_clust_6="13000.00000" pt_clust_7="13000.00000" pt_clust_8="13000.00000" pt_clust_9="223.60470"></scales>
<clustering>
<clus scale="   78.991">  5  6 -1 -1</clus>
<clus scale="   92.038">  7  8 -1 -1</clus>
<clus scale="  177.996">  2  5  1 -1</clus>
<clus scale="  223.605">  1  9  2 -1</clus>
<clus scale="  223.605">  1  5  2 -1</clus>
</clustering>
</event>
<event>
 9    2  0.4883225E-005  0.1539211E+03  0.7546771E-02  0.1197426E+00
         21   -1    0    0  501  502  0.00000000000E+00  0.00000000000E+00  0.53255576533E+02  0.53255576533E+02  0.00000000000E+00 0. -1.
          2   -1    0    0  502    0 -0.00000000000E+00 -0.00000000000E+00 -0.10179173457E+04  0.10179173457E+04  0.00000000000E+00 0. -1.
         24    2    1    2    0    0 -0.97267502496E+02 -0.70117015576E+02 -0.61491066978E+03  0.63157406091E+03  0.79958112119E+02 0.  0.
         23    2    1    2    0    0  0.11918637741E+03  0.93574533640E+02 -0.13368810745E+03  0.22116372514E+03  0.89884911630E+02 0.  0.
        -13    1    3    3    0    0 -0.46054586874E+02 -0.77814808787E+02 -0.33941704087E+03  0.35125503138E+03  0.00000000000E+00 0.  1.
         14    1    3    3    0    0 -0.51212915622E+02  0.76977932109E+01 -0.27549362891E+03  0.28031902953E+03  0.00000000000E+00 0. -1.
        -11    1    4    4    0    0  0.72752522277E+02  0.15174587400E+02 -0.23001245272E+02  0.77796239527E+02  0.00000000000E+00 0. -1.
         11    1    4    4    0    0  0.46433855134E+02  0.78399946239E+02 -0.11068686217E+03  0.14336748561E+03  0.00000000000E+00 0.  1.
          1    1    1    2  501    0 -0.21918874915E+02 -0.23457518064E+02 -0.21606299193E+03  0.21843513617E+03  0.00000000000E+00 0. -1.
<scales pt_clust_5="13000.00000" pt_clust_6="13000.00000" pt_clust_7="13000.00000" pt_clust_8="13000.00000" pt_clust_9="32.10441"></scales>
<clustering>
<clus scale="   32.104">  1  9  2 -1</clus>
<clus scale="   79.958">  5  6 -1 -1</clus>
<clus scale="   89.885">  7  8 -1 -1</clus>
<clus scale="  148.343">  2  5  1 -1</clus>
<clus scale="   32.104">  1  5  2 -1</clus>
</clustering>
</event>
<event>
 9    2  0.4883225E-005  0.4081703E+03  0.7546771E-02  0.1086877E+00
         21   -1    0    0  501  502  0.00000000000E+00  0.00000000000E+00  0.33714408758E+03  0.33714408758E+03  0.00000000000E+00 0. -1.
          2   -1    0    0  502    0 -0.00000000000E+00 -0.00000000000E+00 -0.18171764603E+04  0.18171764603E+04  0.00000000000E+00 0. -1.
         24    2    1    2    0    0 -0.28262031740E+02  0.74837439078E+02 -0.15991554913E+03  0.19640916847E+03  0.81266191491E+02 0.  0.
         23    2    1    2    0    0  0.33827915375E+03 -0.31533500089E+03 -0.14655708982E+04  0.15394539968E+04  0.90286223823E+02 0.  0.
        -11    1    3    3    0    0  0.11383275786E+02  0.73436980394E+02 -0.10149051413E+03  0.12578908345E+03  0.00000000000E+00 0.  1.
         12    1    3    3    0    0 -0.39645307526E+02  0.14004586843E+01 -0.58425034993E+02  0.70620085013E+02  0.00000000000E+00 0. -1.
        -13    1    4    4    0    0  0.10755813784E+03 -0.61785496215E+02 -0.48798773992E+03  0.50350594323E+03  0.00000000000E+00 0.  1.
         13    1    4    4    0    0  0.23072101591E+03 -0.25354950468E+03 -0.97758315824E+03  0.10359480536E+04  0.00000000000E+00 0. -1.
          1    1    1    2  501    0 -0.31001712201E+03  0.24049756182E+03  0.14545407459E+03  0.41845738253E+03  0.00000000000E+00 0. -1.
<scales pt_clust_5="13000.00000" pt_clust_6="13000.00000" pt_clust_7="13000.00000" pt_clust_8="13000.00000" pt_clust_9="398.05950"></scales>
<clustering>
<clus scale="   81.266">  5  6 -1 -1</clus>
<clus scale="   90.286">  7  8 -1 -1</clus>
<clus scale="  114.033">  2  5  1 -1</clus>
<clus scale="  398.059">  1  9  2 -1</clus>
<clus scale="  398.059">  1  5  2 -1</clus>
</clustering>
</event>
<event>
 9    2  0.4883225E-005  0.1257275E+03  0.7546771E-02  0.1246274E+00
         21   -1    0    0  501  502  0.00000000000E+00  0.00000000000E+00  0.24553563026E+03  0.24553563026E+03  0.00000000000E+00 0.  1.
          2   -1    0    0  502    0 -0.00000000000E+00 -0.00000000000E+00 -0.11049541153E+03  0.11049541153E+03  0.00000000000E+00 0. -1.
         24    2    1    2    0    0 -0.33005661534E+02 -0.47099416245E+02  0.36067370005E+02  0.10429910927E+03  0.79181565481E+02 0.  0.
         23    2    1    2    0    0 -0.62835972345E+02  0.15877797100E+02 -0.30591715889E+00  0.11025161006E+03  0.89190022275E+02 0.  0.
        -11    1    3    3    0    0 -0.34058614955E+02 -0.48966826690E+02  0.57446906766E+02  0.82812356963E+02  0.00000000000E+00 0.  1.
         12    1    3    3    0    0  0.10529534211E+01  0.18674104447E+01 -0.21379536761E+02  0.21486752309E+02  0.00000000000E+00 0. -1.
        -13    1    4    4    0    0 -0.35948612436E+02  0.23853375156E+02  0.41531094123E+02  0.59884205108E+02  0.00000000000E+00 0.  1.
         13    1    4    4    0    0 -0.26887359909E+02 -0.79755780563E+01 -0.41837011282E+02  0.50367404948E+02  0.00000000000E+00 0. -1.
          1    1    1    2  501    0  0.95841633879E+02  0.31221619146E+02  0.99278765881E+02  0.14148032245E+03  0.00000000000E+00 0. -1.
<scales pt_clust_5="13000.00000" pt_clust_6="13000.00000" pt_clust_7="13000.00000" pt_clust_8="13000.00000" pt_clust_9="88.61461"></scales>
<clustering>
<clus scale="   79.182">  5  6 -1 -1</clus>
<clus scale="   89.190">  7  8 -1 -1</clus>
<clus scale="   97.864">  2  5  1 -1</clus>
<clus scale="   88.615">  1  9  2 -1</clus>
<clus scale="   88.615">  1  5  2 -1</clus>
</clustering>
</event>
<event>
 9    2  0.4883225E-005  0.9952166E+02  0.7546771E-02  0.1287017E+00
         21   -1    0    0  501  502  0.00000000000E+00  0.00000000000E+00  0.13779052271E+03  0.13779052271E+03  0.00000000000E+00 0.  1.
          2   -1    0    0  502    0 -0.00000000000E+00 -0.00000000000E+00 -0.25164335907E+03  0.25164335907E+03  0.00000000000E+00 0. -1.
         23    2    1    2    0    0  0.24486086459E+02  0.27769902980E+02 -0.21140729932E+03  0.23363293122E+03  0.92306903335E+02 0.  0.
         24    2    1    2    0    0 -0.51595783424E+01 -0.45558157202E+02  0.63671111337E+02  0.11292884517E+03  0.81220358996E+02 0.  0.
        -11    1    4    4    0    0 -0.22470336546E+01 -0.64117978774E+02  0.68168076829E+02  0.93611169530E+02  0.00000000000E+00 0.  1.
         12    1    4    4    0    0 -0.29125446878E+01  0.18559821572E+02 -0.44969654916E+01  0.19317675636E+02  0.00000000000E+00 0. -1.
        -13    1    3    3    0    0  0.29988480616E+02  0.56030759298E+02 -0.18065089268E+03  0.19150326364E+03  0.00000000000E+00 0. -1.
         13    1    3    3    0    0 -0.55023941564E+01 -0.28260856318E+02 -0.30756406635E+02  0.42129667580E+02  0.00000000000E+00 0.  1.
          1    1    1    2  501    0 -0.19326508117E+02  0.17788254221E+02  0.33883351616E+02  0.42872105395E+02  0.00000000000E+00 0. -1.
<scales pt_clust_5="13000.00000" pt_clust_6="13000.00000" pt_clust_7="13000.00000" pt_clust_8="13000.00000" pt_clust_9="26.26663"></scales>
<clustering>
<clus scale="   26.267">  1  9  2 -1</clus>
<clus scale="   81.220">  5  6 -1 -1</clus>
<clus scale="   89.335">  1  5  2 -1</clus>
<clus scale="   92.307">  7  8 -1 -1</clus>
<clus scale="   26.267">  1  5  2 -1</clus>
</clustering>
</event>
<event>
 9    2  0.4883225E-005  0.1666028E+03  0.7546771E-02  0.1184483E+00
          2   -1    0    0  502    0 -0.00000000000E+00  0.00000000000E+00  0.14567759758E+04  0.14567759758E+04  0.00000000000E+00 0. -1.
         21   -1    0    0  501  502  0.00000000000E+00 -0.00000000000E+00 -0.97786599870E+02  0.97786599870E+02  0.00000000000E+00 0. -1.
         24    2    1    2    0    0 -0.34066240526E+02 -0.12806661092E+03  0.10206276183E+04  0.10321071224E+04  0.77477810663E+02 0.  0.
         23    2    1    2    0    0  0.98682768200E+01  0.14422943410E+03  0.40976073673E+03  0.44535426959E+03  0.97657828800E+02 0.  0.
        -11    1    3    3    0    0 -0.40583137049E+02 -0.30504352984E+02  0.23523459899E+03  0.24065083238E+03  0.00000000000E+00 0.  1.
         12    1    3    3    0    0  0.65168965230E+01 -0.97562257939E+02  0.78539301934E+03  0.79145628997E+03  0.00000000000E+00 0. -1.
        -11    1    4    4    0    0  0.41361044142E+02  0.12958736425E+03  0.28416342580E+03  0.31504360573E+03  0.00000000000E+00 0. -1.
         11    1    4    4    0    0 -0.31492767322E+02  0.14642069845E+02  0.12559731093E+03  0.13031066386E+03  0.00000000000E+00 0.  1.
          1    1    1    2  501    0  0.24197963706E+02 -0.16162823174E+02 -0.71398979166E+02  0.77101183690E+02  0.00000000000E+00 0. -1.
<scales pt_clust_5="13000.00000" pt_clust_6="13000.00000" pt_clust_7="13000.00000" pt_clust_8="13000.00000" pt_clust_9="29.09946"></scales>
<clustering>
<clus scale="   29.099">  2  9  1 -1</clus>
<clus scale="   77.478">  5  6 -1 -1</clus>
<clus scale="   97.658">  7  8 -1 -1</clus>
<clus scale="  155.635">  1  5  2 -1</clus>
<clus scale="   29.099">  2  5  1 -1</clus>
</clustering>
</event>
<event>
 9    2  0.4883225E-005  0.1798777E+03  0.7546771E-02  0.1198400E+00
         21   -1    0    0  501  502  0.00000000000E+00  0.00000000000E+00  0.17508073739E+03  0.17508073739E+03  0.00000000000E+00 0. -1.
          2   -1    0    0  502    0 -0.00000000000E+00 -0.00000000000E+00 -0.55924532229E+03  0.55924532229E+03  0.00000000000E+00 0. -1.
         24    2    1    2    0    0 -0.43468977465E+02  0.61487045509E+01 -0.38390560666E+03  0.39454147464E+03  0.79700074093E+02 0.  0.
         23    2    1    2    0    0  0.31899545861E+02 -0.15915104344E+03 -0.11260527878E+02  0.18595155365E+03  0.90025247366E+02 0.  0.
        -13    1    3    3    0    0  0.13728998521E+02  0.26820514134E+02 -0.12156425798E+03  0.12524254148E+03  0.00000000000E+00 0.  1.
         14    1    3    3    0    0 -0.57197975986E+02 -0.20671809583E+02 -0.26234134868E+03  0.26929893315E+03  0.00000000000E+00 0. -1.
        -11    1    4    4    0    0  0.18752803344E+01 -0.13083681001E+03  0.22327526719E+02  0.13274150059E+03  0.00000000000E+00 0. -1.
         11    1    4    4    0    0  0.30024265527E+02 -0.28314233432E+02 -0.33588054597E+02  0.53210053062E+02  0.00000000000E+00 0.  1.
          1    1    1    2  501    0  0.11569431604E+02  0.15300233889E+03  0.11001549634E+02  0.15383303139E+03  0.00000000000E+00 0. -1.
<scales pt_clust_5="13000.00000" pt_clust_6="13000.00000" pt_clust_7="13000.00000" pt_clust_8="13000.00000" pt_clust_9="155.72877"></scales>
<clustering>
<clus scale="   79.700">  5  6 -1 -1</clus>
<clus scale="   90.025">  7  8 -1 -1</clus>
<clus scale="   90.992">  2  5  1 -1</clus>
<clus scale="  155.729">  1  9  2 -1</clus>
<clus scale="  155.729">  1  5  2 -1</clus>
</clustering>
</event>
<event>
 9    2  0.4883225E-005  0.2595385E+03  0.7546771E-02  0.1108248E+00
         21   -1    0    0  501  502  0.00000000000E+00  0.00000000000E+00  0.46925296669E+03  0.46925296669E+03  0.00000000000E+00 0. -1.
          2   -1    0    0  502    0 -0.00000000000E+00 -0.00000000000E+00 -0.19408050347E+03  0.19408050347E+03  0.00000000000E+00 0. -1.
         24    2    1    2    0    0 -0.17127043342E+03 -0.18719972694E+03  0.87454786855E+02  0.27815346405E+03  0.73100688723E+02 0.  0.
         23    2    1    2    0    0  0.11228638668E+03  0.20352898084E+03  0.20365892986E+03  0.32193535522E+03  0.90183892959E+02 0.  0.
        -11    1    3    3    0    0 -0.88866146953E+01 -0.47306935187E+02  0.45629383886E+01  0.48350164883E+02  0.00000000000E+00 0.  1.
         12    1    3    3    0    0 -0.16238381872E+03 -0.13989279175E+03  0.82891848467E+02  0.22980329917E+03  0.00000000000E+00 0. -1.
        -11    1    4    4    0    0  0.80413178599E+02  0.20170258665E+03  0.17244151442E+03  0.27728376918E+03  0.00000000000E+00 0. -1.
         11    1    4    4    0    0  0.31873208081E+02  0.18263941957E+01  0.31217415440E+02  0.44651586040E+02  0.00000000000E+00 0.  1.
          1    1    1    2  501    0  0.58984046739E+02 -0.16329253907E+02 -0.15941253502E+02  0.63244650889E+02  0.00000000000E+00 0. -1.
<scales pt_clust_5="13000.00000" pt_clust_6="13000.00000" pt_clust_7="13000.00000" pt_clust_8="13000.00000" pt_clust_9="61.20266"></scales>
<clustering>
<clus scale="   61.203">  1  9  2 -1</clus>
<clus scale="   73.101">  5  6 -1 -1</clus>
<clus scale="   90.184">  7  8 -1 -1</clus>
<clus scale="  254.108">  2  5  1 -1</clus>
<clus scale="   61.203">  1  5  2 -1</clus>
</clustering>
</event>
<event>
 9    2  0.4883225E-005  0.9045424E+02  0.7546771E-02  0.1303164E+00
         21   -1    0    0  501  502  0.00000000000E+00  0.00000000000E+00  0.98269769213E+02  0.98269769213E+02  0.00000000000E+00 0.  1.
         -3   -1    0    0    0  501 -0.00000000000E+00 -0.00000000000E+00 -0.20619256587E+03  0.20619256587E+03  0.00000000000E+00 0.  1.
         23    2    1    2    0    0  0.21428141402E+02  0.30349471721E+02 -0.36381016998E+02  0.10332200044E+03  0.89283826637E+02 0.  0.
         24    2    1    2    0    0  0.58987796051E+00  0.55000490551E+02 -0.22826251321E+02  0.10042979926E+03  0.80868442011E+02 0.  0.
        -13    1    4    4    0    0 -0.22984838886E+02  0.61219917455E+02  0.22810628345E+01  0.65432288355E+02  0.00000000000E+00 0.  1.
         14    1    4    4    0    0  0.23574716846E+02 -0.62194269041E+01 -0.25107314156E+02  0.34997510905E+02  0.00000000000E+00 0. -1.
        -13    1    3    3    0    0  0.45745524132E+02 -0.17373517414E+01  0.44327015143E+01  0.45992610405E+02  0.00000000000E+00 0. -1.
         13    1    3    3    0    0 -0.24317382730E+02  0.32086823462E+02 -0.40813718512E+02  0.57329390032E+02  0.00000000000E+00 0.  1.
         -4    1    1    2    0  502 -0.22018019363E+02 -0.85349962271E+02 -0.48715528340E+02  0.10071053539E+03  0.00000000000E+00 0.  1.
<scales pt_clust_5="13000.00000" pt_clust_6="13000.00000" pt_clust_7="13000.00000" pt_clust_8="13000.00000" pt_clust_9="88.14430"></scales>
<clustering>
<clus scale="   80.868">  5  6 -1 -1</clus>
<clus scale="   88.144">  1  9  2 -1</clus>
<clus scale="   88.144">  1  5  2 -1</clus>
<clus scale="   89.284">  7  8 -1 -1</clus>
<clus scale="   88.144">  1  5  2 -1</clus>
</clustering>
</event>
<event>
 9    2  0.4883225E-005  0.9792841E+02  0.7546771E-02  0.1291030E+00
          2   -1    0    0  502    0 -0.00000000000E+00  0.00000000000E+00  0.89847452285E+02  0.89847452285E+02  0.00000000000E+00 0. -1.
         21   -1    0    0  501  502  0.00000000000E+00 -0.00000000000E+00 -0.16945223113E+03  0.16945223113E+03  0.00000000000E+00 0. -1.
         24    2    1    2    0    0  0.11629376288E+02 -0.34966994695E+02  0.30203074485E+02  0.93433547898E+02  0.80372066376E+02 0.  0.
         23    2    1    2    0    0  0.50310899742E+01  0.20989286973E+02 -0.10867184088E+03  0.14408912990E+03  0.92120824582E+02 0.  0.
        -13    1    3    3    0    0 -0.18393474889E+01  0.23145702444E+02  0.24106313254E+02  0.33469703905E+02  0.00000000000E+00 0.  1.
         14    1    3    3    0    0  0.13468723777E+02 -0.58112697138E+02  0.60967612304E+01  0.59963843993E+02  0.00000000000E+00 0. -1.
        -13    1    4    4    0    0  0.45391721029E+02  0.87277768463E+01 -0.30856516827E+02  0.55576137481E+02  0.00000000000E+00 0.  1.
         13    1    4    4    0    0 -0.40360631055E+02  0.12261510127E+02 -0.77815324056E+02  0.88512992423E+02  0.00000000000E+00 0. -1.
          1    1    1    2  501    0 -0.16660466263E+02  0.13977707722E+02 -0.11360124472E+01  0.21777005614E+02  0.00000000000E+00 0. -1.
<scales pt_clust_5="13000.00000" pt_clust_6="13000.00000" pt_clust_7="13000.00000" pt_clust_8="13000.00000" pt_clust_9="21.74737"></scales>
<clustering>
<clus scale="   21.747">  2  9  1 -1</clus>
<clus scale="   80.372">  5  6 -1 -1</clus>
<clus scale="   86.968">  1  5  2 -1</clus>
<clus scale="   92.121">  7  8 -1 -1</clus>
<clus scale="   21.747">  2  5  1 -1</clus>
</clustering>
</event>
<event>
 9    2  0.4883225E-005  0.9600793E+02  0.7546771E-02  0.1292953E+00
          2   -1    0    0  502    0 -0.00000000000E+00  0.00000000000E+00  0.50261814484E+03  0.50261814484E+03  0.00000000000E+00 0. -1.
         21   -1    0    0  501  502  0.00000000000E+00 -0.00000000000E+00 -0.27790190606E+02  0.27790190606E+02  0.00000000000E+00 0. -1.
         23    2    1    2    0    0 -0.38429530620E+01  0.39435881250E+02  0.28569497187E+03  0.30220431660E+03  0.90199085388E+02 0.  0.
         24    2    1    2    0    0  0.15965087857E+02 -0.15839108492E+02  0.84956518454E+02  0.12070290504E+03  0.82739469833E+02 0.  0.
        -11    1    4    4    0    0 -0.17878485585E+02  0.25914917983E+02  0.25165184371E+02  0.40305207174E+02  0.00000000000E+00 0.  1.
         12    1    4    4    0    0  0.33843573442E+02 -0.41754026475E+02  0.59791334083E+02  0.80397697863E+02  0.00000000000E+00 0. -1.
        -13    1    3    3    0    0 -0.45405855851E+02  0.32364115342E+02  0.14597650314E+03  0.15626345439E+03  0.00000000000E+00 0. -1.
         13    1    3    3    0    0  0.41562902789E+02  0.70717659081E+01  0.13971846872E+03  0.14594086221E+03  0.00000000000E+00 0.  1.
          1    1    1    2  501    0 -0.12122134795E+02 -0.23596772758E+02  0.10417646392E+03  0.10750111381E+03  0.00000000000E+00 0. -1.
<scales pt_clust_5="13000.00000" pt_clust_6="13000.00000" pt_clust_7="13000.00000" pt_clust_8="13000.00000" pt_clust_9="26.52837"></scales>
<clustering>
<clus scale="   26.528">  2  9  1 -1</clus>
<clus scale="   82.739">  5  6 -1 -1</clus>
<clus scale="   89.036">  2  5  1 -1</clus>
<clus scale="   90.199">  7  8 -1 -1</clus>
<clus scale="   26.528">  2  5  1 -1</clus>
</clustering>
</event>
<event>
 9    2  0.4883225E-005  0.1032866E+03  0.7546771E-02  0.1273659E+00
          2   -1    0    0  502    0 -0.00000000000E+00  0.00000000000E+00  0.44564719554E+03  0.44564719554E+03  0.00000000000E+00 0. -1.
         21   -1    0    0  501  502  0.00000000000E+00 -0.00000000000E+00 -0.53311793252E+02  0.53311793252E+02  0.00000000000E+00 0.  1.
         24    2    1    2    0    0  0.10293584573E+02 -0.70411414169E+02  0.35516547089E+03  0.37043815377E+03  0.77576987092E+02 0.  0.
         23    2    1    2    0    0 -0.17324586823E+02  0.49841177986E+02  0.10528050480E+02  0.94135381294E+02  0.77242124731E+02 0.  0.
        -11    1    3    3    0    0 -0.23824924697E+02 -0.38211885148E+02  0.84623957770E+02  0.95859216730E+02  0.00000000000E+00 0.  1.
         12    1    3    3    0    0  0.34118509270E+02 -0.32199529021E+02  0.27054151312E+03  0.27457893704E+03  0.00000000000E+00 0. -1.
        -13    1    4    4    0    0  0.28488630603E+02  0.35007274506E+02  0.16198107916E+01  0.45163426895E+02  0.00000000000E+00 0. -1.
         13    1    4    4    0    0 -0.45813217425E+02  0.14833903480E+02  0.89082396884E+01  0.48971954399E+02  0.00000000000E+00 0.  1.
          1    1    1    2  501    0  0.70310022500E+01  0.20570236183E+02  0.26641880915E+02  0.34385453726E+02  0.00000000000E+00 0. -1.
<scales pt_clust_5="13000.00000" pt_clust_6="13000.00000" pt_clust_7="13000.00000" pt_clust_8="13000.00000" pt_clust_9="21.73867"></scales>
<clustering>
<clus scale="   21.739">  2  9  1 -1</clus>
<clus scale="   77.242">  7  8 -1 -1</clus>
<clus scale="   77.577">  5  6 -1 -1</clus>
<clus scale="  103.035">  2  7  1 -1</clus>
<clus scale="   21.739">  2  5  1 -1</clus>
</clustering>
</event>
<event>
 9    2  0.4883225E-005  0.1377026E+03  0.7546771E-02  0.1218357E+00
         -1   -1    0    0    0  501 -0.00000000000E+00  0.00000000000E+00  0.19433057120E+03  0.19433057120E+03  0.00000000000E+00 0.  1.
         21   -1    0    0  501  502  0.00000000000E+00 -0.00000000000E+00 -0.16519638918E+03  0.16519638918E+03  0.00000000000E+00 0.  1.
         24    2    1    2    0    0  0.12064775564E+01  0.10260711942E+03  0.86835277861E+02  0.15600064536E+03  0.79159076092E+02 0.  0.
         23    2    1    2    0    0  0.35725100440E+02 -0.11261677762E+03 -0.17960048521E+02  0.14835852049E+03  0.87913968492E+02 0.  0.
        -11    1    3    3    0    0  0.52148038562E+01  0.59658409230E+02  0.94805005721E+02  0.11213522676E+03  0.00000000000E+00 0.  1.
         12    1    3    3    0    0 -0.40083262998E+01  0.42948710189E+02 -0.79697278599E+01  0.43865418598E+02  0.00000000000E+00 0. -1.
        -11    1    4    4    0    0  0.17167978429E+01 -0.78078232095E+02 -0.47679661186E+02  0.91501408802E+02  0.00000000000E+00 0.  1.
         11    1    4    4    0    0  0.34008302597E+02 -0.34538545527E+02  0.29719612665E+02  0.56857111689E+02  0.00000000000E+00 0. -1.
         -2    1    1    2    0  502 -0.36931577996E+02  0.10009658203E+02 -0.39741047323E+02  0.55167794527E+02  0.00000000000E+00 0.  1.
<scales pt_clust_5="13000.00000" pt_clust_6="13000.00000" pt_clust_7="13000.00000" pt_clust_8="13000.00000" pt_clust_9="38.26401"></scales>
<clustering>
<clus scale="   38.264">  2  9  1 -1</clus>
<clus scale="   79.159">  5  6 -1 -1</clus>
<clus scale="   87.914">  7  8 -1 -1</clus>
<clus scale="  132.285">  1  5  2 -1</clus>
<clus scale="   38.264">  2  5  1 -1</clus>
</clustering>
</event>
<event>
 9    2  0.4883225E-005  0.1148333E+03  0.7546771E-02  0.1257476E+00
         21   -1    0    0  501  502  0.00000000000E+00  0.00000000000E+00  0.52622259708E+02  0.52622259708E+02  0.00000000000E+00 0.  1.
          2   -1    0    0  502    0 -0.00000000000E+00 -0.00000000000E+00 -0.35129025350E+03  0.35129025350E+03  0.00000000000E+00 0. -1.
         24    2    1    2    0    0 -0.58994354908E+02  0.29362901200E+02 -0.19506748506E+03  0.21996434915E+03  0.77398173693E+02 0.  0.
         23    2    1    2    0    0  0.73567634517E+02 -0.87780411673E+01 -0.10521793525E+03  0.15867499628E+03  0.92831512368E+02 0.  0.
        -11    1    3    3    0    0 -0.50234857186E+02  0.42838534104E+02 -0.79746173925E+02  0.10352841705E+03  0.00000000000E+00 0.  1.
         12    1    3    3    0    0 -0.87594977222E+01 -0.13475632904E+02 -0.11532131114E+03  0.11643593210E+03  0.00000000000E+00 0. -1.
        -13    1    4    4    0    0  0.57557858364E+02  0.26882481082E+02 -0.22864926394E+02  0.67515773769E+02  0.00000000000E+00 0.  1.
         13    1    4    4    0    0  0.16009776153E+02 -0.35660522250E+02 -0.82353008861E+02  0.91159222506E+02  0.00000000000E+00 0. -1.
          1    1    1    2  501    0 -0.14573279609E+02 -0.20584860033E+02  0.16174265249E+01  0.25273167781E+02  0.00000000000E+00 0. -1.
<scales pt_clust_5="13000.00000" pt_clust_6="13000.00000" pt_clust_7="13000.00000" pt_clust_8="13000.00000" pt_clust_9="25.22136"></scales>
<clustering>
<clus scale="   25.221">  1  9  2 -1</clus>
<clus scale="   77.398">  5  6 -1 -1</clus>
<clus scale="   92.832">  7  8 -1 -1</clus>
<clus scale="  102.759">  2  5  1 -1</clus>
<clus scale="   25.221">  1  5  2 -1</clus>
</clustering>
</event>
<event>
 9    2  0.4883225E-005  0.1125565E+03  0.7546771E-02  0.1260168E+00
          2   -1    0    0  502    0 -0.00000000000E+00  0.00000000000E+00  0.12673262495E+03  0.12673262495E+03  0.00000000000E+00 0. -1.
         21   -1    0    0  501  502  0.00000000000E+00 -0.00000000000E+00 -0.16986990239E+03  0.16986990239E+03  0.00000000000E+00 0. -1.
         23    2    1    2    0    0  0.10290200210E+02 -0.81033136909E+02  0.15055881648E+02  0.12327400649E+03  0.91090853585E+02 0.  0.
         24    2    1    2    0    0  0.37281994278E+02  0.41839634444E+02 -0.54511552671E+02  0.11158065814E+03  0.79613012677E+02 0.  0.
        -13    1    4    4    0    0 -0.11734597894E+02  0.25788939680E+02 -0.52862383465E+02  0.59976676994E+02  0.00000000000E+00 0.  1.
         14    1    4    4    0    0  0.49016592172E+02  0.16050694764E+02 -0.16491692054E+01  0.51603981142E+02  0.00000000000E+00 0. -1.
        -11    1    3    3    0    0  0.23204690513E+02 -0.97635259450E+02  0.18245156318E+02  0.10199993764E+03  0.00000000000E+00 0.  1.
         11    1    3    3    0    0 -0.12914490302E+02  0.16602122541E+02 -0.31892746700E+01  0.21274068852E+02  0.00000000000E+00 0. -1.
          1    1    1    2  501    0 -0.47572194489E+02  0.39193502465E+02 -0.36816064179E+01  0.61747862714E+02  0.00000000000E+00 0. -1.
<scales pt_clust_5="13000.00000" pt_clust_6="13000.00000" pt_clust_7="13000.00000" pt_clust_8="13000.00000" pt_clust_9="61.63804"></scales>
<clustering>
<clus scale="   61.638">  2  9  1 -1</clus>
<clus scale="   79.613">  5  6 -1 -1</clus>
<clus scale="   91.091">  7  8 -1 -1</clus>
<clus scale="  103.487">  2  5  1 -1</clus>
<clus scale="   61.638">  2  5  1 -1</clus>
</clustering>
</event>
<event>
 9    2  0.4883225E-005  0.2724468E+03  0.7546771E-02  0.1100236E+00
         21   -1    0    0  501  502  0.00000000000E+00  0.00000000000E+00  0.54659322129E+03  0.54659322129E+03  0.00000000000E+00 0.  1.
         -1   -1    0    0    0  501 -0.00000000000E+00 -0.00000000000E+00 -0.38178344679E+03  0.38178344679E+03  0.00000000000E+00 0.  1.
         24    2    1    2    0    0  0.57854709109E+02 -0.26948182889E+03 -0.24311010461E+03  0.37598414513E+03  0.79334298723E+02 0.  0.
         23    2    1    2    0    0  0.82496428000E+01  0.15753454720E+03  0.37827136132E+03  0.41904705498E+03  0.87327093880E+02 0.  0.
        -13    1    3    3    0    0  0.48573140110E+02 -0.27234998908E+03 -0.23836035674E+03  0.36517054393E+03  0.00000000000E+00 0.  1.
         14    1    3    3    0    0  0.92815689981E+01  0.28681601876E+01 -0.47497478726E+01  0.10813601194E+02  0.00000000000E+00 0. -1.
        -11    1    4    4    0    0 -0.46211810766E+00  0.31325256980E+02  0.18776662967E+03  0.19036226647E+03  0.00000000000E+00 0.  1.
         11    1    4    4    0    0  0.87117609077E+01  0.12620929022E+03  0.19050473166E+03  0.22868478852E+03  0.00000000000E+00 0. -1.
         -2    1    1    2    0  502 -0.66104351909E+02  0.11194728170E+03  0.29648517786E+02  0.13334546797E+03  0.00000000000E+00 0.  1.
<scales pt_clust_5="13000.00000" pt_clust_6="13000.00000" pt_clust_7="13000.00000" pt_clust_8="13000.00000" pt_clust_9="130.00761"></scales>
<clustering>
<clus scale="   79.334">  5  6 -1 -1</clus>
<clus scale="   87.327">  7  8 -1 -1</clus>
<clus scale="  130.008">  1  9  2 -1</clus>
<clus scale="  269.991">  2  5  1 -1</clus>
<clus scale="  130.008">  1  5  2 -1</clus>
</clustering>
</event>
<event>
 9    2  0.4883225E-005  0.1898361E+03  0.7546771E-02  0.1188896E+00
         21   -1    0    0  501  502  0.00000000000E+00  0.00000000000E+00  0.75324138332E+02  0.75324138332E+02  0.00000000000E+00 0. -1.
          2   -1    0    0  502    0 -0.00000000000E+00 -0.00000000000E+00 -0.85731857550E+03  0.85731857550E+03  0.00000000000E+00 0. -1.
         24    2    1    2    0    0  0.11023787728E+02  0.51668928885E+02 -0.28702072998E+03  0.30245163789E+03  0.79403348237E+02 0.  0.
         23    2    1    2    0    0 -0.11150496513E+03 -0.14213298961E+03 -0.13131061528E+03  0.24220775451E+03  0.93738864296E+02 0.  0.
        -11    1    3    3    0    0 -0.32638205604E+02  0.23855057038E+02 -0.16545234085E+03  0.17031967973E+03  0.00000000000E+00 0.  1.
         12    1    3    3    0    0  0.43661993333E+02  0.27813871847E+02 -0.12156838914E+03  0.13213195816E+03  0.00000000000E+00 0. -1.
        -11    1    4    4    0    0 -0.18043947962E+02 -0.93187734031E+02 -0.83334819818E+02  0.12631005513E+03  0.00000000000E+00 0.  1.
         11    1    4    4    0    0 -0.93461017169E+02 -0.48945255575E+02 -0.47975795459E+02  0.11589769939E+03  0.00000000000E+00 0. -1.
          1    1    1    2  501    0  0.10048117740E+03  0.90464060721E+02 -0.36366309191E+03  0.38798332143E+03  0.00000000000E+00 0. -1.
<scales pt_clust_5="13000.00000" pt_clust_6="13000.00000" pt_clust_7="13000.00000" pt_clust_8="13000.00000" pt_clust_9="165.07818"></scales>
<clustering>
<clus scale="   79.403">  5  6 -1 -1</clus>
<clus scale="   93.739">  7  8 -1 -1</clus>
<clus scale="   95.373">  2  5  1 -1</clus>
<clus scale="  165.078">  1  9  2 -1</clus>
<clus scale="  165.078">  1  5  2 -1</clus>
</clustering>
</event>
<event>
 9    2  0.4883225E-005  0.4463440E+03  0.7546771E-02  0.1087767E+00
         -3   -1    0    0    0  501 -0.00000000000E+00  0.00000000000E+00  0.16774817777E+04  0.16774817777E+04  0.00000000000E+00 0.  1.
         21   -1    0    0  501  502  0.00000000000E+00 -0.00000000000E+00 -0.47897484222E+03  0.47897484222E+03  0.00000000000E+00 0.  1.
         24    2    1    2    0    0 -0.15748478287E+02 -0.30771531848E+02  0.38143534229E+03  0.39082826727E+03  0.77839015988E+02 0.  0.
         23    2    1    2    0    0 -0.41844719054E+03  0.87366490753E+02  0.11404067736E+04  0.12213173138E+04  0.91418908056E+02 0.  0.
        -13    1    3    3    0    0  0.96731073474E+01 -0.49836411035E+02  0.18498657799E+03  0.19182614761E+03  0.00000000000E+00 0.  1.
         14    1    3    3    0    0 -0.25421585635E+02  0.19064879187E+02  0.19644876430E+03  0.19900211966E+03  0.00000000000E+00 0. -1.
        -13    1    4    4    0    0 -0.57898450385E+02 -0.11861320298E+02  0.22109596297E+03  0.22885879122E+03  0.00000000000E+00 0. -1.
         13    1    4    4    0    0 -0.36054874016E+03  0.99227811051E+02  0.91931081059E+03  0.99245852255E+03  0.00000000000E+00 0.  1.
         -4    1    1    2    0  502  0.43419566883E+03 -0.56594958906E+02 -0.32333518036E+03  0.54431103889E+03  0.00000000000E+00 0.  1.
<scales pt_clust_5="13000.00000" pt_clust_6="13000.00000" pt_clust_7="13000.00000" pt_clust_8="13000.00000" pt_clust_9="436.88158"></scales>
<clustering>
<clus scale="   77.839">  5  6 -1 -1</clus>
<clus scale="   85.169">  1  5  2 -1</clus>
<clus scale="   91.419">  7  8 -1 -1</clus>
<clus scale="  436.882">  2  9  1 -1</clus>
<clus scale="  436.882">  2  5  1 -1</clus>
</clustering>
</event>
<event>
 9    2  0.4883225E-005  0.2599164E+03  0.7546771E-02  0.1119237E+00
         21   -1    0    0  501  502  0.00000000000E+00  0.00000000000E+00  0.57887854008E+02  0.57887854008E+02  0.00000000000E+00 0. -1.
          2   -1    0    0  502    0 -0.00000000000E+00 -0.00000000000E+00 -0.23013065743E+04  0.23013065743E+04  0.00000000000E+00 0. -1.
         24    2    1    2    0    0 -0.55755480911E+02  0.16425124962E+03 -0.47151339432E+03  0.50895407213E+03  0.81377022957E+02 0.  0.
         23    2    1    2    0    0 -0.10075980884E+03 -0.29262133379E+03 -0.92959214935E+03  0.98394513978E+03  0.90701101997E+02 0.  0.
        -11    1    3    3    0    0  0.16064306351E+01  0.58039368011E+02 -0.77324431813E+02  0.96696518105E+02  0.00000000000E+00 0.  1.
         12    1    3    3    0    0 -0.57361911547E+02  0.10621188161E+03 -0.39418896251E+03  0.41225755403E+03  0.00000000000E+00 0. -1.
        -13    1    4    4    0    0 -0.62417395752E+01 -0.36229979055E+02 -0.44998651393E+02  0.58107222635E+02  0.00000000000E+00 0.  1.
         13    1    4    4    0    0 -0.94518069260E+02 -0.25639135473E+03 -0.88459349796E+03  0.92583791715E+03  0.00000000000E+00 0. -1.
          1    1    1    2  501    0  0.15651528975E+03  0.12837008417E+03 -0.84231317666E+03  0.86629521643E+03  0.00000000000E+00 0. -1.
<scales pt_clust_5="13000.00000" pt_clust_6="13000.00000" pt_clust_7="13000.00000" pt_clust_8="13000.00000" pt_clust_9="243.57715"></scales>
<clustering>
<clus scale="   81.377">  5  6 -1 -1</clus>
<clus scale="   90.701">  7  8 -1 -1</clus>
<clus scale="  191.597">  2  5  1 -1</clus>
<clus scale="  243.577">  1  9  2 -1</clus>
<clus scale="  243.577">  1  5  2 -1</clus>
</clustering>
</event>
<event>
 9    2  0.4883225E-005  0.9734555E+02  0.7546771E-02  0.1295262E+00
          2   -1    0    0  502    0 -0.00000000000E+00  0.00000000000E+00  0.25086772872E+02  0.25086772872E+02  0.00000000000E+00 0. -1.
         21   -1    0    0  501  502  0.00000000000E+00 -0.00000000000E+00 -0.76179487044E+03  0.76179487044E+03  0.00000000000E+00 0. -1.
         23    2    1    2    0    0 -0.39102647299E+02  0.70361852527E+01 -0.13752797695E+03  0.15795907434E+03  0.66772747380E+02 0.  0.
         24    2    1    2    0    0  0.58643041654E+02 -0.59366255456E+02 -0.50962770118E+03  0.52337684861E+03  0.85085681737E+02 0.  0.
        -11    1    4    4    0    0  0.51014869956E+02  0.72105836102E+01 -0.24876122874E+03  0.25404066288E+03  0.00000000000E+00 0.  1.
         12    1    4    4    0    0  0.76281716980E+01 -0.66576839067E+02 -0.26086647244E+03  0.26933618574E+03  0.00000000000E+00 0. -1.
        -11    1    3    3    0    0 -0.15902259641E+02 -0.15973539134E+02 -0.72970115950E+01  0.23691394901E+02  0.00000000000E+00 0.  1.
         11    1    3    3    0    0 -0.23200387659E+02  0.23009724387E+02 -0.13023096535E+03  0.13426767943E+03  0.00000000000E+00 0. -1.
          1    1    1    2  501    0 -0.19540394355E+02  0.52330070204E+02 -0.89552419444E+02  0.10554572036E+03  0.00000000000E+00 0. -1.
<scales pt_clust_5="13000.00000" pt_clust_6="13000.00000" pt_clust_7="13000.00000" pt_clust_8="13000.00000" pt_clust_9="55.85934"></scales>
<clustering>
<clus scale="   55.859">  2  9  1 -1</clus>
<clus scale="   66.773">  7  8 -1 -1</clus>
<clus scale="   81.824">  1  7  2 -1</clus>
<clus scale="   85.086">  5  6 -1 -1</clus>
<clus scale="   55.859">  2  5  1 -1</clus>
</clustering>
</event>
<event>
 9    2  0.4883225E-005  0.1005503E+03  0.7546771E-02  0.1284910E+00
          2   -1    0    0  502    0 -0.00000000000E+00  0.00000000000E+00  0.78405579275E+03  0.78405579275E+03  0.00000000000E+00 0. -1.
         21   -1    0    0  501  502  0.00000000000E+00 -0.00000000000E+00 -0.60848452473E+02  0.60848452473E+02  0.00000000000E+00 0.  1.
         24    2    1    2    0    0  0.25656628200E+02 -0.25279245166E+02  0.64836168381E+03  0.65441476371E+03  0.81169619499E+02 0.  0.
         23    2    1    2    0    0 -0.62479585889E+02  0.33720619834E+02  0.92390673759E+02  0.14883597444E+03  0.92603087609E+02 0.  0.
        -11    1    3    3    0    0 -0.27441574864E+02 -0.18096582041E+02  0.17787672769E+03  0.18088851972E+03  0.00000000000E+00 0.  1.
         12    1    3    3    0    0  0.53098203063E+02 -0.71826631249E+01  0.47048495612E+03  0.47352624399E+03  0.00000000000E+00 0. -1.
        -11    1    4    4    0    0 -0.84930599714E+02  0.33183767329E+02  0.59037407475E+02  0.10862681374E+03  0.00000000000E+00 0.  1.
         11    1    4    4    0    0  0.22451013825E+02  0.53685250511E+00  0.33353266283E+02  0.40209160699E+02  0.00000000000E+00 0. -1.
          1    1    1    2  501    0  0.36822957689E+02 -0.84413746684E+01 -0.17545017293E+02  0.41653507068E+02  0.00000000000E+00 0. -1.
<scales pt_clust_5="13000.00000" pt_clust_6="13000.00000" pt_clust_7="13000.00000" pt_clust_8="13000.00000" pt_clust_9="37.77813"></scales>
<clustering>
<clus scale="   37.778">  2  9  1 -1</clus>
<clus scale="   81.170">  5  6 -1 -1</clus>
<clus scale="   90.131">  1  5  2 -1</clus>
<clus scale="   92.603">  7  8 -1 -1</clus>
<clus scale="   37.778">  2  5  1 -1</clus>
</clustering>
</event>
<event>
 9    2  0.4883225E-005  0.1522084E+03  0.7546771E-02  0.1216240E+00
          2   -1    0    0  502    0 -0.00000000000E+00  0.00000000000E+00  0.83456053651E+03  0.83456053651E+03  0.00000000000E+00 0. -1.
         21   -1    0    0  501  502  0.00000000000E+00 -0.00000000000E+00 -0.51152045302E+02  0.51152045302E+02  0.00000000000E+00 0. -1.
         24    2    1    2    0    0 -0.59973570058E+02  0.15711320822E+02  0.89154672467E+02  0.13579336476E+03  0.81532861973E+02 0.  0.
         23    2    1    2    0    0 -0.83569453951E+02  0.24469027801E+02  0.41685442147E+03  0.43500734722E+03  0.88776103106E+02 0.  0.
        -11    1    3    3    0    0 -0.28044149389E+02  0.87062587094E+00  0.95920058085E+02  0.99939430894E+02  0.00000000000E+00 0.  1.
         12    1    3    3    0    0 -0.31929420668E+02  0.14840694951E+02 -0.67653856172E+01  0.35853933862E+02  0.00000000000E+00 0. -1.
        -11    1    4    4    0    0 -0.65807545360E+02 -0.20758356596E+01  0.38239835525E+03  0.38802505617E+03  0.00000000000E+00 0. -1.
         11    1    4    4    0    0 -0.17761908591E+02  0.26544863460E+02  0.34456066222E+02  0.46982291051E+02  0.00000000000E+00 0.  1.
          1    1    1    2  501    0  0.14354302401E+03 -0.40180348622E+02  0.27739939728E+03  0.31491186984E+03  0.00000000000E+00 0. -1.
<scales pt_clust_5="13000.00000" pt_clust_6="13000.00000" pt_clust_7="13000.00000" pt_clust_8="13000.00000" pt_clust_9="123.63735"></scales>
<clustering>
<clus scale="   81.533">  5  6 -1 -1</clus>
<clus scale="   88.776">  7  8 -1 -1</clus>
<clus scale="  102.427">  1  5  2 -1</clus>
<clus scale="  123.637">  2  9  1 -1</clus>
<clus scale="  123.637">  2  5  1 -1</clus>
</clustering>
</event>
<event>
 9    2  0.4883225E-005  0.9299502E+02  0.7546771E-02  0.1301030E+00
         21   -1    0    0  501  502  0.00000000000E+00  0.00000000000E+00  0.21821872906E+03  0.21821872906E+03  0.00000000000E+00 0. -1.
         -1   -1    0    0    0  501 -0.00000000000E+00 -0.00000000000E+00 -0.15583806644E+03  0.15583806644E+03  0.00000000000E+00 0.  1.
         24    2    1    2    0    0  0.29742533781E+02 -0.22991316698E+02 -0.11714831814E+03  0.14541083661E+03  0.77507186774E+02 0.  0.
         23    2    1    2    0    0  0.53048093155E+01  0.15898888421E+02  0.68078799448E+02  0.11159997770E+03  0.86826933808E+02 0.  0.
        -13    1    3    3    0    0  0.53832548755E+02 -0.20883750152E+02 -0.10097551154E+03  0.11631907951E+03  0.00000000000E+00 0.  1.
         14    1    3    3    0    0 -0.24090014974E+02 -0.21075665450E+01 -0.16172806596E+02  0.29091757103E+02  0.00000000000E+00 0. -1.
        -11    1    4    4    0    0 -0.37301566776E+02 -0.63635724472E+01  0.17082675710E+02  0.41517704027E+02  0.00000000000E+00 0.  1.
         11    1    4    4    0    0  0.42606376092E+02  0.22262460868E+02  0.50996123738E+02  0.70082273678E+02  0.00000000000E+00 0. -1.
         -2    1    1    2    0  502 -0.35047343096E+02  0.70924282766E+01  0.11145018131E+03  0.11704598118E+03  0.00000000000E+00 0.  1.
<scales pt_clust_5="13000.00000" pt_clust_6="13000.00000" pt_clust_7="13000.00000" pt_clust_8="13000.00000" pt_clust_9="35.75778"></scales>
<clustering>
<clus scale="   35.758">  1  9  2 -1</clus>
<clus scale="   77.507">  5  6 -1 -1</clus>
<clus scale="   84.359">  2  5  1 -1</clus>
<clus scale="   86.827">  7  8 -1 -1</clus>
<clus scale="   35.758">  1  5  2 -1</clus>
</clustering>
</event>
<event>
 9    2  0.4883225E-005  0.9380904E+02  0.7546771E-02  0.1303180E+00
          2   -1    0    0  502    0 -0.00000000000E+00  0.00000000000E+00  0.63151515055E+03  0.63151515055E+03  0.00000000000E+00 0. -1.
         21   -1    0    0  501  502  0.00000000000E+00 -0.00000000000E+00 -0.58071212082E+02  0.58071212082E+02  0.00000000000E+00 0. -1.
         24    2    1    2    0    0 -0.58609532890E+01  0.34814821723E+00  0.55051902564E+03  0.55616636944E+03  0.78837560318E+02 0.  0.
         23    2    1    2    0    0 -0.84229363316E+01 -0.18432690463E+02  0.40890460106E+02  0.10419943433E+03  0.93673808792E+02 0.  0.
        -11    1    3    3    0    0 -0.22151615716E+01 -0.32830023853E+02  0.12232140586E+03  0.12666982173E+03  0.00000000000E+00 0.  1.
         12    1    3    3    0    0 -0.36457917174E+01  0.33178172071E+02  0.42819761978E+03  0.42949654770E+03  0.00000000000E+00 0. -1.
        -13    1    4    4    0    0 -0.20839810588E+02  0.57574148563E+01  0.64600860996E+02  0.68122806553E+02  0.00000000000E+00 0. -1.
         13    1    4    4    0    0  0.12416874256E+02 -0.24190105319E+02 -0.23710400891E+02  0.36076627781E+02  0.00000000000E+00 0.  1.
          1    1    1    2  501    0  0.14283889621E+02  0.18084542245E+02 -0.17965547283E+02  0.29220558860E+02  0.00000000000E+00 0. -1.
<scales pt_clust_5="13000.00000" pt_clust_6="13000.00000" pt_clust_7="13000.00000" pt_clust_8="13000.00000" pt_clust_9="23.04518"></scales>
<clustering>
<clus scale="   23.045">  2  9  1 -1</clus>
<clus scale="   78.838">  5  6 -1 -1</clus>
<clus scale="   78.998">  1  5  2 -1</clus>
<clus scale="   93.674">  7  8 -1 -1</clus>
<clus scale="   23.045">  2  5  1 -1</clus>
</clustering>
</event>
<event>
 9    2  0.4883225E-005  0.1918883E+03  0.7546771E-02  0.1189306E+00
          2   -1    0    0  502    0 -0.00000000000E+00  0.00000000000E+00  0.95061348692E+03  0.95061348692E+03  0.00000000000E+00 0. -1.
         21   -1    0    0  501  502  0.00000000000E+00 -0.00000000000E+00 -0.97870159435E+02  0.97870159435E+02  0.00000000000E+00 0.  1.
         24    2    1    2    0    0  0.15696917683E+02  0.46166608003E+02  0.14132947321E+03  0.16836999070E+03  0.77438264767E+02 0.  0.
         23    2    1    2    0    0 -0.38922911982E+02 -0.17239088955E+03  0.48015314706E+02  0.20441428585E+03  0.90808138052E+02 0.  0.
        -13    1    3    3    0    0 -0.22257038362E+02  0.37835618056E+02  0.38299376687E+02  0.58255918197E+02  0.00000000000E+00 0.  1.
         14    1    3    3    0    0  0.37953956045E+02  0.83309899465E+01  0.10303009652E+03  0.11011407250E+03  0.00000000000E+00 0. -1.
        -13    1    4    4    0    0  0.27099717373E+02 -0.36487718039E+02 -0.13270309750E+01  0.45469872010E+02  0.00000000000E+00 0.  1.
         13    1    4    4    0    0 -0.66022629356E+02 -0.13590317151E+03  0.49342345681E+02  0.15894441384E+03  0.00000000000E+00 0. -1.
          1    1    1    2  501    0  0.23225994300E+02  0.12622428154E+03  0.66339853957E+03  0.67569936982E+03  0.00000000000E+00 0. -1.
<scales pt_clust_5="13000.00000" pt_clust_6="13000.00000" pt_clust_7="13000.00000" pt_clust_8="13000.00000" pt_clust_9="169.04145"></scales>
<clustering>
<clus scale="   77.438">  5  6 -1 -1</clus>
<clus scale="   90.808">  7  8 -1 -1</clus>
<clus scale="   91.512">  1  5  2 -1</clus>
<clus scale="  169.041">  2  9  1 -1</clus>
<clus scale="  169.041">  2  5  1 -1</clus>
</clustering>
</event>
<event>
 9    2  0.4883225E-005  0.1318376E+03  0.7546771E-02  0.1234116E+00
          2   -1    0    0  502    0 -0.00000000000E+00  0.00000000000E+00  0.78869155821E+03  0.78869155821E+03  0.00000000000E+00 0. -1.
         21   -1    0    0  501  502  0.00000000000E+00 -0.00000000000E+00 -0.94690815100E+02  0.94690815100E+02  0.00000000000E+00 0.  1.
         24    2    1    2    0    0  0.37932978063E+02  0.61570763704E+02  0.67862216013E+02  0.12809702073E+03  0.81078336126E+02 0.  0.
         23    2    1    2    0    0 -0.41723082723E+02  0.81847564269E+02  0.17493806802E+02  0.12996017539E+03  0.90242863993E+02 0.  0.
        -11    1    3    3    0    0  0.57291966573E+02  0.64885967715E+02  0.43718912838E+02  0.96973715923E+02  0.00000000000E+00 0.  1.
         12    1    3    3    0    0 -0.19358988509E+02 -0.33152040108E+01  0.24143303174E+02  0.31123304804E+02  0.00000000000E+00 0. -1.
        -13    1    4    4    0    0 -0.62160816671E+02  0.86554447986E+02  0.77781545672E+01  0.10684633491E+03  0.00000000000E+00 0.  1.
         13    1    4    4    0    0  0.20437733948E+02 -0.47068837170E+01  0.97156522346E+01  0.23113840477E+02  0.00000000000E+00 0. -1.
          1    1    1    2  501    0  0.37901046591E+01 -0.14341832797E+03  0.60864472029E+03  0.62532517719E+03  0.00000000000E+00 0. -1.
<scales pt_clust_5="13000.00000" pt_clust_6="13000.00000" pt_clust_7="13000.00000" pt_clust_8="13000.00000" pt_clust_9="96.11131"></scales>
<clustering>
<clus scale="   81.078">  5  6 -1 -1</clus>
<clus scale="   90.243">  7  8 -1 -1</clus>
<clus scale="  108.644">  1  5  2 -1</clus>
<clus scale="   96.111">  2  9  1 -1</clus>
<clus scale="   96.111">  2  5  1 -1</clus>
</clustering>
</event>
<event>
 9    2  0.4883225E-005  0.2149285E+03  0.7546771E-02  0.1139049E+00
         -1   -1    0    0    0  501 -0.00000000000E+00  0.00000000000E+00  0.12380680708E+04  0.12380680708E+04  0.00000000000E+00 0.  1.
         21   -1    0    0  501  502  0.00000000000E+00 -0.00000000000E+00 -0.99339509990E+02  0.99339509990E+02  0.00000000000E+00 0.  1.
         24    2    1    2    0    0 -0.16463285228E+03  0.13325350106E+03  0.89915343582E+03  0.92712183907E+03  0.78851326789E+02 0.  0.
         23    2    1    2    0    0  0.32967307073E+02 -0.16301394341E+03  0.17917597783E+03  0.26240215000E+03  0.95343946908E+02 0.  0.
        -11    1    3    3    0    0 -0.16681205439E+03  0.11834525942E+03  0.87553446546E+03  0.89910647986E+03  0.00000000000E+00 0.  1.
         12    1    3    3    0    0  0.21792021074E+01  0.14908241647E+02  0.23618970361E+02  0.28015359211E+02  0.00000000000E+00 0. -1.
        -11    1    4    4    0    0 -0.18497570856E+02 -0.11369203313E+03  0.13918717719E+03  0.18066850533E+03  0.00000000000E+00 0.  1.
         11    1    4    4    0    0  0.51464877930E+02 -0.49321910289E+02  0.39988800633E+02  0.81733644670E+02  0.00000000000E+00 0. -1.
         -2    1    1    2    0  502  0.13166554521E+03  0.29760442351E+02  0.60399147179E+02  0.14788359173E+03  0.00000000000E+00 0.  1.
<scales pt_clust_5="13000.00000" pt_clust_6="13000.00000" pt_clust_7="13000.00000" pt_clust_8="13000.00000" pt_clust_9="134.98704"></scales>
<clustering>
<clus scale="   78.851">  5  6 -1 -1</clus>
<clus scale="   95.344">  7  8 -1 -1</clus>
<clus scale="  134.987">  2  9  1 -1</clus>
<clus scale="  208.138">  1  5  2 -1</clus>
<clus scale="  134.987">  2  5  1 -1</clus>
</clustering>
</event>
<event>
 9    2  0.4883225E-005  0.2095679E+03  0.7546771E-02  0.1173340E+00
         21   -1    0    0  501  502  0.00000000000E+00  0.00000000000E+00  0.10717163826E+03  0.10717163826E+03  0.00000000000E+00 0. -1.
          2   -1    0    0  502    0 -0.00000000000E+00 -0.00000000000E+00 -0.10203909314E+04  0.10203909314E+04  0.00000000000E+00 0. -1.
         24    2    1    2    0    0 -0.60099650168E+01  0.60893941329E+02 -0.58795426806E+03  0.59648165705E+03  0.79724237817E+02 0.  0.
         23    2    1    2    0    0 -0.66931225708E+01  0.14904471167E+03 -0.25636271552E+03  0.30975957444E+03  0.89275013769E+02 0.  0.
        -11    1    3    3    0    0 -0.20068368467E+02 -0.12787041791E+02 -0.99783943880E+02  0.10258208083E+03  0.00000000000E+00 0.  1.
         12    1    3    3    0    0  0.14058403451E+02  0.73680983120E+02 -0.48817032418E+03  0.49389957622E+03  0.00000000000E+00 0. -1.
        -11    1    4    4    0    0 -0.39765461206E+02  0.12756883155E+03 -0.20984265333E+03  0.24877507481E+03  0.00000000000E+00 0.  1.
         11    1    4    4    0    0  0.33072338635E+02  0.21475880115E+02 -0.46520062190E+02  0.60984499635E+02  0.00000000000E+00 0. -1.
          1    1    1    2  501    0  0.12703087588E+02 -0.20993865300E+03 -0.68902309515E+02  0.22132133813E+03  0.00000000000E+00 0. -1.
<scales pt_clust_5="13000.00000" pt_clust_6="13000.00000" pt_clust_7="13000.00000" pt_clust_8="13000.00000" pt_clust_9="189.60139"></scales>
<clustering>
<clus scale="   79.724">  5  6 -1 -1</clus>
<clus scale="   89.275">  7  8 -1 -1</clus>
<clus scale="  100.499">  2  5  1 -1</clus>
<clus scale="  189.601">  1  9  2 -1</clus>
<clus scale="  189.601">  1  5  2 -1</clus>
</clustering>
</event>
<event>
 9    2  0.4883225E-005  0.2518495E+03  0.7546771E-02  0.1138880E+00
          2   -1    0    0  502    0 -0.00000000000E+00  0.00000000000E+00  0.43503963518E+03  0.43503963518E+03  0.00000000000E+00 0. -1.
         21   -1    0    0  501  502  0.00000000000E+00 -0.00000000000E+00 -0.26845502315E+03  0.26845502315E+03  0.00000000000E+00 0. -1.
         23    2    1    2    0    0 -0.85028743188E+02 -0.38274375478E+02  0.96551792807E+02  0.16184593015E+03  0.90426995008E+02 0.  0.
         24    2    1    2    0    0 -0.82378312589E+02  0.22008162760E+03  0.14070951084E+03  0.28459971732E+03  0.77302803752E+02 0.  0.
        -13    1    4    4    0    0 -0.84720934635E+02  0.13127498724E+03  0.10799197467E+03  0.18992900156E+03  0.00000000000E+00 0.  1.
         14    1    4    4    0    0  0.23426220461E+01  0.88806640359E+02  0.32717536163E+02  0.94670715759E+02  0.00000000000E+00 0. -1.
        -11    1    3    3    0    0  0.60899701288E+01 -0.35385322250E+02  0.13002580411E+02  0.38187378337E+02  0.00000000000E+00 0.  1.
         11    1    3    3    0    0 -0.91118713317E+02 -0.28890532280E+01  0.83549212396E+02  0.12365855182E+03  0.00000000000E+00 0. -1.
          1    1    1    2  501    0  0.16740705578E+03 -0.18180725212E+03 -0.70676691613E+02  0.25704901086E+03  0.00000000000E+00 0. -1.
<scales pt_clust_5="13000.00000" pt_clust_6="13000.00000" pt_clust_7="13000.00000" pt_clust_8="13000.00000" pt_clust_9="239.69240"></scales>
<clustering>
<clus scale="   77.303">  5  6 -1 -1</clus>
<clus scale="   90.427">  7  8 -1 -1</clus>
<clus scale="  129.892">  1  7  2 -1</clus>
<clus scale="  239.692">  2  9  1 -1</clus>
<clus scale="  239.692">  2  5  1 -1</clus>
</clustering>
</event>
<event>
 9    2  0.4883225E-005  0.1135432E+03  0.7546771E-02  0.1267132E+00
         21   -1    0    0  501  502  0.00000000000E+00  0.00000000000E+00  0.62656995254E+02  0.62656995254E+02  0.00000000000E+00 0.  1.
          2   -1    0    0  502    0 -0.00000000000E+00 -0.00000000000E+00 -0.57982507699E+03  0.57982507699E+03  0.00000000000E+00 0. -1.
         24    2    1    2    0    0  0.12801624684E+02 -0.38081192437E+02 -0.30956308963E+03  0.32182494671E+03  0.78281102783E+02 0.  0.
         23    2    1    2    0    0 -0.61160627864E+01 -0.56614300151E+02 -0.19883015260E+02  0.11029678315E+03  0.92344251974E+02 0.  0.
        -13    1    3    3    0    0 -0.31026443457E+02 -0.33561622735E+01 -0.90151885285E+02  0.95400557855E+02  0.00000000000E+00 0.  1.
         14    1    3    3    0    0  0.43828068140E+02 -0.34725030163E+02 -0.21941120435E+03  0.22642438886E+03  0.00000000000E+00 0. -1.
        -13    1    4    4    0    0  0.21612772420E+02 -0.58888774754E+02  0.16147655560E+02  0.64774582236E+02  0.00000000000E+00 0.  1.
         13    1    4    4    0    0 -0.27728835206E+02  0.22744746035E+01 -0.36030670820E+02  0.45522200917E+02  0.00000000000E+00 0. -1.
          1    1    1    2  501    0 -0.66855618974E+01  0.94695492587E+02 -0.18772197684E+03  0.21036034237E+03  0.00000000000E+00 0. -1.
<scales pt_clust_5="13000.00000" pt_clust_6="13000.00000" pt_clust_7="13000.00000" pt_clust_8="13000.00000" pt_clust_9="66.06510"></scales>
<clustering>
<clus scale="   78.281">  5  6 -1 -1</clus>
<clus scale="   87.989">  2  5  1 -1</clus>
<clus scale="   66.065">  1  9  2 -1</clus>
<clus scale="   92.344">  7  8 -1 -1</clus>
<clus scale="   66.065">  1  5  2 -1</clus>
</clustering>
</event>
<event>
 9    2  0.4883225E-005  0.1616160E+03  0.7546771E-02  0.1188515E+00
         21   -1    0    0  501  502  0.00000000000E+00  0.00000000000E+00  0.93610674502E+03  0.93610674502E+03  0.00000000000E+00 0. -1.
          4   -1    0    0  502    0 -0.00000000000E+00 -0.00000000000E+00 -0.46570294842E+02  0.46570294842E+02  0.00000000000E+00 0. -1.
         24    2    1    2    0    0 -0.36564120017E+02  0.13284290232E+03  0.31582732022E+03  0.35328786516E+03  0.77982356359E+02 0.  0.
         23    2    1    2    0    0  0.74563427316E+02 -0.11192462019E+03  0.56170384234E+03  0.58438196624E+03  0.88905852826E+02 0.  0.
        -13    1    3    3    0    0 -0.32676001950E+02  0.34555528779E+02  0.46306362476E+02  0.66378346457E+02  0.00000000000E+00 0.  1.
         14    1    3    3    0    0 -0.38881180670E+01  0.98287373539E+02  0.26952095775E+03  0.28690951871E+03  0.00000000000E+00 0. -1.
        -13    1    4    4    0    0  0.58357224213E+02 -0.14998429555E+02  0.16405449087E+03  0.17476954678E+03  0.00000000000E+00 0.  1.
         13    1    4    4    0    0  0.16206203104E+02 -0.96926190631E+02  0.39764935147E+03  0.40961241946E+03  0.00000000000E+00 0. -1.
          3    1    1    2  501    0 -0.37999307300E+02 -0.20918282132E+02  0.12005287612E+02  0.45007208459E+02  0.00000000000E+00 0. -1.
<scales pt_clust_5="13000.00000" pt_clust_6="13000.00000" pt_clust_7="13000.00000" pt_clust_8="13000.00000" pt_clust_9="43.37653"></scales>
<clustering>
<clus scale="   43.377">  1  9  2 -1</clus>
<clus scale="   77.982">  5  6 -1 -1</clus>
<clus scale="   88.906">  7  8 -1 -1</clus>
<clus scale="  155.874">  2  5  1 -1</clus>
<clus scale="   43.377">  1  5  2 -1</clus>
</clustering>
</event>
<event>
 9    2  0.4883225E-005  0.2893601E+03  0.7546771E-02  0.1090684E+00
         21   -1    0    0  501  502  0.00000000000E+00  0.00000000000E+00  0.79902257313E+02  0.79902257313E+02  0.00000000000E+00 0. -1.
          2   -1    0    0  502    0 -0.00000000000E+00 -0.00000000000E+00 -0.78365411939E+03  0.78365411939E+03  0.00000000000E+00 0. -1.
         24    2    1    2    0    0 -0.14002218307E+02 -0.13395756803E+03 -0.36380446233E+03  0.39639928520E+03  0.81474010250E+02 0.  0.
         23    2    1    2    0    0  0.13633469624E+02 -0.70089626771E+02 -0.11839654705E+03  0.16595919309E+03  0.91794793653E+02 0.  0.
        -13    1    3    3    0    0 -0.33513066741E+02 -0.16076736717E+02 -0.10380137739E+03  0.11025567130E+03  0.00000000000E+00 0.  1.
         14    1    3    3    0    0  0.19510848434E+02 -0.11788083131E+03 -0.26000308494E+03  0.28614361390E+03  0.00000000000E+00 0. -1.
        -13    1    4    4    0    0  0.53149010626E+02 -0.37067807343E+02 -0.66224285357E+02  0.92652553352E+02  0.00000000000E+00 0.  1.
         13    1    4    4    0    0 -0.39515541002E+02 -0.33021819428E+02 -0.52172261697E+02  0.73306639737E+02  0.00000000000E+00 0. -1.
          1    1    1    2  501    0  0.36874868245E+00  0.20404719480E+03 -0.22155085269E+03  0.30119789841E+03  0.00000000000E+00 0. -1.
<scales pt_clust_5="13000.00000" pt_clust_6="13000.00000" pt_clust_7="13000.00000" pt_clust_8="13000.00000" pt_clust_9="204.04753"></scales>
<clustering>
<clus scale="   81.474">  5  6 -1 -1</clus>
<clus scale="   91.795">  7  8 -1 -1</clus>
<clus scale="  115.164">  5  7 -1 -1</clus>
<clus scale="  204.048">  1  9  2 -1</clus>
<clus scale="  204.048">  1  5  2 -1</clus>
</clustering>
</event>
<event>
 9    2  0.4883225E-005  0.9280253E+02  0.7546771E-02  0.1302237E+00
         21   -1    0    0  501  502  0.00000000000E+00  0.00000000000E+00  0.54704246040E+02  0.54704246040E+02  0.00000000000E+00 0. -1.
          2   -1    0    0  502    0 -0.00000000000E+00 -0.00000000000E+00 -0.40331314882E+03  0.40331314882E+03  0.00000000000E+00 0. -1.
         24    2    1    2    0    0  0.94522970526E+01 -0.39655355581E+02 -0.18919734647E+03  0.21019620649E+03  0.82005586205E+02 0.  0.
         23    2    1    2    0    0  0.21398726258E+02 -0.39591423279E+02 -0.10636531578E+03  0.14759274314E+03  0.91894782999E+02 0.  0.
        -11    1    3    3    0    0  0.15778079446E+02  0.19354099201E+02 -0.23888853677E+02  0.34557289779E+02  0.00000000000E+00 0.  1.
         12    1    3    3    0    0 -0.63257823934E+01 -0.59009454782E+02 -0.16530849279E+03  0.17563891671E+03  0.00000000000E+00 0. -1.
        -13    1    4    4    0    0 -0.29595932675E+02  0.79972097840E+01 -0.20110807621E+02  0.36664958454E+02  0.00000000000E+00 0.  1.
         13    1    4    4    0    0  0.50994658933E+02 -0.47588633063E+02 -0.86254508163E+02  0.11092778468E+03  0.00000000000E+00 0. -1.
          1    1    1    2  501    0 -0.30851023311E+02  0.79246778860E+02 -0.53046240533E+02  0.10022844523E+03  0.00000000000E+00 0. -1.
<scales pt_clust_5="13000.00000" pt_clust_6="13000.00000" pt_clust_7="13000.00000" pt_clust_8="13000.00000" pt_clust_9="85.04021"></scales>
<clustering>
<clus scale="   82.006">  5  6 -1 -1</clus>
<clus scale="   85.040">  1  9  2 -1</clus>
<clus scale="   83.022">  2  5  1 -1</clus>
<clus scale="   91.895">  7  8 -1 -1</clus>
<clus scale="   85.040">  1  5  2 -1</clus>
</clustering>
</event>
<event>
 9    2  0.4883225E-005  0.9632160E+02  0.7546771E-02  0.1293397E+00
         21   -1    0    0  501  502  0.00000000000E+00  0.00000000000E+00  0.49085379685E+02  0.49085379685E+02  0.00000000000E+00 0.  1.
          2   -1    0    0  502    0 -0.00000000000E+00 -0.00000000000E+00 -0.46193724842E+03  0.46193724842E+03  0.00000000000E+00 0. -1.
         24    2    1    2    0    0  0.27675055628E+02 -0.20385567329E+02 -0.37674001833E+03  0.38695376554E+03  0.81355363654E+02 0.  0.
         23    2    1    2    0    0 -0.20020268581E+02 -0.24227497455E+01 -0.20157667607E+02  0.95201042398E+02  0.90830754924E+02 0.  0.
        -11    1    3    3    0    0  0.60423436610E+00 -0.33817359172E+02 -0.60823009831E+02  0.69594665065E+02  0.00000000000E+00 0.  1.
         12    1    3    3    0    0  0.27070821262E+02  0.13431791843E+02 -0.31591700850E+03  0.31735910048E+03  0.00000000000E+00 0. -1.
        -13    1    4    4    0    0  0.35816866962E+02  0.64946369726E+01 -0.57793034131E+01  0.36856866610E+02  0.00000000000E+00 0. -1.
         13    1    4    4    0    0 -0.55837135543E+02 -0.89173867182E+01 -0.14378364194E+02  0.58344175788E+02  0.00000000000E+00 0.  1.
          1    1    1    2  501    0 -0.76547870470E+01  0.22808317075E+02 -0.15954182802E+02  0.28867820171E+02  0.00000000000E+00 0. -1.
<scales pt_clust_5="13000.00000" pt_clust_6="13000.00000" pt_clust_7="13000.00000" pt_clust_8="13000.00000" pt_clust_9="24.05858"></scales>
<clustering>
<clus scale="   24.059">  1  9  2 -1</clus>
<clus scale="   81.355">  5  6 -1 -1</clus>
<clus scale="   87.443">  2  5  1 -1</clus>
<clus scale="   90.831">  7  8 -1 -1</clus>
<clus scale="   24.059">  1  5  2 -1</clus>
</clustering>
</event>
<event>
 9    2  0.4883225E-005  0.1374896E+03  0.7546771E-02  0.1218868E+00
          4   -1    0    0  502    0 -0.00000000000E+00  0.00000000000E+00  0.11635255711E+03  0.11635255711E+03  0.00000000000E+00 0. -1.
         21   -1    0    0  501  502  0.00000000000E+00 -0.00000000000E+00 -0.20792152604E+03  0.20792152604E+03  0.00000000000E+00 0. -1.
         24    2    1    2    0    0 -0.60436392581E+02  0.92846061213E+02  0.92504756598E+01  0.13705293773E+03  0.80156021660E+02 0.  0.
         23    2    1    2    0    0  0.47899499946E+02 -0.76487047862E+02 -0.10641753250E+03  0.16586395499E+03  0.89674576978E+02 0.  0.
        -11    1    3    3    0    0  0.96247843860E+01  0.22946344085E+02  0.26768016164E+02  0.36547200587E+02  0.00000000000E+00 0.  1.
         12    1    3    3    0    0 -0.70061176967E+02  0.69899717128E+02 -0.17517540505E+02  0.10050573714E+03  0.00000000000E+00 0. -1.
        -11    1    4    4    0    0 -0.40952159919E+01 -0.31929287855E+02  0.74051066917E+01  0.33031588246E+02  0.00000000000E+00 0.  1.
         11    1    4    4    0    0  0.51994715938E+02 -0.44557760007E+02 -0.11382263920E+03  0.13283236675E+03  0.00000000000E+00 0. -1.
          3    1    1    2  501    0  0.12536892634E+02 -0.16359013351E+02  0.55980879209E+01  0.21357190431E+02  0.00000000000E+00 0. -1.
<scales pt_clust_5="13000.00000" pt_clust_6="13000.00000" pt_clust_7="13000.00000" pt_clust_8="13000.00000" pt_clust_9="20.61047"></scales>
<clustering>
<clus scale="   20.610">  2  9  1 -1</clus>
<clus scale="   80.156">  5  6 -1 -1</clus>
<clus scale="   89.675">  7  8 -1 -1</clus>
<clus scale="  131.479">  1  5  2 -1</clus>
<clus scale="   20.610">  2  5  1 -1</clus>
</clustering>
</event>
<event>
 9    2  0.4883225E-005  0.1345770E+03  0.7546771E-02  0.1234299E+00
         21   -1    0    0  501  502  0.00000000000E+00  0.00000000000E+00  0.15893039654E+03  0.15893039654E+03  0.00000000000E+00 0. -1.
          2   -1    0    0  502    0 -0.00000000000E+00 -0.00000000000E+00 -0.15463993273E+03  0.15463993273E+03  0.00000000000E+00 0. -1.
         23    2    1    2    0    0 -0.48286792071E+02 -0.14304284002E+02 -0.29246760205E+02  0.13267001200E+03  0.11920458159E+03 0.  0.
         24    2    1    2    0    0  0.76933055140E+02 -0.31611334085E+02 -0.28728909310E+01  0.11567341452E+03  0.80337500010E+02 0.  0.
        -13    1    4    4    0    0  0.21590091620E+02  0.25492114143E+02 -0.12292402142E+02  0.35596110603E+02  0.00000000000E+00 0.  1.
         14    1    4    4    0    0  0.55342963520E+02 -0.57103448228E+02  0.94195112106E+01  0.80077303914E+02  0.00000000000E+00 0. -1.
        -11    1    3    3    0    0 -0.48975759187E+02 -0.54256950391E+02 -0.49098619682E+02  0.88051780836E+02  0.00000000000E+00 0.  1.
         11    1    3    3    0    0  0.68896711588E+00  0.39952666390E+02  0.19851859478E+02  0.44618231162E+02  0.00000000000E+00 0. -1.
          1    1    1    2  501    0 -0.28646263069E+02  0.45915618087E+02  0.36410114947E+02  0.65226902752E+02  0.00000000000E+00 0. -1.
<scales pt_clust_5="13000.00000" pt_clust_6="13000.00000" pt_clust_7="13000.00000" pt_clust_8="13000.00000" pt_clust_9="54.11887"></scales>
<clustering>
<clus scale="   54.119">  1  9  2 -1</clus>
<clus scale="   80.338">  5  6 -1 -1</clus>
<clus scale="  101.761">  1  5  2 -1</clus>
<clus scale="  119.205">  7  8 -1 -1</clus>
<clus scale="   54.119">  1  5  2 -1</clus>
</clustering>
</event>
<event>
 9    2  0.4883225E-005  0.4533774E+03  0.7546771E-02  0.1075246E+00
          2   -1    0    0  502    0 -0.00000000000E+00  0.00000000000E+00  0.19899538768E+04  0.19899538768E+04  0.00000000000E+00 0. -1.
         21   -1    0    0  501  502  0.00000000000E+00 -0.00000000000E+00 -0.22644921588E+03  0.22644921588E+03  0.00000000000E+00 0. -1.
         23    2    1    2    0    0  0.31344137526E+02 -0.57389155351E+02 -0.54025191600E+02  0.12593521943E+03  0.93085917603E+02 0.  0.
         24    2    1    2    0    0 -0.22637425766E+02  0.46124840043E+03  0.39812132027E+03  0.61469733619E+03  0.78036462768E+02 0.  0.
        -13    1    4    4    0    0  0.23682288104E+02  0.20451956890E+03  0.15063612359E+03  0.25510849960E+03  0.00000000000E+00 0.  1.
         14    1    4    4    0    0 -0.46319713870E+02  0.25672883153E+03  0.24748519667E+03  0.35958883659E+03  0.00000000000E+00 0. -1.
        -11    1    3    3    0    0 -0.19520354085E+02  0.82161953965E+01 -0.34778412901E+02  0.40719627875E+02  0.00000000000E+00 0.  1.
         11    1    3    3    0    0  0.50864491611E+02 -0.65605350748E+02 -0.19246778699E+02  0.85215591554E+02  0.00000000000E+00 0. -1.
          1    1    1    2  501    0 -0.87067117600E+01 -0.40385924508E+03  0.14194085323E+04  0.14757705371E+04  0.00000000000E+00 0. -1.
<scales pt_clust_5="13000.00000" pt_clust_6="13000.00000" pt_clust_7="13000.00000" pt_clust_8="13000.00000" pt_clust_9="446.61123"></scales>
<clustering>
<clus scale="   78.036">  5  6 -1 -1</clus>
<clus scale="   93.086">  7  8 -1 -1</clus>
<clus scale="  113.758">  1  7  2 -1</clus>
<clus scale="  446.611">  2  9  1 -1</clus>
<clus scale="  446.611">  2  5  1 -1</clus>
</clustering>
</event>
<event>
 9    2  0.4883225E-005  0.9706474E+02  0.7546771E-02  0.1290140E+00
         21   -1    0    0  501  502  0.00000000000E+00  0.00000000000E+00  0.15615126273E+02  0.15615126273E+02  0.00000000000E+00 0.  1.
          2   -1    0    0  502    0 -0.00000000000E+00 -0.00000000000E+00 -0.13256031560E+04  0.13256031560E+04  0.00000000000E+00 0. -1.
         24    2    1    2    0    0 -0.25548722243E+02  0.23196986565E+02 -0.10154508811E+04  0.10194912475E+04  0.83851502048E+02 0.  0.
         23    2    1    2    0    0  0.39853405523E+02 -0.84615417457E+01 -0.27846062534E+03  0.29564616251E+03  0.90589413962E+02 0.  0.
        -11    1    3    3    0    0  0.25972804917E+02  0.34419772121E+00 -0.15205585035E+03  0.15425850606E+03  0.00000000000E+00 0.  1.
         12    1    3    3    0    0 -0.51521527160E+02  0.22852788844E+02 -0.86339503071E+03  0.86523274139E+03  0.00000000000E+00 0. -1.
        -13    1    4    4    0    0  0.15024046334E+02 -0.48146390262E+02 -0.17428440083E+03  0.18143552364E+03  0.00000000000E+00 0. -1.
         13    1    4    4    0    0  0.24829359189E+02  0.39684848516E+02 -0.10417622450E+03  0.11421063887E+03  0.00000000000E+00 0.  1.
          1    1    1    2  501    0 -0.14304683281E+02 -0.14735444819E+02 -0.16076523309E+02  0.26080872292E+02  0.00000000000E+00 0. -1.
<scales pt_clust_5="13000.00000" pt_clust_6="13000.00000" pt_clust_7="13000.00000" pt_clust_8="13000.00000" pt_clust_9="20.53673"></scales>
<clustering>
<clus scale="   20.537">  1  9  2 -1</clus>
<clus scale="   83.852">  5  6 -1 -1</clus>
<clus scale="   90.589">  7  8 -1 -1</clus>
<clus scale="   90.809">  2  5  1 -1</clus>
<clus scale="   20.537">  1  5  2 -1</clus>
</clustering>
</event>
<event>
 9    2  0.4883225E-005  0.1245639E+03  0.7546771E-02  0.1259173E+00
         21   -1    0    0  501  502  0.00000000000E+00  0.00000000000E+00  0.66449991105E+02  0.66449991105E+02  0.00000000000E+00 0. -1.
          2   -1    0    0  502    0 -0.00000000000E+00 -0.00000000000E+00 -0.40029161849E+03  0.40029161849E+03  0.00000000000E+00 0. -1.
         24    2    1    2    0    0  0.26812201104E+02 -0.70082307436E+01 -0.16457359120E+03  0.18206247831E+03  0.72761732123E+02 0.  0.
         23    2    1    2    0    0  0.49822137278E+02 -0.36564293470E+02 -0.16104709666E+03  0.19614117032E+03  0.93359511744E+02 0.  0.
        -11    1    3    3    0    0 -0.13651335547E+02 -0.21279612732E+02 -0.10877587810E+03  0.11167529958E+03  0.00000000000E+00 0.  1.
         12    1    3    3    0    0  0.40463536650E+02  0.14271381989E+02 -0.55797713101E+02  0.70387178729E+02  0.00000000000E+00 0. -1.
        -11    1    4    4    0    0  0.45599959356E+02 -0.60067858102E+02 -0.15361957389E+03  0.17113292306E+03  0.00000000000E+00 0. -1.
         11    1    4    4    0    0  0.42221779218E+01  0.23503564632E+02 -0.74275227620E+01  0.25008247264E+02  0.00000000000E+00 0.  1.
          1    1    1    2  501    0 -0.76634338382E+02  0.43572524214E+02 -0.82209395316E+01  0.88537960968E+02  0.00000000000E+00 0. -1.
<scales pt_clust_5="13000.00000" pt_clust_6="13000.00000" pt_clust_7="13000.00000" pt_clust_8="13000.00000" pt_clust_9="82.46313"></scales>
<clustering>
<clus scale="   72.762">  5  6 -1 -1</clus>
<clus scale="   77.861">  2  5  1 -1</clus>
<clus scale="   82.463">  1  9  2 -1</clus>
<clus scale="   93.360">  7  8 -1 -1</clus>
<clus scale="   82.463">  1  5  2 -1</clus>
</clustering>
</event>
<event>
 9    2  0.5655422E-005  0.1343235E+03  0.7546771E-02  0.1232736E+00
          2   -1    0    0  502    0 -0.00000000000E+00  0.00000000000E+00  0.90756099214E+03  0.90756099214E+03  0.00000000000E+00 0. -1.
         21   -1    0    0  501  502  0.00000000000E+00 -0.00000000000E+00 -0.59672243490E+02  0.59672243490E+02  0.00000000000E+00 0. -1.
         23    2    1    2    0    0  0.48096225713E+02 -0.21052434152E+02  0.82869930616E+02  0.13429381438E+03  0.91711238509E+02 0.  0.
         24    2    1    2    0    0  0.92743047739E+01 -0.76475138238E+02  0.68582204912E+03  0.69482666532E+03  0.80608636496E+02 0.  0.
        -11    1    4    4    0    0  0.24826246379E+02 -0.10606874735E+02  0.65818997220E+02  0.71140626199E+02  0.00000000000E+00 0.  1.
         12    1    4    4    0    0 -0.15551941605E+02 -0.65868263504E+02  0.62000305190E+03  0.62368603912E+03  0.00000000000E+00 0. -1.
        -13    1    3    3    0    0  0.28640297517E+02 -0.34933986705E+02 -0.28898484285E+01  0.45265895472E+02  0.00000000000E+00 0. -1.
         13    1    3    3    0    0  0.19455928196E+02  0.13881552553E+02  0.85759779044E+02  0.89027918908E+02  0.00000000000E+00 0.  1.
          1    1    1    2  501    0 -0.57370530487E+02  0.97527572390E+02  0.79196768911E+02  0.13811275593E+03  0.00000000000E+00 0. -1.
<scales pt_clust_5="13000.00000" pt_clust_6="13000.00000" pt_clust_7="13000.00000" pt_clust_8="13000.00000" pt_clust_9="107.44794"></scales>
<clustering>
<clus scale="   80.609">  5  6 -1 -1</clus>
<clus scale="   91.711">  7  8 -1 -1</clus>
<clus scale="  105.676">  1  7  2 -1</clus>
<clus scale="  107.448">  2  9  1 -1</clus>
<clus scale="  107.448">  2  5  1 -1</clus>
</clustering>
</event>
<event>
 9    2  0.4883225E-005  0.9508611E+02  0.7546771E-02  0.1296145E+00
         21   -1    0    0  501  502  0.00000000000E+00  0.00000000000E+00  0.85150763230E+02  0.85150763230E+02  0.00000000000E+00 0. -1.
          2   -1    0    0  502    0 -0.00000000000E+00 -0.00000000000E+00 -0.22554298595E+03  0.22554298595E+03  0.00000000000E+00 0. -1.
         24    2    1    2    0    0 -0.13925628842E+01  0.19491037441E+02 -0.11536526406E+03  0.14229038988E+03  0.80966481506E+02 0.  0.
         23    2    1    2    0    0 -0.24200648638E+01 -0.70762402608E+02 -0.11567490363E+02  0.11525783924E+03  0.90207473835E+02 0.  0.
        -11    1    3    3    0    0  0.19056422837E+02  0.45998457954E+02 -0.70618504263E+02  0.86405894069E+02  0.00000000000E+00 0.  1.
         12    1    3    3    0    0 -0.20448985721E+02 -0.26507420513E+02 -0.44746759798E+02  0.55884495808E+02  0.00000000000E+00 0. -1.
        -11    1    4    4    0    0  0.39762665352E+02 -0.37917530953E+02  0.12939228541E+02  0.56446721293E+02  0.00000000000E+00 0.  1.
         11    1    4    4    0    0 -0.42182730216E+02 -0.32844871655E+02 -0.24506718903E+02  0.58811117945E+02  0.00000000000E+00 0. -1.
          1    1    1    2  501    0  0.38126277480E+01  0.51271365167E+02 -0.13459468298E+02  0.53145520068E+02  0.00000000000E+00 0. -1.
<scales pt_clust_5="13000.00000" pt_clust_6="13000.00000" pt_clust_7="13000.00000" pt_clust_8="13000.00000" pt_clust_9="51.41293"></scales>
<clustering>
<clus scale="   51.413">  1  9  2 -1</clus>
<clus scale="   80.966">  5  6 -1 -1</clus>
<clus scale="   86.369">  2  5  1 -1</clus>
<clus scale="   90.207">  7  8 -1 -1</clus>
<clus scale="   51.413">  1  5  2 -1</clus>
</clustering>
</event>
<event>
 9    2  0.4883225E-005  0.3131573E+03  0.7546771E-02  0.1131546E+00
          2   -1    0    0  502    0 -0.00000000000E+00  0.00000000000E+00  0.32689299880E+03  0.32689299880E+03  0.00000000000E+00 0. -1.
         21   -1    0    0  501  502  0.00000000000E+00 -0.00000000000E+00 -0.38946828564E+03  0.38946828564E+03  0.00000000000E+00 0. -1.
         24    2    1    2    0    0 -0.83626051549E+00  0.34725728215E+01  0.46044672068E+02  0.92966600908E+02  0.80684068842E+02 0.  0.
         23    2    1    2    0    0  0.13780315380E+02  0.29785423993E+03 -0.69940440770E+02  0.31931985431E+03  0.90368461131E+02 0.  0.
        -13    1    3    3    0    0 -0.32612755656E+02  0.17727816334E+02  0.24949498726E+01  0.37203387996E+02  0.00000000000E+00 0.  1.
         14    1    3    3    0    0  0.31776495141E+02 -0.14255243512E+02  0.43549722195E+02  0.55763212912E+02  0.00000000000E+00 0. -1.
        -13    1    4    4    0    0 -0.33782780244E+02  0.10095939460E+03 -0.48947941559E+01  0.10657408038E+03  0.00000000000E+00 0.  1.
         13    1    4    4    0    0  0.47563095624E+02  0.19689484533E+03 -0.65045646614E+02  0.21274577393E+03  0.00000000000E+00 0. -1.
          1    1    1    2  501    0 -0.12944054865E+02 -0.30132681275E+03 -0.38679518139E+02  0.30407482921E+03  0.00000000000E+00 0. -1.
<scales pt_clust_5="13000.00000" pt_clust_6="13000.00000" pt_clust_7="13000.00000" pt_clust_8="13000.00000" pt_clust_9="299.83513"></scales>
<clustering>
<clus scale="   80.684">  5  6 -1 -1</clus>
<clus scale="   80.763">  1  5  2 -1</clus>
<clus scale="   90.368">  7  8 -1 -1</clus>
<clus scale="  299.835">  2  9  1 -1</clus>
<clus scale="  299.835">  2  5  1 -1</clus>
</clustering>
</event>
<event>
 9    2  0.4883225E-005  0.9426002E+02  0.7546771E-02  0.1298151E+00
          2   -1    0    0  502    0 -0.00000000000E+00  0.00000000000E+00  0.29640910706E+03  0.29640910706E+03  0.00000000000E+00 0. -1.
         21   -1    0    0  501  502  0.00000000000E+00 -0.00000000000E+00 -0.64712500753E+02  0.64712500753E+02  0.00000000000E+00 0. -1.
         24    2    1    2    0    0 -0.92031762764E+00  0.44274604570E+02  0.14841032175E+03  0.17517327100E+03  0.81847197117E+02 0.  0.
         23    2    1    2    0    0 -0.11278672720E+02  0.31383515660E+01  0.98549548859E+02  0.13466704380E+03  0.91028245056E+02 0.  0.
        -11    1    3    3    0    0  0.17968035403E+02 -0.15963614373E+02  0.72842909833E+02  0.76705780701E+02  0.00000000000E+00 0.  1.
         12    1    3    3    0    0 -0.18888353030E+02  0.60238218942E+02  0.75567411922E+02  0.98467490301E+02  0.00000000000E+00 0. -1.
        -13    1    4    4    0    0  0.85163010233E+01 -0.41704992593E+02  0.41449353155E+02  0.59412815683E+02  0.00000000000E+00 0.  1.
         13    1    4    4    0    0 -0.19794973744E+02  0.44843344159E+02  0.57100195704E+02  0.75254228122E+02  0.00000000000E+00 0. -1.
          1    1    1    2  501    0  0.12198990348E+02 -0.47412956136E+02 -0.15263264307E+02  0.51281293006E+02  0.00000000000E+00 0. -1.
<scales pt_clust_5="13000.00000" pt_clust_6="13000.00000" pt_clust_7="13000.00000" pt_clust_8="13000.00000" pt_clust_9="48.95716"></scales>
<clustering>
<clus scale="   48.957">  2  9  1 -1</clus>
<clus scale="   81.847">  5  6 -1 -1</clus>
<clus scale="   85.427">  1  5  2 -1</clus>
<clus scale="   91.028">  7  8 -1 -1</clus>
<clus scale="   48.957">  2  5  1 -1</clus>
</clustering>
</event>
<event>
 9    2  0.4883225E-005  0.1199622E+03  0.7546771E-02  0.1248420E+00
         21   -1    0    0  501  502  0.00000000000E+00  0.00000000000E+00  0.74642227808E+02  0.74642227808E+02  0.00000000000E+00 0.  1.
          2   -1    0    0  502    0 -0.00000000000E+00 -0.00000000000E+00 -0.66419297322E+03  0.66419297322E+03  0.00000000000E+00 0. -1.
         24    2    1    2    0    0  0.43884129947E+02 -0.35807956053E+02 -0.57112828609E+03  0.58165565161E+03  0.94486778456E+02 0.  0.
         23    2    1    2    0    0 -0.16252556691E+02 -0.18633376869E+01 -0.15534915986E+02  0.11037177101E+03  0.10804155032E+03 0.  0.
        -11    1    3    3    0    0 -0.11203882221E+02 -0.33158603233E+02 -0.78493467698E+02  0.85943262775E+02  0.00000000000E+00 0.  1.
         12    1    3    3    0    0  0.55088012168E+02 -0.26493528200E+01 -0.49263481839E+03  0.49571238883E+03  0.00000000000E+00 0. -1.
        -11    1    4    4    0    0  0.18142724984E+02 -0.36958381467E+02 -0.38285185586E+02  0.56221311492E+02  0.00000000000E+00 0. -1.
         11    1    4    4    0    0 -0.34395281675E+02  0.35095043780E+02  0.22750269601E+02  0.54150459521E+02  0.00000000000E+00 0.  1.
          1    1    1    2  501    0 -0.27631573256E+02  0.37671293740E+02 -0.28875433380E+01  0.46807778404E+02  0.00000000000E+00 0. -1.
<scales pt_clust_5="13000.00000" pt_clust_6="13000.00000" pt_clust_7="13000.00000" pt_clust_8="13000.00000" pt_clust_9="46.71863"></scales>
<clustering>
<clus scale="   46.719">  1  9  2 -1</clus>
<clus scale="   94.487">  5  6 -1 -1</clus>
<clus scale="  107.915">  2  5  1 -1</clus>
<clus scale="  108.042">  7  8 -1 -1</clus>
<clus scale="   46.719">  1  5  2 -1</clus>
</clustering>
</event>
<event>
 9    2  0.4883225E-005  0.3017436E+03  0.7546771E-02  0.1127107E+00
         21   -1    0    0  501  502  0.00000000000E+00  0.00000000000E+00  0.12810754375E+03  0.12810754375E+03  0.00000000000E+00 0.  1.
         -1   -1    0    0    0  501 -0.00000000000E+00 -0.00000000000E+00 -0.10786551932E+04  0.10786551932E+04  0.00000000000E+00 0.  1.
         24    2    1    2    0    0  0.33975999356E+01  0.59605960462E+02 -0.34090414154E+03  0.35546314010E+03  0.81080182804E+02 0.  0.
         23    2    1    2    0    0  0.71778635262E+02  0.24984550811E+03 -0.28913409921E+03  0.39948330807E+03  0.91724782352E+02 0.  0.
        -13    1    3    3    0    0  0.41217803538E+02  0.37682758250E+02 -0.21709175596E+03  0.22416005020E+03  0.00000000000E+00 0.  1.
         14    1    3    3    0    0 -0.37820203602E+02  0.21923202212E+02 -0.12381238557E+03  0.13130308990E+03  0.00000000000E+00 0. -1.
        -11    1    4    4    0    0  0.66772423767E+02  0.10508453086E+03 -0.91772045194E+02  0.15467198673E+03  0.00000000000E+00 0. -1.
         11    1    4    4    0    0  0.50062114957E+01  0.14476097725E+03 -0.19736205402E+03  0.24481132134E+03  0.00000000000E+00 0.  1.
         -2    1    1    2    0  502 -0.75176235198E+02 -0.30945146857E+03 -0.32050940870E+03  0.45181628878E+03  0.00000000000E+00 0.  1.
<scales pt_clust_5="13000.00000" pt_clust_6="13000.00000" pt_clust_7="13000.00000" pt_clust_8="13000.00000" pt_clust_9="287.46450"></scales>
<clustering>
<clus scale="   81.080">  5  6 -1 -1</clus>
<clus scale="   91.725">  7  8 -1 -1</clus>
<clus scale="  100.690">  2  5  1 -1</clus>
<clus scale="  287.465">  1  9  2 -1</clus>
<clus scale="  287.465">  1  5  2 -1</clus>
</clustering>
</event>
<event>
 9    2  0.4883225E-005  0.1050288E+03  0.7546771E-02  0.1272248E+00
         21   -1    0    0  501  502  0.00000000000E+00  0.00000000000E+00  0.33242318490E+02  0.33242318490E+02  0.00000000000E+00 0.  1.
          2   -1    0    0  502    0 -0.00000000000E+00 -0.00000000000E+00 -0.12217962645E+04  0.12217962645E+04  0.00000000000E+00 0. -1.
         24    2    1    2    0    0  0.56807557625E+02  0.59853774729E+01 -0.10461981068E+04  0.10511625572E+04  0.84553649736E+02 0.  0.
         23    2    1    2    0    0 -0.26351910377E+02 -0.51001705611E+01 -0.48961885571E+02  0.10563774088E+03  0.89675142264E+02 0.  0.
        -13    1    3    3    0    0  0.19892181432E+02  0.34335837379E+02 -0.21296576094E+03  0.21663117029E+03  0.00000000000E+00 0.  1.
         14    1    3    3    0    0  0.36915376193E+02 -0.28350459906E+02 -0.83323234588E+03  0.83453138694E+03  0.00000000000E+00 0. -1.
        -13    1    4    4    0    0  0.38584449833E+01 -0.25372761186E+02  0.16665305872E+02  0.30600605022E+02  0.00000000000E+00 0.  1.
         13    1    4    4    0    0 -0.30210355360E+02  0.20272590625E+02 -0.65627191443E+02  0.75037135862E+02  0.00000000000E+00 0. -1.
          1    1    1    2  501    0 -0.30455647248E+02 -0.88520691178E+00 -0.93393953609E+02  0.98238284855E+02  0.00000000000E+00 0. -1.
<scales pt_clust_5="13000.00000" pt_clust_6="13000.00000" pt_clust_7="13000.00000" pt_clust_8="13000.00000" pt_clust_9="30.46852"></scales>
<clustering>
<clus scale="   30.469">  1  9  2 -1</clus>
<clus scale="   84.554">  5  6 -1 -1</clus>
<clus scale="   89.675">  7  8 -1 -1</clus>
<clus scale="  100.691">  2  5  1 -1</clus>
<clus scale="   30.469">  1  5  2 -1</clus>
</clustering>
</event>
<event>
 9    2  0.4883225E-005  0.9223648E+02  0.7546771E-02  0.1303226E+00
         21   -1    0    0  501  502  0.00000000000E+00  0.00000000000E+00  0.56458629913E+02  0.56458629913E+02  0.00000000000E+00 0.  1.
          2   -1    0    0  502    0 -0.00000000000E+00 -0.00000000000E+00 -0.68004535040E+03  0.68004535040E+03  0.00000000000E+00 0. -1.
         24    2    1    2    0    0 -0.89858588917E+01 -0.15698612437E+02 -0.60061130859E+03  0.60639394676E+03  0.81562752325E+02 0.  0.
         23    2    1    2    0    0 -0.10592318676E+02 -0.13817368816E+02 -0.18713751152E+02  0.94435673880E+02  0.90910808615E+02 0.  0.
        -11    1    3    3    0    0 -0.18834625204E+02  0.13331092949E+02 -0.51565487040E+02  0.56493013723E+02  0.00000000000E+00 0.  1.
         12    1    3    3    0    0  0.98487663118E+01 -0.29029705386E+02 -0.54904582155E+03  0.54990093303E+03  0.00000000000E+00 0. -1.
        -11    1    4    4    0    0 -0.39251065670E+02  0.71278291316E+01  0.17646226760E+02  0.43621570619E+02  0.00000000000E+00 0.  1.
         11    1    4    4    0    0  0.28658746995E+02 -0.20945197948E+02 -0.36359977913E+02  0.50814103261E+02  0.00000000000E+00 0. -1.
          1    1    1    2  501    0  0.19578177567E+02  0.29515981253E+02 -0.42616607489E+01  0.35674359679E+02  0.00000000000E+00 0. -1.
<scales pt_clust_5="13000.00000" pt_clust_6="13000.00000" pt_clust_7="13000.00000" pt_clust_8="13000.00000" pt_clust_9="35.41890"></scales>
<clustering>
<clus scale="   35.419">  1  9  2 -1</clus>
<clus scale="   81.563">  5  6 -1 -1</clus>
<clus scale="   83.038">  2  5  1 -1</clus>
<clus scale="   90.911">  7  8 -1 -1</clus>
<clus scale="   35.419">  1  5  2 -1</clus>
</clustering>
</event>
<event>
 9    2  0.4883225E-005  0.1023273E+03  0.7546771E-02  0.1281275E+00
         21   -1    0    0  501  502  0.00000000000E+00  0.00000000000E+00  0.42110532573E+02  0.42110532573E+02  0.00000000000E+00 0. -1.
          2   -1    0    0  502    0 -0.00000000000E+00 -0.00000000000E+00 -0.43204753277E+03  0.43204753277E+03  0.00000000000E+00 0. -1.
         23    2    1    2    0    0  0.11074506557E+02  0.51971467527E+02 -0.23240465327E+03  0.25549411193E+03  0.91878399181E+02 0.  0.
         24    2    1    2    0    0 -0.49633365233E+02 -0.13301940951E+02 -0.11708769653E+03  0.15070891229E+03  0.79769887736E+02 0.  0.
        -13    1    4    4    0    0  0.17907894055E+02 -0.16185278084E+02 -0.15509630216E+02  0.28691541011E+02  0.00000000000E+00 0.  1.
         14    1    4    4    0    0 -0.67541259288E+02  0.28833371335E+01 -0.10157806631E+03  0.12201737128E+03  0.00000000000E+00 0. -1.
        -11    1    3    3    0    0 -0.13625882637E+02  0.41505519240E+02 -0.22273475222E+03  0.22697828674E+03  0.00000000000E+00 0.  1.
         11    1    3    3    0    0  0.24700389194E+02  0.10465948287E+02 -0.96699010506E+01  0.28515825189E+02  0.00000000000E+00 0. -1.
          1    1    1    2  501    0  0.38558858676E+02 -0.38669526576E+02 -0.40444650405E+02  0.67955041125E+02  0.00000000000E+00 0. -1.
<scales pt_clust_5="13000.00000" pt_clust_6="13000.00000" pt_clust_7="13000.00000" pt_clust_8="13000.00000" pt_clust_9="54.60877"></scales>
<clustering>
<clus scale="   54.609">  1  9  2 -1</clus>
<clus scale="   79.770">  5  6 -1 -1</clus>
<clus scale="   91.610">  1  5  2 -1</clus>
<clus scale="   91.878">  7  8 -1 -1</clus>
<clus scale="   54.609">  1  5  2 -1</clus>
</clustering>
</event>
<event>
 9    2  0.4883225E-005  0.1355878E+03  0.7546771E-02  0.1220397E+00
         21   -1    0    0  501  502  0.00000000000E+00  0.00000000000E+00  0.45484737562E+02  0.45484737562E+02  0.00000000000E+00 0.  1.
         -1   -1    0    0    0  501 -0.00000000000E+00 -0.00000000000E+00 -0.51983794378E+03  0.51983794378E+03  0.00000000000E+00 0.  1.
         23    2    1    2    0    0  0.21081209100E+02  0.11698133264E+03 -0.29178025098E+03  0.32670550902E+03  0.86439141556E+02 0.  0.
         24    2    1    2    0    0 -0.11632137072E+02 -0.84503124172E+02 -0.12686758169E+03  0.17344656830E+03  0.81928286709E+02 0.  0.
        -11    1    4    4    0    0  0.65869817608E+01 -0.94340172040E+02 -0.86894790458E+02  0.12842959549E+03  0.00000000000E+00 0.  1.
         12    1    4    4    0    0 -0.18219118833E+02  0.98370478683E+01 -0.39972791237E+02  0.45016972811E+02  0.00000000000E+00 0. -1.
        -11    1    3    3    0    0  0.16604180747E+02  0.58735162301E+02 -0.24315399474E+03  0.25069779271E+03  0.00000000000E+00 0. -1.
         11    1    3    3    0    0  0.44770283533E+01  0.58246170343E+02 -0.48626256242E+02  0.76007716309E+02  0.00000000000E+00 0.  1.
         -2    1    1    2    0  502 -0.94490720284E+01 -0.32478208472E+02 -0.55705373536E+02  0.65170604021E+02  0.00000000000E+00 0.  1.
<scales pt_clust_5="13000.00000" pt_clust_6="13000.00000" pt_clust_7="13000.00000" pt_clust_8="13000.00000" pt_clust_9="33.82484"></scales>
<clustering>
<clus scale="   33.825">  1  9  2 -1</clus>
<clus scale="   81.928">  5  6 -1 -1</clus>
<clus scale="   86.439">  7  8 -1 -1</clus>
<clus scale="  132.758">  1  5  2 -1</clus>
<clus scale="   33.825">  1  5  2 -1</clus>
</clustering>
</event>
<event>
 9    2  0.4883225E-005  0.2260475E+03  0.7546771E-02  0.1130100E+00
         21   -1    0    0  501  502  0.00000000000E+00  0.00000000000E+00  0.15595075347E+03  0.15595075347E+03  0.00000000000E+00 0. -1.
          2   -1    0    0  502    0 -0.00000000000E+00 -0.00000000000E+00 -0.75796616296E+03  0.75796616296E+03  0.00000000000E+00 0. -1.
         24    2    1    2    0    0 -0.58387490031E+02  0.18278023403E+03 -0.17467722451E+03  0.27186681469E+03  0.81127795626E+02 0.  0.
         23    2    1    2    0    0  0.11533472958E+03 -0.21354252462E+03 -0.55837418072E+02  0.26495312955E+03  0.90442434358E+02 0.  0.
        -13    1    3    3    0    0 -0.55357743130E+02  0.11164051455E+03 -0.63540588237E+02  0.13987669773E+03  0.00000000000E+00 0.  1.
         14    1    3    3    0    0 -0.30297469017E+01  0.71139719480E+02 -0.11113663627E+03  0.13199011696E+03  0.00000000000E+00 0. -1.
        -11    1    4    4    0    0  0.23397361613E+02 -0.69083637600E+02 -0.58809718379E+02  0.93694015232E+02  0.00000000000E+00 0.  1.
         11    1    4    4    0    0  0.91937367963E+02 -0.14445888702E+03  0.29723003065E+01  0.17125911432E+03  0.00000000000E+00 0. -1.
          1    1    1    2  501    0 -0.56947239544E+02  0.30762290590E+02 -0.37150076692E+03  0.37709697219E+03  0.00000000000E+00 0. -1.
<scales pt_clust_5="13000.00000" pt_clust_6="13000.00000" pt_clust_7="13000.00000" pt_clust_8="13000.00000" pt_clust_9="64.72489"></scales>
<clustering>
<clus scale="   64.725">  1  9  2 -1</clus>
<clus scale="   81.128">  5  6 -1 -1</clus>
<clus scale="   90.442">  7  8 -1 -1</clus>
<clus scale="  222.485">  2  5  1 -1</clus>
<clus scale="   64.725">  1  5  2 -1</clus>
</clustering>
</event>
<event>
 9    2  0.4883225E-005  0.2752248E+03  0.7546771E-02  0.1148334E+00
          2   -1    0    0  502    0 -0.00000000000E+00  0.00000000000E+00  0.94149351199E+03  0.94149351199E+03  0.00000000000E+00 0. -1.
         21   -1    0    0  501  502  0.00000000000E+00 -0.00000000000E+00 -0.72105024394E+03  0.72105024394E+03  0.00000000000E+00 0. -1.
         24    2    1    2    0    0 -0.46553371981E+01 -0.51641590462E+01  0.18926320075E+02  0.81575565258E+02  0.79044459341E+02 0.  0.
         23    2    1    2    0    0 -0.96931840178E+02  0.24381706849E+03  0.84373646081E+03  0.88834919840E+03  0.91817963773E+02 0.  0.
        -13    1    3    3    0    0  0.35661118793E+02 -0.80650004262E+01  0.18893483592E+02  0.41154870279E+02  0.00000000000E+00 0.  1.
         14    1    3    3    0    0 -0.40316455991E+02  0.29008413800E+01  0.32836482916E-01  0.40420694979E+02  0.00000000000E+00 0. -1.
        -13    1    4    4    0    0  0.30311714598E+01  0.84858373392E+02  0.34884910320E+03  0.35903457819E+03  0.00000000000E+00 0. -1.
         13    1    4    4    0    0 -0.99963011638E+02  0.15895869509E+03  0.49488735761E+03  0.52931462021E+03  0.00000000000E+00 0.  1.
          1    1    1    2  501    0  0.10158717738E+03 -0.23865290944E+03 -0.64221951283E+03  0.69261899227E+03  0.00000000000E+00 0. -1.
<scales pt_clust_5="13000.00000" pt_clust_6="13000.00000" pt_clust_7="13000.00000" pt_clust_8="13000.00000" pt_clust_9="259.45742"></scales>
<clustering>
<clus scale="   79.044">  5  6 -1 -1</clus>
<clus scale="   79.350">  1  5  2 -1</clus>
<clus scale="   91.818">  7  8 -1 -1</clus>
<clus scale="  259.457">  2  9  1 -1</clus>
<clus scale="  259.457">  2  5  1 -1</clus>
</clustering>
</event>
<event>
 9    2  0.4883225E-005  0.2300581E+03  0.7546771E-02  0.1127301E+00
          2   -1    0    0  502    0 -0.00000000000E+00  0.00000000000E+00  0.16926869224E+04  0.16926869224E+04  0.00000000000E+00 0. -1.
         21   -1    0    0  501  502  0.00000000000E+00 -0.00000000000E+00 -0.43857164970E+03  0.43857164970E+03  0.00000000000E+00 0. -1.
         24    2    1    2    0    0 -0.48610238868E+02 -0.20116243472E+03  0.86499970056E+03  0.89299083254E+03  0.79867794205E+02 0.  0.
         23    2    1    2    0    0  0.18353521316E+03  0.31176002326E+03 -0.33020512160E+03  0.49809287123E+03  0.90452194375E+02 0.  0.
        -13    1    3    3    0    0  0.43620125512E+01 -0.40048043192E+02  0.76511714943E+02  0.86469158898E+02  0.00000000000E+00 0.  1.
         14    1    3    3    0    0 -0.52972251420E+02 -0.16111439152E+03  0.78848798562E+03  0.80652167364E+03  0.00000000000E+00 0. -1.
        -13    1    4    4    0    0  0.43740990354E+02  0.39571096113E+02 -0.96357016067E+02  0.11297707922E+03  0.00000000000E+00 0.  1.
         13    1    4    4    0    0  0.13979422280E+03  0.27218892715E+03 -0.23384810553E+03  0.38511579200E+03  0.00000000000E+00 0. -1.
          1    1    1    2  501    0 -0.13492497429E+03 -0.11059758854E+03  0.71932069371E+03  0.74017486831E+03  0.00000000000E+00 0. -1.
<scales pt_clust_5="13000.00000" pt_clust_6="13000.00000" pt_clust_7="13000.00000" pt_clust_8="13000.00000" pt_clust_9="174.46090"></scales>
<clustering>
<clus scale="   79.868">  5  6 -1 -1</clus>
<clus scale="   90.452">  7  8 -1 -1</clus>
<clus scale="  174.461">  2  9  1 -1</clus>
<clus scale="  226.106">  1  5  2 -1</clus>
<clus scale="  174.461">  2  5  1 -1</clus>
</clustering>
</event>
<event>
 9    2  0.4883225E-005  0.1166022E+03  0.7546771E-02  0.1252545E+00
         21   -1    0    0  501  502  0.00000000000E+00  0.00000000000E+00  0.27013768805E+02  0.27013768805E+02  0.00000000000E+00 0. -1.
         -3   -1    0    0    0  501 -0.00000000000E+00 -0.00000000000E+00 -0.60132045539E+03  0.60132045539E+03  0.00000000000E+00 0.  1.
         24    2    1    2    0    0  0.37758431082E+02 -0.60164444164E+02 -0.30184467044E+03  0.32057908589E+03  0.81334407076E+02 0.  0.
         23    2    1    2    0    0 -0.18702351009E+02  0.71496785975E+02 -0.24820991567E+03  0.27489603705E+03  0.92185143089E+02 0.  0.
        -11    1    3    3    0    0  0.41776806904E+02 -0.52313901514E+02 -0.30417644749E+03  0.31145683023E+03  0.00000000000E+00 0.  1.
         12    1    3    3    0    0 -0.40183758222E+01 -0.78505426501E+01  0.23317770475E+01  0.91222556612E+01  0.00000000000E+00 0. -1.
        -11    1    4    4    0    0 -0.50314031294E+02  0.24758187171E+02 -0.16575202002E+03  0.17498057526E+03  0.00000000000E+00 0. -1.
         11    1    4    4    0    0  0.31611680284E+02  0.46738598803E+02 -0.82457895657E+02  0.99915461790E+02  0.00000000000E+00 0.  1.
         -4    1    1    2    0  502 -0.19056080072E+02 -0.11332341811E+02 -0.24252100467E+02  0.32859101261E+02  0.00000000000E+00 0.  1.
<scales pt_clust_5="13000.00000" pt_clust_6="13000.00000" pt_clust_7="13000.00000" pt_clust_8="13000.00000" pt_clust_9="22.17107"></scales>
<clustering>
<clus scale="   22.171">  1  9  2 -1</clus>
<clus scale="   81.334">  5  6 -1 -1</clus>
<clus scale="   92.185">  7  8 -1 -1</clus>
<clus scale="  108.228">  2  5  1 -1</clus>
<clus scale="   22.171">  1  5  2 -1</clus>
</clustering>
</event>
<event>
 9    2  0.4883225E-005  0.2128374E+03  0.7546771E-02  0.1166102E+00
         21   -1    0    0  501  502  0.00000000000E+00  0.00000000000E+00  0.61998478789E+03  0.61998478789E+03  0.00000000000E+00 0. -1.
         -1   -1    0    0    0  501 -0.00000000000E+00 -0.00000000000E+00 -0.20103044209E+03  0.20103044209E+03  0.00000000000E+00 0.  1.
         23    2    1    2    0    0  0.23084530942E+02 -0.65081183475E+02  0.23744361183E+03  0.26305710079E+03  0.89727997124E+02 0.  0.
         24    2    1    2    0    0 -0.19481852835E+03 -0.36283486887E+02 -0.80934992524E+02  0.22834453478E+03  0.79498447394E+02 0.  0.
        -13    1    4    4    0    0 -0.10488113637E+03 -0.28675504150E+02 -0.84973278536E+02  0.13799563533E+03  0.00000000000E+00 0.  1.
         14    1    4    4    0    0 -0.89937391979E+02 -0.76079827364E+01  0.40382860121E+01  0.90348899447E+02  0.00000000000E+00 0. -1.
        -11    1    3    3    0    0 -0.24986848573E+02  0.72593589043E+01  0.63808221070E+02  0.68909578212E+02  0.00000000000E+00 0.  1.
         11    1    3    3    0    0  0.48071379515E+02 -0.72340542379E+02  0.17363539076E+03  0.19414752258E+03  0.00000000000E+00 0. -1.
         -2    1    1    2    0  502  0.17173399741E+03  0.10136467036E+03  0.26244572650E+03  0.32961359441E+03  0.00000000000E+00 0.  1.
<scales pt_clust_5="13000.00000" pt_clust_6="13000.00000" pt_clust_7="13000.00000" pt_clust_8="13000.00000" pt_clust_9="197.43289"></scales>
<clustering>
<clus scale="   79.498">  5  6 -1 -1</clus>
<clus scale="   89.728">  7  8 -1 -1</clus>
<clus scale="  113.224">  2  7  1 -1</clus>
<clus scale="  197.433">  1  9  2 -1</clus>
<clus scale="  197.433">  1  5  2 -1</clus>
</clustering>
</event>
<event>
 9    2  0.4883225E-005  0.1164910E+03  0.7546771E-02  0.1253650E+00
          2   -1    0    0  502    0 -0.00000000000E+00  0.00000000000E+00  0.74787322352E+03  0.74787322352E+03  0.00000000000E+00 0. -1.
         21   -1    0    0  501  502  0.00000000000E+00 -0.00000000000E+00 -0.51775259667E+02  0.51775259667E+02  0.00000000000E+00 0. -1.
         23    2    1    2    0    0  0.65012093924E+02 -0.42021109250E+02  0.42324873484E+03  0.44024841419E+03  0.93203158103E+02 0.  0.
         24    2    1    2    0    0  0.22828072635E+02  0.91686967620E+02  0.99432103983E+02  0.15876086145E+03  0.79941521716E+02 0.  0.
        -13    1    4    4    0    0 -0.27595270191E+02  0.25037388187E+02  0.15625571915E+02  0.40404557191E+02  0.00000000000E+00 0.  1.
         14    1    4    4    0    0  0.50423342827E+02  0.66649579433E+02  0.83806532068E+02  0.11835630426E+03  0.00000000000E+00 0. -1.
        -11    1    3    3    0    0 -0.20720043892E+02  0.28970112498E+01  0.42222443936E+02  0.47121626298E+02  0.00000000000E+00 0.  1.
         11    1    3    3    0    0  0.85732137815E+02 -0.44918120500E+02  0.38102629090E+03  0.39312678790E+03  0.00000000000E+00 0. -1.
          1    1    1    2  501    0 -0.87840166559E+02 -0.49665858370E+02  0.17341712503E+03  0.20063920754E+03  0.00000000000E+00 0. -1.
<scales pt_clust_5="13000.00000" pt_clust_6="13000.00000" pt_clust_7="13000.00000" pt_clust_8="13000.00000" pt_clust_9="100.90883"></scales>
<clustering>
<clus scale="   79.942">  5  6 -1 -1</clus>
<clus scale="   93.203">  7  8 -1 -1</clus>
<clus scale="  100.909">  2  9  1 -1</clus>
<clus scale="  106.179">  2  5  1 -1</clus>
<clus scale="  100.909">  2  5  1 -1</clus>
</clustering>
</event>
<event>
 9    2  0.4883225E-005  0.1102630E+03  0.7546771E-02  0.1262171E+00
          2   -1    0    0  502    0 -0.00000000000E+00  0.00000000000E+00  0.15497743855E+03  0.15497743855E+03  0.00000000000E+00 0. -1.
         21   -1    0    0  501  502  0.00000000000E+00 -0.00000000000E+00 -0.65970763392E+03  0.65970763392E+03  0.00000000000E+00 0. -1.
         24    2    1    2    0    0 -0.50645490018E+02  0.49224607856E+01  0.11274224625E+03  0.15630635239E+03  0.95559747956E+02 0.  0.
         23    2    1    2    0    0  0.10089886253E+03 -0.13295714161E+02 -0.22771555587E+03  0.26530628044E+03  0.90419530965E+02 0.  0.
        -13    1    3    3    0    0  0.22144366234E+02 -0.13709975276E+02  0.77031972384E+01  0.27160184567E+02  0.00000000000E+00 0.  1.
         14    1    3    3    0    0 -0.72789856253E+02  0.18632436062E+02  0.10503904901E+03  0.12914616782E+03  0.00000000000E+00 0. -1.
        -11    1    4    4    0    0  0.18812949256E+02  0.21196336279E+02 -0.99426561878E+01  0.30034449278E+02  0.00000000000E+00 0. -1.
         11    1    4    4    0    0  0.82085913272E+02 -0.34492050440E+02 -0.21777289968E+03  0.23527183116E+03  0.00000000000E+00 0.  1.
          1    1    1    2  501    0 -0.50253372509E+02  0.83732533758E+01 -0.38975688574E+03  0.39307243964E+03  0.00000000000E+00 0. -1.
<scales pt_clust_5="13000.00000" pt_clust_6="13000.00000" pt_clust_7="13000.00000" pt_clust_8="13000.00000" pt_clust_9="50.94618"></scales>
<clustering>
<clus scale="   50.946">  2  9  1 -1</clus>
<clus scale="   90.420">  7  8 -1 -1</clus>
<clus scale="   95.560">  5  6 -1 -1</clus>
<clus scale="  105.839">  2  7  1 -1</clus>
<clus scale="   50.946">  2  5  1 -1</clus>
</clustering>
</event>
<event>
 9    2  0.4883225E-005  0.1187097E+03  0.7546771E-02  0.1253753E+00
          2   -1    0    0  502    0 -0.00000000000E+00  0.00000000000E+00  0.91168800155E+03  0.91168800155E+03  0.00000000000E+00 0. -1.
         21   -1    0    0  501  502  0.00000000000E+00 -0.00000000000E+00 -0.57713455359E+02  0.57713455359E+02  0.00000000000E+00 0.  1.
         24    2    1    2    0    0 -0.51791205311E+02  0.40266405103E+02  0.82965450245E+03  0.83577921321E+03  0.76789240613E+02 0.  0.
         23    2    1    2    0    0  0.38952404772E+02 -0.23123266249E+02  0.23978260552E+02  0.11220172025E+03  0.99811290786E+02 0.  0.
        -13    1    3    3    0    0 -0.24484021303E+02 -0.17931434099E+02  0.14672367168E+03  0.14982936782E+03  0.00000000000E+00 0.  1.
         14    1    3    3    0    0 -0.27307184008E+02  0.58197839202E+02  0.68293083077E+03  0.68594984540E+03  0.00000000000E+00 0. -1.
        -13    1    4    4    0    0  0.97793857520E+01 -0.60432309525E+02  0.58774650957E+01  0.61499959481E+02  0.00000000000E+00 0.  1.
         13    1    4    4    0    0  0.29173019020E+02  0.37309043276E+02  0.18100795456E+02  0.50701760769E+02  0.00000000000E+00 0. -1.
          1    1    1    2  501    0  0.12838800539E+02 -0.17143138854E+02  0.34178318949E+00  0.21420523448E+02  0.00000000000E+00 0. -1.
<scales pt_clust_5="13000.00000" pt_clust_6="13000.00000" pt_clust_7="13000.00000" pt_clust_8="13000.00000" pt_clust_9="21.41780"></scales>
<clustering>
<clus scale="   21.418">  2  9  1 -1</clus>
<clus scale="   76.789">  5  6 -1 -1</clus>
<clus scale="   99.811">  7  8 -1 -1</clus>
<clus scale="  100.131">  1  5  2 -1</clus>
<clus scale="   21.418">  2  5  1 -1</clus>
</clustering>
</event>
<event>
 9    2  0.4883225E-005  0.2646998E+03  0.7546771E-02  0.1104930E+00
         21   -1    0    0  501  502  0.00000000000E+00  0.00000000000E+00  0.42506946837E+03  0.42506946837E+03  0.00000000000E+00 0.  1.
          2   -1    0    0  502    0 -0.00000000000E+00 -0.00000000000E+00 -0.31061816522E+03  0.31061816522E+03  0.00000000000E+00 0. -1.
         23    2    1    2    0    0  0.25137533140E+03  0.22674560601E+02 -0.17673668578E+03  0.32271946173E+03  0.95959897610E+02 0.  0.
         24    2    1    2    0    0 -0.22748970429E+03  0.13511148501E+02  0.21133581917E+03  0.32210399992E+03  0.84581567789E+02 0.  0.
        -11    1    4    4    0    0 -0.10002088746E+03  0.23662972811E+01  0.14975653686E+03  0.18010218661E+03  0.00000000000E+00 0.  1.
         12    1    4    4    0    0 -0.12746881683E+03  0.11144851220E+02  0.61579282308E+02  0.14200181330E+03  0.00000000000E+00 0. -1.
        -13    1    3    3    0    0  0.20743884071E+03  0.16329812595E+02 -0.18396562576E+03  0.27774248302E+03  0.00000000000E+00 0.  1.
         13    1    3    3    0    0  0.43936490685E+02  0.63447480065E+01  0.72289399775E+01  0.44976978714E+02  0.00000000000E+00 0. -1.
          1    1    1    2  501    0 -0.23885627110E+02 -0.36185709102E+02  0.79852169759E+02  0.90864171932E+02  0.00000000000E+00 0. -1.
<scales pt_clust_5="13000.00000" pt_clust_6="13000.00000" pt_clust_7="13000.00000" pt_clust_8="13000.00000" pt_clust_9="43.35814"></scales>
<clustering>
<clus scale="   43.358">  1  9  2 -1</clus>
<clus scale="   84.582">  5  6 -1 -1</clus>
<clus scale="   95.960">  7  8 -1 -1</clus>
<clus scale="  260.791">  1  5  2 -1</clus>
<clus scale="   43.358">  1  5  2 -1</clus>
</clustering>
</event>
<event>
 9    2  0.4883225E-005  0.1206054E+03  0.7546771E-02  0.1245389E+00
         -1   -1    0    0    0  501 -0.00000000000E+00  0.00000000000E+00  0.16119417887E+03  0.16119417887E+03  0.00000000000E+00 0.  1.
         21   -1    0    0  501  502  0.00000000000E+00 -0.00000000000E+00 -0.13622338026E+03  0.13622338026E+03  0.00000000000E+00 0. -1.
         24    2    1    2    0    0  0.69043808567E+02 -0.97775909789E+00  0.21372580780E+02  0.10777191376E+03  0.79937442245E+02 0.  0.
         23    2    1    2    0    0 -0.88426032721E+02  0.50170330261E+02  0.93476588010E+01  0.13646072512E+03  0.90542395996E+02 0.  0.
        -11    1    3    3    0    0  0.55998306625E+02  0.22420141460E+02  0.42387649043E+02  0.73723713142E+02  0.00000000000E+00 0.  1.
         12    1    3    3    0    0  0.13045501942E+02 -0.23397900558E+02 -0.21015068264E+02  0.34048200621E+02  0.00000000000E+00 0. -1.
        -11    1    4    4    0    0 -0.22689891121E+02 -0.78110288480E+01  0.37392626586E+02  0.44430303327E+02  0.00000000000E+00 0.  1.
         11    1    4    4    0    0 -0.65736141601E+02  0.57981359109E+02 -0.28044967785E+02  0.92030421789E+02  0.00000000000E+00 0. -1.
         -2    1    1    2    0  502  0.19382224154E+02 -0.49192571163E+02 -0.57494409782E+01  0.53184920253E+02  0.00000000000E+00 0.  1.
<scales pt_clust_5="13000.00000" pt_clust_6="13000.00000" pt_clust_7="13000.00000" pt_clust_8="13000.00000" pt_clust_9="52.87324"></scales>
<clustering>
<clus scale="   52.873">  2  9  1 -1</clus>
<clus scale="   79.937">  5  6 -1 -1</clus>
<clus scale="   90.542">  7  8 -1 -1</clus>
<clus scale="  112.862">  1  5  2 -1</clus>
<clus scale="   52.873">  2  5  1 -1</clus>
</clustering>
</event>
<event>
 9    2  0.4883225E-005  0.1323838E+03  0.7546771E-02  0.1226049E+00
          2   -1    0    0  502    0 -0.00000000000E+00  0.00000000000E+00  0.51919657409E+03  0.51919657409E+03  0.00000000000E+00 0. -1.
         21   -1    0    0  501  502  0.00000000000E+00 -0.00000000000E+00 -0.18468697407E+03  0.18468697407E+03  0.00000000000E+00 0. -1.
         24    2    1    2    0    0  0.94506386842E+02  0.24367834173E+02  0.47147553887E+03  0.48840124561E+03  0.81983806101E+02 0.  0.
         23    2    1    2    0    0 -0.88415788071E+02  0.76360533235E+01 -0.79992158809E+02  0.14985185366E+03  0.90449829653E+02 0.  0.
        -13    1    3    3    0    0  0.19035267545E+02 -0.16660896320E+02  0.32947285454E+02  0.41538542289E+02  0.00000000000E+00 0.  1.
         14    1    3    3    0    0  0.75471119297E+02  0.41028730493E+02  0.43852825342E+03  0.44686270332E+03  0.00000000000E+00 0. -1.
        -13    1    4    4    0    0 -0.72239625156E+02  0.44457705943E+02 -0.65250043580E+02  0.10701691104E+03  0.00000000000E+00 0. -1.
         13    1    4    4    0    0 -0.16176162914E+02 -0.36821652620E+02 -0.14742115229E+02  0.42834942625E+02  0.00000000000E+00 0.  1.
          1    1    1    2  501    0 -0.60905987716E+01 -0.32003887496E+02 -0.56973780044E+02  0.65630448884E+02  0.00000000000E+00 0. -1.
<scales pt_clust_5="13000.00000" pt_clust_6="13000.00000" pt_clust_7="13000.00000" pt_clust_8="13000.00000" pt_clust_9="32.57828"></scales>
<clustering>
<clus scale="   32.578">  2  9  1 -1</clus>
<clus scale="   81.984">  5  6 -1 -1</clus>
<clus scale="   90.450">  7  8 -1 -1</clus>
<clus scale="  126.750">  1  5  2 -1</clus>
<clus scale="   32.578">  2  5  1 -1</clus>
</clustering>
</event>
<event>
 9    2  0.4883225E-005  0.1025775E+03  0.7546771E-02  0.1280395E+00
         21   -1    0    0  501  502  0.00000000000E+00  0.00000000000E+00  0.11301961179E+03  0.11301961179E+03  0.00000000000E+00 0. -1.
          2   -1    0    0  502    0 -0.00000000000E+00 -0.00000000000E+00 -0.20412536713E+03  0.20412536713E+03  0.00000000000E+00 0. -1.
         24    2    1    2    0    0 -0.43448702497E+02  0.34585518140E+02 -0.11998906943E+03  0.15377891141E+03  0.78527886757E+02 0.  0.
         23    2    1    2    0    0  0.53234661067E+01 -0.16899507505E+02  0.61125358160E+02  0.11039552827E+03  0.90204936705E+02 0.  0.
        -11    1    3    3    0    0  0.21853386816E+02  0.98218308921E+01 -0.17140554535E+02  0.29459081574E+02  0.00000000000E+00 0.  1.
         12    1    3    3    0    0 -0.65302089313E+02  0.24763687247E+02 -0.10284851489E+03  0.12431982984E+03  0.00000000000E+00 0. -1.
        -13    1    4    4    0    0 -0.21039061345E+02  0.24838749929E+00 -0.16437093355E+02  0.26699847127E+02  0.00000000000E+00 0.  1.
         13    1    4    4    0    0  0.26362527452E+02 -0.17147895005E+02  0.77562451514E+02  0.83695681141E+02  0.00000000000E+00 0. -1.
          1    1    1    2  501    0  0.38125236390E+02 -0.17686010634E+02 -0.32242044066E+02  0.52970539241E+02  0.00000000000E+00 0. -1.
<scales pt_clust_5="13000.00000" pt_clust_6="13000.00000" pt_clust_7="13000.00000" pt_clust_8="13000.00000" pt_clust_9="42.02773"></scales>
<clustering>
<clus scale="   42.028">  1  9  2 -1</clus>
<clus scale="   78.528">  5  6 -1 -1</clus>
<clus scale="   90.205">  7  8 -1 -1</clus>
<clus scale="   92.476">  2  5  1 -1</clus>
<clus scale="   42.028">  1  5  2 -1</clus>
</clustering>
</event>
<event>
 9    2  0.4883225E-005  0.2110855E+03  0.7546771E-02  0.1141656E+00
         21   -1    0    0  501  502  0.00000000000E+00  0.00000000000E+00  0.84822542054E+02  0.84822542054E+02  0.00000000000E+00 0.  1.
          2   -1    0    0  502    0 -0.00000000000E+00 -0.00000000000E+00 -0.64815075412E+03  0.64815075412E+03  0.00000000000E+00 0. -1.
         24    2    1    2    0    0  0.56921749837E+02 -0.17862661564E+03 -0.38171790031E+03  0.43276130818E+03  0.80163838588E+02 0.  0.
         23    2    1    2    0    0 -0.78749291885E+02  0.18002224502E+03 -0.16017716464E+03  0.26958897103E+03  0.91717116994E+02 0.  0.
        -11    1    3    3    0    0 -0.16696553754E+01 -0.31126638190E+02 -0.18171916864E+02  0.36081489944E+02  0.00000000000E+00 0.  1.
         12    1    3    3    0    0  0.58591405212E+02 -0.14749997745E+03 -0.36354598345E+03  0.39667981823E+03  0.00000000000E+00 0. -1.
        -11    1    4    4    0    0 -0.16830545394E+02  0.13816568398E+03 -0.82526537079E+02  0.16181363604E+03  0.00000000000E+00 0.  1.
         11    1    4    4    0    0 -0.61918746490E+02  0.41856561047E+02 -0.77650627563E+02  0.10777533498E+03  0.00000000000E+00 0. -1.
          1    1    1    2  501    0  0.21827542048E+02 -0.13956293800E+01 -0.21433147112E+02  0.30623016970E+02  0.00000000000E+00 0. -1.
<scales pt_clust_5="13000.00000" pt_clust_6="13000.00000" pt_clust_7="13000.00000" pt_clust_8="13000.00000" pt_clust_9="21.87211"></scales>
<clustering>
<clus scale="   21.872">  1  9  2 -1</clus>
<clus scale="   80.164">  5  6 -1 -1</clus>
<clus scale="   91.717">  7  8 -1 -1</clus>
<clus scale="  206.328">  2  5  1 -1</clus>
<clus scale="   21.872">  1  5  2 -1</clus>
</clustering>
</event>
<event>
 9    2  0.4883225E-005  0.1593458E+03  0.7546771E-02  0.1213662E+00
         21   -1    0    0  501  502  0.00000000000E+00  0.00000000000E+00  0.58479588656E+02  0.58479588656E+02  0.00000000000E+00 0. -1.
          2   -1    0    0  502    0 -0.00000000000E+00 -0.00000000000E+00 -0.83413642028E+03  0.83413642028E+03  0.00000000000E+00 0. -1.
         24    2    1    2    0    0 -0.26846741479E+02  0.42230260651E+02 -0.34299004887E+03  0.35571171541E+03  0.79903118920E+02 0.  0.
         23    2    1    2    0    0 -0.11421621360E+03 -0.89590501010E+01 -0.32950702900E+03  0.35900638589E+03  0.84764939200E+02 0.  0.
        -13    1    3    3    0    0 -0.32115317183E+02 -0.14765229477E+02 -0.16503844334E+03  0.16878119973E+03  0.00000000000E+00 0.  1.
         14    1    3    3    0    0  0.52685757036E+01  0.56995490127E+02 -0.17795160552E+03  0.18693051568E+03  0.00000000000E+00 0. -1.
        -11    1    4    4    0    0 -0.32388753276E+02 -0.35985781162E+01 -0.18718403236E+02  0.37581374681E+02  0.00000000000E+00 0.  1.
         11    1    4    4    0    0 -0.81827460327E+02 -0.53604719848E+01 -0.31078862577E+03  0.32142501121E+03  0.00000000000E+00 0. -1.
          1    1    1    2  501    0  0.14106295508E+03 -0.33271210550E+02 -0.10315975375E+03  0.17789790764E+03  0.00000000000E+00 0. -1.
<scales pt_clust_5="13000.00000" pt_clust_6="13000.00000" pt_clust_7="13000.00000" pt_clust_8="13000.00000" pt_clust_9="134.92953"></scales>
<clustering>
<clus scale="   79.903">  5  6 -1 -1</clus>
<clus scale="   84.765">  7  8 -1 -1</clus>
<clus scale="   94.280">  2  5  1 -1</clus>
<clus scale="  134.930">  1  9  2 -1</clus>
<clus scale="  134.930">  1  5  2 -1</clus>
</clustering>
</event>
<event>
 9    2  0.4883225E-005  0.1198969E+03  0.7546771E-02  0.1247790E+00
         21   -1    0    0  501  502  0.00000000000E+00  0.00000000000E+00  0.15331538765E+03  0.15331538765E+03  0.00000000000E+00 0.  1.
          2   -1    0    0  502    0 -0.00000000000E+00 -0.00000000000E+00 -0.17887551998E+03  0.17887551998E+03  0.00000000000E+00 0. -1.
         24    2    1    2    0    0 -0.10267381005E+03  0.27074280426E+02 -0.49456333424E+02  0.14201171560E+03  0.80289915444E+02 0.  0.
         23    2    1    2    0    0  0.25577265418E+02  0.32215731494E+01  0.40727470775E+02  0.10565104537E+03  0.94015113003E+02 0.  0.
        -13    1    3    3    0    0 -0.69721310085E+02  0.52480384164E+02 -0.16225267148E+02  0.88760977326E+02  0.00000000000E+00 0.  1.
         14    1    3    3    0    0 -0.32952499963E+02 -0.25406103738E+02 -0.33231066277E+02  0.53250738275E+02  0.00000000000E+00 0. -1.
        -11    1    4    4    0    0  0.59959224432E+02 -0.53004531371E+01  0.35398141726E+02  0.69830021020E+02  0.00000000000E+00 0.  1.
         11    1    4    4    0    0 -0.34381959014E+02  0.85220262865E+01  0.53293290488E+01  0.35821024354E+02  0.00000000000E+00 0. -1.
          1    1    1    2  501    0  0.77096544630E+02 -0.30295853575E+02 -0.16831269677E+02  0.84528146654E+02  0.00000000000E+00 0. -1.
<scales pt_clust_5="13000.00000" pt_clust_6="13000.00000" pt_clust_7="13000.00000" pt_clust_8="13000.00000" pt_clust_9="82.83552"></scales>
<clustering>
<clus scale="   80.290">  5  6 -1 -1</clus>
<clus scale="   82.836">  1  9  2 -1</clus>
<clus scale="   94.015">  7  8 -1 -1</clus>
<clus scale="  109.466">  2  5  1 -1</clus>
<clus scale="   82.836">  1  5  2 -1</clus>
</clustering>
</event>
<event>
 9    2  0.4883225E-005  0.9619064E+02  0.7546771E-02  0.1294764E+00
          2   -1    0    0  502    0 -0.00000000000E+00  0.00000000000E+00  0.36193777804E+03  0.36193777804E+03  0.00000000000E+00 0. -1.
         21   -1    0    0  501  502  0.00000000000E+00 -0.00000000000E+00 -0.21404319143E+03  0.21404319143E+03  0.00000000000E+00 0. -1.
         24    2    1    2    0    0 -0.29969505667E+02  0.67498191730E+01  0.29984768582E+03  0.31158038103E+03  0.78930145221E+02 0.  0.
         23    2    1    2    0    0  0.68758599680E+02 -0.76260394527E+02 -0.94018679122E+02  0.16594902201E+03  0.90311533471E+02 0.  0.
        -11    1    3    3    0    0 -0.20105363835E+02 -0.35524020064E+02  0.16173461068E+03  0.16680607288E+03  0.00000000000E+00 0.  1.
         12    1    3    3    0    0 -0.98641418323E+01  0.42273839237E+02  0.13811307514E+03  0.14477430816E+03  0.00000000000E+00 0. -1.
        -11    1    4    4    0    0  0.66031402355E+02 -0.13533942824E+02 -0.73890982025E+02  0.10001595338E+03  0.00000000000E+00 0.  1.
         11    1    4    4    0    0  0.27271973249E+01 -0.62726451703E+02 -0.20127697097E+02  0.65933068630E+02  0.00000000000E+00 0. -1.
          1    1    1    2  501    0 -0.38789094013E+02  0.69510575354E+02 -0.57934420088E+02  0.98451566424E+02  0.00000000000E+00 0. -1.
<scales pt_clust_5="13000.00000" pt_clust_6="13000.00000" pt_clust_7="13000.00000" pt_clust_8="13000.00000" pt_clust_9="79.60097"></scales>
<clustering>
<clus scale="   78.930">  5  6 -1 -1</clus>
<clus scale="   79.601">  2  9  1 -1</clus>
<clus scale="   85.595">  1  5  2 -1</clus>
<clus scale="   90.312">  7  8 -1 -1</clus>
<clus scale="   79.601">  2  5  1 -1</clus>
</clustering>
</event>
<event>
 9    2  0.4883225E-005  0.1278243E+03  0.7546771E-02  0.1234109E+00
         21   -1    0    0  501  502  0.00000000000E+00  0.00000000000E+00  0.12479416136E+03  0.12479416136E+03  0.00000000000E+00 0. -1.
          4   -1    0    0  502    0 -0.00000000000E+00 -0.00000000000E+00 -0.18043887558E+03  0.18043887558E+03  0.00000000000E+00 0. -1.
         23    2    1    2    0    0 -0.99691702023E+02 -0.14967021653E+02 -0.57175601371E+02  0.14830459146E+03  0.92535156921E+02 0.  0.
         24    2    1    2    0    0  0.69110448960E+02 -0.16343538099E+01  0.32045595391E+02  0.11064706558E+03  0.80230465966E+02 0.  0.
        -11    1    4    4    0    0  0.25731586416E+02  0.16307111454E+02  0.51497784254E+02  0.59833587612E+02  0.00000000000E+00 0.  1.
         12    1    4    4    0    0  0.43378862544E+02 -0.17941465264E+02 -0.19452188863E+02  0.50813477966E+02  0.00000000000E+00 0. -1.
        -11    1    3    3    0    0 -0.11057117761E+03  0.23124467592E+01 -0.62725152948E+02  0.12714471102E+03  0.00000000000E+00 0. -1.
         11    1    3    3    0    0  0.10879475584E+02 -0.17279468412E+02  0.55495515775E+01  0.21159880442E+02  0.00000000000E+00 0.  1.
          3    1    1    2  501    0  0.30581253062E+02  0.16601375463E+02 -0.30514708249E+02  0.46281379902E+02  0.00000000000E+00 0. -1.
<scales pt_clust_5="13000.00000" pt_clust_6="13000.00000" pt_clust_7="13000.00000" pt_clust_8="13000.00000" pt_clust_9="34.79684"></scales>
<clustering>
<clus scale="   34.797">  1  9  2 -1</clus>
<clus scale="   80.230">  5  6 -1 -1</clus>
<clus scale="   92.535">  7  8 -1 -1</clus>
<clus scale="  119.219">  1  5  2 -1</clus>
<clus scale="   34.797">  1  5  2 -1</clus>
</clustering>
</event>
<event>
 9    2  0.4883225E-005  0.9858202E+02  0.7546771E-02  0.1287591E+00
         21   -1    0    0  501  502  0.00000000000E+00  0.00000000000E+00  0.62507790147E+02  0.62507790147E+02  0.00000000000E+00 0. -1.
          2   -1    0    0  502    0 -0.00000000000E+00 -0.00000000000E+00 -0.28569984591E+03  0.28569984591E+03  0.00000000000E+00 0. -1.
         24    2    1    2    0    0 -0.57436277923E+02  0.91857884155E+01 -0.70462213394E+02  0.12145282350E+03  0.80015998964E+02 0.  0.
         23    2    1    2    0    0  0.23986044203E+02  0.28856712684E+02 -0.42026900360E+02  0.10501208630E+03  0.88618495428E+02 0.  0.
        -11    1    3    3    0    0 -0.56736673976E+02  0.35259713706E+02 -0.67888955385E+02  0.95242888699E+02  0.00000000000E+00 0.  1.
         12    1    3    3    0    0 -0.69960394777E+00 -0.26073925290E+02 -0.25732580095E+01  0.26209934805E+02  0.00000000000E+00 0. -1.
        -11    1    4    4    0    0  0.38516341382E+02  0.36780924246E+01  0.14603707326E+02  0.41355836166E+02  0.00000000000E+00 0.  1.
         11    1    4    4    0    0 -0.14530297180E+02  0.25178620259E+02 -0.56630607685E+02  0.63656250134E+02  0.00000000000E+00 0. -1.
          1    1    1    2  501    0  0.33450233721E+02 -0.38042501099E+02 -0.11070294200E+03  0.12174272625E+03  0.00000000000E+00 0. -1.
<scales pt_clust_5="13000.00000" pt_clust_6="13000.00000" pt_clust_7="13000.00000" pt_clust_8="13000.00000" pt_clust_9="50.65721"></scales>
<clustering>
<clus scale="   50.657">  1  9  2 -1</clus>
<clus scale="   80.016">  5  6 -1 -1</clus>
<clus scale="   88.618">  7  8 -1 -1</clus>
<clus scale="   90.927">  2  5  1 -1</clus>
<clus scale="   50.657">  1  5  2 -1</clus>
</clustering>
</event>
<event>
 9    2  0.4883225E-005  0.1103018E+03  0.7546771E-02  0.1263708E+00
         21   -1    0    0  501  502  0.00000000000E+00  0.00000000000E+00  0.43675703618E+03  0.43675703618E+03  0.00000000000E+00 0.  1.
          4   -1    0    0  502    0 -0.00000000000E+00 -0.00000000000E+00 -0.67791612600E+02  0.67791612600E+02  0.00000000000E+00 0. -1.
         23    2    1    2    0    0 -0.58549859940E+02 -0.37761347962E+02  0.39041559467E+01  0.11515087141E+03  0.91599537412E+02 0.  0.
         24    2    1    2    0    0  0.26282035671E+02  0.23963970335E+02  0.17995406139E+03  0.20099327127E+03  0.82157249312E+02 0.  0.
        -13    1    4    4    0    0 -0.26860944781E+02  0.19541446678E+02  0.95502667627E+02  0.10111447976E+03  0.00000000000E+00 0.  1.
         14    1    4    4    0    0  0.53142980451E+02  0.44225236567E+01  0.84451393761E+02  0.99878791517E+02  0.00000000000E+00 0. -1.
        -13    1    3    3    0    0 -0.34904528549E+02 -0.38654225018E+02 -0.39735704497E+02  0.65508789005E+02  0.00000000000E+00 0. -1.
         13    1    3    3    0    0 -0.23645331391E+02  0.89287705583E+00  0.43639860444E+02  0.49642082406E+02  0.00000000000E+00 0.  1.
          3    1    1    2  501    0  0.32267824270E+02  0.13797377628E+02  0.18510720624E+03  0.18840450609E+03  0.00000000000E+00 0. -1.
<scales pt_clust_5="13000.00000" pt_clust_6="13000.00000" pt_clust_7="13000.00000" pt_clust_8="13000.00000" pt_clust_9="35.09388"></scales>
<clustering>
<clus scale="   35.094">  1  9  2 -1</clus>
<clus scale="   82.157">  5  6 -1 -1</clus>
<clus scale="   91.600">  7  8 -1 -1</clus>
<clus scale="  102.595">  1  5  2 -1</clus>
<clus scale="   35.094">  1  5  2 -1</clus>
</clustering>
</event>
<event>
 9    2  0.4883225E-005  0.1393020E+03  0.7546771E-02  0.1239937E+00
         21   -1    0    0  501  502  0.00000000000E+00  0.00000000000E+00  0.16476459350E+03  0.16476459350E+03  0.00000000000E+00 0.  1.
          2   -1    0    0  502    0 -0.00000000000E+00 -0.00000000000E+00 -0.20850732252E+03  0.20850732252E+03  0.00000000000E+00 0. -1.
         24    2    1    2    0    0 -0.95591489015E+01 -0.41283564935E+01 -0.78840097679E+02  0.11359576853E+03  0.81116070974E+02 0.  0.
         23    2    1    2    0    0  0.57502267609E+02  0.90837712627E+02  0.65140138267E+02  0.15614053489E+03  0.92620884283E+02 0.  0.
        -13    1    3    3    0    0 -0.34247912876E+02 -0.19013724493E+02 -0.74865262012E+02  0.84494075009E+02  0.00000000000E+00 0.  1.
         14    1    3    3    0    0  0.24688763974E+02  0.14885368000E+02 -0.39748356672E+01  0.29101693519E+02  0.00000000000E+00 0. -1.
        -13    1    4    4    0    0 -0.15292144856E+02  0.45786243359E+02  0.49453253415E+02  0.69107554207E+02  0.00000000000E+00 0.  1.
         13    1    4    4    0    0  0.72794412465E+02  0.45051469268E+02  0.15686884852E+02  0.87032980678E+02  0.00000000000E+00 0. -1.
          1    1    1    2  501    0 -0.47943118708E+02 -0.86709356133E+02 -0.30042769600E+02  0.10353561261E+03  0.00000000000E+00 0. -1.
<scales pt_clust_5="13000.00000" pt_clust_6="13000.00000" pt_clust_7="13000.00000" pt_clust_8="13000.00000" pt_clust_9="104.05019"></scales>
<clustering>
<clus scale="   81.116">  5  6 -1 -1</clus>
<clus scale="   81.782">  2  5  1 -1</clus>
<clus scale="   92.621">  7  8 -1 -1</clus>
<clus scale="  104.050">  1  9  2 -1</clus>
<clus scale="  104.050">  1  5  2 -1</clus>
</clustering>
</event>
<event>
 9    2  0.4883225E-005  0.1398799E+03  0.7546771E-02  0.1225419E+00
         21   -1    0    0  501  502  0.00000000000E+00  0.00000000000E+00  0.76881224396E+02  0.76881224396E+02  0.00000000000E+00 0. -1.
          2   -1    0    0  502    0 -0.00000000000E+00 -0.00000000000E+00 -0.51533564663E+03  0.51533564663E+03  0.00000000000E+00 0. -1.
         23    2    1    2    0    0  0.42592490256E+02 -0.17037724220E+02 -0.16136226160E+03  0.19465066929E+03  0.98725373203E+02 0.  0.
         24    2    1    2    0    0  0.29349856524E+02  0.10981948480E+03 -0.23467757137E+03  0.27273369900E+03  0.79927309147E+02 0.  0.
        -13    1    4    4    0    0 -0.19925543858E+02  0.28882670028E+01 -0.23441243476E+02  0.30900829763E+02  0.00000000000E+00 0.  1.
         14    1    4    4    0    0  0.49275400382E+02  0.10693121780E+03 -0.21123632789E+03  0.24183286924E+03  0.00000000000E+00 0. -1.
        -13    1    3    3    0    0  0.34779920448E+02  0.50765894674E+01 -0.16689262723E+03  0.17055369726E+03  0.00000000000E+00 0. -1.
         13    1    3    3    0    0  0.78125698076E+01 -0.22114313688E+02  0.55303656298E+01  0.24096972027E+02  0.00000000000E+00 0.  1.
          1    1    1    2  501    0 -0.71942346780E+02 -0.92781760582E+02 -0.42414589270E+02  0.12483250274E+03  0.00000000000E+00 0. -1.
<scales pt_clust_5="13000.00000" pt_clust_6="13000.00000" pt_clust_7="13000.00000" pt_clust_8="13000.00000" pt_clust_9="114.79550"></scales>
<clustering>
<clus scale="   79.927">  5  6 -1 -1</clus>
<clus scale="   98.725">  7  8 -1 -1</clus>
<clus scale="  108.863">  2  7  1 -1</clus>
<clus scale="  114.796">  1  9  2 -1</clus>
<clus scale="  114.796">  1  5  2 -1</clus>
</clustering>
</event>
<event>
 9    2  0.4883225E-005  0.1092030E+03  0.7546771E-02  0.1264277E+00
         21   -1    0    0  501  502  0.00000000000E+00  0.00000000000E+00  0.58729037722E+02  0.58729037722E+02  0.00000000000E+00 0.  1.
         -1   -1    0    0    0  501 -0.00000000000E+00 -0.00000000000E+00 -0.32794352224E+03  0.32794352224E+03  0.00000000000E+00 0.  1.
         24    2    1    2    0    0 -0.48766020003E+02  0.23257823784E+02 -0.88481565394E+02  0.13326791960E+03  0.83739476391E+02 0.  0.
         23    2    1    2    0    0  0.55850125360E+02 -0.54154879248E+02 -0.68822254409E+02  0.13709122986E+03  0.89473544436E+02 0.  0.
        -13    1    3    3    0    0 -0.50901531649E+02 -0.47073875648E+01 -0.13002494853E+02  0.52746471866E+02  0.00000000000E+00 0.  1.
         14    1    3    3    0    0  0.21355116460E+01  0.27965211349E+02 -0.75479070541E+02  0.80521447736E+02  0.00000000000E+00 0. -1.
        -13    1    4    4    0    0  0.48667961516E+02 -0.73152866730E+02 -0.75360450294E+02  0.11575452413E+03  0.00000000000E+00 0.  1.
         13    1    4    4    0    0  0.71821638434E+01  0.18997987482E+02  0.65381958859E+01  0.21336705727E+02  0.00000000000E+00 0. -1.
         -2    1    1    2    0  502 -0.70841053569E+01  0.30897055464E+02 -0.11191066472E+03  0.11631341050E+03  0.00000000000E+00 0.  1.
<scales pt_clust_5="13000.00000" pt_clust_6="13000.00000" pt_clust_7="13000.00000" pt_clust_8="13000.00000" pt_clust_9="31.69879"></scales>
<clustering>
<clus scale="   31.699">  1  9  2 -1</clus>
<clus scale="   83.739">  5  6 -1 -1</clus>
<clus scale="   89.474">  7  8 -1 -1</clus>
<clus scale="  104.557">  2  5  1 -1</clus>
<clus scale="   31.699">  1  5  2 -1</clus>
</clustering>
</event>
<event>
 9    2  0.4883225E-005  0.9090125E+02  0.7546771E-02  0.1307196E+00
         21   -1    0    0  501  502  0.00000000000E+00  0.00000000000E+00  0.85585114874E+02  0.85585114874E+02  0.00000000000E+00 0.  1.
          2   -1    0    0  502    0 -0.00000000000E+00 -0.00000000000E+00 -0.14031745082E+03  0.14031745082E+03  0.00000000000E+00 0. -1.
         24    2    1    2    0    0 -0.12024890869E+02  0.20042480193E+01 -0.51642607889E+02  0.96544442194E+02  0.80655163247E+02 0.  0.
         23    2    1    2    0    0 -0.23426279295E+02 -0.15175351349E+01 -0.19171308804E+01  0.93884226911E+02  0.90881676907E+02 0.  0.
        -13    1    3    3    0    0 -0.44604424737E+02 -0.87112819938E+01 -0.39337741172E+02  0.60107395724E+02  0.00000000000E+00 0.  1.
         14    1    3    3    0    0  0.32579533869E+02  0.10715530013E+02 -0.12304866716E+02  0.36437046470E+02  0.00000000000E+00 0. -1.
        -11    1    4    4    0    0  0.64569024170E+01  0.33836953691E+02 -0.24604059691E+02  0.42331912043E+02  0.00000000000E+00 0. -1.
         11    1    4    4    0    0 -0.29883181712E+02 -0.35354488826E+02  0.22686928811E+02  0.51552314868E+02  0.00000000000E+00 0.  1.
          1    1    1    2  501    0  0.35451170164E+02 -0.48671288441E+00 -0.11725971808E+01  0.35473896594E+02  0.00000000000E+00 0. -1.
<scales pt_clust_5="13000.00000" pt_clust_6="13000.00000" pt_clust_7="13000.00000" pt_clust_8="13000.00000" pt_clust_9="35.45451"></scales>
<clustering>
<clus scale="   35.455">  1  9  2 -1</clus>
<clus scale="   80.655">  5  6 -1 -1</clus>
<clus scale="   80.677">  2  5  1 -1</clus>
<clus scale="   90.882">  7  8 -1 -1</clus>
<clus scale="   35.455">  1  5  2 -1</clus>
</clustering>
</event>
<event>
 9    2  0.4883225E-005  0.1189883E+03  0.7546771E-02  0.1247729E+00
         -1   -1    0    0    0  501 -0.00000000000E+00  0.00000000000E+00  0.76230645881E+02  0.76230645881E+02  0.00000000000E+00 0.  1.
         21   -1    0    0  501  502  0.00000000000E+00 -0.00000000000E+00 -0.25877188060E+03  0.25877188060E+03  0.00000000000E+00 0. -1.
         23    2    1    2    0    0  0.76925956006E+02 -0.39235956862E+02 -0.58552570305E+02  0.13768156146E+03  0.89837329984E+02 0.  0.
         24    2    1    2    0    0 -0.73514153720E+02  0.33848513069E+01 -0.61597682881E+02  0.12528224806E+03  0.80533093370E+02 0.  0.
        -13    1    4    4    0    0 -0.61183929389E+02 -0.14450001598E+02 -0.31539727055E+01  0.62946193734E+02  0.00000000000E+00 0.  1.
         14    1    4    4    0    0 -0.12330224330E+02  0.17834852905E+02 -0.58443710176E+02  0.62336054329E+02  0.00000000000E+00 0. -1.
        -13    1    3    3    0    0  0.63287677785E+02 -0.55593894154E+02 -0.73391497591E+02  0.11172431761E+03  0.00000000000E+00 0. -1.
         13    1    3    3    0    0  0.13638278221E+02  0.16357937293E+02  0.14838927287E+02  0.25957243851E+02  0.00000000000E+00 0.  1.
         -2    1    1    2    0  502 -0.34118022859E+01  0.35851105555E+02 -0.62390981534E+02  0.72038716959E+02  0.00000000000E+00 0.  1.
<scales pt_clust_5="13000.00000" pt_clust_6="13000.00000" pt_clust_7="13000.00000" pt_clust_8="13000.00000" pt_clust_9="36.01308"></scales>
<clustering>
<clus scale="   36.013">  2  9  1 -1</clus>
<clus scale="   80.533">  5  6 -1 -1</clus>
<clus scale="   89.837">  7  8 -1 -1</clus>
<clus scale="  112.130">  2  5  1 -1</clus>
<clus scale="   36.013">  2  5  1 -1</clus>
</clustering>
</event>
<event>
 9    2  0.4883225E-005  0.9130758E+02  0.7546771E-02  0.1305649E+00
          4   -1    0    0  502    0 -0.00000000000E+00  0.00000000000E+00  0.48344791754E+03  0.48344791754E+03  0.00000000000E+00 0. -1.
         21   -1    0    0  501  502  0.00000000000E+00 -0.00000000000E+00 -0.10427156938E+03  0.10427156938E+03  0.00000000000E+00 0. -1.
         24    2    1    2    0    0  0.14656111020E+02 -0.92114612321E+01  0.40083175246E+03  0.40930579478E+03  0.81027694377E+02 0.  0.
         23    2    1    2    0    0  0.43998107543E+02 -0.94310483788E+01  0.21346286085E+02  0.10333369550E+03  0.90539552439E+02 0.  0.
        -11    1    3    3    0    0  0.77517224701E+01  0.35908464794E+02  0.20075272871E+03  0.20408617084E+03  0.00000000000E+00 0.  1.
         12    1    3    3    0    0  0.69043885501E+01 -0.45119926026E+02  0.20007902375E+03  0.20521962394E+03  0.00000000000E+00 0. -1.
        -13    1    4    4    0    0  0.33949136039E+02 -0.29502026095E+02  0.49792297194E+02  0.67098332628E+02  0.00000000000E+00 0. -1.
         13    1    4    4    0    0  0.10048971504E+02  0.20070977716E+02 -0.28446011109E+02  0.36235362876E+02  0.00000000000E+00 0.  1.
          3    1    1    2  501    0 -0.58654218563E+02  0.18642509611E+02 -0.43001690383E+02  0.75079996642E+02  0.00000000000E+00 0. -1.
<scales pt_clust_5="13000.00000" pt_clust_6="13000.00000" pt_clust_7="13000.00000" pt_clust_8="13000.00000" pt_clust_9="61.54560"></scales>
<clustering>
<clus scale="   61.546">  2  9  1 -1</clus>
<clus scale="   81.028">  5  6 -1 -1</clus>
<clus scale="   81.885">  1  5  2 -1</clus>
<clus scale="   90.540">  7  8 -1 -1</clus>
<clus scale="   61.546">  2  5  1 -1</clus>
</clustering>
</event>
<event>
 9    2  0.4883225E-005  0.1251982E+03  0.7546771E-02  0.1252786E+00
          2   -1    0    0  502    0 -0.00000000000E+00  0.00000000000E+00  0.61204321784E+03  0.61204321784E+03  0.00000000000E+00 0. -1.
         21   -1    0    0  501  502  0.00000000000E+00 -0.00000000000E+00 -0.52349913128E+02  0.52349913128E+02  0.00000000000E+00 0. -1.
         24    2    1    2    0    0  0.30436569682E+02 -0.28709760402E+01  0.37500503815E+03  0.38496730492E+03  0.81464224889E+02 0.  0.
         23    2    1    2    0    0  0.38524745324E+02  0.57028807888E+02  0.13247826577E+03  0.17737379080E+03  0.95783765990E+02 0.  0.
        -11    1    3    3    0    0 -0.16582701625E+02 -0.28503562157E+02  0.12372700181E+03  0.12804612460E+03  0.00000000000E+00 0.  1.
         12    1    3    3    0    0  0.47019271307E+02  0.25632586117E+02  0.25127803635E+03  0.25692118032E+03  0.00000000000E+00 0. -1.
        -13    1    4    4    0    0  0.62214112249E+02  0.67454398960E+02  0.97916153517E+02  0.13419487629E+03  0.00000000000E+00 0. -1.
         13    1    4    4    0    0 -0.23689366924E+02 -0.10425591073E+02  0.34562112257E+02  0.43178914509E+02  0.00000000000E+00 0.  1.
          1    1    1    2  501    0 -0.68961315007E+02 -0.54157831848E+02  0.52210000783E+02  0.10205203525E+03  0.00000000000E+00 0. -1.
<scales pt_clust_5="13000.00000" pt_clust_6="13000.00000" pt_clust_7="13000.00000" pt_clust_8="13000.00000" pt_clust_9="80.62292"></scales>
<clustering>
<clus scale="   81.464">  5  6 -1 -1</clus>
<clus scale="   87.012">  1  5  2 -1</clus>
<clus scale="   80.623">  2  9  1 -1</clus>
<clus scale="   95.784">  7  8 -1 -1</clus>
<clus scale="   80.623">  2  5  1 -1</clus>
</clustering>
</event>
<event>
 9    2  0.5435389E-005  0.9755244E+02  0.7546771E-02  0.1289843E+00
         -1   -1    0    0    0  501 -0.00000000000E+00  0.00000000000E+00  0.23234568762E+03  0.23234568762E+03  0.00000000000E+00 0.  1.
         21   -1    0    0  501  502  0.00000000000E+00 -0.00000000000E+00 -0.11929707784E+03  0.11929707784E+03  0.00000000000E+00 0. -1.
         23    2    1    2    0    0 -0.26101869566E+02 -0.41012983543E+02  0.14940855524E+03  0.18017356178E+03  0.88182898421E+02 0.  0.
         24    2    1    2    0    0  0.12199291788E+02 -0.72142169893E+01 -0.73258921313E+02  0.10917410788E+03  0.79694721491E+02 0.  0.
        -11    1    4    4    0    0 -0.84384985457E+00  0.31235710186E+02 -0.78995496662E+01  0.32230180861E+02  0.00000000000E+00 0.  1.
         12    1    4    4    0    0  0.13043141642E+02 -0.38449927175E+02 -0.65359371647E+02  0.76943927023E+02  0.00000000000E+00 0. -1.
        -11    1    3    3    0    0  0.19930923313E+01 -0.64164025562E+02  0.99080884620E+02  0.11805937612E+03  0.00000000000E+00 0.  1.
         11    1    3    3    0    0 -0.28094961898E+02  0.23151042019E+02  0.50327670619E+02  0.62114185662E+02  0.00000000000E+00 0. -1.
         -2    1    1    2    0  502  0.13902577779E+02  0.48227200532E+02  0.36898975853E+02  0.62295095787E+02  0.00000000000E+00 0.  1.
<scales pt_clust_5="13000.00000" pt_clust_6="13000.00000" pt_clust_7="13000.00000" pt_clust_8="13000.00000" pt_clust_9="50.19111"></scales>
<clustering>
<clus scale="   50.191">  2  9  1 -1</clus>
<clus scale="   79.695">  5  6 -1 -1</clus>
<clus scale="   88.183">  7  8 -1 -1</clus>
<clus scale="   89.953">  2  5  1 -1</clus>
<clus scale="   50.191">  2  5  1 -1</clus>
</clustering>
</event>
<event>
 9    2  0.4883225E-005  0.1057850E+03  0.7546771E-02  0.1272631E+00
          2   -1    0    0  502    0 -0.00000000000E+00  0.00000000000E+00  0.68013102385E+02  0.68013102385E+02  0.00000000000E+00 0. -1.
         21   -1    0    0  501  502  0.00000000000E+00 -0.00000000000E+00 -0.32822847233E+03  0.32822847233E+03  0.00000000000E+00 0. -1.
         24    2    1    2    0    0  0.14216086973E+02  0.62009419838E+02 -0.24044865794E+02  0.10619470842E+03  0.81559151841E+02 0.  0.
         23    2    1    2    0    0 -0.18982589751E+02 -0.36129594481E+02 -0.70020851195E+02  0.12182620143E+03  0.90956129212E+02 0.  0.
        -13    1    3    3    0    0 -0.21565120927E+02  0.22053255153E+01 -0.29138800546E+02  0.36317868859E+02  0.00000000000E+00 0.  1.
         14    1    3    3    0    0  0.35781207900E+02  0.59804094322E+02  0.50939347518E+01  0.69876839566E+02  0.00000000000E+00 0. -1.
        -11    1    4    4    0    0 -0.14607714580E+02 -0.66932136874E+02 -0.50304866927E+02  0.84993387439E+02  0.00000000000E+00 0.  1.
         11    1    4    4    0    0 -0.43748751710E+01  0.30802542394E+02 -0.19715984268E+02  0.36832813989E+02  0.00000000000E+00 0. -1.
          1    1    1    2  501    0  0.47665027776E+01 -0.25879825357E+02 -0.16614965295E+03  0.16822066486E+03  0.00000000000E+00 0. -1.
<scales pt_clust_5="13000.00000" pt_clust_6="13000.00000" pt_clust_7="13000.00000" pt_clust_8="13000.00000" pt_clust_9="26.31511"></scales>
<clustering>
<clus scale="   26.315">  2  9  1 -1</clus>
<clus scale="   81.559">  5  6 -1 -1</clus>
<clus scale="   90.956">  7  8 -1 -1</clus>
<clus scale="   97.823">  1  5  2 -1</clus>
<clus scale="   26.315">  2  5  1 -1</clus>
</clustering>
</event>
<event>
 9    2  0.4883225E-005  0.1380395E+03  0.7546771E-02  0.1217818E+00
         -1   -1    0    0    0  501 -0.00000000000E+00  0.00000000000E+00  0.28744014945E+03  0.28744014945E+03  0.00000000000E+00 0.  1.
         21   -1    0    0  501  502  0.00000000000E+00 -0.00000000000E+00 -0.39473320240E+03  0.39473320240E+03  0.00000000000E+00 0.  1.
         24    2    1    2    0    0  0.75380402728E+02 -0.72846785561E+02  0.22430003802E+03  0.26151936275E+03  0.84220013987E+02 0.  0.
         23    2    1    2    0    0 -0.69185827586E+02  0.17595903921E+02 -0.34438940663E+03  0.36360332410E+03  0.92233504353E+02 0.  0.
        -13    1    3    3    0    0  0.72688706404E+02 -0.67006837919E+02  0.11344107490E+03  0.15047405704E+03  0.00000000000E+00 0.  1.
         14    1    3    3    0    0  0.26916963242E+01 -0.58399476417E+01  0.11085896311E+03  0.11104530571E+03  0.00000000000E+00 0. -1.
        -13    1    4    4    0    0 -0.10573635958E+02  0.45783537885E+02 -0.96619244145E+02  0.10743934316E+03  0.00000000000E+00 0. -1.
         13    1    4    4    0    0 -0.58612191628E+02 -0.28187633965E+02 -0.24777016249E+03  0.25616398095E+03  0.00000000000E+00 0.  1.
         -2    1    1    2    0  502 -0.61945751417E+01  0.55250881640E+02  0.12796315663E+02  0.57050665007E+02  0.00000000000E+00 0.  1.
<scales pt_clust_5="13000.00000" pt_clust_6="13000.00000" pt_clust_7="13000.00000" pt_clust_8="13000.00000" pt_clust_9="55.59708"></scales>
<clustering>
<clus scale="   55.597">  2  9  1 -1</clus>
<clus scale="   84.220">  5  6 -1 -1</clus>
<clus scale="   92.234">  7  8 -1 -1</clus>
<clus scale="  132.819">  1  5  2 -1</clus>
<clus scale="   55.597">  2  5  1 -1</clus>
</clustering>
</event>
<event>
 9    2  0.4883225E-005  0.1140882E+03  0.7546771E-02  0.1257284E+00
         21   -1    0    0  501  502  0.00000000000E+00  0.00000000000E+00  0.26548042858E+03  0.26548042858E+03  0.00000000000E+00 0. -1.
          2   -1    0    0  502    0 -0.00000000000E+00 -0.00000000000E+00 -0.59757836088E+02  0.59757836088E+02  0.00000000000E+00 0. -1.
         23    2    1    2    0    0  0.48810137964E+02  0.37778929944E+02  0.78205139987E+02  0.13520915952E+03  0.91410042025E+02 0.  0.
         24    2    1    2    0    0 -0.69985899472E+02 -0.34680931516E+02  0.12616213860E+03  0.16858505363E+03  0.80020259659E+02 0.  0.
        -13    1    4    4    0    0 -0.29681117409E+00 -0.39949876682E+02  0.31267150135E+02  0.50731798917E+02  0.00000000000E+00 0.  1.
         14    1    4    4    0    0 -0.69689088298E+02  0.52689451659E+01  0.94894988464E+02  0.11785325471E+03  0.00000000000E+00 0. -1.
        -11    1    3    3    0    0  0.96130762229E+01 -0.18425269510E+02  0.61165760109E+02  0.64599938086E+02  0.00000000000E+00 0. -1.
         11    1    3    3    0    0  0.39197061741E+02  0.56204199454E+02  0.17039379878E+02  0.70609221438E+02  0.00000000000E+00 0.  1.
          1    1    1    2  501    0  0.21175761508E+02 -0.30979984279E+01  0.13553139096E+01  0.21444051518E+02  0.00000000000E+00 0. -1.
<scales pt_clust_5="13000.00000" pt_clust_6="13000.00000" pt_clust_7="13000.00000" pt_clust_8="13000.00000" pt_clust_9="21.40119"></scales>
<clustering>
<clus scale="   21.401">  1  9  2 -1</clus>
<clus scale="   80.020">  5  6 -1 -1</clus>
<clus scale="   91.410">  7  8 -1 -1</clus>
<clus scale="  105.183">  1  5  2 -1</clus>
<clus scale="   21.401">  1  5  2 -1</clus>
</clustering>
</event>
<event>
 9    2  0.4883225E-005  0.2296496E+03  0.7546771E-02  0.1161509E+00
         21   -1    0    0  501  502  0.00000000000E+00  0.00000000000E+00  0.99344385051E+02  0.99344385051E+02  0.00000000000E+00 0. -1.
          2   -1    0    0  502    0 -0.00000000000E+00 -0.00000000000E+00 -0.12781989632E+04  0.12781989632E+04  0.00000000000E+00 0. -1.
         24    2    1    2    0    0 -0.23479042265E+02 -0.55420508817E+02 -0.73820770512E+01  0.10050381933E+03  0.80148764276E+02 0.  0.
         23    2    1    2    0    0  0.10018669666E+03 -0.17643149440E+03 -0.30006994091E+03  0.37206337589E+03  0.84992586965E+02 0.  0.
        -13    1    3    3    0    0 -0.49698254118E+02 -0.32435076561E+02  0.12093108689E+02  0.60565616744E+02  0.00000000000E+00 0.  1.
         14    1    3    3    0    0  0.26219211852E+02 -0.22985432256E+02 -0.19475185740E+02  0.39938202585E+02  0.00000000000E+00 0. -1.
        -11    1    4    4    0    0  0.28397126932E+02 -0.40981930598E+02 -0.21915967421E+02  0.54463061625E+02  0.00000000000E+00 0. -1.
         11    1    4    4    0    0  0.71789569730E+02 -0.13544956381E+03 -0.27815397348E+03  0.31760031427E+03  0.00000000000E+00 0.  1.
          1    1    1    2  501    0 -0.76707654397E+02  0.23185200322E+03 -0.87140256015E+03  0.90497615299E+03  0.00000000000E+00 0. -1.
<scales pt_clust_5="13000.00000" pt_clust_6="13000.00000" pt_clust_7="13000.00000" pt_clust_8="13000.00000" pt_clust_9="213.34304"></scales>
<clustering>
<clus scale="   80.149">  5  6 -1 -1</clus>
<clus scale="   84.993">  7  8 -1 -1</clus>
<clus scale="  100.232">  2  5  1 -1</clus>
<clus scale="  213.343">  1  9  2 -1</clus>
<clus scale="  213.343">  1  5  2 -1</clus>
</clustering>
</event>
<event>
 9    2  0.4883225E-005  0.1424031E+03  0.7546771E-02  0.1229853E+00
         21   -1    0    0  501  502  0.00000000000E+00  0.00000000000E+00  0.21484533068E+03  0.21484533068E+03  0.00000000000E+00 0. -1.
          4   -1    0    0  502    0 -0.00000000000E+00 -0.00000000000E+00 -0.21543680167E+03  0.21543680167E+03  0.00000000000E+00 0. -1.
         23    2    1    2    0    0  0.18212427426E+02 -0.18615789984E+02 -0.20921800143E+02  0.96413975234E+02  0.90441653842E+02 0.  0.
         24    2    1    2    0    0  0.15415284771E+02  0.13225943533E+03 -0.85186709049E+02  0.17518751398E+03  0.75522847003E+02 0.  0.
        -13    1    4    4    0    0  0.39448940671E+02  0.34727262494E+02 -0.31877558136E+02  0.61468531731E+02  0.00000000000E+00 0.  1.
         14    1    4    4    0    0 -0.24033655900E+02  0.97532172833E+02 -0.53309150913E+02  0.11371898225E+03  0.00000000000E+00 0. -1.
        -11    1    3    3    0    0  0.16242949683E+02  0.27561791596E+02  0.17360789387E+02  0.36398939250E+02  0.00000000000E+00 0. -1.
         11    1    3    3    0    0  0.19694777436E+01 -0.46177581579E+02 -0.38282589530E+02  0.60015035985E+02  0.00000000000E+00 0.  1.
          3    1    1    2  501    0 -0.33627712197E+02 -0.11364364534E+03  0.10551703820E+03  0.15868064313E+03  0.00000000000E+00 0. -1.
<scales pt_clust_5="13000.00000" pt_clust_6="13000.00000" pt_clust_7="13000.00000" pt_clust_8="13000.00000" pt_clust_9="120.72672"></scales>
<clustering>
<clus scale="   75.523">  5  6 -1 -1</clus>
<clus scale="   90.442">  7  8 -1 -1</clus>
<clus scale="   94.117">  2  7  1 -1</clus>
<clus scale="  120.727">  1  9  2 -1</clus>
<clus scale="  120.727">  1  5  2 -1</clus>
</clustering>
</event>
<event>
 9    2  0.4883225E-005  0.9871442E+02  0.7546771E-02  0.1287908E+00
          2   -1    0    0  502    0 -0.00000000000E+00  0.00000000000E+00  0.35449844270E+03  0.35449844270E+03  0.00000000000E+00 0. -1.
         21   -1    0    0  501  502  0.00000000000E+00 -0.00000000000E+00 -0.52683585409E+02  0.52683585409E+02  0.00000000000E+00 0. -1.
         23    2    1    2    0    0  0.35942171734E+02 -0.48463151828E+02  0.22209010904E+03  0.24703318905E+03  0.89782309864E+02 0.  0.
         24    2    1    2    0    0 -0.13416339809E+02 -0.44406659112E+01  0.48333789321E+02  0.94638386934E+02  0.80128343324E+02 0.  0.
        -13    1    4    4    0    0  0.18277647764E+02 -0.26055859685E+02  0.46348177773E+02  0.56223961214E+02  0.00000000000E+00 0.  1.
         14    1    4    4    0    0 -0.31693987573E+02  0.21615193774E+02  0.19856115473E+01  0.38414425720E+02  0.00000000000E+00 0. -1.
        -13    1    3    3    0    0  0.14852569676E+02 -0.72610076853E+02  0.13163895527E+03  0.15106831776E+03  0.00000000000E+00 0. -1.
         13    1    3    3    0    0  0.21089602057E+02  0.24146925025E+02  0.90451153768E+02  0.95964871286E+02  0.00000000000E+00 0.  1.
          1    1    1    2  501    0 -0.22525831925E+02  0.52903817739E+02  0.31390958934E+02  0.65510452128E+02  0.00000000000E+00 0. -1.
<scales pt_clust_5="13000.00000" pt_clust_6="13000.00000" pt_clust_7="13000.00000" pt_clust_8="13000.00000" pt_clust_9="57.49980"></scales>
<clustering>
<clus scale="   57.500">  2  9  1 -1</clus>
<clus scale="   80.128">  5  6 -1 -1</clus>
<clus scale="   89.782">  7  8 -1 -1</clus>
<clus scale="   90.023">  2  5  1 -1</clus>
<clus scale="   57.500">  2  5  1 -1</clus>
</clustering>
</event>
<event>
 9    2  0.4883225E-005  0.1009866E+03  0.7546771E-02  0.1284041E+00
          2   -1    0    0  502    0 -0.00000000000E+00  0.00000000000E+00  0.17404739433E+03  0.17404739433E+03  0.00000000000E+00 0. -1.
         21   -1    0    0  501  502  0.00000000000E+00 -0.00000000000E+00 -0.11318300170E+03  0.11318300170E+03  0.00000000000E+00 0. -1.
         23    2    1    2    0    0 -0.32782328945E+02 -0.47343453299E+02  0.74663623682E+02  0.13099453505E+03  0.90933095460E+02 0.  0.
         24    2    1    2    0    0  0.32998592004E+02  0.10639409353E+02  0.36703328875E+02  0.93803960712E+02  0.79056591055E+02 0.  0.
        -11    1    4    4    0    0  0.10268134988E+01  0.35301946403E+02  0.39916869001E+02  0.53297637815E+02  0.00000000000E+00 0.  1.
         12    1    4    4    0    0  0.31971778505E+02 -0.24662537050E+02 -0.32135401266E+01  0.40506322897E+02  0.00000000000E+00 0. -1.
        -13    1    3    3    0    0  0.28869462136E+02  0.15940094229E+01  0.19433297928E+02  0.34837333113E+02  0.00000000000E+00 0.  1.
         13    1    3    3    0    0 -0.61651791081E+02 -0.48937462722E+02  0.55230325754E+02  0.96157201935E+02  0.00000000000E+00 0. -1.
          1    1    1    2  501    0 -0.21626305917E+00  0.36704043946E+02 -0.50502559923E+02  0.62431900264E+02  0.00000000000E+00 0. -1.
<scales pt_clust_5="13000.00000" pt_clust_6="13000.00000" pt_clust_7="13000.00000" pt_clust_8="13000.00000" pt_clust_9="36.70468"></scales>
<clustering>
<clus scale="   36.705">  2  9  1 -1</clus>
<clus scale="   79.057">  5  6 -1 -1</clus>
<clus scale="   90.440">  2  5  1 -1</clus>
<clus scale="   90.933">  7  8 -1 -1</clus>
<clus scale="   36.705">  2  5  1 -1</clus>
</clustering>
</event>
<event>
 9    2  0.4883225E-005  0.2948522E+03  0.7546771E-02  0.1087843E+00
         21   -1    0    0  501  502  0.00000000000E+00  0.00000000000E+00  0.11149535312E+03  0.11149535312E+03  0.00000000000E+00 0. -1.
          2   -1    0    0  502    0 -0.00000000000E+00 -0.00000000000E+00 -0.75435535544E+03  0.75435535544E+03  0.00000000000E+00 0. -1.
         24    2    1    2    0    0  0.43897221960E+02 -0.92213059342E+02 -0.29099862950E+03  0.32023047668E+03  0.86238862534E+02 0.  0.
         23    2    1    2    0    0 -0.51890349827E+02 -0.11881449202E+03 -0.28025903954E+03  0.32263276215E+03  0.93473408237E+02 0.  0.
        -11    1    3    3    0    0  0.21099817999E+02 -0.62274620390E+02 -0.69949998802E+02  0.96001734342E+02  0.00000000000E+00 0.  1.
         12    1    3    3    0    0  0.22797403961E+02 -0.29938438952E+02 -0.22104863070E+03  0.22422874233E+03  0.00000000000E+00 0. -1.
        -11    1    4    4    0    0 -0.29957141192E+02 -0.11941429335E+03 -0.27307545464E+03  0.29954533495E+03  0.00000000000E+00 0. -1.
         11    1    4    4    0    0 -0.21933208635E+02  0.59980132931E+00 -0.71835849066E+01  0.23087427201E+02  0.00000000000E+00 0.  1.
          1    1    1    2  501    0  0.79931278676E+01  0.21102755137E+03 -0.71602333281E+02  0.22298746974E+03  0.00000000000E+00 0. -1.
<scales pt_clust_5="13000.00000" pt_clust_6="13000.00000" pt_clust_7="13000.00000" pt_clust_8="13000.00000" pt_clust_9="211.17888"></scales>
<clustering>
<clus scale="   86.239">  5  6 -1 -1</clus>
<clus scale="   93.473">  7  8 -1 -1</clus>
<clus scale="  129.026">  5  7 -1 -1</clus>
<clus scale="  211.179">  1  9  2 -1</clus>
<clus scale="  211.179">  1  5  2 -1</clus>
</clustering>
</event>
<event>
 9    2  0.4883225E-005  0.2052425E+03  0.7546771E-02  0.1146362E+00
          2   -1    0    0  502    0 -0.00000000000E+00  0.00000000000E+00  0.32475695789E+03  0.32475695789E+03  0.00000000000E+00 0. -1.
         21   -1    0    0  501  502  0.00000000000E+00 -0.00000000000E+00 -0.19378977491E+03  0.19378977491E+03  0.00000000000E+00 0.  1.
         23    2    1    2    0    0 -0.31669844512E+02  0.17604162748E+03  0.17995959042E+03  0.26887534833E+03  0.88965527593E+02 0.  0.
         24    2    1    2    0    0  0.48500360291E+02 -0.19741116528E+03 -0.41730415294E+02  0.22151716742E+03  0.77491772304E+02 0.  0.
        -11    1    4    4    0    0  0.47191706585E+02 -0.76376534204E+02  0.90913481171E+01  0.90239042316E+02  0.00000000000E+00 0.  1.
         12    1    4    4    0    0  0.13086537056E+01 -0.12103463108E+03 -0.50821763411E+02  0.13127812510E+03  0.00000000000E+00 0. -1.
        -11    1    3    3    0    0 -0.61075074717E+02  0.11031052820E+03  0.13084814336E+03  0.18171354931E+03  0.00000000000E+00 0.  1.
         11    1    3    3    0    0  0.29405230206E+02  0.65731099280E+02  0.49111447063E+02  0.87161799021E+02  0.00000000000E+00 0. -1.
          1    1    1    2  501    0 -0.16830515779E+02  0.21369537799E+02 -0.72619921467E+01  0.28154217039E+02  0.00000000000E+00 0. -1.
<scales pt_clust_5="13000.00000" pt_clust_6="13000.00000" pt_clust_7="13000.00000" pt_clust_8="13000.00000" pt_clust_9="27.20153"></scales>
<clustering>
<clus scale="   27.202">  2  9  1 -1</clus>
<clus scale="   77.492">  5  6 -1 -1</clus>
<clus scale="   88.966">  7  8 -1 -1</clus>
<clus scale="  200.536">  2  5  1 -1</clus>
<clus scale="   27.202">  2  5  1 -1</clus>
</clustering>
</event>
<event>
 9    2  0.4883225E-005  0.9229445E+02  0.7546771E-02  0.1306945E+00
          2   -1    0    0  502    0 -0.00000000000E+00  0.00000000000E+00  0.46350582708E+03  0.46350582708E+03  0.00000000000E+00 0. -1.
         21   -1    0    0  501  502  0.00000000000E+00 -0.00000000000E+00 -0.19555826993E+03  0.19555826993E+03  0.00000000000E+00 0.  1.
         24    2    1    2    0    0  0.27672584412E+01 -0.66085374286E+01  0.43979118595E+03  0.44654661146E+03  0.77047118598E+02 0.  0.
         23    2    1    2    0    0 -0.10919426870E+02  0.25424390927E+02 -0.10364840480E+03  0.14130595019E+03  0.91971442319E+02 0.  0.
        -13    1    3    3    0    0 -0.20862164972E+02  0.25545452626E+02  0.12668126169E+03  0.13090432438E+03  0.00000000000E+00 0.  1.
         14    1    3    3    0    0  0.23629423413E+02 -0.32153990055E+02  0.31310992425E+03  0.31564228708E+03  0.00000000000E+00 0. -1.
        -11    1    4    4    0    0  0.42110588338E+01 -0.33982243495E+02 -0.44194567358E+02  0.55907831951E+02  0.00000000000E+00 0. -1.
         11    1    4    4    0    0 -0.15130485704E+02  0.59406634422E+02 -0.59453837446E+02  0.85398118235E+02  0.00000000000E+00 0.  1.
          1    1    1    2  501    0  0.81521684290E+01 -0.18815853498E+02 -0.68195223993E+02  0.71211535360E+02  0.00000000000E+00 0. -1.
<scales pt_clust_5="13000.00000" pt_clust_6="13000.00000" pt_clust_7="13000.00000" pt_clust_8="13000.00000" pt_clust_9="20.50596"></scales>
<clustering>
<clus scale="   20.506">  2  9  1 -1</clus>
<clus scale="   77.047">  5  6 -1 -1</clus>
<clus scale="   77.432">  1  5  2 -1</clus>
<clus scale="   91.971">  7  8 -1 -1</clus>
<clus scale="   20.506">  2  5  1 -1</clus>
</clustering>
</event>
<event>
 9    2  0.4883225E-005  0.1431431E+03  0.7546771E-02  0.1228077E+00
         21   -1    0    0  501  502  0.00000000000E+00  0.00000000000E+00  0.12179771693E+03  0.12179771693E+03  0.00000000000E+00 0. -1.
          2   -1    0    0  502    0 -0.00000000000E+00 -0.00000000000E+00 -0.37041266800E+03  0.37041266800E+03  0.00000000000E+00 0. -1.
         23    2    1    2    0    0  0.16280164046E+02  0.27852710762E+01  0.32420493510E+02  0.10145245850E+03  0.94703281149E+02 0.  0.
         24    2    1    2    0    0  0.89497110526E+02 -0.64581778821E+02 -0.20585523522E+03  0.24702308700E+03  0.80395825109E+02 0.  0.
        -13    1    4    4    0    0  0.42880208972E+02 -0.16017720012E+02 -0.21132956065E+02  0.50417075558E+02  0.00000000000E+00 0.  1.
         14    1    4    4    0    0  0.46616901554E+02 -0.48564058809E+02 -0.18472227915E+03  0.19660601144E+03  0.00000000000E+00 0. -1.
        -13    1    3    3    0    0  0.55556285931E+02  0.69796020903E+01  0.13214458313E+02  0.57531188588E+02  0.00000000000E+00 0.  1.
         13    1    3    3    0    0 -0.39276121885E+02 -0.41943310141E+01  0.19206035197E+02  0.43921269915E+02  0.00000000000E+00 0. -1.
          1    1    1    2  501    0 -0.10577727457E+03  0.61796507745E+02 -0.75180209362E+02  0.14373483943E+03  0.00000000000E+00 0. -1.
<scales pt_clust_5="13000.00000" pt_clust_6="13000.00000" pt_clust_7="13000.00000" pt_clust_8="13000.00000" pt_clust_9="118.43333"></scales>
<clustering>
<clus scale="   80.396">  5  6 -1 -1</clus>
<clus scale="   94.703">  7  8 -1 -1</clus>
<clus scale="   96.133">  2  7  1 -1</clus>
<clus scale="  118.433">  1  9  2 -1</clus>
<clus scale="  118.433">  1  5  2 -1</clus>
</clustering>
</event>
<event>
 9    2  0.4883225E-005  0.1790068E+03  0.7546771E-02  0.1170547E+00
         21   -1    0    0  501  502  0.00000000000E+00  0.00000000000E+00  0.23432417106E+03  0.23432417106E+03  0.00000000000E+00 0. -1.
          2   -1    0    0  502    0 -0.00000000000E+00 -0.00000000000E+00 -0.44607451460E+03  0.44607451460E+03  0.00000000000E+00 0. -1.
         24    2    1    2    0    0 -0.91440390339E+02  0.10783122167E+03 -0.21843921679E+03  0.27218737015E+03  0.79883388010E+02 0.  0.
         23    2    1    2    0    0  0.16636898332E+02 -0.20976880235E+03 -0.91553293835E+02  0.24809149737E+03  0.94274326454E+02 0.  0.
        -11    1    3    3    0    0 -0.72174772430E+00  0.42923921562E+02 -0.27285505972E+02  0.50867305789E+02  0.00000000000E+00 0.  1.
         12    1    3    3    0    0 -0.90718642615E+02  0.64907300112E+02 -0.19115371082E+03  0.22132006436E+03  0.00000000000E+00 0. -1.
        -11    1    4    4    0    0  0.89253482487E+01 -0.97678329184E+02  0.74128132216E+01  0.98364971577E+02  0.00000000000E+00 0. -1.
         11    1    4    4    0    0  0.77115500831E+01 -0.11209047317E+03 -0.98966107057E+02  0.14972652579E+03  0.00000000000E+00 0.  1.
          1    1    1    2  501    0  0.74803492007E+02  0.10193758068E+03  0.98242167084E+02  0.16011981815E+03  0.00000000000E+00 0. -1.
<scales pt_clust_5="13000.00000" pt_clust_6="13000.00000" pt_clust_7="13000.00000" pt_clust_8="13000.00000" pt_clust_9="126.43905"></scales>
<clustering>
<clus scale="   79.883">  5  6 -1 -1</clus>
<clus scale="   94.274">  7  8 -1 -1</clus>
<clus scale="  126.439">  1  9  2 -1</clus>
<clus scale="  171.864">  2  5  1 -1</clus>
<clus scale="  126.439">  1  5  2 -1</clus>
</clustering>
</event>
<event>
 9    2  0.4883225E-005  0.1069549E+03  0.7546771E-02  0.1268821E+00
          2   -1    0    0  502    0 -0.00000000000E+00  0.00000000000E+00  0.15519268262E+03  0.15519268262E+03  0.00000000000E+00 0. -1.
         21   -1    0    0  501  502  0.00000000000E+00 -0.00000000000E+00 -0.16403235668E+03  0.16403235668E+03  0.00000000000E+00 0. -1.
         24    2    1    2    0    0  0.16317321309E+02  0.58953114560E+02  0.45606543963E+02  0.12353985861E+03  0.97161798682E+02 0.  0.
         23    2    1    2    0    0  0.30964015954E+02 -0.28535347651E+02  0.19665348447E+02  0.10266212074E+03  0.91540967635E+02 0.  0.
        -13    1    3    3    0    0  0.26782942993E+02  0.66962430958E+02  0.66982849149E+02  0.98427614394E+02  0.00000000000E+00 0.  1.
         14    1    3    3    0    0 -0.10465621684E+02 -0.80093163975E+01 -0.21376305186E+02  0.25112244220E+02  0.00000000000E+00 0. -1.
        -13    1    4    4    0    0 -0.25047381780E+02 -0.25689078281E+02 -0.12518405099E+02  0.38000138726E+02  0.00000000000E+00 0.  1.
         13    1    4    4    0    0  0.56011397734E+02 -0.28462693701E+01  0.32183753547E+02  0.64661982013E+02  0.00000000000E+00 0. -1.
          1    1    1    2  501    0 -0.47281337263E+02 -0.30417766909E+02 -0.74111566466E+02  0.93023059943E+02  0.00000000000E+00 0. -1.
<scales pt_clust_5="13000.00000" pt_clust_6="13000.00000" pt_clust_7="13000.00000" pt_clust_8="13000.00000" pt_clust_9="56.22068"></scales>
<clustering>
<clus scale="   56.221">  2  9  1 -1</clus>
<clus scale="   91.541">  7  8 -1 -1</clus>
<clus scale="   97.162">  5  6 -1 -1</clus>
<clus scale="  101.876">  2  7  1 -1</clus>
<clus scale="   56.221">  2  5  1 -1</clus>
</clustering>
</event>
<event>
 9    2  0.4883225E-005  0.1065445E+03  0.7546771E-02  0.1270198E+00
         21   -1    0    0  501  502  0.00000000000E+00  0.00000000000E+00  0.87948917842E+02  0.87948917842E+02  0.00000000000E+00 0. -1.
          2   -1    0    0  502    0 -0.00000000000E+00 -0.00000000000E+00 -0.25788902069E+03  0.25788902069E+03  0.00000000000E+00 0. -1.
         23    2    1    2    0    0 -0.77113422523E+02  0.27749333920E+02 -0.10665365744E+03  0.16099569602E+03  0.88476584625E+02 0.  0.
         24    2    1    2    0    0  0.37008736866E+02  0.37920177077E+02 -0.34308522816E+02  0.10261943251E+03  0.80907890577E+02 0.  0.
        -11    1    4    4    0    0  0.30406316660E+02 -0.15652810093E+02 -0.34588072554E+02  0.48640408301E+02  0.00000000000E+00 0.  1.
         12    1    4    4    0    0  0.66024202062E+01  0.53572987170E+02  0.27954973781E+00  0.53979024213E+02  0.00000000000E+00 0. -1.
        -11    1    3    3    0    0 -0.79679545249E+01  0.28318588950E+02  0.48266749950E+01  0.29811534192E+02  0.00000000000E+00 0.  1.
         11    1    3    3    0    0 -0.69145467998E+02 -0.56925502975E+00 -0.11148033243E+03  0.13118416183E+03  0.00000000000E+00 0. -1.
          1    1    1    2  501    0  0.40104685657E+02 -0.65669510997E+02 -0.28977922601E+02  0.82222810001E+02  0.00000000000E+00 0. -1.
<scales pt_clust_5="13000.00000" pt_clust_6="13000.00000" pt_clust_7="13000.00000" pt_clust_8="13000.00000" pt_clust_9="76.94719"></scales>
<clustering>
<clus scale="   76.947">  1  9  2 -1</clus>
<clus scale="   80.908">  5  6 -1 -1</clus>
<clus scale="   88.477">  7  8 -1 -1</clus>
<clus scale="  100.348">  1  5  2 -1</clus>
<clus scale="   76.947">  1  5  2 -1</clus>
</clustering>
</event>
<event>
 9    2  0.4883225E-005  0.9079081E+02  0.7546771E-02  0.1307046E+00
         21   -1    0    0  501  502  0.00000000000E+00  0.00000000000E+00  0.24606691328E+02  0.24606691328E+02  0.00000000000E+00 0.  1.
          2   -1    0    0  502    0 -0.00000000000E+00 -0.00000000000E+00 -0.67074839875E+03  0.67074839875E+03  0.00000000000E+00 0. -1.
         24    2    1    2    0    0 -0.96813619947E+01 -0.13875977241E+02 -0.36455296333E+03  0.37382633543E+03  0.80999965902E+02 0.  0.
         23    2    1    2    0    0 -0.35306349658E+02 -0.19330843936E+02 -0.17357554757E+03  0.19990047753E+03  0.90617384353E+02 0.  0.
        -11    1    3    3    0    0  0.28324946992E+02 -0.28530924393E+02 -0.22002264589E+03  0.22366555607E+03  0.00000000000E+00 0.  1.
         12    1    3    3    0    0 -0.38006308987E+02  0.14654947151E+02 -0.14453031744E+03  0.15016077936E+03  0.00000000000E+00 0. -1.
        -11    1    4    4    0    0  0.22580713737E+01 -0.20078435014E+02  0.20428103115E+01  0.20308015977E+02  0.00000000000E+00 0.  1.
         11    1    4    4    0    0 -0.37564421032E+02  0.74759107833E+00 -0.17561835788E+03  0.17959246155E+03  0.00000000000E+00 0. -1.
          1    1    1    2  501    0  0.44987711653E+02  0.33206821177E+02 -0.10801319652E+03  0.12162827712E+03  0.00000000000E+00 0. -1.
<scales pt_clust_5="13000.00000" pt_clust_6="13000.00000" pt_clust_7="13000.00000" pt_clust_8="13000.00000" pt_clust_9="55.91589"></scales>
<clustering>
<clus scale="   55.916">  1  9  2 -1</clus>
<clus scale="   81.000">  5  6 -1 -1</clus>
<clus scale="   81.194">  2  5  1 -1</clus>
<clus scale="   90.617">  7  8 -1 -1</clus>
<clus scale="   55.916">  1  5  2 -1</clus>
</clustering>
</event>
<event>
 9    2  0.4883225E-005  0.1094025E+03  0.7546771E-02  0.1264899E+00
         21   -1    0    0  501  502  0.00000000000E+00  0.00000000000E+00  0.17979041249E+03  0.17979041249E+03  0.00000000000E+00 0.  1.
          4   -1    0    0  502    0 -0.00000000000E+00 -0.00000000000E+00 -0.52191965341E+03  0.52191965341E+03  0.00000000000E+00 0. -1.
         24    2    1    2    0    0  0.48764666516E+02  0.40879354081E+02 -0.47684411135E+03  0.48784426778E+03  0.81009930120E+02 0.  0.
         23    2    1    2    0    0 -0.71664080528E+02  0.24564795011E+01  0.76377859774E+02  0.13767141220E+03  0.89320017600E+02 0.  0.
        -11    1    3    3    0    0  0.45440917735E+02 -0.10589454681E+02 -0.15422117248E+03  0.16112474545E+03  0.00000000000E+00 0.  1.
         12    1    3    3    0    0  0.33237487811E+01  0.51468808762E+02 -0.32262293888E+03  0.32671952233E+03  0.00000000000E+00 0. -1.
        -11    1    4    4    0    0 -0.27926511072E+02  0.39540178653E+02  0.90720595303E+01  0.49250563578E+02  0.00000000000E+00 0. -1.
         11    1    4    4    0    0 -0.43737569456E+02 -0.37083699152E+02  0.67305800244E+02  0.88420848623E+02  0.00000000000E+00 0.  1.
          3    1    1    2  501    0  0.22899414012E+02 -0.43335833582E+02  0.58337010656E+02  0.76194385926E+02  0.00000000000E+00 0. -1.
<scales pt_clust_5="13000.00000" pt_clust_6="13000.00000" pt_clust_7="13000.00000" pt_clust_8="13000.00000" pt_clust_9="49.01406"></scales>
<clustering>
<clus scale="   49.014">  1  9  2 -1</clus>
<clus scale="   81.010">  5  6 -1 -1</clus>
<clus scale="   89.320">  7  8 -1 -1</clus>
<clus scale="  102.730">  2  5  1 -1</clus>
<clus scale="   49.014">  1  5  2 -1</clus>
</clustering>
</event>
<event>
 9    2  0.4883225E-005  0.2100292E+03  0.7546771E-02  0.1183712E+00
          2   -1    0    0  502    0 -0.00000000000E+00  0.00000000000E+00  0.21592589272E+03  0.21592589272E+03  0.00000000000E+00 0. -1.
         21   -1    0    0  501  502  0.00000000000E+00 -0.00000000000E+00 -0.34425929355E+03  0.34425929355E+03  0.00000000000E+00 0. -1.
         24    2    1    2    0    0 -0.30025669963E+01  0.18959308387E+02 -0.13936804820E+03  0.16021560775E+03  0.76662359243E+02 0.  0.
         23    2    1    2    0    0  0.94034417434E+02  0.15040867915E+03  0.37816422152E+02  0.20583154398E+03  0.97320605661E+02 0.  0.
        -11    1    3    3    0    0  0.23859834477E+02 -0.16995708722E+02 -0.83881407930E+02  0.88849515545E+02  0.00000000000E+00 0.  1.
         12    1    3    3    0    0 -0.26862401473E+02  0.35955017110E+02 -0.55486640268E+02  0.71366092204E+02  0.00000000000E+00 0. -1.
        -13    1    4    4    0    0 -0.18807264144E+02  0.95850266757E+01 -0.14276129487E+01  0.21157126452E+02  0.00000000000E+00 0.  1.
         13    1    4    4    0    0  0.11284168158E+03  0.14082365248E+03  0.39244035100E+02  0.18467441753E+03  0.00000000000E+00 0. -1.
          1    1    1    2  501    0 -0.91031850438E+02 -0.16936798754E+03 -0.26781774784E+02  0.19413803455E+03  0.00000000000E+00 0. -1.
<scales pt_clust_5="13000.00000" pt_clust_6="13000.00000" pt_clust_7="13000.00000" pt_clust_8="13000.00000" pt_clust_9="186.12080"></scales>
<clustering>
<clus scale="   76.662">  5  6 -1 -1</clus>
<clus scale="   79.029">  1  5  2 -1</clus>
<clus scale="   97.321">  7  8 -1 -1</clus>
<clus scale="  186.121">  2  9  1 -1</clus>
<clus scale="  186.121">  2  5  1 -1</clus>
</clustering>
</event>
<event>
 9    2  0.4883225E-005  0.1113129E+03  0.7546771E-02  0.1262777E+00
         21   -1    0    0  501  502  0.00000000000E+00  0.00000000000E+00  0.64014349329E+02  0.64014349329E+02  0.00000000000E+00 0. -1.
          2   -1    0    0  502    0 -0.00000000000E+00 -0.00000000000E+00 -0.30313356252E+03  0.30313356252E+03  0.00000000000E+00 0. -1.
         23    2    1    2    0    0 -0.33223007286E+02 -0.57050350886E+02 -0.16675445116E+03  0.20186217592E+03  0.92643296226E+02 0.  0.
         24    2    1    2    0    0  0.46925689933E+01  0.59427917065E+02 -0.87251964907E+02  0.13301705854E+03  0.80789448276E+02 0.  0.
        -13    1    4    4    0    0  0.26472783853E+02  0.69465361700E+02 -0.76709179397E+02  0.10682014307E+03  0.00000000000E+00 0.  1.
         14    1    4    4    0    0 -0.21780214860E+02 -0.10037444635E+02 -0.10542785510E+02  0.26196915476E+02  0.00000000000E+00 0. -1.
        -11    1    3    3    0    0  0.22663271891E+02 -0.44624375318E+02 -0.44940095301E+02  0.67264930915E+02  0.00000000000E+00 0.  1.
         11    1    3    3    0    0 -0.55886279177E+02 -0.12425975568E+02 -0.12181435586E+03  0.13459724501E+03  0.00000000000E+00 0. -1.
          1    1    1    2  501    0  0.28530438292E+02 -0.23775661792E+01  0.14887202885E+02  0.32268677380E+02  0.00000000000E+00 0. -1.
<scales pt_clust_5="13000.00000" pt_clust_6="13000.00000" pt_clust_7="13000.00000" pt_clust_8="13000.00000" pt_clust_9="28.62933"></scales>
<clustering>
<clus scale="   28.629">  1  9  2 -1</clus>
<clus scale="   80.789">  5  6 -1 -1</clus>
<clus scale="   92.643">  7  8 -1 -1</clus>
<clus scale="  101.660">  1  5  2 -1</clus>
<clus scale="   28.629">  1  5  2 -1</clus>
</clustering>
</event>
<event>
 9    2  0.4883225E-005  0.8764529E+02  0.7546771E-02  0.1313141E+00
          2   -1    0    0  502    0 -0.00000000000E+00  0.00000000000E+00  0.66367122804E+03  0.66367122804E+03  0.00000000000E+00 0. -1.
         21   -1    0    0  501  502  0.00000000000E+00 -0.00000000000E+00 -0.72045850333E+02  0.72045850333E+02  0.00000000000E+00 0. -1.
         24    2    1    2    0    0  0.79213903722E+00 -0.63546415544E+01  0.42466954923E+03  0.43214219049E+03  0.79759875924E+02 0.  0.
         23    2    1    2    0    0 -0.33416676797E+02  0.13141526214E+02  0.22099476206E+03  0.24008765601E+03  0.86683468507E+02 0.  0.
        -11    1    3    3    0    0  0.11715987893E+02 -0.27774102897E+02  0.64777125303E+02  0.71447471100E+02  0.00000000000E+00 0.  1.
         12    1    3    3    0    0 -0.10923848855E+02  0.21419461343E+02  0.35989242393E+03  0.36069471939E+03  0.00000000000E+00 0. -1.
        -11    1    4    4    0    0 -0.21758465470E+02 -0.32063487172E+02  0.52539265534E+02  0.65283018099E+02  0.00000000000E+00 0.  1.
         11    1    4    4    0    0 -0.11658211328E+02  0.45205013385E+02  0.16845549652E+03  0.17480463791E+03  0.00000000000E+00 0. -1.
          1    1    1    2  501    0  0.32624537760E+02 -0.67868846593E+01 -0.54038933582E+02  0.63487231867E+02  0.00000000000E+00 0. -1.
<scales pt_clust_5="13000.00000" pt_clust_6="13000.00000" pt_clust_7="13000.00000" pt_clust_8="13000.00000" pt_clust_9="33.32300"></scales>
<clustering>
<clus scale="   33.323">  2  9  1 -1</clus>
<clus scale="   79.760">  5  6 -1 -1</clus>
<clus scale="   80.804">  1  5  2 -1</clus>
<clus scale="   86.683">  7  8 -1 -1</clus>
<clus scale="   33.323">  2  5  1 -1</clus>
</clustering>
</event>
<event>
 9    2  0.4883225E-005  0.1836412E+03  0.7546771E-02  0.1201109E+00
         -3   -1    0    0    0  501 -0.00000000000E+00  0.00000000000E+00  0.72834618932E+02  0.72834618932E+02  0.00000000000E+00 0.  1.
         21   -1    0    0  501  502  0.00000000000E+00 -0.00000000000E+00 -0.66742757690E+03  0.66742757690E+03  0.00000000000E+00 0.  1.
         24    2    1    2    0    0  0.84311135531E+01  0.24085625452E+01 -0.46422344061E+02  0.93033345006E+02  0.80145395411E+02 0.  0.
         23    2    1    2    0    0 -0.13568328076E+03 -0.92334430471E+02 -0.32317765687E+03  0.37354727216E+03  0.90322571444E+02 0.  0.
        -11    1    3    3    0    0 -0.88211002607E+01 -0.35917987556E+02 -0.31012966863E+02  0.48267149839E+02  0.00000000000E+00 0.  1.
         12    1    3    3    0    0  0.17252213814E+02  0.38326550101E+02 -0.15409377198E+02  0.44766195167E+02  0.00000000000E+00 0. -1.
        -11    1    4    4    0    0 -0.10743119095E+03 -0.31065938024E+02 -0.14565043515E+03  0.18363170356E+03  0.00000000000E+00 0. -1.
         11    1    4    4    0    0 -0.28252089815E+02 -0.61268492447E+02 -0.17752722172E+03  0.18991556860E+03  0.00000000000E+00 0.  1.
         -4    1    1    2    0  502  0.12725216721E+03  0.89925867926E+02 -0.22499295704E+03  0.27368157866E+03  0.00000000000E+00 0.  1.
<scales pt_clust_5="13000.00000" pt_clust_6="13000.00000" pt_clust_7="13000.00000" pt_clust_8="13000.00000" pt_clust_9="159.89360"></scales>
<clustering>
<clus scale="   80.145">  5  6 -1 -1</clus>
<clus scale="   80.624">  1  5  2 -1</clus>
<clus scale="   90.323">  7  8 -1 -1</clus>
<clus scale="  159.894">  2  9  1 -1</clus>
<clus scale="  159.894">  2  5  1 -1</clus>
</clustering>
</event>
<event>
 9    2  0.4883225E-005  0.9747065E+02  0.7546771E-02  0.1288059E+00
         21   -1    0    0  501  502  0.00000000000E+00  0.00000000000E+00  0.27508506192E+03  0.27508506192E+03  0.00000000000E+00 0. -1.
         -1   -1    0    0    0  501 -0.00000000000E+00 -0.00000000000E+00 -0.13121643289E+03  0.13121643289E+03  0.00000000000E+00 0.  1.
         23    2    1    2    0    0 -0.65303982769E+01 -0.49113753921E+02 -0.95756317319E+02  0.13742856202E+03  0.85220481265E+02 0.  0.
         24    2    1    2    0    0  0.26945157935E+02  0.25697308851E+02  0.15219725529E+03  0.17608988759E+03  0.80357020698E+02 0.  0.
        -11    1    4    4    0    0 -0.24058536252E+02  0.28222297363E+02  0.72528032437E+02  0.81459356272E+02  0.00000000000E+00 0.  1.
         12    1    4    4    0    0  0.51003694187E+02 -0.25249885119E+01  0.79669222849E+02  0.94630531316E+02  0.00000000000E+00 0. -1.
        -11    1    3    3    0    0  0.25817947678E+02 -0.33432886600E+02 -0.92062289598E+02  0.10129061899E+03  0.00000000000E+00 0.  1.
         11    1    3    3    0    0 -0.32348345955E+02 -0.15680867321E+02 -0.36940277206E+01  0.36137943035E+02  0.00000000000E+00 0. -1.
         -2    1    1    2    0  502 -0.20414759658E+02  0.23416445070E+02  0.87427691064E+02  0.92783045199E+02  0.00000000000E+00 0.  1.
<scales pt_clust_5="13000.00000" pt_clust_6="13000.00000" pt_clust_7="13000.00000" pt_clust_8="13000.00000" pt_clust_9="31.06593"></scales>
<clustering>
<clus scale="   31.066">  1  9  2 -1</clus>
<clus scale="   80.357">  5  6 -1 -1</clus>
<clus scale="   85.220">  7  8 -1 -1</clus>
<clus scale="   93.248">  1  5  2 -1</clus>
<clus scale="   31.066">  1  5  2 -1</clus>
</clustering>
</event>
<event>
 9    2  0.4883225E-005  0.9742810E+02  0.7546771E-02  0.1288255E+00
          2   -1    0    0  502    0 -0.00000000000E+00  0.00000000000E+00  0.18369317178E+03  0.18369317178E+03  0.00000000000E+00 0. -1.
         21   -1    0    0  501  502  0.00000000000E+00 -0.00000000000E+00 -0.12450360505E+03  0.12450360505E+03  0.00000000000E+00 0. -1.
         24    2    1    2    0    0 -0.36945244718E+02  0.33395063155E+02  0.75628317980E+02  0.12214259728E+03  0.81969446987E+02 0.  0.
         23    2    1    2    0    0 -0.17253272440E+01 -0.30188342920E+02 -0.72991447790E+02  0.11746916897E+03  0.86930670112E+02 0.  0.
        -11    1    3    3    0    0 -0.24712035357E+02 -0.24977207766E+02  0.37327550366E+02  0.51262965342E+02  0.00000000000E+00 0.  1.
         12    1    3    3    0    0 -0.12233209360E+02  0.58372270922E+02  0.38300767613E+02  0.70879631937E+02  0.00000000000E+00 0. -1.
        -11    1    4    4    0    0  0.28045972441E+02 -0.62795405999E+00  0.53897612049E+01  0.28566071174E+02  0.00000000000E+00 0.  1.
         11    1    4    4    0    0 -0.29771299685E+02 -0.29560388860E+02 -0.78381208995E+02  0.88903097798E+02  0.00000000000E+00 0. -1.
          1    1    1    2  501    0  0.38670571962E+02 -0.32067202348E+01  0.56552696537E+02  0.68585010579E+02  0.00000000000E+00 0. -1.
<scales pt_clust_5="13000.00000" pt_clust_6="13000.00000" pt_clust_7="13000.00000" pt_clust_8="13000.00000" pt_clust_9="38.80332"></scales>
<clustering>
<clus scale="   38.803">  2  9  1 -1</clus>
<clus scale="   81.969">  5  6 -1 -1</clus>
<clus scale="   86.931">  7  8 -1 -1</clus>
<clus scale="   93.028">  1  5  2 -1</clus>
<clus scale="   38.803">  2  5  1 -1</clus>
</clustering>
</event>
<event>
 9    2  0.4883225E-005  0.3011543E+03  0.7546771E-02  0.1085219E+00
         21   -1    0    0  501  502  0.00000000000E+00  0.00000000000E+00  0.12801140409E+03  0.12801140409E+03  0.00000000000E+00 0. -1.
          2   -1    0    0  502    0 -0.00000000000E+00 -0.00000000000E+00 -0.14575221906E+04  0.14575221906E+04  0.00000000000E+00 0. -1.
         23    2    1    2    0    0 -0.20613314640E+03 -0.20682047707E+03 -0.11893836373E+04  0.12284170481E+04  0.95443299921E+02 0.  0.
         24    2    1    2    0    0  0.16202641563E+03  0.20425488066E+03 -0.15069447289E+03  0.31168908448E+03  0.80427890606E+02 0.  0.
        -11    1    4    4    0    0  0.10790555354E+03  0.83090516439E+02 -0.10270794633E+03  0.17057715160E+03  0.00000000000E+00 0.  1.
         12    1    4    4    0    0  0.54120862090E+02  0.12116436422E+03 -0.47986526558E+02  0.14111193288E+03  0.00000000000E+00 0. -1.
        -13    1    3    3    0    0 -0.11581692023E+03 -0.80621854636E+02 -0.73042716067E+03  0.74393365262E+03  0.00000000000E+00 0.  1.
         13    1    3    3    0    0 -0.90316226166E+02 -0.12619862243E+03 -0.45895647664E+03  0.48448339544E+03  0.00000000000E+00 0. -1.
          1    1    1    2  501    0  0.44106730764E+02  0.25655964083E+01  0.10567323727E+02  0.45427462117E+02  0.00000000000E+00 0. -1.
<scales pt_clust_5="13000.00000" pt_clust_6="13000.00000" pt_clust_7="13000.00000" pt_clust_8="13000.00000" pt_clust_9="44.18129"></scales>
<clustering>
<clus scale="   44.181">  1  9  2 -1</clus>
<clus scale="   80.428">  5  6 -1 -1</clus>
<clus scale="   95.443">  7  8 -1 -1</clus>
<clus scale="  296.737">  1  5  2 -1</clus>
<clus scale="   44.181">  1  5  2 -1</clus>
</clustering>
</event>
<event>
 9    2  0.4883225E-005  0.1454274E+03  0.7546771E-02  0.1221905E+00
         21   -1    0    0  501  502  0.00000000000E+00  0.00000000000E+00  0.66350194799E+03  0.66350194799E+03  0.00000000000E+00 0. -1.
          4   -1    0    0  502    0 -0.00000000000E+00 -0.00000000000E+00 -0.63146078455E+02  0.63146078455E+02  0.00000000000E+00 0. -1.
         24    2    1    2    0    0 -0.56159282501E+02  0.36201316160E+02  0.33241469778E+03  0.34837732819E+03  0.80017693013E+02 0.  0.
         23    2    1    2    0    0  0.37349378332E+01  0.90138527947E+02  0.11006565399E+03  0.16938138011E+03  0.91851509295E+02 0.  0.
        -13    1    3    3    0    0  0.69642873818E+01  0.35177988479E+02  0.72220494960E+02  0.80633690629E+02  0.00000000000E+00 0.  1.
         14    1    3    3    0    0 -0.63123569883E+02  0.10233276805E+01  0.26019420282E+03  0.26774363756E+03  0.00000000000E+00 0. -1.
        -13    1    4    4    0    0 -0.20688847549E+02  0.68188598017E+02  0.11587655000E+03  0.13603340823E+03  0.00000000000E+00 0. -1.
         13    1    4    4    0    0  0.24423785382E+02  0.21949929930E+02 -0.58108960182E+01  0.33347971885E+02  0.00000000000E+00 0.  1.
          3    1    1    2  501    0  0.52424344668E+02 -0.12633984411E+03  0.15787551777E+03  0.20888931814E+03  0.00000000000E+00 0. -1.
<scales pt_clust_5="13000.00000" pt_clust_6="13000.00000" pt_clust_7="13000.00000" pt_clust_8="13000.00000" pt_clust_9="112.74946"></scales>
<clustering>
<clus scale="   80.018">  5  6 -1 -1</clus>
<clus scale="   91.852">  7  8 -1 -1</clus>
<clus scale="  104.246">  2  5  1 -1</clus>
<clus scale="  112.749">  1  9  2 -1</clus>
<clus scale="  112.749">  1  5  2 -1</clus>
</clustering>
</event>
<event>
 9    2  0.4883225E-005  0.2964140E+03  0.7546771E-02  0.1087047E+00
          2   -1    0    0  502    0 -0.00000000000E+00  0.00000000000E+00  0.18071955725E+03  0.18071955725E+03  0.00000000000E+00 0. -1.
         21   -1    0    0  501  502  0.00000000000E+00 -0.00000000000E+00 -0.37489202627E+03  0.37489202627E+03  0.00000000000E+00 0. -1.
         24    2    1    2    0    0 -0.89571231587E+02 -0.10373979042E+03 -0.65560165435E+02  0.16942158881E+03  0.74970593012E+02 0.  0.
         23    2    1    2    0    0 -0.10481950730E+03  0.29764212762E+01 -0.84594194113E+02  0.16285479845E+03  0.91485078042E+02 0.  0.
        -11    1    3    3    0    0  0.71051447822E+01 -0.37859816188E+02 -0.23378963294E+02  0.45060234008E+02  0.00000000000E+00 0.  1.
         12    1    3    3    0    0 -0.96676376369E+02 -0.65879974236E+02 -0.42181202141E+02  0.12436135480E+03  0.00000000000E+00 0. -1.
        -11    1    4    4    0    0 -0.82575078394E+02  0.42962220312E+02 -0.61842802713E+02  0.11175387328E+03  0.00000000000E+00 0. -1.
         11    1    4    4    0    0 -0.22244428908E+02 -0.39985799036E+02 -0.22751391401E+02  0.51100925165E+02  0.00000000000E+00 0.  1.
          1    1    1    2  501    0  0.19439073889E+03  0.10076336915E+03 -0.44018109469E+02  0.22333519626E+03  0.00000000000E+00 0. -1.
<scales pt_clust_5="13000.00000" pt_clust_6="13000.00000" pt_clust_7="13000.00000" pt_clust_8="13000.00000" pt_clust_9="218.95448"></scales>
<clustering>
<clus scale="   74.971">  5  6 -1 -1</clus>
<clus scale="   91.485">  7  8 -1 -1</clus>
<clus scale="  130.557">  5  7 -1 -1</clus>
<clus scale="  218.954">  2  9  1 -1</clus>
<clus scale="  218.954">  2  5  1 -1</clus>
</clustering>
</event>
<event>
 9    2  0.4883225E-005  0.1825352E+03  0.7546771E-02  0.1198759E+00
         21   -1    0    0  501  502  0.00000000000E+00  0.00000000000E+00  0.18635882504E+03  0.18635882504E+03  0.00000000000E+00 0. -1.
          2   -1    0    0  502    0 -0.00000000000E+00 -0.00000000000E+00 -0.28569252491E+03  0.28569252491E+03  0.00000000000E+00 0. -1.
         24    2    1    2    0    0  0.69426720461E+01  0.29464849990E+02 -0.97405399804E+02  0.13020139700E+03  0.80921034284E+02 0.  0.
         23    2    1    2    0    0 -0.14394931516E+03  0.55955090994E+02 -0.11438755428E+02  0.18011611192E+03  0.91970599133E+02 0.  0.
        -11    1    3    3    0    0  0.27905689183E+02  0.34446788235E+02 -0.99124294312E+02  0.10858606923E+03  0.00000000000E+00 0.  1.
         12    1    3    3    0    0 -0.20963017137E+02 -0.49819382451E+01  0.17188945077E+01  0.21615327767E+02  0.00000000000E+00 0. -1.
        -13    1    4    4    0    0 -0.25788459592E+02  0.54778269915E+02  0.52698100812E+01  0.60773961541E+02  0.00000000000E+00 0.  1.
         13    1    4    4    0    0 -0.11816085557E+03  0.11768210787E+01 -0.16708565509E+02  0.11934215038E+03  0.00000000000E+00 0. -1.
          1    1    1    2  501    0  0.13700664311E+03 -0.85419940984E+02  0.95104553585E+01  0.16173384103E+03  0.00000000000E+00 0. -1.
<scales pt_clust_5="13000.00000" pt_clust_6="13000.00000" pt_clust_7="13000.00000" pt_clust_8="13000.00000" pt_clust_9="157.67211"></scales>
<clustering>
<clus scale="   80.921">  5  6 -1 -1</clus>
<clus scale="   86.398">  2  5  1 -1</clus>
<clus scale="   91.971">  7  8 -1 -1</clus>
<clus scale="  157.672">  1  9  2 -1</clus>
<clus scale="  157.672">  1  5  2 -1</clus>
</clustering>
</event>
<event>
 9    2  0.4883225E-005  0.1098066E+03  0.7546771E-02  0.1265731E+00
         21   -1    0    0  501  502  0.00000000000E+00  0.00000000000E+00  0.19646179942E+02  0.19646179942E+02  0.00000000000E+00 0.  1.
         -1   -1    0    0    0  501 -0.00000000000E+00 -0.00000000000E+00 -0.79860076123E+03  0.79860076123E+03  0.00000000000E+00 0.  1.
         24    2    1    2    0    0 -0.67230768592E+02  0.23030771550E+02 -0.35744504053E+03  0.37300595098E+03  0.79473830824E+02 0.  0.
         23    2    1    2    0    0  0.36731670689E+02 -0.32923914477E+02 -0.25007260020E+03  0.27083143243E+03  0.91543211900E+02 0.  0.
        -11    1    3    3    0    0 -0.66577455164E+02 -0.12253638897E+02 -0.27715108928E+03  0.28529885294E+03  0.00000000000E+00 0.  1.
         12    1    3    3    0    0 -0.65331342762E+00  0.35284410447E+02 -0.80293951249E+02  0.87707098038E+02  0.00000000000E+00 0. -1.
        -13    1    4    4    0    0 -0.55258047477E+01  0.27163795046E+02 -0.99595491862E+02  0.10338117952E+03  0.00000000000E+00 0. -1.
         13    1    4    4    0    0  0.42257475437E+02 -0.60087709524E+02 -0.15047710833E+03  0.16745025291E+03  0.00000000000E+00 0.  1.
         -2    1    1    2    0  502  0.30499097903E+02  0.98931429268E+01 -0.17143694056E+03  0.17440955776E+03  0.00000000000E+00 0.  1.
<scales pt_clust_5="13000.00000" pt_clust_6="13000.00000" pt_clust_7="13000.00000" pt_clust_8="13000.00000" pt_clust_9="32.06354"></scales>
<clustering>
<clus scale="   32.064">  1  9  2 -1</clus>
<clus scale="   79.474">  5  6 -1 -1</clus>
<clus scale="   91.543">  7  8 -1 -1</clus>
<clus scale="   99.967">  2  5  1 -1</clus>
<clus scale="   32.064">  1  5  2 -1</clus>
</clustering>
</event>
<event>
 9    2  0.4883225E-005  0.1279921E+03  0.7546771E-02  0.1233672E+00
          2   -1    0    0  502    0 -0.00000000000E+00  0.00000000000E+00  0.14781702666E+04  0.14781702666E+04  0.00000000000E+00 0. -1.
         21   -1    0    0  501  502  0.00000000000E+00 -0.00000000000E+00 -0.22313157403E+02  0.22313157403E+02  0.00000000000E+00 0.  1.
         24    2    1    2    0    0 -0.30838025544E+02  0.69835366711E+02  0.79697785435E+03  0.80489541215E+03  0.82794697335E+02 0.  0.
         23    2    1    2    0    0  0.53926020980E+01 -0.12796093033E+03  0.44876606384E+03  0.47610315189E+03  0.94234554876E+02 0.  0.
        -13    1    3    3    0    0 -0.28286792520E+02  0.15617657992E+02  0.86346311095E+02  0.92194030783E+02  0.00000000000E+00 0.  1.
         14    1    3    3    0    0 -0.25512330241E+01  0.54217708719E+02  0.71063154326E+03  0.71270138137E+03  0.00000000000E+00 0. -1.
        -11    1    4    4    0    0  0.91759254494E+01 -0.30285327979E+02  0.22640537354E+02  0.38910058215E+02  0.00000000000E+00 0.  1.
         11    1    4    4    0    0 -0.37833233514E+01 -0.97675602353E+02  0.42612552649E+03  0.43719309367E+03  0.00000000000E+00 0. -1.
          1    1    1    2  501    0  0.25445423446E+02  0.58125563621E+02  0.21011319098E+03  0.21948485994E+03  0.00000000000E+00 0. -1.
<scales pt_clust_5="13000.00000" pt_clust_6="13000.00000" pt_clust_7="13000.00000" pt_clust_8="13000.00000" pt_clust_9="63.45117"></scales>
<clustering>
<clus scale="   63.451">  2  9  1 -1</clus>
<clus scale="   82.795">  5  6 -1 -1</clus>
<clus scale="   94.235">  7  8 -1 -1</clus>
<clus scale="  119.820">  1  5  2 -1</clus>
<clus scale="   63.451">  2  5  1 -1</clus>
</clustering>
</event>
<event>
 9    2  0.4883225E-005  0.9901396E+02  0.7546771E-02  0.1294745E+00
          2   -1    0    0  502    0 -0.00000000000E+00  0.00000000000E+00  0.19857544942E+03  0.19857544942E+03  0.00000000000E+00 0. -1.
         21   -1    0    0  501  502  0.00000000000E+00 -0.00000000000E+00 -0.14617228403E+03  0.14617228403E+03  0.00000000000E+00 0. -1.
         23    2    1    2    0    0  0.16398061531E+02  0.11693092712E+02  0.14671398549E+03  0.17664718822E+03  0.96299588425E+02 0.  0.
         24    2    1    2    0    0 -0.43918597716E+02  0.11603946895E+02 -0.27088393007E+02  0.91818262420E+02  0.75055429312E+02 0.  0.
        -11    1    4    4    0    0  0.95060185889E+01  0.29755108705E+02 -0.78911646962E+01  0.32218028551E+02  0.00000000000E+00 0.  1.
         12    1    4    4    0    0 -0.53424616305E+02 -0.18151161810E+02 -0.19197228311E+02  0.59600233869E+02  0.00000000000E+00 0. -1.
        -11    1    3    3    0    0  0.30675004072E+02 -0.36653559802E+02  0.76699934033E+02  0.90373221707E+02  0.00000000000E+00 0. -1.
         11    1    3    3    0    0 -0.14276942541E+02  0.48346652514E+02  0.70014051455E+02  0.86273966518E+02  0.00000000000E+00 0.  1.
          1    1    1    2  501    0  0.27520536185E+02 -0.23297039607E+02 -0.67222427089E+02  0.76282282806E+02  0.00000000000E+00 0. -1.
<scales pt_clust_5="13000.00000" pt_clust_6="13000.00000" pt_clust_7="13000.00000" pt_clust_8="13000.00000" pt_clust_9="36.05734"></scales>
<clustering>
<clus scale="   36.057">  2  9  1 -1</clus>
<clus scale="   75.055">  5  6 -1 -1</clus>
<clus scale="   78.508">  2  5  1 -1</clus>
<clus scale="   96.300">  7  8 -1 -1</clus>
<clus scale="   36.057">  2  5  1 -1</clus>
</clustering>
</event>
<event>
 9    2  0.4883225E-005  0.1067737E+03  0.7546771E-02  0.1270841E+00
         21   -1    0    0  501  502  0.00000000000E+00  0.00000000000E+00  0.63361774871E+02  0.63361774871E+02  0.00000000000E+00 0. -1.
          2   -1    0    0  502    0 -0.00000000000E+00 -0.00000000000E+00 -0.33498845720E+03  0.33498845720E+03  0.00000000000E+00 0. -1.
         24    2    1    2    0    0 -0.29678439494E+02  0.37569862382E+02 -0.18641014962E+03  0.21808182757E+03  0.10256039833E+03 0.  0.
         23    2    1    2    0    0 -0.24423033543E+02 -0.12573952225E+02 -0.64502274381E+02  0.11717446336E+03  0.93886754242E+02 0.  0.
        -11    1    3    3    0    0 -0.53621182083E+01 -0.25202490598E+02 -0.73630884453E+01  0.26798002080E+02  0.00000000000E+00 0.  1.
         12    1    3    3    0    0 -0.24316321286E+02  0.62772352979E+02 -0.17904706118E+03  0.19128382549E+03  0.00000000000E+00 0. -1.
        -11    1    4    4    0    0 -0.47085579242E+02 -0.40093414890E+02 -0.45491572584E+02  0.76772500716E+02  0.00000000000E+00 0.  1.
         11    1    4    4    0    0  0.22662545698E+02  0.27519462665E+02 -0.19010701797E+02  0.40401962647E+02  0.00000000000E+00 0. -1.
          1    1    1    2  501    0  0.54101473037E+02 -0.24995910157E+02 -0.20714258320E+02  0.63093941129E+02  0.00000000000E+00 0. -1.
<scales pt_clust_5="13000.00000" pt_clust_6="13000.00000" pt_clust_7="13000.00000" pt_clust_8="13000.00000" pt_clust_9="59.59669"></scales>
<clustering>
<clus scale="   59.597">  1  9  2 -1</clus>
<clus scale="   93.887">  7  8 -1 -1</clus>
<clus scale="   98.472">  1  7  2 -1</clus>
<clus scale="  102.560">  5  6 -1 -1</clus>
<clus scale="   59.597">  1  5  2 -1</clus>
</clustering>
</event>
<event>
 9    2  0.4883225E-005  0.1105815E+03  0.7546771E-02  0.1270618E+00
          2   -1    0    0  502    0 -0.00000000000E+00  0.00000000000E+00  0.20872527636E+03  0.20872527636E+03  0.00000000000E+00 0. -1.
         21   -1    0    0  501  502  0.00000000000E+00 -0.00000000000E+00 -0.80975755262E+02  0.80975755262E+02  0.00000000000E+00 0. -1.
         24    2    1    2    0    0  0.32827423110E+02 -0.40224818869E+02  0.77738726097E+02  0.12289406307E+03  0.79774466105E+02 0.  0.
         23    2    1    2    0    0  0.12987601048E+02  0.25488518839E+02  0.17143662591E+02  0.10852812702E+03  0.10327684549E+03 0.  0.
        -13    1    3    3    0    0  0.15526205020E+01 -0.36305037340E+02 -0.27616260149E+01  0.36443009548E+02  0.00000000000E+00 0.  1.
         14    1    3    3    0    0  0.31274802608E+02 -0.39197815284E+01  0.80500352112E+02  0.86451053524E+02  0.00000000000E+00 0. -1.
        -11    1    4    4    0    0  0.25660589930E+02  0.78504224900E+01 -0.39562697931E+02  0.47804833191E+02  0.00000000000E+00 0. -1.
         11    1    4    4    0    0 -0.12672988882E+02  0.17638096349E+02  0.56706360522E+02  0.60723293831E+02  0.00000000000E+00 0.  1.
          1    1    1    2  501    0 -0.45815024158E+02  0.14736300030E+02  0.32867132414E+02  0.58278841532E+02  0.00000000000E+00 0. -1.
<scales pt_clust_5="13000.00000" pt_clust_6="13000.00000" pt_clust_7="13000.00000" pt_clust_8="13000.00000" pt_clust_9="48.12668"></scales>
<clustering>
<clus scale="   48.127">  2  9  1 -1</clus>
<clus scale="   79.774">  5  6 -1 -1</clus>
<clus scale="   89.029">  1  5  2 -1</clus>
<clus scale="  103.277">  7  8 -1 -1</clus>
<clus scale="   48.127">  2  5  1 -1</clus>
</clustering>
</event>
<event>
 9    2  0.4883225E-005  0.9654645E+02  0.7546771E-02  0.1290539E+00
          2   -1    0    0  502    0 -0.00000000000E+00  0.00000000000E+00  0.51474951376E+03  0.51474951376E+03  0.00000000000E+00 0. -1.
         21   -1    0    0  501  502  0.00000000000E+00 -0.00000000000E+00 -0.42665015894E+02  0.42665015894E+02  0.00000000000E+00 0.  1.
         23    2    1    2    0    0  0.75274396407E+02 -0.44105415780E+01  0.16810310115E+03  0.20314055293E+03  0.85567189954E+02 0.  0.
         24    2    1    2    0    0 -0.87478526227E+01 -0.18281159605E+02  0.64508547123E+02  0.10469845705E+03  0.79935527356E+02 0.  0.
        -13    1    4    4    0    0 -0.40000084279E+02 -0.27599878084E+02  0.47336295272E+02  0.67841616008E+02  0.00000000000E+00 0.  1.
         14    1    4    4    0    0  0.31252231656E+02  0.93187184793E+01  0.17172251851E+02  0.36856841037E+02  0.00000000000E+00 0. -1.
        -13    1    3    3    0    0  0.21393098290E+01 -0.33974232878E+02  0.64409518944E+02  0.72851981969E+02  0.00000000000E+00 0. -1.
         13    1    3    3    0    0  0.73135086578E+02  0.29563691300E+02  0.10369358220E+03  0.13028857096E+03  0.00000000000E+00 0.  1.
          1    1    1    2  501    0 -0.66526543784E+02  0.22691701183E+02  0.23947284959E+03  0.24957551968E+03  0.00000000000E+00 0. -1.
<scales pt_clust_5="13000.00000" pt_clust_6="13000.00000" pt_clust_7="13000.00000" pt_clust_8="13000.00000" pt_clust_9="70.29011"></scales>
<clustering>
<clus scale="   70.290">  2  9  1 -1</clus>
<clus scale="   79.936">  5  6 -1 -1</clus>
<clus scale="   85.567">  7  8 -1 -1</clus>
<clus scale="   91.592">  2  5  1 -1</clus>
<clus scale="   70.290">  2  5  1 -1</clus>
</clustering>
</event>
<event>
 9    2  0.4883225E-005  0.1060022E+03  0.7546771E-02  0.1272895E+00
         21   -1    0    0  501  502  0.00000000000E+00  0.00000000000E+00  0.10389351178E+03  0.10389351178E+03  0.00000000000E+00 0.  1.
         -1   -1    0    0    0  501 -0.00000000000E+00 -0.00000000000E+00 -0.17102485311E+03  0.17102485311E+03  0.00000000000E+00 0.  1.
         24    2    1    2    0    0  0.23823215219E+02  0.71007139154E+02 -0.55029256418E+02  0.12282093409E+03  0.80294479226E+02 0.  0.
         23    2    1    2    0    0 -0.29018296786E+02 -0.17556754787E+02 -0.14051591683E+02  0.98359799309E+02  0.91251858635E+02 0.  0.
        -13    1    3    3    0    0  0.51949997664E+02  0.59877387245E+02 -0.35830383628E+02  0.86993793752E+02  0.00000000000E+00 0.  1.
         14    1    3    3    0    0 -0.28126782445E+02  0.11129751910E+02 -0.19198872791E+02  0.35827140336E+02  0.00000000000E+00 0. -1.
        -13    1    4    4    0    0 -0.60086537645E+02 -0.14028587105E+02 -0.22978903476E+02  0.65842412374E+02  0.00000000000E+00 0.  1.
         13    1    4    4    0    0  0.31068240858E+02 -0.35281676816E+01  0.89273117934E+01  0.32517386935E+02  0.00000000000E+00 0. -1.
         -2    1    1    2    0  502  0.51950815673E+01 -0.53450384367E+02  0.19495067714E+01  0.53737631490E+02  0.00000000000E+00 0.  1.
<scales pt_clust_5="13000.00000" pt_clust_6="13000.00000" pt_clust_7="13000.00000" pt_clust_8="13000.00000" pt_clust_9="53.70226"></scales>
<clustering>
<clus scale="   53.702">  1  9  2 -1</clus>
<clus scale="   80.294">  5  6 -1 -1</clus>
<clus scale="   91.252">  7  8 -1 -1</clus>
<clus scale="   96.730">  2  5  1 -1</clus>
<clus scale="   53.702">  1  5  2 -1</clus>
</clustering>
</event>
<event>
 9    2  0.4883225E-005  0.2173848E+03  0.7546771E-02  0.1135848E+00
          2   -1    0    0  502    0 -0.00000000000E+00  0.00000000000E+00  0.39972524539E+03  0.39972524539E+03  0.00000000000E+00 0. -1.
         21   -1    0    0  501  502  0.00000000000E+00 -0.00000000000E+00 -0.73830849325E+02  0.73830849325E+02  0.00000000000E+00 0. -1.
         24    2    1    2    0    0 -0.48058277855E+01  0.76789508683E+02  0.11838131711E+03  0.16288925003E+03  0.81234517975E+02 0.  0.
         23    2    1    2    0    0 -0.39409316118E+01  0.48964002851E+02  0.81361856878E+02  0.13232845203E+03  0.92076397325E+02 0.  0.
        -11    1    3    3    0    0  0.36845166743E+02  0.50555746580E+02  0.69750238725E+02  0.93693893220E+02  0.00000000000E+00 0.  1.
         12    1    3    3    0    0 -0.41650994529E+02  0.26233762103E+02  0.48631078387E+02  0.69195356813E+02  0.00000000000E+00 0. -1.
        -13    1    4    4    0    0 -0.41889076936E+02  0.51430527828E+02  0.51419174387E+02  0.83926905423E+02  0.00000000000E+00 0.  1.
         13    1    4    4    0    0  0.37948145324E+02 -0.24665249770E+01  0.29942682491E+02  0.48401546605E+02  0.00000000000E+00 0. -1.
          1    1    1    2  501    0  0.87467593974E+01 -0.12575351153E+03  0.12615122208E+03  0.17833839265E+03  0.00000000000E+00 0. -1.
<scales pt_clust_5="13000.00000" pt_clust_6="13000.00000" pt_clust_7="13000.00000" pt_clust_8="13000.00000" pt_clust_9="126.05740"></scales>
<clustering>
<clus scale="   81.235">  5  6 -1 -1</clus>
<clus scale="   92.076">  7  8 -1 -1</clus>
<clus scale="   93.990">  5  7 -1 -1</clus>
<clus scale="  126.057">  2  9  1 -1</clus>
<clus scale="  126.057">  2  5  1 -1</clus>
</clustering>
</event>
<event>
 9    2  0.4883225E-005  0.1348647E+03  0.7546771E-02  0.1223616E+00
         21   -1    0    0  501  502  0.00000000000E+00  0.00000000000E+00  0.82004356648E+02  0.82004356648E+02  0.00000000000E+00 0.  1.
         -1   -1    0    0    0  501 -0.00000000000E+00 -0.00000000000E+00 -0.41231727770E+03  0.41231727770E+03  0.00000000000E+00 0.  1.
         23    2    1    2    0    0 -0.18229721023E+02  0.10373110907E+03 -0.19586128016E+03  0.24155121707E+03  0.94302087378E+02 0.  0.
         24    2    1    2    0    0 -0.22231241215E+02 -0.78131737297E+02 -0.53224270542E+01  0.11505051615E+03  0.81298810433E+02 0.  0.
        -13    1    4    4    0    0 -0.40653011056E+02 -0.83248711539E+02  0.59852744028E+01  0.92837701342E+02  0.00000000000E+00 0.  1.
         14    1    4    4    0    0  0.18421769841E+02  0.51169742421E+01 -0.11307701457E+02  0.22212814808E+02  0.00000000000E+00 0. -1.
        -11    1    3    3    0    0 -0.52652408919E+02  0.36562384581E+02 -0.10925816279E+03  0.12667450520E+03  0.00000000000E+00 0.  1.
         11    1    3    3    0    0  0.34422687896E+02  0.67168724491E+02 -0.86603117365E+02  0.11487671187E+03  0.00000000000E+00 0. -1.
         -2    1    1    2    0  502  0.40460962237E+02 -0.25599371776E+02 -0.12912921384E+03  0.13771990113E+03  0.00000000000E+00 0.  1.
<scales pt_clust_5="13000.00000" pt_clust_6="13000.00000" pt_clust_7="13000.00000" pt_clust_8="13000.00000" pt_clust_9="47.87922"></scales>
<clustering>
<clus scale="   47.879">  1  9  2 -1</clus>
<clus scale="   81.299">  5  6 -1 -1</clus>
<clus scale="   94.302">  7  8 -1 -1</clus>
<clus scale="  126.115">  1  5  2 -1</clus>
<clus scale="   47.879">  1  5  2 -1</clus>
</clustering>
</event>
<event>
 9    2  0.4883225E-005  0.2720581E+03  0.7546771E-02  0.1100579E+00
         21   -1    0    0  501  502  0.00000000000E+00  0.00000000000E+00  0.14161779938E+03  0.14161779938E+03  0.00000000000E+00 0. -1.
          2   -1    0    0  502    0 -0.00000000000E+00 -0.00000000000E+00 -0.10739047344E+04  0.10739047344E+04  0.00000000000E+00 0. -1.
         23    2    1    2    0    0  0.21806873012E+03 -0.12876819866E+03 -0.71974856366E+03  0.76822031789E+03  0.89382559175E+02 0.  0.
         24    2    1    2    0    0 -0.18606697025E+03  0.20490230691E+03 -0.22299974212E+03  0.36405586250E+03  0.78752226928E+02 0.  0.
        -13    1    4    4    0    0 -0.39702649555E+02  0.10096669088E+02 -0.52832842162E+02  0.66854710524E+02  0.00000000000E+00 0.  1.
         14    1    4    4    0    0 -0.14636432069E+03  0.19480563782E+03 -0.17016689996E+03  0.29720115198E+03  0.00000000000E+00 0. -1.
        -11    1    3    3    0    0  0.91242988580E+02 -0.83652426842E+01 -0.20404638053E+03  0.22367428475E+03  0.00000000000E+00 0. -1.
         11    1    3    3    0    0  0.12682574154E+03 -0.12040295597E+03 -0.51570218313E+03  0.54454603314E+03  0.00000000000E+00 0.  1.
          1    1    1    2  501    0 -0.32001759875E+02 -0.76134108247E+02  0.10461370762E+02  0.83246353385E+02  0.00000000000E+00 0. -1.
<scales pt_clust_5="13000.00000" pt_clust_6="13000.00000" pt_clust_7="13000.00000" pt_clust_8="13000.00000" pt_clust_9="82.58641"></scales>
<clustering>
<clus scale="   78.752">  5  6 -1 -1</clus>
<clus scale="   82.586">  1  9  2 -1</clus>
<clus scale="   89.383">  7  8 -1 -1</clus>
<clus scale="  268.753">  1  5  2 -1</clus>
<clus scale="   82.586">  1  5  2 -1</clus>
</clustering>
</event>
<event>
 9    2  0.4883225E-005  0.1263383E+03  0.7546771E-02  0.1248280E+00
          2   -1    0    0  502    0 -0.00000000000E+00  0.00000000000E+00  0.79834071807E+03  0.79834071807E+03  0.00000000000E+00 0. -1.
         21   -1    0    0  501  502  0.00000000000E+00 -0.00000000000E+00 -0.34217611075E+02  0.34217611075E+02  0.00000000000E+00 0. -1.
         23    2    1    2    0    0  0.70869903910E+01 -0.16087658954E+02  0.16184671390E+03  0.18648780196E+03  0.90963197369E+02 0.  0.
         24    2    1    2    0    0 -0.10209685716E+03  0.16875999672E+02  0.42710526432E+03  0.44679077252E+03  0.80588584739E+02 0.  0.
        -11    1    4    4    0    0 -0.25312922307E+02  0.20950479998E+02  0.38337165278E+02  0.50491631875E+02  0.00000000000E+00 0.  1.
         12    1    4    4    0    0 -0.76783934852E+02 -0.40744803260E+01  0.38876809904E+03  0.39629914064E+03  0.00000000000E+00 0. -1.
        -13    1    3    3    0    0 -0.39883533611E+02 -0.20351576699E+02  0.90345184413E+02  0.10083221347E+03  0.00000000000E+00 0. -1.
         13    1    3    3    0    0  0.46970524002E+02  0.42639177449E+01  0.71501529486E+02  0.85655588483E+02  0.00000000000E+00 0.  1.
          1    1    1    2  501    0  0.95009866768E+02 -0.78834071776E+00  0.17517112878E+03  0.19927975467E+03  0.00000000000E+00 0. -1.
<scales pt_clust_5="13000.00000" pt_clust_6="13000.00000" pt_clust_7="13000.00000" pt_clust_8="13000.00000" pt_clust_9="97.29776"></scales>
<clustering>
<clus scale="   80.589">  5  6 -1 -1</clus>
<clus scale="   90.963">  7  8 -1 -1</clus>
<clus scale="   92.646">  1  7  2 -1</clus>
<clus scale="   97.298">  2  9  1 -1</clus>
<clus scale="   97.298">  2  5  1 -1</clus>
</clustering>
</event>
<event>
 9    2  0.4883225E-005  0.1679464E+03  0.7546771E-02  0.1183518E+00
         21   -1    0    0  501  502  0.00000000000E+00  0.00000000000E+00  0.57412822689E+02  0.57412822689E+02  0.00000000000E+00 0. -1.
          2   -1    0    0  502    0 -0.00000000000E+00 -0.00000000000E+00 -0.11959215041E+04  0.11959215041E+04  0.00000000000E+00 0. -1.
         24    2    1    2    0    0 -0.20371051919E+02 -0.10604251070E+03 -0.50663999964E+03  0.52445520364E+03  0.81909569407E+02 0.  0.
         23    2    1    2    0    0 -0.33955823983E+02  0.21147707938E+03 -0.48334100318E+03  0.53880458769E+03  0.10400146766E+03 0.  0.
        -13    1    3    3    0    0  0.28901874464E+02 -0.18407449139E+02 -0.15382775154E+03  0.15759800022E+03  0.00000000000E+00 0.  1.
         14    1    3    3    0    0 -0.49272926383E+02 -0.87635061564E+02 -0.35281224810E+03  0.36685720342E+03  0.00000000000E+00 0. -1.
        -13    1    4    4    0    0  0.12037786878E+02  0.65390248099E+02 -0.25738412916E+03  0.26583337413E+03  0.00000000000E+00 0.  1.
         13    1    4    4    0    0 -0.45993610860E+02  0.14608683128E+03 -0.22595687401E+03  0.27297121355E+03  0.00000000000E+00 0. -1.
          1    1    1    2  501    0  0.54326875901E+02 -0.10543456868E+03 -0.14852767855E+03  0.19007453542E+03  0.00000000000E+00 0. -1.
<scales pt_clust_5="13000.00000" pt_clust_6="13000.00000" pt_clust_7="13000.00000" pt_clust_8="13000.00000" pt_clust_9="118.60800"></scales>
<clustering>
<clus scale="   81.910">  5  6 -1 -1</clus>
<clus scale="  104.001">  7  8 -1 -1</clus>
<clus scale="  118.608">  1  9  2 -1</clus>
<clus scale="  155.238">  2  5  1 -1</clus>
<clus scale="  118.608">  1  5  2 -1</clus>
</clustering>
</event>
<event>
 9    2  0.4883225E-005  0.1122716E+03  0.7546771E-02  0.1262038E+00
         21   -1    0    0  501  502  0.00000000000E+00  0.00000000000E+00  0.48460263975E+02  0.48460263975E+02  0.00000000000E+00 0.  1.
          2   -1    0    0  502    0 -0.00000000000E+00 -0.00000000000E+00 -0.34609906840E+03  0.34609906840E+03  0.00000000000E+00 0. -1.
         24    2    1    2    0    0  0.49211621219E+02 -0.26293944067E+02 -0.18219157003E+03  0.20674613429E+03  0.80231170353E+02 0.  0.
         23    2    1    2    0    0 -0.73368922291E+02  0.13890521520E+02 -0.87890311836E+02  0.14912464594E+03  0.94538393084E+02 0.  0.
        -13    1    3    3    0    0  0.22800876508E+02 -0.70493074470E+01 -0.23741973294E+01  0.23983525970E+02  0.00000000000E+00 0.  1.
         14    1    3    3    0    0  0.26410744711E+02 -0.19244636620E+02 -0.17981737270E+03  0.18276260832E+03  0.00000000000E+00 0. -1.
        -13    1    4    4    0    0 -0.25479410188E+02 -0.51788533677E+01  0.17816810914E+02  0.31519194419E+02  0.00000000000E+00 0.  1.
         13    1    4    4    0    0 -0.47889512103E+02  0.19069374888E+02 -0.10570712275E+03  0.11760545152E+03  0.00000000000E+00 0. -1.
          1    1    1    2  501    0  0.24157301071E+02  0.12403422546E+02 -0.27556922559E+02  0.38688552142E+02  0.00000000000E+00 0. -1.
<scales pt_clust_5="13000.00000" pt_clust_6="13000.00000" pt_clust_7="13000.00000" pt_clust_8="13000.00000" pt_clust_9="27.15548"></scales>
<clustering>
<clus scale="   27.155">  1  9  2 -1</clus>
<clus scale="   80.231">  5  6 -1 -1</clus>
<clus scale="   94.538">  7  8 -1 -1</clus>
<clus scale="  100.521">  2  5  1 -1</clus>
<clus scale="   27.155">  1  5  2 -1</clus>
</clustering>
</event>
<event>
 9    2  0.5783756E-005  0.2940642E+03  0.7546771E-02  0.1128726E+00
         21   -1    0    0  501  502  0.00000000000E+00  0.00000000000E+00  0.21928780438E+03  0.21928780438E+03  0.00000000000E+00 0.  1.
         -1   -1    0    0    0  501 -0.00000000000E+00 -0.00000000000E+00 -0.78190375541E+03  0.78190375541E+03  0.00000000000E+00 0.  1.
         24    2    1    2    0    0  0.35008560238E+02  0.55965687565E+02 -0.61179060379E+02  0.12111702188E+03  0.81047505109E+02 0.  0.
         23    2    1    2    0    0 -0.18292052601E+03  0.18864221739E+03 -0.52449876355E+03  0.59329443617E+03  0.88620144473E+02 0.  0.
        -11    1    3    3    0    0 -0.17163733335E+02  0.28477882083E+02  0.36846695499E+01  0.33453853285E+02  0.00000000000E+00 0.  1.
         12    1    3    3    0    0  0.52172293573E+02  0.27487805482E+02 -0.64863729929E+02  0.87663168590E+02  0.00000000000E+00 0. -1.
        -11    1    4    4    0    0 -0.17660048271E+03  0.14077170404E+03 -0.46264687727E+03  0.51482670502E+03  0.00000000000E+00 0.  1.
         11    1    4    4    0    0 -0.63200432919E+01  0.47870513342E+02 -0.61851886277E+02  0.78467731144E+02  0.00000000000E+00 0. -1.
         -2    1    1    2    0  502  0.14791196577E+03 -0.24460790495E+03  0.23061872896E+02  0.28678010176E+03  0.00000000000E+00 0.  1.
<scales pt_clust_5="13000.00000" pt_clust_6="13000.00000" pt_clust_7="13000.00000" pt_clust_8="13000.00000" pt_clust_9="280.39302"></scales>
<clustering>
<clus scale="   81.048">  5  6 -1 -1</clus>
<clus scale="   88.620">  7  8 -1 -1</clus>
<clus scale="  104.530">  2  5  1 -1</clus>
<clus scale="  280.393">  1  9  2 -1</clus>
<clus scale="  280.393">  1  5  2 -1</clus>
</clustering>
</event>
<event>
 9    2  0.4883225E-005  0.1458356E+03  0.7546771E-02  0.1228574E+00
         21   -1    0    0  501  502  0.00000000000E+00  0.00000000000E+00  0.10159638093E+04  0.10159638093E+04  0.00000000000E+00 0. -1.
          2   -1    0    0  502    0 -0.00000000000E+00 -0.00000000000E+00 -0.50485358851E+02  0.50485358851E+02  0.00000000000E+00 0. -1.
         24    2    1    2    0    0  0.33086636871E+02 -0.21962972514E+02  0.28475602999E+03  0.29863258955E+03  0.80736170493E+02 0.  0.
         23    2    1    2    0    0  0.33910976097E+02 -0.74285414425E+02  0.62222318651E+02  0.13829707289E+03  0.92661676734E+02 0.  0.
        -13    1    3    3    0    0  0.11170713336E+02 -0.43829511366E+02  0.23992187223E+03  0.24414814289E+03  0.00000000000E+00 0.  1.
         14    1    3    3    0    0  0.21915923534E+02  0.21866538853E+02  0.44834157755E+02  0.54484446656E+02  0.00000000000E+00 0. -1.
        -11    1    4    4    0    0 -0.12194612695E+02 -0.61606772147E+02  0.39627645407E+01  0.62926993063E+02  0.00000000000E+00 0. -1.
         11    1    4    4    0    0  0.46105588792E+02 -0.12678642279E+02  0.58259554110E+02  0.75370079826E+02  0.00000000000E+00 0.  1.
          1    1    1    2  501    0 -0.66997612968E+02  0.96248386939E+02  0.61850010177E+03  0.62951950567E+03  0.00000000000E+00 0. -1.
<scales pt_clust_5="13000.00000" pt_clust_6="13000.00000" pt_clust_7="13000.00000" pt_clust_8="13000.00000" pt_clust_9="112.61364"></scales>
<clustering>
<clus scale="   80.736">  5  6 -1 -1</clus>
<clus scale="   89.975">  2  5  1 -1</clus>
<clus scale="   92.662">  7  8 -1 -1</clus>
<clus scale="  112.614">  1  9  2 -1</clus>
<clus scale="  112.614">  1  5  2 -1</clus>
</clustering>
</event>
<event>
 9    2  0.4883225E-005  0.1568428E+03  0.7546771E-02  0.1219567E+00
         21   -1    0    0  501  502  0.00000000000E+00  0.00000000000E+00  0.65011430525E+03  0.65011430525E+03  0.00000000000E+00 0. -1.
          2   -1    0    0  502    0 -0.00000000000E+00 -0.00000000000E+00 -0.79438346797E+02  0.79438346797E+02  0.00000000000E+00 0. -1.
         24    2    1    2    0    0  0.10659289928E+02 -0.11380311528E+02  0.29029165258E+01  0.87323972537E+02  0.85871516249E+02 0.  0.
         23    2    1    2    0    0 -0.60730399802E+02  0.12500006268E+03  0.23789509454E+03  0.28975736994E+03  0.89733273087E+02 0.  0.
        -11    1    3    3    0    0  0.34267145288E+02 -0.36999494799E+02 -0.74567656720E+01  0.50978458351E+02  0.00000000000E+00 0.  1.
         12    1    3    3    0    0 -0.23607855360E+02  0.25619183271E+02  0.10359682198E+02  0.36345514186E+02  0.00000000000E+00 0. -1.
        -11    1    4    4    0    0 -0.38661462714E+02  0.42361913114E+02  0.17338314463E+03  0.18262243899E+03  0.00000000000E+00 0.  1.
         11    1    4    4    0    0 -0.22068937088E+02  0.82638149570E+02  0.64511949911E+02  0.10713493095E+03  0.00000000000E+00 0. -1.
          1    1    1    2  501    0  0.50071109874E+02 -0.11361975116E+03  0.32987794739E+03  0.35247130957E+03  0.00000000000E+00 0. -1.
<scales pt_clust_5="13000.00000" pt_clust_6="13000.00000" pt_clust_7="13000.00000" pt_clust_8="13000.00000" pt_clust_9="128.63746"></scales>
<clustering>
<clus scale="   85.872">  5  6 -1 -1</clus>
<clus scale="   87.276">  2  5  1 -1</clus>
<clus scale="   89.733">  7  8 -1 -1</clus>
<clus scale="  128.637">  1  9  2 -1</clus>
<clus scale="  128.637">  1  5  2 -1</clus>
</clustering>
</event>
<event>
 9    2  0.4883225E-005  0.1817594E+03  0.7546771E-02  0.1168012E+00
          2   -1    0    0  502    0 -0.00000000000E+00  0.00000000000E+00  0.51304775258E+03  0.51304775258E+03  0.00000000000E+00 0. -1.
         21   -1    0    0  501  502  0.00000000000E+00 -0.00000000000E+00 -0.76646697720E+02  0.76646697720E+02  0.00000000000E+00 0. -1.
         23    2    1    2    0    0 -0.10420622457E+03  0.12414691601E+03  0.29705876052E+03  0.35156795654E+03  0.95313833564E+02 0.  0.
         24    2    1    2    0    0  0.96875437585E+02 -0.10417469376E+03  0.94222710298E+02  0.18824255884E+03  0.79499211290E+02 0.  0.
        -11    1    4    4    0    0  0.12511932222E+02 -0.54223451915E+02  0.65772964221E+02  0.86155754351E+02  0.00000000000E+00 0.  1.
         12    1    4    4    0    0  0.84363505363E+02 -0.49951241844E+02  0.28449746077E+02  0.10208680449E+03  0.00000000000E+00 0. -1.
        -11    1    3    3    0    0 -0.21914978464E+02 -0.91055282463E+01  0.12658234411E+02  0.26896241821E+02  0.00000000000E+00 0.  1.
         11    1    3    3    0    0 -0.82291246102E+02  0.13325244425E+03  0.28440052611E+03  0.32467171472E+03  0.00000000000E+00 0. -1.
          1    1    1    2  501    0  0.73307869812E+01 -0.19972222249E+02  0.45119584042E+02  0.49883934923E+02  0.00000000000E+00 0. -1.
<scales pt_clust_5="13000.00000" pt_clust_6="13000.00000" pt_clust_7="13000.00000" pt_clust_8="13000.00000" pt_clust_9="21.27512"></scales>
<clustering>
<clus scale="   21.275">  2  9  1 -1</clus>
<clus scale="   79.499">  5  6 -1 -1</clus>
<clus scale="   95.314">  7  8 -1 -1</clus>
<clus scale="  173.988">  2  5  1 -1</clus>
<clus scale="   21.275">  2  5  1 -1</clus>
</clustering>
</event>
<event>
 9    2  0.4883225E-005  0.1113510E+03  0.7546771E-02  0.1262407E+00
         -1   -1    0    0    0  501 -0.00000000000E+00  0.00000000000E+00  0.49503583271E+03  0.49503583271E+03  0.00000000000E+00 0.  1.
         21   -1    0    0  501  502  0.00000000000E+00 -0.00000000000E+00 -0.51701960176E+02  0.51701960176E+02  0.00000000000E+00 0.  1.
         24    2    1    2    0    0  0.31525500050E+02 -0.59024395377E+02  0.32638184012E+03  0.34217950326E+03  0.77999810814E+02 0.  0.
         23    2    1    2    0    0  0.15077015456E+02  0.75623431831E+02  0.78037575036E+02  0.14161659076E+03  0.89549851058E+02 0.  0.
        -13    1    3    3    0    0 -0.21444458500E+02 -0.20900406024E+02  0.17172810896E+03  0.17431934826E+03  0.00000000000E+00 0.  1.
         14    1    3    3    0    0  0.52969958551E+02 -0.38123989353E+02  0.15465373116E+03  0.16786015500E+03  0.00000000000E+00 0. -1.
        -11    1    4    4    0    0  0.32569955942E+02 -0.57217391916E+01  0.11274473634E+02  0.34937860340E+02  0.00000000000E+00 0.  1.
         11    1    4    4    0    0 -0.17492940485E+02  0.81345171023E+02  0.66763101402E+02  0.10667873042E+03  0.00000000000E+00 0. -1.
         -2    1    1    2    0  502 -0.46602515507E+02 -0.16599036455E+02  0.38914457374E+02  0.62941698861E+02  0.00000000000E+00 0.  1.
<scales pt_clust_5="13000.00000" pt_clust_6="13000.00000" pt_clust_7="13000.00000" pt_clust_8="13000.00000" pt_clust_9="49.47042"></scales>
<clustering>
<clus scale="   49.470">  2  9  1 -1</clus>
<clus scale="   78.000">  5  6 -1 -1</clus>
<clus scale="   89.550">  7  8 -1 -1</clus>
<clus scale="  102.293">  1  5  2 -1</clus>
<clus scale="   49.470">  2  5  1 -1</clus>
</clustering>
</event>
<event>
 9    2  0.4883225E-005  0.1159855E+03  0.7546771E-02  0.1257420E+00
         21   -1    0    0  501  502  0.00000000000E+00  0.00000000000E+00  0.32424341431E+03  0.32424341431E+03  0.00000000000E+00 0.  1.
          4   -1    0    0  502    0 -0.00000000000E+00 -0.00000000000E+00 -0.55642232790E+02  0.55642232790E+02  0.00000000000E+00 0. -1.
         23    2    1    2    0    0  0.64923427810E+02 -0.36295074970E+02  0.89771221638E+02  0.15423430675E+03  0.10098002376E+03 0.  0.
         24    2    1    2    0    0 -0.19558966602E+02  0.37566063579E+02  0.12108594089E+03  0.15220801879E+03  0.81925048641E+02 0.  0.
        -11    1    4    4    0    0 -0.23970624482E+02  0.21986853650E+01  0.11316528631E+03  0.11569704871E+03  0.00000000000E+00 0.  1.
         12    1    4    4    0    0  0.44116578805E+01  0.35367378214E+02  0.79206545831E+01  0.36510970078E+02  0.00000000000E+00 0. -1.
        -13    1    3    3    0    0  0.84820878135E+02 -0.50926530127E+02  0.60630076580E+02  0.11603490434E+03  0.00000000000E+00 0.  1.
         13    1    3    3    0    0 -0.19897450325E+02  0.14631455157E+02  0.29141145058E+02  0.38199402413E+02  0.00000000000E+00 0. -1.
          3    1    1    2  501    0 -0.45364461208E+02 -0.12709886093E+01  0.57744018994E+02  0.73443321563E+02  0.00000000000E+00 0. -1.
<scales pt_clust_5="13000.00000" pt_clust_6="13000.00000" pt_clust_7="13000.00000" pt_clust_8="13000.00000" pt_clust_9="45.38226"></scales>
<clustering>
<clus scale="   45.382">  1  9  2 -1</clus>
<clus scale="   81.925">  5  6 -1 -1</clus>
<clus scale="   99.837">  1  5  2 -1</clus>
<clus scale="  100.980">  7  8 -1 -1</clus>
<clus scale="   45.382">  1  5  2 -1</clus>
</clustering>
</event>
<event>
 9    2  0.4883225E-005  0.9874053E+02  0.7546771E-02  0.1289914E+00
          2   -1    0    0  502    0 -0.00000000000E+00  0.00000000000E+00  0.46209843534E+03  0.46209843534E+03  0.00000000000E+00 0. -1.
         21   -1    0    0  501  502  0.00000000000E+00 -0.00000000000E+00 -0.14302022090E+03  0.14302022090E+03  0.00000000000E+00 0.  1.
         24    2    1    2    0    0  0.14324646271E+02  0.33438043132E+02  0.42500593068E+03  0.43389089624E+03  0.79422732953E+02 0.  0.
         23    2    1    2    0    0  0.12421828068E+02 -0.57699759925E+01 -0.59050083844E+02  0.11057787749E+03  0.92482215333E+02 0.  0.
        -13    1    3    3    0    0  0.11352240842E+02  0.41711637458E+02  0.10221614331E+03  0.11098141297E+03  0.00000000000E+00 0.  1.
         14    1    3    3    0    0  0.29724054288E+01 -0.82735943259E+01  0.32278978737E+03  0.32290948327E+03  0.00000000000E+00 0. -1.
        -13    1    4    4    0    0 -0.21808034802E+02 -0.37120509223E+02 -0.44538927455E+02  0.61945448951E+02  0.00000000000E+00 0.  1.
         13    1    4    4    0    0  0.34229862870E+02  0.31350533231E+02 -0.14511156389E+02  0.48632428540E+02  0.00000000000E+00 0. -1.
          1    1    1    2  501    0 -0.26746474338E+02 -0.27668067140E+02 -0.46877632394E+02  0.60649882503E+02  0.00000000000E+00 0. -1.
<scales pt_clust_5="13000.00000" pt_clust_6="13000.00000" pt_clust_7="13000.00000" pt_clust_8="13000.00000" pt_clust_9="38.48241"></scales>
<clustering>
<clus scale="   38.482">  2  9  1 -1</clus>
<clus scale="   79.423">  5  6 -1 -1</clus>
<clus scale="   86.630">  1  5  2 -1</clus>
<clus scale="   92.482">  7  8 -1 -1</clus>
<clus scale="   38.482">  2  5  1 -1</clus>
</clustering>
</event>
<event>
 9    2  0.4883225E-005  0.2039846E+03  0.7546771E-02  0.1182377E+00
          2   -1    0    0  502    0 -0.00000000000E+00  0.00000000000E+00  0.99965288745E+03  0.99965288745E+03  0.00000000000E+00 0. -1.
         21   -1    0    0  501  502  0.00000000000E+00 -0.00000000000E+00 -0.94597166635E+02  0.94597166635E+02  0.00000000000E+00 0. -1.
         24    2    1    2    0    0 -0.27160861038E+02 -0.26809770535E+02  0.35372235851E+03  0.36471750442E+03  0.80267521147E+02 0.  0.
         23    2    1    2    0    0 -0.80751526288E+02  0.17371576441E+03  0.49586039501E+03  0.53899723935E+03  0.89120799429E+02 0.  0.
        -11    1    3    3    0    0  0.20589524887E+02 -0.15850707601E+00  0.29859998947E+02  0.36270831210E+02  0.00000000000E+00 0.  1.
         12    1    3    3    0    0 -0.47750385925E+02 -0.26651263459E+02  0.32386235956E+03  0.32844667321E+03  0.00000000000E+00 0. -1.
        -13    1    4    4    0    0  0.18583734525E+02  0.41394665742E+02  0.12178466811E+03  0.12996299061E+03  0.00000000000E+00 0.  1.
         13    1    4    4    0    0 -0.99335260813E+02  0.13232109867E+03  0.37407572690E+03  0.40903424875E+03  0.00000000000E+00 0. -1.
          1    1    1    2  501    0  0.10791238733E+03 -0.14690599388E+03  0.55472967298E+02  0.19053531031E+03  0.00000000000E+00 0. -1.
<scales pt_clust_5="13000.00000" pt_clust_6="13000.00000" pt_clust_7="13000.00000" pt_clust_8="13000.00000" pt_clust_9="183.48624"></scales>
<clustering>
<clus scale="   80.268">  5  6 -1 -1</clus>
<clus scale="   88.878">  1  5  2 -1</clus>
<clus scale="   89.121">  7  8 -1 -1</clus>
<clus scale="  183.486">  2  9  1 -1</clus>
<clus scale="  183.486">  2  5  1 -1</clus>
</clustering>
</event>
<event>
 9    2  0.4883225E-005  0.1921177E+03  0.7546771E-02  0.1190696E+00
         21   -1    0    0  501  502  0.00000000000E+00  0.00000000000E+00  0.13680131619E+03  0.13680131619E+03  0.00000000000E+00 0. -1.
          2   -1    0    0  502    0 -0.00000000000E+00 -0.00000000000E+00 -0.47499780116E+03  0.47499780116E+03  0.00000000000E+00 0. -1.
         24    2    1    2    0    0  0.33434129046E+02  0.19738077418E+02 -0.31978819864E+02  0.94030811039E+02  0.79446307778E+02 0.  0.
         23    2    1    2    0    0  0.53116630829E+02 -0.16810840031E+03 -0.28334419243E+03  0.34448246586E+03  0.85454240221E+02 0.  0.
        -11    1    3    3    0    0 -0.10277509356E+02  0.28308089613E+02 -0.38641737921E+02  0.48991418082E+02  0.00000000000E+00 0.  1.
         12    1    3    3    0    0  0.43711638403E+02 -0.85700121956E+01  0.66629180570E+01  0.45039392957E+02  0.00000000000E+00 0. -1.
        -11    1    4    4    0    0  0.28949652934E+02 -0.75264243463E+01 -0.23373964956E+02  0.37961450264E+02  0.00000000000E+00 0.  1.
         11    1    4    4    0    0  0.24166977895E+02 -0.16058197597E+03 -0.25997022747E+03  0.30652101559E+03  0.00000000000E+00 0. -1.
          1    1    1    2  501    0 -0.86550759875E+02  0.14837032290E+03 -0.22873472681E+02  0.17328584046E+03  0.00000000000E+00 0. -1.
<scales pt_clust_5="13000.00000" pt_clust_6="13000.00000" pt_clust_7="13000.00000" pt_clust_8="13000.00000" pt_clust_9="172.06622"></scales>
<clustering>
<clus scale="   79.446">  5  6 -1 -1</clus>
<clus scale="   85.454">  7  8 -1 -1</clus>
<clus scale="   88.426">  2  5  1 -1</clus>
<clus scale="  172.066">  1  9  2 -1</clus>
<clus scale="  172.066">  1  5  2 -1</clus>
</clustering>
</event>
<event>
 9    2  0.4939229E-005  0.9450646E+02  0.7546771E-02  0.1301227E+00
         21   -1    0    0  501  502  0.00000000000E+00  0.00000000000E+00  0.86481083716E+02  0.86481083716E+02  0.00000000000E+00 0. -1.
         -1   -1    0    0    0  501 -0.00000000000E+00 -0.00000000000E+00 -0.15402733041E+03  0.15402733041E+03  0.00000000000E+00 0.  1.
         23    2    1    2    0    0 -0.26952610000E+02 -0.87830327909E+01 -0.91992912779E+02  0.13206637996E+03  0.90417077278E+02 0.  0.
         24    2    1    2    0    0  0.28372418784E+02 -0.13025198961E+02  0.28371906390E+02  0.86237927777E+02  0.75215458248E+02 0.  0.
        -13    1    4    4    0    0  0.23275462796E+02 -0.26671061780E+02 -0.16503796870E+02  0.39057240250E+02  0.00000000000E+00 0.  1.
         14    1    4    4    0    0  0.50969559874E+01  0.13645862819E+02  0.44875703260E+02  0.47180687527E+02  0.00000000000E+00 0. -1.
        -11    1    3    3    0    0  0.26067143463E+01 -0.43340686240E+02 -0.67920940755E+02  0.80613052519E+02  0.00000000000E+00 0.  1.
         11    1    3    3    0    0 -0.29559324346E+02  0.34557653449E+02 -0.24071972025E+02  0.51453327442E+02  0.00000000000E+00 0. -1.
         -2    1    1    2    0  502 -0.14198087835E+01  0.21808231752E+02 -0.39252403053E+01  0.22204106390E+02  0.00000000000E+00 0.  1.
<scales pt_clust_5="13000.00000" pt_clust_6="13000.00000" pt_clust_7="13000.00000" pt_clust_8="13000.00000" pt_clust_9="21.85440"></scales>
<clustering>
<clus scale="   21.854">  1  9  2 -1</clus>
<clus scale="   75.215">  5  6 -1 -1</clus>
<clus scale="   80.085">  1  5  2 -1</clus>
<clus scale="   90.417">  7  8 -1 -1</clus>
<clus scale="   21.854">  1  5  2 -1</clus>
</clustering>
</event>
<event>
 9    2  0.4883225E-005  0.1548372E+03  0.7546771E-02  0.1210344E+00
         21   -1    0    0  501  502  0.00000000000E+00  0.00000000000E+00  0.36075727807E+03  0.36075727807E+03  0.00000000000E+00 0. -1.
          2   -1    0    0  502    0 -0.00000000000E+00 -0.00000000000E+00 -0.24102688731E+03  0.24102688731E+03  0.00000000000E+00 0. -1.
         24    2    1    2    0    0  0.30534599468E+01  0.74025141037E+02 -0.70430714946E+02  0.13084860747E+03  0.81681254559E+02 0.  0.
         23    2    1    2    0    0 -0.12844327303E+03 -0.62687280289E+02 -0.69155091238E+02  0.18267171642E+03  0.90328067830E+02 0.  0.
        -13    1    3    3    0    0  0.16693112531E+02 -0.13075720283E+02 -0.73472797408E+01  0.22441412311E+02  0.00000000000E+00 0.  1.
         14    1    3    3    0    0 -0.13639652585E+02  0.87100861320E+02 -0.63083435206E+02  0.10840719516E+03  0.00000000000E+00 0. -1.
        -13    1    4    4    0    0 -0.13063168117E+02 -0.25924227873E+02 -0.53099388539E+02  0.60516584630E+02  0.00000000000E+00 0.  1.
         13    1    4    4    0    0 -0.11538010491E+03 -0.36763052416E+02 -0.16055702699E+02  0.12215513179E+03  0.00000000000E+00 0. -1.
          1    1    1    2  501    0  0.12538981308E+03 -0.11337860748E+02  0.25931619695E+03  0.28826384149E+03  0.00000000000E+00 0. -1.
<scales pt_clust_5="13000.00000" pt_clust_6="13000.00000" pt_clust_7="13000.00000" pt_clust_8="13000.00000" pt_clust_9="125.75924"></scales>
<clustering>
<clus scale="   81.681">  5  6 -1 -1</clus>
<clus scale="   90.328">  7  8 -1 -1</clus>
<clus scale="  110.276">  2  5  1 -1</clus>
<clus scale="  125.759">  1  9  2 -1</clus>
<clus scale="  125.759">  1  5  2 -1</clus>
</clustering>
</event>
<event>
 9    2  0.4883225E-005  0.1141669E+03  0.7546771E-02  0.1257325E+00
         21   -1    0    0  501  502  0.00000000000E+00  0.00000000000E+00  0.56012480511E+03  0.56012480511E+03  0.00000000000E+00 0. -1.
          2   -1    0    0  502    0 -0.00000000000E+00 -0.00000000000E+00 -0.66586746271E+02  0.66586746271E+02  0.00000000000E+00 0. -1.
         23    2    1    2    0    0 -0.23689913345E+02 -0.67482484944E+02  0.43390286587E+02  0.12373102927E+03  0.91167718329E+02 0.  0.
         24    2    1    2    0    0  0.60947495126E+02  0.40966525219E+02  0.91914551922E+02  0.14184029496E+03  0.79230871939E+02 0.  0.
        -11    1    4    4    0    0  0.21328776382E+02  0.58950210896E+02  0.66771537955E+02  0.91588658401E+02  0.00000000000E+00 0.  1.
         12    1    4    4    0    0  0.39618718743E+02 -0.17983685677E+02  0.25143013966E+02  0.50251636557E+02  0.00000000000E+00 0. -1.
        -13    1    3    3    0    0  0.14835081883E+02 -0.74784978562E+02  0.23615346252E+02  0.79815770695E+02  0.00000000000E+00 0. -1.
         13    1    3    3    0    0 -0.38524995228E+02  0.73024936178E+01  0.19774940335E+02  0.43915258574E+02  0.00000000000E+00 0.  1.
          1    1    1    2  501    0 -0.37257581781E+02  0.26515959725E+02  0.35823322033E+03  0.36114022716E+03  0.00000000000E+00 0. -1.
<scales pt_clust_5="13000.00000" pt_clust_6="13000.00000" pt_clust_7="13000.00000" pt_clust_8="13000.00000" pt_clust_9="45.72990"></scales>
<clustering>
<clus scale="   45.730">  1  9  2 -1</clus>
<clus scale="   79.231">  5  6 -1 -1</clus>
<clus scale="   91.168">  7  8 -1 -1</clus>
<clus scale="  104.881">  1  5  2 -1</clus>
<clus scale="   45.730">  1  5  2 -1</clus>
</clustering>
</event>
<event>
 9    2  0.4883225E-005  0.1196059E+03  0.7546771E-02  0.1246694E+00
          4   -1    0    0  502    0 -0.00000000000E+00  0.00000000000E+00  0.85582874424E+02  0.85582874424E+02  0.00000000000E+00 0. -1.
         21   -1    0    0  501  502  0.00000000000E+00 -0.00000000000E+00 -0.35243575571E+03  0.35243575571E+03  0.00000000000E+00 0. -1.
         23    2    1    2    0    0 -0.11460471792E+02  0.79398796327E+02 -0.15445811409E+02  0.12348142568E+03  0.92593618177E+02 0.  0.
         24    2    1    2    0    0 -0.21033490772E+02 -0.60843753881E+02 -0.25597493396E+03  0.27684088386E+03  0.83506514958E+02 0.  0.
        -11    1    4    4    0    0 -0.23661359577E+02 -0.45662825148E+02 -0.55085649439E+02  0.75361676677E+02  0.00000000000E+00 0.  1.
         12    1    4    4    0    0  0.26278688053E+01 -0.15180928733E+02 -0.20088928453E+03  0.20147920719E+03  0.00000000000E+00 0. -1.
        -13    1    3    3    0    0  0.14463412265E+02  0.23616020479E+02 -0.46845157128E+02  0.54418521332E+02  0.00000000000E+00 0.  1.
         13    1    3    3    0    0 -0.25923884057E+02  0.55782775848E+02  0.31399345720E+02  0.69062904352E+02  0.00000000000E+00 0. -1.
          3    1    1    2  501    0  0.32493962564E+02 -0.18555042446E+02  0.45678640875E+01  0.37696320584E+02  0.00000000000E+00 0. -1.
<scales pt_clust_5="13000.00000" pt_clust_6="13000.00000" pt_clust_7="13000.00000" pt_clust_8="13000.00000" pt_clust_9="37.41856"></scales>
<clustering>
<clus scale="   37.419">  2  9  1 -1</clus>
<clus scale="   83.507">  5  6 -1 -1</clus>
<clus scale="   92.594">  7  8 -1 -1</clus>
<clus scale="  112.718">  2  5  1 -1</clus>
<clus scale="   37.419">  2  5  1 -1</clus>
</clustering>
</event>
<event>
 9    2  0.4883225E-005  0.1792746E+03  0.7546771E-02  0.1169447E+00
         21   -1    0    0  501  502  0.00000000000E+00  0.00000000000E+00  0.94442414403E+02  0.94442414403E+02  0.00000000000E+00 0.  1.
          2   -1    0    0  502    0 -0.00000000000E+00 -0.00000000000E+00 -0.81221409827E+03  0.81221409827E+03  0.00000000000E+00 0. -1.
         24    2    1    2    0    0 -0.13207849179E+03 -0.43307567680E+02 -0.16797458402E+03  0.23250428832E+03  0.80762056667E+02 0.  0.
         23    2    1    2    0    0  0.16744216687E+03  0.86648874027E+02 -0.11946097812E+03  0.24019573344E+03  0.88758990819E+02 0.  0.
        -11    1    3    3    0    0 -0.93135201930E+02  0.11149354105E+02 -0.96873868192E+02  0.13484442990E+03  0.00000000000E+00 0.  1.
         12    1    3    3    0    0 -0.38943289858E+02 -0.54456921785E+02 -0.71100715830E+02  0.97659858421E+02  0.00000000000E+00 0. -1.
        -11    1    4    4    0    0  0.10601219191E+03  0.81012076382E+02 -0.39385693230E+02  0.13911424867E+03  0.00000000000E+00 0.  1.
         11    1    4    4    0    0  0.61429974959E+02  0.56367976452E+01 -0.80075284890E+02  0.10108148476E+03  0.00000000000E+00 0. -1.
          1    1    1    2  501    0 -0.35363675081E+02 -0.43341306347E+02 -0.43033612172E+03  0.43395649092E+03  0.00000000000E+00 0. -1.
<scales pt_clust_5="13000.00000" pt_clust_6="13000.00000" pt_clust_7="13000.00000" pt_clust_8="13000.00000" pt_clust_9="55.93801"></scales>
<clustering>
<clus scale="   55.938">  1  9  2 -1</clus>
<clus scale="   80.762">  5  6 -1 -1</clus>
<clus scale="   88.759">  7  8 -1 -1</clus>
<clus scale="  175.453">  2  5  1 -1</clus>
<clus scale="   55.938">  1  5  2 -1</clus>
</clustering>
</event>
<event>
 9    2  0.4883225E-005  0.1567878E+03  0.7546771E-02  0.1213089E+00
          2   -1    0    0  502    0 -0.00000000000E+00  0.00000000000E+00  0.55439531463E+03  0.55439531463E+03  0.00000000000E+00 0. -1.
         21   -1    0    0  501  502  0.00000000000E+00 -0.00000000000E+00 -0.29765656914E+03  0.29765656914E+03  0.00000000000E+00 0. -1.
         24    2    1    2    0    0  0.53384325969E+02 -0.29631495327E+02  0.34372753523E+03  0.35802962561E+03  0.79427215524E+02 0.  0.
         23    2    1    2    0    0 -0.17666974947E+03  0.12397507335E+02  0.13454167459E+03  0.23991194231E+03  0.89946535753E+02 0.  0.
        -13    1    3    3    0    0  0.70120827772E+02 -0.90113730459E+01  0.28394024160E+03  0.29260928920E+03  0.00000000000E+00 0.  1.
         14    1    3    3    0    0 -0.16736501802E+02 -0.20620122281E+02  0.59787293636E+02  0.65420336408E+02  0.00000000000E+00 0. -1.
        -13    1    4    4    0    0 -0.11263425821E+02 -0.21316751850E+02  0.99507804655E-01  0.24109719460E+02  0.00000000000E+00 0.  1.
         13    1    4    4    0    0 -0.16540632365E+03  0.33714259185E+02  0.13444216678E+03  0.21580222285E+03  0.00000000000E+00 0. -1.
          1    1    1    2  501    0  0.12328542350E+03  0.17233987992E+02 -0.22153046433E+03  0.25411031584E+03  0.00000000000E+00 0. -1.
<scales pt_clust_5="13000.00000" pt_clust_6="13000.00000" pt_clust_7="13000.00000" pt_clust_8="13000.00000" pt_clust_9="128.42132"></scales>
<clustering>
<clus scale="   79.427">  5  6 -1 -1</clus>
<clus scale="   89.947">  7  8 -1 -1</clus>
<clus scale="  100.183">  1  5  2 -1</clus>
<clus scale="  128.421">  2  9  1 -1</clus>
<clus scale="  128.421">  2  5  1 -1</clus>
</clustering>
</event>
<event>
 9    2  0.4883225E-005  0.1241085E+03  0.7546771E-02  0.1239705E+00
         -1   -1    0    0    0  501 -0.00000000000E+00  0.00000000000E+00  0.73742445504E+03  0.73742445504E+03  0.00000000000E+00 0.  1.
         21   -1    0    0  501  502  0.00000000000E+00 -0.00000000000E+00 -0.15289355153E+03  0.15289355153E+03  0.00000000000E+00 0.  1.
         24    2    1    2    0    0  0.32163432541E+02 -0.73106577327E+02  0.61571644403E+03  0.62610497186E+03  0.80756660987E+02 0.  0.
         23    2    1    2    0    0 -0.19271875971E+02  0.12626900045E+03  0.51119601281E+02  0.16538706732E+03  0.91784545121E+02 0.  0.
        -13    1    3    3    0    0  0.23452541699E+02 -0.90819857259E+02  0.50200005603E+03  0.51068808919E+03  0.00000000000E+00 0.  1.
         14    1    3    3    0    0  0.87108908420E+01  0.17713279932E+02  0.11371638800E+03  0.11541688267E+03  0.00000000000E+00 0. -1.
        -11    1    4    4    0    0 -0.80383565687E+01  0.51667172545E+02 -0.25224980951E+02  0.58055245750E+02  0.00000000000E+00 0. -1.
         11    1    4    4    0    0 -0.11233519402E+02  0.74601827900E+02  0.76344582232E+02  0.10733182157E+03  0.00000000000E+00 0.  1.
         -2    1    1    2    0  502 -0.12891556571E+02 -0.53162423119E+02 -0.82305141805E+02  0.98825967388E+02  0.00000000000E+00 0.  1.
<scales pt_clust_5="13000.00000" pt_clust_6="13000.00000" pt_clust_7="13000.00000" pt_clust_8="13000.00000" pt_clust_9="54.70316"></scales>
<clustering>
<clus scale="   54.703">  2  9  1 -1</clus>
<clus scale="   80.757">  5  6 -1 -1</clus>
<clus scale="   91.785">  7  8 -1 -1</clus>
<clus scale="  116.190">  1  5  2 -1</clus>
<clus scale="   54.703">  2  5  1 -1</clus>
</clustering>
</event>
<event>
 9    2  0.4883225E-005  0.9491096E+02  0.7546771E-02  0.1295933E+00
         21   -1    0    0  501  502  0.00000000000E+00  0.00000000000E+00  0.78955069591E+02  0.78955069591E+02  0.00000000000E+00 0.  1.
          2   -1    0    0  502    0 -0.00000000000E+00 -0.00000000000E+00 -0.31765218616E+03  0.31765218616E+03  0.00000000000E+00 0. -1.
         24    2    1    2    0    0  0.28937128545E+02  0.96427589909E+01 -0.25050921080E+03  0.26555478659E+03  0.82668856151E+02 0.  0.
         23    2    1    2    0    0 -0.44686187759E+01  0.18685845565E+01  0.32990021721E+02  0.96705364283E+02  0.90775138590E+02 0.  0.
        -11    1    3    3    0    0 -0.23437652678E+02 -0.11239100972E+02 -0.40625602087E+02  0.48229456753E+02  0.00000000000E+00 0.  1.
         12    1    3    3    0    0  0.52374781224E+02  0.20881859963E+02 -0.20988360871E+03  0.21732532984E+03  0.00000000000E+00 0. -1.
        -13    1    4    4    0    0  0.71897776847E+00  0.42842609139E+02 -0.15326372268E+01  0.42876043005E+02  0.00000000000E+00 0. -1.
         13    1    4    4    0    0 -0.51875965444E+01 -0.40974024583E+02  0.34522658948E+02  0.53829321278E+02  0.00000000000E+00 0.  1.
          1    1    1    2  501    0 -0.24468509770E+02 -0.11511343547E+02 -0.21177927496E+02  0.34347104880E+02  0.00000000000E+00 0. -1.
<scales pt_clust_5="13000.00000" pt_clust_6="13000.00000" pt_clust_7="13000.00000" pt_clust_8="13000.00000" pt_clust_9="27.04107"></scales>
<clustering>
<clus scale="   27.041">  1  9  2 -1</clus>
<clus scale="   82.669">  5  6 -1 -1</clus>
<clus scale="   87.190">  2  5  1 -1</clus>
<clus scale="   90.775">  7  8 -1 -1</clus>
<clus scale="   27.041">  1  5  2 -1</clus>
</clustering>
</event>
<event>
 9    2  0.4883225E-005  0.9877529E+02  0.7546771E-02  0.1289499E+00
         21   -1    0    0  501  502  0.00000000000E+00  0.00000000000E+00  0.28643490972E+03  0.28643490972E+03  0.00000000000E+00 0.  1.
          2   -1    0    0  502    0 -0.00000000000E+00 -0.00000000000E+00 -0.18708762145E+03  0.18708762145E+03  0.00000000000E+00 0. -1.
         24    2    1    2    0    0 -0.13702080630E+02 -0.29364340248E+02 -0.14014812609E+03  0.16460993635E+03  0.80030759126E+02 0.  0.
         23    2    1    2    0    0 -0.21078072750E+02  0.66727336694E+02  0.78583368643E+02  0.14009808411E+03  0.92494890294E+02 0.  0.
        -13    1    3    3    0    0 -0.28943935394E+02  0.18620977546E+02 -0.41987607429E+02  0.54290435423E+02  0.00000000000E+00 0.  1.
         14    1    3    3    0    0  0.15241854764E+02 -0.47985317795E+02 -0.98160518658E+02  0.11031950092E+03  0.00000000000E+00 0. -1.
        -13    1    4    4    0    0 -0.47610801833E+02  0.70825285054E+02  0.43111511879E+02  0.95611777050E+02  0.00000000000E+00 0.  1.
         13    1    4    4    0    0  0.26532729084E+02 -0.40979483604E+01  0.35471856764E+02  0.44486307058E+02  0.00000000000E+00 0. -1.
          1    1    1    2  501    0  0.34780153380E+02 -0.37362996445E+02  0.16091204571E+03  0.16881451072E+03  0.00000000000E+00 0. -1.
<scales pt_clust_5="13000.00000" pt_clust_6="13000.00000" pt_clust_7="13000.00000" pt_clust_8="13000.00000" pt_clust_9="51.04559"></scales>
<clustering>
<clus scale="   51.046">  1  9  2 -1</clus>
<clus scale="   80.031">  5  6 -1 -1</clus>
<clus scale="   87.213">  2  5  1 -1</clus>
<clus scale="   92.495">  7  8 -1 -1</clus>
<clus scale="   51.046">  1  5  2 -1</clus>
</clustering>
</event>
<event>
 9    2  0.6744224E-005  0.1026006E+03  0.7546771E-02  0.1280366E+00
          2   -1    0    0  502    0 -0.00000000000E+00  0.00000000000E+00  0.94045056242E+03  0.94045056242E+03  0.00000000000E+00 0. -1.
         21   -1    0    0  501  502  0.00000000000E+00 -0.00000000000E+00 -0.20451590720E+03  0.20451590720E+03  0.00000000000E+00 0. -1.
         24    2    1    2    0    0  0.28644770527E+02 -0.19444963895E+02  0.84585788721E+03  0.85078338838E+03  0.84606022714E+02 0.  0.
         23    2    1    2    0    0 -0.83917054741E+02  0.46000423711E+02  0.32514134631E+02  0.13910690235E+03  0.95579549441E+02 0.  0.
        -13    1    3    3    0    0 -0.22986650935E+02  0.61157276881E+01  0.10371464572E+03  0.10640731170E+03  0.00000000000E+00 0.  1.
         14    1    3    3    0    0  0.51631421462E+02 -0.25560691583E+02  0.74214324149E+03  0.74437607667E+03  0.00000000000E+00 0. -1.
        -11    1    4    4    0    0 -0.39338267960E+02 -0.63999172190E+01 -0.26999926090E+02  0.48139944696E+02  0.00000000000E+00 0.  1.
         11    1    4    4    0    0 -0.44578786781E+02  0.52400340930E+02  0.59514060721E+02  0.90966957649E+02  0.00000000000E+00 0. -1.
          1    1    1    2  501    0  0.55272284214E+02 -0.26555459816E+02 -0.14243736663E+03  0.15507617890E+03  0.00000000000E+00 0. -1.
<scales pt_clust_5="13000.00000" pt_clust_6="13000.00000" pt_clust_7="13000.00000" pt_clust_8="13000.00000" pt_clust_9="61.32062"></scales>
<clustering>
<clus scale="   61.321">  2  9  1 -1</clus>
<clus scale="   84.606">  5  6 -1 -1</clus>
<clus scale="   92.464">  1  5  2 -1</clus>
<clus scale="   95.580">  7  8 -1 -1</clus>
<clus scale="   61.321">  2  5  1 -1</clus>
</clustering>
</event>
<event>
 9    2  0.4883225E-005  0.1224125E+03  0.7546771E-02  0.1259168E+00
          2   -1    0    0  502    0 -0.00000000000E+00  0.00000000000E+00  0.10167607070E+04  0.10167607070E+04  0.00000000000E+00 0. -1.
         21   -1    0    0  501  502  0.00000000000E+00 -0.00000000000E+00 -0.27441098020E+02  0.27441098020E+02  0.00000000000E+00 0.  1.
         24    2    1    2    0    0  0.18529604960E+02 -0.22694112427E+01  0.25957606446E+03  0.27223395365E+03  0.79894278826E+02 0.  0.
         23    2    1    2    0    0  0.56169435501E+02  0.53684109757E+02  0.19119989925E+03  0.22584270479E+03  0.91708978348E+02 0.  0.
        -13    1    3    3    0    0  0.31387714894E+02 -0.32632008935E+02  0.18881259648E+03  0.19416547902E+03  0.00000000000E+00 0.  1.
         14    1    3    3    0    0 -0.12858109934E+02  0.30362597692E+02  0.70763467978E+02  0.78068474623E+02  0.00000000000E+00 0. -1.
        -13    1    4    4    0    0  0.80260522291E+02  0.32670971637E+02  0.15475065767E+03  0.17736095928E+03  0.00000000000E+00 0.  1.
         13    1    4    4    0    0 -0.24091086791E+02  0.21013138120E+02  0.36449241575E+02  0.48481745511E+02  0.00000000000E+00 0. -1.
          1    1    1    2  501    0 -0.74699040461E+02 -0.51414698514E+02  0.53854364527E+03  0.54612514658E+03  0.00000000000E+00 0. -1.
<scales pt_clust_5="13000.00000" pt_clust_6="13000.00000" pt_clust_7="13000.00000" pt_clust_8="13000.00000" pt_clust_9="81.08198"></scales>
<clustering>
<clus scale="   79.894">  5  6 -1 -1</clus>
<clus scale="   82.046">  1  5  2 -1</clus>
<clus scale="   81.082">  2  9  1 -1</clus>
<clus scale="   91.709">  7  8 -1 -1</clus>
<clus scale="   81.082">  2  5  1 -1</clus>
</clustering>
</event>
<event>
 9    2  0.4883225E-005  0.2019972E+03  0.7546771E-02  0.1177596E+00
         21   -1    0    0  501  502  0.00000000000E+00  0.00000000000E+00  0.10816813303E+03  0.10816813303E+03  0.00000000000E+00 0. -1.
          2   -1    0    0  502    0 -0.00000000000E+00 -0.00000000000E+00 -0.91039801603E+03  0.91039801603E+03  0.00000000000E+00 0. -1.
         24    2    1    2    0    0 -0.62036907223E+02  0.13678002500E+01 -0.38401404871E+03  0.39730700583E+03  0.80843172530E+02 0.  0.
         23    2    1    2    0    0 -0.95442493759E+02 -0.10992139802E+03 -0.39260633838E+03  0.42828377795E+03  0.89973741488E+02 0.  0.
        -13    1    3    3    0    0  0.10269089737E+02 -0.19855199694E+02 -0.48044937020E+02  0.52990557009E+02  0.00000000000E+00 0.  1.
         14    1    3    3    0    0 -0.72305996960E+02  0.21222999944E+02 -0.33596911169E+03  0.34431644882E+03  0.00000000000E+00 0. -1.
        -13    1    4    4    0    0 -0.10137526247E+03 -0.86000645745E+02 -0.37535206946E+03  0.39819873300E+03  0.00000000000E+00 0. -1.
         13    1    4    4    0    0  0.59327687062E+01 -0.23920752273E+02 -0.17254268919E+02  0.30085044952E+02  0.00000000000E+00 0.  1.
          1    1    1    2  501    0  0.15747940098E+03  0.10855359777E+03 -0.25609495909E+02  0.19297536527E+03  0.00000000000E+00 0. -1.
<scales pt_clust_5="13000.00000" pt_clust_6="13000.00000" pt_clust_7="13000.00000" pt_clust_8="13000.00000" pt_clust_9="180.85244"></scales>
<clustering>
<clus scale="   80.843">  5  6 -1 -1</clus>
<clus scale="   89.974">  7  8 -1 -1</clus>
<clus scale="  101.912">  2  5  1 -1</clus>
<clus scale="  180.852">  1  9  2 -1</clus>
<clus scale="  180.852">  1  5  2 -1</clus>
</clustering>
</event>
<event>
 9    2  0.4883225E-005  0.9187484E+02  0.7546771E-02  0.1306310E+00
         21   -1    0    0  501  502  0.00000000000E+00  0.00000000000E+00  0.75789018868E+02  0.75789018868E+02  0.00000000000E+00 0. -1.
          2   -1    0    0  502    0 -0.00000000000E+00 -0.00000000000E+00 -0.14627466849E+03  0.14627466849E+03  0.00000000000E+00 0. -1.
         23    2    1    2    0    0  0.80404513500E+01  0.89602231617E+01 -0.30199618176E+02  0.97087797880E+02  0.91482725704E+02 0.  0.
         24    2    1    2    0    0  0.30935256512E+01  0.24299599898E+02 -0.22648737690E+02  0.85717063659E+02  0.78958275230E+02 0.  0.
        -11    1    4    4    0    0 -0.97804055780E+00 -0.26447262549E+02  0.62271904306E+01  0.27188088575E+02  0.00000000000E+00 0.  1.
         12    1    4    4    0    0  0.40715662090E+01  0.50746862447E+02 -0.28875928120E+02  0.58528975084E+02  0.00000000000E+00 0. -1.
        -11    1    3    3    0    0  0.30695692749E+02  0.69066417535E+01 -0.55044333785E+02  0.63401939525E+02  0.00000000000E+00 0.  1.
         11    1    3    3    0    0 -0.22655241399E+02  0.20535814082E+01  0.24844715609E+02  0.33685858356E+02  0.00000000000E+00 0. -1.
          1    1    1    2  501    0 -0.11133977001E+02 -0.33259823059E+02 -0.17637293761E+02  0.39258825823E+02  0.00000000000E+00 0. -1.
<scales pt_clust_5="13000.00000" pt_clust_6="13000.00000" pt_clust_7="13000.00000" pt_clust_8="13000.00000" pt_clust_9="35.07396"></scales>
<clustering>
<clus scale="   35.074">  1  9  2 -1</clus>
<clus scale="   78.958">  5  6 -1 -1</clus>
<clus scale="   79.412">  1  5  2 -1</clus>
<clus scale="   91.483">  7  8 -1 -1</clus>
<clus scale="   35.074">  1  5  2 -1</clus>
</clustering>
</event>
<event>
 9    2  0.4883225E-005  0.9513429E+02  0.7546771E-02  0.1297470E+00
          4   -1    0    0  502    0 -0.00000000000E+00  0.00000000000E+00  0.14362110594E+03  0.14362110594E+03  0.00000000000E+00 0. -1.
         21   -1    0    0  501  502  0.00000000000E+00 -0.00000000000E+00 -0.10889604594E+03  0.10889604594E+03  0.00000000000E+00 0. -1.
         23    2    1    2    0    0 -0.50799368097E+02  0.31870051203E+02  0.45387026320E+02  0.11681323847E+03  0.89381623168E+02 0.  0.
         24    2    1    2    0    0  0.59102505912E+01 -0.75132347356E+00  0.74261762146E+01  0.78166195469E+02  0.77584215352E+02 0.  0.
        -11    1    4    4    0    0  0.38601736647E+02  0.14532558233E+02 -0.35871393572E+00  0.41248248407E+02  0.00000000000E+00 0.  1.
         12    1    4    4    0    0 -0.32691486056E+02 -0.15283881706E+02  0.77848901503E+01  0.36917947061E+02  0.00000000000E+00 0. -1.
        -11    1    3    3    0    0 -0.24768579184E+02 -0.29972172168E+02  0.69877066689E+01  0.39504957458E+02  0.00000000000E+00 0.  1.
         11    1    3    3    0    0 -0.26030788912E+02  0.61842223370E+02  0.38399319651E+02  0.77308281008E+02  0.00000000000E+00 0. -1.
          3    1    1    2  501    0  0.44889117506E+02 -0.31118727729E+02 -0.18088142538E+02  0.57537717946E+02  0.00000000000E+00 0. -1.
<scales pt_clust_5="13000.00000" pt_clust_6="13000.00000" pt_clust_7="13000.00000" pt_clust_8="13000.00000" pt_clust_9="54.62058"></scales>
<clustering>
<clus scale="   54.621">  2  9  1 -1</clus>
<clus scale="   77.584">  5  6 -1 -1</clus>
<clus scale="   84.147">  2  5  1 -1</clus>
<clus scale="   89.382">  7  8 -1 -1</clus>
<clus scale="   54.621">  2  5  1 -1</clus>
</clustering>
</event>
<event>
 9    2  0.4883225E-005  0.1016709E+03  0.7546771E-02  0.1281430E+00
         21   -1    0    0  501  502  0.00000000000E+00  0.00000000000E+00  0.62722410377E+03  0.62722410377E+03  0.00000000000E+00 0. -1.
          2   -1    0    0  502    0 -0.00000000000E+00 -0.00000000000E+00 -0.32224292564E+02  0.32224292564E+02  0.00000000000E+00 0. -1.
         24    2    1    2    0    0  0.10536106043E+02 -0.39500680388E+02  0.14523082774E+03  0.17184595101E+03  0.82266179369E+02 0.  0.
         23    2    1    2    0    0  0.58364570769E+02  0.46397808710E+02  0.30467574935E+03  0.32683267134E+03  0.91831928201E+02 0.  0.
        -11    1    3    3    0    0  0.30568521985E+02 -0.52224399434E+02  0.67881890533E+02  0.90938294986E+02  0.00000000000E+00 0.  1.
         12    1    3    3    0    0 -0.20032415942E+02  0.12723719046E+02  0.77348937211E+02  0.80907656019E+02  0.00000000000E+00 0. -1.
        -11    1    4    4    0    0  0.68339432142E+02 -0.24914783234E+01  0.17431063803E+03  0.18724498386E+03  0.00000000000E+00 0. -1.
         11    1    4    4    0    0 -0.99748613736E+01  0.48889287033E+02  0.13036511132E+03  0.13958768748E+03  0.00000000000E+00 0.  1.
          1    1    1    2  501    0 -0.68900676812E+02 -0.68971283215E+01  0.14509323411E+03  0.16076977399E+03  0.00000000000E+00 0. -1.
<scales pt_clust_5="13000.00000" pt_clust_6="13000.00000" pt_clust_7="13000.00000" pt_clust_8="13000.00000" pt_clust_9="69.24503"></scales>
<clustering>
<clus scale="   69.245">  1  9  2 -1</clus>
<clus scale="   82.266">  5  6 -1 -1</clus>
<clus scale="   91.832">  7  8 -1 -1</clus>
<clus scale="   93.121">  2  5  1 -1</clus>
<clus scale="   69.245">  1  5  2 -1</clus>
</clustering>
</event>
<event>
 9    2  0.4883225E-005  0.2507222E+03  0.7546771E-02  0.1113690E+00
          2   -1    0    0  502    0 -0.00000000000E+00  0.00000000000E+00  0.68594678597E+03  0.68594678597E+03  0.00000000000E+00 0. -1.
         21   -1    0    0  501  502  0.00000000000E+00 -0.00000000000E+00 -0.18049401314E+03  0.18049401314E+03  0.00000000000E+00 0. -1.
         24    2    1    2    0    0  0.91575122951E+02  0.17424526515E+03  0.13055001140E+03  0.25869372003E+03  0.10550696534E+03 0.  0.
         23    2    1    2    0    0 -0.21898995251E+03 -0.18512161787E+03  0.12325315244E+03  0.32546998200E+03  0.92264602605E+02 0.  0.
        -11    1    3    3    0    0 -0.49089000632E+01  0.46582874873E+02 -0.73964625472E+01  0.47421189245E+02  0.00000000000E+00 0.  1.
         12    1    3    3    0    0  0.96484023015E+02  0.12766239027E+03  0.13794647395E+03  0.21127253078E+03  0.00000000000E+00 0. -1.
        -11    1    4    4    0    0 -0.11196889530E+03 -0.10650435002E+03  0.17125948424E+02  0.15547832067E+03  0.00000000000E+00 0.  1.
         11    1    4    4    0    0 -0.10702105721E+03 -0.78617267847E+02  0.10612720402E+03  0.16999166133E+03  0.00000000000E+00 0. -1.
          1    1    1    2  501    0  0.12741482956E+03  0.10876352722E+02  0.25164960898E+03  0.28227709709E+03  0.00000000000E+00 0. -1.
<scales pt_clust_5="13000.00000" pt_clust_6="13000.00000" pt_clust_7="13000.00000" pt_clust_8="13000.00000" pt_clust_9="127.87826"></scales>
<clustering>
<clus scale="   92.265">  7  8 -1 -1</clus>
<clus scale="  105.507">  5  6 -1 -1</clus>
<clus scale="  127.878">  2  9  1 -1</clus>
<clus scale="  245.444">  2  7  1 -1</clus>
<clus scale="  127.878">  2  5  1 -1</clus>
</clustering>
</event>
<event>
 9    2  0.4883225E-005  0.1035132E+03  0.7546771E-02  0.1277885E+00
         -1   -1    0    0    0  501 -0.00000000000E+00  0.00000000000E+00  0.16932486449E+03  0.16932486449E+03  0.00000000000E+00 0.  1.
         21   -1    0    0  501  502  0.00000000000E+00 -0.00000000000E+00 -0.10822244125E+03  0.10822244125E+03  0.00000000000E+00 0. -1.
         23    2    1    2    0    0  0.34127364284E+02  0.48167139615E+02  0.50610955822E+02  0.11942738569E+03  0.90645911502E+02 0.  0.
         24    2    1    2    0    0 -0.79356939558E+01 -0.32535261524E+02 -0.42752431378E+02  0.96758108101E+02  0.80080226109E+02 0.  0.
        -11    1    4    4    0    0 -0.26224107345E+02 -0.51778791766E+02 -0.39047298867E+02  0.69953117383E+02  0.00000000000E+00 0.  1.
         12    1    4    4    0    0  0.18288413389E+02  0.19243530242E+02 -0.37051325109E+01  0.26804990718E+02  0.00000000000E+00 0. -1.
        -11    1    3    3    0    0  0.65034006177E+02  0.28676945352E+02  0.27601011774E+02  0.76246999974E+02  0.00000000000E+00 0. -1.
         11    1    3    3    0    0 -0.30906641893E+02  0.19490194263E+02  0.23009944048E+02  0.43180385716E+02  0.00000000000E+00 0.  1.
         -2    1    1    2    0  502 -0.26191670328E+02 -0.15631878091E+02  0.53243898792E+02  0.61361811950E+02  0.00000000000E+00 0.  1.
<scales pt_clust_5="13000.00000" pt_clust_6="13000.00000" pt_clust_7="13000.00000" pt_clust_8="13000.00000" pt_clust_9="30.50181"></scales>
<clustering>
<clus scale="   30.502">  2  9  1 -1</clus>
<clus scale="   80.080">  5  6 -1 -1</clus>
<clus scale="   90.646">  7  8 -1 -1</clus>
<clus scale="   94.399">  2  5  1 -1</clus>
<clus scale="   30.502">  2  5  1 -1</clus>
</clustering>
</event>
<event>
 9    2  0.4883225E-005  0.9355546E+02  0.7546771E-02  0.1300871E+00
          2   -1    0    0  502    0 -0.00000000000E+00  0.00000000000E+00  0.61206908830E+03  0.61206908830E+03  0.00000000000E+00 0. -1.
         21   -1    0    0  501  502  0.00000000000E+00 -0.00000000000E+00 -0.26961260811E+02  0.26961260811E+02  0.00000000000E+00 0.  1.
         23    2    1    2    0    0 -0.26920578260E+02 -0.21515281726E+01  0.40303656697E+03  0.41425608688E+03  0.91871021528E+02 0.  0.
         24    2    1    2    0    0 -0.11963572155E+02 -0.14240384515E+01  0.76464976812E+02  0.11218008392E+03  0.81193125359E+02 0.  0.
        -13    1    4    4    0    0 -0.38482345325E+02 -0.46406966416E+01  0.92474650473E+01  0.39848997187E+02  0.00000000000E+00 0.  1.
         14    1    4    4    0    0  0.26518773169E+02  0.32166581901E+01  0.67217511765E+02  0.72331086735E+02  0.00000000000E+00 0. -1.
        -11    1    3    3    0    0 -0.37526320729E+02  0.38375958227E+02  0.23925975275E+03  0.24520637880E+03  0.00000000000E+00 0.  1.
         11    1    3    3    0    0  0.10605742469E+02 -0.40527486400E+02  0.16377681422E+03  0.16904970809E+03  0.00000000000E+00 0. -1.
          1    1    1    2  501    0  0.38884150415E+02  0.35755666241E+01  0.10560628370E+03  0.11259417830E+03  0.00000000000E+00 0. -1.
<scales pt_clust_5="13000.00000" pt_clust_6="13000.00000" pt_clust_7="13000.00000" pt_clust_8="13000.00000" pt_clust_9="39.04822"></scales>
<clustering>
<clus scale="   39.048">  2  9  1 -1</clus>
<clus scale="   81.193">  5  6 -1 -1</clus>
<clus scale="   83.094">  2  5  1 -1</clus>
<clus scale="   91.871">  7  8 -1 -1</clus>
<clus scale="   39.048">  2  5  1 -1</clus>
</clustering>
</event>
<event>
 9    2  0.4883225E-005  0.1617787E+03  0.7546771E-02  0.1210947E+00
         21   -1    0    0  501  502  0.00000000000E+00  0.00000000000E+00  0.28207282006E+02  0.28207282006E+02  0.00000000000E+00 0.  1.
          2   -1    0    0  502    0 -0.00000000000E+00 -0.00000000000E+00 -0.14907146128E+04  0.14907146128E+04  0.00000000000E+00 0. -1.
         23    2    1    2    0    0  0.25819906611E+02 -0.15823610968E+02 -0.23928883392E+03  0.25762237158E+03  0.90515667458E+02 0.  0.
         24    2    1    2    0    0 -0.83532510561E+02 -0.11721175554E+03 -0.60696282765E+03  0.62821169106E+03  0.74362481638E+02 0.  0.
        -11    1    4    4    0    0 -0.44768728747E+02 -0.94287399801E+02 -0.29301165375E+03  0.31104691297E+03  0.00000000000E+00 0.  1.
         12    1    4    4    0    0 -0.38763781813E+02 -0.22924355743E+02 -0.31395117390E+03  0.31716477809E+03  0.00000000000E+00 0. -1.
        -11    1    3    3    0    0 -0.26868353403E+02  0.51057626888E+01 -0.29153931851E+02  0.39974103738E+02  0.00000000000E+00 0.  1.
         11    1    3    3    0    0  0.52688260014E+02 -0.20929373656E+02 -0.21013490207E+03  0.21764826784E+03  0.00000000000E+00 0. -1.
          1    1    1    2  501    0  0.57712603950E+02  0.13303536651E+03 -0.61625566927E+03  0.63308783222E+03  0.00000000000E+00 0. -1.
<scales pt_clust_5="13000.00000" pt_clust_6="13000.00000" pt_clust_7="13000.00000" pt_clust_8="13000.00000" pt_clust_9="143.67528"></scales>
<clustering>
<clus scale="   74.362">  5  6 -1 -1</clus>
<clus scale="   90.516">  7  8 -1 -1</clus>
<clus scale="   95.447">  2  7  1 -1</clus>
<clus scale="  143.675">  1  9  2 -1</clus>
<clus scale="  143.675">  1  5  2 -1</clus>
</clustering>
</event>
<event>
 9    2  0.4883225E-005  0.9285526E+02  0.7546771E-02  0.1309544E+00
          2   -1    0    0  502    0 -0.00000000000E+00  0.00000000000E+00  0.57809980093E+03  0.57809980093E+03  0.00000000000E+00 0. -1.
         21   -1    0    0  501  502  0.00000000000E+00 -0.00000000000E+00 -0.65689388817E+02  0.65689388817E+02  0.00000000000E+00 0.  1.
         23    2    1    2    0    0  0.12629170680E+01  0.28368760242E+02  0.35241436212E+03  0.36505023492E+03  0.90881295506E+02 0.  0.
         24    2    1    2    0    0  0.72210173352E+01 -0.99716849302E+01  0.21164750150E+03  0.22325650745E+03  0.69980180295E+02 0.  0.
        -13    1    4    4    0    0 -0.20750959023E+02  0.50392530473E+01  0.20880580053E+02  0.29866285256E+02  0.00000000000E+00 0.  1.
         14    1    4    4    0    0  0.27971976358E+02 -0.15010937977E+02  0.19076692145E+03  0.19339022219E+03  0.00000000000E+00 0. -1.
        -13    1    3    3    0    0 -0.39344166457E+02  0.85644227689E+01  0.87617667681E+02  0.96427011057E+02  0.00000000000E+00 0. -1.
         13    1    3    3    0    0  0.40607083525E+02  0.19804337473E+02  0.26479669444E+03  0.26862322387E+03  0.00000000000E+00 0.  1.
          1    1    1    2  501    0 -0.84839344032E+01 -0.18397075312E+02 -0.51651451512E+02  0.55482447371E+02  0.00000000000E+00 0. -1.
<scales pt_clust_5="13000.00000" pt_clust_6="13000.00000" pt_clust_7="13000.00000" pt_clust_8="13000.00000" pt_clust_9="20.25906"></scales>
<clustering>
<clus scale="   20.259">  2  9  1 -1</clus>
<clus scale="   69.980">  5  6 -1 -1</clus>
<clus scale="   72.525">  2  5  1 -1</clus>
<clus scale="   90.881">  7  8 -1 -1</clus>
<clus scale="   20.259">  2  5  1 -1</clus>
</clustering>
</event>
<event>
 9    2  0.4883225E-005  0.1025787E+03  0.7546771E-02  0.1278598E+00
          2   -1    0    0  502    0 -0.00000000000E+00  0.00000000000E+00  0.60478834979E+03  0.60478834979E+03  0.00000000000E+00 0. -1.
         21   -1    0    0  501  502  0.00000000000E+00 -0.00000000000E+00 -0.38723963646E+02  0.38723963646E+02  0.00000000000E+00 0.  1.
         24    2    1    2    0    0  0.56372932849E+02  0.21449560768E+01  0.46320691091E+03  0.47375993686E+03  0.81886061470E+02 0.  0.
         23    2    1    2    0    0 -0.21698686239E+02  0.17270674661E+02  0.82581408052E+02  0.12513860073E+03  0.89838027853E+02 0.  0.
        -13    1    3    3    0    0  0.21545602935E+01  0.30776857176E+02  0.81199407970E+02  0.86863116007E+02  0.00000000000E+00 0.  1.
         14    1    3    3    0    0  0.54218372555E+02 -0.28631901099E+02  0.38200750294E+03  0.38689682085E+03  0.00000000000E+00 0. -1.
        -11    1    4    4    0    0  0.77878583715E+01  0.20943057811E+02 -0.12444013118E+02  0.25575689061E+02  0.00000000000E+00 0.  1.
         11    1    4    4    0    0 -0.29486544611E+02 -0.36723831499E+01  0.95025421170E+02  0.99562911667E+02  0.00000000000E+00 0. -1.
          1    1    1    2  501    0 -0.34674246610E+02 -0.19415630738E+02  0.20276067176E+02  0.44613775843E+02  0.00000000000E+00 0. -1.
<scales pt_clust_5="13000.00000" pt_clust_6="13000.00000" pt_clust_7="13000.00000" pt_clust_8="13000.00000" pt_clust_9="39.74003"></scales>
<clustering>
<clus scale="   39.740">  2  9  1 -1</clus>
<clus scale="   81.886">  5  6 -1 -1</clus>
<clus scale="   89.838">  7  8 -1 -1</clus>
<clus scale="   95.691">  1  5  2 -1</clus>
<clus scale="   39.740">  2  5  1 -1</clus>
</clustering>
</event>
<event>
 9    2  0.4883225E-005  0.9719157E+02  0.7546771E-02  0.1291814E+00
         21   -1    0    0  501  502  0.00000000000E+00  0.00000000000E+00  0.49671696468E+02  0.49671696468E+02  0.00000000000E+00 0. -1.
          2   -1    0    0  502    0 -0.00000000000E+00 -0.00000000000E+00 -0.32466774627E+03  0.32466774627E+03  0.00000000000E+00 0. -1.
         23    2    1    2    0    0 -0.13120743532E+02  0.46427693778E+02 -0.13002867649E+03  0.16652002161E+03  0.92161685256E+02 0.  0.
         24    2    1    2    0    0  0.35204794076E+02  0.70434513541E+01 -0.10208997026E+03  0.13581011379E+03  0.82055086659E+02 0.  0.
        -11    1    4    4    0    0 -0.17749311978E+02 -0.15549868418E+02 -0.69376471089E+01  0.24596085683E+02  0.00000000000E+00 0.  1.
         12    1    4    4    0    0  0.52954106054E+02  0.22593319772E+02 -0.95152323156E+02  0.11121402811E+03  0.00000000000E+00 0. -1.
        -13    1    3    3    0    0 -0.46778824449E+01 -0.28000796520E+02 -0.44963200023E+02  0.53175337763E+02  0.00000000000E+00 0.  1.
         13    1    3    3    0    0 -0.84428610870E+01  0.74428490298E+02 -0.85065476462E+02  0.11334468385E+03  0.00000000000E+00 0. -1.
          1    1    1    2  501    0 -0.22084050544E+02 -0.53471145132E+02 -0.42877403051E+02  0.72009307333E+02  0.00000000000E+00 0. -1.
<scales pt_clust_5="13000.00000" pt_clust_6="13000.00000" pt_clust_7="13000.00000" pt_clust_8="13000.00000" pt_clust_9="57.85213"></scales>
<clustering>
<clus scale="   57.852">  1  9  2 -1</clus>
<clus scale="   82.055">  5  6 -1 -1</clus>
<clus scale="   87.667">  1  5  2 -1</clus>
<clus scale="   92.162">  7  8 -1 -1</clus>
<clus scale="   57.852">  1  5  2 -1</clus>
</clustering>
</event>
<event>
 9    2  0.4883225E-005  0.1325138E+03  0.7546771E-02  0.1226078E+00
         21   -1    0    0  501  502  0.00000000000E+00  0.00000000000E+00  0.11484327952E+03  0.11484327952E+03  0.00000000000E+00 0.  1.
          2   -1    0    0  502    0 -0.00000000000E+00 -0.00000000000E+00 -0.44272216215E+03  0.44272216215E+03  0.00000000000E+00 0. -1.
         24    2    1    2    0    0 -0.11494770204E+03 -0.29160288136E+02 -0.12143910881E+03  0.18742940203E+03  0.79492307739E+02 0.  0.
         23    2    1    2    0    0  0.32477748200E+02  0.65859410015E+02  0.28139127128E+02  0.11878890996E+03  0.89032177538E+02 0.  0.
        -11    1    3    3    0    0 -0.37948517581E+02  0.26587051260E+02 -0.28020501799E+02  0.54148959384E+02  0.00000000000E+00 0.  1.
         12    1    3    3    0    0 -0.76999184454E+02 -0.55747339396E+02 -0.93418607010E+02  0.13328044265E+03  0.00000000000E+00 0. -1.
        -11    1    4    4    0    0 -0.10685070119E+02  0.28752333055E+02  0.49298914071E+02  0.58062469015E+02  0.00000000000E+00 0.  1.
         11    1    4    4    0    0  0.43162818320E+02  0.37107076960E+02 -0.21159786943E+02  0.60726440940E+02  0.00000000000E+00 0. -1.
          1    1    1    2  501    0  0.82469953836E+02 -0.36699121879E+02 -0.23457890094E+03  0.25134712968E+03  0.00000000000E+00 0. -1.
<scales pt_clust_5="13000.00000" pt_clust_6="13000.00000" pt_clust_7="13000.00000" pt_clust_8="13000.00000" pt_clust_9="90.26698"></scales>
<clustering>
<clus scale="   79.492">  5  6 -1 -1</clus>
<clus scale="   89.032">  7  8 -1 -1</clus>
<clus scale="   90.267">  1  9  2 -1</clus>
<clus scale="  126.302">  2  5  1 -1</clus>
<clus scale="   90.267">  1  5  2 -1</clus>
</clustering>
</event>
<event>
 9    2  0.4883225E-005  0.1027851E+03  0.7546771E-02  0.1280912E+00
         21   -1    0    0  501  502  0.00000000000E+00  0.00000000000E+00  0.12667402373E+03  0.12667402373E+03  0.00000000000E+00 0.  1.
         -1   -1    0    0    0  501 -0.00000000000E+00 -0.00000000000E+00 -0.19092938433E+03  0.19092938433E+03  0.00000000000E+00 0.  1.
         24    2    1    2    0    0  0.42533434738E+02 -0.82696694919E+01 -0.11586814640E+03  0.14668418325E+03  0.78824753478E+02 0.  0.
         23    2    1    2    0    0 -0.45132071672E+02  0.35766397700E+02 -0.40827237289E+01  0.10875160658E+03  0.92163464573E+02 0.  0.
        -11    1    3    3    0    0  0.30592278277E+02 -0.32255629769E+02 -0.11083951050E+03  0.11942240254E+03  0.00000000000E+00 0.  1.
         12    1    3    3    0    0  0.11941156462E+02  0.23985960277E+02 -0.50286358987E+01  0.27261780702E+02  0.00000000000E+00 0. -1.
        -13    1    4    4    0    0  0.30106856539E+01  0.55873311924E+02 -0.75608355219E+01  0.56462885573E+02  0.00000000000E+00 0.  1.
         13    1    4    4    0    0 -0.48142757325E+02 -0.20106914224E+02  0.34781117930E+01  0.52288721003E+02  0.00000000000E+00 0. -1.
         -2    1    1    2    0  502  0.25986369333E+01 -0.27496728208E+02  0.55695509531E+02  0.62167618243E+02  0.00000000000E+00 0.  1.
<scales pt_clust_5="13000.00000" pt_clust_6="13000.00000" pt_clust_7="13000.00000" pt_clust_8="13000.00000" pt_clust_9="27.61925"></scales>
<clustering>
<clus scale="   27.619">  1  9  2 -1</clus>
<clus scale="   78.825">  5  6 -1 -1</clus>
<clus scale="   91.017">  2  5  1 -1</clus>
<clus scale="   92.163">  7  8 -1 -1</clus>
<clus scale="   27.619">  1  5  2 -1</clus>
</clustering>
</event>
<event>
 9    2  0.4883225E-005  0.9719661E+02  0.7546771E-02  0.1292116E+00
          2   -1    0    0  502    0 -0.00000000000E+00  0.00000000000E+00  0.60173912662E+03  0.60173912662E+03  0.00000000000E+00 0. -1.
         21   -1    0    0  501  502  0.00000000000E+00 -0.00000000000E+00 -0.89584435753E+02  0.89584435753E+02  0.00000000000E+00 0. -1.
         24    2    1    2    0    0  0.34092011414E+02  0.97997170215E+01  0.42664027410E+03  0.43572594491E+03  0.81097940119E+02 0.  0.
         23    2    1    2    0    0 -0.24357960475E+02  0.36411821029E+02  0.14657101004E+03  0.17840846291E+03  0.91800804491E+02 0.  0.
        -13    1    3    3    0    0  0.27264885305E+02 -0.33939621715E+02  0.23915789342E+03  0.24308798793E+03  0.00000000000E+00 0.  1.
         14    1    3    3    0    0  0.68271261084E+01  0.43739338737E+02  0.18748238068E+03  0.19263795698E+03  0.00000000000E+00 0. -1.
        -11    1    4    4    0    0  0.28824329972E+02  0.17456813225E+01  0.85790193571E+02  0.90519869170E+02  0.00000000000E+00 0.  1.
         11    1    4    4    0    0 -0.53182290447E+02  0.34666139706E+02  0.60780816471E+02  0.87888593743E+02  0.00000000000E+00 0. -1.
          1    1    1    2  501    0 -0.97340509389E+01 -0.46211538050E+02 -0.61056593277E+02  0.77189154544E+02  0.00000000000E+00 0. -1.
<scales pt_clust_5="13000.00000" pt_clust_6="13000.00000" pt_clust_7="13000.00000" pt_clust_8="13000.00000" pt_clust_9="47.22561"></scales>
<clustering>
<clus scale="   47.226">  2  9  1 -1</clus>
<clus scale="   81.098">  5  6 -1 -1</clus>
<clus scale="   87.159">  1  5  2 -1</clus>
<clus scale="   91.801">  7  8 -1 -1</clus>
<clus scale="   47.226">  2  5  1 -1</clus>
</clustering>
</event>
<event>
 9    2  0.4883225E-005  0.9432401E+02  0.7546771E-02  0.1295930E+00
         21   -1    0    0  501  502  0.00000000000E+00  0.00000000000E+00  0.15523720630E+03  0.15523720630E+03  0.00000000000E+00 0.  1.
          2   -1    0    0  502    0 -0.00000000000E+00 -0.00000000000E+00 -0.84752315334E+03  0.84752315334E+03  0.00000000000E+00 0. -1.
         24    2    1    2    0    0  0.28062180963E+02  0.63528435508E+01 -0.82117630166E+03  0.82597037749E+03  0.84075569950E+02 0.  0.
         23    2    1    2    0    0 -0.17893705950E+02 -0.28960865559E+02  0.10562196011E+03  0.14279088324E+03  0.89857228058E+02 0.  0.
        -13    1    3    3    0    0  0.30557770167E+01  0.36320107410E+02 -0.18258616096E+03  0.18618859834E+03  0.00000000000E+00 0.  1.
         14    1    3    3    0    0  0.25006403947E+02 -0.29967263860E+02 -0.63859014070E+03  0.63978177915E+03  0.00000000000E+00 0. -1.
        -13    1    4    4    0    0  0.32568071839E+02 -0.48043891209E+01  0.14740669067E+02  0.36070053821E+02  0.00000000000E+00 0. -1.
         13    1    4    4    0    0 -0.50461777789E+02 -0.24156476438E+02  0.90881291040E+02  0.10672082942E+03  0.00000000000E+00 0.  1.
          1    1    1    2  501    0 -0.10168475013E+02  0.22608022008E+02  0.23268394511E+02  0.33999098905E+02  0.00000000000E+00 0. -1.
<scales pt_clust_5="13000.00000" pt_clust_6="13000.00000" pt_clust_7="13000.00000" pt_clust_8="13000.00000" pt_clust_9="24.78952"></scales>
<clustering>
<clus scale="   24.790">  1  9  2 -1</clus>
<clus scale="   84.076">  5  6 -1 -1</clus>
<clus scale="   88.834">  2  5  1 -1</clus>
<clus scale="   89.857">  7  8 -1 -1</clus>
<clus scale="   24.790">  1  5  2 -1</clus>
</clustering>
</event>
<event>
 9    2  0.4883225E-005  0.1211938E+03  0.7546771E-02  0.1244224E+00
         21   -1    0    0  501  502  0.00000000000E+00  0.00000000000E+00  0.92465065433E+02  0.92465065433E+02  0.00000000000E+00 0.  1.
         -1   -1    0    0    0  501 -0.00000000000E+00 -0.00000000000E+00 -0.29573212359E+03  0.29573212359E+03  0.00000000000E+00 0.  1.
         24    2    1    2    0    0 -0.20832614529E+02  0.10588019308E+03 -0.14549935948E+03  0.19735934305E+03  0.78332838349E+02 0.  0.
         23    2    1    2    0    0  0.46107553522E+02 -0.37071189860E+02 -0.48001158682E+02  0.11688592396E+03  0.88645520906E+02 0.  0.
        -11    1    3    3    0    0 -0.35594838675E+02  0.96293749708E+02 -0.14742925761E+03  0.17965206587E+03  0.00000000000E+00 0.  1.
         12    1    3    3    0    0  0.14762224146E+02  0.95864433740E+01  0.19298981250E+01  0.17707277178E+02  0.00000000000E+00 0. -1.
        -11    1    4    4    0    0  0.58168177987E+02 -0.27218054923E+01 -0.54671833948E+02  0.79874617888E+02  0.00000000000E+00 0.  1.
         11    1    4    4    0    0 -0.12060624465E+02 -0.34349384368E+02  0.66706752665E+01  0.37011306076E+02  0.00000000000E+00 0. -1.
         -2    1    1    2    0  502 -0.25274938993E+02 -0.68809003222E+02 -0.97665399932E+01  0.73951922010E+02  0.00000000000E+00 0.  1.
<scales pt_clust_5="13000.00000" pt_clust_6="13000.00000" pt_clust_7="13000.00000" pt_clust_8="13000.00000" pt_clust_9="73.30417"></scales>
<clustering>
<clus scale="   73.304">  1  9  2 -1</clus>
<clus scale="   78.333">  5  6 -1 -1</clus>
<clus scale="   88.646">  7  8 -1 -1</clus>
<clus scale="  113.868">  2  5  1 -1</clus>
<clus scale="   73.304">  1  5  2 -1</clus>
</clustering>
</event>
<event>
 9    2  0.4883225E-005  0.1144390E+03  0.7546771E-02  0.1256109E+00
          2   -1    0    0  502    0 -0.00000000000E+00  0.00000000000E+00  0.17937415662E+03  0.17937415662E+03  0.00000000000E+00 0. -1.
         21   -1    0    0  501  502  0.00000000000E+00 -0.00000000000E+00 -0.24031148834E+03  0.24031148834E+03  0.00000000000E+00 0. -1.
         23    2    1    2    0    0 -0.67556863361E+02 -0.24969455687E+02  0.14088585326E+03  0.18275729217E+03  0.91454910689E+02 0.  0.
         24    2    1    2    0    0  0.39753034834E+02  0.11395187822E+02 -0.16672554614E+03  0.19013991532E+03  0.81520706431E+02 0.  0.
        -11    1    4    4    0    0  0.54807466440E+02 -0.16810737710E+02 -0.86439352501E+02  0.10372184409E+03  0.00000000000E+00 0.  1.
         12    1    4    4    0    0 -0.15054431606E+02  0.28205925532E+02 -0.80286193641E+02  0.86418071232E+02  0.00000000000E+00 0. -1.
        -13    1    3    3    0    0 -0.49512041504E+02 -0.58778138580E+02  0.10603829703E+03  0.13095965892E+03  0.00000000000E+00 0. -1.
         13    1    3    3    0    0 -0.18044821857E+02  0.33808682894E+02  0.34847556231E+02  0.51797633248E+02  0.00000000000E+00 0.  1.
          1    1    1    2  501    0  0.27803828527E+02  0.13574267865E+02 -0.35097638840E+02  0.46788437471E+02  0.00000000000E+00 0. -1.
<scales pt_clust_5="13000.00000" pt_clust_6="13000.00000" pt_clust_7="13000.00000" pt_clust_8="13000.00000" pt_clust_9="30.94049"></scales>
<clustering>
<clus scale="   30.940">  2  9  1 -1</clus>
<clus scale="   81.521">  5  6 -1 -1</clus>
<clus scale="   91.455">  7  8 -1 -1</clus>
<clus scale="  106.667">  2  5  1 -1</clus>
<clus scale="   30.940">  2  5  1 -1</clus>
</clustering>
</event>
<event>
 9    2  0.4883225E-005  0.9244459E+02  0.7546771E-02  0.1305314E+00
          2   -1    0    0  502    0 -0.00000000000E+00  0.00000000000E+00  0.63455624125E+03  0.63455624125E+03  0.00000000000E+00 0. -1.
         21   -1    0    0  501  502  0.00000000000E+00 -0.00000000000E+00 -0.25748479352E+02  0.25748479352E+02  0.00000000000E+00 0. -1.
         23    2    1    2    0    0  0.54452413285E+01  0.33526622226E+02  0.32319910486E+03  0.33754153765E+03  0.91230166101E+02 0.  0.
         24    2    1    2    0    0 -0.21182257617E+02  0.28630580229E+02  0.15009954101E+03  0.17285023479E+03  0.77967514354E+02 0.  0.
        -11    1    4    4    0    0 -0.41760410599E+02  0.17919688789E+02  0.14063578623E+03  0.14779537039E+03  0.00000000000E+00 0.  1.
         12    1    4    4    0    0  0.20578152982E+02  0.10710891439E+02  0.94637547728E+01  0.25054864398E+02  0.00000000000E+00 0. -1.
        -13    1    3    3    0    0 -0.32905408895E+02  0.27930516963E+02  0.25883934680E+03  0.26241319930E+03  0.00000000000E+00 0.  1.
         13    1    3    3    0    0  0.38350650224E+02  0.55961052628E+01  0.64359758062E+02  0.75128338358E+02  0.00000000000E+00 0. -1.
          1    1    1    2  501    0  0.15737016289E+02 -0.62157202454E+02  0.13550911603E+03  0.14991294816E+03  0.00000000000E+00 0. -1.
<scales pt_clust_5="13000.00000" pt_clust_6="13000.00000" pt_clust_7="13000.00000" pt_clust_8="13000.00000" pt_clust_9="64.11842"></scales>
<clustering>
<clus scale="   64.118">  2  9  1 -1</clus>
<clus scale="   77.968">  5  6 -1 -1</clus>
<clus scale="   79.385">  2  5  1 -1</clus>
<clus scale="   91.230">  7  8 -1 -1</clus>
<clus scale="   64.118">  2  5  1 -1</clus>
</clustering>
</event>
<event>
 9    2  0.7091624E-005  0.1022706E+03  0.7546771E-02  0.1288250E+00
         21   -1    0    0  501  502  0.00000000000E+00  0.00000000000E+00  0.39534699204E+03  0.39534699204E+03  0.00000000000E+00 0. -1.
          2   -1    0    0  502    0 -0.00000000000E+00 -0.00000000000E+00 -0.14071652787E+03  0.14071652787E+03  0.00000000000E+00 0. -1.
         23    2    1    2    0    0  0.74058542750E+01  0.41965171942E+01 -0.11146825323E+03  0.15120697872E+03  0.10181316958E+03 0.  0.
         24    2    1    2    0    0 -0.26990499396E+02  0.71897441210E+01  0.19909043838E+03  0.21631879903E+03  0.79853870821E+02 0.  0.
        -13    1    4    4    0    0 -0.38723866434E+02  0.14363650414E+02  0.19828683233E+03  0.20254263788E+03  0.00000000000E+00 0.  1.
         14    1    4    4    0    0  0.11733367038E+02 -0.71739062932E+01  0.80360605008E+00  0.13776161157E+02  0.00000000000E+00 0. -1.
        -11    1    3    3    0    0 -0.76612988200E+01  0.51710890774E+02 -0.59349274810E+02  0.79088862331E+02  0.00000000000E+00 0. -1.
         11    1    3    3    0    0  0.15067153095E+02 -0.47514373580E+02 -0.52118978423E+02  0.72118116385E+02  0.00000000000E+00 0.  1.
          1    1    1    2  501    0  0.19584645121E+02 -0.11386261315E+02  0.16700827902E+03  0.16853774216E+03  0.00000000000E+00 0. -1.
<scales pt_clust_5="13000.00000" pt_clust_6="13000.00000" pt_clust_7="13000.00000" pt_clust_8="13000.00000" pt_clust_9="22.65403"></scales>
<clustering>
<clus scale="   22.654">  1  9  2 -1</clus>
<clus scale="   79.854">  5  6 -1 -1</clus>
<clus scale="   80.436">  1  5  2 -1</clus>
<clus scale="  101.813">  7  8 -1 -1</clus>
<clus scale="   22.654">  1  5  2 -1</clus>
</clustering>
</event>
<event>
 9    2  0.4883225E-005  0.1010444E+03  0.7546771E-02  0.1285779E+00
         21   -1    0    0  501  502  0.00000000000E+00  0.00000000000E+00  0.84688647016E+02  0.84688647016E+02  0.00000000000E+00 0. -1.
          2   -1    0    0  502    0 -0.00000000000E+00 -0.00000000000E+00 -0.43259597525E+03  0.43259597525E+03  0.00000000000E+00 0. -1.
         24    2    1    2    0    0  0.15655270332E+02 -0.22474506115E+02 -0.28988973795E+03  0.30230628488E+03  0.81257853743E+02 0.  0.
         23    2    1    2    0    0 -0.25392774727E+02  0.81776373326E+02  0.40827127813E+01  0.12856087337E+03  0.95807418163E+02 0.  0.
        -11    1    3    3    0    0  0.41869178269E+02  0.91519599704E+01 -0.17880950631E+03  0.18387394053E+03  0.00000000000E+00 0.  1.
         12    1    3    3    0    0 -0.26213907937E+02 -0.31626466085E+02 -0.11108023164E+03  0.11843234435E+03  0.00000000000E+00 0. -1.
        -13    1    4    4    0    0 -0.32041683351E+02  0.10185691435E+03 -0.10961576998E+01  0.10678343520E+03  0.00000000000E+00 0. -1.
         13    1    4    4    0    0  0.66489086247E+01 -0.20080541021E+02  0.51788704811E+01  0.21777438165E+02  0.00000000000E+00 0.  1.
          1    1    1    2  501    0  0.97375043949E+01 -0.59301867211E+02 -0.62100303068E+02  0.86417464021E+02  0.00000000000E+00 0. -1.
<scales pt_clust_5="13000.00000" pt_clust_6="13000.00000" pt_clust_7="13000.00000" pt_clust_8="13000.00000" pt_clust_9="60.09604"></scales>
<clustering>
<clus scale="   60.096">  1  9  2 -1</clus>
<clus scale="   81.258">  5  6 -1 -1</clus>
<clus scale="   87.371">  2  5  1 -1</clus>
<clus scale="   95.807">  7  8 -1 -1</clus>
<clus scale="   60.096">  1  5  2 -1</clus>
</clustering>
</event>
<event>
 9    2  0.4883225E-005  0.1942010E+03  0.7546771E-02  0.1156486E+00
          2   -1    0    0  502    0 -0.00000000000E+00  0.00000000000E+00  0.54491895624E+03  0.54491895624E+03  0.00000000000E+00 0. -1.
         21   -1    0    0  501  502  0.00000000000E+00 -0.00000000000E+00 -0.12792591311E+03  0.12792591311E+03  0.00000000000E+00 0. -1.
         24    2    1    2    0    0 -0.14832051174E+03  0.65397868240E+02  0.24108928657E+03  0.30154665340E+03  0.80811414457E+02 0.  0.
         23    2    1    2    0    0  0.18985683826E+03 -0.23891041966E+02  0.33667464208E+02  0.21741759367E+03  0.97573105780E+02 0.  0.
        -13    1    3    3    0    0 -0.71133434892E+02  0.46535534304E+02  0.60754947115E+02  0.10448294172E+03  0.00000000000E+00 0.  1.
         14    1    3    3    0    0 -0.77187076850E+02  0.18862333935E+02  0.18033433946E+03  0.19706371168E+03  0.00000000000E+00 0. -1.
        -13    1    4    4    0    0  0.93740760765E+02 -0.59597957176E+02  0.28863296618E+02  0.11477080038E+03  0.00000000000E+00 0. -1.
         13    1    4    4    0    0  0.96116077494E+02  0.35706915210E+02  0.48041675906E+01  0.10264679329E+03  0.00000000000E+00 0.  1.
          1    1    1    2  501    0 -0.41536326517E+02 -0.41506826273E+02  0.14223629235E+03  0.15388062227E+03  0.00000000000E+00 0. -1.
<scales pt_clust_5="13000.00000" pt_clust_6="13000.00000" pt_clust_7="13000.00000" pt_clust_8="13000.00000" pt_clust_9="58.72041"></scales>
<clustering>
<clus scale="   58.720">  2  9  1 -1</clus>
<clus scale="   80.811">  5  6 -1 -1</clus>
<clus scale="   97.573">  7  8 -1 -1</clus>
<clus scale="  186.344">  1  5  2 -1</clus>
<clus scale="   58.720">  2  5  1 -1</clus>
</clustering>
</event>
<event>
 9    2  0.4883225E-005  0.1431276E+03  0.7546771E-02  0.1223501E+00
         21   -1    0    0  501  502  0.00000000000E+00  0.00000000000E+00  0.16501264171E+03  0.16501264171E+03  0.00000000000E+00 0. -1.
          2   -1    0    0  502    0 -0.00000000000E+00 -0.00000000000E+00 -0.38098432782E+03  0.38098432782E+03  0.00000000000E+00 0. -1.
         24    2    1    2    0    0  0.57895204572E+02  0.36762317635E+02 -0.25614679255E+03  0.27712302722E+03  0.80515030709E+02 0.  0.
         23    2    1    2    0    0  0.78370835873E+02  0.12350920941E+02  0.91583740696E+01  0.12074365618E+03  0.90557283130E+02 0.  0.
        -13    1    3    3    0    0  0.19789779665E+02 -0.25006698221E+02 -0.59441086964E+02  0.67455267804E+02  0.00000000000E+00 0.  1.
         14    1    3    3    0    0  0.38105424907E+02  0.61769015856E+02 -0.19670570559E+03  0.20966775941E+03  0.00000000000E+00 0. -1.
        -11    1    4    4    0    0  0.30051961472E+02  0.44121959836E+02 -0.18687215034E+02  0.56560407830E+02  0.00000000000E+00 0.  1.
         11    1    4    4    0    0  0.48318874401E+02 -0.31771038895E+02  0.27845589104E+02  0.64183248347E+02  0.00000000000E+00 0. -1.
          1    1    1    2  501    0 -0.13626604044E+03 -0.49113238576E+02  0.31016732370E+02  0.14813028613E+03  0.00000000000E+00 0. -1.
<scales pt_clust_5="13000.00000" pt_clust_6="13000.00000" pt_clust_7="13000.00000" pt_clust_8="13000.00000" pt_clust_9="110.83730"></scales>
<clustering>
<clus scale="   80.515">  5  6 -1 -1</clus>
<clus scale="   90.557">  7  8 -1 -1</clus>
<clus scale="  105.764">  2  5  1 -1</clus>
<clus scale="  110.837">  1  9  2 -1</clus>
<clus scale="  110.837">  1  5  2 -1</clus>
</clustering>
</event>
<event>
 9    2  0.4883225E-005  0.9934534E+02  0.7546771E-02  0.1287022E+00
         21   -1    0    0  501  502  0.00000000000E+00  0.00000000000E+00  0.98679201684E+02  0.98679201684E+02  0.00000000000E+00 0.  1.
         -1   -1    0    0    0  501 -0.00000000000E+00 -0.00000000000E+00 -0.18965338908E+03  0.18965338908E+03  0.00000000000E+00 0.  1.
         23    2    1    2    0    0 -0.57835049451E+02 -0.10074109341E+02 -0.10700954059E+03  0.15193744296E+03  0.90485159958E+02 0.  0.
         24    2    1    2    0    0  0.14467113144E+02 -0.19316957960E+01 -0.13835357942E+02  0.82384254083E+02  0.79891923122E+02 0.  0.
        -11    1    4    4    0    0  0.11177995814E+02  0.29313249831E+02  0.19210921905E+02  0.36786868941E+02  0.00000000000E+00 0.  1.
         12    1    4    4    0    0  0.32891173295E+01 -0.31244945627E+02 -0.33046279847E+02  0.45597385142E+02  0.00000000000E+00 0. -1.
        -13    1    3    3    0    0 -0.76919912160E+02 -0.27238861959E+02 -0.87894455554E+02  0.11993358080E+03  0.00000000000E+00 0.  1.
         13    1    3    3    0    0  0.19084862709E+02  0.17164752618E+02 -0.19115085032E+02  0.32003862155E+02  0.00000000000E+00 0. -1.
         -2    1    1    2    0  502  0.43367936307E+02  0.12005805137E+02  0.29870711135E+02  0.54010893718E+02  0.00000000000E+00 0.  1.
<scales pt_clust_5="13000.00000" pt_clust_6="13000.00000" pt_clust_7="13000.00000" pt_clust_8="13000.00000" pt_clust_9="44.99908"></scales>
<clustering>
<clus scale="   44.999">  1  9  2 -1</clus>
<clus scale="   79.892">  5  6 -1 -1</clus>
<clus scale="   89.803">  1  5  2 -1</clus>
<clus scale="   90.485">  7  8 -1 -1</clus>
<clus scale="   44.999">  1  5  2 -1</clus>
</clustering>
</event>
<event>
 9    2  0.4883225E-005  0.1078563E+03  0.7546771E-02  0.1268009E+00
          2   -1    0    0  502    0 -0.00000000000E+00  0.00000000000E+00  0.54644400321E+02  0.54644400321E+02  0.00000000000E+00 0. -1.
         21   -1    0    0  501  502  0.00000000000E+00 -0.00000000000E+00 -0.75424485946E+03  0.75424485946E+03  0.00000000000E+00 0.  1.
         24    2    1    2    0    0 -0.38589582912E+01  0.67812719643E+02 -0.98768540982E+01  0.10486490465E+03  0.79282024918E+02 0.  0.
         23    2    1    2    0    0 -0.89036371987E+01 -0.27476092269E+02 -0.36490391089E+03  0.37646098560E+03  0.87942021215E+02 0.  0.
        -13    1    3    3    0    0 -0.30219940775E+02  0.56086392820E+02 -0.29259344819E+02  0.70107328713E+02  0.00000000000E+00 0.  1.
         14    1    3    3    0    0  0.26360982484E+02  0.11726326823E+02  0.19382490720E+02  0.34757575934E+02  0.00000000000E+00 0. -1.
        -11    1    4    4    0    0 -0.35409995365E+02 -0.47140453862E+02 -0.25383421351E+03  0.26059143906E+03  0.00000000000E+00 0.  1.
         11    1    4    4    0    0  0.26506358166E+02  0.19664361593E+02 -0.11106969738E+03  0.11586954654E+03  0.00000000000E+00 0. -1.
          1    1    1    2  501    0  0.12762595490E+02 -0.40336627374E+02 -0.32481969415E+03  0.32756336954E+03  0.00000000000E+00 0. -1.
<scales pt_clust_5="13000.00000" pt_clust_6="13000.00000" pt_clust_7="13000.00000" pt_clust_8="13000.00000" pt_clust_9="42.30753"></scales>
<clustering>
<clus scale="   42.308">  2  9  1 -1</clus>
<clus scale="   79.282">  5  6 -1 -1</clus>
<clus scale="   87.942">  7  8 -1 -1</clus>
<clus scale="  100.920">  1  5  2 -1</clus>
<clus scale="   42.308">  2  5  1 -1</clus>
</clustering>
</event>
<event>
 9    2  0.4883225E-005  0.1337059E+03  0.7546771E-02  0.1240792E+00
         -3   -1    0    0    0  501 -0.00000000000E+00  0.00000000000E+00  0.98011336512E+02  0.98011336512E+02  0.00000000000E+00 0.  1.
         21   -1    0    0  501  502  0.00000000000E+00 -0.00000000000E+00 -0.45183046192E+03  0.45183046192E+03  0.00000000000E+00 0.  1.
         24    2    1    2    0    0 -0.56159637965E+02  0.39847483237E+02  0.12098183220E+02  0.91697293780E+02  0.59332122773E+02 0.  0.
         23    2    1    2    0    0 -0.52409592374E+02 -0.25521023149E+02 -0.41723768282E+02  0.11595453280E+03  0.91139962923E+02 0.  0.
        -11    1    3    3    0    0  0.16591746296E+01  0.20378131772E+02  0.21838838766E+02  0.29915815109E+02  0.00000000000E+00 0.  1.
         12    1    3    3    0    0 -0.57818812594E+02  0.19469351465E+02 -0.97406555470E+01  0.61781478671E+02  0.00000000000E+00 0. -1.
        -11    1    4    4    0    0  0.69669655701E+01 -0.26277944925E+02  0.17304418798E+02  0.32225950858E+02  0.00000000000E+00 0. -1.
         11    1    4    4    0    0 -0.59376557945E+02  0.75692177656E+00 -0.59028187080E+02  0.83728581941E+02  0.00000000000E+00 0.  1.
         -4    1    1    2    0  502  0.10856923034E+03 -0.14326460088E+02 -0.32419354034E+03  0.34218997185E+03  0.00000000000E+00 0.  1.
<scales pt_clust_5="13000.00000" pt_clust_6="13000.00000" pt_clust_7="13000.00000" pt_clust_8="13000.00000" pt_clust_9="97.83030"></scales>
<clustering>
<clus scale="   59.332">  5  6 -1 -1</clus>
<clus scale="   90.896">  1  5  2 -1</clus>
<clus scale="   91.140">  7  8 -1 -1</clus>
<clus scale="   97.830">  2  9  1 -1</clus>
<clus scale="   97.830">  2  5  1 -1</clus>
</clustering>
</event>
<event>
 9    2  0.4883225E-005  0.1406114E+03  0.7546771E-02  0.1216314E+00
         21   -1    0    0  501  502  0.00000000000E+00  0.00000000000E+00  0.26421543813E+03  0.26421543813E+03  0.00000000000E+00 0. -1.
          2   -1    0    0  502    0 -0.00000000000E+00 -0.00000000000E+00 -0.35293951947E+03  0.35293951947E+03  0.00000000000E+00 0. -1.
         24    2    1    2    0    0  0.10221129608E+03  0.16081737074E+02 -0.21120061750E+03  0.24866013796E+03  0.80748944647E+02 0.  0.
         23    2    1    2    0    0 -0.99368830300E+02  0.13797584658E+02 -0.81863288485E+02  0.16196245555E+03  0.97291835368E+02 0.  0.
        -11    1    3    3    0    0  0.56232052454E+02 -0.25422257253E+02 -0.63743831273E+02  0.88722099346E+02  0.00000000000E+00 0.  1.
         12    1    3    3    0    0  0.45979243625E+02  0.41503994327E+02 -0.14745678623E+03  0.15993803861E+03  0.00000000000E+00 0. -1.
        -13    1    4    4    0    0 -0.12337389694E+02 -0.22543754098E+02 -0.59819947462E+02  0.65106513865E+02  0.00000000000E+00 0.  1.
         13    1    4    4    0    0 -0.87031440606E+02  0.36341338756E+02 -0.22043341023E+02  0.96855941687E+02  0.00000000000E+00 0. -1.
          1    1    1    2  501    0 -0.28424657789E+01 -0.29879321732E+02  0.20433982465E+03  0.20653236409E+03  0.00000000000E+00 0. -1.
<scales pt_clust_5="13000.00000" pt_clust_6="13000.00000" pt_clust_7="13000.00000" pt_clust_8="13000.00000" pt_clust_9="30.01422"></scales>
<clustering>
<clus scale="   30.014">  1  9  2 -1</clus>
<clus scale="   80.749">  5  6 -1 -1</clus>
<clus scale="   97.292">  7  8 -1 -1</clus>
<clus scale="  129.716">  2  5  1 -1</clus>
<clus scale="   30.014">  1  5  2 -1</clus>
</clustering>
</event>
<event>
 9    2  0.4883225E-005  0.1909408E+03  0.7546771E-02  0.1158085E+00
          2   -1    0    0  502    0 -0.00000000000E+00  0.00000000000E+00  0.48927633138E+03  0.48927633138E+03  0.00000000000E+00 0. -1.
         21   -1    0    0  501  502  0.00000000000E+00 -0.00000000000E+00 -0.12530226270E+03  0.12530226270E+03  0.00000000000E+00 0.  1.
         23    2    1    2    0    0  0.15013076886E+03  0.65782854471E+02  0.12836993266E+03  0.22150773830E+03  0.75632048838E+02 0.  0.
         24    2    1    2    0    0 -0.13470468068E+03 -0.14106998644E+03  0.92139570387E+02  0.23031890333E+03  0.80690797034E+02 0.  0.
        -11    1    4    4    0    0 -0.85874003156E+02 -0.12865763319E+03  0.44448304764E+02  0.16094341488E+03  0.00000000000E+00 0.  1.
         12    1    4    4    0    0 -0.48830677526E+02 -0.12412353254E+02  0.47691265623E+02  0.69375488449E+02  0.00000000000E+00 0. -1.
        -13    1    3    3    0    0  0.12745325452E+03  0.82499748142E+02  0.11414999534E+03  0.18994936685E+03  0.00000000000E+00 0.  1.
         13    1    3    3    0    0  0.22677514346E+02 -0.16716893670E+02  0.14219937324E+02  0.31558371447E+02  0.00000000000E+00 0. -1.
          1    1    1    2  501    0 -0.15426088183E+02  0.75287131973E+02  0.14346456563E+03  0.16275195246E+03  0.00000000000E+00 0. -1.
<scales pt_clust_5="13000.00000" pt_clust_6="13000.00000" pt_clust_7="13000.00000" pt_clust_8="13000.00000" pt_clust_9="76.85130"></scales>
<clustering>
<clus scale="   75.632">  7  8 -1 -1</clus>
<clus scale="   76.851">  2  9  1 -1</clus>
<clus scale="   80.691">  5  6 -1 -1</clus>
<clus scale="  188.859">  1  7  2 -1</clus>
<clus scale="   76.851">  2  5  1 -1</clus>
</clustering>
</event>
<event>
 9    2  0.4883225E-005  0.1139996E+03  0.7546771E-02  0.1257332E+00
         -1   -1    0    0    0  501 -0.00000000000E+00  0.00000000000E+00  0.19382845063E+03  0.19382845063E+03  0.00000000000E+00 0.  1.
         21   -1    0    0  501  502  0.00000000000E+00 -0.00000000000E+00 -0.15823024423E+03  0.15823024423E+03  0.00000000000E+00 0.  1.
         24    2    1    2    0    0  0.12287828106E+01 -0.91393020265E+02  0.53988384475E+02  0.13363768158E+03  0.81179370661E+02 0.  0.
         23    2    1    2    0    0 -0.37979175584E+02  0.84596862515E+01 -0.62089084810E+02  0.11773276317E+03  0.92151858370E+02 0.  0.
        -13    1    3    3    0    0 -0.53698939702E+01 -0.10597083174E+03  0.44721090129E+02  0.11514611953E+03  0.00000000000E+00 0.  1.
         14    1    3    3    0    0  0.65986767808E+01  0.14577811475E+02  0.92672943453E+01  0.18491562053E+02  0.00000000000E+00 0. -1.
        -13    1    4    4    0    0 -0.44169124584E+02 -0.26182848284E+02 -0.64519921163E+02  0.82457706357E+02  0.00000000000E+00 0.  1.
         13    1    4    4    0    0  0.61899489999E+01  0.34642534535E+02  0.24308363529E+01  0.35275056811E+02  0.00000000000E+00 0. -1.
         -2    1    1    2    0  502  0.36750392773E+02  0.82933334014E+02  0.43698906740E+02  0.10068825011E+03  0.00000000000E+00 0.  1.
<scales pt_clust_5="13000.00000" pt_clust_6="13000.00000" pt_clust_7="13000.00000" pt_clust_8="13000.00000" pt_clust_9="90.71129"></scales>
<clustering>
<clus scale="   81.179">  5  6 -1 -1</clus>
<clus scale="   90.711">  2  9  1 -1</clus>
<clus scale="   92.152">  7  8 -1 -1</clus>
<clus scale="  105.328">  1  5  2 -1</clus>
<clus scale="   90.711">  2  5  1 -1</clus>
</clustering>
</event>
<event>
 9    2  0.4883225E-005  0.1111797E+03  0.7546771E-02  0.1260486E+00
          2   -1    0    0  502    0 -0.00000000000E+00  0.00000000000E+00  0.25016636908E+03  0.25016636908E+03  0.00000000000E+00 0. -1.
         21   -1    0    0  501  502  0.00000000000E+00 -0.00000000000E+00 -0.15851834366E+03  0.15851834366E+03  0.00000000000E+00 0. -1.
         24    2    1    2    0    0  0.50969372549E+02 -0.39154524535E+02  0.14861142272E+03  0.18279356306E+03  0.84836183325E+02 0.  0.
         23    2    1    2    0    0 -0.34826007186E+02  0.59962299041E+02  0.43563693675E+02  0.12197162436E+03  0.90393327513E+02 0.  0.
        -11    1    3    3    0    0 -0.18434115699E+02  0.10094913986E+02  0.35302973138E+02  0.41085567081E+02  0.00000000000E+00 0.  1.
         12    1    3    3    0    0  0.69403488249E+02 -0.49249438522E+02  0.11330844958E+03  0.14170799597E+03  0.00000000000E+00 0. -1.
        -11    1    4    4    0    0 -0.86783691320E+01 -0.22540530323E+02 -0.18664270261E+01  0.24225464864E+02  0.00000000000E+00 0.  1.
         11    1    4    4    0    0 -0.26147638054E+02  0.82502829364E+02  0.45430120701E+02  0.97746159494E+02  0.00000000000E+00 0. -1.
          1    1    1    2  501    0 -0.16143365363E+02 -0.20807774506E+02 -0.10052709098E+03  0.10391952534E+03  0.00000000000E+00 0. -1.
<scales pt_clust_5="13000.00000" pt_clust_6="13000.00000" pt_clust_7="13000.00000" pt_clust_8="13000.00000" pt_clust_9="26.33575"></scales>
<clustering>
<clus scale="   26.336">  2  9  1 -1</clus>
<clus scale="   84.836">  5  6 -1 -1</clus>
<clus scale="   90.393">  7  8 -1 -1</clus>
<clus scale="  106.711">  1  5  2 -1</clus>
<clus scale="   26.336">  2  5  1 -1</clus>
</clustering>
</event>
<event>
 9    2  0.4883225E-005  0.9628234E+02  0.7546771E-02  0.1292435E+00
         -1   -1    0    0    0  501 -0.00000000000E+00  0.00000000000E+00  0.91139720015E+03  0.91139720015E+03  0.00000000000E+00 0.  1.
         21   -1    0    0  501  502  0.00000000000E+00 -0.00000000000E+00 -0.14564256217E+02  0.14564256217E+02  0.00000000000E+00 0.  1.
         24    2    1    2    0    0  0.25277465348E+02  0.15523595690E+02  0.40090725447E+03  0.40997051778E+03  0.80431750467E+02 0.  0.
         23    2    1    2    0    0 -0.56755567279E+02  0.39441686972E+01  0.38397920906E+03  0.39808470794E+03  0.88287319702E+02 0.  0.
        -11    1    3    3    0    0 -0.44029170410E+01 -0.30262069008E+02  0.12185056458E+03  0.12562936993E+03  0.00000000000E+00 0.  1.
         12    1    3    3    0    0  0.29680382389E+02  0.45785664698E+02  0.27905668989E+03  0.28434114785E+03  0.00000000000E+00 0. -1.
        -13    1    4    4    0    0 -0.51701834927E+02 -0.35655089552E+02  0.27338337812E+03  0.28050461062E+03  0.00000000000E+00 0.  1.
         13    1    4    4    0    0 -0.50537323521E+01  0.39599258249E+02  0.11059583094E+03  0.11758009732E+03  0.00000000000E+00 0. -1.
         -2    1    1    2    0  502  0.31478101931E+02 -0.19467764387E+02  0.11194648040E+03  0.11790623064E+03  0.00000000000E+00 0.  1.
<scales pt_clust_5="13000.00000" pt_clust_6="13000.00000" pt_clust_7="13000.00000" pt_clust_8="13000.00000" pt_clust_9="37.01168"></scales>
<clustering>
<clus scale="   37.012">  2  9  1 -1</clus>
<clus scale="   80.432">  5  6 -1 -1</clus>
<clus scale="   88.287">  7  8 -1 -1</clus>
<clus scale="   89.134">  1  5  2 -1</clus>
<clus scale="   37.012">  2  5  1 -1</clus>
</clustering>
</event>
<event>
 9    2  0.4883225E-005  0.3017693E+03  0.7546771E-02  0.1085248E+00
         -1   -1    0    0    0  501 -0.00000000000E+00  0.00000000000E+00  0.64813103930E+03  0.64813103930E+03  0.00000000000E+00 0.  1.
         21   -1    0    0  501  502  0.00000000000E+00 -0.00000000000E+00 -0.19183296005E+03  0.19183296005E+03  0.00000000000E+00 0.  1.
         24    2    1    2    0    0 -0.24753497352E+03 -0.35401737298E+02  0.17614884661E+03  0.31662873944E+03  0.81844342245E+02 0.  0.
         23    2    1    2    0    0  0.33078339992E+03  0.40554934601E+02  0.17971432672E+03  0.39278248794E+03  0.10449154615E+03 0.  0.
        -13    1    3    3    0    0 -0.14674623316E+03  0.42549102493E+01  0.62269844003E+02  0.15946816196E+03  0.00000000000E+00 0.  1.
         14    1    3    3    0    0 -0.10078874036E+03 -0.39656647547E+02  0.11387900260E+03  0.15716057748E+03  0.00000000000E+00 0. -1.
        -13    1    4    4    0    0  0.24379313643E+03  0.60401439214E+02  0.91501111076E+02  0.26731232773E+03  0.00000000000E+00 0.  1.
         13    1    4    4    0    0  0.86990263496E+02 -0.19846504613E+02  0.88213215639E+02  0.12547016020E+03  0.00000000000E+00 0. -1.
         -2    1    1    2    0  502 -0.83248426403E+02 -0.51531973029E+01  0.10043490592E+03  0.13055277197E+03  0.00000000000E+00 0.  1.
<scales pt_clust_5="13000.00000" pt_clust_6="13000.00000" pt_clust_7="13000.00000" pt_clust_8="13000.00000" pt_clust_9="83.40781"></scales>
<clustering>
<clus scale="   81.844">  5  6 -1 -1</clus>
<clus scale="   83.408">  2  9  1 -1</clus>
<clus scale="  104.492">  7  8 -1 -1</clus>
<clus scale="  294.694">  1  5  2 -1</clus>
<clus scale="   83.408">  2  5  1 -1</clus>
</clustering>
</event>
<event>
 9    2  0.4883225E-005  0.4318748E+03  0.7546771E-02  0.1082564E+00
          2   -1    0    0  502    0 -0.00000000000E+00  0.00000000000E+00  0.79514384874E+03  0.79514384874E+03  0.00000000000E+00 0. -1.
         21   -1    0    0  501  502  0.00000000000E+00 -0.00000000000E+00 -0.45985411833E+03  0.45985411833E+03  0.00000000000E+00 0. -1.
         24    2    1    2    0    0  0.71371110736E+02  0.15998396670E+02  0.38103495468E+03  0.39604998059E+03  0.79486893870E+02 0.  0.
         23    2    1    2    0    0  0.36852056134E+03  0.10681179416E+03  0.31639028221E+02  0.39572520134E+03  0.91549130879E+02 0.  0.
        -13    1    3    3    0    0  0.29632991258E+02  0.44826614882E+02  0.24602626410E+03  0.25182625399E+03  0.00000000000E+00 0.  1.
         14    1    3    3    0    0  0.41738119478E+02 -0.28828218212E+02  0.13500869058E+03  0.14422372660E+03  0.00000000000E+00 0. -1.
        -11    1    4    4    0    0  0.30342748799E+03  0.78338192328E+02  0.60278901736E+02  0.31912169910E+03  0.00000000000E+00 0. -1.
         11    1    4    4    0    0  0.65093073355E+02  0.28473601828E+02 -0.28639873515E+02  0.76603502236E+02  0.00000000000E+00 0.  1.
          1    1    1    2  501    0 -0.43989167208E+03 -0.12281019083E+03 -0.77384252499E+02  0.46322278514E+03  0.00000000000E+00 0. -1.
<scales pt_clust_5="13000.00000" pt_clust_6="13000.00000" pt_clust_7="13000.00000" pt_clust_8="13000.00000" pt_clust_9="422.05991"></scales>
<clustering>
<clus scale="   79.487">  5  6 -1 -1</clus>
<clus scale="   91.549">  7  8 -1 -1</clus>
<clus scale="  108.018">  1  5  2 -1</clus>
<clus scale="  422.060">  2  9  1 -1</clus>
<clus scale="  422.060">  2  5  1 -1</clus>
</clustering>
</event>
<event>
 9    2  0.4883225E-005  0.1077523E+03  0.7546771E-02  0.1268227E+00
          2   -1    0    0  502    0 -0.00000000000E+00  0.00000000000E+00  0.28837184572E+03  0.28837184572E+03  0.00000000000E+00 0. -1.
         21   -1    0    0  501  502  0.00000000000E+00 -0.00000000000E+00 -0.13292128979E+03  0.13292128979E+03  0.00000000000E+00 0. -1.
         24    2    1    2    0    0 -0.51099595823E+02 -0.17509325688E+01  0.17335897068E+03  0.19850050964E+03  0.82066346047E+02 0.  0.
         23    2    1    2    0    0  0.11471019525E+03  0.18503117233E+02 -0.41341602630E+02  0.15296384710E+03  0.90487657554E+02 0.  0.
        -11    1    3    3    0    0 -0.19693156752E+02  0.20770810851E+02  0.15133613902E+03  0.15401907018E+03  0.00000000000E+00 0.  1.
         12    1    3    3    0    0 -0.31406439071E+02 -0.22521743420E+02  0.22022831660E+02  0.44481439456E+02  0.00000000000E+00 0. -1.
        -13    1    4    4    0    0  0.86837518856E+02  0.51239911847E+02 -0.13466773672E+02  0.10172333675E+03  0.00000000000E+00 0. -1.
         13    1    4    4    0    0  0.27872676396E+02 -0.32736794614E+02 -0.27874828958E+02  0.51240510346E+02  0.00000000000E+00 0.  1.
          1    1    1    2  501    0 -0.63610599429E+02 -0.16752184664E+02  0.23433187872E+02  0.69828778771E+02  0.00000000000E+00 0. -1.
<scales pt_clust_5="13000.00000" pt_clust_6="13000.00000" pt_clust_7="13000.00000" pt_clust_8="13000.00000" pt_clust_9="65.77951"></scales>
<clustering>
<clus scale="   65.780">  2  9  1 -1</clus>
<clus scale="   82.066">  5  6 -1 -1</clus>
<clus scale="   90.488">  7  8 -1 -1</clus>
<clus scale="  100.784">  1  5  2 -1</clus>
<clus scale="   65.780">  2  5  1 -1</clus>
</clustering>
</event>
<event>
 9    2  0.4883225E-005  0.1017192E+03  0.7546771E-02  0.1282765E+00
         21   -1    0    0  501  502  0.00000000000E+00  0.00000000000E+00  0.52242994477E+02  0.52242994477E+02  0.00000000000E+00 0. -1.
          2   -1    0    0  502    0 -0.00000000000E+00 -0.00000000000E+00 -0.68958932873E+03  0.68958932873E+03  0.00000000000E+00 0. -1.
         24    2    1    2    0    0  0.37342695380E+02 -0.33679898703E+02 -0.49318211700E+03  0.50218772708E+03  0.80219076420E+02 0.  0.
         23    2    1    2    0    0 -0.24584615115E+02 -0.48521589017E+02 -0.69545872643E+02  0.12789599190E+03  0.92531121475E+02 0.  0.
        -11    1    3    3    0    0 -0.13347054102E+01  0.22637885942E+02 -0.71591982982E+02  0.75097718645E+02  0.00000000000E+00 0.  1.
         12    1    3    3    0    0  0.38677400790E+02 -0.56317784645E+02 -0.42159013402E+03  0.42709000843E+03  0.00000000000E+00 0. -1.
        -13    1    4    4    0    0 -0.26320911410E+01  0.26001728635E+02 -0.32845104727E+02  0.41974024114E+02  0.00000000000E+00 0.  1.
         13    1    4    4    0    0 -0.21952523974E+02 -0.74523317652E+02 -0.36700767915E+02  0.85921967786E+02  0.00000000000E+00 0. -1.
          1    1    1    2  501    0 -0.12758080265E+02  0.82201487720E+02 -0.74618344612E+02  0.11174860423E+03  0.00000000000E+00 0. -1.
<scales pt_clust_5="13000.00000" pt_clust_6="13000.00000" pt_clust_7="13000.00000" pt_clust_8="13000.00000" pt_clust_9="83.18565"></scales>
<clustering>
<clus scale="   80.219">  5  6 -1 -1</clus>
<clus scale="   83.186">  1  9  2 -1</clus>
<clus scale="   90.664">  2  5  1 -1</clus>
<clus scale="   92.531">  7  8 -1 -1</clus>
<clus scale="   83.186">  1  5  2 -1</clus>
</clustering>
</event>
<event>
 9    2  0.4883225E-005  0.1409605E+03  0.7546771E-02  0.1214437E+00
          2   -1    0    0  502    0 -0.00000000000E+00  0.00000000000E+00  0.66129102685E+03  0.66129102685E+03  0.00000000000E+00 0. -1.
         21   -1    0    0  501  502  0.00000000000E+00 -0.00000000000E+00 -0.89466345562E+02  0.89466345562E+02  0.00000000000E+00 0. -1.
         24    2    1    2    0    0 -0.67833376043E+01 -0.10975739883E+03  0.51613169908E+03  0.53367192402E+03  0.79505291772E+02 0.  0.
         23    2    1    2    0    0 -0.38457431896E+02  0.99064092359E+02  0.83601719400E+02  0.16286394307E+03  0.90789580915E+02 0.  0.
        -11    1    3    3    0    0  0.23094105462E+02 -0.38556692294E+02  0.89966377030E+02  0.10056791349E+03  0.00000000000E+00 0.  1.
         12    1    3    3    0    0 -0.29877443066E+02 -0.71200706536E+02  0.42616532205E+03  0.43310401053E+03  0.00000000000E+00 0. -1.
        -13    1    4    4    0    0 -0.68464645685E+02  0.71106354105E+02  0.57129984698E+02  0.11404979813E+03  0.00000000000E+00 0.  1.
         13    1    4    4    0    0  0.30007213789E+02  0.27957738254E+02  0.26471734702E+02  0.48814144936E+02  0.00000000000E+00 0. -1.
          1    1    1    2  501    0  0.45240769500E+02  0.10693306471E+02 -0.27908737192E+02  0.54221505327E+02  0.00000000000E+00 0. -1.
<scales pt_clust_5="13000.00000" pt_clust_6="13000.00000" pt_clust_7="13000.00000" pt_clust_8="13000.00000" pt_clust_9="46.48735"></scales>
<clustering>
<clus scale="   46.487">  2  9  1 -1</clus>
<clus scale="   79.505">  5  6 -1 -1</clus>
<clus scale="   90.790">  7  8 -1 -1</clus>
<clus scale="  133.971">  1  5  2 -1</clus>
<clus scale="   46.487">  2  5  1 -1</clus>
</clustering>
</event>
<event>
 9    2  0.4883225E-005  0.2593422E+03  0.7546771E-02  0.1120459E+00
          2   -1    0    0  502    0 -0.00000000000E+00  0.00000000000E+00  0.12720278289E+04  0.12720278289E+04  0.00000000000E+00 0. -1.
         21   -1    0    0  501  502  0.00000000000E+00 -0.00000000000E+00 -0.15915762038E+03  0.15915762038E+03  0.00000000000E+00 0. -1.
         24    2    1    2    0    0 -0.13169643639E+03 -0.10744861998E+03  0.63262460995E+03  0.65970205749E+03  0.78126501514E+02 0.  0.
         23    2    1    2    0    0  0.14524237920E+03 -0.15658431457E+03  0.44860966531E+03  0.50521714278E+03  0.91540883030E+02 0.  0.
        -13    1    3    3    0    0 -0.45654252915E+01 -0.43419052132E+02  0.12058979228E+03  0.12824958167E+03  0.00000000000E+00 0.  1.
         14    1    3    3    0    0 -0.12713101110E+03 -0.64029567845E+02  0.51203481767E+03  0.53145247581E+03  0.00000000000E+00 0. -1.
        -11    1    4    4    0    0  0.28847538521E+02 -0.17820495941E+01  0.12308163481E+03  0.12642960494E+03  0.00000000000E+00 0.  1.
         11    1    4    4    0    0  0.11639484068E+03 -0.15480226497E+03  0.32552803050E+03  0.37878753783E+03  0.00000000000E+00 0. -1.
          1    1    1    2  501    0 -0.13545942809E+02  0.26403293454E+03  0.31635933249E+02  0.26626624901E+03  0.00000000000E+00 0. -1.
<scales pt_clust_5="13000.00000" pt_clust_6="13000.00000" pt_clust_7="13000.00000" pt_clust_8="13000.00000" pt_clust_9="242.64919"></scales>
<clustering>
<clus scale="   78.127">  5  6 -1 -1</clus>
<clus scale="   91.541">  7  8 -1 -1</clus>
<clus scale="  187.064">  1  5  2 -1</clus>
<clus scale="  242.649">  2  9  1 -1</clus>
<clus scale="  242.649">  2  5  1 -1</clus>
</clustering>
</event>
<event>
 9    2  0.4883225E-005  0.9478293E+02  0.7546771E-02  0.1295224E+00
          2   -1    0    0  502    0 -0.00000000000E+00  0.00000000000E+00  0.38689326074E+03  0.38689326074E+03  0.00000000000E+00 0. -1.
         21   -1    0    0  501  502  0.00000000000E+00 -0.00000000000E+00 -0.64302082080E+02  0.64302082080E+02  0.00000000000E+00 0. -1.
         23    2    1    2    0    0  0.39389222816E+02  0.28091791422E+02  0.27540565076E+03  0.29337740575E+03  0.88777081034E+02 0.  0.
         24    2    1    2    0    0  0.12826196016E+01 -0.16978101743E+01  0.66329962571E+02  0.10568972599E+03  0.82256468269E+02 0.  0.
        -11    1    4    4    0    0 -0.28456141127E+01 -0.41305945632E+02  0.25350843125E+02  0.48548366723E+02  0.00000000000E+00 0.  1.
         12    1    4    4    0    0  0.41282337143E+01  0.39608135458E+02  0.40979119446E+02  0.57141359265E+02  0.00000000000E+00 0. -1.
        -13    1    3    3    0    0  0.16966633886E+01  0.37700457525E+02  0.40833387516E+02  0.55601876769E+02  0.00000000000E+00 0.  1.
         13    1    3    3    0    0  0.37692559427E+02 -0.96086661029E+01  0.23457226324E+03  0.23777552898E+03  0.00000000000E+00 0. -1.
          1    1    1    2  501    0 -0.40671842417E+02 -0.26393981248E+02 -0.19144434669E+02  0.52128211081E+02  0.00000000000E+00 0. -1.
<scales pt_clust_5="13000.00000" pt_clust_6="13000.00000" pt_clust_7="13000.00000" pt_clust_8="13000.00000" pt_clust_9="48.48547"></scales>
<clustering>
<clus scale="   48.485">  2  9  1 -1</clus>
<clus scale="   82.256">  5  6 -1 -1</clus>
<clus scale="   88.705">  2  5  1 -1</clus>
<clus scale="   88.777">  7  8 -1 -1</clus>
<clus scale="   48.485">  2  5  1 -1</clus>
</clustering>
</event>
<event>
 9    2  0.4883225E-005  0.2581826E+03  0.7546771E-02  0.1108240E+00
          2   -1    0    0  502    0 -0.00000000000E+00  0.00000000000E+00  0.19677741818E+03  0.19677741818E+03  0.00000000000E+00 0. -1.
         21   -1    0    0  501  502  0.00000000000E+00 -0.00000000000E+00 -0.25181092730E+03  0.25181092730E+03  0.00000000000E+00 0. -1.
         24    2    1    2    0    0  0.13710128532E+03 -0.20763270187E+02  0.29261631101E+02  0.16218460878E+03  0.78865254984E+02 0.  0.
         23    2    1    2    0    0  0.37951785843E+02 -0.16877999840E+01 -0.14037579707E+02  0.96446496550E+02  0.87531059261E+02 0.  0.
        -13    1    3    3    0    0  0.40226090771E+02 -0.21581660334E+01 -0.27120846014E+02  0.48562705318E+02  0.00000000000E+00 0.  1.
         14    1    3    3    0    0  0.96875194552E+02 -0.18605104154E+02  0.56382477115E+02  0.11362190346E+03  0.00000000000E+00 0. -1.
        -11    1    4    4    0    0 -0.14656557737E+02  0.26785060420E+02  0.97786637231E+01  0.32060511702E+02  0.00000000000E+00 0. -1.
         11    1    4    4    0    0  0.52608343580E+02 -0.28472860404E+02 -0.23816243430E+02  0.64385984848E+02  0.00000000000E+00 0.  1.
          1    1    1    2  501    0 -0.17505307117E+03  0.22451070171E+02 -0.70257560514E+02  0.18995724015E+03  0.00000000000E+00 0. -1.
<scales pt_clust_5="13000.00000" pt_clust_6="13000.00000" pt_clust_7="13000.00000" pt_clust_8="13000.00000" pt_clust_9="176.48691"></scales>
<clustering>
<clus scale="   78.865">  5  6 -1 -1</clus>
<clus scale="   87.531">  7  8 -1 -1</clus>
<clus scale="   89.006">  5  7 -1 -1</clus>
<clus scale="  176.487">  2  9  1 -1</clus>
<clus scale="  176.487">  2  5  1 -1</clus>
</clustering>
</event>
<event>
 9    2  0.4883225E-005  0.9026813E+02  0.7546771E-02  0.1308006E+00
          2   -1    0    0  502    0 -0.00000000000E+00  0.00000000000E+00  0.21460209672E+03  0.21460209672E+03  0.00000000000E+00 0. -1.
         21   -1    0    0  501  502  0.00000000000E+00 -0.00000000000E+00 -0.71319128038E+02  0.71319128038E+02  0.00000000000E+00 0. -1.
         23    2    1    2    0    0 -0.16731499802E+02 -0.19855015998E+02  0.70238028207E+02  0.11707818608E+03  0.89998646114E+02 0.  0.
         24    2    1    2    0    0 -0.32223482066E+02 -0.13711414850E+02  0.22704748097E+02  0.91013542356E+02  0.80880180591E+02 0.  0.
        -11    1    4    4    0    0 -0.30826511639E+02 -0.34377973200E+02  0.42210886364E+02  0.62560992550E+02  0.00000000000E+00 0.  1.
         12    1    4    4    0    0 -0.13969704263E+01  0.20666558350E+02 -0.19506138267E+02  0.28452549807E+02  0.00000000000E+00 0. -1.
        -13    1    3    3    0    0 -0.16264750938E+02 -0.54879676955E+02  0.53125494481E+02  0.78093784834E+02  0.00000000000E+00 0.  1.
         13    1    3    3    0    0 -0.46674886332E+00  0.35024660957E+02  0.17112533726E+02  0.38984401242E+02  0.00000000000E+00 0. -1.
          1    1    1    2  501    0  0.48954981868E+02  0.33566430849E+02  0.50340192373E+02  0.77829496322E+02  0.00000000000E+00 0. -1.
<scales pt_clust_5="13000.00000" pt_clust_6="13000.00000" pt_clust_7="13000.00000" pt_clust_8="13000.00000" pt_clust_9="59.35738"></scales>
<clustering>
<clus scale="   59.357">  2  9  1 -1</clus>
<clus scale="   80.880">  5  6 -1 -1</clus>
<clus scale="   81.180">  2  5  1 -1</clus>
<clus scale="   89.999">  7  8 -1 -1</clus>
<clus scale="   59.357">  2  5  1 -1</clus>
</clustering>
</event>
<event>
 9    2  0.4883225E-005  0.1998593E+03  0.7546771E-02  0.1150872E+00
          2   -1    0    0  502    0 -0.00000000000E+00  0.00000000000E+00  0.47285226311E+03  0.47285226311E+03  0.00000000000E+00 0. -1.
         21   -1    0    0  501  502  0.00000000000E+00 -0.00000000000E+00 -0.27252059525E+03  0.27252059525E+03  0.00000000000E+00 0. -1.
         24    2    1    2    0    0 -0.14786331313E+03  0.76276724698E+02  0.34094725858E+03  0.39300736054E+03  0.10260630683E+03 0.  0.
         23    2    1    2    0    0  0.18128125023E+03 -0.70335826995E+02 -0.82458416386E+01  0.21571337285E+03  0.93028195067E+02 0.  0.
        -13    1    3    3    0    0  0.73786624157E+01  0.29384822186E+02  0.82578538103E+02  0.87960942407E+02  0.00000000000E+00 0.  1.
         14    1    3    3    0    0 -0.15524197554E+03  0.46891902512E+02  0.25836872048E+03  0.30504641813E+03  0.00000000000E+00 0. -1.
        -11    1    4    4    0    0 -0.16065980221E+01 -0.22929124447E+02 -0.13596187522E+02  0.26705471729E+02  0.00000000000E+00 0.  1.
         11    1    4    4    0    0  0.18288784825E+03 -0.47406702548E+02  0.53503458831E+01  0.18900790112E+03  0.00000000000E+00 0. -1.
          1    1    1    2  501    0 -0.33417937103E+02 -0.59408977032E+01 -0.13236974909E+03  0.13665212497E+03  0.00000000000E+00 0. -1.
<scales pt_clust_5="13000.00000" pt_clust_6="13000.00000" pt_clust_7="13000.00000" pt_clust_8="13000.00000" pt_clust_9="33.94190"></scales>
<clustering>
<clus scale="   33.942">  2  9  1 -1</clus>
<clus scale="   93.028">  7  8 -1 -1</clus>
<clus scale="  102.606">  5  6 -1 -1</clus>
<clus scale="  195.115">  2  7  1 -1</clus>
<clus scale="   33.942">  2  5  1 -1</clus>
</clustering>
</event>
<event>
 9    2  0.4883225E-005  0.1531684E+03  0.7546771E-02  0.1199177E+00
         21   -1    0    0  501  502  0.00000000000E+00  0.00000000000E+00  0.10670112060E+03  0.10670112060E+03  0.00000000000E+00 0.  1.
         -1   -1    0    0    0  501 -0.00000000000E+00 -0.00000000000E+00 -0.41582064346E+03  0.41582064346E+03  0.00000000000E+00 0.  1.
         23    2    1    2    0    0  0.55503758490E+02 -0.55717661483E+02 -0.31951196310E+02  0.12605177416E+03  0.93182862242E+02 0.  0.
         24    2    1    2    0    0 -0.83404808389E+02  0.14280540118E+03 -0.13563297747E+03  0.22796183572E+03  0.78870458960E+02 0.  0.
        -13    1    4    4    0    0 -0.33164548457E+02  0.42146997424E+01 -0.11852753953E+02  0.35470251543E+02  0.00000000000E+00 0.  1.
         14    1    4    4    0    0 -0.50240259932E+02  0.13859070143E+03 -0.12378022352E+03  0.19249158417E+03  0.00000000000E+00 0. -1.
        -13    1    3    3    0    0  0.12234976892E+02 -0.36262885923E+02  0.29569344022E+02  0.48363598510E+02  0.00000000000E+00 0.  1.
         13    1    3    3    0    0  0.43268781598E+02 -0.19454775560E+02 -0.61520540332E+02  0.77688175650E+02  0.00000000000E+00 0. -1.
         -2    1    1    2    0  502  0.27901049899E+02 -0.87087739694E+02 -0.14153534908E+03  0.16850815419E+03  0.00000000000E+00 0.  1.
<scales pt_clust_5="13000.00000" pt_clust_6="13000.00000" pt_clust_7="13000.00000" pt_clust_8="13000.00000" pt_clust_9="91.44808"></scales>
<clustering>
<clus scale="   78.870">  5  6 -1 -1</clus>
<clus scale="   91.448">  1  9  2 -1</clus>
<clus scale="   93.183">  7  8 -1 -1</clus>
<clus scale="  144.907">  1  5  2 -1</clus>
<clus scale="   91.448">  1  5  2 -1</clus>
</clustering>
</event>
<event>
 9    2  0.4883225E-005  0.9630260E+02  0.7546771E-02  0.1305274E+00
         -3   -1    0    0    0  501 -0.00000000000E+00  0.00000000000E+00  0.53158705960E+02  0.53158705960E+02  0.00000000000E+00 0.  1.
         21   -1    0    0  501  502  0.00000000000E+00 -0.00000000000E+00 -0.23323823335E+03  0.23323823335E+03  0.00000000000E+00 0. -1.
         24    2    1    2    0    0 -0.21409626757E+02 -0.63395969267E+01 -0.42134091796E+02  0.81773531856E+02  0.66430913088E+02 0.  0.
         23    2    1    2    0    0  0.62496676892E+01  0.37521832519E+02 -0.13667287789E+03  0.16992793831E+03  0.93536529798E+02 0.  0.
        -11    1    3    3    0    0  0.18192473627E+02 -0.93711315486E+01 -0.36242549390E+02  0.41620987368E+02  0.00000000000E+00 0.  1.
         12    1    3    3    0    0 -0.39602100384E+02  0.30315346219E+01 -0.58915424054E+01  0.40152544489E+02  0.00000000000E+00 0. -1.
        -11    1    4    4    0    0  0.37523314052E+01 -0.27150165907E+02 -0.12980382253E+02  0.30326586078E+02  0.00000000000E+00 0.  1.
         11    1    4    4    0    0  0.24973362840E+01  0.64671998425E+02 -0.12369249564E+03  0.13960135223E+03  0.00000000000E+00 0. -1.
         -4    1    1    2    0  502  0.15159959068E+02 -0.31182235592E+02 -0.12725576993E+01  0.34695469136E+02  0.00000000000E+00 0.  1.
<scales pt_clust_5="13000.00000" pt_clust_6="13000.00000" pt_clust_7="13000.00000" pt_clust_8="13000.00000" pt_clust_9="34.67214"></scales>
<clustering>
<clus scale="   34.672">  2  9  1 -1</clus>
<clus scale="   66.431">  5  6 -1 -1</clus>
<clus scale="   70.272">  1  5  2 -1</clus>
<clus scale="   93.537">  7  8 -1 -1</clus>
<clus scale="   34.672">  2  5  1 -1</clus>
</clustering>
</event>
<event>
 9    2  0.4883225E-005  0.9814801E+02  0.7546771E-02  0.1289222E+00
         21   -1    0    0  501  502  0.00000000000E+00  0.00000000000E+00  0.46090209073E+02  0.46090209073E+02  0.00000000000E+00 0. -1.
          2   -1    0    0  502    0 -0.00000000000E+00 -0.00000000000E+00 -0.26694439367E+03  0.26694439367E+03  0.00000000000E+00 0. -1.
         24    2    1    2    0    0 -0.31646526801E+02 -0.39867186376E+02 -0.12256369676E+03  0.15461511189E+03  0.79328921905E+02 0.  0.
         23    2    1    2    0    0  0.57898575665E+01  0.30539899697E+02 -0.88089000654E+02  0.12909994172E+03  0.89111811746E+02 0.  0.
        -11    1    3    3    0    0 -0.72988712194E+00 -0.39797685814E+02 -0.11649611039E+03  0.12310861980E+03  0.00000000000E+00 0.  1.
         12    1    3    3    0    0 -0.30916639679E+02 -0.69500562826E-01 -0.60675863707E+01  0.31506492089E+02  0.00000000000E+00 0. -1.
        -11    1    4    4    0    0  0.34400712962E+02  0.14963481950E+02 -0.88923909527E+02  0.96513089940E+02  0.00000000000E+00 0. -1.
         11    1    4    4    0    0 -0.28610855395E+02  0.15576417747E+02  0.83490887257E+00  0.32586851783E+02  0.00000000000E+00 0.  1.
          1    1    1    2  501    0  0.25856669235E+02  0.93272866795E+01 -0.10201487177E+02  0.29319549133E+02  0.00000000000E+00 0. -1.
<scales pt_clust_5="13000.00000" pt_clust_6="13000.00000" pt_clust_7="13000.00000" pt_clust_8="13000.00000" pt_clust_9="27.48755"></scales>
<clustering>
<clus scale="   27.488">  1  9  2 -1</clus>
<clus scale="   79.329">  5  6 -1 -1</clus>
<clus scale="   89.112">  7  8 -1 -1</clus>
<clus scale="   89.360">  2  5  1 -1</clus>
<clus scale="   27.488">  1  5  2 -1</clus>
</clustering>
</event>
<event>
 9    2  0.4883225E-005  0.1178692E+03  0.7546771E-02  0.1249526E+00
         -3   -1    0    0    0  501 -0.00000000000E+00  0.00000000000E+00  0.33656634645E+03  0.33656634645E+03  0.00000000000E+00 0.  1.
         21   -1    0    0  501  502  0.00000000000E+00 -0.00000000000E+00 -0.75131951500E+02  0.75131951500E+02  0.00000000000E+00 0.  1.
         23    2    1    2    0    0  0.57606616002E+02 -0.46926970397E+02  0.16159339091E+03  0.19947339259E+03  0.90313606999E+02 0.  0.
         24    2    1    2    0    0 -0.93301883638E+02 -0.12035437004E+01  0.47621609089E+02  0.13274180195E+03  0.81522256616E+02 0.  0.
        -11    1    4    4    0    0 -0.56051305757E+02 -0.20144687190E+01 -0.16601686589E+02  0.58492930845E+02  0.00000000000E+00 0.  1.
         12    1    4    4    0    0 -0.37250577881E+02  0.81092501866E+00  0.64223295679E+02  0.74248871101E+02  0.00000000000E+00 0. -1.
        -11    1    3    3    0    0  0.77446241217E+02 -0.20252526090E+02  0.13479661794E+03  0.15677440257E+03  0.00000000000E+00 0.  1.
         11    1    3    3    0    0 -0.19839625216E+02 -0.26674444307E+02  0.26796772967E+02  0.42698990026E+02  0.00000000000E+00 0. -1.
         -4    1    1    2    0  502  0.35695267636E+02  0.48130514097E+02  0.52219394952E+02  0.79483103413E+02  0.00000000000E+00 0.  1.
<scales pt_clust_5="13000.00000" pt_clust_6="13000.00000" pt_clust_7="13000.00000" pt_clust_8="13000.00000" pt_clust_9="59.92247"></scales>
<clustering>
<clus scale="   59.922">  2  9  1 -1</clus>
<clus scale="   81.522">  5  6 -1 -1</clus>
<clus scale="   90.314">  7  8 -1 -1</clus>
<clus scale="  111.277">  2  5  1 -1</clus>
<clus scale="   59.922">  2  5  1 -1</clus>
</clustering>
</event>
<event>
 9    2  0.4883225E-005  0.1445196E+03  0.7546771E-02  0.1232588E+00
         21   -1    0    0  501  502  0.00000000000E+00  0.00000000000E+00  0.51213920964E+03  0.51213920964E+03  0.00000000000E+00 0. -1.
          4   -1    0    0  502    0 -0.00000000000E+00 -0.00000000000E+00 -0.56981542587E+02  0.56981542587E+02  0.00000000000E+00 0. -1.
         24    2    1    2    0    0  0.25370281772E+02  0.82270408533E+01  0.10083680383E+03  0.13195273066E+03  0.80821573379E+02 0.  0.
         23    2    1    2    0    0 -0.12141464565E+03  0.17169525868E+02  0.24318635453E+03  0.28810298725E+03  0.93954347611E+02 0.  0.
        -13    1    3    3    0    0  0.94465855044E+01 -0.35229073844E+02  0.29464261035E+02  0.46887826777E+02  0.00000000000E+00 0.  1.
         14    1    3    3    0    0  0.15923696267E+02  0.43456114697E+02  0.71372542796E+02  0.85064903883E+02  0.00000000000E+00 0. -1.
        -11    1    4    4    0    0 -0.18487099431E+02 -0.34532482824E+02  0.56747111756E+02  0.68952881797E+02  0.00000000000E+00 0.  1.
         11    1    4    4    0    0 -0.10292754622E+03  0.51702008692E+02  0.18643924277E+03  0.21915010545E+03  0.00000000000E+00 0. -1.
          3    1    1    2  501    0  0.96044363879E+02 -0.25396566721E+02  0.11113450869E+03  0.14906503432E+03  0.00000000000E+00 0. -1.
<scales pt_clust_5="13000.00000" pt_clust_6="13000.00000" pt_clust_7="13000.00000" pt_clust_8="13000.00000" pt_clust_9="109.81122"></scales>
<clustering>
<clus scale="   80.822">  5  6 -1 -1</clus>
<clus scale="   85.109">  2  5  1 -1</clus>
<clus scale="   93.954">  7  8 -1 -1</clus>
<clus scale="  109.811">  1  9  2 -1</clus>
<clus scale="  109.811">  1  5  2 -1</clus>
</clustering>
</event>
<event>
 9    2  0.4883225E-005  0.1148846E+03  0.7546771E-02  0.1267330E+00
         21   -1    0    0  501  502  0.00000000000E+00  0.00000000000E+00  0.41713481386E+03  0.41713481386E+03  0.00000000000E+00 0.  1.
          4   -1    0    0  502    0 -0.00000000000E+00 -0.00000000000E+00 -0.72599386336E+02  0.72599386336E+02  0.00000000000E+00 0. -1.
         24    2    1    2    0    0 -0.12369035284E+02  0.21359629511E+02 -0.75248209711E+01  0.84950018485E+02  0.80936122363E+02 0.  0.
         23    2    1    2    0    0 -0.52297882072E+02  0.35031199113E+02  0.24113993281E+03  0.26455204493E+03  0.88752824758E+02 0.  0.
        -11    1    3    3    0    0 -0.16152013534E+02 -0.16377278806E+02 -0.32296661382E+02  0.39650689007E+02  0.00000000000E+00 0.  1.
         12    1    3    3    0    0  0.37829782498E+01  0.37736908317E+02  0.24771840411E+02  0.45299329478E+02  0.00000000000E+00 0. -1.
        -11    1    4    4    0    0 -0.50058255509E+02  0.61013021921E+02  0.14674245125E+03  0.16661862077E+03  0.00000000000E+00 0.  1.
         11    1    4    4    0    0 -0.22396265631E+01 -0.25981822808E+02  0.94397481554E+02  0.97933424158E+02  0.00000000000E+00 0. -1.
          3    1    1    2  501    0  0.64666917357E+02 -0.56390828624E+02  0.11092031568E+03  0.14023213678E+03  0.00000000000E+00 0. -1.
<scales pt_clust_5="13000.00000" pt_clust_6="13000.00000" pt_clust_7="13000.00000" pt_clust_8="13000.00000" pt_clust_9="72.94794"></scales>
<clustering>
<clus scale="   80.936">  5  6 -1 -1</clus>
<clus scale="   84.616">  2  5  1 -1</clus>
<clus scale="   72.948">  1  9  2 -1</clus>
<clus scale="   88.753">  7  8 -1 -1</clus>
<clus scale="   72.948">  1  5  2 -1</clus>
</clustering>
</event>
<event>
 9    2  0.4883225E-005  0.1726716E+03  0.7546771E-02  0.1198735E+00
          2   -1    0    0  502    0 -0.00000000000E+00  0.00000000000E+00  0.45286064499E+03  0.45286064499E+03  0.00000000000E+00 0. -1.
         21   -1    0    0  501  502  0.00000000000E+00 -0.00000000000E+00 -0.66157364262E+03  0.66157364262E+03  0.00000000000E+00 0. -1.
         24    2    1    2    0    0  0.50946759212E+02  0.45756199321E+02  0.38684204734E+03  0.40009400113E+03  0.75757759326E+02 0.  0.
         23    2    1    2    0    0  0.90572760638E+02  0.26109619194E+02 -0.41278476995E+02  0.13778587951E+03  0.91629136994E+02 0.  0.
        -11    1    3    3    0    0  0.20449647204E+02 -0.14505044032E+02  0.43813055488E+02  0.50479383953E+02  0.00000000000E+00 0.  1.
         12    1    3    3    0    0  0.30497112008E+02  0.60261243353E+02  0.34302899186E+03  0.34961461718E+03  0.00000000000E+00 0. -1.
        -13    1    4    4    0    0  0.56976420832E+02  0.53277799920E+02 -0.51389854306E+02  0.93411742414E+02  0.00000000000E+00 0. -1.
         13    1    4    4    0    0  0.33596339806E+02 -0.27168180726E+02  0.10111377311E+02  0.44374137100E+02  0.00000000000E+00 0.  1.
          1    1    1    2  501    0 -0.14151951985E+03 -0.71865818515E+02 -0.55427656798E+03  0.57655440696E+03  0.00000000000E+00 0. -1.
<scales pt_clust_5="13000.00000" pt_clust_6="13000.00000" pt_clust_7="13000.00000" pt_clust_8="13000.00000" pt_clust_9="146.35425"></scales>
<clustering>
<clus scale="   75.758">  5  6 -1 -1</clus>
<clus scale="   91.629">  7  8 -1 -1</clus>
<clus scale="  102.120">  1  5  2 -1</clus>
<clus scale="  146.354">  2  9  1 -1</clus>
<clus scale="  146.354">  2  5  1 -1</clus>
</clustering>
</event>
<event>
 9    2  0.4883225E-005  0.1492497E+03  0.7546771E-02  0.1227183E+00
          2   -1    0    0  502    0 -0.00000000000E+00  0.00000000000E+00  0.30536834405E+03  0.30536834405E+03  0.00000000000E+00 0. -1.
         21   -1    0    0  501  502  0.00000000000E+00 -0.00000000000E+00 -0.20043692516E+03  0.20043692516E+03  0.00000000000E+00 0. -1.
         24    2    1    2    0    0 -0.13870340782E+02 -0.20551571562E+02  0.15971581327E+03  0.18158539723E+03  0.82760872584E+02 0.  0.
         23    2    1    2    0    0  0.10942317544E+03  0.58067930894E+02 -0.12629449055E+03  0.19911385580E+03  0.91382237374E+02 0.  0.
        -11    1    3    3    0    0  0.23118389903E+02  0.20203835045E+02  0.68237680147E+02  0.74826705755E+02  0.00000000000E+00 0.  1.
         12    1    3    3    0    0 -0.36988730685E+02 -0.40755406607E+02  0.91478133125E+02  0.10675869147E+03  0.00000000000E+00 0. -1.
        -13    1    4    4    0    0  0.12169588246E+03  0.37135003442E+02 -0.11782835675E+03  0.17341400734E+03  0.00000000000E+00 0. -1.
         13    1    4    4    0    0 -0.12272707022E+02  0.20932927452E+02 -0.84661338050E+01  0.25699848462E+02  0.00000000000E+00 0.  1.
          1    1    1    2  501    0 -0.95552834656E+02 -0.37516359332E+02  0.71510096177E+02  0.12510601618E+03  0.00000000000E+00 0. -1.
<scales pt_clust_5="13000.00000" pt_clust_6="13000.00000" pt_clust_7="13000.00000" pt_clust_8="13000.00000" pt_clust_9="118.00331"></scales>
<clustering>
<clus scale="   82.761">  5  6 -1 -1</clus>
<clus scale="   86.395">  1  5  2 -1</clus>
<clus scale="   91.382">  7  8 -1 -1</clus>
<clus scale="  118.003">  2  9  1 -1</clus>
<clus scale="  118.003">  2  5  1 -1</clus>
</clustering>
</event>
<event>
 9    2  0.4883225E-005  0.9763819E+02  0.7546771E-02  0.1293089E+00
          2   -1    0    0  502    0 -0.00000000000E+00  0.00000000000E+00  0.19994574218E+03  0.19994574218E+03  0.00000000000E+00 0. -1.
         21   -1    0    0  501  502  0.00000000000E+00 -0.00000000000E+00 -0.18773236022E+03  0.18773236022E+03  0.00000000000E+00 0. -1.
         24    2    1    2    0    0 -0.16048438315E+02 -0.41457326656E+02  0.15466078708E+03  0.17768144935E+03  0.75329118383E+02 0.  0.
         23    2    1    2    0    0  0.79488978423E+01 -0.41618241872E+01 -0.42484449300E+02  0.99818152359E+02  0.89878970570E+02 0.  0.
        -13    1    3    3    0    0  0.82364858058E+01 -0.42349631797E+02  0.34933721447E+02  0.55513024651E+02  0.00000000000E+00 0.  1.
         14    1    3    3    0    0 -0.24284924121E+02  0.89230514065E+00  0.11972706563E+03  0.12216842469E+03  0.00000000000E+00 0. -1.
        -11    1    4    4    0    0 -0.10482994531E+02  0.40078918103E+02 -0.27012305354E+02  0.49455813522E+02  0.00000000000E+00 0.  1.
         11    1    4    4    0    0  0.18431892373E+02 -0.44240742290E+02 -0.15472143946E+02  0.50362338837E+02  0.00000000000E+00 0. -1.
          1    1    1    2  501    0  0.80995404724E+01  0.45619150843E+02 -0.99962955815E+02  0.11017850069E+03  0.00000000000E+00 0. -1.
<scales pt_clust_5="13000.00000" pt_clust_6="13000.00000" pt_clust_7="13000.00000" pt_clust_8="13000.00000" pt_clust_9="46.33260"></scales>
<clustering>
<clus scale="   46.333">  2  9  1 -1</clus>
<clus scale="   75.329">  5  6 -1 -1</clus>
<clus scale="   84.436">  1  5  2 -1</clus>
<clus scale="   89.879">  7  8 -1 -1</clus>
<clus scale="   46.333">  2  5  1 -1</clus>
</clustering>
</event>
<event>
 9    2  0.4883225E-005  0.1373182E+03  0.7546771E-02  0.1220548E+00
         21   -1    0    0  501  502  0.00000000000E+00  0.00000000000E+00  0.17639687192E+03  0.17639687192E+03  0.00000000000E+00 0. -1.
          2   -1    0    0  502    0 -0.00000000000E+00 -0.00000000000E+00 -0.74898080571E+03  0.74898080571E+03  0.00000000000E+00 0. -1.
         24    2    1    2    0    0 -0.53931366776E+02 -0.77849230015E+02 -0.54892974529E+03  0.56267942436E+03  0.79468071567E+02 0.  0.
         23    2    1    2    0    0  0.89586290963E+02  0.85889310006E+02 -0.15884329871E+03  0.22265535976E+03  0.94559709093E+02 0.  0.
        -11    1    3    3    0    0 -0.19639845430E+02 -0.86006813182E+02 -0.37896986644E+03  0.38910288499E+03  0.00000000000E+00 0.  1.
         12    1    3    3    0    0 -0.34291521346E+02  0.81575831668E+01 -0.16995987885E+03  0.17357653936E+03  0.00000000000E+00 0. -1.
        -13    1    4    4    0    0  0.56523476297E+02  0.74085559589E+02 -0.44923830983E+02  0.10344913776E+03  0.00000000000E+00 0.  1.
         13    1    4    4    0    0  0.33062814666E+02  0.11803750417E+02 -0.11391946773E+03  0.11920622201E+03  0.00000000000E+00 0. -1.
          1    1    1    2  501    0 -0.35654924187E+02 -0.80400799911E+01  0.13518911020E+03  0.14004289351E+03  0.00000000000E+00 0. -1.
<scales pt_clust_5="13000.00000" pt_clust_6="13000.00000" pt_clust_7="13000.00000" pt_clust_8="13000.00000" pt_clust_9="36.55019"></scales>
<clustering>
<clus scale="   36.550">  1  9  2 -1</clus>
<clus scale="   79.468">  5  6 -1 -1</clus>
<clus scale="   94.560">  7  8 -1 -1</clus>
<clus scale="  127.397">  2  5  1 -1</clus>
<clus scale="   36.550">  1  5  2 -1</clus>
</clustering>
</event>
<event>
 9    2  0.4883225E-005  0.1396388E+03  0.7546771E-02  0.1228553E+00
         21   -1    0    0  501  502  0.00000000000E+00  0.00000000000E+00  0.81016917607E+02  0.81016917607E+02  0.00000000000E+00 0. -1.
          2   -1    0    0  502    0 -0.00000000000E+00 -0.00000000000E+00 -0.60285725272E+03  0.60285725272E+03  0.00000000000E+00 0. -1.
         24    2    1    2    0    0  0.42626600905E+02 -0.56426354777E+02 -0.36579632923E+03  0.37989583869E+03  0.74249129013E+02 0.  0.
         23    2    1    2    0    0  0.10872977609E+02 -0.62453043572E+02 -0.13136322031E+03  0.17129955628E+03  0.89825597901E+02 0.  0.
        -11    1    3    3    0    0  0.55684434296E+02 -0.55128706056E+02 -0.35290983158E+03  0.36150419040E+03  0.00000000000E+00 0.  1.
         12    1    3    3    0    0 -0.13057833390E+02 -0.12976487204E+01 -0.12886497652E+02  0.18391648289E+02  0.00000000000E+00 0. -1.
        -11    1    4    4    0    0 -0.14343853524E+01 -0.83508659654E+02 -0.11417465757E+03  0.14146238415E+03  0.00000000000E+00 0. -1.
         11    1    4    4    0    0  0.12307362961E+02  0.21055616082E+02 -0.17188562744E+02  0.29837172133E+02  0.00000000000E+00 0.  1.
          1    1    1    2  501    0 -0.53499578514E+02  0.11887939835E+03 -0.24680785572E+02  0.13267877535E+03  0.00000000000E+00 0. -1.
<scales pt_clust_5="13000.00000" pt_clust_6="13000.00000" pt_clust_7="13000.00000" pt_clust_8="13000.00000" pt_clust_9="106.91281"></scales>
<clustering>
<clus scale="   74.249">  5  6 -1 -1</clus>
<clus scale="   89.826">  7  8 -1 -1</clus>
<clus scale="  102.537">  2  5  1 -1</clus>
<clus scale="  106.913">  1  9  2 -1</clus>
<clus scale="  106.913">  1  5  2 -1</clus>
</clustering>
</event>
<event>
 9    2  0.4883225E-005  0.1475098E+03  0.7546771E-02  0.1228881E+00
          2   -1    0    0  502    0 -0.00000000000E+00  0.00000000000E+00  0.71338415542E+03  0.71338415542E+03  0.00000000000E+00 0. -1.
         21   -1    0    0  501  502  0.00000000000E+00 -0.00000000000E+00 -0.18104683670E+03  0.18104683670E+03  0.00000000000E+00 0. -1.
         24    2    1    2    0    0  0.31800719967E+02 -0.48097871683E+01  0.59356603343E+03  0.59982060868E+03  0.80185451982E+02 0.  0.
         23    2    1    2    0    0 -0.56524752765E+02  0.11010985865E+03 -0.96800233648E+02  0.18074767747E+03  0.89332015699E+02 0.  0.
        -13    1    3    3    0    0 -0.21865713914E+02  0.17014551331E+02  0.15678395750E+03  0.15921310791E+03  0.00000000000E+00 0.  1.
         14    1    3    3    0    0  0.53666433881E+02 -0.21824338499E+02  0.43678207593E+03  0.44060750076E+03  0.00000000000E+00 0. -1.
        -13    1    4    4    0    0  0.32151437787E+01  0.79371733647E+02 -0.77182563452E+02  0.11075810288E+03  0.00000000000E+00 0. -1.
         13    1    4    4    0    0 -0.59739896544E+02  0.30738125003E+02 -0.19617670196E+02  0.69989574593E+02  0.00000000000E+00 0.  1.
          1    1    1    2  501    0  0.24724032798E+02 -0.10530007148E+03  0.35571518939E+02  0.11386270597E+03  0.00000000000E+00 0. -1.
<scales pt_clust_5="13000.00000" pt_clust_6="13000.00000" pt_clust_7="13000.00000" pt_clust_8="13000.00000" pt_clust_9="117.38373"></scales>
<clustering>
<clus scale="   80.185">  5  6 -1 -1</clus>
<clus scale="   86.395">  1  5  2 -1</clus>
<clus scale="   89.332">  7  8 -1 -1</clus>
<clus scale="  117.384">  2  9  1 -1</clus>
<clus scale="  117.384">  2  5  1 -1</clus>
</clustering>
</event>
<event>
 9    2  0.4883225E-005  0.9367385E+02  0.7546771E-02  0.1295549E+00
          2   -1    0    0  502    0 -0.00000000000E+00  0.00000000000E+00  0.81412822400E+02  0.81412822400E+02  0.00000000000E+00 0. -1.
         21   -1    0    0  501  502  0.00000000000E+00 -0.00000000000E+00 -0.35629024265E+03  0.35629024265E+03  0.00000000000E+00 0. -1.
         23    2    1    2    0    0 -0.17940146778E+02  0.14206928748E+02 -0.12787110862E+03  0.15903056602E+03  0.91738840290E+02 0.  0.
         24    2    1    2    0    0 -0.49434409631E+02  0.47465382027E+02 -0.15455234944E+03  0.18702236289E+03  0.79963817790E+02 0.  0.
        -13    1    4    4    0    0 -0.38001821958E+02 -0.14606360108E+02 -0.45776420888E+02  0.61261447396E+02  0.00000000000E+00 0.  1.
         14    1    4    4    0    0 -0.11432587673E+02  0.62071742135E+02 -0.10877592855E+03  0.12576091549E+03  0.00000000000E+00 0. -1.
        -13    1    3    3    0    0 -0.63128334462E+00  0.41381638837E+02 -0.11843547862E+03  0.12545836420E+03  0.00000000000E+00 0.  1.
         13    1    3    3    0    0 -0.17308863433E+02 -0.27174710089E+02 -0.94356300055E+01  0.33572201825E+02  0.00000000000E+00 0. -1.
          1    1    1    2  501    0  0.67374556409E+02 -0.61672310775E+02  0.75460378172E+01  0.91650136139E+02  0.00000000000E+00 0. -1.
<scales pt_clust_5="13000.00000" pt_clust_6="13000.00000" pt_clust_7="13000.00000" pt_clust_8="13000.00000" pt_clust_9="91.33900"></scales>
<clustering>
<clus scale="   79.964">  5  6 -1 -1</clus>
<clus scale="   91.339">  2  9  1 -1</clus>
<clus scale="   91.339">  2  5  1 -1</clus>
<clus scale="   91.739">  7  8 -1 -1</clus>
<clus scale="   91.339">  2  5  1 -1</clus>
</clustering>
</event>
<event>
 9    2  0.4883225E-005  0.9176400E+02  0.7546771E-02  0.1303609E+00
         21   -1    0    0  501  502  0.00000000000E+00  0.00000000000E+00  0.22257012208E+03  0.22257012208E+03  0.00000000000E+00 0.  1.
         -1   -1    0    0    0  501 -0.00000000000E+00 -0.00000000000E+00 -0.99012323420E+02  0.99012323420E+02  0.00000000000E+00 0.  1.
         24    2    1    2    0    0  0.14507004531E+02  0.28663471199E+02 -0.27931488319E+02  0.90787463997E+02  0.80188202485E+02 0.  0.
         23    2    1    2    0    0  0.52376637726E+02 -0.91059536109E+01  0.77197271869E+02  0.12893614975E+03  0.88537457376E+02 0.  0.
        -13    1    3    3    0    0  0.17065739475E+02 -0.19348849521E+02  0.11842718185E+02  0.28387803995E+02  0.00000000000E+00 0.  1.
         14    1    3    3    0    0 -0.25587349439E+01  0.48012320720E+02 -0.39774206504E+02  0.62399660003E+02  0.00000000000E+00 0. -1.
        -11    1    4    4    0    0 -0.23486436390E+02 -0.13770138951E+02  0.21958500991E+02  0.34977209534E+02  0.00000000000E+00 0. -1.
         11    1    4    4    0    0  0.75863074115E+02  0.46641853399E+01  0.55238770877E+02  0.93958940219E+02  0.00000000000E+00 0.  1.
         -2    1    1    2    0  502 -0.66883642257E+02 -0.19557517588E+02  0.74292015107E+02  0.10185883174E+03  0.00000000000E+00 0.  1.
<scales pt_clust_5="13000.00000" pt_clust_6="13000.00000" pt_clust_7="13000.00000" pt_clust_8="13000.00000" pt_clust_9="69.68442"></scales>
<clustering>
<clus scale="   69.684">  1  9  2 -1</clus>
<clus scale="   80.188">  5  6 -1 -1</clus>
<clus scale="   83.737">  2  5  1 -1</clus>
<clus scale="   88.537">  7  8 -1 -1</clus>
<clus scale="   69.684">  1  5  2 -1</clus>
</clustering>
</event>
<event>
 9    2  0.4883225E-005  0.9481230E+02  0.7546771E-02  0.1298296E+00
         21   -1    0    0  501  502  0.00000000000E+00  0.00000000000E+00  0.13018879819E+03  0.13018879819E+03  0.00000000000E+00 0.  1.
          2   -1    0    0  502    0 -0.00000000000E+00 -0.00000000000E+00 -0.16294006699E+03  0.16294006699E+03  0.00000000000E+00 0. -1.
         23    2    1    2    0    0  0.84841931376E+01  0.15295029154E+02 -0.78321395169E+02  0.12250285074E+03  0.92556944891E+02 0.  0.
         24    2    1    2    0    0  0.46188550400E+02 -0.38118323319E+02  0.47203115278E+02  0.11135816232E+03  0.81154897957E+02 0.  0.
        -13    1    4    4    0    0  0.56742111392E+01 -0.45445289762E+02  0.52702028742E+02  0.69821020238E+02  0.00000000000E+00 0.  1.
         14    1    4    4    0    0  0.40514339261E+02  0.73269664428E+01 -0.54989134633E+01  0.41537142082E+02  0.00000000000E+00 0. -1.
        -13    1    3    3    0    0  0.25586898012E+02  0.40190982092E+02 -0.79040519572E+02  0.92289805101E+02  0.00000000000E+00 0. -1.
         13    1    3    3    0    0 -0.17102704875E+02 -0.24895952938E+02  0.71912440283E+00  0.30213045636E+02  0.00000000000E+00 0.  1.
          1    1    1    2  501    0 -0.54672743538E+02  0.22823294165E+02 -0.16329889021E+01  0.59267852123E+02  0.00000000000E+00 0. -1.
<scales pt_clust_5="13000.00000" pt_clust_6="13000.00000" pt_clust_7="13000.00000" pt_clust_8="13000.00000" pt_clust_9="59.24535"></scales>
<clustering>
<clus scale="   59.245">  1  9  2 -1</clus>
<clus scale="   81.155">  5  6 -1 -1</clus>
<clus scale="   83.718">  1  5  2 -1</clus>
<clus scale="   92.557">  7  8 -1 -1</clus>
<clus scale="   59.245">  1  5  2 -1</clus>
</clustering>
</event>
<event>
 9    2  0.4883225E-005  0.1230376E+03  0.7546771E-02  0.1240687E+00
         21   -1    0    0  501  502  0.00000000000E+00  0.00000000000E+00  0.51211083857E+03  0.51211083857E+03  0.00000000000E+00 0.  1.
         -1   -1    0    0    0  501 -0.00000000000E+00 -0.00000000000E+00 -0.15785717430E+03  0.15785717430E+03  0.00000000000E+00 0.  1.
         23    2    1    2    0    0 -0.64369901983E+02  0.44560238888E+02 -0.96264478090E+02  0.15298351194E+03  0.89487462887E+02 0.  0.
         24    2    1    2    0    0  0.86447238474E+02 -0.90721921747E+02  0.14775562428E+03  0.20992839513E+03  0.80836962158E+02 0.  0.
        -11    1    4    4    0    0  0.91829362769E+02 -0.95234401471E+02  0.11155067077E+03  0.17304847656E+03  0.00000000000E+00 0.  1.
         12    1    4    4    0    0 -0.53821242948E+01  0.45124797248E+01  0.36204953513E+02  0.36879918575E+02  0.00000000000E+00 0. -1.
        -11    1    3    3    0    0 -0.33403271206E+02  0.68136031948E+02 -0.43661403223E+02  0.87547789854E+02  0.00000000000E+00 0.  1.
         11    1    3    3    0    0 -0.30966630776E+02 -0.23575793060E+02 -0.52603074867E+02  0.65435722091E+02  0.00000000000E+00 0. -1.
         -2    1    1    2    0  502 -0.22077336491E+02  0.46161682858E+02  0.30276251808E+03  0.30705610579E+03  0.00000000000E+00 0.  1.
<scales pt_clust_5="13000.00000" pt_clust_6="13000.00000" pt_clust_7="13000.00000" pt_clust_8="13000.00000" pt_clust_9="51.16942"></scales>
<clustering>
<clus scale="   51.169">  1  9  2 -1</clus>
<clus scale="   80.837">  5  6 -1 -1</clus>
<clus scale="   89.487">  7  8 -1 -1</clus>
<clus scale="  116.897">  1  5  2 -1</clus>
<clus scale="   51.169">  1  5  2 -1</clus>
</clustering>
</event>
<event>
 9    2  0.4883225E-005  0.9674420E+02  0.7546771E-02  0.1294386E+00
         -1   -1    0    0    0  501 -0.00000000000E+00  0.00000000000E+00  0.56597293972E+02  0.56597293972E+02  0.00000000000E+00 0.  1.
         21   -1    0    0  501  502  0.00000000000E+00 -0.00000000000E+00 -0.26051913233E+03  0.26051913233E+03  0.00000000000E+00 0. -1.
         24    2    1    2    0    0  0.25131606965E+02 -0.14590138052E+02 -0.58978135045E+01  0.84100034923E+02  0.78699185973E+02 0.  0.
         23    2    1    2    0    0 -0.24474902260E+02  0.35436905233E+02 -0.15314853702E+03  0.18353075335E+03  0.91511026330E+02 0.  0.
        -13    1    3    3    0    0  0.46414792980E+02  0.10580057760E+02  0.80984825140E+01  0.48289295383E+02  0.00000000000E+00 0.  1.
         14    1    3    3    0    0 -0.21283186014E+02 -0.25170195812E+02 -0.13996296019E+02  0.35810739540E+02  0.00000000000E+00 0. -1.
        -11    1    4    4    0    0  0.20898711593E+02 -0.19481739973E+02 -0.31245798896E+02  0.42339039754E+02  0.00000000000E+00 0.  1.
         11    1    4    4    0    0 -0.45373613853E+02  0.54918645207E+02 -0.12190273813E+03  0.14119171359E+03  0.00000000000E+00 0. -1.
         -2    1    1    2    0  502 -0.65670470536E+00 -0.20846767181E+02 -0.44875487830E+02  0.49485638027E+02  0.00000000000E+00 0.  1.
<scales pt_clust_5="13000.00000" pt_clust_6="13000.00000" pt_clust_7="13000.00000" pt_clust_8="13000.00000" pt_clust_9="20.85711"></scales>
<clustering>
<clus scale="   20.857">  2  9  1 -1</clus>
<clus scale="   78.699">  5  6 -1 -1</clus>
<clus scale="   84.727">  1  5  2 -1</clus>
<clus scale="   91.511">  7  8 -1 -1</clus>
<clus scale="   20.857">  2  5  1 -1</clus>
</clustering>
</event>
<event>
 9    2  0.4883225E-005  0.9187276E+02  0.7546771E-02  0.1304297E+00
         21   -1    0    0  501  502  0.00000000000E+00  0.00000000000E+00  0.43745034730E+02  0.43745034730E+02  0.00000000000E+00 0.  1.
          2   -1    0    0  502    0 -0.00000000000E+00 -0.00000000000E+00 -0.46012088702E+03  0.46012088702E+03  0.00000000000E+00 0. -1.
         24    2    1    2    0    0 -0.11438597625E+02  0.12101950011E+02 -0.28703497140E+03  0.29858118506E+03  0.80525465253E+02 0.  0.
         23    2    1    2    0    0 -0.35252992186E+02 -0.40066030787E+02 -0.80409863238E+02  0.13209772376E+03  0.90199790668E+02 0.  0.
        -11    1    3    3    0    0  0.29152928072E+02  0.10849356872E+02 -0.56503287115E+02  0.64499792360E+02  0.00000000000E+00 0.  1.
         12    1    3    3    0    0 -0.40591525697E+02  0.12525931384E+01 -0.23053168429E+03  0.23408139270E+03  0.00000000000E+00 0. -1.
        -11    1    4    4    0    0 -0.49265010229E+02 -0.61458733976E+02 -0.65874784529E+02  0.10268254210E+03  0.00000000000E+00 0.  1.
         11    1    4    4    0    0  0.14012018043E+02  0.21392703190E+02 -0.14535078709E+02  0.29415181667E+02  0.00000000000E+00 0. -1.
          1    1    1    2  501    0  0.46691589810E+02  0.27964080776E+02 -0.48931017649E+02  0.73187012924E+02  0.00000000000E+00 0. -1.
<scales pt_clust_5="13000.00000" pt_clust_6="13000.00000" pt_clust_7="13000.00000" pt_clust_8="13000.00000" pt_clust_9="54.42513"></scales>
<clustering>
<clus scale="   54.425">  1  9  2 -1</clus>
<clus scale="   80.525">  5  6 -1 -1</clus>
<clus scale="   82.395">  2  5  1 -1</clus>
<clus scale="   90.200">  7  8 -1 -1</clus>
<clus scale="   54.425">  1  5  2 -1</clus>
</clustering>
</event>
<event>
 9    2  0.4883225E-005  0.9332430E+02  0.7546771E-02  0.1301449E+00
         21   -1    0    0  501  502  0.00000000000E+00  0.00000000000E+00  0.24413798973E+03  0.24413798973E+03  0.00000000000E+00 0. -1.
          4   -1    0    0  502    0 -0.00000000000E+00 -0.00000000000E+00 -0.63852908567E+02  0.63852908567E+02  0.00000000000E+00 0. -1.
         23    2    1    2    0    0 -0.27035105181E+01  0.17039171275E+02  0.20444047259E+02  0.95106508357E+02  0.91266897266E+02 0.  0.
         24    2    1    2    0    0 -0.22604814240E+02 -0.18180299219E+02  0.47802770306E+02  0.98017571473E+02  0.80503655581E+02 0.  0.
        -11    1    4    4    0    0 -0.10507611953E+01  0.28810352323E+02  0.19172403344E+01  0.28893187961E+02  0.00000000000E+00 0.  1.
         12    1    4    4    0    0 -0.21554053044E+02 -0.46990651542E+02  0.45885529972E+02  0.69124383511E+02  0.00000000000E+00 0. -1.
        -13    1    3    3    0    0 -0.30119861631E+02  0.39294335952E+02  0.30798201860E+02  0.58307633637E+02  0.00000000000E+00 0. -1.
         13    1    3    3    0    0  0.27416351113E+02 -0.22255164677E+02 -0.10354154601E+02  0.36798874720E+02  0.00000000000E+00 0.  1.
          3    1    1    2  501    0  0.25308324758E+02  0.11411279438E+01  0.11203826360E+03  0.11486681847E+03  0.00000000000E+00 0. -1.
<scales pt_clust_5="13000.00000" pt_clust_6="13000.00000" pt_clust_7="13000.00000" pt_clust_8="13000.00000" pt_clust_9="25.33404"></scales>
<clustering>
<clus scale="   25.334">  1  9  2 -1</clus>
<clus scale="   80.504">  5  6 -1 -1</clus>
<clus scale="   82.829">  1  5  2 -1</clus>
<clus scale="   91.267">  7  8 -1 -1</clus>
<clus scale="   25.334">  1  5  2 -1</clus>
</clustering>
</event>
<event>
 9    2  0.4883225E-005  0.2337324E+03  0.7546771E-02  0.1124471E+00
          2   -1    0    0  502    0 -0.00000000000E+00  0.00000000000E+00  0.80690247004E+03  0.80690247004E+03  0.00000000000E+00 0. -1.
         21   -1    0    0  501  502  0.00000000000E+00 -0.00000000000E+00 -0.73797070282E+02  0.73797070282E+02  0.00000000000E+00 0.  1.
         24    2    1    2    0    0  0.19015735766E+03 -0.91884465426E+02  0.37370104207E+03  0.43769269692E+03  0.85556136196E+02 0.  0.
         23    2    1    2    0    0 -0.20544943093E+03  0.77753626389E+02  0.33065547072E+03  0.40750998975E+03  0.92066586475E+02 0.  0.
        -11    1    3    3    0    0  0.34490571171E+02 -0.47310373108E+02  0.15411289429E+03  0.16485950106E+03  0.00000000000E+00 0.  1.
         12    1    3    3    0    0  0.15566678649E+03 -0.44574092319E+02  0.21958814777E+03  0.27283319586E+03  0.00000000000E+00 0. -1.
        -11    1    4    4    0    0 -0.11246996661E+03  0.25795425581E+02  0.97081805430E+02  0.15079712967E+03  0.00000000000E+00 0.  1.
         11    1    4    4    0    0 -0.92979464316E+02  0.51958200808E+02  0.23357366529E+03  0.25671286008E+03  0.00000000000E+00 0. -1.
          1    1    1    2  501    0  0.15292073266E+02  0.14130839037E+02  0.28748886969E+02  0.35496853644E+02  0.00000000000E+00 0. -1.
<scales pt_clust_5="13000.00000" pt_clust_6="13000.00000" pt_clust_7="13000.00000" pt_clust_8="13000.00000" pt_clust_9="20.82134"></scales>
<clustering>
<clus scale="   20.821">  2  9  1 -1</clus>
<clus scale="   85.556">  5  6 -1 -1</clus>
<clus scale="   92.067">  7  8 -1 -1</clus>
<clus scale="  231.245">  1  5  2 -1</clus>
<clus scale="   20.821">  2  5  1 -1</clus>
</clustering>
</event>
<event>
 9    2  0.4883225E-005  0.9155985E+02  0.7546771E-02  0.1306525E+00
          4   -1    0    0  502    0 -0.00000000000E+00  0.00000000000E+00  0.29225601878E+03  0.29225601878E+03  0.00000000000E+00 0. -1.
         21   -1    0    0  501  502  0.00000000000E+00 -0.00000000000E+00 -0.28887608513E+03  0.28887608513E+03  0.00000000000E+00 0.  1.
         24    2    1    2    0    0  0.84862389128E+01  0.88087898857E+01  0.26619500090E+03  0.27789723377E+03  0.78851017764E+02 0.  0.
         23    2    1    2    0    0 -0.53302755956E+02  0.14085450010E+00 -0.17254771455E+03  0.20205774182E+03  0.90627885329E+02 0.  0.
        -13    1    3    3    0    0 -0.30712395628E+02 -0.11534984445E+02  0.78562314175E+02  0.85137208786E+02  0.00000000000E+00 0.  1.
         14    1    3    3    0    0  0.39198634541E+02  0.20343774331E+02  0.18763268672E+03  0.19276002498E+03  0.00000000000E+00 0. -1.
        -11    1    4    4    0    0 -0.78634141609E+01  0.33352009455E+02 -0.20506970972E+02  0.39934016520E+02  0.00000000000E+00 0. -1.
         11    1    4    4    0    0 -0.45439341795E+02 -0.33211154955E+02 -0.15204074358E+03  0.16212372530E+03  0.00000000000E+00 0.  1.
          3    1    1    2  501    0  0.44816517043E+02 -0.89496443858E+01 -0.90267352696E+02  0.10117712833E+03  0.00000000000E+00 0. -1.
<scales pt_clust_5="13000.00000" pt_clust_6="13000.00000" pt_clust_7="13000.00000" pt_clust_8="13000.00000" pt_clust_9="45.70138"></scales>
<clustering>
<clus scale="   45.701">  2  9  1 -1</clus>
<clus scale="   78.851">  5  6 -1 -1</clus>
<clus scale="   79.920">  1  5  2 -1</clus>
<clus scale="   90.628">  7  8 -1 -1</clus>
<clus scale="   45.701">  2  5  1 -1</clus>
</clustering>
</event>
<event>
 9    2  0.4883225E-005  0.9346140E+02  0.7546771E-02  0.1303351E+00
          2   -1    0    0  502    0 -0.00000000000E+00  0.00000000000E+00  0.56655917328E+02  0.56655917328E+02  0.00000000000E+00 0. -1.
         21   -1    0    0  501  502  0.00000000000E+00 -0.00000000000E+00 -0.37319091263E+03  0.37319091263E+03  0.00000000000E+00 0. -1.
         24    2    1    2    0    0 -0.14941725462E+02 -0.68307769089E+01  0.79482260826E+01  0.80709056320E+02  0.78618463488E+02 0.  0.
         23    2    1    2    0    0 -0.35154022505E+01 -0.17158956835E+02 -0.20095562193E+03  0.22195585387E+03  0.92598332759E+02 0.  0.
        -13    1    3    3    0    0 -0.90273823760E+01  0.34723721703E+02  0.13575059054E+02  0.38360301222E+02  0.00000000000E+00 0.  1.
         14    1    3    3    0    0 -0.59143430860E+01 -0.41554498612E+02 -0.56268329713E+01  0.42348755098E+02  0.00000000000E+00 0. -1.
        -11    1    4    4    0    0  0.16704007560E+02  0.22895133722E+02 -0.15558936402E+03  0.15814949008E+03  0.00000000000E+00 0.  1.
         11    1    4    4    0    0 -0.20219409810E+02 -0.40054090557E+02 -0.45366257911E+02  0.63806363791E+02  0.00000000000E+00 0. -1.
          1    1    1    2  501    0  0.18457127713E+02  0.23989733743E+02 -0.12352759945E+03  0.12718191976E+03  0.00000000000E+00 0. -1.
<scales pt_clust_5="13000.00000" pt_clust_6="13000.00000" pt_clust_7="13000.00000" pt_clust_8="13000.00000" pt_clust_9="30.26835"></scales>
<clustering>
<clus scale="   30.268">  2  9  1 -1</clus>
<clus scale="   78.618">  5  6 -1 -1</clus>
<clus scale="   79.633">  1  5  2 -1</clus>
<clus scale="   92.598">  7  8 -1 -1</clus>
<clus scale="   30.268">  2  5  1 -1</clus>
</clustering>
</event>
<event>
 9    2  0.4883225E-005  0.1259335E+03  0.7546771E-02  0.1236577E+00
         21   -1    0    0  501  502  0.00000000000E+00  0.00000000000E+00  0.55609198375E+02  0.55609198375E+02  0.00000000000E+00 0. -1.
          2   -1    0    0  502    0 -0.00000000000E+00 -0.00000000000E+00 -0.58175305774E+03  0.58175305774E+03  0.00000000000E+00 0. -1.
         24    2    1    2    0    0  0.72446582554E+02  0.11256989613E+03 -0.28334879527E+03  0.32336648640E+03  0.79742434806E+02 0.  0.
         23    2    1    2    0    0 -0.29934583559E+02 -0.25764249549E+02 -0.91995340417E+02  0.13487835850E+03  0.90383367313E+02 0.  0.
        -13    1    3    3    0    0  0.34318451817E+02 -0.26821681424E+01 -0.62549677118E+02  0.71396164243E+02  0.00000000000E+00 0.  1.
         14    1    3    3    0    0  0.38128130737E+02  0.11525206427E+03 -0.22079911815E+03  0.25197032216E+03  0.00000000000E+00 0. -1.
        -11    1    4    4    0    0  0.11139541259E+02 -0.36763048797E+02 -0.82939682394E+02  0.91403512251E+02  0.00000000000E+00 0.  1.
         11    1    4    4    0    0 -0.41074124818E+02  0.10998799249E+02 -0.90556580229E+01  0.43474846253E+02  0.00000000000E+00 0. -1.
          1    1    1    2  501    0 -0.42511998994E+02 -0.86805646579E+02 -0.15079972367E+03  0.17911741120E+03  0.00000000000E+00 0. -1.
<scales pt_clust_5="13000.00000" pt_clust_6="13000.00000" pt_clust_7="13000.00000" pt_clust_8="13000.00000" pt_clust_9="96.65661"></scales>
<clustering>
<clus scale="   79.742">  5  6 -1 -1</clus>
<clus scale="   90.383">  7  8 -1 -1</clus>
<clus scale="   96.657">  1  9  2 -1</clus>
<clus scale="  118.528">  2  5  1 -1</clus>
<clus scale="   96.657">  1  5  2 -1</clus>
</clustering>
</event>
<event>
 9    2  0.4883225E-005  0.8962979E+02  0.7546771E-02  0.1309992E+00
          2   -1    0    0  502    0 -0.00000000000E+00  0.00000000000E+00  0.15616088717E+03  0.15616088717E+03  0.00000000000E+00 0. -1.
         21   -1    0    0  501  502  0.00000000000E+00 -0.00000000000E+00 -0.10545025143E+03  0.10545025143E+03  0.00000000000E+00 0. -1.
         23    2    1    2    0    0  0.59299495814E+01  0.50404368357E+01  0.70278388529E+02  0.11258875236E+03  0.87616236846E+02 0.  0.
         24    2    1    2    0    0 -0.55540097039E+02  0.14341261559E+01 -0.24836337811E+02  0.98714884959E+02  0.77724035791E+02 0.  0.
        -13    1    4    4    0    0 -0.38000839996E+02  0.17262796357E+01  0.25242036577E+02  0.45653086340E+02  0.00000000000E+00 0.  1.
         14    1    4    4    0    0 -0.17539257043E+02 -0.29215347974E+00 -0.50078374388E+02  0.53061798619E+02  0.00000000000E+00 0. -1.
        -11    1    3    3    0    0  0.25885575604E+02  0.39735185417E+02  0.32023773796E+02  0.57222985527E+02  0.00000000000E+00 0.  1.
         11    1    3    3    0    0 -0.19955626023E+02 -0.34694748581E+02  0.38254614733E+02  0.55365766837E+02  0.00000000000E+00 0. -1.
          1    1    1    2  501    0  0.49610147458E+02 -0.64745629917E+01  0.52685850258E+01  0.50307501278E+02  0.00000000000E+00 0. -1.
<scales pt_clust_5="13000.00000" pt_clust_6="13000.00000" pt_clust_7="13000.00000" pt_clust_8="13000.00000" pt_clust_9="50.03086"></scales>
<clustering>
<clus scale="   50.031">  2  9  1 -1</clus>
<clus scale="   77.724">  5  6 -1 -1</clus>
<clus scale="   79.987">  2  5  1 -1</clus>
<clus scale="   87.616">  7  8 -1 -1</clus>
<clus scale="   50.031">  2  5  1 -1</clus>
</clustering>
</event>
<event>
 9    2  0.4883225E-005  0.1127664E+03  0.7546771E-02  0.1259506E+00
         21   -1    0    0  501  502  0.00000000000E+00  0.00000000000E+00  0.15120048291E+03  0.15120048291E+03  0.00000000000E+00 0. -1.
          2   -1    0    0  502    0 -0.00000000000E+00 -0.00000000000E+00 -0.19325966581E+03  0.19325966581E+03  0.00000000000E+00 0. -1.
         24    2    1    2    0    0  0.68504172066E+02 -0.24404363623E-01 -0.13626510442E+03  0.17272251010E+03  0.81068271376E+02 0.  0.
         23    2    1    2    0    0 -0.46291453879E+02 -0.22753094162E+02  0.92084563185E+02  0.13985160016E+03  0.91751301316E+02 0.  0.
        -11    1    3    3    0    0  0.45806487805E+01 -0.33225345990E+02 -0.35260343919E+02  0.48664132713E+02  0.00000000000E+00 0.  1.
         12    1    3    3    0    0  0.63923523285E+02  0.33200941626E+02 -0.10100476050E+03  0.12405837738E+03  0.00000000000E+00 0. -1.
        -13    1    4    4    0    0 -0.11510650207E+02 -0.54340174656E+02  0.33929319574E+02  0.65088773045E+02  0.00000000000E+00 0.  1.
         13    1    4    4    0    0 -0.34780803673E+02  0.31587080494E+02  0.58155243611E+02  0.74762827112E+02  0.00000000000E+00 0. -1.
          1    1    1    2  501    0 -0.22212718187E+02  0.22777498525E+02  0.21213583370E+01  0.31886038473E+02  0.00000000000E+00 0. -1.
<scales pt_clust_5="13000.00000" pt_clust_6="13000.00000" pt_clust_7="13000.00000" pt_clust_8="13000.00000" pt_clust_9="31.81539"></scales>
<clustering>
<clus scale="   31.815">  1  9  2 -1</clus>
<clus scale="   81.068">  5  6 -1 -1</clus>
<clus scale="   91.751">  7  8 -1 -1</clus>
<clus scale="  104.259">  2  5  1 -1</clus>
<clus scale="   31.815">  1  5  2 -1</clus>
</clustering>
</event>
<event>
 9    2  0.4883225E-005  0.4533400E+03  0.7546771E-02  0.1037518E+00
         21   -1    0    0  501  502  0.00000000000E+00  0.00000000000E+00  0.10951899744E+04  0.10951899744E+04  0.00000000000E+00 0.  1.
          2   -1    0    0  502    0 -0.00000000000E+00 -0.00000000000E+00 -0.50775287144E+03  0.50775287144E+03  0.00000000000E+00 0. -1.
         24    2    1    2    0    0 -0.17008279092E+03 -0.26950461794E+03  0.50691995732E+03  0.60465431638E+03  0.84131470530E+02 0.  0.
         23    2    1    2    0    0 -0.27776688683E+03  0.39187596224E+03 -0.10311848784E+03  0.49902294319E+03  0.87574323253E+02 0.  0.
        -13    1    3    3    0    0 -0.59850276688E+02 -0.16604309405E+03  0.30533606879E+03  0.35267900363E+03  0.00000000000E+00 0.  1.
         14    1    3    3    0    0 -0.11023251423E+03 -0.10346152389E+03  0.20158388852E+03  0.25197531274E+03  0.00000000000E+00 0. -1.
        -13    1    4    4    0    0 -0.10962513853E+02  0.31552814940E+02  0.13060365988E+02  0.35865442983E+02  0.00000000000E+00 0.  1.
         13    1    4    4    0    0 -0.26680437297E+03  0.36032314730E+03 -0.11617885383E+03  0.46315750021E+03  0.00000000000E+00 0. -1.
          1    1    1    2  501    0  0.44784967775E+03 -0.12237134430E+03  0.18363563352E+03  0.49926558630E+03  0.00000000000E+00 0. -1.
<scales pt_clust_5="13000.00000" pt_clust_6="13000.00000" pt_clust_7="13000.00000" pt_clust_8="13000.00000" pt_clust_9="444.80094"></scales>
<clustering>
<clus scale="   84.131">  5  6 -1 -1</clus>
<clus scale="   87.574">  7  8 -1 -1</clus>
<clus scale="  329.604">  2  5  1 -1</clus>
<clus scale="  444.801">  1  9  2 -1</clus>
<clus scale="  444.801">  1  5  2 -1</clus>
</clustering>
</event>
<event>
 9    2  0.4883225E-005  0.1185313E+03  0.7546771E-02  0.1249169E+00
          2   -1    0    0  502    0 -0.00000000000E+00  0.00000000000E+00  0.10924667996E+04  0.10924667996E+04  0.00000000000E+00 0. -1.
         21   -1    0    0  501  502  0.00000000000E+00 -0.00000000000E+00 -0.68652427223E+02  0.68652427223E+02  0.00000000000E+00 0. -1.
         24    2    1    2    0    0  0.69776598018E+02  0.35618357222E+02  0.85218134395E+03  0.85947472991E+03  0.79663839846E+02 0.  0.
         23    2    1    2    0    0 -0.72502739745E+02 -0.36161379318E+01  0.21692310105E+03  0.24612184776E+03  0.90832859963E+02 0.  0.
        -11    1    3    3    0    0  0.54129610710E+02  0.14357811355E+02  0.22948974118E+03  0.23622384048E+03  0.00000000000E+00 0.  1.
         12    1    3    3    0    0  0.15646987308E+02  0.21260545866E+02  0.62269160277E+03  0.62325088943E+03  0.00000000000E+00 0. -1.
        -11    1    4    4    0    0  0.11904593628E+02 -0.22211562212E+02  0.24354440724E+02  0.35045850372E+02  0.00000000000E+00 0. -1.
         11    1    4    4    0    0 -0.84407333373E+02  0.18595424280E+02  0.19256866033E+03  0.21107599739E+03  0.00000000000E+00 0.  1.
          1    1    1    2  501    0  0.27261417272E+01 -0.32002219290E+02 -0.45290072638E+02  0.55522649142E+02  0.00000000000E+00 0. -1.
<scales pt_clust_5="13000.00000" pt_clust_6="13000.00000" pt_clust_7="13000.00000" pt_clust_8="13000.00000" pt_clust_9="32.11812"></scales>
<clustering>
<clus scale="   32.118">  2  9  1 -1</clus>
<clus scale="   79.664">  5  6 -1 -1</clus>
<clus scale="   90.833">  7  8 -1 -1</clus>
<clus scale="  110.206">  1  5  2 -1</clus>
<clus scale="   32.118">  2  5  1 -1</clus>
</clustering>
</event>
<event>
 9    2  0.4883225E-005  0.1276924E+03  0.7546771E-02  0.1233270E+00
         21   -1    0    0  501  502  0.00000000000E+00  0.00000000000E+00  0.16019669146E+03  0.16019669146E+03  0.00000000000E+00 0.  1.
          2   -1    0    0  502    0 -0.00000000000E+00 -0.00000000000E+00 -0.18978961580E+03  0.18978961580E+03  0.00000000000E+00 0. -1.
         23    2    1    2    0    0 -0.64255596256E+02 -0.36765202450E+02 -0.44042781703E+02  0.12556262664E+03  0.91355048179E+02 0.  0.
         24    2    1    2    0    0  0.69771735657E+02  0.86936168603E+02 -0.45478428956E+02  0.14607220878E+03  0.82721280031E+02 0.  0.
        -13    1    4    4    0    0  0.52432510377E+02  0.41174666211E+02  0.14940897353E+02  0.68320946244E+02  0.00000000000E+00 0.  1.
         14    1    4    4    0    0  0.17339225280E+02  0.45761502391E+02 -0.60419326309E+02  0.77751262537E+02  0.00000000000E+00 0. -1.
        -11    1    3    3    0    0 -0.20488408622E+02 -0.17016849350E+01  0.27703872925E+02  0.34498915845E+02  0.00000000000E+00 0.  1.
         11    1    3    3    0    0 -0.43767187634E+02 -0.35063517515E+02 -0.71746654628E+02  0.91063710797E+02  0.00000000000E+00 0. -1.
          1    1    1    2  501    0 -0.55161394011E+01 -0.50170966152E+02  0.59928286312E+02  0.78351471836E+02  0.00000000000E+00 0. -1.
<scales pt_clust_5="13000.00000" pt_clust_6="13000.00000" pt_clust_7="13000.00000" pt_clust_8="13000.00000" pt_clust_9="50.47330"></scales>
<clustering>
<clus scale="   50.473">  1  9  2 -1</clus>
<clus scale="   82.721">  5  6 -1 -1</clus>
<clus scale="   91.355">  7  8 -1 -1</clus>
<clus scale="  121.665">  1  5  2 -1</clus>
<clus scale="   50.473">  1  5  2 -1</clus>
</clustering>
</event>
<event>
 9    2  0.4883225E-005  0.9322820E+02  0.7546771E-02  0.1300348E+00
          2   -1    0    0  502    0 -0.00000000000E+00  0.00000000000E+00  0.31084693739E+03  0.31084693739E+03  0.00000000000E+00 0. -1.
         21   -1    0    0  501  502  0.00000000000E+00 -0.00000000000E+00 -0.91595602901E+02  0.91595602901E+02  0.00000000000E+00 0.  1.
         24    2    1    2    0    0 -0.12320611305E+02  0.14045954973E+02  0.23248777435E+03  0.24727454983E+03  0.82128262232E+02 0.  0.
         23    2    1    2    0    0  0.34409636851E+02 -0.10796852561E+02  0.33559507431E+02  0.10331876289E+03  0.90818120950E+02 0.  0.
        -11    1    3    3    0    0  0.11877448884E+02 -0.30941759319E+02  0.90925751429E+02  0.96777882467E+02  0.00000000000E+00 0.  1.
         12    1    3    3    0    0 -0.24198060189E+02  0.44987714292E+02  0.14156202292E+03  0.15049666736E+03  0.00000000000E+00 0. -1.
        -11    1    4    4    0    0  0.35791436547E+02  0.22520629041E+02 -0.14604196587E+02  0.44737995267E+02  0.00000000000E+00 0. -1.
         11    1    4    4    0    0 -0.13817996964E+01 -0.33317481602E+02  0.48163704019E+02  0.58580767625E+02  0.00000000000E+00 0.  1.
          1    1    1    2  501    0 -0.22089025546E+02 -0.32491024123E+01 -0.46795947296E+02  0.51849227567E+02  0.00000000000E+00 0. -1.
<scales pt_clust_5="13000.00000" pt_clust_6="13000.00000" pt_clust_7="13000.00000" pt_clust_8="13000.00000" pt_clust_9="22.32670"></scales>
<clustering>
<clus scale="   22.327">  2  9  1 -1</clus>
<clus scale="   82.128">  5  6 -1 -1</clus>
<clus scale="   84.786">  1  5  2 -1</clus>
<clus scale="   90.818">  7  8 -1 -1</clus>
<clus scale="   22.327">  2  5  1 -1</clus>
</clustering>
</event>
<event>
 9    2  0.4883225E-005  0.9702056E+02  0.7546771E-02  0.1294938E+00
         21   -1    0    0  501  502  0.00000000000E+00  0.00000000000E+00  0.46571014071E+02  0.46571014071E+02  0.00000000000E+00 0.  1.
          2   -1    0    0  502    0 -0.00000000000E+00 -0.00000000000E+00 -0.42193990479E+03  0.42193990479E+03  0.00000000000E+00 0. -1.
         23    2    1    2    0    0  0.33114824064E-01 -0.11998783282E+02 -0.26666465006E+03  0.28346782051E+03  0.95393908477E+02 0.  0.
         24    2    1    2    0    0 -0.86320769488E+01  0.41335456537E+02 -0.23513175018E+02  0.94532876764E+02  0.81243231535E+02 0.  0.
        -11    1    4    4    0    0 -0.23477671158E+02  0.44032035099E+02  0.15866217733E+02  0.52361799273E+02  0.00000000000E+00 0.  1.
         12    1    4    4    0    0  0.14845594209E+02 -0.26965785610E+01 -0.39379392751E+02  0.42171077491E+02  0.00000000000E+00 0. -1.
        -11    1    3    3    0    0  0.52266760804E+01 -0.45646497484E+02 -0.22509135432E+03  0.22973253724E+03  0.00000000000E+00 0. -1.
         11    1    3    3    0    0 -0.51935612563E+01  0.33647714202E+02 -0.41573295740E+02  0.53735283271E+02  0.00000000000E+00 0.  1.
          1    1    1    2  501    0  0.85989621247E+01 -0.29336673255E+02 -0.85191065647E+02  0.90510221596E+02  0.00000000000E+00 0. -1.
<scales pt_clust_5="13000.00000" pt_clust_6="13000.00000" pt_clust_7="13000.00000" pt_clust_8="13000.00000" pt_clust_9="30.57096"></scales>
<clustering>
<clus scale="   30.571">  1  9  2 -1</clus>
<clus scale="   81.243">  5  6 -1 -1</clus>
<clus scale="   83.147">  1  5  2 -1</clus>
<clus scale="   95.394">  7  8 -1 -1</clus>
<clus scale="   30.571">  1  5  2 -1</clus>
</clustering>
</event>
<event>
 9    2  0.4883225E-005  0.1178594E+03  0.7546771E-02  0.1250302E+00
         21   -1    0    0  501  502  0.00000000000E+00  0.00000000000E+00  0.11376078434E+03  0.11376078434E+03  0.00000000000E+00 0. -1.
         -3   -1    0    0    0  501 -0.00000000000E+00 -0.00000000000E+00 -0.25580614642E+03  0.25580614642E+03  0.00000000000E+00 0.  1.
         23    2    1    2    0    0 -0.48860169908E+02  0.49685078565E+02 -0.84528848328E+02  0.14102713989E+03  0.88812188076E+02 0.  0.
         24    2    1    2    0    0  0.10314331005E+03 -0.29617559306E+02  0.17788954376E+02  0.13356464590E+03  0.77506938456E+02 0.  0.
        -11    1    4    4    0    0  0.92704744566E+02 -0.11822725337E+02 -0.15172506656E+02  0.94679202878E+02  0.00000000000E+00 0.  1.
         12    1    4    4    0    0  0.10438565481E+02 -0.17794833969E+02  0.32961461032E+02  0.38885443017E+02  0.00000000000E+00 0. -1.
        -13    1    3    3    0    0  0.15555877482E+02  0.40203010960E+02 -0.54053114564E+02  0.69137591863E+02  0.00000000000E+00 0.  1.
         13    1    3    3    0    0 -0.64416047390E+02  0.94820676049E+01 -0.30475733764E+02  0.71889548029E+02  0.00000000000E+00 0. -1.
         -4    1    1    2    0  502 -0.54283140139E+02 -0.20067519259E+02 -0.75305468131E+02  0.94975144974E+02  0.00000000000E+00 0.  1.
<scales pt_clust_5="13000.00000" pt_clust_6="13000.00000" pt_clust_7="13000.00000" pt_clust_8="13000.00000" pt_clust_9="57.87372"></scales>
<clustering>
<clus scale="   57.874">  1  9  2 -1</clus>
<clus scale="   77.507">  5  6 -1 -1</clus>
<clus scale="   88.812">  7  8 -1 -1</clus>
<clus scale="  109.593">  1  5  2 -1</clus>
<clus scale="   57.874">  1  5  2 -1</clus>
</clustering>
</event>
<event>
 9    2  0.4883225E-005  0.1782219E+03  0.7546771E-02  0.1185544E+00
          2   -1    0    0  502    0 -0.00000000000E+00  0.00000000000E+00  0.45922173790E+03  0.45922173790E+03  0.00000000000E+00 0. -1.
         21   -1    0    0  501  502  0.00000000000E+00 -0.00000000000E+00 -0.20603980290E+03  0.20603980290E+03  0.00000000000E+00 0. -1.
         24    2    1    2    0    0  0.56614236365E+02 -0.75838652383E+02  0.25453998911E+03  0.28320942510E+03  0.80375988042E+02 0.  0.
         23    2    1    2    0    0  0.99372928542E+02  0.12032329373E+03 -0.83658122743E+02  0.20016154357E+03  0.93344994943E+02 0.  0.
        -13    1    3    3    0    0 -0.79543563005E+01 -0.44702907097E+02  0.55815087794E+02  0.71950995215E+02  0.00000000000E+00 0.  1.
         14    1    3    3    0    0  0.64568592665E+02 -0.31135745286E+02  0.19872490131E+03  0.21125842988E+03  0.00000000000E+00 0. -1.
        -11    1    4    4    0    0  0.70776630060E+02  0.10100906947E+03 -0.10292305945E+03  0.16064034252E+03  0.00000000000E+00 0. -1.
         11    1    4    4    0    0  0.28596298481E+02  0.19314224258E+02  0.19264936710E+02  0.39521201044E+02  0.00000000000E+00 0.  1.
          1    1    1    2  501    0 -0.15598716491E+03 -0.44484641350E+02  0.82300068636E+02  0.18189057213E+03  0.00000000000E+00 0. -1.
<scales pt_clust_5="13000.00000" pt_clust_6="13000.00000" pt_clust_7="13000.00000" pt_clust_8="13000.00000" pt_clust_9="151.82157"></scales>
<clustering>
<clus scale="   80.376">  5  6 -1 -1</clus>
<clus scale="   93.345">  7  8 -1 -1</clus>
<clus scale="  124.165">  1  5  2 -1</clus>
<clus scale="  151.822">  2  9  1 -1</clus>
<clus scale="  151.822">  2  5  1 -1</clus>
</clustering>
</event>
<event>
 9    2  0.4883225E-005  0.1049950E+03  0.7546771E-02  0.1273776E+00
         21   -1    0    0  501  502  0.00000000000E+00  0.00000000000E+00  0.18199712291E+03  0.18199712291E+03  0.00000000000E+00 0. -1.
          4   -1    0    0  502    0 -0.00000000000E+00 -0.00000000000E+00 -0.11936520414E+03  0.11936520414E+03  0.00000000000E+00 0. -1.
         23    2    1    2    0    0 -0.27651699564E+02  0.50110155492E+02 -0.36840877520E+02  0.11205328120E+03  0.89011479034E+02 0.  0.
         24    2    1    2    0    0  0.67528580156E+02 -0.13521969954E+02  0.55534438017E+02  0.11959936033E+03  0.80479689217E+02 0.  0.
        -11    1    4    4    0    0  0.81169741905E+02 -0.26289618051E+02  0.36110723608E+02  0.92648018746E+02  0.00000000000E+00 0.  1.
         12    1    4    4    0    0 -0.13641161749E+02  0.12767648097E+02  0.19423714409E+02  0.26951341585E+02  0.00000000000E+00 0. -1.
        -11    1    3    3    0    0 -0.18770016002E+02 -0.24316808691E+02 -0.80186066889E+01  0.31747735964E+02  0.00000000000E+00 0.  1.
         11    1    3    3    0    0 -0.88816835619E+01  0.74426964183E+02 -0.28822270831E+02  0.80305545240E+02  0.00000000000E+00 0. -1.
          3    1    1    2  501    0 -0.39876880592E+02 -0.36588185538E+02  0.43938358269E+02  0.69709685511E+02  0.00000000000E+00 0. -1.
<scales pt_clust_5="13000.00000" pt_clust_6="13000.00000" pt_clust_7="13000.00000" pt_clust_8="13000.00000" pt_clust_9="54.11895"></scales>
<clustering>
<clus scale="   54.119">  1  9  2 -1</clus>
<clus scale="   80.480">  5  6 -1 -1</clus>
<clus scale="   89.011">  7  8 -1 -1</clus>
<clus scale="   97.867">  1  5  2 -1</clus>
<clus scale="   54.119">  1  5  2 -1</clus>
</clustering>
</event>
<event>
 9    2  0.4883225E-005  0.2108111E+03  0.7546771E-02  0.1140925E+00
         21   -1    0    0  501  502  0.00000000000E+00  0.00000000000E+00  0.22390055652E+03  0.22390055652E+03  0.00000000000E+00 0. -1.
         -1   -1    0    0    0  501 -0.00000000000E+00 -0.00000000000E+00 -0.11671505155E+03  0.11671505155E+03  0.00000000000E+00 0.  1.
         24    2    1    2    0    0 -0.96296912399E+01  0.91342414217E+02  0.14736606171E+02  0.12324819999E+03  0.80850378171E+02 0.  0.
         23    2    1    2    0    0 -0.88520947790E+01  0.17887716380E+02  0.38677422112E+02  0.94224525421E+02  0.83570259245E+02 0.  0.
        -13    1    3    3    0    0 -0.12835889300E+02  0.27536431954E+02 -0.31974487303E+02  0.44106495861E+02  0.00000000000E+00 0.  1.
         14    1    3    3    0    0  0.32061980601E+01  0.63805982263E+02  0.46711093473E+02  0.79141704127E+02  0.00000000000E+00 0. -1.
        -11    1    4    4    0    0  0.34480848308E+02  0.13795368760E+02  0.34169786852E+02  0.50465982927E+02  0.00000000000E+00 0.  1.
         11    1    4    4    0    0 -0.43332943087E+02  0.40923476203E+01  0.45076352604E+01  0.43758542494E+02  0.00000000000E+00 0. -1.
         -2    1    1    2    0  502  0.18481786019E+02 -0.10923013060E+03  0.53771476688E+02  0.12314288266E+03  0.00000000000E+00 0.  1.
<scales pt_clust_5="13000.00000" pt_clust_6="13000.00000" pt_clust_7="13000.00000" pt_clust_8="13000.00000" pt_clust_9="110.78266"></scales>
<clustering>
<clus scale="   80.850">  5  6 -1 -1</clus>
<clus scale="   83.570">  7  8 -1 -1</clus>
<clus scale="   85.188">  5  7 -1 -1</clus>
<clus scale="  110.783">  1  9  2 -1</clus>
<clus scale="  110.783">  1  5  2 -1</clus>
</clustering>
</event>
<event>
 9    2  0.4883225E-005  0.1315088E+03  0.7546771E-02  0.1227847E+00
         21   -1    0    0  501  502  0.00000000000E+00  0.00000000000E+00  0.11178875615E+03  0.11178875615E+03  0.00000000000E+00 0.  1.
          2   -1    0    0  502    0 -0.00000000000E+00 -0.00000000000E+00 -0.39810880037E+03  0.39810880037E+03  0.00000000000E+00 0. -1.
         24    2    1    2    0    0  0.90385805878E+02  0.85086110342E+01 -0.21862295892E+03  0.25014267227E+03  0.80829251873E+02 0.  0.
         23    2    1    2    0    0 -0.10320856331E+03  0.21853802762E+02 -0.12912774804E+03  0.19004100038E+03  0.91170226923E+02 0.  0.
        -11    1    3    3    0    0  0.29046777577E+01 -0.23219080686E+02 -0.19927075267E+02  0.30735178371E+02  0.00000000000E+00 0.  1.
         12    1    3    3    0    0  0.87481128120E+02  0.31727691721E+02 -0.19869588366E+03  0.21940749390E+03  0.00000000000E+00 0. -1.
        -13    1    4    4    0    0 -0.87824134676E+02  0.38452869407E+02 -0.50782321991E+02  0.10849214729E+03  0.00000000000E+00 0.  1.
         13    1    4    4    0    0 -0.15384428636E+02 -0.16599066645E+02 -0.78345426049E+02  0.81548853092E+02  0.00000000000E+00 0. -1.
          1    1    1    2  501    0  0.12822757434E+02 -0.30362413796E+02  0.61430662740E+02  0.69713883871E+02  0.00000000000E+00 0. -1.
<scales pt_clust_5="13000.00000" pt_clust_6="13000.00000" pt_clust_7="13000.00000" pt_clust_8="13000.00000" pt_clust_9="32.95905"></scales>
<clustering>
<clus scale="   32.959">  1  9  2 -1</clus>
<clus scale="   80.829">  5  6 -1 -1</clus>
<clus scale="   91.170">  7  8 -1 -1</clus>
<clus scale="  124.563">  2  5  1 -1</clus>
<clus scale="   32.959">  1  5  2 -1</clus>
</clustering>
</event>
<event>
 9    2  0.4883225E-005  0.1125553E+03  0.7546771E-02  0.1259678E+00
         21   -1    0    0  501  502  0.00000000000E+00  0.00000000000E+00  0.11102978470E+03  0.11102978470E+03  0.00000000000E+00 0. -1.
          4   -1    0    0  502    0 -0.00000000000E+00 -0.00000000000E+00 -0.39122793733E+03  0.39122793733E+03  0.00000000000E+00 0. -1.
         23    2    1    2    0    0  0.37051011979E+02  0.72866584846E+02 -0.26257763524E+03  0.28992083349E+03  0.91786483142E+02 0.  0.
         24    2    1    2    0    0 -0.38514513389E+02 -0.23845660752E+02 -0.86812145774E+02  0.12752725304E+03  0.81699867421E+02 0.  0.
        -13    1    4    4    0    0 -0.92540474494E+01 -0.38797319822E+02 -0.60571806492E+01  0.40343014971E+02  0.00000000000E+00 0.  1.
         14    1    4    4    0    0 -0.29260465940E+02  0.14951659070E+02 -0.80754965125E+02  0.87184238072E+02  0.00000000000E+00 0. -1.
        -13    1    3    3    0    0 -0.23813050017E+02  0.28792500915E+02 -0.14987997317E+03  0.15446707034E+03  0.00000000000E+00 0.  1.
         13    1    3    3    0    0  0.60864061996E+02  0.44074083931E+02 -0.11269766207E+03  0.13545376315E+03  0.00000000000E+00 0. -1.
          3    1    1    2  501    0  0.14635014104E+01 -0.49020924094E+02  0.69191628380E+02  0.84809635498E+02  0.00000000000E+00 0. -1.
<scales pt_clust_5="13000.00000" pt_clust_6="13000.00000" pt_clust_7="13000.00000" pt_clust_8="13000.00000" pt_clust_9="49.04277"></scales>
<clustering>
<clus scale="   49.043">  1  9  2 -1</clus>
<clus scale="   81.700">  5  6 -1 -1</clus>
<clus scale="   91.786">  7  8 -1 -1</clus>
<clus scale="  104.493">  1  5  2 -1</clus>
<clus scale="   49.043">  1  5  2 -1</clus>
</clustering>
</event>
<event>
 9    2  0.4883225E-005  0.1205125E+03  0.7546771E-02  0.1253108E+00
         21   -1    0    0  501  502  0.00000000000E+00  0.00000000000E+00  0.81337480164E+02  0.81337480164E+02  0.00000000000E+00 0. -1.
          2   -1    0    0  502    0 -0.00000000000E+00 -0.00000000000E+00 -0.52342328849E+03  0.52342328849E+03  0.00000000000E+00 0. -1.
         24    2    1    2    0    0  0.15684180184E+02 -0.52903777198E+02 -0.30769449702E+03  0.32260372217E+03  0.79702289240E+02 0.  0.
         23    2    1    2    0    0  0.54575851138E+02 -0.37756541764E+02 -0.95179871124E+01  0.11260141393E+03  0.90467708977E+02 0.  0.
        -13    1    3    3    0    0  0.39281389583E+02 -0.58827401265E+00 -0.11353638509E+03  0.12014110193E+03  0.00000000000E+00 0.  1.
         14    1    3    3    0    0 -0.23597209398E+02 -0.52315503185E+02 -0.19415811193E+03  0.20246262023E+03  0.00000000000E+00 0. -1.
        -13    1    4    4    0    0  0.64187554028E+02 -0.18289014834E+02  0.25459697313E+02  0.71433369954E+02  0.00000000000E+00 0. -1.
         13    1    4    4    0    0 -0.96117028906E+01 -0.19467526931E+02 -0.34977684426E+02  0.41168043979E+02  0.00000000000E+00 0.  1.
          1    1    1    2  501    0 -0.70260031322E+02  0.90660318962E+02 -0.12487332420E+03  0.16955563256E+03  0.00000000000E+00 0. -1.
<scales pt_clust_5="13000.00000" pt_clust_6="13000.00000" pt_clust_7="13000.00000" pt_clust_8="13000.00000" pt_clust_9="79.61701"></scales>
<clustering>
<clus scale="   79.702">  5  6 -1 -1</clus>
<clus scale="   90.468">  7  8 -1 -1</clus>
<clus scale="   96.939">  2  5  1 -1</clus>
<clus scale="   79.617">  1  9  2 -1</clus>
<clus scale="   79.617">  1  5  2 -1</clus>
</clustering>
</event>
<event>
 9    2  0.4883225E-005  0.2123568E+03  0.7546771E-02  0.1140435E+00
          2   -1    0    0  502    0 -0.00000000000E+00  0.00000000000E+00  0.26568012680E+03  0.26568012680E+03  0.00000000000E+00 0. -1.
         21   -1    0    0  501  502  0.00000000000E+00 -0.00000000000E+00 -0.27499906239E+03  0.27499906239E+03  0.00000000000E+00 0. -1.
         24    2    1    2    0    0  0.14130615662E+03 -0.75708192757E+02 -0.45898553977E+02  0.18498893182E+03  0.80094115201E+02 0.  0.
         23    2    1    2    0    0 -0.21134355096E+03  0.98827451586E+02 -0.35822439489E+02  0.25233748905E+03  0.89207620137E+02 0.  0.
        -13    1    3    3    0    0  0.77513041292E+02 -0.55634466942E+01  0.40583228336E+01  0.77818336488E+02  0.00000000000E+00 0.  1.
         14    1    3    3    0    0  0.63793115327E+02 -0.70144746063E+02 -0.49956876811E+02  0.10717059533E+03  0.00000000000E+00 0. -1.
        -11    1    4    4    0    0 -0.82770389828E+02  0.70460607022E+02  0.17844929147E+02  0.11015478233E+03  0.00000000000E+00 0.  1.
         11    1    4    4    0    0 -0.12857316113E+03  0.28366844564E+02 -0.53667368636E+02  0.14218270672E+03  0.00000000000E+00 0. -1.
          1    1    1    2  501    0  0.70037394341E+02 -0.23119258829E+02  0.72402057876E+02  0.10335276832E+03  0.00000000000E+00 0. -1.
<scales pt_clust_5="13000.00000" pt_clust_6="13000.00000" pt_clust_7="13000.00000" pt_clust_8="13000.00000" pt_clust_9="73.75461"></scales>
<clustering>
<clus scale="   73.755">  2  9  1 -1</clus>
<clus scale="   80.094">  5  6 -1 -1</clus>
<clus scale="   89.208">  7  8 -1 -1</clus>
<clus scale="  208.692">  1  5  2 -1</clus>
<clus scale="   73.755">  2  5  1 -1</clus>
</clustering>
</event>
<event>
 9    2  0.4883225E-005  0.1158438E+03  0.7546771E-02  0.1254176E+00
         21   -1    0    0  501  502  0.00000000000E+00  0.00000000000E+00  0.29926781595E+02  0.29926781595E+02  0.00000000000E+00 0.  1.
          2   -1    0    0  502    0 -0.00000000000E+00 -0.00000000000E+00 -0.89982921744E+03  0.89982921744E+03  0.00000000000E+00 0. -1.
         24    2    1    2    0    0 -0.53282070957E+02  0.32160938041E+02 -0.53085902430E+03  0.54042168242E+03  0.79818457299E+02 0.  0.
         23    2    1    2    0    0  0.68486603745E+02 -0.79055431622E+02 -0.27857269714E+03  0.31131522507E+03  0.91510904296E+02 0.  0.
        -13    1    3    3    0    0 -0.24909010962E+02  0.42117601242E+02 -0.13808843201E+03  0.14650176182E+03  0.00000000000E+00 0.  1.
         14    1    3    3    0    0 -0.28373059995E+02 -0.99566632006E+01 -0.39277059230E+03  0.39391992060E+03  0.00000000000E+00 0. -1.
        -11    1    4    4    0    0  0.25254164132E+02 -0.89542064647E+02 -0.20848405908E+03  0.22830058484E+03  0.00000000000E+00 0. -1.
         11    1    4    4    0    0  0.43232439613E+02  0.10486633025E+02 -0.70088638061E+02  0.83014640229E+02  0.00000000000E+00 0.  1.
          1    1    1    2  501    0 -0.15204532788E+02  0.46894493580E+02 -0.60470714400E+02  0.78019091545E+02  0.00000000000E+00 0. -1.
<scales pt_clust_5="13000.00000" pt_clust_6="13000.00000" pt_clust_7="13000.00000" pt_clust_8="13000.00000" pt_clust_9="49.29778"></scales>
<clustering>
<clus scale="   49.298">  1  9  2 -1</clus>
<clus scale="   79.818">  5  6 -1 -1</clus>
<clus scale="   91.511">  7  8 -1 -1</clus>
<clus scale="  106.848">  2  5  1 -1</clus>
<clus scale="   49.298">  1  5  2 -1</clus>
</clustering>
</event>
<event>
 9    2  0.4883225E-005  0.1240713E+03  0.7546771E-02  0.1246670E+00
         21   -1    0    0  501  502  0.00000000000E+00  0.00000000000E+00  0.27957676401E+03  0.27957676401E+03  0.00000000000E+00 0.  1.
          2   -1    0    0  502    0 -0.00000000000E+00 -0.00000000000E+00 -0.12722598054E+03  0.12722598054E+03  0.00000000000E+00 0. -1.
         23    2    1    2    0    0 -0.79099410237E+02 -0.12511380513E+01 -0.29373264267E+02  0.13913970461E+03  0.11062904998E+03 0.  0.
         24    2    1    2    0    0  0.31345347846E+02  0.20760739812E+02  0.15105288037E+02  0.93241464095E+02  0.83977745568E+02 0.  0.
        -11    1    4    4    0    0  0.22934043534E+02 -0.19718031231E+02 -0.22229323622E+02  0.37535502356E+02  0.00000000000E+00 0.  1.
         12    1    4    4    0    0  0.84113043124E+01  0.40478771044E+02  0.37334611660E+02  0.55705961739E+02  0.00000000000E+00 0. -1.
        -11    1    3    3    0    0 -0.21019882321E+02 -0.48219598744E+02  0.11714004574E+02  0.53890472804E+02  0.00000000000E+00 0.  1.
         11    1    3    3    0    0 -0.58079527915E+02  0.46968460693E+02 -0.41087268841E+02  0.85249231806E+02  0.00000000000E+00 0. -1.
          1    1    1    2  501    0  0.47754062391E+02 -0.19509601761E+02  0.16661875970E+03  0.17442157585E+03  0.00000000000E+00 0. -1.
<scales pt_clust_5="13000.00000" pt_clust_6="13000.00000" pt_clust_7="13000.00000" pt_clust_8="13000.00000" pt_clust_9="51.58561"></scales>
<clustering>
<clus scale="   51.586">  1  9  2 -1</clus>
<clus scale="   83.978">  5  6 -1 -1</clus>
<clus scale="  101.031">  1  5  2 -1</clus>
<clus scale="  110.629">  7  8 -1 -1</clus>
<clus scale="   51.586">  1  5  2 -1</clus>
</clustering>
</event>
<event>
 9    2  0.4883225E-005  0.9880455E+02  0.7546771E-02  0.1288997E+00
         -1   -1    0    0    0  501 -0.00000000000E+00  0.00000000000E+00  0.23406886960E+02  0.23406886960E+02  0.00000000000E+00 0.  1.
         21   -1    0    0  501  502  0.00000000000E+00 -0.00000000000E+00 -0.61619793786E+03  0.61619793786E+03  0.00000000000E+00 0.  1.
         23    2    1    2    0    0 -0.30986694500E+02  0.43111610776E+02 -0.18522907479E+03  0.21302116538E+03  0.90826320710E+02 0.  0.
         24    2    1    2    0    0  0.54879490342E+00 -0.26760368750E+02 -0.20819621458E+03  0.22424598198E+03  0.78893460807E+02 0.  0.
        -11    1    4    4    0    0  0.32180559251E+02 -0.12501686978E+02 -0.41526789300E+02  0.54003285091E+02  0.00000000000E+00 0.  1.
         12    1    4    4    0    0 -0.31631764348E+02 -0.14258681772E+02 -0.16666942528E+03  0.17024269689E+03  0.00000000000E+00 0. -1.
        -11    1    3    3    0    0 -0.52238762008E+02  0.20547988463E+02 -0.52979210599E+02  0.77187465574E+02  0.00000000000E+00 0.  1.
         11    1    3    3    0    0  0.21252067509E+02  0.22563622314E+02 -0.13224986419E+03  0.13583369980E+03  0.00000000000E+00 0. -1.
         -2    1    1    2    0  502  0.30437899596E+02 -0.16351242026E+02 -0.19936576153E+03  0.20233767746E+03  0.00000000000E+00 0.  1.
<scales pt_clust_5="13000.00000" pt_clust_6="13000.00000" pt_clust_7="13000.00000" pt_clust_8="13000.00000" pt_clust_9="34.55183"></scales>
<clustering>
<clus scale="   34.552">  2  9  1 -1</clus>
<clus scale="   78.893">  5  6 -1 -1</clus>
<clus scale="   87.961">  2  5  1 -1</clus>
<clus scale="   90.826">  7  8 -1 -1</clus>
<clus scale="   34.552">  2  5  1 -1</clus>
</clustering>
</event>
<event>
 9    2  0.4883225E-005  0.9662032E+02  0.7546771E-02  0.1290503E+00
          2   -1    0    0  502    0 -0.00000000000E+00  0.00000000000E+00  0.29240922843E+03  0.29240922843E+03  0.00000000000E+00 0. -1.
         21   -1    0    0  501  502  0.00000000000E+00 -0.00000000000E+00 -0.78858275622E+02  0.78858275622E+02  0.00000000000E+00 0.  1.
         23    2    1    2    0    0  0.54984810711E+01 -0.19173463933E+02  0.97392845777E+02  0.13561508112E+03  0.92240060734E+02 0.  0.
         24    2    1    2    0    0 -0.30947995639E+02  0.47105796399E+02 -0.99793405893E+01  0.10397650000E+03  0.86803172899E+02 0.  0.
        -13    1    4    4    0    0 -0.32952517452E+02 -0.18518389457E+02 -0.22168181321E+01  0.37864408580E+02  0.00000000000E+00 0.  1.
         14    1    4    4    0    0  0.20045218129E+01  0.65624185857E+02 -0.77625224573E+01  0.66112091420E+02  0.00000000000E+00 0. -1.
        -13    1    3    3    0    0 -0.33912367070E+02 -0.18194319182E+02  0.86561704176E+02  0.94731254191E+02  0.00000000000E+00 0. -1.
         13    1    3    3    0    0  0.39410848141E+02 -0.97914475107E+00  0.10831141601E+02  0.40883826924E+02  0.00000000000E+00 0.  1.
          1    1    1    2  501    0  0.25449514568E+02 -0.27932332467E+02  0.12613744762E+03  0.13167592293E+03  0.00000000000E+00 0. -1.
<scales pt_clust_5="13000.00000" pt_clust_6="13000.00000" pt_clust_7="13000.00000" pt_clust_8="13000.00000" pt_clust_9="37.78749"></scales>
<clustering>
<clus scale="   37.787">  2  9  1 -1</clus>
<clus scale="   86.803">  5  6 -1 -1</clus>
<clus scale="   91.444">  2  5  1 -1</clus>
<clus scale="   92.240">  7  8 -1 -1</clus>
<clus scale="   37.787">  2  5  1 -1</clus>
</clustering>
</event>
<event>
 9    2  0.4883225E-005  0.1390402E+03  0.7546771E-02  0.1217965E+00
         21   -1    0    0  501  502  0.00000000000E+00  0.00000000000E+00  0.54789952749E+02  0.54789952749E+02  0.00000000000E+00 0. -1.
          2   -1    0    0  502    0 -0.00000000000E+00 -0.00000000000E+00 -0.65778284369E+03  0.65778284369E+03  0.00000000000E+00 0. -1.
         23    2    1    2    0    0 -0.53812596415E+01  0.10866938707E+03 -0.38398711863E+03  0.41036582238E+03  0.95477784140E+02 0.  0.
         24    2    1    2    0    0 -0.51064225315E+02 -0.79171605080E+02 -0.76062146548E+02  0.14571706365E+03  0.81069811534E+02 0.  0.
        -11    1    4    4    0    0 -0.10967498242E+02 -0.42901701721E+02 -0.80072857086E+02  0.91501390537E+02  0.00000000000E+00 0.  1.
         12    1    4    4    0    0 -0.40096727073E+02 -0.36269903359E+02  0.40107105387E+01  0.54215673109E+02  0.00000000000E+00 0. -1.
        -13    1    3    3    0    0  0.25696708642E+02  0.25549979096E+02 -0.35391197147E+02  0.50652335606E+02  0.00000000000E+00 0.  1.
         13    1    3    3    0    0 -0.31077968283E+02  0.83119407971E+02 -0.34859592148E+03  0.35971348677E+03  0.00000000000E+00 0. -1.
          1    1    1    2  501    0  0.56445484957E+02 -0.29497781987E+02 -0.14294362577E+03  0.15648991042E+03  0.00000000000E+00 0. -1.
<scales pt_clust_5="13000.00000" pt_clust_6="13000.00000" pt_clust_7="13000.00000" pt_clust_8="13000.00000" pt_clust_9="63.68843"></scales>
<clustering>
<clus scale="   63.688">  1  9  2 -1</clus>
<clus scale="   81.070">  5  6 -1 -1</clus>
<clus scale="   95.478">  7  8 -1 -1</clus>
<clus scale="  129.570">  1  5  2 -1</clus>
<clus scale="   63.688">  1  5  2 -1</clus>
</clustering>
</event>
<event>
 9    2  0.4883225E-005  0.1168034E+03  0.7546771E-02  0.1250417E+00
         -1   -1    0    0    0  501 -0.00000000000E+00  0.00000000000E+00  0.30686944247E+03  0.30686944247E+03  0.00000000000E+00 0.  1.
         21   -1    0    0  501  502  0.00000000000E+00 -0.00000000000E+00 -0.10529812025E+03  0.10529812025E+03  0.00000000000E+00 0. -1.
         23    2    1    2    0    0  0.51808710259E+02 -0.52235498995E+02  0.20364895317E+03  0.23425143094E+03  0.89376434000E+02 0.  0.
         24    2    1    2    0    0 -0.27134215113E+02  0.87853338558E+02 -0.28184625461E+02  0.12732921284E+03  0.83449868806E+02 0.  0.
        -13    1    4    4    0    0  0.20264341289E+02  0.69466051959E+02 -0.86971838637E+01  0.72882212575E+02  0.00000000000E+00 0.  1.
         14    1    4    4    0    0 -0.47398556403E+02  0.18387286599E+02 -0.19487441597E+02  0.54447000262E+02  0.00000000000E+00 0. -1.
        -11    1    3    3    0    0  0.21066414315E+02 -0.70623428496E+02  0.97492515956E+02  0.12221396455E+03  0.00000000000E+00 0.  1.
         11    1    3    3    0    0  0.30742295945E+02  0.18387929502E+02  0.10615643722E+03  0.11203746638E+03  0.00000000000E+00 0. -1.
         -2    1    1    2    0  502 -0.24674495146E+02 -0.35617839564E+02  0.26106994510E+02  0.50586918944E+02  0.00000000000E+00 0.  1.
<scales pt_clust_5="13000.00000" pt_clust_6="13000.00000" pt_clust_7="13000.00000" pt_clust_8="13000.00000" pt_clust_9="43.32970"></scales>
<clustering>
<clus scale="   43.330">  2  9  1 -1</clus>
<clus scale="   83.450">  5  6 -1 -1</clus>
<clus scale="   89.376">  7  8 -1 -1</clus>
<clus scale="  112.333">  2  5  1 -1</clus>
<clus scale="   43.330">  2  5  1 -1</clus>
</clustering>
</event>
<event>
 9    2  0.4883225E-005  0.1149646E+03  0.7546771E-02  0.1254654E+00
         -3   -1    0    0    0  501 -0.00000000000E+00  0.00000000000E+00  0.59215977449E+02  0.59215977449E+02  0.00000000000E+00 0.  1.
         21   -1    0    0  501  502  0.00000000000E+00 -0.00000000000E+00 -0.73166291261E+03  0.73166291261E+03  0.00000000000E+00 0.  1.
         24    2    1    2    0    0  0.22638258687E+02  0.43375156074E+02 -0.74316643376E+02  0.11957693595E+03  0.79886076428E+02 0.  0.
         23    2    1    2    0    0 -0.77402908679E+02 -0.80898727587E+02 -0.11434955026E+03  0.18298751527E+03  0.88728781707E+02 0.  0.
        -13    1    3    3    0    0  0.10164837099E+02  0.56742564676E+02 -0.81590299469E+02  0.99900047681E+02  0.00000000000E+00 0.  1.
         14    1    3    3    0    0  0.12473421589E+02 -0.13367408602E+02  0.72736560930E+01  0.19676888266E+02  0.00000000000E+00 0. -1.
        -13    1    4    4    0    0 -0.56023892421E+02 -0.18286473974E+02 -0.10511616834E+02  0.59862891184E+02  0.00000000000E+00 0. -1.
         13    1    4    4    0    0 -0.21379016258E+02 -0.62612253613E+02 -0.10383793342E+03  0.12312462408E+03  0.00000000000E+00 0.  1.
         -4    1    1    2    0  502  0.54764649991E+02  0.37523571513E+02 -0.48378074153E+03  0.48831443884E+03  0.00000000000E+00 0.  1.
<scales pt_clust_5="13000.00000" pt_clust_6="13000.00000" pt_clust_7="13000.00000" pt_clust_8="13000.00000" pt_clust_9="66.38664"></scales>
<clustering>
<clus scale="   66.387">  2  9  1 -1</clus>
<clus scale="   79.886">  5  6 -1 -1</clus>
<clus scale="   88.729">  7  8 -1 -1</clus>
<clus scale="  108.286">  1  5  2 -1</clus>
<clus scale="   66.387">  2  5  1 -1</clus>
</clustering>
</event>
<event>
 9    2  0.4883225E-005  0.9311704E+02  0.7546771E-02  0.1312677E+00
          2   -1    0    0  502    0 -0.00000000000E+00  0.00000000000E+00  0.17694428974E+03  0.17694428974E+03  0.00000000000E+00 0. -1.
         21   -1    0    0  501  502  0.00000000000E+00 -0.00000000000E+00 -0.10263704145E+03  0.10263704145E+03  0.00000000000E+00 0.  1.
         24    2    1    2    0    0 -0.28441363498E+02 -0.12461015613E+02  0.98029150675E+02  0.12141932755E+03  0.64565862917E+02 0.  0.
         23    2    1    2    0    0 -0.31214415134E+02  0.29178456347E+01 -0.15529775380E+02  0.97194840652E+02  0.90679708814E+02 0.  0.
        -11    1    3    3    0    0  0.57078780416E+01 -0.31658103209E+02  0.38710961434E+02  0.50332433934E+02  0.00000000000E+00 0.  1.
         12    1    3    3    0    0 -0.34149241539E+02  0.19197087596E+02  0.59318189241E+02  0.71086893621E+02  0.00000000000E+00 0. -1.
        -13    1    4    4    0    0 -0.24142830284E+02 -0.38980766959E+02  0.10932961700E+02  0.47137098960E+02  0.00000000000E+00 0. -1.
         13    1    4    4    0    0 -0.70715848506E+01  0.41898612593E+02 -0.26462737080E+02  0.50057741692E+02  0.00000000000E+00 0.  1.
          1    1    1    2  501    0  0.59655778632E+02  0.95431699785E+01 -0.81921270021E+01  0.60967162983E+02  0.00000000000E+00 0. -1.
<scales pt_clust_5="13000.00000" pt_clust_6="13000.00000" pt_clust_7="13000.00000" pt_clust_8="13000.00000" pt_clust_9="60.41427"></scales>
<clustering>
<clus scale="   60.414">  2  9  1 -1</clus>
<clus scale="   64.566">  5  6 -1 -1</clus>
<clus scale="   67.946">  1  5  2 -1</clus>
<clus scale="   90.680">  7  8 -1 -1</clus>
<clus scale="   60.414">  2  5  1 -1</clus>
</clustering>
</event>
<event>
 9    2  0.4883225E-005  0.9147304E+02  0.7546771E-02  0.1304757E+00
         21   -1    0    0  501  502  0.00000000000E+00  0.00000000000E+00  0.76371860380E+02  0.76371860380E+02  0.00000000000E+00 0.  1.
          2   -1    0    0  502    0 -0.00000000000E+00 -0.00000000000E+00 -0.58185369773E+03  0.58185369773E+03  0.00000000000E+00 0. -1.
         24    2    1    2    0    0  0.96251620239E+01  0.11411880279E+02 -0.49125040134E+03  0.49826759438E+03  0.81980266154E+02 0.  0.
         23    2    1    2    0    0  0.28555766619E+02  0.99157923676E+00 -0.48848580760E+02  0.10694875857E+03  0.90749314493E+02 0.  0.
        -11    1    3    3    0    0 -0.31912872305E+02 -0.11099034955E+02 -0.14974370197E+03  0.15350829383E+03  0.00000000000E+00 0.  1.
         12    1    3    3    0    0  0.41538034329E+02  0.22510915234E+02 -0.34150669937E+03  0.34475930055E+03  0.00000000000E+00 0. -1.
        -11    1    4    4    0    0  0.24781545673E+02  0.29014822411E+02  0.11876612968E+02  0.39962968622E+02  0.00000000000E+00 0. -1.
         11    1    4    4    0    0  0.37742209466E+01 -0.28023243174E+02 -0.60725193729E+02  0.66985789949E+02  0.00000000000E+00 0.  1.
          1    1    1    2  501    0 -0.38180928643E+02 -0.12403459516E+02  0.34617144755E+02  0.53009205154E+02  0.00000000000E+00 0. -1.
<scales pt_clust_5="13000.00000" pt_clust_6="13000.00000" pt_clust_7="13000.00000" pt_clust_8="13000.00000" pt_clust_9="40.14510"></scales>
<clustering>
<clus scale="   40.145">  1  9  2 -1</clus>
<clus scale="   81.980">  5  6 -1 -1</clus>
<clus scale="   82.781">  2  5  1 -1</clus>
<clus scale="   90.749">  7  8 -1 -1</clus>
<clus scale="   40.145">  1  5  2 -1</clus>
</clustering>
</event>
<event>
 9    2  0.4883225E-005  0.1424546E+03  0.7546771E-02  0.1236254E+00
         21   -1    0    0  501  502  0.00000000000E+00  0.00000000000E+00  0.38559050793E+02  0.38559050793E+02  0.00000000000E+00 0.  1.
         -1   -1    0    0    0  501 -0.00000000000E+00 -0.00000000000E+00 -0.73017358859E+03  0.73017358859E+03  0.00000000000E+00 0.  1.
         24    2    1    2    0    0  0.22505871396E+01  0.17955237709E+02 -0.15120855286E+03  0.17221700616E+03  0.80418996823E+02 0.  0.
         23    2    1    2    0    0 -0.62433179137E+02  0.80252001786E+02 -0.31584878715E+03  0.34414182050E+03  0.91295403088E+02 0.  0.
        -13    1    3    3    0    0 -0.19921502788E+02  0.29124762855E+02 -0.24158215249E+02  0.42763739882E+02  0.00000000000E+00 0.  1.
         14    1    3    3    0    0  0.22172089927E+02 -0.11169525146E+02 -0.12705033761E+03  0.12945326628E+03  0.00000000000E+00 0. -1.
        -13    1    4    4    0    0 -0.26697218451E+01  0.42350272826E+02 -0.36513188915E+02  0.55981121710E+02  0.00000000000E+00 0. -1.
         13    1    4    4    0    0 -0.59763457292E+02  0.37901728960E+02 -0.27933559824E+03  0.28816069879E+03  0.00000000000E+00 0.  1.
         -2    1    1    2    0  502  0.60182591998E+02 -0.98207239495E+02 -0.22455719779E+03  0.25237381272E+03  0.00000000000E+00 0.  1.
<scales pt_clust_5="13000.00000" pt_clust_6="13000.00000" pt_clust_7="13000.00000" pt_clust_8="13000.00000" pt_clust_9="109.35472"></scales>
<clustering>
<clus scale="   80.419">  5  6 -1 -1</clus>
<clus scale="   82.430">  2  5  1 -1</clus>
<clus scale="   91.295">  7  8 -1 -1</clus>
<clus scale="  109.355">  1  9  2 -1</clus>
<clus scale="  109.355">  1  5  2 -1</clus>
</clustering>
</event>
<event>
 9    2  0.4883225E-005  0.1300974E+03  0.7546771E-02  0.1230139E+00
         21   -1    0    0  501  502  0.00000000000E+00  0.00000000000E+00  0.94752913099E+02  0.94752913099E+02  0.00000000000E+00 0.  1.
         -3   -1    0    0    0  501 -0.00000000000E+00 -0.00000000000E+00 -0.26341499273E+03  0.26341499273E+03  0.00000000000E+00 0.  1.
         23    2    1    2    0    0  0.55429089407E+02 -0.58771450392E+02 -0.93257036631E+02  0.15323213235E+03  0.90866628476E+02 0.  0.
         24    2    1    2    0    0 -0.10401030637E+03  0.50535270131E+02 -0.63484933960E+02  0.15424003099E+03  0.79923043994E+02 0.  0.
        -11    1    4    4    0    0 -0.92439330961E+02  0.45163952634E+01 -0.48445691991E+02  0.10446249474E+03  0.00000000000E+00 0.  1.
         12    1    4    4    0    0 -0.11570975407E+02  0.46018874868E+02 -0.15039241969E+02  0.49777536249E+02  0.00000000000E+00 0. -1.
        -11    1    3    3    0    0  0.39949007076E+02  0.17579130303E+02 -0.31694690572E+02  0.53939803476E+02  0.00000000000E+00 0. -1.
         11    1    3    3    0    0  0.15480082331E+02 -0.76350580696E+02 -0.61562346060E+02  0.99292328877E+02  0.00000000000E+00 0.  1.
         -4    1    1    2    0  502  0.48581216961E+02  0.82361802608E+01 -0.11920109038E+02  0.50695742486E+02  0.00000000000E+00 0.  1.
<scales pt_clust_5="13000.00000" pt_clust_6="13000.00000" pt_clust_7="13000.00000" pt_clust_8="13000.00000" pt_clust_9="49.27443"></scales>
<clustering>
<clus scale="   49.274">  1  9  2 -1</clus>
<clus scale="   79.923">  5  6 -1 -1</clus>
<clus scale="   90.867">  7  8 -1 -1</clus>
<clus scale="  122.704">  1  5  2 -1</clus>
<clus scale="   49.274">  1  5  2 -1</clus>
</clustering>
</event>
<event>
 9    2  0.4883225E-005  0.3556850E+03  0.7546771E-02  0.1102680E+00
          2   -1    0    0  502    0 -0.00000000000E+00  0.00000000000E+00  0.92508389285E+03  0.92508389285E+03  0.00000000000E+00 0. -1.
         21   -1    0    0  501  502  0.00000000000E+00 -0.00000000000E+00 -0.25814949623E+03  0.25814949623E+03  0.00000000000E+00 0. -1.
         24    2    1    2    0    0 -0.47451604912E+02  0.66156156163E+02  0.10201624627E+03  0.15290835367E+03  0.79657757390E+02 0.  0.
         23    2    1    2    0    0 -0.29412374513E+03  0.40175008188E+02  0.59553737748E+03  0.67127410122E+03  0.88438352931E+02 0.  0.
        -11    1    3    3    0    0 -0.67807611573E+02  0.58884841283E+02  0.68173785806E+02  0.11275177068E+03  0.00000000000E+00 0.  1.
         12    1    3    3    0    0  0.20356006661E+02  0.72713148801E+01  0.33842460467E+02  0.40156582994E+02  0.00000000000E+00 0. -1.
        -13    1    4    4    0    0 -0.25480959145E+03  0.20310992437E+01  0.48191121750E+03  0.54513344679E+03  0.00000000000E+00 0. -1.
         13    1    4    4    0    0 -0.39314153675E+02  0.38143908944E+02  0.11362615998E+03  0.12614065443E+03  0.00000000000E+00 0.  1.
          1    1    1    2  501    0  0.34157535004E+03 -0.10633116435E+03 -0.30619227129E+02  0.35905093418E+03  0.00000000000E+00 0. -1.
<scales pt_clust_5="13000.00000" pt_clust_6="13000.00000" pt_clust_7="13000.00000" pt_clust_8="13000.00000" pt_clust_9="344.51483"></scales>
<clustering>
<clus scale="   79.658">  5  6 -1 -1</clus>
<clus scale="   88.438">  7  8 -1 -1</clus>
<clus scale="  113.902">  1  5  2 -1</clus>
<clus scale="  344.515">  2  9  1 -1</clus>
<clus scale="  344.515">  2  5  1 -1</clus>
</clustering>
</event>
<event>
 9    2  0.4883225E-005  0.1625278E+03  0.7546771E-02  0.1187141E+00
          2   -1    0    0  502    0 -0.00000000000E+00  0.00000000000E+00  0.91903621527E+03  0.91903621527E+03  0.00000000000E+00 0. -1.
         21   -1    0    0  501  502  0.00000000000E+00 -0.00000000000E+00 -0.56377893595E+02  0.56377893595E+02  0.00000000000E+00 0.  1.
         24    2    1    2    0    0  0.11020222062E+03  0.10159228263E+03  0.71009114288E+03  0.73025203312E+03  0.81074529627E+02 0.  0.
         23    2    1    2    0    0 -0.61009130464E+02 -0.61413276707E+02  0.76963233650E+02  0.14641862453E+03  0.89562099796E+02 0.  0.
        -11    1    3    3    0    0  0.65513814319E+02  0.65874944826E+02  0.25159609587E+03  0.26820172199E+03  0.00000000000E+00 0.  1.
         12    1    3    3    0    0  0.44688406303E+02  0.35717337806E+02  0.45849504701E+03  0.46205031112E+03  0.00000000000E+00 0. -1.
        -13    1    4    4    0    0  0.20502392942E+02 -0.86935777128E+01 -0.42241674758E+00  0.22273411182E+02  0.00000000000E+00 0. -1.
         13    1    4    4    0    0 -0.81511523406E+02 -0.52719698994E+02  0.77385650397E+02  0.12414521335E+03  0.00000000000E+00 0.  1.
          1    1    1    2  501    0 -0.49193090158E+02 -0.40179005925E+02  0.75603945140E+02  0.98743451211E+02  0.00000000000E+00 0. -1.
<scales pt_clust_5="13000.00000" pt_clust_6="13000.00000" pt_clust_7="13000.00000" pt_clust_8="13000.00000" pt_clust_9="63.51624"></scales>
<clustering>
<clus scale="   63.516">  2  9  1 -1</clus>
<clus scale="   81.075">  5  6 -1 -1</clus>
<clus scale="   89.562">  7  8 -1 -1</clus>
<clus scale="  158.009">  1  5  2 -1</clus>
<clus scale="   63.516">  2  5  1 -1</clus>
</clustering>
</event>
<event>
 9    2  0.4883225E-005  0.1339832E+03  0.7546771E-02  0.1224331E+00
         21   -1    0    0  501  502  0.00000000000E+00  0.00000000000E+00  0.37864964078E+02  0.37864964078E+02  0.00000000000E+00 0.  1.
          2   -1    0    0  502    0 -0.00000000000E+00 -0.00000000000E+00 -0.96182021563E+03  0.96182021563E+03  0.00000000000E+00 0. -1.
         24    2    1    2    0    0 -0.40362533830E+02 -0.10080045545E+03 -0.67073509843E+03  0.68433418870E+03  0.81472962383E+02 0.  0.
         23    2    1    2    0    0 -0.16913610705E+02  0.66848784307E+02 -0.11985716940E+03  0.16629074100E+03  0.92369038620E+02 0.  0.
        -13    1    3    3    0    0 -0.34253700128E+02 -0.15647501052E+02 -0.93156986793E+02  0.10048076657E+03  0.00000000000E+00 0.  1.
         14    1    3    3    0    0 -0.61088337024E+01 -0.85152954394E+02 -0.57757811164E+03  0.58385342213E+03  0.00000000000E+00 0. -1.
        -13    1    4    4    0    0 -0.44679365939E+02  0.34749393362E+02 -0.24041644653E+02  0.61496071072E+02  0.00000000000E+00 0.  1.
         13    1    4    4    0    0  0.27765755234E+02  0.32099390945E+02 -0.95815524749E+02  0.10479466993E+03  0.00000000000E+00 0. -1.
          1    1    1    2  501    0  0.57276144535E+02  0.33951671139E+02 -0.13336298372E+03  0.14906025001E+03  0.00000000000E+00 0. -1.
<scales pt_clust_5="13000.00000" pt_clust_6="13000.00000" pt_clust_7="13000.00000" pt_clust_8="13000.00000" pt_clust_9="66.58283"></scales>
<clustering>
<clus scale="   66.583">  1  9  2 -1</clus>
<clus scale="   81.473">  5  6 -1 -1</clus>
<clus scale="   92.369">  7  8 -1 -1</clus>
<clus scale="  126.717">  2  5  1 -1</clus>
<clus scale="   66.583">  1  5  2 -1</clus>
</clustering>
</event>
<event>
 9    2  0.4883225E-005  0.1049739E+03  0.7546771E-02  0.1278820E+00
          2   -1    0    0  502    0 -0.00000000000E+00  0.00000000000E+00  0.65618983544E+03  0.65618983544E+03  0.00000000000E+00 0. -1.
         21   -1    0    0  501  502  0.00000000000E+00 -0.00000000000E+00 -0.23876453970E+03  0.23876453970E+03  0.00000000000E+00 0.  1.
         24    2    1    2    0    0  0.12658176943E+02 -0.35712574622E+02  0.62053854092E+03  0.62684984640E+03  0.80231114454E+02 0.  0.
         23    2    1    2    0    0  0.21558321995E+02  0.73040985890E+02 -0.15281446202E+03  0.19673123769E+03  0.97730103932E+02 0.  0.
        -13    1    3    3    0    0  0.20284029669E+02  0.71116453486E+01  0.47202361493E+02  0.51865983936E+02  0.00000000000E+00 0.  1.
         14    1    3    3    0    0 -0.76258527256E+01 -0.42824219971E+02  0.57333617943E+03  0.57498386246E+03  0.00000000000E+00 0. -1.
        -13    1    4    4    0    0  0.25111180645E+02  0.22575390546E+02 -0.14072061508E+03  0.14471527618E+03  0.00000000000E+00 0.  1.
         13    1    4    4    0    0 -0.35528586500E+01  0.50465595344E+02 -0.12093846939E+02  0.52015961510E+02  0.00000000000E+00 0. -1.
          1    1    1    2  501    0 -0.34216498938E+02 -0.37328411268E+02 -0.50298783162E+02  0.71373291047E+02  0.00000000000E+00 0. -1.
<scales pt_clust_5="13000.00000" pt_clust_6="13000.00000" pt_clust_7="13000.00000" pt_clust_8="13000.00000" pt_clust_9="50.63772"></scales>
<clustering>
<clus scale="   50.638">  2  9  1 -1</clus>
<clus scale="   80.231">  5  6 -1 -1</clus>
<clus scale="   88.912">  1  5  2 -1</clus>
<clus scale="   97.730">  7  8 -1 -1</clus>
<clus scale="   50.638">  2  5  1 -1</clus>
</clustering>
</event>
<event>
 9    2  0.4883225E-005  0.2201924E+03  0.7546771E-02  0.1134629E+00
         21   -1    0    0  501  502  0.00000000000E+00  0.00000000000E+00  0.46243031914E+03  0.46243031914E+03  0.00000000000E+00 0. -1.
          2   -1    0    0  502    0 -0.00000000000E+00 -0.00000000000E+00 -0.41297457284E+03  0.41297457284E+03  0.00000000000E+00 0. -1.
         23    2    1    2    0    0 -0.15637748803E+03  0.14001951306E+03 -0.29388259624E+03  0.37267837875E+03  0.91993536818E+02 0.  0.
         24    2    1    2    0    0  0.12391951881E+03 -0.11867788321E+03  0.35728362282E+02  0.19267347763E+03  0.80037903558E+02 0.  0.
        -13    1    4    4    0    0  0.53115706904E+02 -0.96853802637E+02  0.10271925819E+00  0.11046242780E+03  0.00000000000E+00 0.  1.
         14    1    4    4    0    0  0.70803811902E+02 -0.21824080578E+02  0.35625643024E+02  0.82211049828E+02  0.00000000000E+00 0. -1.
        -13    1    3    3    0    0 -0.89979902868E+01  0.42400822567E+02 -0.22603964161E+02  0.48884893161E+02  0.00000000000E+00 0.  1.
         13    1    3    3    0    0 -0.14737949775E+03  0.97618690493E+02 -0.27127863208E+03  0.32379348559E+03  0.00000000000E+00 0. -1.
          1    1    1    2  501    0  0.32457969226E+02 -0.21341629846E+02  0.30760998025E+03  0.31005303559E+03  0.00000000000E+00 0. -1.
<scales pt_clust_5="13000.00000" pt_clust_6="13000.00000" pt_clust_7="13000.00000" pt_clust_8="13000.00000" pt_clust_9="38.84566"></scales>
<clustering>
<clus scale="   38.846">  1  9  2 -1</clus>
<clus scale="   80.038">  5  6 -1 -1</clus>
<clus scale="   91.994">  7  8 -1 -1</clus>
<clus scale="  215.471">  1  5  2 -1</clus>
<clus scale="   38.846">  1  5  2 -1</clus>
</clustering>
</event>
<event>
 9    2  0.4883225E-005  0.1106279E+03  0.7546771E-02  0.1262658E+00
         -1   -1    0    0    0  501 -0.00000000000E+00  0.00000000000E+00  0.27197523363E+03  0.27197523363E+03  0.00000000000E+00 0.  1.
         21   -1    0    0  501  502  0.00000000000E+00 -0.00000000000E+00 -0.11711482652E+03  0.11711482652E+03  0.00000000000E+00 0. -1.
         24    2    1    2    0    0  0.43638481816E+01  0.62721265353E+02  0.20011243532E+03  0.22500712576E+03  0.81426160247E+02 0.  0.
         23    2    1    2    0    0 -0.35544075452E+02 -0.69021766689E+02 -0.14287065123E+02  0.11969000895E+03  0.89967729975E+02 0.  0.
        -11    1    3    3    0    0 -0.35601769098E+02  0.18691886461E+02  0.10927022171E+03  0.11643390372E+03  0.00000000000E+00 0.  1.
         12    1    3    3    0    0  0.39965617280E+02  0.44029378892E+02  0.90842213612E+02  0.10857322204E+03  0.00000000000E+00 0. -1.
        -11    1    4    4    0    0 -0.96145815258E+01 -0.84228290381E+02 -0.23988195395E+02  0.88103794451E+02  0.00000000000E+00 0. -1.
         11    1    4    4    0    0 -0.25929493926E+02  0.15206523692E+02  0.97011302714E+01  0.31586214503E+02  0.00000000000E+00 0.  1.
         -2    1    1    2    0  502  0.31180227270E+02  0.63005013353E+01 -0.30964963087E+02  0.44392925435E+02  0.00000000000E+00 0.  1.
<scales pt_clust_5="13000.00000" pt_clust_6="13000.00000" pt_clust_7="13000.00000" pt_clust_8="13000.00000" pt_clust_9="31.81042"></scales>
<clustering>
<clus scale="   31.810">  2  9  1 -1</clus>
<clus scale="   81.426">  5  6 -1 -1</clus>
<clus scale="   89.968">  7  8 -1 -1</clus>
<clus scale="  103.801">  1  5  2 -1</clus>
<clus scale="   31.810">  2  5  1 -1</clus>
</clustering>
</event>
<event>
 9    2  0.4883225E-005  0.2290763E+03  0.7546771E-02  0.1156495E+00
          2   -1    0    0  502    0 -0.00000000000E+00  0.00000000000E+00  0.22604400918E+04  0.22604400918E+04  0.00000000000E+00 0. -1.
         21   -1    0    0  501  502  0.00000000000E+00 -0.00000000000E+00 -0.34751055433E+02  0.34751055433E+02  0.00000000000E+00 0. -1.
         24    2    1    2    0    0  0.78862182248E+02  0.17774374445E+01  0.40809693995E+03  0.42358973416E+03  0.81625654145E+02 0.  0.
         23    2    1    2    0    0 -0.61640685060E+02 -0.21021696027E+03  0.96171614561E+03  0.99054110991E+03  0.91010995269E+02 0.  0.
        -11    1    3    3    0    0 -0.51214776442E+00  0.28940446427E+02  0.85690134479E+02  0.90446729525E+02  0.00000000000E+00 0.  1.
         12    1    3    3    0    0  0.79374330012E+02 -0.27163008982E+02  0.32240680547E+03  0.33314300463E+03  0.00000000000E+00 0. -1.
        -11    1    4    4    0    0  0.11345513970E+01 -0.14844301782E+03  0.63967617130E+03  0.65667512583E+03  0.00000000000E+00 0.  1.
         11    1    4    4    0    0 -0.62775236457E+02 -0.61773942452E+02  0.32203997431E+03  0.33386598408E+03  0.00000000000E+00 0. -1.
          1    1    1    2  501    0 -0.17221497188E+02  0.20843952282E+03  0.85587595081E+03  0.88106030317E+03  0.00000000000E+00 0. -1.
<scales pt_clust_5="13000.00000" pt_clust_6="13000.00000" pt_clust_7="13000.00000" pt_clust_8="13000.00000" pt_clust_9="210.22116"></scales>
<clustering>
<clus scale="   81.626">  5  6 -1 -1</clus>
<clus scale="   91.011">  7  8 -1 -1</clus>
<clus scale="  113.513">  1  5  2 -1</clus>
<clus scale="  210.221">  2  9  1 -1</clus>
<clus scale="  210.221">  2  5  1 -1</clus>
</clustering>
</event>
<event>
 9    2  0.4883225E-005  0.1037897E+03  0.7546771E-02  0.1273835E+00
          4   -1    0    0  502    0 -0.00000000000E+00  0.00000000000E+00  0.21889776789E+03  0.21889776789E+03  0.00000000000E+00 0. -1.
         21   -1    0    0  501  502  0.00000000000E+00 -0.00000000000E+00 -0.18906677787E+03  0.18906677787E+03  0.00000000000E+00 0. -1.
         23    2    1    2    0    0 -0.20782673357E+02  0.90325984957E+02  0.13044764417E+03  0.17679727993E+03  0.75166397090E+02 0.  0.
         24    2    1    2    0    0  0.42573913533E+02 -0.12584158877E+02  0.13592436312E+02  0.91301737492E+02  0.78615226108E+02 0.  0.
        -11    1    4    4    0    0 -0.33559594142E+01 -0.26323206188E+02 -0.19601604231E+02  0.32990855339E+02  0.00000000000E+00 0.  1.
         12    1    4    4    0    0  0.45929872947E+02  0.13739047310E+02  0.33194040542E+02  0.58310882153E+02  0.00000000000E+00 0. -1.
        -11    1    3    3    0    0 -0.12720892757E+02  0.57185964481E+02  0.21122226311E+02  0.62275228546E+02  0.00000000000E+00 0.  1.
         11    1    3    3    0    0 -0.80617806004E+01  0.33140020476E+02  0.10932541786E+03  0.11452205139E+03  0.00000000000E+00 0. -1.
          3    1    1    2  501    0 -0.21791240175E+02 -0.77741826079E+02 -0.11420909046E+03  0.13986552833E+03  0.00000000000E+00 0. -1.
<scales pt_clust_5="13000.00000" pt_clust_6="13000.00000" pt_clust_7="13000.00000" pt_clust_8="13000.00000" pt_clust_9="80.73815"></scales>
<clustering>
<clus scale="   75.166">  7  8 -1 -1</clus>
<clus scale="   78.615">  5  6 -1 -1</clus>
<clus scale="   80.738">  2  9  1 -1</clus>
<clus scale="  101.202">  1  7  2 -1</clus>
<clus scale="   80.738">  2  5  1 -1</clus>
</clustering>
</event>
<event>
 9    2  0.4883225E-005  0.8556680E+02  0.7546771E-02  0.1320741E+00
         21   -1    0    0  501  502  0.00000000000E+00  0.00000000000E+00  0.35679877211E+02  0.35679877211E+02  0.00000000000E+00 0. -1.
          2   -1    0    0  502    0 -0.00000000000E+00 -0.00000000000E+00 -0.33499474083E+03  0.33499474083E+03  0.00000000000E+00 0. -1.
         24    2    1    2    0    0  0.28668071042E+02 -0.17888611908E+02 -0.22434695687E+03  0.24114509904E+03  0.81716222377E+02 0.  0.
         23    2    1    2    0    0 -0.12939456545E+02 -0.12814608799E+01 -0.75518134864E+02  0.10472662087E+03  0.71383504732E+02 0.  0.
        -13    1    3    3    0    0 -0.26437473758E+02  0.43658047145E+01 -0.96660384241E+02  0.10030568354E+03  0.00000000000E+00 0.  1.
         14    1    3    3    0    0  0.55105544800E+02 -0.22254416623E+02 -0.12768657263E+03  0.14083941550E+03  0.00000000000E+00 0. -1.
        -13    1    4    4    0    0  0.28657050783E+02  0.80336348663E+01 -0.34600387178E+02  0.45639376000E+02  0.00000000000E+00 0.  1.
         13    1    4    4    0    0 -0.41596507328E+02 -0.93150957462E+01 -0.40917747686E+02  0.59087244870E+02  0.00000000000E+00 0. -1.
          1    1    1    2  501    0 -0.15728614497E+02  0.19170072788E+02  0.55022811880E+00  0.24802898131E+02  0.00000000000E+00 0. -1.
<scales pt_clust_5="13000.00000" pt_clust_6="13000.00000" pt_clust_7="13000.00000" pt_clust_8="13000.00000" pt_clust_9="24.79679"></scales>
<clustering>
<clus scale="   24.797">  1  9  2 -1</clus>
<clus scale="   71.384">  7  8 -1 -1</clus>
<clus scale="   75.761">  1  7  2 -1</clus>
<clus scale="   81.716">  5  6 -1 -1</clus>
<clus scale="   24.797">  1  5  2 -1</clus>
</clustering>
</event>
<event>
 9    2  0.4883225E-005  0.1651154E+03  0.7546771E-02  0.1209606E+00
          2   -1    0    0  502    0 -0.00000000000E+00  0.00000000000E+00  0.15039588629E+03  0.15039588629E+03  0.00000000000E+00 0. -1.
         21   -1    0    0  501  502  0.00000000000E+00 -0.00000000000E+00 -0.54263492946E+03  0.54263492946E+03  0.00000000000E+00 0.  1.
         24    2    1    2    0    0 -0.12150444612E+02  0.44398220593E+02 -0.11966698626E+02  0.93155251804E+02  0.80099087178E+02 0.  0.
         23    2    1    2    0    0  0.10724494302E+03 -0.97219250609E+02 -0.44291819883E+03  0.47434657168E+03  0.88741640242E+02 0.  0.
        -13    1    3    3    0    0  0.27138190587E+02 -0.54763010323E+01 -0.10614236635E+02  0.29650181798E+02  0.00000000000E+00 0.  1.
         14    1    3    3    0    0 -0.39288635198E+02  0.49874521625E+02 -0.13524619913E+01  0.63505070006E+02  0.00000000000E+00 0. -1.
        -13    1    4    4    0    0  0.91169832154E+02 -0.11391111251E+03 -0.39585665896E+03  0.42188881745E+03  0.00000000000E+00 0.  1.
         13    1    4    4    0    0  0.16075110864E+02  0.16691861903E+02 -0.47061539876E+02  0.52457754228E+02  0.00000000000E+00 0. -1.
          1    1    1    2  501    0 -0.95094498406E+02  0.52821030016E+02  0.62645854298E+02  0.12552899227E+03  0.00000000000E+00 0. -1.
<scales pt_clust_5="13000.00000" pt_clust_6="13000.00000" pt_clust_7="13000.00000" pt_clust_8="13000.00000" pt_clust_9="139.24092"></scales>
<clustering>
<clus scale="   80.099">  5  6 -1 -1</clus>
<clus scale="   88.742">  7  8 -1 -1</clus>
<clus scale="   92.383">  1  5  2 -1</clus>
<clus scale="  139.241">  2  9  1 -1</clus>
<clus scale="  139.241">  2  5  1 -1</clus>
</clustering>
</event>
<event>
 9    2  0.4883225E-005  0.2044444E+03  0.7546771E-02  0.1161438E+00
         21   -1    0    0  501  502  0.00000000000E+00  0.00000000000E+00  0.20003538564E+03  0.20003538564E+03  0.00000000000E+00 0. -1.
          2   -1    0    0  502    0 -0.00000000000E+00 -0.00000000000E+00 -0.38388722672E+03  0.38388722672E+03  0.00000000000E+00 0. -1.
         23    2    1    2    0    0  0.10753461362E+03  0.22403797216E+02 -0.56687597782E+02  0.15317155220E+03  0.90456715634E+02 0.  0.
         24    2    1    2    0    0  0.60990971620E+02 -0.15541069728E+03 -0.11122164465E+03  0.21547013950E+03  0.78643139130E+02 0.  0.
        -11    1    4    4    0    0  0.51823476392E+02 -0.63777912083E+02 -0.17390986785E+02  0.83998459488E+02  0.00000000000E+00 0.  1.
         12    1    4    4    0    0  0.91674952280E+01 -0.91632785195E+02 -0.93830657862E+02  0.13147168002E+03  0.00000000000E+00 0. -1.
        -13    1    3    3    0    0  0.77789187194E+02  0.41417453431E+02 -0.72854152399E+02  0.11434286429E+03  0.00000000000E+00 0. -1.
         13    1    3    3    0    0  0.29745426430E+02 -0.19013656215E+02  0.16166554617E+02  0.38828687904E+02  0.00000000000E+00 0.  1.
          1    1    1    2  501    0 -0.16852558524E+03  0.13300690006E+03 -0.15942598652E+02  0.21528092065E+03  0.00000000000E+00 0. -1.
<scales pt_clust_5="13000.00000" pt_clust_6="13000.00000" pt_clust_7="13000.00000" pt_clust_8="13000.00000" pt_clust_9="188.71347"></scales>
<clustering>
<clus scale="   78.643">  5  6 -1 -1</clus>
<clus scale="   90.457">  7  8 -1 -1</clus>
<clus scale="  142.296">  2  7  1 -1</clus>
<clus scale="  188.713">  1  9  2 -1</clus>
<clus scale="  188.713">  1  5  2 -1</clus>
</clustering>
</event>
<event>
 9    2  0.4883225E-005  0.1909842E+03  0.7546771E-02  0.1158915E+00
         21   -1    0    0  501  502  0.00000000000E+00  0.00000000000E+00  0.34707784423E+03  0.34707784423E+03  0.00000000000E+00 0. -1.
          2   -1    0    0  502    0 -0.00000000000E+00 -0.00000000000E+00 -0.20062816316E+03  0.20062816316E+03  0.00000000000E+00 0. -1.
         24    2    1    2    0    0  0.29264647938E+02  0.21774345726E+03 -0.12697037510E+02  0.23451516850E+03  0.81040216533E+02 0.  0.
         23    2    1    2    0    0  0.20268287539E+02 -0.10031582186E+03  0.10814274885E+03  0.17591678388E+03  0.93689877395E+02 0.  0.
        -13    1    3    3    0    0 -0.27902437709E+02  0.65860558756E+02 -0.98719731362E+01  0.72205367414E+02  0.00000000000E+00 0.  1.
         14    1    3    3    0    0  0.57167085647E+02  0.15188289850E+03 -0.28250643739E+01  0.16230980108E+03  0.00000000000E+00 0. -1.
        -13    1    4    4    0    0  0.38266881647E+01 -0.68161259911E+02  0.71271663581E+01  0.68639619719E+02  0.00000000000E+00 0.  1.
         13    1    4    4    0    0  0.16441599374E+02 -0.32154561951E+02  0.10101558249E+03  0.10727716416E+03  0.00000000000E+00 0. -1.
          1    1    1    2  501    0 -0.49532935477E+02 -0.11742763540E+03  0.51003969726E+02  0.13727405502E+03  0.00000000000E+00 0. -1.
<scales pt_clust_5="13000.00000" pt_clust_6="13000.00000" pt_clust_7="13000.00000" pt_clust_8="13000.00000" pt_clust_9="127.44709"></scales>
<clustering>
<clus scale="   81.040">  5  6 -1 -1</clus>
<clus scale="   93.690">  7  8 -1 -1</clus>
<clus scale="  127.447">  1  9  2 -1</clus>
<clus scale="  185.107">  2  5  1 -1</clus>
<clus scale="  127.447">  1  5  2 -1</clus>
</clustering>
</event>
<event>
 9    2  0.4883225E-005  0.3357806E+03  0.7546771E-02  0.1068901E+00
         21   -1    0    0  501  502  0.00000000000E+00  0.00000000000E+00  0.45877405115E+03  0.45877405115E+03  0.00000000000E+00 0.  1.
         -1   -1    0    0    0  501 -0.00000000000E+00 -0.00000000000E+00 -0.37738152936E+03  0.37738152936E+03  0.00000000000E+00 0.  1.
         23    2    1    2    0    0  0.66645003924E+02  0.33424707753E+03 -0.17560608171E+03  0.39333311813E+03  0.87811049992E+02 0.  0.
         24    2    1    2    0    0 -0.41383573995E+02 -0.27378162220E+03  0.24179363106E+03  0.37555135181E+03  0.76848428563E+02 0.  0.
        -11    1    4    4    0    0 -0.19789426962E+02 -0.20381928093E+03  0.21670643958E+03  0.29815365444E+03  0.00000000000E+00 0.  1.
         12    1    4    4    0    0 -0.21594147033E+02 -0.69962341269E+02  0.25087191478E+02  0.77397697370E+02  0.00000000000E+00 0. -1.
        -13    1    3    3    0    0  0.19999825124E+02  0.27843728172E+03 -0.13620204880E+03  0.31060957963E+03  0.00000000000E+00 0.  1.
         13    1    3    3    0    0  0.46645178801E+02  0.55809795805E+02 -0.39404032904E+02  0.82723538502E+02  0.00000000000E+00 0. -1.
         -2    1    1    2    0  502 -0.25261429929E+02 -0.60465455328E+02  0.15204972445E+02  0.67271110569E+02  0.00000000000E+00 0.  1.
<scales pt_clust_5="13000.00000" pt_clust_6="13000.00000" pt_clust_7="13000.00000" pt_clust_8="13000.00000" pt_clust_9="65.53023"></scales>
<clustering>
<clus scale="   65.530">  1  9  2 -1</clus>
<clus scale="   76.848">  5  6 -1 -1</clus>
<clus scale="   87.811">  7  8 -1 -1</clus>
<clus scale="  333.082">  1  5  2 -1</clus>
<clus scale="   65.530">  1  5  2 -1</clus>
</clustering>
</event>
<event>
 9    2  0.4883225E-005  0.1154177E+03  0.7546771E-02  0.1255254E+00
         21   -1    0    0  501  502  0.00000000000E+00  0.00000000000E+00  0.20281649693E+02  0.20281649693E+02  0.00000000000E+00 0.  1.
          2   -1    0    0  502    0 -0.00000000000E+00 -0.00000000000E+00 -0.97531982558E+03  0.97531982558E+03  0.00000000000E+00 0. -1.
         24    2    1    2    0    0  0.76651908543E+02  0.13146622448E+02 -0.63082869032E+03  0.64048137827E+03  0.78887328646E+02 0.  0.
         23    2    1    2    0    0 -0.45822448107E+02 -0.25944185832E+02 -0.19556714833E+03  0.22221756057E+03  0.91440347719E+02 0.  0.
        -11    1    3    3    0    0  0.73394581591E+01  0.24169569613E+02 -0.56612718102E+02  0.61992222030E+02  0.00000000000E+00 0.  1.
         12    1    3    3    0    0  0.69312450384E+02 -0.11022947165E+02 -0.57421597222E+03  0.57848915624E+03  0.00000000000E+00 0. -1.
        -13    1    4    4    0    0  0.19641146963E+02 -0.18094953827E+02 -0.16485453678E+02  0.31384266615E+02  0.00000000000E+00 0. -1.
         13    1    4    4    0    0 -0.65463595070E+02 -0.78492320054E+01 -0.17908169465E+03  0.19083329396E+03  0.00000000000E+00 0.  1.
          1    1    1    2  501    0 -0.30829460436E+02  0.12797563384E+02 -0.12864233724E+03  0.13290253643E+03  0.00000000000E+00 0. -1.
<scales pt_clust_5="13000.00000" pt_clust_6="13000.00000" pt_clust_7="13000.00000" pt_clust_8="13000.00000" pt_clust_9="33.38015"></scales>
<clustering>
<clus scale="   33.380">  1  9  2 -1</clus>
<clus scale="   78.887">  5  6 -1 -1</clus>
<clus scale="   91.440">  7  8 -1 -1</clus>
<clus scale="  105.750">  2  5  1 -1</clus>
<clus scale="   33.380">  1  5  2 -1</clus>
</clustering>
</event>
<event>
 9    2  0.4883225E-005  0.1337888E+03  0.7546771E-02  0.1224254E+00
          2   -1    0    0  502    0 -0.00000000000E+00  0.00000000000E+00  0.16014722857E+03  0.16014722857E+03  0.00000000000E+00 0. -1.
         21   -1    0    0  501  502  0.00000000000E+00 -0.00000000000E+00 -0.24682406741E+03  0.24682406741E+03  0.00000000000E+00 0. -1.
         24    2    1    2    0    0 -0.66158274228E+02  0.74539110279E+02  0.99034664335E+02  0.16204544837E+03  0.80733304069E+02 0.  0.
         23    2    1    2    0    0  0.45460406801E+02 -0.82523979237E+02 -0.17937248162E+03  0.22185328723E+03  0.90374433099E+02 0.  0.
        -11    1    3    3    0    0  0.29661601036E+01  0.30025914852E+02 -0.37714802934E+01  0.30406869817E+02  0.00000000000E+00 0.  1.
         12    1    3    3    0    0 -0.69124434331E+02  0.44513195427E+02  0.10280614463E+03  0.13163857855E+03  0.00000000000E+00 0. -1.
        -13    1    4    4    0    0 -0.25917113313E+02 -0.28446815188E+02 -0.75252590222E+02  0.84521419723E+02  0.00000000000E+00 0. -1.
         13    1    4    4    0    0  0.71377520114E+02 -0.54077164050E+02 -0.10411989140E+03  0.13733186751E+03  0.00000000000E+00 0.  1.
          1    1    1    2  501    0  0.20697867426E+02  0.79848689581E+01 -0.63390215514E+01  0.23072560380E+02  0.00000000000E+00 0. -1.
<scales pt_clust_5="13000.00000" pt_clust_6="13000.00000" pt_clust_7="13000.00000" pt_clust_8="13000.00000" pt_clust_9="22.18468"></scales>
<clustering>
<clus scale="   22.185">  2  9  1 -1</clus>
<clus scale="   80.733">  5  6 -1 -1</clus>
<clus scale="   90.374">  7  8 -1 -1</clus>
<clus scale="  127.475">  1  5  2 -1</clus>
<clus scale="   22.185">  2  5  1 -1</clus>
</clustering>
</event>
<event>
 9    2  0.4883225E-005  0.4249947E+03  0.7546771E-02  0.1072074E+00
         21   -1    0    0  501  502  0.00000000000E+00  0.00000000000E+00  0.24005141109E+03  0.24005141109E+03  0.00000000000E+00 0. -1.
          2   -1    0    0  502    0 -0.00000000000E+00 -0.00000000000E+00 -0.12211324315E+04  0.12211324315E+04  0.00000000000E+00 0. -1.
         24    2    1    2    0    0  0.74200438658E+02 -0.10292461374E+03 -0.41169848696E+03  0.43837171781E+03  0.81085988942E+02 0.  0.
         23    2    1    2    0    0  0.34654489690E+03  0.20988274416E+03 -0.28215272901E+03  0.50226660361E+03  0.92290014343E+02 0.  0.
        -11    1    3    3    0    0  0.57006214723E+02 -0.16017906375E+02 -0.20750315545E+03  0.21578656437E+03  0.00000000000E+00 0.  1.
         12    1    3    3    0    0  0.17194223935E+02 -0.86906707368E+02 -0.20419533151E+03  0.22258515344E+03  0.00000000000E+00 0. -1.
        -13    1    4    4    0    0  0.11508270736E+03  0.10087432285E+03 -0.63389820864E+02  0.16564397947E+03  0.00000000000E+00 0.  1.
         13    1    4    4    0    0  0.23146218954E+03  0.10900842131E+03 -0.21876290815E+03  0.33662262414E+03  0.00000000000E+00 0. -1.
          1    1    1    2  501    0 -0.42074533556E+03 -0.10695813042E+03 -0.28722980447E+03  0.52054552119E+03  0.00000000000E+00 0. -1.
<scales pt_clust_5="13000.00000" pt_clust_6="13000.00000" pt_clust_7="13000.00000" pt_clust_8="13000.00000" pt_clust_9="414.85329"></scales>
<clustering>
<clus scale="   81.086">  5  6 -1 -1</clus>
<clus scale="   92.290">  7  8 -1 -1</clus>
<clus scale="  150.579">  2  5  1 -1</clus>
<clus scale="  414.853">  1  9  2 -1</clus>
<clus scale="  414.853">  1  5  2 -1</clus>
</clustering>
</event>
<event>
 9    2  0.4883225E-005  0.9326063E+02  0.7546771E-02  0.1304237E+00
         21   -1    0    0  501  502  0.00000000000E+00  0.00000000000E+00  0.14853652156E+03  0.14853652156E+03  0.00000000000E+00 0.  1.
          2   -1    0    0  502    0 -0.00000000000E+00 -0.00000000000E+00 -0.10969608229E+03  0.10969608229E+03  0.00000000000E+00 0. -1.
         24    2    1    2    0    0 -0.37046664629E+01  0.10603189229E+02 -0.11103940264E+02  0.79014131671E+02  0.77419528150E+02 0.  0.
         23    2    1    2    0    0 -0.10538871259E+02 -0.29372982516E+02  0.90183515485E+02  0.13258831489E+03  0.92047568519E+02 0.  0.
        -13    1    3    3    0    0 -0.19539408054E+02  0.36032234748E+02 -0.22743363010E+02  0.46876123656E+02  0.00000000000E+00 0.  1.
         14    1    3    3    0    0  0.15834741592E+02 -0.25429045519E+02  0.11639422747E+02  0.32138008015E+02  0.00000000000E+00 0. -1.
        -13    1    4    4    0    0 -0.23669772767E+02 -0.10375534583E+02  0.10298877550E+03  0.10618190872E+03  0.00000000000E+00 0.  1.
         13    1    4    4    0    0  0.13130901507E+02 -0.18997447933E+02 -0.12805260018E+02  0.26406406164E+02  0.00000000000E+00 0. -1.
          1    1    1    2  501    0  0.14243537722E+02  0.18769793288E+02 -0.40239135951E+02  0.46630157291E+02  0.00000000000E+00 0. -1.
<scales pt_clust_5="13000.00000" pt_clust_6="13000.00000" pt_clust_7="13000.00000" pt_clust_8="13000.00000" pt_clust_9="23.56234"></scales>
<clustering>
<clus scale="   23.562">  1  9  2 -1</clus>
<clus scale="   77.420">  5  6 -1 -1</clus>
<clus scale="   78.858">  2  5  1 -1</clus>
<clus scale="   92.048">  7  8 -1 -1</clus>
<clus scale="   23.562">  1  5  2 -1</clus>
</clustering>
</event>
<event>
 9    2  0.4883225E-005  0.1593364E+03  0.7546771E-02  0.1205581E+00
         21   -1    0    0  501  502  0.00000000000E+00  0.00000000000E+00  0.64721217347E+02  0.64721217347E+02  0.00000000000E+00 0.  1.
          2   -1    0    0  502    0 -0.00000000000E+00 -0.00000000000E+00 -0.82935127249E+03  0.82935127249E+03  0.00000000000E+00 0. -1.
         24    2    1    2    0    0  0.77926103874E+02  0.27479248438E+02 -0.25617241211E+03  0.27961370329E+03  0.75709521049E+02 0.  0.
         23    2    1    2    0    0 -0.23482931720E+02  0.10294842535E+03 -0.43131915788E+03  0.45344393328E+03  0.91789750553E+02 0.  0.
        -13    1    3    3    0    0  0.61889582685E+02 -0.66141546360E+01 -0.91344664696E+02  0.11053467897E+03  0.00000000000E+00 0.  1.
         14    1    3    3    0    0  0.16036521189E+02  0.34093403074E+02 -0.16482774742E+03  0.16907902432E+03  0.00000000000E+00 0. -1.
        -11    1    4    4    0    0  0.20786611103E+02  0.90151569440E+02 -0.25733858179E+03  0.27346395439E+03  0.00000000000E+00 0.  1.
         11    1    4    4    0    0 -0.44269542822E+02  0.12796855911E+02 -0.17398057610E+03  0.17997997889E+03  0.00000000000E+00 0. -1.
          1    1    1    2  501    0 -0.54443172154E+02 -0.13042767379E+03 -0.77138485151E+02  0.16101485328E+03  0.00000000000E+00 0. -1.
<scales pt_clust_5="13000.00000" pt_clust_6="13000.00000" pt_clust_7="13000.00000" pt_clust_8="13000.00000" pt_clust_9="130.24108"></scales>
<clustering>
<clus scale="   75.710">  5  6 -1 -1</clus>
<clus scale="   91.790">  7  8 -1 -1</clus>
<clus scale="  112.069">  2  5  1 -1</clus>
<clus scale="  130.241">  1  9  2 -1</clus>
<clus scale="  130.241">  1  5  2 -1</clus>
</clustering>
</event>
<event>
 9    2  0.4883225E-005  0.1225511E+03  0.7546771E-02  0.1241707E+00
          2   -1    0    0  502    0 -0.00000000000E+00  0.00000000000E+00  0.65515922236E+03  0.65515922236E+03  0.00000000000E+00 0. -1.
         21   -1    0    0  501  502  0.00000000000E+00 -0.00000000000E+00 -0.54451802047E+02  0.54451802047E+02  0.00000000000E+00 0. -1.
         24    2    1    2    0    0  0.17141787106E+02  0.72869185719E+02  0.42353262686E+03  0.43801869860E+03  0.82926082874E+02 0.  0.
         23    2    1    2    0    0  0.61734485660E+01 -0.10286984741E+03  0.18685157924E+03  0.23238416213E+03  0.92024829112E+02 0.  0.
        -13    1    3    3    0    0  0.31890520160E+02 -0.41078621789E+01  0.15403822769E+03  0.15735836615E+03  0.00000000000E+00 0.  1.
         14    1    3    3    0    0 -0.14748733055E+02  0.76977047898E+02  0.26949439917E+03  0.28066033245E+03  0.00000000000E+00 0. -1.
        -13    1    4    4    0    0 -0.39240249245E+02 -0.48228270445E+02  0.56918760714E+02  0.84294178637E+02  0.00000000000E+00 0.  1.
         13    1    4    4    0    0  0.45413697811E+02 -0.54641576961E+02  0.12993281852E+03  0.14808998349E+03  0.00000000000E+00 0. -1.
          1    1    1    2  501    0 -0.23315235672E+02  0.30000661686E+02 -0.96767857768E+01  0.39208163678E+02  0.00000000000E+00 0. -1.
<scales pt_clust_5="13000.00000" pt_clust_6="13000.00000" pt_clust_7="13000.00000" pt_clust_8="13000.00000" pt_clust_9="37.99526"></scales>
<clustering>
<clus scale="   37.995">  2  9  1 -1</clus>
<clus scale="   82.926">  5  6 -1 -1</clus>
<clus scale="   92.025">  7  8 -1 -1</clus>
<clus scale="  115.875">  1  5  2 -1</clus>
<clus scale="   37.995">  2  5  1 -1</clus>
</clustering>
</event>
<event>
 9    2  0.4883225E-005  0.1057994E+03  0.7546771E-02  0.1274562E+00
         -1   -1    0    0    0  501 -0.00000000000E+00  0.00000000000E+00  0.78702322894E+02  0.78702322894E+02  0.00000000000E+00 0.  1.
         21   -1    0    0  501  502  0.00000000000E+00 -0.00000000000E+00 -0.42556332719E+03  0.42556332719E+03  0.00000000000E+00 0.  1.
         23    2    1    2    0    0  0.49993484301E+02 -0.44627359108E+02 -0.13107586421E+01  0.11315161080E+03  0.91162598056E+02 0.  0.
         24    2    1    2    0    0 -0.36652578382E+01  0.40335863874E+02 -0.70820754803E+02  0.11247266648E+03  0.77421607862E+02 0.  0.
        -11    1    4    4    0    0  0.13710536554E+02 -0.18167571589E+02 -0.34872698457E+02  0.41643061459E+02  0.00000000000E+00 0.  1.
         12    1    4    4    0    0 -0.17375794392E+02  0.58503435464E+02 -0.35948056346E+02  0.70829605017E+02  0.00000000000E+00 0. -1.
        -13    1    3    3    0    0  0.51716124849E+02  0.59109083355E+01  0.23161843923E+02  0.56973392216E+02  0.00000000000E+00 0.  1.
         13    1    3    3    0    0 -0.17226405479E+01 -0.50538267443E+02 -0.24472602565E+02  0.56178218581E+02  0.00000000000E+00 0. -1.
         -2    1    1    2    0  502 -0.46328226463E+02  0.42914952333E+01 -0.27472949085E+03  0.27864137281E+03  0.00000000000E+00 0.  1.
<scales pt_clust_5="13000.00000" pt_clust_6="13000.00000" pt_clust_7="13000.00000" pt_clust_8="13000.00000" pt_clust_9="46.52657"></scales>
<clustering>
<clus scale="   46.527">  2  9  1 -1</clus>
<clus scale="   77.422">  5  6 -1 -1</clus>
<clus scale="   91.163">  7  8 -1 -1</clus>
<clus scale="   94.218">  2  5  1 -1</clus>
<clus scale="   46.527">  2  5  1 -1</clus>
</clustering>
</event>
<event>
 9    2  0.4883225E-005  0.1062101E+03  0.7546771E-02  0.1272490E+00
         21   -1    0    0  501  502  0.00000000000E+00  0.00000000000E+00  0.34539763268E+03  0.34539763268E+03  0.00000000000E+00 0. -1.
          2   -1    0    0  502    0 -0.00000000000E+00 -0.00000000000E+00 -0.37402295475E+03  0.37402295475E+03  0.00000000000E+00 0. -1.
         24    2    1    2    0    0  0.39801579350E+02  0.28894911277E+02 -0.29703837902E+03  0.31180698205E+03  0.81072275346E+02 0.  0.
         23    2    1    2    0    0 -0.53002587683E+02 -0.70015742217E+02 -0.84051795308E+01  0.12744664550E+03  0.91981095599E+02 0.  0.
        -13    1    3    3    0    0  0.23931955613E+02 -0.25314426163E+02 -0.74982588890E+02  0.82679787785E+02  0.00000000000E+00 0.  1.
         14    1    3    3    0    0  0.15869623737E+02  0.54209337440E+02 -0.22205579013E+03  0.22912719427E+03  0.00000000000E+00 0. -1.
        -11    1    4    4    0    0 -0.47196488385E+02 -0.41802892331E+02  0.37423376155E+02  0.73317797334E+02  0.00000000000E+00 0.  1.
         11    1    4    4    0    0 -0.58060992981E+01 -0.28212849887E+02 -0.45828555686E+02  0.54128848169E+02  0.00000000000E+00 0. -1.
          1    1    1    2  501    0  0.13201008333E+02  0.41120830941E+02  0.27681823648E+03  0.28016695988E+03  0.00000000000E+00 0. -1.
<scales pt_clust_5="13000.00000" pt_clust_6="13000.00000" pt_clust_7="13000.00000" pt_clust_8="13000.00000" pt_clust_9="43.18784"></scales>
<clustering>
<clus scale="   43.188">  1  9  2 -1</clus>
<clus scale="   81.072">  5  6 -1 -1</clus>
<clus scale="   91.981">  7  8 -1 -1</clus>
<clus scale="   96.916">  2  5  1 -1</clus>
<clus scale="   43.188">  1  5  2 -1</clus>
</clustering>
</event>
<event>
 9    2  0.4883225E-005  0.1223958E+03  0.7546771E-02  0.1260020E+00
         21   -1    0    0  501  502  0.00000000000E+00  0.00000000000E+00  0.78483138096E+02  0.78483138096E+02  0.00000000000E+00 0. -1.
          2   -1    0    0  502    0 -0.00000000000E+00 -0.00000000000E+00 -0.71785890357E+03  0.71785890357E+03  0.00000000000E+00 0. -1.
         24    2    1    2    0    0  0.12511102895E+02 -0.38565593920E+01 -0.52858797020E+03  0.53471531100E+03  0.79648106257E+02 0.  0.
         23    2    1    2    0    0 -0.16989091461E+02 -0.79761753218E+02 -0.12778295280E+03  0.17618136821E+03  0.89782097165E+02 0.  0.
        -13    1    3    3    0    0 -0.30315594286E+02  0.64117716377E+01 -0.12725673933E+03  0.13097489751E+03  0.00000000000E+00 0.  1.
         14    1    3    3    0    0  0.42826697181E+02 -0.10268331030E+02 -0.40133123088E+03  0.40374041350E+03  0.00000000000E+00 0. -1.
        -11    1    4    4    0    0 -0.26631533632E+02  0.11347631362E+02 -0.22848194975E+02  0.36878819595E+02  0.00000000000E+00 0.  1.
         11    1    4    4    0    0  0.96424421707E+01 -0.91109384579E+02 -0.10493475783E+03  0.13930254861E+03  0.00000000000E+00 0. -1.
          1    1    1    2  501    0  0.44779885665E+01  0.83618312610E+02  0.16995157534E+02  0.85445362454E+02  0.00000000000E+00 0. -1.
<scales pt_clust_5="13000.00000" pt_clust_6="13000.00000" pt_clust_7="13000.00000" pt_clust_8="13000.00000" pt_clust_9="83.18603"></scales>
<clustering>
<clus scale="   79.648">  5  6 -1 -1</clus>
<clus scale="   80.717">  2  5  1 -1</clus>
<clus scale="   83.186">  1  9  2 -1</clus>
<clus scale="   89.782">  7  8 -1 -1</clus>
<clus scale="   83.186">  1  5  2 -1</clus>
</clustering>
</event>
<event>
 9    2  0.4883225E-005  0.1020889E+03  0.7546771E-02  0.1288134E+00
         21   -1    0    0  501  502  0.00000000000E+00  0.00000000000E+00  0.60435383995E+02  0.60435383995E+02  0.00000000000E+00 0.  1.
         -3   -1    0    0    0  501 -0.00000000000E+00 -0.00000000000E+00 -0.27660154741E+03  0.27660154741E+03  0.00000000000E+00 0.  1.
         24    2    1    2    0    0  0.15566699582E+01  0.65313474241E+00 -0.43649005713E+02  0.91413425304E+02  0.80301487033E+02 0.  0.
         23    2    1    2    0    0 -0.76321259361E+01  0.26103587970E+02 -0.43513546633E+02  0.11373429106E+03  0.10150080576E+03 0.  0.
        -13    1    3    3    0    0  0.22069436206E+02 -0.33146688591E+02 -0.14854358412E+02  0.42501940460E+02  0.00000000000E+00 0.  1.
         14    1    3    3    0    0 -0.20512766247E+02  0.33799823334E+02 -0.28794647301E+02  0.48911484845E+02  0.00000000000E+00 0. -1.
        -11    1    4    4    0    0 -0.47851640221E+02  0.41871325754E+01  0.34180978550E+01  0.48155944016E+02  0.00000000000E+00 0.  1.
         11    1    4    4    0    0  0.40219514285E+02  0.21916455395E+02 -0.46931644488E+02  0.65578347042E+02  0.00000000000E+00 0. -1.
         -4    1    1    2    0  502  0.60754559779E+01 -0.26756722713E+02 -0.12900361107E+03  0.13188921504E+03  0.00000000000E+00 0.  1.
<scales pt_clust_5="13000.00000" pt_clust_6="13000.00000" pt_clust_7="13000.00000" pt_clust_8="13000.00000" pt_clust_9="27.43782"></scales>
<clustering>
<clus scale="   27.438">  1  9  2 -1</clus>
<clus scale="   80.301">  5  6 -1 -1</clus>
<clus scale="   81.044">  2  5  1 -1</clus>
<clus scale="  101.501">  7  8 -1 -1</clus>
<clus scale="   27.438">  1  5  2 -1</clus>
</clustering>
</event>
<event>
 9    2  0.4883225E-005  0.1120191E+03  0.7546771E-02  0.1261622E+00
          2   -1    0    0  502    0 -0.00000000000E+00  0.00000000000E+00  0.20391600310E+04  0.20391600310E+04  0.00000000000E+00 0. -1.
         21   -1    0    0  501  502  0.00000000000E+00 -0.00000000000E+00 -0.23950764589E+02  0.23950764589E+02  0.00000000000E+00 0.  1.
         24    2    1    2    0    0  0.15004618466E+02 -0.56882690625E+02  0.14431247858E+04  0.14465207911E+04  0.79702399355E+02 0.  0.
         23    2    1    2    0    0  0.16561648532E+02  0.90527155588E+02  0.55043018875E+03  0.56562641370E+03  0.92143329007E+02 0.  0.
        -13    1    3    3    0    0  0.19081763728E+02 -0.20515943786E+02  0.13463850294E+03  0.13752288584E+03  0.00000000000E+00 0.  1.
         14    1    3    3    0    0 -0.40771452615E+01 -0.36366746838E+02  0.13084862829E+04  0.13089979052E+04  0.00000000000E+00 0. -1.
        -11    1    4    4    0    0  0.48068348014E+02  0.84539585071E+02  0.38310731928E+03  0.39525779640E+03  0.00000000000E+00 0. -1.
         11    1    4    4    0    0 -0.31506699482E+02  0.59875705175E+01  0.16732286947E+03  0.17036861730E+03  0.00000000000E+00 0.  1.
          1    1    1    2  501    0 -0.31566266998E+02 -0.33644464964E+02  0.21654291835E+02  0.50963590825E+02  0.00000000000E+00 0. -1.
<scales pt_clust_5="13000.00000" pt_clust_6="13000.00000" pt_clust_7="13000.00000" pt_clust_8="13000.00000" pt_clust_9="46.13436"></scales>
<clustering>
<clus scale="   46.134">  2  9  1 -1</clus>
<clus scale="   79.702">  5  6 -1 -1</clus>
<clus scale="   92.143">  7  8 -1 -1</clus>
<clus scale="  102.031">  1  5  2 -1</clus>
<clus scale="   46.134">  2  5  1 -1</clus>
</clustering>
</event>
<event>
 9    2  0.4883225E-005  0.1020552E+03  0.7546771E-02  0.1281997E+00
          4   -1    0    0  502    0 -0.00000000000E+00  0.00000000000E+00  0.69344929048E+03  0.69344929048E+03  0.00000000000E+00 0. -1.
         21   -1    0    0  501  502  0.00000000000E+00 -0.00000000000E+00 -0.41711897372E+02  0.41711897372E+02  0.00000000000E+00 0.  1.
         24    2    1    2    0    0 -0.31861448175E+02 -0.24740265906E+02  0.58503942424E+03  0.59207556660E+03  0.81578894407E+02 0.  0.
         23    2    1    2    0    0  0.45492141153E+02  0.90651480163E+01  0.62838113604E+02  0.12195735595E+03  0.93665662517E+02 0.  0.
        -13    1    3    3    0    0 -0.30329558250E+02 -0.35359565265E+02  0.15374643579E+03  0.16064914403E+03  0.00000000000E+00 0.  1.
         14    1    3    3    0    0 -0.15318899245E+01  0.10619299359E+02  0.43129298845E+03  0.43142642257E+03  0.00000000000E+00 0. -1.
        -11    1    4    4    0    0  0.54611217333E+02 -0.12372846018E+02  0.11394921429E+01  0.56006881894E+02  0.00000000000E+00 0.  1.
         11    1    4    4    0    0 -0.91190761798E+01  0.21437994034E+02  0.61698621461E+02  0.65950474060E+02  0.00000000000E+00 0. -1.
          3    1    1    2  501    0 -0.13630692978E+02  0.15675117889E+02  0.38598552653E+01  0.21128265300E+02  0.00000000000E+00 0. -1.
<scales pt_clust_5="13000.00000" pt_clust_6="13000.00000" pt_clust_7="13000.00000" pt_clust_8="13000.00000" pt_clust_9="20.77270"></scales>
<clustering>
<clus scale="   20.773">  2  9  1 -1</clus>
<clus scale="   81.579">  5  6 -1 -1</clus>
<clus scale="   91.089">  1  5  2 -1</clus>
<clus scale="   93.666">  7  8 -1 -1</clus>
<clus scale="   20.773">  2  5  1 -1</clus>
</clustering>
</event>
<event>
 9    2  0.4883225E-005  0.2617374E+03  0.7546771E-02  0.1134780E+00
          2   -1    0    0  502    0 -0.00000000000E+00  0.00000000000E+00  0.28605912461E+04  0.28605912461E+04  0.00000000000E+00 0. -1.
         21   -1    0    0  501  502  0.00000000000E+00 -0.00000000000E+00 -0.38356069781E+02  0.38356069781E+02  0.00000000000E+00 0. -1.
         23    2    1    2    0    0 -0.66331524645E+02 -0.58969901194E+02  0.35571652858E+03  0.37798459667E+03  0.91982532071E+02 0.  0.
         24    2    1    2    0    0 -0.17921966475E+03 -0.93543937911E+02  0.13691345722E+04  0.13861465813E+04  0.77477166725E+02 0.  0.
        -11    1    4    4    0    0 -0.25745608816E+02 -0.31066308036E+02  0.13389225311E+03  0.13983950555E+03  0.00000000000E+00 0.  1.
         12    1    4    4    0    0 -0.15347405594E+03 -0.62477629875E+02  0.12352423191E+04  0.12463070757E+04  0.00000000000E+00 0. -1.
        -11    1    3    3    0    0 -0.27783771723E+02 -0.35846303591E+01  0.17342402055E+02  0.32947632009E+02  0.00000000000E+00 0. -1.
         11    1    3    3    0    0 -0.38547752922E+02 -0.55385270835E+02  0.33837412653E+03  0.34503696466E+03  0.00000000000E+00 0.  1.
          1    1    1    2  501    0  0.24555118940E+03  0.15251383911E+03  0.10973840755E+04  0.11348161380E+04  0.00000000000E+00 0. -1.
<scales pt_clust_5="13000.00000" pt_clust_6="13000.00000" pt_clust_7="13000.00000" pt_clust_8="13000.00000" pt_clust_9="250.00750"></scales>
<clustering>
<clus scale="   77.477">  5  6 -1 -1</clus>
<clus scale="   91.983">  7  8 -1 -1</clus>
<clus scale="  127.821">  1  7  2 -1</clus>
<clus scale="  250.008">  2  9  1 -1</clus>
<clus scale="  250.008">  2  5  1 -1</clus>
</clustering>
</event>
<event>
 9    2  0.4883225E-005  0.9530200E+02  0.7546771E-02  0.1292352E+00
         21   -1    0    0  501  502  0.00000000000E+00  0.00000000000E+00  0.31850332472E+03  0.31850332472E+03  0.00000000000E+00 0.  1.
          4   -1    0    0  502    0 -0.00000000000E+00 -0.00000000000E+00 -0.25695047833E+03  0.25695047833E+03  0.00000000000E+00 0. -1.
         24    2    1    2    0    0  0.10117067051E+01  0.15935985703E+02 -0.22971431673E+03  0.24754916122E+03  0.90867709977E+02 0.  0.
         23    2    1    2    0    0 -0.17038738966E+02  0.52926230799E+01  0.11524177254E+03  0.14988088577E+03  0.94155633379E+02 0.  0.
        -11    1    3    3    0    0  0.36884051625E+02 -0.18885012693E+02 -0.12078743441E+03  0.12769761658E+03  0.00000000000E+00 0.  1.
         12    1    3    3    0    0 -0.35872344920E+02  0.34820998397E+02 -0.10892688232E+03  0.11985154464E+03  0.00000000000E+00 0. -1.
        -13    1    4    4    0    0 -0.25002021669E+02  0.40902544387E+02  0.98886179458E+02  0.10989356538E+03  0.00000000000E+00 0.  1.
         13    1    4    4    0    0  0.79632827026E+01 -0.35609921307E+02  0.16355593084E+02  0.39987320391E+02  0.00000000000E+00 0. -1.
          3    1    1    2  501    0  0.16027032261E+02 -0.21228608783E+02  0.17602539058E+03  0.17802375606E+03  0.00000000000E+00 0. -1.
<scales pt_clust_5="13000.00000" pt_clust_6="13000.00000" pt_clust_7="13000.00000" pt_clust_8="13000.00000" pt_clust_9="26.59924"></scales>
<clustering>
<clus scale="   26.599">  1  9  2 -1</clus>
<clus scale="   90.868">  5  6 -1 -1</clus>
<clus scale="   92.055">  2  5  1 -1</clus>
<clus scale="   94.156">  7  8 -1 -1</clus>
<clus scale="   26.599">  1  5  2 -1</clus>
</clustering>
</event>
<event>
 9    2  0.4883225E-005  0.1787267E+03  0.7546771E-02  0.1203910E+00
         21   -1    0    0  501  502  0.00000000000E+00  0.00000000000E+00  0.31669674203E+02  0.31669674203E+02  0.00000000000E+00 0. -1.
          2   -1    0    0  502    0 -0.00000000000E+00 -0.00000000000E+00 -0.14330256005E+04  0.14330256005E+04  0.00000000000E+00 0. -1.
         24    2    1    2    0    0  0.26725002384E+01 -0.20247561697E+02 -0.41049943217E+03  0.41867198473E+03  0.79745476161E+02 0.  0.
         23    2    1    2    0    0  0.15038094343E+03 -0.15319310413E+02 -0.47374350416E+03  0.50556403767E+03  0.91175539653E+02 0.  0.
        -11    1    3    3    0    0 -0.15392167069E+02  0.27354023246E+02 -0.15234198732E+03  0.15554177090E+03  0.00000000000E+00 0.  1.
         12    1    3    3    0    0  0.18064667307E+02 -0.47601584944E+02 -0.25815744485E+03  0.26313021382E+03  0.00000000000E+00 0. -1.
        -13    1    4    4    0    0  0.80515177837E+02  0.94170296291E+01 -0.36547602544E+03  0.37435825019E+03  0.00000000000E+00 0. -1.
         13    1    4    4    0    0  0.69865765597E+02 -0.24736340042E+02 -0.10826747872E+03  0.13120578748E+03  0.00000000000E+00 0.  1.
          1    1    1    2  501    0 -0.15305344367E+03  0.35566872110E+02 -0.51711298992E+03  0.54045925226E+03  0.00000000000E+00 0. -1.
<scales pt_clust_5="13000.00000" pt_clust_6="13000.00000" pt_clust_7="13000.00000" pt_clust_8="13000.00000" pt_clust_9="153.72138"></scales>
<clustering>
<clus scale="   79.745">  5  6 -1 -1</clus>
<clus scale="   82.319">  2  5  1 -1</clus>
<clus scale="   91.176">  7  8 -1 -1</clus>
<clus scale="  153.721">  1  9  2 -1</clus>
<clus scale="  153.721">  1  5  2 -1</clus>
</clustering>
</event>
<event>
 9    2  0.4883225E-005  0.1376650E+03  0.7546771E-02  0.1236689E+00
          2   -1    0    0  502    0 -0.00000000000E+00  0.00000000000E+00  0.23054864880E+03  0.23054864880E+03  0.00000000000E+00 0. -1.
         21   -1    0    0  501  502  0.00000000000E+00 -0.00000000000E+00 -0.13373745439E+03  0.13373745439E+03  0.00000000000E+00 0. -1.
         24    2    1    2    0    0 -0.40590825473E+02 -0.79559203019E+01  0.51194113624E+02  0.10400125875E+03  0.80526472491E+02 0.  0.
         23    2    1    2    0    0 -0.57696836024E+02 -0.50844203579E+02  0.76747396987E+02  0.14159611053E+03  0.90803290950E+02 0.  0.
        -13    1    3    3    0    0 -0.43094538257E+02 -0.36832631780E+02  0.49002479948E+02  0.74933470709E+02  0.00000000000E+00 0.  1.
         14    1    3    3    0    0  0.25037127843E+01  0.28876711478E+02  0.21916336753E+01  0.29067788042E+02  0.00000000000E+00 0. -1.
        -11    1    4    4    0    0  0.21349885337E+02 -0.15019250766E+02  0.39061711324E+02  0.46980983270E+02  0.00000000000E+00 0.  1.
         11    1    4    4    0    0 -0.79046721361E+02 -0.35824952813E+02  0.37685685662E+02  0.94615127257E+02  0.00000000000E+00 0. -1.
          1    1    1    2  501    0  0.98287661497E+02  0.58800123881E+02 -0.31130316194E+02  0.11868873391E+03  0.00000000000E+00 0. -1.
<scales pt_clust_5="13000.00000" pt_clust_6="13000.00000" pt_clust_7="13000.00000" pt_clust_8="13000.00000" pt_clust_9="103.47179"></scales>
<clustering>
<clus scale="   80.526">  5  6 -1 -1</clus>
<clus scale="   90.529">  1  5  2 -1</clus>
<clus scale="   90.803">  7  8 -1 -1</clus>
<clus scale="  103.472">  2  9  1 -1</clus>
<clus scale="  103.472">  2  5  1 -1</clus>
</clustering>
</event>
