<event>
10    4  0.2977685E-005  0.1083709E+03  0.7546771E-02  0.1268531E+00
          2   -1    0    0  503    0 -0.00000000000E+00  0.00000000000E+00  0.90705700967E+03  0.90705700967E+03  0.00000000000E+00 0. -1.
         21   -1    0    0  501  502  0.00000000000E+00 -0.00000000000E+00 -0.39630629179E+02  0.39630629179E+02  0.00000000000E+00 0.  1.
         24    2    1    2    0    0  0.51042579294E+02  0.31048047707E+02  0.20868184197E+03  0.23142330266E+03  0.80245296927E+02 0.  0.
         23    2    1    2    0    0 -0.12054793305E+02 -0.83933060172E+02  0.15261804204E+03  0.19739881931E+03  0.92108362679E+02 0.  0.
        -13    1    3    3    0    0  0.62924985620E+02  0.45332198387E+02  0.13757077789E+03  0.15792492190E+03  0.00000000000E+00 0.  1.
         14    1    3    3    0    0 -0.11882406326E+02 -0.14284150680E+02  0.71111064082E+02  0.73498380768E+02  0.00000000000E+00 0. -1.
        -13    1    4    4    0    0 -0.25841568596E+02  0.82108640580E+01  0.14372676299E+02  0.30688414428E+02  0.00000000000E+00 0. -1.
         13    1    4    4    0    0  0.13786775291E+02 -0.92143924230E+02  0.13824536574E+03  0.16671040488E+03  0.00000000000E+00 0.  1.
         21    1    1    2  503  502 -0.21351809927E+02 -0.20414396041E+02  0.21995321354E+03  0.22192805929E+03  0.00000000000E+00 0. -1.
          1    1    1    2  501    0 -0.17635976062E+02  0.73299408507E+02  0.28617328294E+03  0.29593745759E+03  0.00000000000E+00 0. -1.
<scales pt_clust_5="13000.00000" pt_clust_6="13000.00000" pt_clust_7="13000.00000" pt_clust_8="13000.00000" pt_clust_9="29.54061" pt_clust_10="69.93435"></scales>
<clustering>
<clus scale="   29.541">  1  9  2 -1</clus>
<clus scale="   69.934">  2 10  1 -1</clus>
<clus scale="   80.245">  5  6 -1 -1</clus>
<clus scale="   92.108">  7  8 -1 -1</clus>
<clus scale="   98.487">  1  5  2 -1</clus>
<clus scale="   69.934">  2  5  1 -1</clus>
</clustering>
</event>
<event>
10    4  0.2977685E-005  0.2543393E+03  0.7546771E-02  0.1111309E+00
         21   -1    0    0  501  502  0.00000000000E+00  0.00000000000E+00  0.59452073352E+02  0.59452073352E+02  0.00000000000E+00 0. -1.
          2   -1    0    0  503    0 -0.00000000000E+00 -0.00000000000E+00 -0.22442659255E+04  0.22442659255E+04  0.00000000000E+00 0. -1.
         24    2    1    2    0    0  0.17156133622E+03  0.14910992583E+03 -0.67494003827E+03  0.71639397067E+03  0.77519054969E+02 0.  0.
         23    2    1    2    0    0 -0.25986712491E+03 -0.69165705440E+02 -0.76508443287E+03  0.81608296835E+03  0.91227212939E+02 0.  0.
        -13    1    3    3    0    0  0.62354249440E+02  0.14365475985E+02 -0.23333915513E+03  0.24195367457E+03  0.00000000000E+00 0.  1.
         14    1    3    3    0    0  0.10920708678E+03  0.13474444985E+03 -0.44160088314E+03  0.47444029609E+03  0.00000000000E+00 0. -1.
        -11    1    4    4    0    0 -0.69565324916E+02  0.21497348085E+02 -0.17892662552E+03  0.19317403481E+03  0.00000000000E+00 0.  1.
         11    1    4    4    0    0 -0.19030179999E+03 -0.90663053525E+02 -0.58615780735E+03  0.62290893353E+03  0.00000000000E+00 0. -1.
         21    1    1    2  503  502  0.26955709123E+02 -0.11503942241E+03 -0.58034759723E+03  0.59225333480E+03  0.00000000000E+00 0.  1.
          1    1    1    2  501    0  0.61350079563E+02  0.35095202015E+02 -0.16444178382E+03  0.17898772509E+03  0.00000000000E+00 0. -1.
<scales pt_clust_5="13000.00000" pt_clust_6="13000.00000" pt_clust_7="13000.00000" pt_clust_8="13000.00000" pt_clust_9="116.11129" pt_clust_10="70.67889"></scales>
<clustering>
<clus scale="   70.679">  1 10  2 -1</clus>
<clus scale="   77.519">  5  6 -1 -1</clus>
<clus scale="   91.227">  7  8 -1 -1</clus>
<clus scale="  116.111">  2  9  1 -1</clus>
<clus scale="  249.750">  2  5  1 -1</clus>
<clus scale="   70.679">  1  5  2 -1</clus>
</clustering>
</event>
<event>
10    4  0.2977685E-005  0.1662412E+03  0.7546771E-02  0.1197876E+00
          2   -1    0    0  503    0 -0.00000000000E+00  0.00000000000E+00  0.96725180955E+03  0.96725180955E+03  0.00000000000E+00 0. -1.
         21   -1    0    0  501  502  0.00000000000E+00 -0.00000000000E+00 -0.10880177467E+03  0.10880177467E+03  0.00000000000E+00 0. -1.
         24    2    1    2    0    0  0.12711543476E+02 -0.82565125225E+02 -0.18001793711E+02  0.11728889915E+03  0.80337027858E+02 0.  0.
         23    2    1    2    0    0  0.67633375382E+02 -0.83939935938E+02  0.23390959545E+03  0.27286902078E+03  0.90131111992E+02 0.  0.
        -13    1    3    3    0    0  0.13482211928E+02 -0.77616184777E+02  0.18108495661E+02  0.80832912807E+02  0.00000000000E+00 0.  1.
         14    1    3    3    0    0 -0.77066845207E+00 -0.49489404485E+01 -0.36110289372E+02  0.36455986339E+02  0.00000000000E+00 0. -1.
        -13    1    4    4    0    0  0.14517861957E+02 -0.86045088867E+02  0.15016721649E+03  0.17367993131E+03  0.00000000000E+00 0. -1.
         13    1    4    4    0    0  0.53115513425E+02  0.21051529292E+01  0.83742378960E+02  0.99189089466E+02  0.00000000000E+00 0.  1.
         21    1    1    2  503  502  0.23445103678E+02 -0.12424517320E+02  0.13920759788E+03  0.14171378488E+03  0.00000000000E+00 0. -1.
          1    1    1    2  501    0 -0.10379002254E+03  0.17892957848E+03  0.50333463526E+03  0.54418187942E+03  0.00000000000E+00 0. -1.
<scales pt_clust_5="13000.00000" pt_clust_6="13000.00000" pt_clust_7="13000.00000" pt_clust_8="13000.00000" pt_clust_9="26.53378" pt_clust_10="139.68727"></scales>
<clustering>
<clus scale="   26.534">  1  9  2 -1</clus>
<clus scale="   80.337">  5  6 -1 -1</clus>
<clus scale="   90.131">  7  8 -1 -1</clus>
<clus scale="  116.594">  1  5  2 -1</clus>
<clus scale="  139.687">  2 10  1 -1</clus>
<clus scale="  139.687">  2  5  1 -1</clus>
</clustering>
</event>
<event>
10    4  0.2977685E-005  0.1041761E+03  0.7546771E-02  0.1275013E+00
          2   -1    0    0  503    0 -0.00000000000E+00  0.00000000000E+00  0.53432503664E+03  0.53432503664E+03  0.00000000000E+00 0. -1.
         21   -1    0    0  501  502  0.00000000000E+00 -0.00000000000E+00 -0.51770914052E+02  0.51770914052E+02  0.00000000000E+00 0. -1.
         24    2    1    2    0    0 -0.21130139975E+02  0.44736769432E+02  0.21807006744E+03  0.23688280559E+03  0.78173191795E+02 0.  0.
         23    2    1    2    0    0 -0.46628134981E+02 -0.75185412719E+02  0.15631378122E+03  0.19912743805E+03  0.85969233618E+02 0.  0.
        -11    1    3    3    0    0  0.20226953024E+02 -0.85719467521E+01  0.30820211360E+02  0.37848293595E+02  0.00000000000E+00 0.  1.
         12    1    3    3    0    0 -0.41357092999E+02  0.53308716184E+02  0.18724985608E+03  0.19903451199E+03  0.00000000000E+00 0. -1.
        -13    1    4    4    0    0  0.36992247766E+01 -0.28369756684E+02  0.26488510868E+00  0.28611143325E+02  0.00000000000E+00 0.  1.
         13    1    4    4    0    0 -0.50327359757E+02 -0.46815656035E+02  0.15604889611E+03  0.17051629473E+03  0.00000000000E+00 0. -1.
         21    1    1    2  503  502  0.38253215382E+02  0.96433012887E+01  0.10691507591E+03  0.11396111268E+03  0.00000000000E+00 0. -1.
          1    1    1    2  501    0  0.29505059574E+02  0.20805341998E+02  0.12551980153E+01  0.36124594367E+02  0.00000000000E+00 0. -1.
<scales pt_clust_5="13000.00000" pt_clust_6="13000.00000" pt_clust_7="13000.00000" pt_clust_8="13000.00000" pt_clust_9="42.92790" pt_clust_10="36.10278"></scales>
<clustering>
<clus scale="   36.103">  2 10  1 -1</clus>
<clus scale="   42.928">  1  9  2 -1</clus>
<clus scale="   78.173">  5  6 -1 -1</clus>
<clus scale="   85.969">  7  8 -1 -1</clus>
<clus scale="   97.842">  1  5  2 -1</clus>
<clus scale="   36.103">  2  5  1 -1</clus>
</clustering>
</event>
<event>
10    4  0.2977685E-005  0.9993415E+02  0.7546771E-02  0.1285451E+00
         21   -1    0    0  503  502  0.00000000000E+00  0.00000000000E+00  0.14507767495E+03  0.14507767495E+03  0.00000000000E+00 0. -1.
         -3   -1    0    0    0  501 -0.00000000000E+00 -0.00000000000E+00 -0.15496338257E+03  0.15496338257E+03  0.00000000000E+00 0.  1.
         24    2    1    2    0    0  0.40084198546E+02 -0.18049219344E+01 -0.38035789259E+02  0.97638177506E+02  0.80476653296E+02 0.  0.
         23    2    1    2    0    0 -0.29431198753E+02 -0.21681843946E+02  0.60079058582E+02  0.11467636368E+03  0.90580777709E+02 0.  0.
        -13    1    3    3    0    0  0.25585490495E+02  0.27192354321E+02  0.10937811666E+02  0.38906004439E+02  0.00000000000E+00 0.  1.
         14    1    3    3    0    0  0.14498708052E+02 -0.28997276256E+02 -0.48973600926E+02  0.58732173066E+02  0.00000000000E+00 0. -1.
        -11    1    4    4    0    0  0.30307358331E+02 -0.12672058417E+02  0.38296344728E+02  0.50455198474E+02  0.00000000000E+00 0. -1.
         11    1    4    4    0    0 -0.59738557085E+02 -0.90097855288E+01  0.21782713854E+02  0.64221165208E+02  0.00000000000E+00 0.  1.
         21    1    1    2  503  501  0.14724269001E+02 -0.14911806119E+02 -0.35857755988E+02  0.41532453863E+02  0.00000000000E+00 0.  1.
         -4    1    1    2    0  502 -0.25377268794E+02  0.38398571999E+02  0.39287790495E+01  0.46194062474E+02  0.00000000000E+00 0.  1.
<scales pt_clust_5="13000.00000" pt_clust_6="13000.00000" pt_clust_7="13000.00000" pt_clust_8="13000.00000" pt_clust_9="20.95629" pt_clust_10="42.29644"></scales>
<clustering>
<clus scale="   20.956">  2  9  1 -1</clus>
<clus scale="   42.296">  1 10  2 -1</clus>
<clus scale="   80.477">  5  6 -1 -1</clus>
<clus scale="   90.581">  7  8 -1 -1</clus>
<clus scale="   90.876">  2  5  1 -1</clus>
<clus scale="   42.296">  1  5  2 -1</clus>
</clustering>
</event>
<event>
10    4  0.2977685E-005  0.3669816E+03  0.7546771E-02  0.1077022E+00
          4   -1    0    0  503    0 -0.00000000000E+00  0.00000000000E+00  0.56158500959E+03  0.56158500959E+03  0.00000000000E+00 0. -1.
         21   -1    0    0  501  502  0.00000000000E+00 -0.00000000000E+00 -0.81630763257E+03  0.81630763257E+03  0.00000000000E+00 0.  1.
         24    2    1    2    0    0 -0.17551933936E+03 -0.57554737457E+02 -0.33484565952E+02  0.20365339443E+03  0.78955067061E+02 0.  0.
         23    2    1    2    0    0 -0.20836896892E+03  0.27814805866E+03 -0.50303738050E+03  0.61786503483E+03  0.89031597393E+02 0.  0.
        -13    1    3    3    0    0 -0.10267922956E+03 -0.59720399215E+02 -0.50090178448E+02  0.12891305691E+03  0.00000000000E+00 0.  1.
         14    1    3    3    0    0 -0.72840109804E+02  0.21656617574E+01  0.16605612496E+02  0.74740337526E+02  0.00000000000E+00 0. -1.
        -11    1    4    4    0    0 -0.54452954331E+02  0.13910023432E+03 -0.24287561235E+03  0.28513604209E+03  0.00000000000E+00 0.  1.
         11    1    4    4    0    0 -0.15391601459E+03  0.13904782434E+03 -0.26016176815E+03  0.33272899274E+03  0.00000000000E+00 0. -1.
         21    1    1    2  503  502 -0.19934462119E+02 -0.15762630731E+02  0.25809283313E+02  0.36221021696E+02  0.00000000000E+00 0. -1.
          3    1    1    2  501    0  0.40382277040E+03 -0.20483069047E+03  0.25599004017E+03  0.52015319120E+03  0.00000000000E+00 0. -1.
<scales pt_clust_5="13000.00000" pt_clust_6="13000.00000" pt_clust_7="13000.00000" pt_clust_8="13000.00000" pt_clust_9="25.41345" pt_clust_10="356.01830"></scales>
<clustering>
<clus scale="   25.413">  1  9  2 -1</clus>
<clus scale="   78.955">  5  6 -1 -1</clus>
<clus scale="   89.032">  7  8 -1 -1</clus>
<clus scale="  204.410">  1  5  2 -1</clus>
<clus scale="  356.018">  2 10  1 -1</clus>
<clus scale="  356.018">  2  5  1 -1</clus>
</clustering>
</event>
<event>
10    4  0.2977685E-005  0.1159145E+03  0.7546771E-02  0.1254869E+00
          2   -1    0    0  503    0 -0.00000000000E+00  0.00000000000E+00  0.39160683083E+03  0.39160683083E+03  0.00000000000E+00 0. -1.
         21   -1    0    0  501  502  0.00000000000E+00 -0.00000000000E+00 -0.51980255518E+03  0.51980255518E+03  0.00000000000E+00 0. -1.
         24    2    1    2    0    0  0.67664457935E+01  0.10652710488E+03  0.22718297485E+03  0.26273676311E+03  0.77618900822E+02 0.  0.
         23    2    1    2    0    0  0.13161935767E+02 -0.14356135729E+02 -0.18499299941E+03  0.20735571839E+03  0.91622316799E+02 0.  0.
        -13    1    3    3    0    0 -0.26200644887E+02  0.88280779311E+01  0.63862512765E+02  0.69590439639E+02  0.00000000000E+00 0.  1.
         14    1    3    3    0    0  0.32967090680E+02  0.97699026947E+02  0.16332046208E+03  0.19314632347E+03  0.00000000000E+00 0. -1.
        -11    1    4    4    0    0 -0.27593104324E+02  0.23122139376E+02 -0.96189453599E+02  0.10270551942E+03  0.00000000000E+00 0. -1.
         11    1    4    4    0    0  0.40755040091E+02 -0.37478275105E+02 -0.88803545806E+02  0.10465019897E+03  0.00000000000E+00 0.  1.
         21    1    1    2  503  502 -0.19680948967E+02 -0.33978535690E+02  0.12976556804E+03  0.13557648502E+03  0.00000000000E+00 0.  1.
          1    1    1    2  501    0 -0.24743259307E+00 -0.58192433459E+02 -0.30015126783E+03  0.30574041950E+03  0.00000000000E+00 0. -1.
<scales pt_clust_5="13000.00000" pt_clust_6="13000.00000" pt_clust_7="13000.00000" pt_clust_8="13000.00000" pt_clust_9="39.26679" pt_clust_10="58.56095"></scales>
<clustering>
<clus scale="   39.267">  1  9  2 -1</clus>
<clus scale="   58.561">  2 10  1 -1</clus>
<clus scale="   77.619">  5  6 -1 -1</clus>
<clus scale="   91.622">  7  8 -1 -1</clus>
<clus scale="  105.196">  1  5  2 -1</clus>
<clus scale="   58.561">  2  5  1 -1</clus>
</clustering>
</event>
<event>
10    4  0.2977685E-005  0.1555509E+03  0.7546771E-02  0.1194467E+00
          2   -1    0    0  503    0 -0.00000000000E+00  0.00000000000E+00  0.72197758610E+03  0.72197758610E+03  0.00000000000E+00 0. -1.
         21   -1    0    0  501  502  0.00000000000E+00 -0.00000000000E+00 -0.11333428709E+03  0.11333428709E+03  0.00000000000E+00 0. -1.
         23    2    1    2    0    0 -0.90680696600E+02 -0.55429537545E+02  0.30583082594E+03  0.33637598236E+03  0.91218885337E+02 0.  0.
         24    2    1    2    0    0  0.15835892196E+03  0.41402801248E+02  0.24083920102E+03  0.30626870112E+03  0.94896029522E+02 0.  0.
        -13    1    4    4    0    0  0.26486364770E+02 -0.15464363106E+02  0.10202304541E+03  0.10653344939E+03  0.00000000000E+00 0.  1.
         14    1    4    4    0    0  0.13187255719E+03  0.56867164354E+02  0.13881615561E+03  0.19973525172E+03  0.00000000000E+00 0. -1.
        -13    1    3    3    0    0 -0.45439005602E+02 -0.21890780028E+02  0.25679776284E+03  0.26170403222E+03  0.00000000000E+00 0. -1.
         13    1    3    3    0    0 -0.45241690998E+02 -0.33538757516E+02  0.49033063100E+02  0.74671950136E+02  0.00000000000E+00 0.  1.
         21    1    1    2  503  502 -0.41098325320E+02  0.62537866379E+02  0.10046808198E+03  0.12527526720E+03  0.00000000000E+00 0. -1.
          1    1    1    2  501    0 -0.26579900043E+02 -0.48511130082E+02 -0.38494809936E+02  0.67391922514E+02  0.00000000000E+00 0. -1.
<scales pt_clust_5="13000.00000" pt_clust_6="13000.00000" pt_clust_7="13000.00000" pt_clust_8="13000.00000" pt_clust_9="70.22574" pt_clust_10="55.31565"></scales>
<clustering>
<clus scale="   55.316">  2 10  1 -1</clus>
<clus scale="   70.226">  2  9  1 -1</clus>
<clus scale="   91.219">  7  8 -1 -1</clus>
<clus scale="   94.896">  5  6 -1 -1</clus>
<clus scale="  153.335">  1  7  2 -1</clus>
<clus scale="   55.316">  2  5  1 -1</clus>
</clustering>
</event>
<event>
10    4  0.2977685E-005  0.4036622E+03  0.7546771E-02  0.1042680E+00
          2   -1    0    0  503    0 -0.00000000000E+00  0.00000000000E+00  0.29255058374E+04  0.29255058374E+04  0.00000000000E+00 0. -1.
         21   -1    0    0  501  502  0.00000000000E+00 -0.00000000000E+00 -0.87351379123E+02  0.87351379123E+02  0.00000000000E+00 0. -1.
         24    2    1    2    0    0 -0.41215373526E+03  0.10150792760E+03  0.17298604405E+04  0.17830198497E+04  0.81043691033E+02 0.  0.
         23    2    1    2    0    0  0.32976659666E+03 -0.55263449165E+02  0.51424349061E+03  0.61993893751E+03  0.89876924256E+02 0.  0.
        -13    1    3    3    0    0 -0.25891183463E+03  0.38049386263E+02  0.92843427675E+03  0.96461043958E+03  0.00000000000E+00 0.  1.
         14    1    3    3    0    0 -0.15324190063E+03  0.63458541336E+02  0.80142616378E+03  0.81840941012E+03  0.00000000000E+00 0. -1.
        -13    1    4    4    0    0  0.17333207031E+03  0.12052185606E+02  0.29439471803E+03  0.34184428002E+03  0.00000000000E+00 0.  1.
         13    1    4    4    0    0  0.15643452635E+03 -0.67315634771E+02  0.21984877258E+03  0.27809465749E+03  0.00000000000E+00 0. -1.
         21    1    1    2  503  502  0.74031387540E+01  0.28086117219E+02  0.19342600373E+03  0.19559461998E+03  0.00000000000E+00 0.  1.
          1    1    1    2  501    0  0.74983999840E+02 -0.74330595652E+02  0.40062452341E+03  0.41430380934E+03  0.00000000000E+00 0. -1.
<scales pt_clust_5="13000.00000" pt_clust_6="13000.00000" pt_clust_7="13000.00000" pt_clust_8="13000.00000" pt_clust_9="29.04542" pt_clust_10="103.48487"></scales>
<clustering>
<clus scale="   29.045">  1  9  2 -1</clus>
<clus scale="   81.044">  5  6 -1 -1</clus>
<clus scale="   89.877">  7  8 -1 -1</clus>
<clus scale="  103.485">  2 10  1 -1</clus>
<clus scale="  401.788">  1  5  2 -1</clus>
<clus scale="  103.485">  2  5  1 -1</clus>
</clustering>
</event>
<event>
10    4  0.2977685E-005  0.2357270E+03  0.7546771E-02  0.1137722E+00
         -1   -1    0    0    0  501 -0.00000000000E+00  0.00000000000E+00  0.55988413287E+03  0.55988413287E+03  0.00000000000E+00 0.  1.
         21   -1    0    0  503  502  0.00000000000E+00 -0.00000000000E+00 -0.83758931090E+03  0.83758931090E+03  0.00000000000E+00 0.  1.
         24    2    1    2    0    0  0.13836493101E+03  0.24804417081E+02 -0.27776127567E+03  0.32172708864E+03  0.81221179889E+02 0.  0.
         23    2    1    2    0    0 -0.14866684136E+03 -0.25773720274E+03  0.39201493510E+03  0.50049443676E+03  0.91042168717E+02 0.  0.
        -13    1    3    3    0    0  0.11938764837E+03 -0.12788528312E+02 -0.21188887930E+03  0.24354435779E+03  0.00000000000E+00 0.  1.
         14    1    3    3    0    0  0.18977282637E+02  0.37592945393E+02 -0.65872396370E+02  0.78182730850E+02  0.00000000000E+00 0. -1.
        -11    1    4    4    0    0 -0.11484772036E+02 -0.38373445557E+02  0.14028443052E+02  0.42440764922E+02  0.00000000000E+00 0. -1.
         11    1    4    4    0    0 -0.13718206932E+03 -0.21936375719E+03  0.37798649205E+03  0.45805367184E+03  0.00000000000E+00 0.  1.
         21    1    1    2  503  501  0.11501356334E+02  0.17766326718E+02  0.65974746783E+02  0.69286295728E+02  0.00000000000E+00 0.  1.
         -2    1    1    2    0  502 -0.11994459857E+01  0.21516645894E+03 -0.45793358425E+03  0.50596562265E+03  0.00000000000E+00 0.  1.
<scales pt_clust_5="13000.00000" pt_clust_6="13000.00000" pt_clust_7="13000.00000" pt_clust_8="13000.00000" pt_clust_9="21.16420" pt_clust_10="217.43629"></scales>
<clustering>
<clus scale="   21.164">  1  9  2 -1</clus>
<clus scale="   81.221">  5  6 -1 -1</clus>
<clus scale="   91.042">  7  8 -1 -1</clus>
<clus scale="  162.909">  1  5  2 -1</clus>
<clus scale="  217.436">  2 10  1 -1</clus>
<clus scale="  217.436">  2  5  1 -1</clus>
</clustering>
</event>
<event>
10    4  0.2977685E-005  0.1648938E+03  0.7546771E-02  0.1208464E+00
          2   -1    0    0  503    0 -0.00000000000E+00  0.00000000000E+00  0.66415549813E+03  0.66415549813E+03  0.00000000000E+00 0. -1.
         21   -1    0    0  501  502  0.00000000000E+00 -0.00000000000E+00 -0.44594102715E+03  0.44594102715E+03  0.00000000000E+00 0. -1.
         24    2    1    2    0    0  0.50838136206E+02  0.16659115355E+02  0.35193192785E+03  0.36423220142E+03  0.77116616223E+02 0.  0.
         23    2    1    2    0    0 -0.91971217747E+02 -0.14590768914E+03 -0.13146674563E+02  0.19619946802E+03  0.92593939082E+02 0.  0.
        -11    1    3    3    0    0  0.48161074252E+02 -0.23003799078E+02  0.17886742296E+03  0.18666070514E+03  0.00000000000E+00 0.  1.
         12    1    3    3    0    0  0.26770619539E+01  0.39662914433E+02  0.17306450489E+03  0.17757149629E+03  0.00000000000E+00 0. -1.
        -11    1    4    4    0    0 -0.46051187716E+02 -0.10455634501E+03 -0.49492969616E+02  0.12450821343E+03  0.00000000000E+00 0.  1.
         11    1    4    4    0    0 -0.45920030031E+02 -0.41351344130E+02  0.36346295053E+02  0.71691254581E+02  0.00000000000E+00 0. -1.
         21    1    1    2  503  502  0.17352225617E+01  0.11357093856E+03  0.19800995918E+03  0.22827464383E+03  0.00000000000E+00 0. -1.
          1    1    1    2  501    0  0.39397858979E+02  0.15677635220E+02 -0.31858074148E+03  0.32139021202E+03  0.00000000000E+00 0. -1.
<scales pt_clust_5="13000.00000" pt_clust_6="13000.00000" pt_clust_7="13000.00000" pt_clust_8="13000.00000" pt_clust_9="136.44166" pt_clust_10="42.40259"></scales>
<clustering>
<clus scale="   42.403">  2 10  1 -1</clus>
<clus scale="   77.117">  5  6 -1 -1</clus>
<clus scale="   92.594">  7  8 -1 -1</clus>
<clus scale="   95.049">  1  5  2 -1</clus>
<clus scale="  136.442">  1  9  2 -1</clus>
<clus scale="   42.403">  2  5  1 -1</clus>
</clustering>
</event>
<event>
10    4  0.2977685E-005  0.3083178E+03  0.7546771E-02  0.1081614E+00
         -3   -1    0    0    0  501 -0.00000000000E+00  0.00000000000E+00  0.30724665842E+03  0.30724665842E+03  0.00000000000E+00 0.  1.
         21   -1    0    0  501  502  0.00000000000E+00 -0.00000000000E+00 -0.49022927944E+03  0.49022927944E+03  0.00000000000E+00 0. -1.
         23    2    1    2    0    0  0.34283176842E+02  0.26880929629E+03 -0.74304653711E+01  0.28603377973E+03  0.91248766266E+02 0.  0.
         24    2    1    2    0    0 -0.44950862082E+02 -0.34268069874E+03 -0.22050285600E+03  0.41722989230E+03  0.77515367704E+02 0.  0.
        -11    1    4    4    0    0  0.89198826200E+01 -0.12036375436E+03 -0.10952218933E+03  0.16297885638E+03  0.00000000000E+00 0.  1.
         12    1    4    4    0    0 -0.53870744702E+02 -0.22231694438E+03 -0.11098066668E+03  0.25425103592E+03  0.00000000000E+00 0. -1.
        -11    1    3    3    0    0 -0.31062474007E+02  0.69977992979E+02  0.10232342162E+01  0.76569209223E+02  0.00000000000E+00 0.  1.
         11    1    3    3    0    0  0.65345650849E+02  0.19883130331E+03 -0.84536995872E+01  0.20946457051E+03  0.00000000000E+00 0. -1.
         21    1    1    2  503  502 -0.94431368747E+01  0.44777980713E+02  0.34570031160E+02  0.57352658571E+02  0.00000000000E+00 0.  1.
         -4    1    1    2    0  503  0.20110822114E+02  0.29093421737E+02  0.10380669203E+02  0.36859607263E+02  0.00000000000E+00 0.  1.
<scales pt_clust_5="13000.00000" pt_clust_6="13000.00000" pt_clust_7="13000.00000" pt_clust_8="13000.00000" pt_clust_9="31.50873" pt_clust_10="82.79730"></scales>
<clustering>
<clus scale="   31.509">  9 10 -1 -1</clus>
<clus scale="   77.515">  5  6 -1 -1</clus>
<clus scale="   82.797">  2  9  1 -1</clus>
<clus scale="   91.249">  7  8 -1 -1</clus>
<clus scale="  304.536">  2  5  1 -1</clus>
<clus scale="   82.797">  2  5  1 -1</clus>
</clustering>
</event>
<event>
10    4  0.2977685E-005  0.1652010E+03  0.7546771E-02  0.1183846E+00
          2   -1    0    0  503    0 -0.00000000000E+00  0.00000000000E+00  0.55811468118E+03  0.55811468118E+03  0.00000000000E+00 0. -1.
         21   -1    0    0  501  502  0.00000000000E+00 -0.00000000000E+00 -0.22221060403E+03  0.22221060403E+03  0.00000000000E+00 0. -1.
         23    2    1    2    0    0  0.18303554392E+03  0.76576197986E+02  0.20512519170E+03  0.29947311165E+03  0.90784777886E+02 0.  0.
         24    2    1    2    0    0 -0.17457285356E+02 -0.11860740886E+03 -0.33868167609E+02  0.15062099726E+03  0.84659067970E+02 0.  0.
        -13    1    4    4    0    0  0.23550238843E+02 -0.19950090627E+02 -0.30995756117E+02  0.43741933688E+02  0.00000000000E+00 0.  1.
         14    1    4    4    0    0 -0.41007524199E+02 -0.98657318233E+02 -0.28724114925E+01  0.10687906357E+03  0.00000000000E+00 0. -1.
        -11    1    3    3    0    0  0.60716953317E+02 -0.15417523346E+02  0.39993959287E+02  0.74322037281E+02  0.00000000000E+00 0.  1.
         11    1    3    3    0    0  0.12231859061E+03  0.91993721332E+02  0.16513123241E+03  0.22515107437E+03  0.00000000000E+00 0. -1.
         21    1    1    2  503  502 -0.13209883696E+03  0.71530323512E+02  0.21542699169E+03  0.26263183101E+03  0.00000000000E+00 0. -1.
          1    1    1    2  501    0 -0.33479421609E+02 -0.29499112637E+02 -0.50779938624E+02  0.67599345295E+02  0.00000000000E+00 0. -1.
<scales pt_clust_5="13000.00000" pt_clust_6="13000.00000" pt_clust_7="13000.00000" pt_clust_8="13000.00000" pt_clust_9="152.57144" pt_clust_10="44.62140"></scales>
<clustering>
<clus scale="   44.621">  2 10  1 -1</clus>
<clus scale="   84.659">  5  6 -1 -1</clus>
<clus scale="   90.785">  7  8 -1 -1</clus>
<clus scale="  152.571">  1  9  2 -1</clus>
<clus scale="  161.916">  2  5  1 -1</clus>
<clus scale="   44.621">  2  5  1 -1</clus>
</clustering>
</event>
<event>
10    4  0.2977685E-005  0.1262531E+03  0.7546771E-02  0.1236372E+00
         21   -1    0    0  503  502  0.00000000000E+00  0.00000000000E+00  0.23850289521E+03  0.23850289521E+03  0.00000000000E+00 0. -1.
         -3   -1    0    0    0  501 -0.00000000000E+00 -0.00000000000E+00 -0.19518956470E+03  0.19518956470E+03  0.00000000000E+00 0.  1.
         24    2    1    2    0    0 -0.53369374050E+02  0.69608726003E+02 -0.57964239408E+02  0.13242525323E+03  0.80516643133E+02 0.  0.
         23    2    1    2    0    0  0.12130429639E+01 -0.11406441175E+03  0.13972693444E+03  0.20249744104E+03  0.92029538282E+02 0.  0.
        -11    1    3    3    0    0 -0.72069923384E+02  0.65868090296E+02 -0.37872111302E+02  0.10472333069E+03  0.00000000000E+00 0.  1.
         12    1    3    3    0    0  0.18700549334E+02  0.37406357064E+01 -0.20092128106E+02  0.27701922545E+02  0.00000000000E+00 0. -1.
        -13    1    4    4    0    0  0.17701620297E+02 -0.42218207226E+02  0.11656171656E+03  0.12522922243E+03  0.00000000000E+00 0.  1.
         13    1    4    4    0    0 -0.16488577333E+02 -0.71846204524E+02  0.23165217879E+02  0.77268218605E+02  0.00000000000E+00 0. -1.
         21    1    1    2  503  501  0.39249927030E+02  0.96261033353E+01 -0.45613680087E+02  0.60941172030E+02  0.00000000000E+00 0.  1.
         -4    1    1    2    0  502  0.12906404056E+02  0.34829582413E+02  0.71643155600E+01  0.37828593605E+02  0.00000000000E+00 0.  1.
<scales pt_clust_5="13000.00000" pt_clust_6="13000.00000" pt_clust_7="13000.00000" pt_clust_8="13000.00000" pt_clust_9="41.16663" pt_clust_10="37.14398"></scales>
<clustering>
<clus scale="   37.144">  1 10  2 -1</clus>
<clus scale="   41.167">  2  9  1 -1</clus>
<clus scale="   80.517">  5  6 -1 -1</clus>
<clus scale="   92.030">  7  8 -1 -1</clus>
<clus scale="  118.124">  2  5  1 -1</clus>
<clus scale="   37.144">  1  5  2 -1</clus>
</clustering>
</event>
<event>
10    4  0.2977685E-005  0.1729785E+03  0.7546771E-02  0.1176416E+00
          2   -1    0    0  503    0 -0.00000000000E+00  0.00000000000E+00  0.25426385047E+03  0.25426385047E+03  0.00000000000E+00 0. -1.
         21   -1    0    0  501  502  0.00000000000E+00 -0.00000000000E+00 -0.27350447641E+03  0.27350447641E+03  0.00000000000E+00 0.  1.
         24    2    1    2    0    0  0.15697576906E+03  0.21789037080E+02 -0.11705594153E+02  0.17808125458E+03  0.80372620264E+02 0.  0.
         23    2    1    2    0    0 -0.13453930697E+03  0.84168796446E+02 -0.74852805205E+02  0.19846843045E+03  0.92744617220E+02 0.  0.
        -13    1    3    3    0    0  0.12920692396E+03 -0.19186711449E+01 -0.36100481890E+02  0.13416912943E+03  0.00000000000E+00 0.  1.
         14    1    3    3    0    0  0.27768845100E+02  0.23707708225E+02  0.24394887737E+02  0.43912125150E+02  0.00000000000E+00 0. -1.
        -11    1    4    4    0    0 -0.93100918437E+02  0.88314328929E+02 -0.87061358313E+02  0.15507057045E+03  0.00000000000E+00 0.  1.
         11    1    4    4    0    0 -0.41438388531E+02 -0.41455324826E+01  0.12208553109E+02  0.43397860000E+02  0.00000000000E+00 0. -1.
         21    1    1    2  503  502 -0.27928523204E+02 -0.27820955433E+01  0.30709625900E+02  0.41603167991E+02  0.00000000000E+00 0.  1.
          1    1    1    2  501    0  0.54920611095E+01 -0.10317573798E+03  0.36608147519E+02  0.10961547385E+03  0.00000000000E+00 0. -1.
<scales pt_clust_5="13000.00000" pt_clust_6="13000.00000" pt_clust_7="13000.00000" pt_clust_8="13000.00000" pt_clust_9="28.06675" pt_clust_10="104.18028"></scales>
<clustering>
<clus scale="   28.067">  1  9  2 -1</clus>
<clus scale="   80.373">  5  6 -1 -1</clus>
<clus scale="   92.745">  7  8 -1 -1</clus>
<clus scale="  104.180">  2 10  1 -1</clus>
<clus scale="  166.673">  1  5  2 -1</clus>
<clus scale="  104.180">  2  5  1 -1</clus>
</clustering>
</event>
<event>
10    4  0.2977685E-005  0.2895467E+03  0.7546771E-02  0.1100637E+00
          2   -1    0    0  502    0 -0.00000000000E+00  0.00000000000E+00  0.26516949664E+04  0.26516949664E+04  0.00000000000E+00 0. -1.
         21   -1    0    0  503  502  0.00000000000E+00 -0.00000000000E+00 -0.86094385649E+02  0.86094385649E+02  0.00000000000E+00 0.  1.
         23    2    1    2    0    0 -0.19533390279E+03 -0.35261634161E+02  0.65013949260E+03  0.68591682585E+03  0.91661418924E+02 0.  0.
         24    2    1    2    0    0  0.16609126650E+03  0.26225466655E+03  0.40214907588E+03  0.51434537125E+03  0.80395663859E+02 0.  0.
        -11    1    4    4    0    0  0.54089472506E+02  0.14367220701E+03  0.15447556399E+03  0.21778446679E+03  0.00000000000E+00 0.  1.
         12    1    4    4    0    0  0.11200179399E+03  0.11858245953E+03  0.24767351189E+03  0.29656090447E+03  0.00000000000E+00 0. -1.
        -13    1    3    3    0    0 -0.25401418915E+02  0.22151274161E+02  0.56683509268E+02  0.65946427142E+02  0.00000000000E+00 0. -1.
         13    1    3    3    0    0 -0.16993248387E+03 -0.57412908322E+02  0.59345598333E+03  0.61997039871E+03  0.00000000000E+00 0.  1.
         21    1    1    2  503  501 -0.22091785719E+02  0.77200891444E+01  0.58465748461E+02  0.62975316718E+02  0.00000000000E+00 0.  1.
          1    1    1    2  501    0  0.51334422010E+02 -0.23471312153E+03  0.14548462638E+04  0.14745518382E+04  0.00000000000E+00 0. -1.
<scales pt_clust_5="13000.00000" pt_clust_6="13000.00000" pt_clust_7="13000.00000" pt_clust_8="13000.00000" pt_clust_9="23.40185" pt_clust_10="278.16167"></scales>
<clustering>
<clus scale="   23.402">  2  9  1 -1</clus>
<clus scale="   80.396">  5  6 -1 -1</clus>
<clus scale="   91.661">  7  8 -1 -1</clus>
<clus scale="  222.600">  1  7  2 -1</clus>
<clus scale="  278.162">  2 10  1 -1</clus>
<clus scale="   23.402">  2  5  1 -1</clus>
</clustering>
</event>
<event>
10    4  0.2977685E-005  0.1271257E+03  0.7546771E-02  0.1234992E+00
          2   -1    0    0  503    0 -0.00000000000E+00  0.00000000000E+00  0.26038040571E+03  0.26038040571E+03  0.00000000000E+00 0. -1.
         21   -1    0    0  501  502  0.00000000000E+00 -0.00000000000E+00 -0.41551883259E+03  0.41551883259E+03  0.00000000000E+00 0.  1.
         23    2    1    2    0    0 -0.10858314007E+03 -0.84565967481E+02 -0.13210001588E+03  0.21150594515E+03  0.91338105272E+02 0.  0.
         24    2    1    2    0    0  0.60181600678E+02 -0.33270739276E+02 -0.16732749661E+03  0.19767469066E+03  0.79674494384E+02 0.  0.
        -11    1    4    4    0    0  0.23180579068E+02  0.19090384047E+01 -0.13556377107E+03  0.13754460986E+03  0.00000000000E+00 0.  1.
         12    1    4    4    0    0  0.37001021610E+02 -0.35179777680E+02 -0.31763725539E+02  0.60130080807E+02  0.00000000000E+00 0. -1.
        -11    1    3    3    0    0 -0.44622937105E+02 -0.11176422278E+01 -0.26198786275E+01  0.44713749608E+02  0.00000000000E+00 0. -1.
         11    1    3    3    0    0 -0.63960202969E+02 -0.83448325253E+02 -0.12948013725E+03  0.16679219554E+03  0.00000000000E+00 0.  1.
         21    1    1    2  503  502 -0.83160464969E+01  0.81019794966E+02  0.17456564576E+03  0.19263054920E+03  0.00000000000E+00 0. -1.
          1    1    1    2  501    0  0.56717585893E+02  0.36816911791E+02 -0.30276560163E+02  0.74088053279E+02  0.00000000000E+00 0. -1.
<scales pt_clust_5="13000.00000" pt_clust_6="13000.00000" pt_clust_7="13000.00000" pt_clust_8="13000.00000" pt_clust_9="82.22558" pt_clust_10="67.61930"></scales>
<clustering>
<clus scale="   67.619">  2 10  1 -1</clus>
<clus scale="   79.674">  5  6 -1 -1</clus>
<clus scale="   82.226">  1  9  2 -1</clus>
<clus scale="   91.338">  7  8 -1 -1</clus>
<clus scale="  119.022">  2  5  1 -1</clus>
<clus scale="   67.619">  2  5  1 -1</clus>
</clustering>
</event>
<event>
10    4  0.2977685E-005  0.1099642E+03  0.7546771E-02  0.1265531E+00
         21   -1    0    0  503  502  0.00000000000E+00  0.00000000000E+00  0.25625746643E+03  0.25625746643E+03  0.00000000000E+00 0. -1.
         -3   -1    0    0    0  501 -0.00000000000E+00 -0.00000000000E+00 -0.18612016986E+03  0.18612016986E+03  0.00000000000E+00 0.  1.
         23    2    1    2    0    0 -0.59125581122E+02 -0.38655957708E+01 -0.11691760871E+03  0.16067954077E+03  0.92937669545E+02 0.  0.
         24    2    1    2    0    0  0.46094348575E+02  0.70900393932E+02  0.15995318633E+03  0.19815898558E+03  0.80810933174E+02 0.  0.
        -11    1    4    4    0    0  0.35902728037E+02  0.70231349809E+02  0.63756446610E+02  0.10142156014E+03  0.00000000000E+00 0.  1.
         12    1    4    4    0    0  0.10191620538E+02  0.66904412249E+00  0.96196739719E+02  0.96737425446E+02  0.00000000000E+00 0. -1.
        -11    1    3    3    0    0 -0.24645939419E+01 -0.37795790714E+02 -0.70255478203E+02  0.79814962485E+02  0.00000000000E+00 0.  1.
         11    1    3    3    0    0 -0.56660987180E+02  0.33930194943E+02 -0.46662130511E+02  0.80864578283E+02  0.00000000000E+00 0. -1.
         21    1    1    2  503  501  0.25631530771E+02 -0.45858858465E+02  0.98298904101E+01  0.53447516452E+02  0.00000000000E+00 0.  1.
         -4    1    1    2    0  502 -0.12600298224E+02 -0.21175939696E+02  0.17271828539E+02  0.30091593484E+02  0.00000000000E+00 0.  1.
<scales pt_clust_5="13000.00000" pt_clust_6="13000.00000" pt_clust_7="13000.00000" pt_clust_8="13000.00000" pt_clust_9="54.29169" pt_clust_10="24.64118"></scales>
<clustering>
<clus scale="   24.641">  1 10  2 -1</clus>
<clus scale="   54.292">  1  9  2 -1</clus>
<clus scale="   80.811">  5  6 -1 -1</clus>
<clus scale="   92.938">  7  8 -1 -1</clus>
<clus scale="   99.926">  1  5  2 -1</clus>
<clus scale="   24.641">  1  5  2 -1</clus>
</clustering>
</event>
<event>
10    4  0.2977685E-005  0.1896706E+03  0.7546771E-02  0.1190370E+00
          2   -1    0    0  503    0 -0.00000000000E+00  0.00000000000E+00  0.11800974641E+04  0.11800974641E+04  0.00000000000E+00 0. -1.
         21   -1    0    0  501  502  0.00000000000E+00 -0.00000000000E+00 -0.80369668597E+02  0.80369668597E+02  0.00000000000E+00 0. -1.
         24    2    1    2    0    0 -0.41599869610E+02 -0.21723634733E+02  0.43006374919E+02  0.10394431512E+03  0.82173030276E+02 0.  0.
         23    2    1    2    0    0  0.16705070766E+03 -0.68029177159E+02  0.27954949757E+03  0.34452223783E+03  0.89519511249E+02 0.  0.
        -11    1    3    3    0    0 -0.30397891293E+01  0.22630224297E+02  0.38802443057E+02  0.45022182942E+02  0.00000000000E+00 0.  1.
         12    1    3    3    0    0 -0.38560080481E+02 -0.44353859029E+02  0.42039318623E+01  0.58922132180E+02  0.00000000000E+00 0. -1.
        -11    1    4    4    0    0  0.70877138407E+01 -0.22104213197E+02  0.54331731979E+01  0.23840119537E+02  0.00000000000E+00 0.  1.
         11    1    4    4    0    0  0.15996299382E+03 -0.45924963962E+02  0.27411632437E+03  0.32068211830E+03  0.00000000000E+00 0. -1.
         21    1    1    2  503  502  0.23788277835E+02  0.80890318967E+02  0.23840129048E+03  0.25287210437E+03  0.00000000000E+00 0.  1.
          1    1    1    2  501    0 -0.14923911589E+03  0.88624929243E+01  0.53877063249E+03  0.55912847533E+03  0.00000000000E+00 0. -1.
<scales pt_clust_5="13000.00000" pt_clust_6="13000.00000" pt_clust_7="13000.00000" pt_clust_8="13000.00000" pt_clust_9="84.31563" pt_clust_10="167.21605"></scales>
<clustering>
<clus scale="   82.173">  5  6 -1 -1</clus>
<clus scale="   84.316">  1  9  2 -1</clus>
<clus scale="   89.520">  7  8 -1 -1</clus>
<clus scale="   92.557">  1  5  2 -1</clus>
<clus scale="  167.216">  2 10  1 -1</clus>
<clus scale="  167.216">  2  5  1 -1</clus>
</clustering>
</event>
<event>
10    4  0.2977685E-005  0.1451568E+03  0.7546771E-02  0.1208477E+00
         21   -1    0    0  501  502  0.00000000000E+00  0.00000000000E+00  0.78708449724E+03  0.78708449724E+03  0.00000000000E+00 0. -1.
          2   -1    0    0  503    0 -0.00000000000E+00 -0.00000000000E+00 -0.19766729364E+03  0.19766729364E+03  0.00000000000E+00 0. -1.
         24    2    1    2    0    0  0.37528337861E+02  0.13162882073E+03 -0.12619024821E+03  0.20338963511E+03  0.81907523083E+02 0.  0.
         23    2    1    2    0    0 -0.86833429676E+01 -0.15238844744E+03  0.51573122765E+03  0.54557583389E+03  0.91524051443E+02 0.  0.
        -11    1    3    3    0    0 -0.43969357766E+01  0.73292809451E+02 -0.10567417748E+03  0.12867867246E+03  0.00000000000E+00 0.  1.
         12    1    3    3    0    0  0.41925273638E+02  0.58336011282E+02 -0.20516070737E+02  0.74710962652E+02  0.00000000000E+00 0. -1.
        -13    1    4    4    0    0 -0.36590458856E+02 -0.94683056148E+02  0.21062398291E+03  0.23380805157E+03  0.00000000000E+00 0. -1.
         13    1    4    4    0    0  0.27907115889E+02 -0.57705391292E+02  0.30510724474E+03  0.31176778232E+03  0.00000000000E+00 0.  1.
         21    1    1    2  503  502 -0.21625426861E+02 -0.26735681598E+02  0.46067405818E+01  0.34694060244E+02  0.00000000000E+00 0.  1.
          1    1    1    2  501    0 -0.72195680327E+01  0.47495308305E+02  0.19526948357E+03  0.20109226163E+03  0.00000000000E+00 0. -1.
<scales pt_clust_5="13000.00000" pt_clust_6="13000.00000" pt_clust_7="13000.00000" pt_clust_8="13000.00000" pt_clust_9="34.38685" pt_clust_10="47.67303"></scales>
<clustering>
<clus scale="   34.387">  2  9  1 -1</clus>
<clus scale="   47.673">  1 10  2 -1</clus>
<clus scale="   81.908">  5  6 -1 -1</clus>
<clus scale="   91.524">  7  8 -1 -1</clus>
<clus scale="  139.294">  2  5  1 -1</clus>
<clus scale="   47.673">  1  5  2 -1</clus>
</clustering>
</event>
<event>
10    4  0.2977685E-005  0.2610412E+03  0.7546771E-02  0.1126309E+00
         21   -1    0    0  501  502  0.00000000000E+00  0.00000000000E+00  0.32668505962E+03  0.32668505962E+03  0.00000000000E+00 0.  1.
          2   -1    0    0  503    0 -0.00000000000E+00 -0.00000000000E+00 -0.54080159956E+03  0.54080159956E+03  0.00000000000E+00 0. -1.
         23    2    1    2    0    0 -0.12594459685E+03  0.24896601272E+02  0.65109668371E+02  0.17057331848E+03  0.91510140596E+02 0.  0.
         24    2    1    2    0    0 -0.17804525109E+03 -0.11456426767E+03 -0.58438745951E+02  0.23365147050E+03  0.79704703605E+02 0.  0.
        -11    1    4    4    0    0 -0.13547288588E+03 -0.12255041694E+03 -0.43037012118E+02  0.18767975893E+03  0.00000000000E+00 0.  1.
         12    1    4    4    0    0 -0.42572365205E+02  0.79861492689E+01 -0.15401733833E+02  0.45971711567E+02  0.00000000000E+00 0. -1.
        -11    1    3    3    0    0 -0.82996856050E+02 -0.14295919818E+02  0.73558624761E+02  0.11182004612E+03  0.00000000000E+00 0.  1.
         11    1    3    3    0    0 -0.42947740800E+02  0.39192521089E+02 -0.84489563895E+01  0.58753272362E+02  0.00000000000E+00 0. -1.
         21    1    1    2  503  502 -0.20180752945E+01  0.33046730627E+02 -0.13704751370E+03  0.14098999980E+03  0.00000000000E+00 0. -1.
          1    1    1    2  501    0  0.30600792323E+03  0.56620935769E+02 -0.83739948670E+02  0.32227187040E+03  0.00000000000E+00 0. -1.
<scales pt_clust_5="13000.00000" pt_clust_6="13000.00000" pt_clust_7="13000.00000" pt_clust_8="13000.00000" pt_clust_9="33.10829" pt_clust_10="248.57542"></scales>
<clustering>
<clus scale="   33.108">  2  9  1 -1</clus>
<clus scale="   79.705">  5  6 -1 -1</clus>
<clus scale="   91.510">  7  8 -1 -1</clus>
<clus scale="  158.611">  2  7  1 -1</clus>
<clus scale="  248.575">  1 10  2 -1</clus>
<clus scale="  248.575">  1  5  2 -1</clus>
</clustering>
</event>
<event>
10    4  0.2977685E-005  0.2130853E+03  0.7546771E-02  0.1139891E+00
         21   -1    0    0  501  502  0.00000000000E+00  0.00000000000E+00  0.12629943814E+03  0.12629943814E+03  0.00000000000E+00 0. -1.
          2   -1    0    0  503    0 -0.00000000000E+00 -0.00000000000E+00 -0.65797690194E+03  0.65797690194E+03  0.00000000000E+00 0. -1.
         23    2    1    2    0    0  0.21334073507E+02  0.21149015394E+03 -0.21649359535E+03  0.31649683501E+03  0.90097401935E+02 0.  0.
         24    2    1    2    0    0 -0.85983563081E+02 -0.16067363696E+03 -0.17169103864E+03  0.26305862535E+03  0.80702149204E+02 0.  0.
        -11    1    4    4    0    0 -0.34542177417E+02 -0.43491001362E+02 -0.93193228366E+01  0.56315885843E+02  0.00000000000E+00 0.  1.
         12    1    4    4    0    0 -0.51441385664E+02 -0.11718263560E+03 -0.16237171580E+03  0.20674273950E+03  0.00000000000E+00 0. -1.
        -13    1    3    3    0    0 -0.22017191079E+02  0.16296273798E+03 -0.17001960629E+03  0.23653388171E+03  0.00000000000E+00 0. -1.
         13    1    3    3    0    0  0.43351264586E+02  0.48527415955E+02 -0.46473989061E+02  0.79962953295E+02  0.00000000000E+00 0.  1.
         21    1    1    2  503  502 -0.19935945091E+02 -0.86189480797E+01 -0.96957211653E+02  0.99360097948E+02  0.00000000000E+00 0. -1.
          1    1    1    2  501    0  0.84585434665E+02 -0.42197568896E+02 -0.46535618156E+02  0.10536078177E+03  0.00000000000E+00 0. -1.
<scales pt_clust_5="13000.00000" pt_clust_6="13000.00000" pt_clust_7="13000.00000" pt_clust_8="13000.00000" pt_clust_9="21.71930" pt_clust_10="92.65609"></scales>
<clustering>
<clus scale="   21.719">  2  9  1 -1</clus>
<clus scale="   80.702">  5  6 -1 -1</clus>
<clus scale="   90.097">  7  8 -1 -1</clus>
<clus scale="   92.656">  1 10  2 -1</clus>
<clus scale="  209.286">  1  5  2 -1</clus>
<clus scale="   92.656">  1  5  2 -1</clus>
</clustering>
</event>
<event>
10    4  0.2977685E-005  0.1980503E+03  0.7546771E-02  0.1178769E+00
          2   -1    0    0  502    0 -0.00000000000E+00  0.00000000000E+00  0.20685341514E+04  0.20685341514E+04  0.00000000000E+00 0. -1.
         21   -1    0    0  503  502  0.00000000000E+00 -0.00000000000E+00 -0.39557205083E+02  0.39557205083E+02  0.00000000000E+00 0.  1.
         23    2    1    2    0    0  0.47437168253E+02  0.32423855731E+02  0.39219514013E+03  0.40679905559E+03  0.91470499811E+02 0.  0.
         24    2    1    2    0    0 -0.74935780631E+02 -0.17263768102E+03  0.40352553309E+03  0.45259525146E+03  0.81181683050E+02 0.  0.
        -13    1    4    4    0    0 -0.34668425628E+02 -0.15483732743E+03  0.28555918740E+03  0.32668110935E+03  0.00000000000E+00 0.  1.
         14    1    4    4    0    0 -0.40267355003E+02 -0.17800353592E+02  0.11796634570E+03  0.12591414211E+03  0.00000000000E+00 0. -1.
        -11    1    3    3    0    0  0.67481094317E+01 -0.31116802369E+02  0.13903312585E+03  0.14263240324E+03  0.00000000000E+00 0.  1.
         11    1    3    3    0    0  0.40689058821E+02  0.63540658100E+02  0.25316201427E+03  0.26416665234E+03  0.00000000000E+00 0. -1.
         21    1    1    2  503  501 -0.36854766533E+02  0.45446124433E+01  0.12768415843E+03  0.13297432697E+03  0.00000000000E+00 0. -1.
          1    1    1    2  501    0  0.64353378911E+02  0.13566921285E+03  0.11055721147E+04  0.11157227225E+04  0.00000000000E+00 0. -1.
<scales pt_clust_5="13000.00000" pt_clust_6="13000.00000" pt_clust_7="13000.00000" pt_clust_8="13000.00000" pt_clust_9="37.13391" pt_clust_10="180.64745"></scales>
<clustering>
<clus scale="   37.134">  2  9  1 -1</clus>
<clus scale="   81.182">  5  6 -1 -1</clus>
<clus scale="   91.470">  7  8 -1 -1</clus>
<clus scale="  105.304">  1  7  2 -1</clus>
<clus scale="  180.647">  2 10  1 -1</clus>
<clus scale="   37.134">  2  5  1 -1</clus>
</clustering>
</event>
<event>
10    4  0.2977685E-005  0.1596957E+03  0.7546771E-02  0.1213148E+00
          2   -1    0    0  503    0 -0.00000000000E+00  0.00000000000E+00  0.48697326437E+03  0.48697326437E+03  0.00000000000E+00 0. -1.
         21   -1    0    0  501  502  0.00000000000E+00 -0.00000000000E+00 -0.15584899980E+03  0.15584899980E+03  0.00000000000E+00 0. -1.
         23    2    1    2    0    0  0.19705967743E+02  0.28776378857E+02 -0.14300611806E+02  0.94746093558E+02  0.86924735269E+02 0.  0.
         24    2    1    2    0    0 -0.13748790177E+03 -0.64986484490E+02  0.58599455073E+00  0.17183600827E+03  0.80006899994E+02 0.  0.
        -13    1    4    4    0    0 -0.15480514271E+02 -0.20622315768E+02 -0.28874295481E+02  0.38712416216E+02  0.00000000000E+00 0.  1.
         14    1    4    4    0    0 -0.12200738750E+03 -0.44364168722E+02  0.29460290032E+02  0.13312359205E+03  0.00000000000E+00 0. -1.
        -11    1    3    3    0    0 -0.26398191151E+02  0.31230034361E+02  0.10663387263E+02  0.42259760650E+02  0.00000000000E+00 0.  1.
         11    1    3    3    0    0  0.46104158894E+02 -0.24536555047E+01 -0.24963999069E+02  0.52486332908E+02  0.00000000000E+00 0. -1.
         21    1    1    2  503  502  0.95179911377E+01  0.19841414468E+02  0.15921469312E+03  0.16072831857E+03  0.00000000000E+00 0. -1.
          1    1    1    2  501    0  0.10826394289E+03  0.16368691165E+02  0.18562418870E+03  0.21551184379E+03  0.00000000000E+00 0. -1.
<scales pt_clust_5="13000.00000" pt_clust_6="13000.00000" pt_clust_7="13000.00000" pt_clust_8="13000.00000" pt_clust_9="22.00622" pt_clust_10="138.20867"></scales>
<clustering>
<clus scale="   22.006">  1  9  2 -1</clus>
<clus scale="   80.007">  5  6 -1 -1</clus>
<clus scale="   86.925">  7  8 -1 -1</clus>
<clus scale="   94.690">  1  7  2 -1</clus>
<clus scale="  138.209">  2 10  1 -1</clus>
<clus scale="  138.209">  2  5  1 -1</clus>
</clustering>
</event>
<event>
10    4  0.2977685E-005  0.8571757E+02  0.7546771E-02  0.1314031E+00
         21   -1    0    0  501  502  0.00000000000E+00  0.00000000000E+00  0.23421487285E+02  0.23421487285E+02  0.00000000000E+00 0.  1.
          4   -1    0    0  503    0 -0.00000000000E+00 -0.00000000000E+00 -0.11724574464E+04  0.11724574464E+04  0.00000000000E+00 0. -1.
         24    2    1    2    0    0 -0.49666611427E+02  0.21519735807E+02 -0.31496101521E+03  0.32998916177E+03  0.82234630572E+02 0.  0.
         23    2    1    2    0    0 -0.26090797294E+02 -0.16944436276E+02 -0.24583999109E+03  0.26132291784E+03  0.82973022978E+02 0.  0.
        -11    1    3    3    0    0 -0.46567831940E+02  0.49450196434E+02 -0.25288319611E+03  0.26184689376E+03  0.00000000000E+00 0.  1.
         12    1    3    3    0    0 -0.30987794868E+01 -0.27930460627E+02 -0.62077819101E+02  0.68142268010E+02  0.00000000000E+00 0. -1.
        -11    1    4    4    0    0  0.24629376771E+02 -0.21547376750E+01 -0.28852994515E+02  0.37996636523E+02  0.00000000000E+00 0.  1.
         11    1    4    4    0    0 -0.50720174065E+02 -0.14789698601E+02 -0.21698699658E+03  0.22332628131E+03  0.00000000000E+00 0. -1.
         21    1    1    2  503  502  0.51671718594E+01 -0.53444794394E+02 -0.23176571682E+03  0.23790416812E+03  0.00000000000E+00 0.  1.
          3    1    1    2  501    0  0.70590236862E+02  0.48869494863E+02 -0.35646923600E+03  0.36666268597E+03  0.00000000000E+00 0. -1.
<scales pt_clust_5="13000.00000" pt_clust_6="13000.00000" pt_clust_7="13000.00000" pt_clust_8="13000.00000" pt_clust_9="53.69400" pt_clust_10="77.89033"></scales>
<clustering>
<clus scale="   53.694">  2  9  1 -1</clus>
<clus scale="   77.890">  1 10  2 -1</clus>
<clus scale="   82.235">  5  6 -1 -1</clus>
<clus scale="   82.973">  7  8 -1 -1</clus>
<clus scale="   85.003">  2  5  1 -1</clus>
<clus scale="   77.890">  1  5  2 -1</clus>
</clustering>
</event>
<event>
10    4  0.2977685E-005  0.1099788E+03  0.7546771E-02  0.1265225E+00
         -3   -1    0    0    0  501 -0.00000000000E+00  0.00000000000E+00  0.69624732917E+03  0.69624732917E+03  0.00000000000E+00 0.  1.
         21   -1    0    0  503  502  0.00000000000E+00 -0.00000000000E+00 -0.54213647261E+02  0.54213647261E+02  0.00000000000E+00 0.  1.
         24    2    1    2    0    0 -0.15935025012E+02 -0.60009024306E+02  0.20658729874E+03  0.23004196774E+03  0.79912370118E+02 0.  0.
         23    2    1    2    0    0 -0.27094678552E+02  0.62306662707E+02  0.16029168070E+03  0.19670846727E+03  0.91567223231E+02 0.  0.
        -13    1    3    3    0    0 -0.10724892430E+02 -0.79733610661E+02  0.17201745890E+03  0.18990123263E+03  0.00000000000E+00 0.  1.
         14    1    3    3    0    0 -0.52101325814E+01  0.19724586355E+02  0.34569839844E+02  0.40140735111E+02  0.00000000000E+00 0. -1.
        -13    1    4    4    0    0 -0.40680991598E+02  0.78135231403E+02  0.10187716450E+03  0.13468115722E+03  0.00000000000E+00 0.  1.
         13    1    4    4    0    0  0.13586313045E+02 -0.15828568696E+02  0.58414516193E+02  0.62027310043E+02  0.00000000000E+00 0. -1.
         21    1    1    2  503  501  0.67968006713E+02 -0.70292424000E+02  0.14817282114E+03  0.17752706760E+03  0.00000000000E+00 0.  1.
         -4    1    1    2    0  502 -0.24938303149E+02  0.67994785599E+02  0.12698188133E+03  0.14618347382E+03  0.00000000000E+00 0.  1.
<scales pt_clust_5="13000.00000" pt_clust_6="13000.00000" pt_clust_7="13000.00000" pt_clust_8="13000.00000" pt_clust_9="76.60477" pt_clust_10="72.42386"></scales>
<clustering>
<clus scale="   72.424">  2 10  1 -1</clus>
<clus scale="   76.605">  2  9  1 -1</clus>
<clus scale="   79.912">  5  6 -1 -1</clus>
<clus scale="   91.567">  7  8 -1 -1</clus>
<clus scale="  100.483">  1  5  2 -1</clus>
<clus scale="   72.424">  2  5  1 -1</clus>
</clustering>
</event>
<event>
10    4  0.2977685E-005  0.1077095E+03  0.7546771E-02  0.1270353E+00
         21   -1    0    0  501  502  0.00000000000E+00  0.00000000000E+00  0.17196495389E+03  0.17196495389E+03  0.00000000000E+00 0.  1.
          2   -1    0    0  503    0 -0.00000000000E+00 -0.00000000000E+00 -0.51072343461E+03  0.51072343461E+03  0.00000000000E+00 0. -1.
         23    2    1    2    0    0 -0.55428533762E+02 -0.64388251140E+02 -0.21698178383E+03  0.25103656807E+03  0.93381447586E+02 0.  0.
         24    2    1    2    0    0  0.56217945428E+02 -0.17986078557E+02  0.12924106543E+03  0.16334991917E+03  0.80597684148E+02 0.  0.
        -13    1    4    4    0    0  0.46645750015E+02 -0.15087563540E+02  0.14019337038E+03  0.14851815265E+03  0.00000000000E+00 0.  1.
         14    1    4    4    0    0  0.95721954132E+01 -0.28985150169E+01 -0.10952304953E+02  0.14831766520E+02  0.00000000000E+00 0. -1.
        -11    1    3    3    0    0 -0.46479837791E+02 -0.86758804347E+02 -0.14600843841E+03  0.17608500657E+03  0.00000000000E+00 0.  1.
         11    1    3    3    0    0 -0.89486959713E+01  0.22370553207E+02 -0.70973345420E+02  0.74951561495E+02  0.00000000000E+00 0. -1.
         21    1    1    2  503  502  0.15222018331E+02  0.44095082853E+02 -0.18098470957E+03  0.18689984289E+03  0.00000000000E+00 0.  1.
          1    1    1    2  501    0 -0.16011429997E+02  0.38279246844E+02 -0.70033052751E+02  0.81402058371E+02  0.00000000000E+00 0. -1.
<scales pt_clust_5="13000.00000" pt_clust_6="13000.00000" pt_clust_7="13000.00000" pt_clust_8="13000.00000" pt_clust_9="47.20176" pt_clust_10="41.49299"></scales>
<clustering>
<clus scale="   41.493">  1 10  2 -1</clus>
<clus scale="   47.202">  2  9  1 -1</clus>
<clus scale="   80.598">  5  6 -1 -1</clus>
<clus scale="   93.381">  7  8 -1 -1</clus>
<clus scale="   96.836">  1  5  2 -1</clus>
<clus scale="   41.493">  1  5  2 -1</clus>
</clustering>
</event>
<event>
10    4  0.2977685E-005  0.2008918E+03  0.7546771E-02  0.1159420E+00
          2   -1    0    0  503    0 -0.00000000000E+00  0.00000000000E+00  0.56188971724E+03  0.56188971724E+03  0.00000000000E+00 0. -1.
         21   -1    0    0  501  502  0.00000000000E+00 -0.00000000000E+00 -0.35384480498E+03  0.35384480498E+03  0.00000000000E+00 0.  1.
         23    2    1    2    0    0 -0.83948622998E+02  0.10282779180E+03  0.31172177272E+03  0.35035443700E+03  0.89201131549E+02 0.  0.
         24    2    1    2    0    0  0.21222070973E+03  0.97323097546E+02 -0.10863736196E+03  0.27025394596E+03  0.82010389207E+02 0.  0.
        -13    1    4    4    0    0  0.20182141985E+03  0.95083000811E+02 -0.12111810203E+03  0.25385479549E+03  0.00000000000E+00 0.  1.
         14    1    4    4    0    0  0.10399289881E+02  0.22400967351E+01  0.12480740071E+02  0.16399150470E+02  0.00000000000E+00 0. -1.
        -11    1    3    3    0    0 -0.73487189195E+02  0.26399388988E+02  0.11457955296E+03  0.13865701811E+03  0.00000000000E+00 0. -1.
         11    1    3    3    0    0 -0.10461433803E+02  0.76428402815E+02  0.19714221975E+03  0.21169741889E+03  0.00000000000E+00 0.  1.
         21    1    1    2  503  502 -0.42553471594E+02 -0.59064874219E+02  0.84789777324E+02  0.11175313709E+03  0.00000000000E+00 0.  1.
          1    1    1    2  501    0 -0.85718615142E+02 -0.14108601513E+03 -0.79829275829E+02  0.18337300217E+03  0.00000000000E+00 0. -1.
<scales pt_clust_5="13000.00000" pt_clust_6="13000.00000" pt_clust_7="13000.00000" pt_clust_8="13000.00000" pt_clust_9="72.79737" pt_clust_10="183.38981"></scales>
<clustering>
<clus scale="   72.797">  1  9  2 -1</clus>
<clus scale="   82.010">  5  6 -1 -1</clus>
<clus scale="   89.201">  7  8 -1 -1</clus>
<clus scale="  157.187">  1  7  2 -1</clus>
<clus scale="  183.390">  2 10  1 -1</clus>
<clus scale="  183.390">  2  5  1 -1</clus>
</clustering>
</event>
<event>
10    4  0.2977685E-005  0.1603353E+03  0.7546771E-02  0.1213512E+00
         -1   -1    0    0    0  501 -0.00000000000E+00  0.00000000000E+00  0.10923540553E+04  0.10923540553E+04  0.00000000000E+00 0.  1.
         21   -1    0    0  503  502  0.00000000000E+00 -0.00000000000E+00 -0.16608239239E+03  0.16608239239E+03  0.00000000000E+00 0.  1.
         23    2    1    2    0    0  0.32074478323E+02 -0.45136461976E+01  0.14582533000E+03  0.17134468632E+03  0.83933482584E+02 0.  0.
         24    2    1    2    0    0 -0.10858794676E+03 -0.86483622539E+02 -0.84677333100E+02  0.18056492046E+03  0.78502742699E+02 0.  0.
        -13    1    4    4    0    0 -0.11565630366E+03 -0.90421244115E+02 -0.88706407541E+02  0.17152611668E+03  0.00000000000E+00 0.  1.
         14    1    4    4    0    0  0.70683569014E+01  0.39376215769E+01  0.40290744413E+01  0.90388037827E+01  0.00000000000E+00 0. -1.
        -11    1    3    3    0    0  0.13017906076E+02 -0.41547328616E+02  0.46819668444E+02  0.63935340360E+02  0.00000000000E+00 0.  1.
         11    1    3    3    0    0  0.19056572248E+02  0.37033682419E+02  0.99005661555E+02  0.10740934596E+03  0.00000000000E+00 0. -1.
         21    1    1    2  503  501  0.17853809050E+02 -0.79519458531E+02  0.17201793118E+03  0.19034776445E+03  0.00000000000E+00 0.  1.
         -2    1    1    2    0  502  0.58659659386E+02  0.17051672727E+03  0.69310573480E+03  0.71617907644E+03  0.00000000000E+00 0.  1.
<scales pt_clust_5="13000.00000" pt_clust_6="13000.00000" pt_clust_7="13000.00000" pt_clust_8="13000.00000" pt_clust_9="81.49910" pt_clust_10="139.80250"></scales>
<clustering>
<clus scale="   78.503">  5  6 -1 -1</clus>
<clus scale="   81.499">  1  9  2 -1</clus>
<clus scale="   83.933">  7  8 -1 -1</clus>
<clus scale="   92.841">  1  7  2 -1</clus>
<clus scale="  139.802">  2 10  1 -1</clus>
<clus scale="  139.802">  2  5  1 -1</clus>
</clustering>
</event>
<event>
10    4  0.2977685E-005  0.1295551E+03  0.7546771E-02  0.1241423E+00
         21   -1    0    0  501  502  0.00000000000E+00  0.00000000000E+00  0.59044892946E+02  0.59044892946E+02  0.00000000000E+00 0. -1.
          2   -1    0    0  503    0 -0.00000000000E+00 -0.00000000000E+00 -0.76473871336E+03  0.76473871336E+03  0.00000000000E+00 0. -1.
         24    2    1    2    0    0  0.47174113643E+01 -0.57767504084E+02 -0.28505835595E+03  0.30163123487E+03  0.79773410671E+02 0.  0.
         23    2    1    2    0    0 -0.73860886168E+02 -0.49351309373E+02 -0.19861170361E+03  0.23423842636E+03  0.86775856827E+02 0.  0.
        -13    1    3    3    0    0 -0.12307964555E+02  0.17122200767E+02 -0.77579405200E+02  0.80394153156E+02  0.00000000000E+00 0.  1.
         14    1    3    3    0    0  0.17025375919E+02 -0.74889704850E+02 -0.20747895075E+03  0.22123708171E+03  0.00000000000E+00 0. -1.
        -11    1    4    4    0    0 -0.65532994861E+02 -0.57735579232E+01 -0.16776421748E+03  0.18020194243E+03  0.00000000000E+00 0.  1.
         11    1    4    4    0    0 -0.83278913074E+01 -0.43577751450E+02 -0.30847486129E+02  0.54036483930E+02  0.00000000000E+00 0. -1.
         21    1    1    2  503  502  0.34794251330E+02  0.81237660044E+01 -0.16458512078E+03  0.16841881570E+03  0.00000000000E+00 0. -1.
          1    1    1    2  501    0  0.34349223475E+02  0.98995047452E+02 -0.57438640070E+02  0.11949512938E+03  0.00000000000E+00 0. -1.
<scales pt_clust_5="13000.00000" pt_clust_6="13000.00000" pt_clust_7="13000.00000" pt_clust_8="13000.00000" pt_clust_9="35.73004" pt_clust_10="96.20012"></scales>
<clustering>
<clus scale="   35.730">  2  9  1 -1</clus>
<clus scale="   79.773">  5  6 -1 -1</clus>
<clus scale="   86.776">  7  8 -1 -1</clus>
<clus scale="   98.645">  2  5  1 -1</clus>
<clus scale="   96.200">  1 10  2 -1</clus>
<clus scale="   96.200">  1  5  2 -1</clus>
</clustering>
</event>
<event>
10    4  0.2977685E-005  0.1252350E+03  0.7546771E-02  0.1236810E+00
         21   -1    0    0  501  502  0.00000000000E+00  0.00000000000E+00  0.11687959378E+03  0.11687959378E+03  0.00000000000E+00 0. -1.
          2   -1    0    0  503    0 -0.00000000000E+00 -0.00000000000E+00 -0.80341432931E+03  0.80341432931E+03  0.00000000000E+00 0. -1.
         23    2    1    2    0    0 -0.62685778117E+02  0.76507522265E+02 -0.67206099166E+03  0.68507039550E+03  0.88727462117E+02 0.  0.
         24    2    1    2    0    0 -0.98612124923E+01 -0.64549725978E+02 -0.34569755682E+02  0.10970844389E+03  0.81098483444E+02 0.  0.
        -11    1    4    4    0    0 -0.32459914802E+02 -0.57313702123E+02 -0.48857974278E+02  0.82009805331E+02  0.00000000000E+00 0.  1.
         12    1    4    4    0    0  0.22598702309E+02 -0.72360238553E+01  0.14288218596E+02  0.27698638557E+02  0.00000000000E+00 0. -1.
        -11    1    3    3    0    0 -0.14565441075E+02  0.82186160581E+02 -0.46343993950E+03  0.47089626733E+03  0.00000000000E+00 0. -1.
         11    1    3    3    0    0 -0.48120337042E+02 -0.56786383160E+01 -0.20862105216E+03  0.21417412816E+03  0.00000000000E+00 0.  1.
         21    1    1    2  503  502  0.20712863040E+02  0.10771745991E+02 -0.37877508897E+02  0.44494481537E+02  0.00000000000E+00 0. -1.
          1    1    1    2  501    0  0.51834127570E+02 -0.22729542278E+02  0.57973520710E+02  0.81020602173E+02  0.00000000000E+00 0. -1.
<scales pt_clust_5="13000.00000" pt_clust_6="13000.00000" pt_clust_7="13000.00000" pt_clust_8="13000.00000" pt_clust_9="23.34637" pt_clust_10="56.82071"></scales>
<clustering>
<clus scale="   23.346">  2  9  1 -1</clus>
<clus scale="   56.821">  1 10  2 -1</clus>
<clus scale="   81.098">  5  6 -1 -1</clus>
<clus scale="   88.727">  7  8 -1 -1</clus>
<clus scale="  119.951">  1  5  2 -1</clus>
<clus scale="   56.821">  1  5  2 -1</clus>
</clustering>
</event>
<event>
10    4  0.2977685E-005  0.2421359E+03  0.7546771E-02  0.1151443E+00
          2   -1    0    0  503    0 -0.00000000000E+00  0.00000000000E+00  0.29008115011E+03  0.29008115011E+03  0.00000000000E+00 0. -1.
         21   -1    0    0  501  502  0.00000000000E+00 -0.00000000000E+00 -0.11530396469E+04  0.11530396469E+04  0.00000000000E+00 0. -1.
         24    2    1    2    0    0 -0.64853174354E+02 -0.12961248122E+02  0.10891975865E+03  0.15040713048E+03  0.79905337101E+02 0.  0.
         23    2    1    2    0    0 -0.13885309935E+03 -0.69679283164E+02  0.67469709726E+02  0.19228776936E+03  0.91033174251E+02 0.  0.
        -11    1    3    3    0    0 -0.42999530464E+02  0.17018098649E+02  0.13724636022E+02  0.48238376172E+02  0.00000000000E+00 0.  1.
         12    1    3    3    0    0 -0.21853643890E+02 -0.29979346771E+02  0.95195122627E+02  0.10216875430E+03  0.00000000000E+00 0. -1.
        -11    1    4    4    0    0 -0.41903287065E+02  0.51152605100E+01  0.54817093517E+02  0.69187897053E+02  0.00000000000E+00 0.  1.
         11    1    4    4    0    0 -0.96949812287E+02 -0.74794543674E+02  0.12652616209E+02  0.12309987231E+03  0.00000000000E+00 0. -1.
         21    1    1    2  503  502 -0.16372986545E+02  0.11762697740E+02  0.12330097705E+02  0.23631907581E+02  0.00000000000E+00 0.  1.
          1    1    1    2  501    0  0.22007926025E+03  0.70877833546E+02 -0.10516780629E+04  0.10767939896E+04  0.00000000000E+00 0. -1.
<scales pt_clust_5="13000.00000" pt_clust_6="13000.00000" pt_clust_7="13000.00000" pt_clust_8="13000.00000" pt_clust_9="20.16025" pt_clust_10="224.37190"></scales>
<clustering>
<clus scale="   20.160">  1  9  2 -1</clus>
<clus scale="   79.905">  5  6 -1 -1</clus>
<clus scale="   91.033">  7  8 -1 -1</clus>
<clus scale="  108.249">  1  5  2 -1</clus>
<clus scale="  224.372">  2 10  1 -1</clus>
<clus scale="  224.372">  2  5  1 -1</clus>
</clustering>
</event>
<event>
10    4  0.2977685E-005  0.1405960E+03  0.7546771E-02  0.1214698E+00
         21   -1    0    0  503  502  0.00000000000E+00  0.00000000000E+00  0.76948613599E+02  0.76948613599E+02  0.00000000000E+00 0. -1.
         -3   -1    0    0    0  501 -0.00000000000E+00 -0.00000000000E+00 -0.73346268086E+03  0.73346268086E+03  0.00000000000E+00 0.  1.
         23    2    1    2    0    0  0.13029694015E+03 -0.17821349156E+02 -0.45142879729E+03  0.47884219414E+03  0.90592465325E+02 0.  0.
         24    2    1    2    0    0 -0.92682814154E+02  0.14960709408E+02 -0.29077122679E+02  0.12699501362E+03  0.80425913454E+02 0.  0.
        -13    1    4    4    0    0 -0.94380794493E+02  0.36886855858E+02 -0.27218398965E+02  0.10492480997E+03  0.00000000000E+00 0.  1.
         14    1    4    4    0    0  0.16979803383E+01 -0.21926146450E+02 -0.18587237145E+01  0.22070203652E+02  0.00000000000E+00 0. -1.
        -13    1    3    3    0    0  0.30094688513E+02 -0.45980302768E+02 -0.13593041834E+03  0.14661840658E+03  0.00000000000E+00 0. -1.
         13    1    3    3    0    0  0.10020225164E+03  0.28158953612E+02 -0.31549837895E+03  0.33222378756E+03  0.00000000000E+00 0.  1.
         21    1    1    2  503  501 -0.31598035504E+02 -0.23678601194E+02 -0.17270553380E+03  0.17716182830E+03  0.00000000000E+00 0. -1.
         -4    1    1    2    0  502 -0.60160904901E+01  0.26539240942E+02 -0.33026134953E+01  0.27412258398E+02  0.00000000000E+00 0.  1.
<scales pt_clust_5="13000.00000" pt_clust_6="13000.00000" pt_clust_7="13000.00000" pt_clust_8="13000.00000" pt_clust_9="39.11375" pt_clust_10="27.21258"></scales>
<clustering>
<clus scale="   27.213">  1 10  2 -1</clus>
<clus scale="   39.114">  2  9  1 -1</clus>
<clus scale="   80.426">  5  6 -1 -1</clus>
<clus scale="   90.592">  7  8 -1 -1</clus>
<clus scale="  134.270">  1  5  2 -1</clus>
<clus scale="   27.213">  1  5  2 -1</clus>
</clustering>
</event>
<event>
10    4  0.2977685E-005  0.1793315E+03  0.7546771E-02  0.1169935E+00
         -3   -1    0    0    0  501 -0.00000000000E+00  0.00000000000E+00  0.65591746358E+02  0.65591746358E+02  0.00000000000E+00 0.  1.
         21   -1    0    0  503  502  0.00000000000E+00 -0.00000000000E+00 -0.87760477829E+03  0.87760477829E+03  0.00000000000E+00 0.  1.
         24    2    1    2    0    0 -0.13010708815E+03  0.49352117340E+02 -0.33063779313E+03  0.36769841200E+03  0.80729709925E+02 0.  0.
         23    2    1    2    0    0  0.16956926621E+03 -0.40515149848E+02 -0.47231892346E+03  0.51196772611E+03  0.92900881121E+02 0.  0.
        -11    1    3    3    0    0 -0.27657655970E+02  0.40067638675E+02 -0.17092768039E+03  0.17772628823E+03  0.00000000000E+00 0.  1.
         12    1    3    3    0    0 -0.10244943218E+03  0.92844786650E+01 -0.15971011274E+03  0.18997212377E+03  0.00000000000E+00 0. -1.
        -11    1    4    4    0    0  0.50021088709E+02  0.14085462281E+02 -0.60856032905E+02  0.80024785562E+02  0.00000000000E+00 0. -1.
         11    1    4    4    0    0  0.11954817751E+03 -0.54600612128E+02 -0.41146289055E+03  0.43194294055E+03  0.00000000000E+00 0.  1.
         21    1    1    2  503  501 -0.64771465609E+01 -0.25014766878E+02 -0.67900758603E+00  0.25848656461E+02  0.00000000000E+00 0.  1.
         -4    1    1    2    0  502 -0.32985031506E+02  0.16177799386E+02 -0.83773077544E+01  0.37681730077E+02  0.00000000000E+00 0.  1.
<scales pt_clust_5="13000.00000" pt_clust_6="13000.00000" pt_clust_7="13000.00000" pt_clust_8="13000.00000" pt_clust_9="25.83974" pt_clust_10="35.98805"></scales>
<clustering>
<clus scale="   25.840">  1  9  2 -1</clus>
<clus scale="   35.988">  2 10  1 -1</clus>
<clus scale="   80.730">  5  6 -1 -1</clus>
<clus scale="   92.901">  7  8 -1 -1</clus>
<clus scale="  173.339">  1  5  2 -1</clus>
<clus scale="   35.988">  2  5  1 -1</clus>
</clustering>
</event>
<event>
10    4  0.2977685E-005  0.1407686E+03  0.7546771E-02  0.1213127E+00
         -1   -1    0    0    0  501 -0.00000000000E+00  0.00000000000E+00  0.44691925199E+03  0.44691925199E+03  0.00000000000E+00 0.  1.
         21   -1    0    0  503  502  0.00000000000E+00 -0.00000000000E+00 -0.15457922434E+03  0.15457922434E+03  0.00000000000E+00 0. -1.
         24    2    1    2    0    0 -0.35428011969E+02  0.87018208661E+02  0.18184597939E+03  0.22007187304E+03  0.80847735969E+02 0.  0.
         23    2    1    2    0    0  0.69231946681E+02 -0.11660571414E+03 -0.31403562950E+02  0.16309000569E+03  0.84983593581E+02 0.  0.
        -11    1    3    3    0    0 -0.58490172526E+02  0.54643398992E+02  0.14621407050E+03  0.16668999894E+03  0.00000000000E+00 0.  1.
         12    1    3    3    0    0  0.23062160558E+02  0.32374809669E+02  0.35631908892E+02  0.53381874095E+02  0.00000000000E+00 0. -1.
        -11    1    4    4    0    0  0.21421449770E+02 -0.41267101179E+01  0.20843590071E+02  0.30172230506E+02  0.00000000000E+00 0.  1.
         11    1    4    4    0    0  0.47810496911E+02 -0.11247900402E+03 -0.52247153020E+02  0.13291777518E+03  0.00000000000E+00 0. -1.
         21    1    1    2  503  501 -0.42375655956E+02 -0.34257260081E+01  0.16931768187E+03  0.17457350661E+03  0.00000000000E+00 0.  1.
         -2    1    1    2    0  502  0.85717212432E+01  0.33013231485E+02 -0.27420070660E+02  0.43763090991E+02  0.00000000000E+00 0.  1.
<scales pt_clust_5="13000.00000" pt_clust_6="13000.00000" pt_clust_7="13000.00000" pt_clust_8="13000.00000" pt_clust_9="42.27244" pt_clust_10="34.10789"></scales>
<clustering>
<clus scale="   34.108">  2 10  1 -1</clus>
<clus scale="   42.272">  1  9  2 -1</clus>
<clus scale="   80.848">  5  6 -1 -1</clus>
<clus scale="   84.984">  7  8 -1 -1</clus>
<clus scale="  138.311">  1  5  2 -1</clus>
<clus scale="   34.108">  2  5  1 -1</clus>
</clustering>
</event>
<event>
10    4  0.2977685E-005  0.2967852E+03  0.7546771E-02  0.1087335E+00
          4   -1    0    0  503    0 -0.00000000000E+00  0.00000000000E+00  0.66265890387E+03  0.66265890387E+03  0.00000000000E+00 0. -1.
         21   -1    0    0  501  502  0.00000000000E+00 -0.00000000000E+00 -0.22071115550E+03  0.22071115550E+03  0.00000000000E+00 0. -1.
         23    2    1    2    0    0  0.20757735344E+03 -0.21537918957E+03  0.32576361610E+03  0.45154212895E+03  0.91059363513E+02 0.  0.
         24    2    1    2    0    0 -0.22445766109E+03  0.12694642188E+03  0.10917244296E+03  0.29069809694E+03  0.78039256855E+02 0.  0.
        -13    1    4    4    0    0 -0.30072599530E+02  0.10097219457E+02 -0.11559923808E+02  0.33763100001E+02  0.00000000000E+00 0.  1.
         14    1    4    4    0    0 -0.19438506156E+03  0.11684920243E+03  0.12073236677E+03  0.25693499694E+03  0.00000000000E+00 0. -1.
        -11    1    3    3    0    0  0.17988924967E+02 -0.25507931440E+02  0.86792226990E+02  0.92234194601E+02  0.00000000000E+00 0.  1.
         11    1    3    3    0    0  0.18958842847E+03 -0.18987125813E+03  0.23897138911E+03  0.35930793435E+03  0.00000000000E+00 0. -1.
         21    1    1    2  503  502  0.14907470136E+02 -0.18043317728E+02  0.23731044080E+02  0.33331013091E+02  0.00000000000E+00 0.  1.
          3    1    1    2  501    0  0.19728375112E+01  0.10647608541E+03 -0.16719354776E+02  0.10779882039E+03  0.00000000000E+00 0. -1.
<scales pt_clust_5="13000.00000" pt_clust_6="13000.00000" pt_clust_7="13000.00000" pt_clust_8="13000.00000" pt_clust_9="23.40500" pt_clust_10="105.22433"></scales>
<clustering>
<clus scale="   23.405">  1  9  2 -1</clus>
<clus scale="   78.039">  5  6 -1 -1</clus>
<clus scale="   91.059">  7  8 -1 -1</clus>
<clus scale="  105.224">  2 10  1 -1</clus>
<clus scale="  293.053">  2  5  1 -1</clus>
<clus scale="  105.224">  2  5  1 -1</clus>
</clustering>
</event>
<event>
10    4  0.2977685E-005  0.2219054E+03  0.7546771E-02  0.1149115E+00
         21   -1    0    0  501  502  0.00000000000E+00  0.00000000000E+00  0.55560697552E+03  0.55560697552E+03  0.00000000000E+00 0. -1.
          2   -1    0    0  503    0 -0.00000000000E+00 -0.00000000000E+00 -0.17579556802E+04  0.17579556802E+04  0.00000000000E+00 0. -1.
         24    2    1    2    0    0 -0.49078031520E+02 -0.14952189071E+03 -0.92687423461E+03  0.94358928852E+03  0.80619164267E+02 0.  0.
         23    2    1    2    0    0  0.22842279405E+03  0.12799502468E+03 -0.50459065581E+03  0.57565897632E+03  0.90619136496E+02 0.  0.
        -13    1    3    3    0    0  0.11004456298E+02 -0.36937042527E+02 -0.10466563532E+03  0.11153626489E+03  0.00000000000E+00 0.  1.
         14    1    3    3    0    0 -0.60082487818E+02 -0.11258484818E+03 -0.82220859929E+03  0.83205302363E+03  0.00000000000E+00 0. -1.
        -13    1    4    4    0    0  0.16492714101E+03  0.12116622284E+03 -0.43768688623E+03  0.48316873428E+03  0.00000000000E+00 0. -1.
         13    1    4    4    0    0  0.63495653040E+02  0.68288018307E+01 -0.66903769581E+02  0.92490242046E+02  0.00000000000E+00 0.  1.
         21    1    1    2  503  502  0.19899939488E+02  0.48246511798E+02 -0.26016349884E+03  0.26534652743E+03  0.00000000000E+00 0.  1.
          1    1    1    2  501    0 -0.19924470202E+03 -0.26719645762E+02  0.48927968461E+03  0.52896786341E+03  0.00000000000E+00 0. -1.
<scales pt_clust_5="13000.00000" pt_clust_6="13000.00000" pt_clust_7="13000.00000" pt_clust_8="13000.00000" pt_clust_9="52.18940" pt_clust_10="202.55906"></scales>
<clustering>
<clus scale="   52.189">  2  9  1 -1</clus>
<clus scale="   80.619">  5  6 -1 -1</clus>
<clus scale="   90.619">  7  8 -1 -1</clus>
<clus scale="  148.608">  2  5  1 -1</clus>
<clus scale="  202.559">  1 10  2 -1</clus>
<clus scale="  202.559">  1  5  2 -1</clus>
</clustering>
</event>
<event>
10    4  0.2977685E-005  0.9555658E+02  0.7546771E-02  0.1299246E+00
         -3   -1    0    0    0  501 -0.00000000000E+00  0.00000000000E+00  0.25809200730E+03  0.25809200730E+03  0.00000000000E+00 0.  1.
         21   -1    0    0  503  502  0.00000000000E+00 -0.00000000000E+00 -0.16390723023E+03  0.16390723023E+03  0.00000000000E+00 0. -1.
         23    2    1    2    0    0  0.16612509116E+02 -0.35666363748E+02  0.77236096592E+01  0.10001764883E+03  0.91628658016E+02 0.  0.
         24    2    1    2    0    0  0.80633432177E+01  0.29085038336E+02 -0.83227725478E+02  0.11644488620E+03  0.75641260396E+02 0.  0.
        -13    1    4    4    0    0  0.38794531193E+02  0.20999027954E+02 -0.26605855122E+02  0.51515496234E+02  0.00000000000E+00 0.  1.
         14    1    4    4    0    0 -0.30731187975E+02  0.80860103825E+01 -0.56621870356E+02  0.64929389963E+02  0.00000000000E+00 0. -1.
        -13    1    3    3    0    0 -0.13213677814E+02 -0.59786334136E+02  0.72438870405E+01  0.61656150790E+02  0.00000000000E+00 0. -1.
         13    1    3    3    0    0  0.29826186930E+02  0.24119970388E+02  0.47972261871E+00  0.38361498043E+02  0.00000000000E+00 0.  1.
         21    1    1    2  503  501  0.42382053048E+01  0.23412345481E+02  0.17041980519E+03  0.17207268902E+03  0.00000000000E+00 0.  1.
         -4    1    1    2    0  502 -0.28914057639E+02 -0.16831020069E+02 -0.73091230454E+00  0.33464013485E+02  0.00000000000E+00 0.  1.
<scales pt_clust_5="13000.00000" pt_clust_6="13000.00000" pt_clust_7="13000.00000" pt_clust_8="13000.00000" pt_clust_9="23.79286" pt_clust_10="30.73599"></scales>
<clustering>
<clus scale="   23.793">  1  9  2 -1</clus>
<clus scale="   30.736">  2 10  1 -1</clus>
<clus scale="   75.641">  5  6 -1 -1</clus>
<clus scale="   80.355">  2  5  1 -1</clus>
<clus scale="   91.629">  7  8 -1 -1</clus>
<clus scale="   30.736">  2  5  1 -1</clus>
</clustering>
</event>
<event>
10    4  0.2977685E-005  0.2363317E+03  0.7546771E-02  0.1165042E+00
          4   -1    0    0  503    0 -0.00000000000E+00  0.00000000000E+00  0.32636606548E+03  0.32636606548E+03  0.00000000000E+00 0. -1.
         21   -1    0    0  501  502  0.00000000000E+00 -0.00000000000E+00 -0.36167916155E+03  0.36167916155E+03  0.00000000000E+00 0. -1.
         24    2    1    2    0    0  0.23339025691E+02 -0.14876265037E+02 -0.34947689978E+01  0.83341478018E+02  0.78533910932E+02 0.  0.
         23    2    1    2    0    0  0.17720726347E+03  0.20547535938E+02  0.11493202048E+03  0.23037178634E+03  0.89650293625E+02 0.  0.
        -11    1    3    3    0    0 -0.12383464462E+02  0.26076256620E+02 -0.26867734084E+01  0.28992069653E+02  0.00000000000E+00 0.  1.
         12    1    3    3    0    0  0.35722490153E+02 -0.40952521657E+02 -0.80799558936E+00  0.54349408366E+02  0.00000000000E+00 0. -1.
        -11    1    4    4    0    0  0.33373818819E+02  0.19393074380E+02 -0.99772968619E+01  0.39867901489E+02  0.00000000000E+00 0.  1.
         11    1    4    4    0    0  0.14383344465E+03  0.11544615576E+01  0.12490931735E+03  0.19050388485E+03  0.00000000000E+00 0. -1.
         21    1    1    2  503  502  0.30455408968E+02 -0.27838837885E+01  0.58043729350E+02  0.65607594539E+02  0.00000000000E+00 0.  1.
          3    1    1    2  501    0 -0.23100169813E+03 -0.28873871120E+01 -0.20479407691E+03  0.30872436814E+03  0.00000000000E+00 0. -1.
<scales pt_clust_5="13000.00000" pt_clust_6="13000.00000" pt_clust_7="13000.00000" pt_clust_8="13000.00000" pt_clust_9="30.58238" pt_clust_10="218.66757"></scales>
<clustering>
<clus scale="   30.582">  1  9  2 -1</clus>
<clus scale="   78.534">  5  6 -1 -1</clus>
<clus scale="   84.746">  1  5  2 -1</clus>
<clus scale="   89.650">  7  8 -1 -1</clus>
<clus scale="  218.668">  2 10  1 -1</clus>
<clus scale="  218.668">  2  5  1 -1</clus>
</clustering>
</event>
<event>
10    4  0.2977685E-005  0.2113968E+03  0.7546771E-02  0.1157324E+00
         21   -1    0    0  503  502  0.00000000000E+00  0.00000000000E+00  0.11290334418E+04  0.11290334418E+04  0.00000000000E+00 0.  1.
         -1   -1    0    0    0  501 -0.00000000000E+00 -0.00000000000E+00 -0.17572109152E+03  0.17572109152E+03  0.00000000000E+00 0.  1.
         23    2    1    2    0    0  0.10010540380E+03 -0.42274964137E+02  0.51089681187E+03  0.53030279817E+03  0.91636460604E+02 0.  0.
         24    2    1    2    0    0 -0.76339123587E+02  0.14000299673E+03  0.62452900683E+01  0.17777438217E+03  0.78334069368E+02 0.  0.
        -11    1    4    4    0    0 -0.91315453461E+02  0.10270023728E+03  0.64487497879E+01  0.13757702262E+03  0.00000000000E+00 0.  1.
         12    1    4    4    0    0  0.14976329874E+02  0.37302759452E+02 -0.20345971960E+00  0.40197359553E+02  0.00000000000E+00 0. -1.
        -11    1    3    3    0    0  0.38489313842E+02 -0.65473426683E+02  0.25478879056E+03  0.26586749459E+03  0.00000000000E+00 0. -1.
         11    1    3    3    0    0  0.61616089962E+02  0.23198462547E+02  0.25610802130E+03  0.26443530358E+03  0.00000000000E+00 0.  1.
         21    1    1    2  503  501  0.33899808928E+02  0.11392477822E+03  0.12415398586E+02  0.11950813470E+03  0.00000000000E+00 0.  1.
         -2    1    1    2    0  502 -0.57666089145E+02 -0.21165281082E+03  0.42375484975E+03  0.47716921825E+03  0.00000000000E+00 0.  1.
<scales pt_clust_5="13000.00000" pt_clust_6="13000.00000" pt_clust_7="13000.00000" pt_clust_8="13000.00000" pt_clust_9="118.86148" pt_clust_10="196.34756"></scales>
<clustering>
<clus scale="   78.334">  5  6 -1 -1</clus>
<clus scale="   91.636">  7  8 -1 -1</clus>
<clus scale="  118.861">  2  9  1 -1</clus>
<clus scale="  141.664">  2  7  1 -1</clus>
<clus scale="  196.348">  1 10  2 -1</clus>
<clus scale="  196.348">  1  5  2 -1</clus>
</clustering>
</event>
<event>
10    4  0.2977685E-005  0.1332505E+03  0.7546771E-02  0.1247090E+00
          2   -1    0    0  502    0 -0.00000000000E+00  0.00000000000E+00  0.19493586731E+04  0.19493586731E+04  0.00000000000E+00 0. -1.
         21   -1    0    0  503  502  0.00000000000E+00 -0.00000000000E+00 -0.13646322911E+02  0.13646322911E+02  0.00000000000E+00 0. -1.
         24    2    1    2    0    0 -0.89659245936E+00  0.11558047951E+01  0.61659273742E+03  0.62187360470E+03  0.80858126516E+02 0.  0.
         23    2    1    2    0    0 -0.25739720631E+02 -0.94049992467E+02  0.64501687393E+03  0.65870014049E+03  0.91275260238E+02 0.  0.
        -11    1    3    3    0    0 -0.34371276928E+01  0.24737249323E+02  0.62953627920E+02  0.67726690597E+02  0.00000000000E+00 0.  1.
         12    1    3    3    0    0  0.25405352334E+01 -0.23581444528E+02  0.55363910950E+03  0.55414691411E+03  0.00000000000E+00 0. -1.
        -13    1    4    4    0    0  0.24751028247E+02  0.19089235749E+01  0.13849189931E+03  0.14069919531E+03  0.00000000000E+00 0.  1.
         13    1    4    4    0    0 -0.50490748878E+02 -0.95958916042E+02  0.50652497462E+03  0.51800094518E+03  0.00000000000E+00 0. -1.
         21    1    1    2  503  501 -0.12446206001E+02  0.24006188299E+02  0.18070737463E+03  0.18271934864E+03  0.00000000000E+00 0. -1.
          1    1    1    2  501    0  0.39082519091E+02  0.68887999373E+02  0.49339536425E+03  0.49971190222E+03  0.00000000000E+00 0. -1.
<scales pt_clust_5="13000.00000" pt_clust_6="13000.00000" pt_clust_7="13000.00000" pt_clust_8="13000.00000" pt_clust_9="25.86234" pt_clust_10="106.69405"></scales>
<clustering>
<clus scale="   25.862">  9 10 -1 -1</clus>
<clus scale="   80.858">  5  6 -1 -1</clus>
<clus scale="   80.871">  1  5  2 -1</clus>
<clus scale="   91.275">  7  8 -1 -1</clus>
<clus scale="  106.694">  2  9  1 -1</clus>
<clus scale="  106.694">  2  5  1 -1</clus>
</clustering>
</event>
<event>
10    4  0.2977685E-005  0.1109764E+03  0.7546771E-02  0.1263275E+00
         21   -1    0    0  501  502  0.00000000000E+00  0.00000000000E+00  0.97533780747E+02  0.97533780747E+02  0.00000000000E+00 0.  1.
          2   -1    0    0  503    0 -0.00000000000E+00 -0.00000000000E+00 -0.54681820527E+03  0.54681820527E+03  0.00000000000E+00 0. -1.
         23    2    1    2    0    0 -0.38663124175E+02 -0.11109409353E+02 -0.36225234337E+03  0.37620434449E+03  0.93191697007E+02 0.  0.
         24    2    1    2    0    0  0.83333132464E+01 -0.24692496426E+02  0.20670734423E+02  0.88296499063E+02  0.81791374825E+02 0.  0.
        -11    1    4    4    0    0  0.12692511555E+02 -0.29643921160E+02  0.49304042551E+02  0.58913075995E+02  0.00000000000E+00 0.  1.
         12    1    4    4    0    0 -0.43591983087E+01  0.49514247339E+01 -0.28633308129E+02  0.29383423068E+02  0.00000000000E+00 0. -1.
        -11    1    3    3    0    0 -0.66761837648E+02 -0.31721698993E+01 -0.30123534260E+03  0.30856107541E+03  0.00000000000E+00 0. -1.
         11    1    3    3    0    0  0.28098713473E+02 -0.79372394532E+01 -0.61017000772E+02  0.67643269083E+02  0.00000000000E+00 0.  1.
         21    1    1    2  503  502 -0.46891109931E+02 -0.30026686324E+01 -0.72800181429E+02  0.86646746191E+02  0.00000000000E+00 0. -1.
          1    1    1    2  501    0  0.77220920859E+02  0.38804574411E+02 -0.34902634146E+02  0.93204396269E+02  0.00000000000E+00 0. -1.
<scales pt_clust_5="13000.00000" pt_clust_6="13000.00000" pt_clust_7="13000.00000" pt_clust_8="13000.00000" pt_clust_9="46.98715" pt_clust_10="80.53152"></scales>
<clustering>
<clus scale="   46.987">  2  9  1 -1</clus>
<clus scale="   80.532">  1 10  2 -1</clus>
<clus scale="   81.791">  5  6 -1 -1</clus>
<clus scale="   93.192">  7  8 -1 -1</clus>
<clus scale="  101.592">  1  5  2 -1</clus>
<clus scale="   80.532">  1  5  2 -1</clus>
</clustering>
</event>
<event>
10    4  0.2977685E-005  0.6361859E+03  0.7546771E-02  0.9833982E-01
          2   -1    0    0  503    0 -0.00000000000E+00  0.00000000000E+00  0.22681527024E+04  0.22681527024E+04  0.00000000000E+00 0. -1.
         21   -1    0    0  501  502  0.00000000000E+00 -0.00000000000E+00 -0.27220278110E+03  0.27220278110E+03  0.00000000000E+00 0. -1.
         23    2    1    2    0    0  0.58159501966E+03 -0.11356249016E+03  0.12572206440E+04  0.13929836163E+04  0.93007535008E+02 0.  0.
         24    2    1    2    0    0 -0.61523450590E+03  0.23490060512E+03  0.46112558437E+03  0.80779335883E+03  0.78749695046E+02 0.  0.
        -13    1    4    4    0    0 -0.41620098910E+02 -0.32429772344E+01  0.22348576315E+02  0.47351962979E+02  0.00000000000E+00 0.  1.
         14    1    4    4    0    0 -0.57361440699E+03  0.23814358236E+03  0.43877700806E+03  0.76044139585E+03  0.00000000000E+00 0. -1.
        -13    1    3    3    0    0  0.51038562510E+03 -0.75999839827E+02  0.10322374844E+04  0.11540293264E+04  0.00000000000E+00 0. -1.
         13    1    3    3    0    0  0.71209394556E+02 -0.37562650331E+02  0.22498315955E+03  0.23895428989E+03  0.00000000000E+00 0.  1.
         21    1    1    2  503  502  0.55409577404E+02  0.12784880762E+01  0.15586531233E+03  0.16542627175E+03  0.00000000000E+00 0. -1.
          1    1    1    2  501    0 -0.21770091159E+02 -0.12261660304E+03  0.12173838068E+03  0.17415223668E+03  0.00000000000E+00 0. -1.
<scales pt_clust_5="13000.00000" pt_clust_6="13000.00000" pt_clust_7="13000.00000" pt_clust_8="13000.00000" pt_clust_9="55.42432" pt_clust_10="123.82463"></scales>
<clustering>
<clus scale="   55.424">  1  9  2 -1</clus>
<clus scale="   78.750">  5  6 -1 -1</clus>
<clus scale="   93.008">  7  8 -1 -1</clus>
<clus scale="  123.825">  2 10  1 -1</clus>
<clus scale="  634.258">  2  5  1 -1</clus>
<clus scale="  123.825">  2  5  1 -1</clus>
</clustering>
</event>
<event>
10    4  0.2977685E-005  0.9270470E+02  0.7546771E-02  0.1301379E+00
         21   -1    0    0  501  502  0.00000000000E+00  0.00000000000E+00  0.85187273755E+02  0.85187273755E+02  0.00000000000E+00 0. -1.
          2   -1    0    0  503    0 -0.00000000000E+00 -0.00000000000E+00 -0.36248213437E+03  0.36248213437E+03  0.00000000000E+00 0. -1.
         24    2    1    2    0    0  0.18026012700E+02 -0.11353799480E+02 -0.19535892781E+03  0.21110324695E+03  0.77107874443E+02 0.  0.
         23    2    1    2    0    0 -0.27818103547E+01  0.81862712397E+01 -0.42914083723E+01  0.86454275616E+02  0.85913747915E+02 0.  0.
        -13    1    3    3    0    0 -0.26425076142E+02 -0.21032065714E+02 -0.97582899862E+02  0.10326206846E+03  0.00000000000E+00 0.  1.
         14    1    3    3    0    0  0.44451088842E+02  0.96782662339E+01 -0.97776027948E+02  0.10784117849E+03  0.00000000000E+00 0. -1.
        -13    1    4    4    0    0 -0.40014824670E+02 -0.85855867145E+01 -0.16047940397E+02  0.43959468645E+02  0.00000000000E+00 0.  1.
         13    1    4    4    0    0  0.37233014315E+02  0.16771857954E+02  0.11756532025E+02  0.42494806971E+02  0.00000000000E+00 0. -1.
         21    1    1    2  503  502  0.41321970688E+02  0.15670626749E+02 -0.80798159076E+02  0.92094605240E+02  0.00000000000E+00 0.  1.
          1    1    1    2  501    0 -0.56566173033E+02 -0.12503098509E+02  0.31536346459E+01  0.58017280317E+02  0.00000000000E+00 0. -1.
<scales pt_clust_5="13000.00000" pt_clust_6="13000.00000" pt_clust_7="13000.00000" pt_clust_8="13000.00000" pt_clust_9="44.19359" pt_clust_10="53.58945"></scales>
<clustering>
<clus scale="   44.194">  2  9  1 -1</clus>
<clus scale="   53.589">  1 10  2 -1</clus>
<clus scale="   77.108">  5  6 -1 -1</clus>
<clus scale="   84.609">  2  5  1 -1</clus>
<clus scale="   85.914">  7  8 -1 -1</clus>
<clus scale="   53.589">  1  5  2 -1</clus>
</clustering>
</event>
<event>
10    4  0.2977685E-005  0.8945882E+02  0.7546771E-02  0.1309333E+00
          2   -1    0    0  503    0 -0.00000000000E+00  0.00000000000E+00  0.76923162866E+03  0.76923162866E+03  0.00000000000E+00 0. -1.
         21   -1    0    0  501  502  0.00000000000E+00 -0.00000000000E+00 -0.32954733684E+02  0.32954733684E+02  0.00000000000E+00 0.  1.
         24    2    1    2    0    0  0.23174977031E+01  0.35102157149E+02  0.50520306173E+03  0.51227970854E+03  0.77219388576E+02 0.  0.
         23    2    1    2    0    0 -0.10769101774E+02  0.12301622208E+02  0.12293291285E+03  0.15072211119E+03  0.85658334544E+02 0.  0.
        -11    1    3    3    0    0  0.10721615860E+02  0.33115478150E+02  0.83192763541E+02  0.90181061456E+02  0.00000000000E+00 0.  1.
         12    1    3    3    0    0 -0.84041181574E+01  0.19866789991E+01  0.42201029819E+03  0.42209864708E+03  0.00000000000E+00 0. -1.
        -13    1    4    4    0    0  0.34807949851E+02  0.19848248449E+02  0.68188405640E+02  0.79089853983E+02  0.00000000000E+00 0.  1.
         13    1    4    4    0    0 -0.45577051625E+02 -0.75466262414E+01  0.54744507209E+02  0.71632257203E+02  0.00000000000E+00 0. -1.
         21    1    1    2  503  502  0.95256204546E+01  0.18824848512E+02  0.21471406992E+02  0.30102054495E+02  0.00000000000E+00 0.  1.
          1    1    1    2  501    0 -0.10740163840E+01 -0.66228627870E+02  0.86669513404E+02  0.10908248812E+03  0.00000000000E+00 0. -1.
<scales pt_clust_5="13000.00000" pt_clust_6="13000.00000" pt_clust_7="13000.00000" pt_clust_8="13000.00000" pt_clust_9="21.09769" pt_clust_10="58.92231"></scales>
<clustering>
<clus scale="   21.098">  2  9  1 -1</clus>
<clus scale="   58.922">  2 10  1 -1</clus>
<clus scale="   77.219">  5  6 -1 -1</clus>
<clus scale="   81.415">  1  5  2 -1</clus>
<clus scale="   85.658">  7  8 -1 -1</clus>
<clus scale="   21.098">  2  5  1 -1</clus>
</clustering>
</event>
<event>
10    4  0.2977685E-005  0.1005682E+03  0.7546771E-02  0.1282955E+00
         21   -1    0    0  503  502  0.00000000000E+00  0.00000000000E+00  0.45768104196E+02  0.45768104196E+02  0.00000000000E+00 0. -1.
         -1   -1    0    0    0  501 -0.00000000000E+00 -0.00000000000E+00 -0.71982498674E+03  0.71982498674E+03  0.00000000000E+00 0.  1.
         23    2    1    2    0    0  0.51478041479E+02 -0.57225778792E+02 -0.40448243245E+03  0.42140860162E+03  0.89746269253E+02 0.  0.
         24    2    1    2    0    0 -0.36333146765E+02 -0.29373719159E+02 -0.13649164728E+03  0.16580441864E+03  0.81720392392E+02 0.  0.
        -13    1    4    4    0    0 -0.36542333115E+02  0.21867607061E+02 -0.68644002052E+02  0.80780773491E+02  0.00000000000E+00 0.  1.
         14    1    4    4    0    0  0.20918635033E+00 -0.51241326220E+02 -0.67847645230E+02  0.85023645152E+02  0.00000000000E+00 0. -1.
        -11    1    3    3    0    0 -0.25728959018E+02 -0.15497489055E+02 -0.88091407977E+02  0.93071196718E+02  0.00000000000E+00 0. -1.
         11    1    3    3    0    0  0.77207000497E+02 -0.41728289737E+02 -0.31639102447E+03  0.32833740490E+03  0.00000000000E+00 0.  1.
         21    1    1    2  503  501 -0.18254374140E+02  0.15613112485E+02 -0.94542648241E+02  0.97546418659E+02  0.00000000000E+00 0.  1.
         -2    1    1    2    0  502  0.31094794257E+01  0.70986385466E+02 -0.38540154574E+02  0.80833652017E+02  0.00000000000E+00 0.  1.
<scales pt_clust_5="13000.00000" pt_clust_6="13000.00000" pt_clust_7="13000.00000" pt_clust_8="13000.00000" pt_clust_9="24.02065" pt_clust_10="72.49315"></scales>
<clustering>
<clus scale="   24.021">  2  9  1 -1</clus>
<clus scale="   72.493">  1 10  2 -1</clus>
<clus scale="   81.720">  5  6 -1 -1</clus>
<clus scale="   89.746">  7  8 -1 -1</clus>
<clus scale="   93.476">  1  5  2 -1</clus>
<clus scale="   72.493">  1  5  2 -1</clus>
</clustering>
</event>
<event>
10    4  0.2977685E-005  0.9541690E+02  0.7546771E-02  0.1296972E+00
         21   -1    0    0  503  502  0.00000000000E+00  0.00000000000E+00  0.22367266792E+02  0.22367266792E+02  0.00000000000E+00 0. -1.
          2   -1    0    0  502    0 -0.00000000000E+00 -0.00000000000E+00 -0.77358357965E+03  0.77358357965E+03  0.00000000000E+00 0. -1.
         23    2    1    2    0    0  0.56056563783E+00 -0.37234357105E+01 -0.20619085644E+03  0.22585165244E+03  0.92087574754E+02 0.  0.
         24    2    1    2    0    0  0.30053942978E+02 -0.43172635003E+02 -0.23118511330E+03  0.25034916951E+03  0.80380558364E+02 0.  0.
        -11    1    4    4    0    0  0.26684794113E+02 -0.20714683803E+01 -0.15861393764E+02  0.31111943530E+02  0.00000000000E+00 0.  1.
         12    1    4    4    0    0  0.33691488648E+01 -0.41101166623E+02 -0.21532371954E+03  0.21923722598E+03  0.00000000000E+00 0. -1.
        -11    1    3    3    0    0  0.27450779180E+02 -0.26902279727E+02 -0.17311340544E+03  0.17732887265E+03  0.00000000000E+00 0.  1.
         11    1    3    3    0    0 -0.26890213542E+02  0.23178844016E+02 -0.33077451005E+02  0.48522779797E+02  0.00000000000E+00 0. -1.
         21    1    1    2  503  501 -0.23934037787E+02  0.14989396446E+02 -0.16288585349E+03  0.16531582331E+03  0.00000000000E+00 0. -1.
          1    1    1    2  501    0 -0.66804708286E+01  0.31906674268E+02 -0.15095448963E+03  0.15443420117E+03  0.00000000000E+00 0. -1.
<scales pt_clust_5="13000.00000" pt_clust_6="13000.00000" pt_clust_7="13000.00000" pt_clust_8="13000.00000" pt_clust_9="22.94704" pt_clust_10="61.19086"></scales>
<clustering>
<clus scale="   22.947">  9 10 -1 -1</clus>
<clus scale="   61.191">  1  9  2 -1</clus>
<clus scale="   80.381">  5  6 -1 -1</clus>
<clus scale="   84.174">  1  5  2 -1</clus>
<clus scale="   92.088">  7  8 -1 -1</clus>
<clus scale="   61.191">  1  5  2 -1</clus>
</clustering>
</event>
<event>
10    4  0.2977685E-005  0.2141476E+03  0.7546771E-02  0.1139031E+00
          2   -1    0    0  503    0 -0.00000000000E+00  0.00000000000E+00  0.72079008282E+03  0.72079008282E+03  0.00000000000E+00 0. -1.
         21   -1    0    0  501  502  0.00000000000E+00 -0.00000000000E+00 -0.11776532932E+03  0.11776532932E+03  0.00000000000E+00 0.  1.
         24    2    1    2    0    0  0.54315561705E+01 -0.21487536670E+03  0.28470614498E+03  0.36593132792E+03  0.81530501948E+02 0.  0.
         23    2    1    2    0    0  0.26809836014E+01  0.16492204729E+03  0.47905405578E+02  0.19414356510E+03  0.90500423368E+02 0.  0.
        -11    1    3    3    0    0  0.10116490610E+02 -0.21940388875E+03  0.28449357469E+03  0.35941202514E+03  0.00000000000E+00 0.  1.
         12    1    3    3    0    0 -0.46849344399E+01  0.45285220439E+01  0.21257029380E+00  0.65193027801E+01  0.00000000000E+00 0. -1.
        -11    1    4    4    0    0 -0.94031899364E+01  0.23053312611E+02  0.45353838147E+02  0.51738243476E+02  0.00000000000E+00 0. -1.
         11    1    4    4    0    0  0.12084173538E+02  0.14186873468E+03  0.25515674302E+01  0.14240532162E+03  0.00000000000E+00 0.  1.
         21    1    1    2  503  502  0.15070502134E+02  0.13377555568E+02  0.12965574633E+03  0.13121239112E+03  0.00000000000E+00 0. -1.
          1    1    1    2  501    0 -0.23183041906E+02  0.36575763839E+02  0.14075745661E+03  0.14726812800E+03  0.00000000000E+00 0. -1.
<scales pt_clust_5="13000.00000" pt_clust_6="13000.00000" pt_clust_7="13000.00000" pt_clust_8="13000.00000" pt_clust_9="20.15140" pt_clust_10="44.35841"></scales>
<clustering>
<clus scale="   20.151">  1  9  2 -1</clus>
<clus scale="   44.358">  2 10  1 -1</clus>
<clus scale="   81.531">  5  6 -1 -1</clus>
<clus scale="   90.500">  7  8 -1 -1</clus>
<clus scale="  210.514">  1  5  2 -1</clus>
<clus scale="   44.358">  2  5  1 -1</clus>
</clustering>
</event>
<event>
10    4  0.2977685E-005  0.9409638E+02  0.7546771E-02  0.1301389E+00
         21   -1    0    0  503  502  0.00000000000E+00  0.00000000000E+00  0.18730426769E+03  0.18730426769E+03  0.00000000000E+00 0.  1.
         -1   -1    0    0    0  501 -0.00000000000E+00 -0.00000000000E+00 -0.19333109986E+03  0.19333109986E+03  0.00000000000E+00 0.  1.
         23    2    1    2    0    0 -0.11994823169E+02  0.11057522860E+01 -0.91525324840E+02  0.13094260518E+03  0.92865398796E+02 0.  0.
         24    2    1    2    0    0 -0.28429612532E+02 -0.19927489565E+02 -0.61461615176E+01  0.86931508477E+02  0.79460456553E+02 0.  0.
        -13    1    4    4    0    0 -0.52951964271E+02 -0.29196954406E+02 -0.53404434852E+01  0.60703319542E+02  0.00000000000E+00 0.  1.
         14    1    4    4    0    0  0.24522351739E+02  0.92694648405E+01 -0.80571803239E+00  0.26228188935E+02  0.00000000000E+00 0. -1.
        -13    1    3    3    0    0 -0.15467662593E+02  0.30724296400E+02 -0.94889595902E+02  0.10093198891E+03  0.00000000000E+00 0.  1.
         13    1    3    3    0    0  0.34728394235E+01 -0.29618544114E+02  0.33642710616E+01  0.30010616269E+02  0.00000000000E+00 0. -1.
         21    1    1    2  503  501  0.24018008934E+02  0.70698533917E+01 -0.30215913066E+02  0.39240909553E+02  0.00000000000E+00 0. -1.
         -2    1    1    2    0  502  0.16406426767E+02  0.11751883888E+02  0.12186056725E+03  0.12352034434E+03  0.00000000000E+00 0.  1.
<scales pt_clust_5="13000.00000" pt_clust_6="13000.00000" pt_clust_7="13000.00000" pt_clust_8="13000.00000" pt_clust_9="26.37192" pt_clust_10="20.18112"></scales>
<clustering>
<clus scale="   20.181">  1 10  2 -1</clus>
<clus scale="   26.372">  2  9  1 -1</clus>
<clus scale="   79.460">  5  6 -1 -1</clus>
<clus scale="   80.896">  1  5  2 -1</clus>
<clus scale="   92.865">  7  8 -1 -1</clus>
<clus scale="   20.181">  1  5  2 -1</clus>
</clustering>
</event>
<event>
10    4  0.2977685E-005  0.1712871E+03  0.7546771E-02  0.1178515E+00
         21   -1    0    0  501  502  0.00000000000E+00  0.00000000000E+00  0.22870622446E+03  0.22870622446E+03  0.00000000000E+00 0. -1.
          2   -1    0    0  503    0 -0.00000000000E+00 -0.00000000000E+00 -0.62281115135E+03  0.62281115135E+03  0.00000000000E+00 0. -1.
         23    2    1    2    0    0  0.73915774009E+02  0.17487212940E+03 -0.29239563071E+03  0.36112159731E+03  0.94179615084E+02 0.  0.
         24    2    1    2    0    0 -0.63364404660E+02 -0.84389949544E+02 -0.12654308600E+03  0.18298357327E+03  0.79580928050E+02 0.  0.
        -11    1    4    4    0    0 -0.81705376879E+02 -0.72442460067E+02 -0.95922283053E+02  0.14534360329E+03  0.00000000000E+00 0.  1.
         12    1    4    4    0    0  0.18340972219E+02 -0.11947489477E+02 -0.30620802944E+02  0.37639969974E+02  0.00000000000E+00 0. -1.
        -11    1    3    3    0    0  0.82713960979E+02  0.10849885056E+03 -0.24013848877E+03  0.27618851117E+03  0.00000000000E+00 0.  1.
         11    1    3    3    0    0 -0.87981869706E+01  0.66373278835E+02 -0.52257141944E+02  0.84933086141E+02  0.00000000000E+00 0. -1.
         21    1    1    2  503  502  0.30496002070E+01 -0.21326211571E+02 -0.13290695188E+03  0.13464161771E+03  0.00000000000E+00 0. -1.
          1    1    1    2  501    0 -0.13600969556E+02 -0.69155968282E+02  0.15774074169E+03  0.17277058752E+03  0.00000000000E+00 0. -1.
<scales pt_clust_5="13000.00000" pt_clust_6="13000.00000" pt_clust_7="13000.00000" pt_clust_8="13000.00000" pt_clust_9="21.54315" pt_clust_10="70.79333"></scales>
<clustering>
<clus scale="   21.543">  2  9  1 -1</clus>
<clus scale="   70.793">  1 10  2 -1</clus>
<clus scale="   79.581">  5  6 -1 -1</clus>
<clus scale="   94.180">  7  8 -1 -1</clus>
<clus scale="  163.715">  1  5  2 -1</clus>
<clus scale="   70.793">  1  5  2 -1</clus>
</clustering>
</event>
<event>
10    4  0.2977685E-005  0.1340213E+03  0.7546771E-02  0.1248318E+00
         21   -1    0    0  501  502  0.00000000000E+00  0.00000000000E+00  0.66049209904E+02  0.66049209904E+02  0.00000000000E+00 0. -1.
          2   -1    0    0  503    0 -0.00000000000E+00 -0.00000000000E+00 -0.89023660488E+03  0.89023660488E+03  0.00000000000E+00 0. -1.
         24    2    1    2    0    0 -0.96751358864E+01  0.25901459408E+01 -0.38094434179E+03  0.38863950015E+03  0.76300409100E+02 0.  0.
         23    2    1    2    0    0  0.44295461330E+02  0.82763774423E+02 -0.32295011276E+02  0.13551765260E+03  0.92250399242E+02 0.  0.
        -11    1    3    3    0    0 -0.18993803888E+02 -0.13938482306E+02 -0.35091365282E+02  0.42266414474E+02  0.00000000000E+00 0.  1.
         12    1    3    3    0    0  0.93186680017E+01  0.16528628247E+02 -0.34585297650E+03  0.34637308568E+03  0.00000000000E+00 0. -1.
        -13    1    4    4    0    0  0.13555371913E+02  0.70897508986E+02 -0.58902789715E+02  0.93165141144E+02  0.00000000000E+00 0.  1.
         13    1    4    4    0    0  0.30740089418E+02  0.11866265437E+02  0.26607778438E+02  0.42352511451E+02  0.00000000000E+00 0. -1.
         21    1    1    2  503  502  0.51761857826E+01  0.19984868348E+02 -0.52662901868E+02  0.56564733671E+02  0.00000000000E+00 0. -1.
          1    1    1    2  501    0 -0.39796511226E+02 -0.10533878871E+03 -0.35828514005E+03  0.37556392837E+03  0.00000000000E+00 0. -1.
<scales pt_clust_5="13000.00000" pt_clust_6="13000.00000" pt_clust_7="13000.00000" pt_clust_8="13000.00000" pt_clust_9="20.64432" pt_clust_10="97.21927"></scales>
<clustering>
<clus scale="   20.644">  2  9  1 -1</clus>
<clus scale="   76.300">  5  6 -1 -1</clus>
<clus scale="   77.550">  2  5  1 -1</clus>
<clus scale="   92.250">  7  8 -1 -1</clus>
<clus scale="   97.219">  1 10  2 -1</clus>
<clus scale="   97.219">  1  5  2 -1</clus>
</clustering>
</event>
<event>
10    4  0.2977685E-005  0.1304049E+03  0.7546771E-02  0.1228530E+00
          2   -1    0    0  503    0 -0.00000000000E+00  0.00000000000E+00  0.17821662331E+04  0.17821662331E+04  0.00000000000E+00 0. -1.
         21   -1    0    0  501  502  0.00000000000E+00 -0.00000000000E+00 -0.31143853097E+02  0.31143853097E+02  0.00000000000E+00 0.  1.
         24    2    1    2    0    0 -0.60204300005E+02 -0.99061599396E+02  0.13872521098E+04  0.13943809392E+04  0.79950166682E+02 0.  0.
         23    2    1    2    0    0  0.43010408787E+02  0.77386459667E+02  0.14189882460E+03  0.18842992343E+03  0.86787097070E+02 0.  0.
        -11    1    3    3    0    0  0.69081084607E+01 -0.27540569346E+02  0.11893445596E+03  0.12227677513E+03  0.00000000000E+00 0.  1.
         12    1    3    3    0    0 -0.67112408466E+02 -0.71521030049E+02  0.12683176538E+04  0.12721041640E+04  0.00000000000E+00 0. -1.
        -11    1    4    4    0    0  0.47303449110E+02  0.65548194307E+01  0.84907108493E+02  0.97415599511E+02  0.00000000000E+00 0. -1.
         11    1    4    4    0    0 -0.42930403230E+01  0.70831640237E+02  0.56991716103E+02  0.91014323918E+02  0.00000000000E+00 0.  1.
         21    1    1    2  503  502  0.35909524195E+02  0.52339575105E+01  0.15348775870E+03  0.15771930862E+03  0.00000000000E+00 0. -1.
          1    1    1    2  501    0 -0.18715632977E+02  0.16441182218E+02  0.68383686891E+02  0.72779914971E+02  0.00000000000E+00 0. -1.
<scales pt_clust_5="13000.00000" pt_clust_6="13000.00000" pt_clust_7="13000.00000" pt_clust_8="13000.00000" pt_clust_9="35.13595" pt_clust_10="24.91159"></scales>
<clustering>
<clus scale="   24.912">  2 10  1 -1</clus>
<clus scale="   35.136">  1  9  2 -1</clus>
<clus scale="   79.950">  5  6 -1 -1</clus>
<clus scale="   86.787">  7  8 -1 -1</clus>
<clus scale="  125.958">  1  5  2 -1</clus>
<clus scale="   24.912">  2  5  1 -1</clus>
</clustering>
</event>
<event>
10    4  0.2977685E-005  0.1290040E+03  0.7546771E-02  0.1231944E+00
          2   -1    0    0  503    0 -0.00000000000E+00  0.00000000000E+00  0.13727757687E+03  0.13727757687E+03  0.00000000000E+00 0. -1.
         21   -1    0    0  501  502  0.00000000000E+00 -0.00000000000E+00 -0.75091905181E+03  0.75091905181E+03  0.00000000000E+00 0. -1.
         24    2    1    2    0    0  0.10915273456E+03  0.42340499966E+02  0.11180995861E+02  0.14262795105E+03  0.80688787041E+02 0.  0.
         23    2    1    2    0    0 -0.64146601517E+02 -0.74974606284E+02 -0.39702400561E+03  0.41930225759E+03  0.91925753247E+02 0.  0.
        -13    1    3    3    0    0  0.11462441912E+02  0.41631633051E+02 -0.54712208014E+01  0.43526023275E+02  0.00000000000E+00 0.  1.
         14    1    3    3    0    0  0.97690292643E+02  0.70886691503E+00  0.16652216662E+02  0.99101927775E+02  0.00000000000E+00 0. -1.
        -13    1    4    4    0    0  0.20850470566E+02 -0.11699599216E+02 -0.12700685892E+03  0.12923762980E+03  0.00000000000E+00 0. -1.
         13    1    4    4    0    0 -0.84997072083E+02 -0.63275007068E+02 -0.27001714670E+03  0.29006462779E+03  0.00000000000E+00 0.  1.
         21    1    1    2  503  502 -0.30824877586E+02 -0.77595496894E+01  0.42235252096E+02  0.52860194941E+02  0.00000000000E+00 0.  1.
          1    1    1    2  501    0 -0.14181255451E+02  0.40393656007E+02 -0.27003371728E+03  0.27340622510E+03  0.00000000000E+00 0. -1.
<scales pt_clust_5="13000.00000" pt_clust_6="13000.00000" pt_clust_7="13000.00000" pt_clust_8="13000.00000" pt_clust_9="31.78653" pt_clust_10="42.86912"></scales>
<clustering>
<clus scale="   31.787">  1  9  2 -1</clus>
<clus scale="   42.869">  2 10  1 -1</clus>
<clus scale="   80.689">  5  6 -1 -1</clus>
<clus scale="   91.926">  7  8 -1 -1</clus>
<clus scale="  121.253">  1  5  2 -1</clus>
<clus scale="   42.869">  2  5  1 -1</clus>
</clustering>
</event>
<event>
10    4  0.2977685E-005  0.1168374E+03  0.7546771E-02  0.1250915E+00
         21   -1    0    0  501  502  0.00000000000E+00  0.00000000000E+00  0.12715496721E+03  0.12715496721E+03  0.00000000000E+00 0.  1.
          2   -1    0    0  503    0 -0.00000000000E+00 -0.00000000000E+00 -0.41846082707E+03  0.41846082707E+03  0.00000000000E+00 0. -1.
         24    2    1    2    0    0 -0.85865184008E+02 -0.10679992308E+02 -0.12083363984E+03  0.16933118531E+03  0.81150414310E+02 0.  0.
         23    2    1    2    0    0  0.33262201153E+02  0.70828944260E+02 -0.60947592312E+02  0.13313704677E+03  0.88813010554E+02 0.  0.
        -11    1    3    3    0    0 -0.59626553817E+02 -0.17537605483E+01 -0.17239273967E+02  0.62093430917E+02  0.00000000000E+00 0.  1.
         12    1    3    3    0    0 -0.26238630191E+02 -0.89262317594E+01 -0.10359436587E+03  0.10723775440E+03  0.00000000000E+00 0. -1.
        -11    1    4    4    0    0  0.43813428355E+02  0.47536333724E+02  0.25356037033E+01  0.64697363272E+02  0.00000000000E+00 0. -1.
         11    1    4    4    0    0 -0.10551227202E+02  0.23292610535E+02 -0.63483196016E+02  0.68439683498E+02  0.00000000000E+00 0.  1.
         21    1    1    2  503  502 -0.43069758838E+02  0.46711045924E+01 -0.11954276432E+03  0.12715068166E+03  0.00000000000E+00 0. -1.
          1    1    1    2  501    0  0.95672741693E+02 -0.64820056544E+02  0.10018136614E+02  0.11599688054E+03  0.00000000000E+00 0. -1.
<scales pt_clust_5="13000.00000" pt_clust_6="13000.00000" pt_clust_7="13000.00000" pt_clust_8="13000.00000" pt_clust_9="43.32232" pt_clust_10="108.75172"></scales>
<clustering>
<clus scale="   43.322">  2  9  1 -1</clus>
<clus scale="   81.150">  5  6 -1 -1</clus>
<clus scale="   88.813">  7  8 -1 -1</clus>
<clus scale="  108.752">  1 10  2 -1</clus>
<clus scale="  111.124">  2  5  1 -1</clus>
<clus scale="  108.752">  1  5  2 -1</clus>
</clustering>
</event>
<event>
10    4  0.2977685E-005  0.1155247E+03  0.7546771E-02  0.1253077E+00
          2   -1    0    0  503    0 -0.00000000000E+00  0.00000000000E+00  0.12891317460E+04  0.12891317460E+04  0.00000000000E+00 0. -1.
         21   -1    0    0  501  502  0.00000000000E+00 -0.00000000000E+00 -0.46371107738E+02  0.46371107738E+02  0.00000000000E+00 0. -1.
         24    2    1    2    0    0  0.54248842927E+02  0.15453072945E+02  0.29980256686E+03  0.31551074008E+03  0.80521510091E+02 0.  0.
         23    2    1    2    0    0 -0.11587835489E+03 -0.23950677021E+02  0.18501912572E+03  0.23651294754E+03  0.87777385532E+02 0.  0.
        -13    1    3    3    0    0 -0.12487724209E+02  0.22053035652E+02  0.13888474055E+03  0.14117808185E+03  0.00000000000E+00 0.  1.
         14    1    3    3    0    0  0.66736567136E+02 -0.65999627069E+01  0.16091782631E+03  0.17433265823E+03  0.00000000000E+00 0. -1.
        -13    1    4    4    0    0 -0.77848849569E+02 -0.41884511423E+02  0.66104109242E+02  0.11038346314E+03  0.00000000000E+00 0. -1.
         13    1    4    4    0    0 -0.38029505325E+02  0.17933834402E+02  0.11891501648E+03  0.12612948440E+03  0.00000000000E+00 0.  1.
         21    1    1    2  503  502 -0.20766911974E+02  0.77626044610E+02  0.20518789146E+03  0.22036138100E+03  0.00000000000E+00 0. -1.
          1    1    1    2  501    0  0.82396423941E+02 -0.69128440535E+02  0.55275105421E+03  0.56311778510E+03  0.00000000000E+00 0. -1.
<scales pt_clust_5="13000.00000" pt_clust_6="13000.00000" pt_clust_7="13000.00000" pt_clust_8="13000.00000" pt_clust_9="80.35588" pt_clust_10="77.23853"></scales>
<clustering>
<clus scale="   80.356">  1  9  2 -1</clus>
<clus scale="   77.239">  2 10  1 -1</clus>
<clus scale="   80.522">  5  6 -1 -1</clus>
<clus scale="   87.777">  7  8 -1 -1</clus>
<clus scale="  110.113">  1  5  2 -1</clus>
<clus scale="   77.239">  2  5  1 -1</clus>
</clustering>
</event>
<event>
10    4  0.2977685E-005  0.1710690E+03  0.7546771E-02  0.1178915E+00
         21   -1    0    0  501  502  0.00000000000E+00  0.00000000000E+00  0.17514169700E+03  0.17514169700E+03  0.00000000000E+00 0. -1.
          2   -1    0    0  503    0 -0.00000000000E+00 -0.00000000000E+00 -0.80186273071E+03  0.80186273071E+03  0.00000000000E+00 0. -1.
         23    2    1    2    0    0  0.53988859494E+02 -0.10663757129E+03 -0.40847824216E+03  0.43530352212E+03  0.91369105756E+02 0.  0.
         24    2    1    2    0    0 -0.48495271374E+02  0.34232478742E+02  0.47515407424E+02  0.12988047447E+03  0.10529752969E+03 0.  0.
        -13    1    4    4    0    0 -0.65072039376E+02  0.53636966473E+02  0.10585686211E+02  0.84990300820E+02  0.00000000000E+00 0.  1.
         14    1    4    4    0    0  0.16576768002E+02 -0.19404487730E+02  0.36929721213E+02  0.44890173650E+02  0.00000000000E+00 0. -1.
        -13    1    3    3    0    0  0.70572806563E+02 -0.62854482149E+02 -0.33584548971E+03  0.34888880738E+03  0.00000000000E+00 0. -1.
         13    1    3    3    0    0 -0.16583947069E+02 -0.43783089140E+02 -0.72632752449E+02  0.86414714738E+02  0.00000000000E+00 0.  1.
         21    1    1    2  503  502  0.20635444344E+02 -0.37937786501E+02 -0.29220801715E+03  0.29538216347E+03  0.00000000000E+00 0.  1.
          1    1    1    2  501    0 -0.26129032464E+02  0.11034287905E+03  0.26449818178E+02  0.11643826766E+03  0.00000000000E+00 0. -1.
<scales pt_clust_5="13000.00000" pt_clust_6="13000.00000" pt_clust_7="13000.00000" pt_clust_8="13000.00000" pt_clust_9="43.18677" pt_clust_10="109.70850"></scales>
<clustering>
<clus scale="   43.187">  2  9  1 -1</clus>
<clus scale="   91.369">  7  8 -1 -1</clus>
<clus scale="  105.298">  5  6 -1 -1</clus>
<clus scale="  109.709">  1 10  2 -1</clus>
<clus scale="  162.866">  2  7  1 -1</clus>
<clus scale="  109.709">  1  5  2 -1</clus>
</clustering>
</event>
<event>
10    4  0.2977685E-005  0.9749237E+02  0.7546771E-02  0.1290789E+00
         -3   -1    0    0    0  501 -0.00000000000E+00  0.00000000000E+00  0.16617018822E+03  0.16617018822E+03  0.00000000000E+00 0.  1.
         21   -1    0    0  503  502  0.00000000000E+00 -0.00000000000E+00 -0.33025634564E+03  0.33025634564E+03  0.00000000000E+00 0. -1.
         24    2    1    2    0    0  0.20016665257E+02  0.30218748507E+02  0.94148825406E+02  0.12909239327E+03  0.80541945759E+02 0.  0.
         23    2    1    2    0    0 -0.83708434999E+02  0.18281183218E+02 -0.11006648807E+03  0.16615917210E+03  0.90293604010E+02 0.  0.
        -13    1    3    3    0    0  0.19759132203E+02  0.57546137976E+02  0.68384771389E+02  0.91533918627E+02  0.00000000000E+00 0.  1.
         14    1    3    3    0    0  0.25753305407E+00 -0.27327389469E+02  0.25764054017E+02  0.37558474648E+02  0.00000000000E+00 0. -1.
        -11    1    4    4    0    0 -0.94473900395E+02 -0.78452643058E+01 -0.73544675491E+02  0.11998202082E+03  0.00000000000E+00 0. -1.
         11    1    4    4    0    0  0.10765465396E+02  0.26126447524E+02 -0.36521812580E+02  0.46177151271E+02  0.00000000000E+00 0.  1.
         21    1    1    2  503  501  0.62207884779E+02 -0.24288565457E+02 -0.18554992070E+02  0.69311204515E+02  0.00000000000E+00 0.  1.
         -4    1    1    2    0  502  0.14838849635E+01 -0.24211366269E+02 -0.12961350269E+03  0.13186376398E+03  0.00000000000E+00 0.  1.
<scales pt_clust_5="13000.00000" pt_clust_6="13000.00000" pt_clust_7="13000.00000" pt_clust_8="13000.00000" pt_clust_9="69.19475" pt_clust_10="24.25680"></scales>
<clustering>
<clus scale="   24.257">  2 10  1 -1</clus>
<clus scale="   69.195">  2  9  1 -1</clus>
<clus scale="   80.542">  5  6 -1 -1</clus>
<clus scale="   88.537">  1  5  2 -1</clus>
<clus scale="   90.294">  7  8 -1 -1</clus>
<clus scale="   24.257">  2  5  1 -1</clus>
</clustering>
</event>
<event>
10    4  0.2977685E-005  0.1684909E+03  0.7546771E-02  0.1181176E+00
         -1   -1    0    0    0  501 -0.00000000000E+00  0.00000000000E+00  0.21951839943E+03  0.21951839943E+03  0.00000000000E+00 0.  1.
         21   -1    0    0  503  502  0.00000000000E+00 -0.00000000000E+00 -0.68322411408E+03  0.68322411408E+03  0.00000000000E+00 0.  1.
         24    2    1    2    0    0 -0.49208130781E+02 -0.14111425980E+03  0.11368888516E+03  0.20405892278E+03  0.79876197355E+02 0.  0.
         23    2    1    2    0    0  0.34843096377E+02  0.90694054223E+02 -0.74120560100E+02  0.15314784318E+03  0.92309000678E+02 0.  0.
        -13    1    3    3    0    0 -0.22084243634E+02 -0.14030859040E+03  0.90992819310E+02  0.16868286079E+03  0.00000000000E+00 0.  1.
         14    1    3    3    0    0 -0.27123887147E+02 -0.80566939799E+00  0.22696065846E+02  0.35376061992E+02  0.00000000000E+00 0. -1.
        -13    1    4    4    0    0  0.61593712861E+02  0.67303038880E+02 -0.74224419568E+02  0.11761270750E+03  0.00000000000E+00 0. -1.
         13    1    4    4    0    0 -0.26750616484E+02  0.23391015343E+02  0.10385946739E+00  0.35535135680E+02  0.00000000000E+00 0.  1.
         21    1    1    2  503  501 -0.14584468878E+02 -0.16904256869E+02  0.11814828676E+02  0.25259667642E+02  0.00000000000E+00 0. -1.
         -2    1    1    2    0  502  0.28949503282E+02  0.67324462448E+02 -0.51508886838E+03  0.52027607990E+03  0.00000000000E+00 0.  1.
<scales pt_clust_5="13000.00000" pt_clust_6="13000.00000" pt_clust_7="13000.00000" pt_clust_8="13000.00000" pt_clust_9="22.32623" pt_clust_10="73.01007"></scales>
<clustering>
<clus scale="   22.326">  1  9  2 -1</clus>
<clus scale="   73.010">  2 10  1 -1</clus>
<clus scale="   79.876">  5  6 -1 -1</clus>
<clus scale="   92.309">  7  8 -1 -1</clus>
<clus scale="  162.014">  1  5  2 -1</clus>
<clus scale="   73.010">  2  5  1 -1</clus>
</clustering>
</event>
<event>
10    4  0.2977685E-005  0.2536183E+03  0.7546771E-02  0.1111722E+00
          2   -1    0    0  503    0 -0.00000000000E+00  0.00000000000E+00  0.32189394267E+03  0.32189394267E+03  0.00000000000E+00 0. -1.
         21   -1    0    0  501  502  0.00000000000E+00 -0.00000000000E+00 -0.56315865350E+03  0.56315865350E+03  0.00000000000E+00 0. -1.
         23    2    1    2    0    0  0.24688310874E+01 -0.33279229770E+03 -0.87767086984E+02  0.35646063297E+03  0.92759434915E+02 0.  0.
         24    2    1    2    0    0 -0.13799598685E+03  0.13784537183E+03 -0.11349568779E+02  0.21115138654E+03  0.80074068228E+02 0.  0.
        -13    1    4    4    0    0 -0.38099350641E+02  0.10265229881E+02  0.22776164519E+02  0.45559731496E+02  0.00000000000E+00 0.  1.
         14    1    4    4    0    0 -0.99896636211E+02  0.12758014195E+03 -0.34125733298E+02  0.16559165504E+03  0.00000000000E+00 0. -1.
        -11    1    3    3    0    0  0.18046439860E+02 -0.19027753683E+03 -0.55864906110E+01  0.19121303274E+03  0.00000000000E+00 0.  1.
         11    1    3    3    0    0 -0.15577608772E+02 -0.14251476087E+03 -0.82180596373E+02  0.16524760022E+03  0.00000000000E+00 0. -1.
         21    1    1    2  503  502  0.94584070915E+02  0.17061900826E+03 -0.32333518895E+02  0.19774339153E+03  0.00000000000E+00 0. -1.
          1    1    1    2  501    0  0.40943084850E+02  0.24327917607E+02 -0.10981453618E+03  0.11969718513E+03  0.00000000000E+00 0. -1.
<scales pt_clust_5="13000.00000" pt_clust_6="13000.00000" pt_clust_7="13000.00000" pt_clust_8="13000.00000" pt_clust_9="205.72578" pt_clust_10="47.62545"></scales>
<clustering>
<clus scale="   47.625">  2 10  1 -1</clus>
<clus scale="   80.074">  5  6 -1 -1</clus>
<clus scale="   92.759">  7  8 -1 -1</clus>
<clus scale="  205.726">  1  9  2 -1</clus>
<clus scale="  249.258">  2  5  1 -1</clus>
<clus scale="   47.625">  2  5  1 -1</clus>
</clustering>
</event>
<event>
10    4  0.2977685E-005  0.1092858E+03  0.7546771E-02  0.1267451E+00
          2   -1    0    0  503    0 -0.00000000000E+00  0.00000000000E+00  0.34498003650E+03  0.34498003650E+03  0.00000000000E+00 0. -1.
         21   -1    0    0  501  502  0.00000000000E+00 -0.00000000000E+00 -0.19178122024E+03  0.19178122024E+03  0.00000000000E+00 0. -1.
         24    2    1    2    0    0  0.41055624804E+02 -0.35019528181E+02  0.24617080698E+03  0.26430461445E+03  0.79655077243E+02 0.  0.
         23    2    1    2    0    0 -0.41892489210E+02 -0.25778574476E+01  0.18688653804E+02  0.10383651674E+03  0.93118904773E+02 0.  0.
        -13    1    3    3    0    0  0.44367049859E+02 -0.49536025143E+02  0.11946117841E+03  0.13672317304E+03  0.00000000000E+00 0.  1.
         14    1    3    3    0    0 -0.33114250548E+01  0.14516496962E+02  0.12670962857E+03  0.12758144141E+03  0.00000000000E+00 0. -1.
        -11    1    4    4    0    0 -0.71634806759E+02  0.32614487296E+01  0.10810572103E+02  0.72519315058E+02  0.00000000000E+00 0.  1.
         11    1    4    4    0    0  0.29742317549E+02 -0.58393061772E+01  0.78780817015E+01  0.31317201681E+02  0.00000000000E+00 0. -1.
         21    1    1    2  503  502  0.24295989073E+02  0.11840092577E+02  0.19231187244E+02  0.33171093441E+02  0.00000000000E+00 0.  1.
          1    1    1    2  501    0 -0.23459124666E+02  0.25757293051E+02 -0.13089183177E+03  0.13544903211E+03  0.00000000000E+00 0. -1.
<scales pt_clust_5="13000.00000" pt_clust_6="13000.00000" pt_clust_7="13000.00000" pt_clust_8="13000.00000" pt_clust_9="27.02745" pt_clust_10="34.78531"></scales>
<clustering>
<clus scale="   27.027">  1  9  2 -1</clus>
<clus scale="   34.785">  2 10  1 -1</clus>
<clus scale="   79.655">  5  6 -1 -1</clus>
<clus scale="   93.119">  7  8 -1 -1</clus>
<clus scale="   98.067">  1  5  2 -1</clus>
<clus scale="   34.785">  2  5  1 -1</clus>
</clustering>
</event>
<event>
10    4  0.2977685E-005  0.1002998E+03  0.7546771E-02  0.1283652E+00
          2   -1    0    0  503    0 -0.00000000000E+00  0.00000000000E+00  0.26980250680E+03  0.26980250680E+03  0.00000000000E+00 0. -1.
         21   -1    0    0  501  502  0.00000000000E+00 -0.00000000000E+00 -0.93854022866E+02  0.93854022866E+02  0.00000000000E+00 0.  1.
         24    2    1    2    0    0 -0.39941296182E+02  0.13798433633E+02  0.13944988092E+03  0.16673897284E+03  0.81054992835E+02 0.  0.
         23    2    1    2    0    0  0.19532453908E+02 -0.81472672734E+01 -0.26013137867E+02  0.95429386073E+02  0.89343100824E+02 0.  0.
        -13    1    3    3    0    0 -0.52441804137E+02  0.37435242576E+02  0.92926611671E+02  0.11307915531E+03  0.00000000000E+00 0.  1.
         14    1    3    3    0    0  0.12500507956E+02 -0.23636808943E+02  0.46523269250E+02  0.53659817535E+02  0.00000000000E+00 0. -1.
        -13    1    4    4    0    0  0.39102149819E+02  0.26450052657E+02 -0.29273291549E+02  0.55547358210E+02  0.00000000000E+00 0.  1.
         13    1    4    4    0    0 -0.19569695912E+02 -0.34597319930E+02  0.32601536813E+01  0.39882027863E+02  0.00000000000E+00 0. -1.
         21    1    1    2  503  502 -0.19641622439E+02 -0.16800197039E+02  0.52813166871E+02  0.58798559060E+02  0.00000000000E+00 0. -1.
          1    1    1    2  501    0  0.40050464713E+02  0.11149030679E+02  0.96985740118E+01  0.42689611695E+02  0.00000000000E+00 0. -1.
<scales pt_clust_5="13000.00000" pt_clust_6="13000.00000" pt_clust_7="13000.00000" pt_clust_8="13000.00000" pt_clust_9="25.84647" pt_clust_10="38.72874"></scales>
<clustering>
<clus scale="   25.846">  1  9  2 -1</clus>
<clus scale="   38.729">  2 10  1 -1</clus>
<clus scale="   81.055">  5  6 -1 -1</clus>
<clus scale="   89.343">  7  8 -1 -1</clus>
<clus scale="   92.993">  1  5  2 -1</clus>
<clus scale="   38.729">  2  5  1 -1</clus>
</clustering>
</event>
<event>
10    4  0.2977685E-005  0.2271694E+03  0.7546771E-02  0.1155770E+00
         21   -1    0    0  501  502  0.00000000000E+00  0.00000000000E+00  0.16534339867E+03  0.16534339867E+03  0.00000000000E+00 0. -1.
          2   -1    0    0  503    0 -0.00000000000E+00 -0.00000000000E+00 -0.71958849510E+03  0.71958849510E+03  0.00000000000E+00 0. -1.
         23    2    1    2    0    0 -0.61670357220E+02 -0.28384777008E+02 -0.18223531197E+03  0.22297229724E+03  0.10907798991E+03 0.  0.
         24    2    1    2    0    0  0.20793115089E+03  0.36078222962E+02 -0.52062857393E+02  0.23198745427E+03  0.81059460477E+02 0.  0.
        -13    1    4    4    0    0  0.74293013184E+01  0.24048283088E+02 -0.71399483487E+01  0.26162822860E+02  0.00000000000E+00 0.  1.
         14    1    4    4    0    0  0.20050184958E+03  0.12029939874E+02 -0.44922909044E+02  0.20582463141E+03  0.00000000000E+00 0. -1.
        -11    1    3    3    0    0 -0.29624783676E+02 -0.51497917537E+02 -0.17226562072E+03  0.18222268629E+03  0.00000000000E+00 0.  1.
         11    1    3    3    0    0 -0.32045573544E+02  0.23113140529E+02 -0.99696912568E+01  0.40749610951E+02  0.00000000000E+00 0. -1.
         21    1    1    2  503  502  0.67789971204E+02  0.10719494968E+02 -0.10950665648E+03  0.12923658763E+03  0.00000000000E+00 0. -1.
          1    1    1    2  501    0 -0.21405076488E+03 -0.18412940922E+02 -0.21044027057E+03  0.30073555463E+03  0.00000000000E+00 0. -1.
<scales pt_clust_5="13000.00000" pt_clust_6="13000.00000" pt_clust_7="13000.00000" pt_clust_8="13000.00000" pt_clust_9="68.63226" pt_clust_10="212.21538"></scales>
<clustering>
<clus scale="   68.632">  2  9  1 -1</clus>
<clus scale="   81.059">  5  6 -1 -1</clus>
<clus scale="  109.078">  7  8 -1 -1</clus>
<clus scale="  118.389">  2  7  1 -1</clus>
<clus scale="  212.215">  1 10  2 -1</clus>
<clus scale="  212.215">  1  5  2 -1</clus>
</clustering>
</event>
<event>
10    4  0.2977685E-005  0.1753267E+03  0.7546771E-02  0.1176456E+00
         21   -1    0    0  501  502  0.00000000000E+00  0.00000000000E+00  0.63249738152E+03  0.63249738152E+03  0.00000000000E+00 0. -1.
          2   -1    0    0  503    0 -0.00000000000E+00 -0.00000000000E+00 -0.10860758707E+03  0.10860758707E+03  0.00000000000E+00 0. -1.
         24    2    1    2    0    0 -0.12837709546E+03  0.53623690510E+02  0.48763980169E+02  0.16681350790E+03  0.78055376700E+02 0.  0.
         23    2    1    2    0    0  0.87307631302E+02 -0.29681821487E+02  0.30435547331E+03  0.33525014765E+03  0.10609794698E+03 0.  0.
        -13    1    3    3    0    0 -0.83420984151E+02  0.26593376576E+02 -0.99020767038E+01  0.88115375489E+02  0.00000000000E+00 0.  1.
         14    1    3    3    0    0 -0.44956111311E+02  0.27030313933E+02  0.58666056873E+02  0.78698132408E+02  0.00000000000E+00 0. -1.
        -13    1    4    4    0    0  0.69091536731E+02  0.29819712227E+02  0.20078279277E+03  0.21442151375E+03  0.00000000000E+00 0.  1.
         13    1    4    4    0    0  0.18216094571E+02 -0.59501533714E+02  0.10357268054E+03  0.12082863390E+03  0.00000000000E+00 0. -1.
         21    1    1    2  503  502 -0.54535005884E+02 -0.12052155447E+02  0.18466366165E+02  0.58824552672E+02  0.00000000000E+00 0.  1.
          1    1    1    2  501    0  0.95604470044E+02 -0.11889713575E+02  0.15230397481E+03  0.18021676038E+03  0.00000000000E+00 0. -1.
<scales pt_clust_5="13000.00000" pt_clust_6="13000.00000" pt_clust_7="13000.00000" pt_clust_8="13000.00000" pt_clust_9="55.85088" pt_clust_10="88.08382"></scales>
<clustering>
<clus scale="   55.851">  2  9  1 -1</clus>
<clus scale="   78.055">  5  6 -1 -1</clus>
<clus scale="   88.084">  1 10  2 -1</clus>
<clus scale="  106.098">  7  8 -1 -1</clus>
<clus scale="  159.923">  2  5  1 -1</clus>
<clus scale="   88.084">  1  5  2 -1</clus>
</clustering>
</event>
<event>
10    4  0.2977685E-005  0.1075476E+03  0.7546771E-02  0.1271836E+00
          2   -1    0    0  503    0 -0.00000000000E+00  0.00000000000E+00  0.23247967088E+03  0.23247967088E+03  0.00000000000E+00 0. -1.
         21   -1    0    0  501  502  0.00000000000E+00 -0.00000000000E+00 -0.87205426670E+02  0.87205426670E+02  0.00000000000E+00 0.  1.
         23    2    1    2    0    0  0.19791260765E+02 -0.40675794657E+02  0.10231288190E+03  0.14617148200E+03  0.94084866342E+02 0.  0.
         24    2    1    2    0    0 -0.18062631778E+02  0.60315035610E+02  0.43121680602E+02  0.10974856944E+03  0.78873994250E+02 0.  0.
        -11    1    4    4    0    0  0.12439246103E+02  0.22483335009E+02 -0.18213198511E+02  0.31495329761E+02  0.00000000000E+00 0.  1.
         12    1    4    4    0    0 -0.30501877881E+02  0.37831700601E+02  0.61334879113E+02  0.78253239680E+02  0.00000000000E+00 0. -1.
        -13    1    3    3    0    0  0.23543053214E+02  0.20243257915E+02  0.71175721002E+02  0.77653384381E+02  0.00000000000E+00 0.  1.
         13    1    3    3    0    0 -0.37517924495E+01 -0.60919052572E+02  0.31137160897E+02  0.68518097621E+02  0.00000000000E+00 0. -1.
         21    1    1    2  503  502 -0.22602808128E+02 -0.22264761932E+02  0.17556170248E+02  0.36260524995E+02  0.00000000000E+00 0. -1.
          1    1    1    2  501    0  0.20874179141E+02  0.26255209788E+01 -0.17716488542E+02  0.27504521110E+02  0.00000000000E+00 0. -1.
<scales pt_clust_5="13000.00000" pt_clust_6="13000.00000" pt_clust_7="13000.00000" pt_clust_8="13000.00000" pt_clust_9="29.36558" pt_clust_10="21.03865"></scales>
<clustering>
<clus scale="   21.039">  2 10  1 -1</clus>
<clus scale="   29.366">  2  9  1 -1</clus>
<clus scale="   78.874">  5  6 -1 -1</clus>
<clus scale="   94.085">  7  8 -1 -1</clus>
<clus scale="   94.528">  2  5  1 -1</clus>
<clus scale="   21.039">  2  5  1 -1</clus>
</clustering>
</event>
<event>
10    4  0.2977685E-005  0.1613620E+03  0.7546771E-02  0.1210961E+00
         -1   -1    0    0    0  501 -0.00000000000E+00  0.00000000000E+00  0.91394353764E+03  0.91394353764E+03  0.00000000000E+00 0.  1.
         21   -1    0    0  503  502  0.00000000000E+00 -0.00000000000E+00 -0.79643738736E+02  0.79643738736E+02  0.00000000000E+00 0. -1.
         24    2    1    2    0    0  0.44882442844E+02  0.24502529352E+02  0.11730496263E+03  0.15203794298E+03  0.82099173128E+02 0.  0.
         23    2    1    2    0    0 -0.13692952547E+03 -0.99231768842E+02  0.54639179179E+03  0.58003351230E+03  0.96427414952E+02 0.  0.
        -11    1    3    3    0    0  0.40003634689E+02  0.40127760512E+02  0.12241273744E+03  0.13489034895E+03  0.00000000000E+00 0.  1.
         12    1    3    3    0    0  0.48788081553E+01 -0.15625231160E+02 -0.51077748049E+01  0.17147594037E+02  0.00000000000E+00 0. -1.
        -13    1    4    4    0    0 -0.12081638911E+03 -0.46332847929E+02  0.45659096573E+03  0.47457206266E+03  0.00000000000E+00 0. -1.
         13    1    4    4    0    0 -0.16113136370E+02 -0.52898920912E+02  0.89800826066E+02  0.10546144964E+03  0.00000000000E+00 0.  1.
         21    1    1    2  503  501 -0.15130185219E+02  0.13398107917E+02  0.12994898183E+03  0.13151110097E+03  0.00000000000E+00 0.  1.
         -2    1    1    2    0  502  0.10717726785E+03  0.61331131573E+02  0.40654062644E+02  0.13000472012E+03  0.00000000000E+00 0.  1.
<scales pt_clust_5="13000.00000" pt_clust_6="13000.00000" pt_clust_7="13000.00000" pt_clust_8="13000.00000" pt_clust_9="20.20970" pt_clust_10="129.38097"></scales>
<clustering>
<clus scale="   20.210">  1  9  2 -1</clus>
<clus scale="   82.099">  5  6 -1 -1</clus>
<clus scale="   96.159">  1  5  2 -1</clus>
<clus scale="   96.427">  7  8 -1 -1</clus>
<clus scale="  129.381">  2 10  1 -1</clus>
<clus scale="  129.381">  2  5  1 -1</clus>
</clustering>
</event>
<event>
10    4  0.2977685E-005  0.3095981E+03  0.7546771E-02  0.1080717E+00
          2   -1    0    0  503    0 -0.00000000000E+00  0.00000000000E+00  0.47391038871E+03  0.47391038871E+03  0.00000000000E+00 0. -1.
         21   -1    0    0  501  502  0.00000000000E+00 -0.00000000000E+00 -0.42773869643E+03  0.42773869643E+03  0.00000000000E+00 0.  1.
         24    2    1    2    0    0  0.15012858172E+03  0.19830325882E+03 -0.25863445191E+02  0.26317991748E+03  0.82048629857E+02 0.  0.
         23    2    1    2    0    0 -0.30774955143E+03 -0.22200091033E+03 -0.94214752766E+02  0.40064704531E+03  0.87449669436E+02 0.  0.
        -13    1    3    3    0    0  0.15720095294E+03  0.17014456922E+03 -0.14838616921E+02  0.23212388630E+03  0.00000000000E+00 0.  1.
         14    1    3    3    0    0 -0.70723712122E+01  0.28158689602E+02 -0.11024828270E+02  0.31056031186E+02  0.00000000000E+00 0. -1.
        -11    1    4    4    0    0 -0.15108939089E+03 -0.15689827037E+03 -0.72743926595E+02  0.22964483478E+03  0.00000000000E+00 0. -1.
         11    1    4    4    0    0 -0.15666016054E+03 -0.65102639963E+02 -0.21470826171E+02  0.17100221053E+03  0.00000000000E+00 0.  1.
         21    1    1    2  503  502  0.21880992135E+02  0.84088716459E+01  0.61092914121E+02  0.65435701991E+02  0.00000000000E+00 0.  1.
          1    1    1    2  501    0  0.13573997757E+03  0.15288779867E+02  0.10515697611E+03  0.17238642036E+03  0.00000000000E+00 0. -1.
<scales pt_clust_5="13000.00000" pt_clust_6="13000.00000" pt_clust_7="13000.00000" pt_clust_8="13000.00000" pt_clust_9="23.44114" pt_clust_10="144.27810"></scales>
<clustering>
<clus scale="   23.441">  1  9  2 -1</clus>
<clus scale="   82.049">  5  6 -1 -1</clus>
<clus scale="   87.450">  7  8 -1 -1</clus>
<clus scale="  144.278">  2 10  1 -1</clus>
<clus scale="  308.116">  1  5  2 -1</clus>
<clus scale="  144.278">  2  5  1 -1</clus>
</clustering>
</event>
<event>
10    4  0.2977685E-005  0.2708938E+03  0.7546771E-02  0.1101276E+00
         21   -1    0    0  501  502  0.00000000000E+00  0.00000000000E+00  0.18502079161E+03  0.18502079161E+03  0.00000000000E+00 0.  1.
          2   -1    0    0  503    0 -0.00000000000E+00 -0.00000000000E+00 -0.84447298733E+03  0.84447298733E+03  0.00000000000E+00 0. -1.
         23    2    1    2    0    0 -0.59134399683E+02  0.25971146849E+03 -0.41993300398E+03  0.50555918965E+03  0.91101275027E+02 0.  0.
         24    2    1    2    0    0  0.93927306383E+02 -0.21439744262E+03 -0.75924219297E+02  0.25874968648E+03  0.79989442382E+02 0.  0.
        -11    1    4    4    0    0  0.15243446066E+02 -0.12200601751E+03 -0.17953932893E+02  0.12425849936E+03  0.00000000000E+00 0.  1.
         12    1    4    4    0    0  0.78683860317E+02 -0.92391425110E+02 -0.57970286405E+02  0.13449118712E+03  0.00000000000E+00 0. -1.
        -11    1    3    3    0    0  0.76039673996E+01  0.13961320526E+03 -0.25571489304E+03  0.29144428958E+03  0.00000000000E+00 0.  1.
         11    1    3    3    0    0 -0.66738367083E+02  0.12009826322E+03 -0.16421811094E+03  0.21411490007E+03  0.00000000000E+00 0. -1.
         21    1    1    2  503  502 -0.56107841003E+02  0.70388053915E+02 -0.57877600100E+02  0.10701581448E+03  0.00000000000E+00 0.  1.
          1    1    1    2  501    0  0.21314934303E+02 -0.11570207978E+03 -0.10571737234E+03  0.15816908833E+03  0.00000000000E+00 0. -1.
<scales pt_clust_5="13000.00000" pt_clust_6="13000.00000" pt_clust_7="13000.00000" pt_clust_8="13000.00000" pt_clust_9="90.01427" pt_clust_10="104.90244"></scales>
<clustering>
<clus scale="   79.989">  5  6 -1 -1</clus>
<clus scale="   90.014">  1  9  2 -1</clus>
<clus scale="   91.101">  7  8 -1 -1</clus>
<clus scale="  104.902">  1 10  2 -1</clus>
<clus scale="  267.362">  1  5  2 -1</clus>
<clus scale="   90.014">  1  5  2 -1</clus>
</clustering>
</event>
<event>
10    4  0.2977685E-005  0.1261474E+03  0.7546771E-02  0.1235975E+00
         21   -1    0    0  501  502  0.00000000000E+00  0.00000000000E+00  0.14667717815E+03  0.14667717815E+03  0.00000000000E+00 0.  1.
          2   -1    0    0  503    0 -0.00000000000E+00 -0.00000000000E+00 -0.53189149851E+03  0.53189149851E+03  0.00000000000E+00 0. -1.
         24    2    1    2    0    0 -0.43240231489E+02 -0.36465722179E+00 -0.15506136349E+03  0.18072981387E+03  0.82154662555E+02 0.  0.
         23    2    1    2    0    0  0.57015261155E+02  0.62749449111E+02  0.63252595428E+02  0.13999405760E+03  0.91701755534E+02 0.  0.
        -13    1    3    3    0    0 -0.12010294784E+02 -0.40227500168E+02 -0.76483749068E+02  0.87248282631E+02  0.00000000000E+00 0.  1.
         14    1    3    3    0    0 -0.31229936704E+02  0.39862842946E+02 -0.78577614427E+02  0.93481531242E+02  0.00000000000E+00 0. -1.
        -11    1    4    4    0    0  0.28509323124E+02  0.44094234521E+02  0.84759387549E+02  0.99705751091E+02  0.00000000000E+00 0.  1.
         11    1    4    4    0    0  0.28505938031E+02  0.18655214590E+02 -0.21506792121E+02  0.40288306514E+02  0.00000000000E+00 0. -1.
         21    1    1    2  503  502 -0.39647195189E+02 -0.68965386421E+02 -0.31413174156E+03  0.32404764413E+03  0.00000000000E+00 0. -1.
          1    1    1    2  501    0  0.25872165522E+02  0.65805945323E+01  0.20726189276E+02  0.33797161051E+02  0.00000000000E+00 0. -1.
<scales pt_clust_5="13000.00000" pt_clust_6="13000.00000" pt_clust_7="13000.00000" pt_clust_8="13000.00000" pt_clust_9="78.78129" pt_clust_10="26.69594"></scales>
<clustering>
<clus scale="   26.696">  1 10  2 -1</clus>
<clus scale="   78.781">  2  9  1 -1</clus>
<clus scale="   82.155">  5  6 -1 -1</clus>
<clus scale="   91.702">  7  8 -1 -1</clus>
<clus scale="  119.387">  2  5  1 -1</clus>
<clus scale="   26.696">  1  5  2 -1</clus>
</clustering>
</event>
<event>
10    4  0.2977685E-005  0.1464699E+03  0.7546771E-02  0.1204885E+00
         21   -1    0    0  501  502  0.00000000000E+00  0.00000000000E+00  0.21634554730E+03  0.21634554730E+03  0.00000000000E+00 0. -1.
          2   -1    0    0  503    0 -0.00000000000E+00 -0.00000000000E+00 -0.45842782362E+03  0.45842782362E+03  0.00000000000E+00 0. -1.
         24    2    1    2    0    0 -0.12471292554E+03  0.63598215099E+02 -0.20907317367E+03  0.26407529091E+03  0.80163087289E+02 0.  0.
         23    2    1    2    0    0  0.96601823062E+02 -0.51468672818E+02  0.91023279807E+02  0.16336127143E+03  0.80129464224E+02 0.  0.
        -11    1    3    3    0    0 -0.16839372492E+02  0.24108721827E+02 -0.49117998822E+01  0.29814773387E+02  0.00000000000E+00 0.  1.
         12    1    3    3    0    0 -0.10787355304E+03  0.39489493271E+02 -0.20416137379E+03  0.23426051753E+03  0.00000000000E+00 0. -1.
        -11    1    4    4    0    0  0.27563523023E+02 -0.52770060036E+02  0.16529507910E+02  0.61787148093E+02  0.00000000000E+00 0.  1.
         11    1    4    4    0    0  0.69038300039E+02  0.13013872181E+01  0.74493771897E+02  0.10157412334E+03  0.00000000000E+00 0. -1.
         21    1    1    2  503  502  0.60119680080E+02  0.48852799947E+02 -0.15387696152E+03  0.17227620637E+03  0.00000000000E+00 0.  1.
          1    1    1    2  501    0 -0.32008577607E+02 -0.60982342228E+02  0.29844579058E+02  0.75060602203E+02  0.00000000000E+00 0. -1.
<scales pt_clust_5="13000.00000" pt_clust_6="13000.00000" pt_clust_7="13000.00000" pt_clust_8="13000.00000" pt_clust_9="73.92856" pt_clust_10="68.87231"></scales>
<clustering>
<clus scale="   68.872">  1 10  2 -1</clus>
<clus scale="   73.929">  2  9  1 -1</clus>
<clus scale="   80.129">  7  8 -1 -1</clus>
<clus scale="   80.163">  5  6 -1 -1</clus>
<clus scale="  146.451">  1  7  2 -1</clus>
<clus scale="   68.872">  1  5  2 -1</clus>
</clustering>
</event>
<event>
10    4  0.2977685E-005  0.9970233E+02  0.7546771E-02  0.1284877E+00
         21   -1    0    0  501  502  0.00000000000E+00  0.00000000000E+00  0.37326003633E+02  0.37326003633E+02  0.00000000000E+00 0.  1.
          2   -1    0    0  503    0 -0.00000000000E+00 -0.00000000000E+00 -0.86494782023E+03  0.86494782023E+03  0.00000000000E+00 0. -1.
         24    2    1    2    0    0 -0.53784260279E+02 -0.48097616677E+02 -0.60162573123E+03  0.61151245829E+03  0.82388341309E+02 0.  0.
         23    2    1    2    0    0  0.24062452116E+02  0.29801612309E+02 -0.10406938630E+03  0.14306773249E+03  0.90392484285E+02 0.  0.
        -11    1    3    3    0    0 -0.25403629861E+02  0.20346725485E+02 -0.12529873812E+03  0.12945697132E+03  0.00000000000E+00 0.  1.
         12    1    3    3    0    0 -0.28380630418E+02 -0.68444342162E+02 -0.47632699311E+03  0.48205548697E+03  0.00000000000E+00 0. -1.
        -11    1    4    4    0    0 -0.10205702460E+02  0.29666157585E+02  0.21609634612E+01  0.31446892242E+02  0.00000000000E+00 0.  1.
         11    1    4    4    0    0  0.34268154576E+02  0.13545472347E+00 -0.10623034976E+03  0.11162084024E+03  0.00000000000E+00 0. -1.
         21    1    1    2  503  502  0.18337513115E+02  0.37903241463E+02 -0.11719920949E+03  0.12453342847E+03  0.00000000000E+00 0.  1.
          1    1    1    2  501    0  0.11384295048E+02 -0.19607237096E+02 -0.47274895735E+01  0.23160204618E+02  0.00000000000E+00 0. -1.
<scales pt_clust_5="13000.00000" pt_clust_6="13000.00000" pt_clust_7="13000.00000" pt_clust_8="13000.00000" pt_clust_9="40.52445" pt_clust_10="22.67258"></scales>
<clustering>
<clus scale="   22.673">  1 10  2 -1</clus>
<clus scale="   40.524">  2  9  1 -1</clus>
<clus scale="   82.388">  5  6 -1 -1</clus>
<clus scale="   90.392">  7  8 -1 -1</clus>
<clus scale="   92.507">  2  5  1 -1</clus>
<clus scale="   22.673">  1  5  2 -1</clus>
</clustering>
</event>
<event>
10    4  0.2977685E-005  0.2038847E+03  0.7546771E-02  0.1147717E+00
          2   -1    0    0  503    0 -0.00000000000E+00  0.00000000000E+00  0.21340822567E+04  0.21340822567E+04  0.00000000000E+00 0. -1.
         21   -1    0    0  501  502  0.00000000000E+00 -0.00000000000E+00 -0.57357416920E+02  0.57357416920E+02  0.00000000000E+00 0. -1.
         24    2    1    2    0    0  0.11543665165E+03 -0.18341096124E+03  0.89230923675E+03  0.92163691750E+03  0.78953356175E+02 0.  0.
         23    2    1    2    0    0 -0.15203964308E+03  0.89621040989E+02  0.59828963454E+03  0.63061021629E+03  0.92578474966E+02 0.  0.
        -13    1    3    3    0    0 -0.63401725426E+01 -0.48407706791E+02  0.19334881417E+03  0.19941732072E+03  0.00000000000E+00 0.  1.
         14    1    3    3    0    0  0.12177682420E+03 -0.13500325445E+03  0.69896042259E+03  0.72221959677E+03  0.00000000000E+00 0. -1.
        -13    1    4    4    0    0 -0.36450006475E+02  0.19562678204E+02  0.45320665276E+02  0.61361747462E+02  0.00000000000E+00 0.  1.
         13    1    4    4    0    0 -0.11558963661E+03  0.70058362785E+02  0.55296896927E+03  0.56924846882E+03  0.00000000000E+00 0. -1.
         21    1    1    2  503  502  0.81259957361E+01  0.10409444185E+03  0.59771564645E+03  0.60676657673E+03  0.00000000000E+00 0. -1.
          1    1    1    2  501    0  0.28476995692E+02 -0.10304521595E+02 -0.11589677951E+02  0.32425963116E+02  0.00000000000E+00 0. -1.
<scales pt_clust_5="13000.00000" pt_clust_6="13000.00000" pt_clust_7="13000.00000" pt_clust_8="13000.00000" pt_clust_9="103.44720" pt_clust_10="30.28403"></scales>
<clustering>
<clus scale="   30.284">  2 10  1 -1</clus>
<clus scale="   78.953">  5  6 -1 -1</clus>
<clus scale="   92.578">  7  8 -1 -1</clus>
<clus scale="  103.447">  1  9  2 -1</clus>
<clus scale="  198.070">  1  5  2 -1</clus>
<clus scale="   30.284">  2  5  1 -1</clus>
</clustering>
</event>
<event>
10    4  0.2977685E-005  0.1506199E+03  0.7546771E-02  0.1201311E+00
         21   -1    0    0  501  502  0.00000000000E+00  0.00000000000E+00  0.56255360344E+03  0.56255360344E+03  0.00000000000E+00 0. -1.
          2   -1    0    0  503    0 -0.00000000000E+00 -0.00000000000E+00 -0.38421708721E+03  0.38421708721E+03  0.00000000000E+00 0. -1.
         23    2    1    2    0    0  0.67835194845E+02 -0.10250789701E+03 -0.33611370863E+03  0.36898045155E+03  0.89803484809E+02 0.  0.
         24    2    1    2    0    0  0.12200465743E+01  0.93610949881E+02  0.34255307380E+03  0.36421366262E+03  0.80897992684E+02 0.  0.
        -11    1    4    4    0    0 -0.14686376370E+02  0.10293852191E+03  0.30752546218E+03  0.32462892483E+03  0.00000000000E+00 0.  1.
         12    1    4    4    0    0  0.15906422945E+02 -0.93275720267E+01  0.35027611616E+02  0.39584737796E+02  0.00000000000E+00 0. -1.
        -13    1    3    3    0    0  0.16316297314E+02 -0.21175539677E+02 -0.93370074578E+01  0.28316156994E+02  0.00000000000E+00 0.  1.
         13    1    3    3    0    0  0.51518897531E+02 -0.81332357331E+02 -0.32677670118E+03  0.34066429455E+03  0.00000000000E+00 0. -1.
         21    1    1    2  503  502 -0.46153245454E+02 -0.14602333822E+02  0.11363964680E+02  0.49724138125E+02  0.00000000000E+00 0.  1.
          1    1    1    2  501    0 -0.22901995965E+02  0.23499280950E+02  0.16053318639E+03  0.16385243836E+03  0.00000000000E+00 0. -1.
<scales pt_clust_5="13000.00000" pt_clust_6="13000.00000" pt_clust_7="13000.00000" pt_clust_8="13000.00000" pt_clust_9="49.58366" pt_clust_10="32.81338"></scales>
<clustering>
<clus scale="   32.813">  1 10  2 -1</clus>
<clus scale="   49.584">  1  9  2 -1</clus>
<clus scale="   80.898">  5  6 -1 -1</clus>
<clus scale="   89.803">  7  8 -1 -1</clus>
<clus scale="  145.486">  1  5  2 -1</clus>
<clus scale="   32.813">  1  5  2 -1</clus>
</clustering>
</event>
<event>
10    4  0.2977685E-005  0.9656287E+02  0.7546771E-02  0.1293493E+00
         -3   -1    0    0    0  501 -0.00000000000E+00  0.00000000000E+00  0.68271053816E+03  0.68271053816E+03  0.00000000000E+00 0.  1.
         21   -1    0    0  503  502  0.00000000000E+00 -0.00000000000E+00 -0.56539416360E+02  0.56539416360E+02  0.00000000000E+00 0.  1.
         24    2    1    2    0    0  0.26924977446E+02  0.19947128780E+00  0.14303062916E+03  0.16604540278E+03  0.79926971091E+02 0.  0.
         23    2    1    2    0    0 -0.26393270453E+02 -0.39239407009E+02  0.20292236562E+02  0.10418884901E+03  0.90593628952E+02 0.  0.
        -13    1    3    3    0    0  0.24249492154E+02  0.20212959713E+02  0.14238591415E+03  0.14584358114E+03  0.00000000000E+00 0.  1.
         14    1    3    3    0    0  0.26754852922E+01 -0.20013488425E+02  0.64471501318E+00  0.20201821649E+02  0.00000000000E+00 0. -1.
        -11    1    4    4    0    0 -0.57187879305E+02 -0.78397359801E+01  0.64507045899E+01  0.58082067709E+02  0.00000000000E+00 0.  1.
         11    1    4    4    0    0  0.30794608851E+02 -0.31399671029E+02  0.13841531973E+02  0.46106781306E+02  0.00000000000E+00 0. -1.
         21    1    1    2  503  501  0.27525944373E+02  0.42080602600E+01  0.11599213539E+03  0.11928772299E+03  0.00000000000E+00 0. -1.
         -4    1    1    2    0  502 -0.28057651366E+02  0.34831875461E+02  0.34685612069E+03  0.34972797973E+03  0.00000000000E+00 0.  1.
<scales pt_clust_5="13000.00000" pt_clust_6="13000.00000" pt_clust_7="13000.00000" pt_clust_8="13000.00000" pt_clust_9="27.84574" pt_clust_10="39.03458"></scales>
<clustering>
<clus scale="   27.846">  1  9  2 -1</clus>
<clus scale="   39.035">  2 10  1 -1</clus>
<clus scale="   79.927">  5  6 -1 -1</clus>
<clus scale="   86.634">  1  5  2 -1</clus>
<clus scale="   90.594">  7  8 -1 -1</clus>
<clus scale="   39.035">  2  5  1 -1</clus>
</clustering>
</event>
<event>
10    4  0.2977685E-005  0.3136471E+03  0.7546771E-02  0.1078966E+00
         21   -1    0    0  501  502  0.00000000000E+00  0.00000000000E+00  0.70907975491E+03  0.70907975491E+03  0.00000000000E+00 0. -1.
          2   -1    0    0  503    0 -0.00000000000E+00 -0.00000000000E+00 -0.30242138931E+03  0.30242138931E+03  0.00000000000E+00 0. -1.
         23    2    1    2    0    0  0.28989882366E+03  0.92020947577E+02 -0.10068859273E+03  0.33312613035E+03  0.91244962943E+02 0.  0.
         24    2    1    2    0    0 -0.18335344483E+03 -0.13903092338E+03  0.38088041904E+03  0.45218705879E+03  0.80344005054E+02 0.  0.
        -13    1    4    4    0    0 -0.51715596949E+02 -0.64761247486E+01  0.50073419461E+02  0.72275794676E+02  0.00000000000E+00 0.  1.
         14    1    4    4    0    0 -0.13163784788E+03 -0.13255479863E+03  0.33080699958E+03  0.37991126412E+03  0.00000000000E+00 0. -1.
        -13    1    3    3    0    0  0.77207878869E+02 -0.15154087435E+02 -0.34646096926E+02  0.85971244946E+02  0.00000000000E+00 0.  1.
         13    1    3    3    0    0  0.21269094480E+03  0.10717503501E+03 -0.66042495803E+02  0.24715488541E+03  0.00000000000E+00 0. -1.
         21    1    1    2  503  502  0.32405046188E+02  0.13390425797E+02 -0.38213256508E+00  0.35064747921E+02  0.00000000000E+00 0. -1.
          1    1    1    2  501    0 -0.13895042503E+03  0.33619550008E+02  0.12684867186E+03  0.19112320715E+03  0.00000000000E+00 0. -1.
<scales pt_clust_5="13000.00000" pt_clust_6="13000.00000" pt_clust_7="13000.00000" pt_clust_8="13000.00000" pt_clust_9="35.06267" pt_clust_10="139.77928"></scales>
<clustering>
<clus scale="   35.063">  2  9  1 -1</clus>
<clus scale="   80.344">  5  6 -1 -1</clus>
<clus scale="   91.245">  7  8 -1 -1</clus>
<clus scale="  139.779">  1 10  2 -1</clus>
<clus scale="  310.651">  1  5  2 -1</clus>
<clus scale="  139.779">  1  5  2 -1</clus>
</clustering>
</event>
<event>
10    4  0.2977685E-005  0.1278071E+03  0.7546771E-02  0.1233446E+00
          2   -1    0    0  503    0 -0.00000000000E+00  0.00000000000E+00  0.40696256332E+03  0.40696256332E+03  0.00000000000E+00 0. -1.
         21   -1    0    0  501  502  0.00000000000E+00 -0.00000000000E+00 -0.36704354739E+03  0.36704354739E+03  0.00000000000E+00 0. -1.
         23    2    1    2    0    0  0.55160214932E+00  0.50233385329E+02  0.15083534866E+03  0.18313593702E+03  0.90905290047E+02 0.  0.
         24    2    1    2    0    0  0.50754430214E+02 -0.10947736870E+03 -0.30470764195E+03  0.33757073069E+03  0.80907012714E+02 0.  0.
        -13    1    4    4    0    0  0.34437826317E+02 -0.53806554015E+02 -0.65759235268E+02  0.91680893099E+02  0.00000000000E+00 0.  1.
         14    1    4    4    0    0  0.16316603896E+02 -0.55670814689E+02 -0.23894840669E+03  0.24588983759E+03  0.00000000000E+00 0. -1.
        -13    1    3    3    0    0  0.37524717472E+02  0.13818839786E+02  0.25357778748E+02  0.47350625100E+02  0.00000000000E+00 0. -1.
         13    1    3    3    0    0 -0.36973115323E+02  0.36414545543E+02  0.12547756991E+03  0.13578531192E+03  0.00000000000E+00 0.  1.
         21    1    1    2  503  502 -0.86567997501E+02  0.13943405252E+02  0.16975565275E+03  0.19106391178E+03  0.00000000000E+00 0. -1.
          1    1    1    2  501    0  0.35261965138E+02  0.45300578124E+02  0.24035656471E+02  0.62235531216E+02  0.00000000000E+00 0. -1.
<scales pt_clust_5="13000.00000" pt_clust_6="13000.00000" pt_clust_7="13000.00000" pt_clust_8="13000.00000" pt_clust_9="86.85199" pt_clust_10="57.40690"></scales>
<clustering>
<clus scale="   57.407">  2 10  1 -1</clus>
<clus scale="   80.907">  5  6 -1 -1</clus>
<clus scale="   86.852">  1  9  2 -1</clus>
<clus scale="   90.905">  7  8 -1 -1</clus>
<clus scale="  120.900">  2  5  1 -1</clus>
<clus scale="   57.407">  2  5  1 -1</clus>
</clustering>
</event>
<event>
10    4  0.2977685E-005  0.1958829E+03  0.7546771E-02  0.1154276E+00
         21   -1    0    0  501  502  0.00000000000E+00  0.00000000000E+00  0.30806115914E+03  0.30806115914E+03  0.00000000000E+00 0. -1.
          2   -1    0    0  503    0 -0.00000000000E+00 -0.00000000000E+00 -0.27883714432E+03  0.27883714432E+03  0.00000000000E+00 0. -1.
         24    2    1    2    0    0 -0.17965989983E+03 -0.14867117131E+03 -0.45093045838E+02  0.25050472569E+03  0.79614307899E+02 0.  0.
         23    2    1    2    0    0  0.10388925029E+03  0.68868127349E+02  0.12120957391E+03  0.19585315520E+03  0.90171516037E+02 0.  0.
        -13    1    3    3    0    0 -0.41126770119E+02  0.18491220446E+01 -0.69130448550E+00  0.41174122633E+02  0.00000000000E+00 0.  1.
         14    1    3    3    0    0 -0.13853312971E+03 -0.15052029335E+03 -0.44401741352E+02  0.20933060305E+03  0.00000000000E+00 0. -1.
        -11    1    4    4    0    0  0.10230827236E+03  0.43751163942E+02  0.12818021546E+03  0.16973896010E+03  0.00000000000E+00 0. -1.
         11    1    4    4    0    0  0.15809779254E+01  0.25116963407E+02 -0.69706415531E+01  0.26114195099E+02  0.00000000000E+00 0.  1.
         21    1    1    2  503  502  0.64318785700E+02  0.17299529405E+02 -0.37117954428E+02  0.76249081650E+02  0.00000000000E+00 0. -1.
          1    1    1    2  501    0  0.11451863845E+02  0.62503514556E+02 -0.97745588229E+01  0.64291340922E+02  0.00000000000E+00 0. -1.
<scales pt_clust_5="13000.00000" pt_clust_6="13000.00000" pt_clust_7="13000.00000" pt_clust_8="13000.00000" pt_clust_9="68.62295" pt_clust_10="63.54399"></scales>
<clustering>
<clus scale="   63.544">  1 10  2 -1</clus>
<clus scale="   68.623">  2  9  1 -1</clus>
<clus scale="   79.614">  5  6 -1 -1</clus>
<clus scale="   90.172">  7  8 -1 -1</clus>
<clus scale="  191.253">  2  5  1 -1</clus>
<clus scale="   63.544">  1  5  2 -1</clus>
</clustering>
</event>
<event>
10    4  0.2977685E-005  0.2285612E+03  0.7546771E-02  0.1169175E+00
         21   -1    0    0  501  502  0.00000000000E+00  0.00000000000E+00  0.64854409710E+03  0.64854409710E+03  0.00000000000E+00 0. -1.
          2   -1    0    0  503    0 -0.00000000000E+00 -0.00000000000E+00 -0.17802854904E+03  0.17802854904E+03  0.00000000000E+00 0. -1.
         24    2    1    2    0    0 -0.49840281029E+00 -0.24524265442E+02 -0.33122697850E+02  0.90722688568E+02  0.80819583687E+02 0.  0.
         23    2    1    2    0    0 -0.19755875167E+03  0.29406915245E+02  0.36631146124E+03  0.42744767230E+03  0.92915008999E+02 0.  0.
        -13    1    3    3    0    0  0.36337840875E+02 -0.26539391877E+02 -0.70464368914E+01  0.45545913906E+02  0.00000000000E+00 0.  1.
         14    1    3    3    0    0 -0.36836243685E+02  0.20151264348E+01 -0.26076260958E+02  0.45176774663E+02  0.00000000000E+00 0. -1.
        -11    1    4    4    0    0 -0.52369216255E+01 -0.20747426764E+02  0.40262908000E+02  0.45595864133E+02  0.00000000000E+00 0.  1.
         11    1    4    4    0    0 -0.19232183004E+03  0.50154342009E+02  0.32604855324E+03  0.38185180817E+03  0.00000000000E+00 0. -1.
         21    1    1    2  503  502 -0.15272495295E+02 -0.48437480415E+02  0.56956910600E+02  0.76312045488E+02  0.00000000000E+00 0. -1.
          1    1    1    2  501    0  0.21332964977E+03  0.43554830612E+02  0.80369874073E+02  0.23209023978E+03  0.00000000000E+00 0. -1.
<scales pt_clust_5="13000.00000" pt_clust_6="13000.00000" pt_clust_7="13000.00000" pt_clust_8="13000.00000" pt_clust_9="50.78817" pt_clust_10="208.82309"></scales>
<clustering>
<clus scale="   50.788">  1  9  2 -1</clus>
<clus scale="   80.820">  5  6 -1 -1</clus>
<clus scale="   85.195">  2  5  1 -1</clus>
<clus scale="   92.915">  7  8 -1 -1</clus>
<clus scale="  208.823">  1 10  2 -1</clus>
<clus scale="   50.788">  1  5  2 -1</clus>
</clustering>
</event>
<event>
10    4  0.3004550E-005  0.9963987E+02  0.7546771E-02  0.1288839E+00
         21   -1    0    0  503  502  0.00000000000E+00  0.00000000000E+00  0.14586815770E+03  0.14586815770E+03  0.00000000000E+00 0. -1.
         -1   -1    0    0    0  501 -0.00000000000E+00 -0.00000000000E+00 -0.61746997313E+03  0.61746997313E+03  0.00000000000E+00 0.  1.
         24    2    1    2    0    0  0.44544235584E+02  0.12352944752E+02 -0.49126342547E+03  0.50007765592E+03  0.81247305040E+02 0.  0.
         23    2    1    2    0    0 -0.37053031366E+02 -0.27486582721E+02  0.45466102293E+02  0.11543523547E+03  0.95549399613E+02 0.  0.
        -13    1    3    3    0    0  0.67591665242E+02  0.12749279759E+01 -0.37364755442E+03  0.37971404184E+03  0.00000000000E+00 0.  1.
         14    1    3    3    0    0 -0.23047429657E+02  0.11078016776E+02 -0.11761587105E+03  0.12036361408E+03  0.00000000000E+00 0. -1.
        -13    1    4    4    0    0  0.12355182169E+02  0.28693430234E+02  0.11812473247E+02  0.33399071683E+02  0.00000000000E+00 0.  1.
         13    1    4    4    0    0 -0.49408213535E+02 -0.56180012955E+02  0.33653629046E+02  0.82036163784E+02  0.00000000000E+00 0. -1.
         21    1    1    2  503  501 -0.22818415563E+02  0.14048128097E+01 -0.83498490871E+02  0.86571655671E+02  0.00000000000E+00 0. -1.
         -2    1    1    2    0  502  0.15327211345E+02  0.13728825159E+02  0.57693998621E+02  0.61253583771E+02  0.00000000000E+00 0.  1.
<scales pt_clust_5="13000.00000" pt_clust_6="13000.00000" pt_clust_7="13000.00000" pt_clust_8="13000.00000" pt_clust_9="22.60603" pt_clust_10="20.57678"></scales>
<clustering>
<clus scale="   20.577">  1 10  2 -1</clus>
<clus scale="   22.606">  2  9  1 -1</clus>
<clus scale="   81.247">  5  6 -1 -1</clus>
<clus scale="   86.021">  2  5  1 -1</clus>
<clus scale="   95.549">  7  8 -1 -1</clus>
<clus scale="   20.577">  1  5  2 -1</clus>
</clustering>
</event>
<event>
10    4  0.2977685E-005  0.2438107E+03  0.7546771E-02  0.1155757E+00
         21   -1    0    0  501  502  0.00000000000E+00  0.00000000000E+00  0.87150340899E+03  0.87150340899E+03  0.00000000000E+00 0. -1.
          2   -1    0    0  503    0 -0.00000000000E+00 -0.00000000000E+00 -0.78962053253E+03  0.78962053253E+03  0.00000000000E+00 0. -1.
         23    2    1    2    0    0 -0.26762210485E+02 -0.13878495615E+02  0.77214636134E+02  0.12294052288E+03  0.90793411560E+02 0.  0.
         24    2    1    2    0    0  0.21187936823E+03 -0.90961967165E+02 -0.54731589907E+03  0.59899288310E+03  0.77915559919E+02 0.  0.
        -13    1    4    4    0    0  0.33533085517E+02  0.77874299036E+01 -0.43349199416E+02  0.55355803479E+02  0.00000000000E+00 0.  1.
         14    1    4    4    0    0  0.17834628272E+03 -0.98749397068E+02 -0.50396669965E+03  0.54363707962E+03  0.00000000000E+00 0. -1.
        -13    1    3    3    0    0  0.29735207207E+02 -0.14903454257E+02  0.50420645358E+02  0.60403120571E+02  0.00000000000E+00 0. -1.
         13    1    3    3    0    0 -0.56497417692E+02  0.10249586421E+01  0.26793990776E+02  0.62537402311E+02  0.00000000000E+00 0.  1.
         21    1    1    2  503  502  0.34520130117E+01 -0.28924616827E+02 -0.17444381051E+03  0.17685924595E+03  0.00000000000E+00 0. -1.
          1    1    1    2  501    0 -0.18856917076E+03  0.13376507961E+03  0.72642794990E+03  0.76233128959E+03  0.00000000000E+00 0. -1.
<scales pt_clust_5="13000.00000" pt_clust_6="13000.00000" pt_clust_7="13000.00000" pt_clust_8="13000.00000" pt_clust_9="29.12988" pt_clust_10="231.02562"></scales>
<clustering>
<clus scale="   29.130">  2  9  1 -1</clus>
<clus scale="   77.916">  5  6 -1 -1</clus>
<clus scale="   90.793">  7  8 -1 -1</clus>
<clus scale="   95.794">  2  7  1 -1</clus>
<clus scale="  231.026">  1 10  2 -1</clus>
<clus scale="  231.026">  1  5  2 -1</clus>
</clustering>
</event>
<event>
10    4  0.2977685E-005  0.1220611E+03  0.7546771E-02  0.1244565E+00
         21   -1    0    0  501  502  0.00000000000E+00  0.00000000000E+00  0.23644447579E+03  0.23644447579E+03  0.00000000000E+00 0.  1.
          2   -1    0    0  503    0 -0.00000000000E+00 -0.00000000000E+00 -0.29739283373E+03  0.29739283373E+03  0.00000000000E+00 0. -1.
         23    2    1    2    0    0 -0.71210962059E+02 -0.95407616736E+01 -0.20318675922E+03  0.23499259597E+03  0.93673015253E+02 0.  0.
         24    2    1    2    0    0  0.10635291003E+03  0.42716182557E+02  0.25743514631E+02  0.14116532073E+03  0.78289881248E+02 0.  0.
        -11    1    4    4    0    0  0.11512267128E+03  0.42003058936E+02  0.97773938102E+01  0.12293528310E+03  0.00000000000E+00 0.  1.
         12    1    4    4    0    0 -0.87697612476E+01  0.71312362186E+00  0.15966120821E+02  0.18230037622E+02  0.00000000000E+00 0. -1.
        -11    1    3    3    0    0 -0.15186980598E+01  0.31300525699E+02 -0.27772225635E+02  0.41872734202E+02  0.00000000000E+00 0.  1.
         11    1    3    3    0    0 -0.69692263999E+02 -0.40841287372E+02 -0.17541453358E+03  0.19311986177E+03  0.00000000000E+00 0. -1.
         21    1    1    2  503  502 -0.55316826451E+02 -0.29011601883E+02  0.30990155424E+02  0.69728144000E+02  0.00000000000E+00 0. -1.
          1    1    1    2  501    0  0.20174878481E+02 -0.41638190006E+01  0.85504731218E+02  0.87951248832E+02  0.00000000000E+00 0. -1.
<scales pt_clust_5="13000.00000" pt_clust_6="13000.00000" pt_clust_7="13000.00000" pt_clust_8="13000.00000" pt_clust_9="57.27243" pt_clust_10="20.60008"></scales>
<clustering>
<clus scale="   20.600">  1 10  2 -1</clus>
<clus scale="   57.272">  1  9  2 -1</clus>
<clus scale="   78.290">  5  6 -1 -1</clus>
<clus scale="   93.673">  7  8 -1 -1</clus>
<clus scale="  110.696">  1  5  2 -1</clus>
<clus scale="   20.600">  1  5  2 -1</clus>
</clustering>
</event>
<event>
10    4  0.2977685E-005  0.3274117E+03  0.7546771E-02  0.1072727E+00
          2   -1    0    0  503    0 -0.00000000000E+00  0.00000000000E+00  0.14578561192E+04  0.14578561192E+04  0.00000000000E+00 0. -1.
         21   -1    0    0  501  502  0.00000000000E+00 -0.00000000000E+00 -0.24449189678E+03  0.24449189678E+03  0.00000000000E+00 0. -1.
         24    2    1    2    0    0 -0.15451786314E+03 -0.31173272924E+03  0.90297593093E+03  0.97059994267E+03  0.75137556390E+02 0.  0.
         23    2    1    2    0    0 -0.12062287147E+03  0.27102363760E+03  0.76301285813E+02  0.31939788371E+03  0.90495484097E+02 0.  0.
        -11    1    3    3    0    0 -0.24234488967E+02 -0.10786398892E+03  0.22378508491E+03  0.24960311454E+03  0.00000000000E+00 0.  1.
         12    1    3    3    0    0 -0.13028337417E+03 -0.20386874032E+03  0.67919084602E+03  0.72099682813E+03  0.00000000000E+00 0. -1.
        -13    1    4    4    0    0  0.87068372685E+01  0.55194918213E+02  0.30474758112E+02  0.63647457873E+02  0.00000000000E+00 0.  1.
         13    1    4    4    0    0 -0.12932970874E+03  0.21582871939E+03  0.45826527701E+02  0.25575042583E+03  0.00000000000E+00 0. -1.
         21    1    1    2  503  502  0.20073401689E+02 -0.19296458010E+00  0.13370896791E+03  0.13520749532E+03  0.00000000000E+00 0.  1.
          1    1    1    2  501    0  0.25506733292E+03  0.40902056218E+02  0.10037803778E+03  0.27714269428E+03  0.00000000000E+00 0. -1.
<scales pt_clust_5="13000.00000" pt_clust_6="13000.00000" pt_clust_7="13000.00000" pt_clust_8="13000.00000" pt_clust_9="20.07433" pt_clust_10="261.14910"></scales>
<clustering>
<clus scale="   20.074">  1  9  2 -1</clus>
<clus scale="   75.138">  5  6 -1 -1</clus>
<clus scale="   90.495">  7  8 -1 -1</clus>
<clus scale="  261.149">  2 10  1 -1</clus>
<clus scale="  323.504">  1  5  2 -1</clus>
<clus scale="  261.149">  2  5  1 -1</clus>
</clustering>
</event>
<event>
10    4  0.2977685E-005  0.1666846E+03  0.7546771E-02  0.1183351E+00
          2   -1    0    0  503    0 -0.00000000000E+00  0.00000000000E+00  0.17015108471E+03  0.17015108471E+03  0.00000000000E+00 0. -1.
         21   -1    0    0  501  502  0.00000000000E+00 -0.00000000000E+00 -0.33838785778E+03  0.33838785778E+03  0.00000000000E+00 0.  1.
         23    2    1    2    0    0 -0.87309904178E+02  0.10272043637E+03  0.13058789858E+02  0.16481497981E+03  0.93909201693E+02 0.  0.
         24    2    1    2    0    0  0.98046761125E+01 -0.16046342471E+03 -0.14025777148E+03  0.22793705670E+03  0.80239747090E+02 0.  0.
        -13    1    4    4    0    0 -0.49072505598E+01 -0.13938988435E+03 -0.14566579643E+03  0.20167336268E+03  0.00000000000E+00 0.  1.
         14    1    4    4    0    0  0.14711926672E+02 -0.21073540358E+02  0.54080249439E+01  0.26263694017E+02  0.00000000000E+00 0. -1.
        -13    1    3    3    0    0 -0.26516661783E+01  0.44895031931E+02 -0.29526921472E+02  0.53799947186E+02  0.00000000000E+00 0.  1.
         13    1    3    3    0    0 -0.84658238000E+02  0.57825404437E+02  0.42585711330E+02  0.11101503263E+03  0.00000000000E+00 0. -1.
         21    1    1    2  503  502  0.73553671856E+02  0.28963698379E+02 -0.27100564078E+02  0.83567212713E+02  0.00000000000E+00 0. -1.
          1    1    1    2  501    0  0.39515562095E+01  0.28779289960E+02 -0.13937227365E+02  0.32219693259E+02  0.00000000000E+00 0. -1.
<scales pt_clust_5="13000.00000" pt_clust_6="13000.00000" pt_clust_7="13000.00000" pt_clust_8="13000.00000" pt_clust_9="81.66763" pt_clust_10="29.04931"></scales>
<clustering>
<clus scale="   29.049">  2 10  1 -1</clus>
<clus scale="   80.240">  5  6 -1 -1</clus>
<clus scale="   81.668">  1  9  2 -1</clus>
<clus scale="   93.909">  7  8 -1 -1</clus>
<clus scale="  159.384">  2  5  1 -1</clus>
<clus scale="   29.049">  2  5  1 -1</clus>
</clustering>
</event>
<event>
10    4  0.2977685E-005  0.1313346E+03  0.7546771E-02  0.1228064E+00
         21   -1    0    0  501  502  0.00000000000E+00  0.00000000000E+00  0.39855278905E+03  0.39855278905E+03  0.00000000000E+00 0. -1.
          2   -1    0    0  503    0 -0.00000000000E+00 -0.00000000000E+00 -0.15317764066E+03  0.15317764066E+03  0.00000000000E+00 0. -1.
         23    2    1    2    0    0 -0.69907008706E+02 -0.78467863237E+02 -0.72708101828E+02  0.15682872080E+03  0.90909758379E+02 0.  0.
         24    2    1    2    0    0  0.53197107058E+02  0.34615709825E+02  0.16655088960E+03  0.19565972364E+03  0.80717712197E+02 0.  0.
        -13    1    4    4    0    0  0.62171887086E+02  0.32956486678E+02  0.72020473181E+02  0.10068973193E+03  0.00000000000E+00 0.  1.
         14    1    4    4    0    0 -0.89747800276E+01  0.16592231468E+01  0.94530416417E+02  0.94969991713E+02  0.00000000000E+00 0. -1.
        -13    1    3    3    0    0 -0.57290218704E+02 -0.13035987851E+02 -0.75631581767E+00  0.58759494144E+02  0.00000000000E+00 0.  1.
         13    1    3    3    0    0 -0.12616790002E+02 -0.65431875386E+02 -0.71951786010E+02  0.98069226654E+02  0.00000000000E+00 0. -1.
         21    1    1    2  503  502 -0.23957792410E+02  0.29687694482E+02 -0.35290806534E+01  0.38311740121E+02  0.00000000000E+00 0. -1.
          1    1    1    2  501    0  0.40667694058E+02  0.14164458930E+02  0.15506144128E+03  0.16093024516E+03  0.00000000000E+00 0. -1.
<scales pt_clust_5="13000.00000" pt_clust_6="13000.00000" pt_clust_7="13000.00000" pt_clust_8="13000.00000" pt_clust_9="38.14885" pt_clust_10="42.78592"></scales>
<clustering>
<clus scale="   38.149">  2  9  1 -1</clus>
<clus scale="   42.786">  1 10  2 -1</clus>
<clus scale="   80.718">  5  6 -1 -1</clus>
<clus scale="   90.910">  7  8 -1 -1</clus>
<clus scale="  124.497">  1  5  2 -1</clus>
<clus scale="   42.786">  1  5  2 -1</clus>
</clustering>
</event>
<event>
10    4  0.2977685E-005  0.1842738E+03  0.7546771E-02  0.1182655E+00
         21   -1    0    0  501  502  0.00000000000E+00  0.00000000000E+00  0.54959499737E+03  0.54959499737E+03  0.00000000000E+00 0. -1.
          2   -1    0    0  503    0 -0.00000000000E+00 -0.00000000000E+00 -0.14209165434E+03  0.14209165434E+03  0.00000000000E+00 0. -1.
         23    2    1    2    0    0 -0.65644968019E+02 -0.41088713623E+02  0.12946691765E+03  0.17674222837E+03  0.92079250168E+02 0.  0.
         24    2    1    2    0    0 -0.88425616011E+02  0.90148452839E+02  0.35012635453E+02  0.14694580635E+03  0.66493249621E+02 0.  0.
        -11    1    4    4    0    0  0.94508560639E+01  0.19491192689E+02  0.90141375473E+01  0.23462309105E+02  0.00000000000E+00 0.  1.
         12    1    4    4    0    0 -0.97876472075E+02  0.70657260149E+02  0.25998497906E+02  0.12348349724E+03  0.00000000000E+00 0. -1.
        -11    1    3    3    0    0 -0.14835296044E+02 -0.23731899534E+02 -0.80442345769E+01  0.29120418508E+02  0.00000000000E+00 0.  1.
         11    1    3    3    0    0 -0.50809671976E+02 -0.17356814089E+02  0.13751115222E+03  0.14762180986E+03  0.00000000000E+00 0. -1.
         21    1    1    2  503  502 -0.25383080441E+02  0.57504293205E+02  0.29569399447E+02  0.69465055196E+02  0.00000000000E+00 0.  1.
          1    1    1    2  501    0  0.17945366447E+03 -0.10656403242E+03  0.21345439049E+03  0.29853356180E+03  0.00000000000E+00 0. -1.
<scales pt_clust_5="13000.00000" pt_clust_6="13000.00000" pt_clust_7="13000.00000" pt_clust_8="13000.00000" pt_clust_9="62.85733" pt_clust_10="171.85888"></scales>
<clustering>
<clus scale="   62.857">  2  9  1 -1</clus>
<clus scale="   66.493">  5  6 -1 -1</clus>
<clus scale="   92.079">  7  8 -1 -1</clus>
<clus scale="  119.810">  2  7  1 -1</clus>
<clus scale="  171.859">  1 10  2 -1</clus>
<clus scale="  171.859">  1  5  2 -1</clus>
</clustering>
</event>
<event>
10    4  0.2977685E-005  0.9887346E+02  0.7546771E-02  0.1288402E+00
         21   -1    0    0  501  502  0.00000000000E+00  0.00000000000E+00  0.91506822095E+02  0.91506822095E+02  0.00000000000E+00 0. -1.
          2   -1    0    0  503    0 -0.00000000000E+00 -0.00000000000E+00 -0.45626290838E+03  0.45626290838E+03  0.00000000000E+00 0. -1.
         24    2    1    2    0    0 -0.38423173635E+02  0.13931630885E+02 -0.29504806917E+03  0.30823069852E+03  0.79261401592E+02 0.  0.
         23    2    1    2    0    0  0.30415651934E+02 -0.10815213693E+02  0.13366826010E+02  0.96955616856E+02  0.90441355986E+02 0.  0.
        -13    1    3    3    0    0 -0.56904845645E+02  0.30196314548E+02 -0.22095427622E+03  0.23015379869E+03  0.00000000000E+00 0.  1.
         14    1    3    3    0    0  0.18481672009E+02 -0.16264683664E+02 -0.74093792945E+02  0.78076899835E+02  0.00000000000E+00 0. -1.
        -13    1    4    4    0    0  0.12857686566E+02  0.39947725886E+02  0.17637005037E+01  0.42002994498E+02  0.00000000000E+00 0.  1.
         13    1    4    4    0    0  0.17557965368E+02 -0.50762939579E+02  0.11603125507E+02  0.54952622359E+02  0.00000000000E+00 0. -1.
         21    1    1    2  503  502  0.52465545261E+02  0.26913466650E+02 -0.60178166807E+02  0.84251883581E+02  0.00000000000E+00 0. -1.
          1    1    1    2  501    0 -0.44458023559E+02 -0.30029883843E+02 -0.22896676324E+02  0.58331531517E+02  0.00000000000E+00 0. -1.
<scales pt_clust_5="13000.00000" pt_clust_6="13000.00000" pt_clust_7="13000.00000" pt_clust_8="13000.00000" pt_clust_9="50.28818" pt_clust_10="53.64988"></scales>
<clustering>
<clus scale="   53.650">  1 10  2 -1</clus>
<clus scale="   50.288">  1  9  2 -1</clus>
<clus scale="   79.261">  5  6 -1 -1</clus>
<clus scale="   88.762">  2  5  1 -1</clus>
<clus scale="   90.441">  7  8 -1 -1</clus>
<clus scale="   53.650">  1  5  2 -1</clus>
</clustering>
</event>
<event>
10    4  0.2977685E-005  0.3951636E+03  0.7546771E-02  0.1096004E+00
         21   -1    0    0  501  502  0.00000000000E+00  0.00000000000E+00  0.23408833695E+03  0.23408833695E+03  0.00000000000E+00 0. -1.
          2   -1    0    0  503    0 -0.00000000000E+00 -0.00000000000E+00 -0.10144771062E+04  0.10144771062E+04  0.00000000000E+00 0. -1.
         24    2    1    2    0    0 -0.33083826569E+02 -0.35483970742E+02 -0.80034388465E+02  0.12408281351E+03  0.81470175590E+02 0.  0.
         23    2    1    2    0    0 -0.27218996274E+03  0.24005139232E+03 -0.32871782340E+03  0.50029154237E+03  0.10258739284E+03 0.  0.
        -13    1    3    3    0    0 -0.30320474550E+02 -0.18494551109E+02 -0.94907087259E+02  0.10133476605E+03  0.00000000000E+00 0.  1.
         14    1    3    3    0    0 -0.27633520191E+01 -0.16989419634E+02  0.14872698794E+02  0.22748047461E+02  0.00000000000E+00 0. -1.
        -13    1    4    4    0    0 -0.78395105372E+02  0.48531914754E+02 -0.14445002262E+03  0.17136787427E+03  0.00000000000E+00 0.  1.
         13    1    4    4    0    0 -0.19379485737E+03  0.19151947756E+03 -0.18426780078E+03  0.32892366810E+03  0.00000000000E+00 0. -1.
         21    1    1    2  503  502 -0.58176347788E+02 -0.29564817692E+02 -0.15078984694E+03  0.16430503288E+03  0.00000000000E+00 0. -1.
          1    1    1    2  501    0  0.36345013710E+03 -0.17500260388E+03 -0.22084671043E+03  0.45988605440E+03  0.00000000000E+00 0. -1.
<scales pt_clust_5="13000.00000" pt_clust_6="13000.00000" pt_clust_7="13000.00000" pt_clust_8="13000.00000" pt_clust_9="65.25769" pt_clust_10="381.61514"></scales>
<clustering>
<clus scale="   65.258">  2  9  1 -1</clus>
<clus scale="   81.470">  5  6 -1 -1</clus>
<clus scale="   98.792">  2  5  1 -1</clus>
<clus scale="  102.587">  7  8 -1 -1</clus>
<clus scale="  381.615">  1 10  2 -1</clus>
<clus scale="  381.615">  1  5  2 -1</clus>
</clustering>
</event>
<event>
10    4  0.2977685E-005  0.1321391E+03  0.7546771E-02  0.1240850E+00
          2   -1    0    0  503    0 -0.00000000000E+00  0.00000000000E+00  0.18093312530E+04  0.18093312530E+04  0.00000000000E+00 0. -1.
         21   -1    0    0  501  502  0.00000000000E+00 -0.00000000000E+00 -0.23089123265E+02  0.23089123265E+02  0.00000000000E+00 0.  1.
         23    2    1    2    0    0  0.38508152735E+02  0.84226105557E+02  0.58722789489E+03  0.60128620506E+03  0.90175302472E+02 0.  0.
         24    2    1    2    0    0  0.58588558580E+02 -0.32283879844E+02  0.51920396966E+03  0.52970870635E+03  0.80893036671E+02 0.  0.
        -11    1    4    4    0    0 -0.20148705798E+02 -0.18167749205E+01  0.85152041011E+02  0.87522232060E+02  0.00000000000E+00 0.  1.
         12    1    4    4    0    0  0.78737264378E+02 -0.30467104924E+02  0.43405192865E+03  0.44218647429E+03  0.00000000000E+00 0. -1.
        -11    1    3    3    0    0  0.13961966772E+02  0.92314856475E+02  0.53417669183E+03  0.54227456822E+03  0.00000000000E+00 0.  1.
         11    1    3    3    0    0  0.24546185963E+02 -0.80887509175E+01  0.53051203057E+02  0.59011636840E+02  0.00000000000E+00 0. -1.
         21    1    1    2  503  502 -0.47221111302E+02 -0.87290514976E+02  0.53680207449E+03  0.54589919814E+03  0.00000000000E+00 0.  1.
          1    1    1    2  501    0 -0.49875600013E+02  0.35348289263E+02  0.14300819073E+03  0.15552626674E+03  0.00000000000E+00 0. -1.
<scales pt_clust_5="13000.00000" pt_clust_6="13000.00000" pt_clust_7="13000.00000" pt_clust_8="13000.00000" pt_clust_9="96.58763" pt_clust_10="61.13164"></scales>
<clustering>
<clus scale="   61.132">  2 10  1 -1</clus>
<clus scale="   80.893">  5  6 -1 -1</clus>
<clus scale="   90.175">  7  8 -1 -1</clus>
<clus scale="   94.055">  2  5  1 -1</clus>
<clus scale="   96.588">  1  9  2 -1</clus>
<clus scale="   61.132">  2  5  1 -1</clus>
</clustering>
</event>
<event>
10    4  0.2977685E-005  0.2142981E+03  0.7546771E-02  0.1139140E+00
         -1   -1    0    0    0  501 -0.00000000000E+00  0.00000000000E+00  0.35400909657E+03  0.35400909657E+03  0.00000000000E+00 0.  1.
         21   -1    0    0  503  502  0.00000000000E+00 -0.00000000000E+00 -0.26336824130E+03  0.26336824130E+03  0.00000000000E+00 0.  1.
         24    2    1    2    0    0 -0.44669289029E+02  0.20423840536E+03  0.78400068655E+02  0.23652265841E+03  0.78023878203E+02 0.  0.
         23    2    1    2    0    0  0.98216908165E+02 -0.15786861075E+03 -0.39916499957E+02  0.21041846197E+03  0.90075206671E+02 0.  0.
        -13    1    3    3    0    0 -0.62222445485E+02  0.17749003960E+03  0.80227617386E+02  0.20447693628E+03  0.00000000000E+00 0.  1.
         14    1    3    3    0    0  0.17553156456E+02  0.26748365764E+02 -0.18275487310E+01  0.32045722133E+02  0.00000000000E+00 0. -1.
        -11    1    4    4    0    0  0.71189670116E+01 -0.31600279917E+02 -0.44032819851E+02  0.54663942468E+02  0.00000000000E+00 0. -1.
         11    1    4    4    0    0  0.91097941154E+02 -0.12626833083E+03  0.41163198944E+01  0.15575451950E+03  0.00000000000E+00 0.  1.
         21    1    1    2  503  501  0.19896848362E+02 -0.83163902878E+01  0.80235721388E+02  0.83083198715E+02  0.00000000000E+00 0. -1.
         -2    1    1    2    0  502 -0.73444467499E+02 -0.38053404326E+02 -0.28078434813E+02  0.87353018771E+02  0.00000000000E+00 0.  1.
<scales pt_clust_5="13000.00000" pt_clust_6="13000.00000" pt_clust_7="13000.00000" pt_clust_8="13000.00000" pt_clust_9="21.56495" pt_clust_10="81.23110"></scales>
<clustering>
<clus scale="   21.565">  1  9  2 -1</clus>
<clus scale="   78.024">  5  6 -1 -1</clus>
<clus scale="   81.231">  2 10  1 -1</clus>
<clus scale="   90.075">  7  8 -1 -1</clus>
<clus scale="  209.518">  1  5  2 -1</clus>
<clus scale="   81.231">  2  5  1 -1</clus>
</clustering>
</event>
<event>
10    4  0.2977685E-005  0.2600802E+03  0.7546771E-02  0.1107619E+00
          2   -1    0    0  503    0 -0.00000000000E+00  0.00000000000E+00  0.52914208000E+03  0.52914208000E+03  0.00000000000E+00 0. -1.
         21   -1    0    0  501  502  0.00000000000E+00 -0.00000000000E+00 -0.31269168058E+03  0.31269168058E+03  0.00000000000E+00 0.  1.
         24    2    1    2    0    0  0.24289170943E+03 -0.23124733474E+03  0.94276848784E+02  0.35730902912E+03  0.79434915120E+02 0.  0.
         23    2    1    2    0    0 -0.14578985508E+03  0.71070864634E+02 -0.57329035357E+02  0.19414607843E+03  0.90001843478E+02 0.  0.
        -13    1    3    3    0    0  0.22809009245E+03 -0.17888578541E+03  0.85292051012E+02  0.30215881331E+03  0.00000000000E+00 0.  1.
         14    1    3    3    0    0  0.14801616988E+02 -0.52361549323E+02  0.89847977715E+01  0.55150215811E+02  0.00000000000E+00 0. -1.
        -13    1    4    4    0    0 -0.12663188336E+03  0.62380086034E+02 -0.80780276278E+02  0.16264182135E+03  0.00000000000E+00 0.  1.
         13    1    4    4    0    0 -0.19157971718E+02  0.86907785994E+01  0.23451240921E+02  0.31504257073E+02  0.00000000000E+00 0. -1.
         21    1    1    2  503  502 -0.19346082066E+02  0.26854471083E+02  0.12080044356E+03  0.12525246773E+03  0.00000000000E+00 0. -1.
          1    1    1    2  501    0 -0.77755772289E+02  0.13332199902E+03  0.58702142429E+02  0.16512618530E+03  0.00000000000E+00 0. -1.
<scales pt_clust_5="13000.00000" pt_clust_6="13000.00000" pt_clust_7="13000.00000" pt_clust_8="13000.00000" pt_clust_9="33.09733" pt_clust_10="163.42049"></scales>
<clustering>
<clus scale="   33.097">  1  9  2 -1</clus>
<clus scale="   79.435">  5  6 -1 -1</clus>
<clus scale="   90.002">  7  8 -1 -1</clus>
<clus scale="  163.420">  2 10  1 -1</clus>
<clus scale="  256.615">  1  5  2 -1</clus>
<clus scale="  163.420">  2  5  1 -1</clus>
</clustering>
</event>
<event>
10    4  0.2977685E-005  0.2364802E+03  0.7546771E-02  0.1150060E+00
         21   -1    0    0  503  502  0.00000000000E+00  0.00000000000E+00  0.65180790225E+03  0.65180790225E+03  0.00000000000E+00 0.  1.
         -3   -1    0    0    0  501 -0.00000000000E+00 -0.00000000000E+00 -0.23181751895E+03  0.23181751895E+03  0.00000000000E+00 0.  1.
         24    2    1    2    0    0 -0.26132497432E+02 -0.89213397322E+02 -0.54481310078E+02  0.13354489078E+03  0.78892883221E+02 0.  0.
         23    2    1    2    0    0  0.14927405073E+03 -0.80692225914E+02  0.18205286799E+03  0.26531403018E+03  0.91947323626E+02 0.  0.
        -11    1    3    3    0    0 -0.45907627155E+02 -0.90257120150E+02 -0.39412821545E+02  0.10866107155E+03  0.00000000000E+00 0.  1.
         12    1    3    3    0    0  0.19775129723E+02  0.10437228279E+01 -0.15068488533E+02  0.24883819232E+02  0.00000000000E+00 0. -1.
        -11    1    4    4    0    0  0.13888850075E+03 -0.41614467017E+02  0.10747084822E+03  0.18047648800E+03  0.00000000000E+00 0. -1.
         11    1    4    4    0    0  0.10385549983E+02 -0.39077758898E+02  0.74582019779E+02  0.84837542180E+02  0.00000000000E+00 0.  1.
         21    1    1    2  503  501 -0.22634677962E+03  0.15943405126E+03  0.24882196583E+03  0.37224246403E+03  0.00000000000E+00 0.  1.
         -4    1    1    2    0  502  0.10320522632E+03  0.10471571971E+02  0.43596859556E+02  0.11252403620E+03  0.00000000000E+00 0.  1.
<scales pt_clust_5="13000.00000" pt_clust_6="13000.00000" pt_clust_7="13000.00000" pt_clust_8="13000.00000" pt_clust_9="217.87280" pt_clust_10="103.73516"></scales>
<clustering>
<clus scale="   78.893">  5  6 -1 -1</clus>
<clus scale="   91.947">  7  8 -1 -1</clus>
<clus scale="  103.735">  1 10  2 -1</clus>
<clus scale="  120.070">  2  5  1 -1</clus>
<clus scale="  217.873">  1  9  2 -1</clus>
<clus scale="  103.735">  1  5  2 -1</clus>
</clustering>
</event>
<event>
10    4  0.2977685E-005  0.9857960E+02  0.7546771E-02  0.1287345E+00
          2   -1    0    0  503    0 -0.00000000000E+00  0.00000000000E+00  0.10968759239E+04  0.10968759239E+04  0.00000000000E+00 0. -1.
         21   -1    0    0  501  502  0.00000000000E+00 -0.00000000000E+00 -0.21691993177E+03  0.21691993177E+03  0.00000000000E+00 0. -1.
         24    2    1    2    0    0  0.50354555850E+02  0.13091965705E+02  0.81742022794E+03  0.82365657422E+03  0.86760257918E+02 0.  0.
         23    2    1    2    0    0 -0.72467725726E+02 -0.22074609725E+02  0.14675942208E+03  0.19020147126E+03  0.94336695045E+02 0.  0.
        -11    1    3    3    0    0  0.31878770302E+01 -0.24266379900E+02  0.77013296262E+02  0.80808833395E+02  0.00000000000E+00 0.  1.
         12    1    3    3    0    0  0.47166678819E+02  0.37358345604E+02  0.74040693167E+03  0.74284774082E+03  0.00000000000E+00 0. -1.
        -11    1    4    4    0    0 -0.31728249546E+01  0.32201142054E+02  0.31315160814E+02  0.45029097977E+02  0.00000000000E+00 0. -1.
         11    1    4    4    0    0 -0.69294900772E+02 -0.54275751779E+02  0.11544426127E+03  0.14517237328E+03  0.00000000000E+00 0.  1.
         21    1    1    2  503  502 -0.54332373170E+02 -0.85794675796E+01  0.91919121850E+02  0.10712020818E+03  0.00000000000E+00 0. -1.
          1    1    1    2  501    0  0.76445543046E+02  0.17562111600E+02 -0.17614277971E+03  0.19281760205E+03  0.00000000000E+00 0. -1.
<scales pt_clust_5="13000.00000" pt_clust_6="13000.00000" pt_clust_7="13000.00000" pt_clust_8="13000.00000" pt_clust_9="55.00558" pt_clust_10="77.97820"></scales>
<clustering>
<clus scale="   55.006">  1  9  2 -1</clus>
<clus scale="   77.978">  2 10  1 -1</clus>
<clus scale="   86.760">  5  6 -1 -1</clus>
<clus scale="   91.356">  1  5  2 -1</clus>
<clus scale="   94.337">  7  8 -1 -1</clus>
<clus scale="   77.978">  2  5  1 -1</clus>
</clustering>
</event>
<event>
10    4  0.2977685E-005  0.2436867E+03  0.7546771E-02  0.1150501E+00
         21   -1    0    0  501  502  0.00000000000E+00  0.00000000000E+00  0.57647355275E+03  0.57647355275E+03  0.00000000000E+00 0.  1.
          2   -1    0    0  503    0 -0.00000000000E+00 -0.00000000000E+00 -0.23398619885E+03  0.23398619885E+03  0.00000000000E+00 0. -1.
         24    2    1    2    0    0 -0.52497258764E+02 -0.55576299195E+02  0.11395691311E+02  0.11336066861E+03  0.82922205695E+02 0.  0.
         23    2    1    2    0    0  0.19438444180E+03 -0.80396652589E+02  0.99939431474E+02  0.25068625950E+03  0.92772721081E+02 0.  0.
        -11    1    3    3    0    0 -0.73438174587E+02 -0.30715421662E+02  0.13703512517E+02  0.80773689218E+02  0.00000000000E+00 0.  1.
         12    1    3    3    0    0  0.20940915823E+02 -0.24860877533E+02 -0.23078212062E+01  0.32586979393E+02  0.00000000000E+00 0. -1.
        -13    1    4    4    0    0  0.13020011001E+03 -0.17582599265E+02  0.92284043181E+02  0.16055391951E+03  0.00000000000E+00 0.  1.
         13    1    4    4    0    0  0.64184331792E+02 -0.62814053324E+02  0.76553882925E+01  0.90132339992E+02  0.00000000000E+00 0. -1.
         21    1    1    2  503  502  0.44974015616E+02 -0.91036652972E+01 -0.57268163297E+02  0.73383794736E+02  0.00000000000E+00 0.  1.
          1    1    1    2  501    0 -0.18686119865E+03  0.14507661708E+03  0.28842039441E+03  0.37302902876E+03  0.00000000000E+00 0. -1.
<scales pt_clust_5="13000.00000" pt_clust_6="13000.00000" pt_clust_7="13000.00000" pt_clust_8="13000.00000" pt_clust_9="45.88615" pt_clust_10="225.33622"></scales>
<clustering>
<clus scale="   45.886">  2  9  1 -1</clus>
<clus scale="   82.922">  5  6 -1 -1</clus>
<clus scale="   92.773">  7  8 -1 -1</clus>
<clus scale="  108.589">  2  5  1 -1</clus>
<clus scale="  225.336">  1 10  2 -1</clus>
<clus scale="  225.336">  1  5  2 -1</clus>
</clustering>
</event>
<event>
10    4  0.2977685E-005  0.1264313E+03  0.7546771E-02  0.1236375E+00
          2   -1    0    0  503    0 -0.00000000000E+00  0.00000000000E+00  0.80052165650E+03  0.80052165650E+03  0.00000000000E+00 0. -1.
         21   -1    0    0  501  502  0.00000000000E+00 -0.00000000000E+00 -0.17223869604E+03  0.17223869604E+03  0.00000000000E+00 0.  1.
         24    2    1    2    0    0  0.28258797172E+02  0.89032110904E+02 -0.31341678990E+02  0.12509503421E+03  0.77079117480E+02 0.  0.
         23    2    1    2    0    0  0.12910600021E+02 -0.87599393140E+02 -0.42834929545E+02  0.13329201268E+03  0.89953277776E+02 0.  0.
        -11    1    3    3    0    0 -0.22381110933E+02  0.49659051168E+01 -0.71922361456E+01  0.24027122196E+02  0.00000000000E+00 0.  1.
         12    1    3    3    0    0  0.50639908105E+02  0.84066205787E+02 -0.24149442845E+02  0.10106791201E+03  0.00000000000E+00 0. -1.
        -13    1    4    4    0    0  0.42932736135E+02 -0.55682957370E+02 -0.53313180458E+02  0.88238918760E+02  0.00000000000E+00 0.  1.
         13    1    4    4    0    0 -0.30022136114E+02 -0.31916435770E+02  0.10478250913E+02  0.45053093915E+02  0.00000000000E+00 0. -1.
         21    1    1    2  503  502  0.40967605794E+02  0.14053085344E+02  0.17201260082E+03  0.17738142173E+03  0.00000000000E+00 0. -1.
          1    1    1    2  501    0 -0.82137002987E+02 -0.15485803108E+02  0.53044696817E+03  0.53699188393E+03  0.00000000000E+00 0. -1.
<scales pt_clust_5="13000.00000" pt_clust_6="13000.00000" pt_clust_7="13000.00000" pt_clust_8="13000.00000" pt_clust_9="43.31090" pt_clust_10="47.32846"></scales>
<clustering>
<clus scale="   43.311">  1  9  2 -1</clus>
<clus scale="   47.328">  2 10  1 -1</clus>
<clus scale="   77.079">  5  6 -1 -1</clus>
<clus scale="   89.953">  7  8 -1 -1</clus>
<clus scale="  117.620">  1  5  2 -1</clus>
<clus scale="   47.328">  2  5  1 -1</clus>
</clustering>
</event>
<event>
10    4  0.2977685E-005  0.1407046E+03  0.7546771E-02  0.1214416E+00
          2   -1    0    0  503    0 -0.00000000000E+00  0.00000000000E+00  0.58678010484E+03  0.58678010484E+03  0.00000000000E+00 0. -1.
         21   -1    0    0  501  502  0.00000000000E+00 -0.00000000000E+00 -0.52901136208E+03  0.52901136208E+03  0.00000000000E+00 0.  1.
         24    2    1    2    0    0  0.84098917280E+02 -0.19487795552E+02 -0.10219542755E+03  0.15670866913E+03  0.81616784463E+02 0.  0.
         23    2    1    2    0    0 -0.15243993535E+03  0.72514902340E+02 -0.36607136458E+03  0.41328218242E+03  0.91091017074E+02 0.  0.
        -11    1    3    3    0    0  0.45700003528E+02 -0.15964710738E+02 -0.10739366567E+03  0.11779966782E+03  0.00000000000E+00 0.  1.
         12    1    3    3    0    0  0.38398913752E+02 -0.35230848141E+01  0.51982381203E+01  0.38909001317E+02  0.00000000000E+00 0. -1.
        -13    1    4    4    0    0 -0.10695270943E+03  0.13567178571E+01 -0.21773809212E+03  0.24259142503E+03  0.00000000000E+00 0.  1.
         13    1    4    4    0    0 -0.45487225920E+02  0.71158184483E+02 -0.14833327246E+03  0.17069075739E+03  0.00000000000E+00 0. -1.
         21    1    1    2  503  502  0.25548140228E+02  0.71956725784E+01  0.17195751208E+02  0.31625607228E+02  0.00000000000E+00 0.  1.
          1    1    1    2  501    0  0.42792877838E+02 -0.60222779367E+02  0.50883978367E+03  0.51417500814E+03  0.00000000000E+00 0. -1.
<scales pt_clust_5="13000.00000" pt_clust_6="13000.00000" pt_clust_7="13000.00000" pt_clust_8="13000.00000" pt_clust_9="26.54214" pt_clust_10="85.09604"></scales>
<clustering>
<clus scale="   26.542">  1  9  2 -1</clus>
<clus scale="   81.617">  5  6 -1 -1</clus>
<clus scale="   85.096">  2 10  1 -1</clus>
<clus scale="   91.091">  7  8 -1 -1</clus>
<clus scale="  134.765">  1  5  2 -1</clus>
<clus scale="   85.096">  2  5  1 -1</clus>
</clustering>
</event>
<event>
10    4  0.2977685E-005  0.2780973E+03  0.7546771E-02  0.1097033E+00
          2   -1    0    0  503    0 -0.00000000000E+00  0.00000000000E+00  0.79358269653E+03  0.79358269653E+03  0.00000000000E+00 0. -1.
         21   -1    0    0  501  502  0.00000000000E+00 -0.00000000000E+00 -0.81468573988E+03  0.81468573988E+03  0.00000000000E+00 0.  1.
         24    2    1    2    0    0  0.56072137795E+02  0.34594679959E+03  0.27015776017E+03  0.44996251118E+03  0.81595179419E+02 0.  0.
         23    2    1    2    0    0 -0.13397098943E+03 -0.18496713964E+03 -0.52338058157E+03  0.57788409030E+03  0.88666340300E+02 0.  0.
        -11    1    3    3    0    0  0.10170654910E+02  0.29870185807E+02 -0.12707706174E+00  0.31554498412E+02  0.00000000000E+00 0.  1.
         12    1    3    3    0    0  0.45901482885E+02  0.31607661378E+03  0.27028483723E+03  0.41840801277E+03  0.00000000000E+00 0. -1.
        -11    1    4    4    0    0 -0.11721829331E+03 -0.15893411607E+03 -0.50412629837E+03  0.54142728621E+03  0.00000000000E+00 0.  1.
         11    1    4    4    0    0 -0.16752696123E+02 -0.26033023565E+02 -0.19254283199E+02  0.36456804095E+02  0.00000000000E+00 0. -1.
         21    1    1    2  503  502  0.83520611639E+02 -0.12267893626E+03  0.39030492954E+03  0.41756885899E+03  0.00000000000E+00 0. -1.
          1    1    1    2  501    0 -0.56217600029E+01 -0.38300723694E+02 -0.15818515149E+03  0.16285297594E+03  0.00000000000E+00 0. -1.
<scales pt_clust_5="13000.00000" pt_clust_6="13000.00000" pt_clust_7="13000.00000" pt_clust_8="13000.00000" pt_clust_9="149.00579" pt_clust_10="38.71110"></scales>
<clustering>
<clus scale="   38.711">  2 10  1 -1</clus>
<clus scale="   81.595">  5  6 -1 -1</clus>
<clus scale="   88.666">  7  8 -1 -1</clus>
<clus scale="  149.006">  1  9  2 -1</clus>
<clus scale="  275.924">  1  5  2 -1</clus>
<clus scale="   38.711">  2  5  1 -1</clus>
</clustering>
</event>
<event>
10    4  0.2977685E-005  0.9995288E+02  0.7546771E-02  0.1286155E+00
         -1   -1    0    0    0  501 -0.00000000000E+00  0.00000000000E+00  0.29828025917E+03  0.29828025917E+03  0.00000000000E+00 0.  1.
         21   -1    0    0  501  502  0.00000000000E+00 -0.00000000000E+00 -0.98834943075E+02  0.98834943075E+02  0.00000000000E+00 0.  1.
         23    2    1    2    0    0  0.17888303752E+02 -0.22290809078E+02  0.15413768641E+03  0.18142621052E+03  0.91324541678E+02 0.  0.
         24    2    1    2    0    0 -0.92977664610E+02  0.34287251495E+02  0.13413020344E+02  0.12799545103E+03  0.79890328818E+02 0.  0.
        -11    1    4    4    0    0 -0.47465239755E+02  0.58785887964E+02  0.62481394063E+01  0.75814041277E+02  0.00000000000E+00 0.  1.
         12    1    4    4    0    0 -0.45512424855E+02 -0.24498636470E+02  0.71648809378E+01  0.52181409754E+02  0.00000000000E+00 0. -1.
        -13    1    3    3    0    0  0.26021783915E+02 -0.55604258995E+02  0.10005607945E+03  0.11738903650E+03  0.00000000000E+00 0.  1.
         13    1    3    3    0    0 -0.81334801638E+01  0.33313449917E+02  0.54081606958E+02  0.64037174018E+02  0.00000000000E+00 0. -1.
         21    1    1    2  503  502  0.28353301965E+02  0.82637355937E+01  0.19105293963E+02  0.35174014779E+02  0.00000000000E+00 0.  1.
         -2    1    1    2    0  503  0.46736058894E+02 -0.20260178010E+02  0.12789315378E+02  0.52519525910E+02  0.00000000000E+00 0.  1.
<scales pt_clust_5="13000.00000" pt_clust_6="13000.00000" pt_clust_7="13000.00000" pt_clust_8="13000.00000" pt_clust_9="22.72288" pt_clust_10="81.68777"></scales>
<clustering>
<clus scale="   22.723">  9 10 -1 -1</clus>
<clus scale="   79.890">  5  6 -1 -1</clus>
<clus scale="   81.688">  2  9  1 -1</clus>
<clus scale="   89.626">  2  5  1 -1</clus>
<clus scale="   91.325">  7  8 -1 -1</clus>
<clus scale="   81.688">  2  5  1 -1</clus>
</clustering>
</event>
<event>
10    4  0.2977685E-005  0.1290703E+03  0.7546771E-02  0.1231330E+00
         21   -1    0    0  501  502  0.00000000000E+00  0.00000000000E+00  0.38641692311E+03  0.38641692311E+03  0.00000000000E+00 0. -1.
          2   -1    0    0  503    0 -0.00000000000E+00 -0.00000000000E+00 -0.17512479448E+03  0.17512479448E+03  0.00000000000E+00 0. -1.
         23    2    1    2    0    0  0.12403504939E+03  0.48384790270E+01 -0.65341962614E+02  0.16704853637E+03  0.90705771971E+02 0.  0.
         24    2    1    2    0    0 -0.66129751939E+02  0.36365470573E+02  0.61919721150E+02  0.12700642630E+03  0.81246470150E+02 0.  0.
        -11    1    4    4    0    0 -0.68103165967E+02  0.25460027730E+02  0.78541908978E+02  0.10702843404E+03  0.00000000000E+00 0.  1.
         12    1    4    4    0    0  0.19734140278E+01  0.10905442843E+02 -0.16622187828E+02  0.19977992259E+02  0.00000000000E+00 0. -1.
        -11    1    3    3    0    0  0.41865580761E+02  0.40775749914E+02 -0.48170490636E+02  0.75734964195E+02  0.00000000000E+00 0. -1.
         11    1    3    3    0    0  0.82169468626E+02 -0.35937270887E+02 -0.17171471978E+02  0.91313572173E+02  0.00000000000E+00 0.  1.
         21    1    1    2  503  502 -0.33026970769E+02 -0.19368815654E+02 -0.10620807213E+02  0.39733277789E+02  0.00000000000E+00 0.  1.
          1    1    1    2  501    0 -0.24878326678E+02 -0.21835133946E+02  0.22533517731E+03  0.22775347714E+03  0.00000000000E+00 0. -1.
<scales pt_clust_5="13000.00000" pt_clust_6="13000.00000" pt_clust_7="13000.00000" pt_clust_8="13000.00000" pt_clust_9="41.25106" pt_clust_10="33.10142"></scales>
<clustering>
<clus scale="   33.101">  1 10  2 -1</clus>
<clus scale="   41.251">  2  9  1 -1</clus>
<clus scale="   81.246">  5  6 -1 -1</clus>
<clus scale="   90.706">  7  8 -1 -1</clus>
<clus scale="  122.607">  1  5  2 -1</clus>
<clus scale="   33.101">  1  5  2 -1</clus>
</clustering>
</event>
<event>
10    4  0.2977685E-005  0.2656518E+03  0.7546771E-02  0.1148576E+00
         21   -1    0    0  501  502  0.00000000000E+00  0.00000000000E+00  0.37732013344E+03  0.37732013344E+03  0.00000000000E+00 0. -1.
          2   -1    0    0  503    0 -0.00000000000E+00 -0.00000000000E+00 -0.45984447652E+03  0.45984447652E+03  0.00000000000E+00 0. -1.
         24    2    1    2    0    0 -0.30130565187E+02 -0.29611795073E+02  0.59760838517E+02  0.10760686115E+03  0.78887067260E+02 0.  0.
         23    2    1    2    0    0  0.99259551601E+02  0.22786925349E+03 -0.11488093036E+03  0.28811920119E+03  0.89655957241E+02 0.  0.
        -11    1    3    3    0    0 -0.54160929687E+02 -0.35227585740E+02  0.46396833583E+02  0.79542788913E+02  0.00000000000E+00 0.  1.
         12    1    3    3    0    0  0.24030364499E+02  0.56157906667E+01  0.13364004935E+02  0.28064072240E+02  0.00000000000E+00 0. -1.
        -11    1    4    4    0    0  0.10575126702E+03  0.13702404595E+03 -0.72296567361E+02  0.18757855234E+03  0.00000000000E+00 0. -1.
         11    1    4    4    0    0 -0.64917154147E+01  0.90845207534E+02 -0.42584362998E+02  0.10054064886E+03  0.00000000000E+00 0.  1.
         21    1    1    2  503  502  0.42964620793E+02  0.26035694574E+02 -0.15297259378E+03  0.16101065331E+03  0.00000000000E+00 0. -1.
          1    1    1    2  501    0 -0.11209360721E+03 -0.22429315299E+03  0.12556834254E+03  0.28042789430E+03  0.00000000000E+00 0. -1.
<scales pt_clust_5="13000.00000" pt_clust_6="13000.00000" pt_clust_7="13000.00000" pt_clust_8="13000.00000" pt_clust_9="50.23760" pt_clust_10="250.06536"></scales>
<clustering>
<clus scale="   50.238">  2  9  1 -1</clus>
<clus scale="   78.887">  5  6 -1 -1</clus>
<clus scale="   87.734">  2  5  1 -1</clus>
<clus scale="   89.656">  7  8 -1 -1</clus>
<clus scale="  250.065">  1 10  2 -1</clus>
<clus scale="  250.065">  1  5  2 -1</clus>
</clustering>
</event>
<event>
10    4  0.2977685E-005  0.1498566E+03  0.7546771E-02  0.1201388E+00
          2   -1    0    0  503    0 -0.00000000000E+00  0.00000000000E+00  0.56972207031E+03  0.56972207031E+03  0.00000000000E+00 0. -1.
         21   -1    0    0  501  502  0.00000000000E+00 -0.00000000000E+00 -0.11981059111E+03  0.11981059111E+03  0.00000000000E+00 0.  1.
         24    2    1    2    0    0  0.89663042292E+02  0.49859546292E+02  0.92743912217E+02  0.16379348263E+03  0.87757826949E+02 0.  0.
         23    2    1    2    0    0 -0.14425222305E+03 -0.24010304542E+02  0.90769406349E+02  0.19502240093E+03  0.91703070599E+02 0.  0.
        -13    1    3    3    0    0 -0.32879005968E+00  0.41377178133E+02  0.13329267048E+02  0.43472385869E+02  0.00000000000E+00 0.  1.
         14    1    3    3    0    0  0.89991832352E+02  0.84823681598E+01  0.79414645168E+02  0.12032109677E+03  0.00000000000E+00 0. -1.
        -11    1    4    4    0    0 -0.30445261008E+02 -0.10914225217E+02  0.72008559837E+02  0.78938374190E+02  0.00000000000E+00 0. -1.
         11    1    4    4    0    0 -0.11380696204E+03 -0.13096079324E+02  0.18760846512E+02  0.11608402674E+03  0.00000000000E+00 0.  1.
         21    1    1    2  503  502  0.10610952369E+03 -0.39866657818E+01  0.71677021191E+02  0.12811213795E+03  0.00000000000E+00 0. -1.
          1    1    1    2  501    0 -0.51520342935E+02 -0.21862575969E+02  0.19472113944E+03  0.20260463990E+03  0.00000000000E+00 0. -1.
<scales pt_clust_5="13000.00000" pt_clust_6="13000.00000" pt_clust_7="13000.00000" pt_clust_8="13000.00000" pt_clust_9="94.02491" pt_clust_10="55.96714"></scales>
<clustering>
<clus scale="   55.967">  2 10  1 -1</clus>
<clus scale="   87.758">  5  6 -1 -1</clus>
<clus scale="   91.703">  7  8 -1 -1</clus>
<clus scale="   94.025">  2  9  1 -1</clus>
<clus scale="  147.475">  1  5  2 -1</clus>
<clus scale="   55.967">  2  5  1 -1</clus>
</clustering>
</event>
<event>
10    4  0.2977685E-005  0.1906987E+03  0.7546771E-02  0.1186320E+00
         21   -1    0    0  501  502  0.00000000000E+00  0.00000000000E+00  0.19084710465E+03  0.19084710465E+03  0.00000000000E+00 0. -1.
          2   -1    0    0  503    0 -0.00000000000E+00 -0.00000000000E+00 -0.49398269413E+03  0.49398269413E+03  0.00000000000E+00 0. -1.
         24    2    1    2    0    0  0.62505997724E+02  0.18416174021E+01 -0.46160127389E+02  0.11192044761E+03  0.80529733186E+02 0.  0.
         23    2    1    2    0    0 -0.14968409729E+03  0.94586165680E+02  0.67002785357E+02  0.20942563164E+03  0.89542449282E+02 0.  0.
        -13    1    3    3    0    0  0.36088427762E+02 -0.29983251467E+02  0.37868234389E+01  0.47071329051E+02  0.00000000000E+00 0.  1.
         14    1    3    3    0    0  0.26417569962E+02  0.31824868869E+02 -0.49946950828E+02  0.64849118562E+02  0.00000000000E+00 0. -1.
        -11    1    4    4    0    0 -0.28750141200E+02 -0.14277642916E+02 -0.31035719150E+01  0.32249866122E+02  0.00000000000E+00 0.  1.
         11    1    4    4    0    0 -0.12093395609E+03  0.10886380860E+03  0.70106357272E+02  0.17717576552E+03  0.00000000000E+00 0. -1.
         21    1    1    2  503  502 -0.19993142480E+02 -0.10285106155E+02 -0.83469269465E+02  0.86444364188E+02  0.00000000000E+00 0. -1.
          1    1    1    2  501    0  0.10717124205E+03 -0.86142676927E+02 -0.24050897798E+03  0.27703935533E+03  0.00000000000E+00 0. -1.
<scales pt_clust_5="13000.00000" pt_clust_6="13000.00000" pt_clust_7="13000.00000" pt_clust_8="13000.00000" pt_clust_9="22.48353" pt_clust_10="168.36920"></scales>
<clustering>
<clus scale="   22.484">  2  9  1 -1</clus>
<clus scale="   80.530">  5  6 -1 -1</clus>
<clus scale="   89.542">  7  8 -1 -1</clus>
<clus scale="   99.619">  2  5  1 -1</clus>
<clus scale="  168.369">  1 10  2 -1</clus>
<clus scale="  168.369">  1  5  2 -1</clus>
</clustering>
</event>
<event>
10    4  0.2977685E-005  0.1562783E+03  0.7546771E-02  0.1215536E+00
         21   -1    0    0  503  502  0.00000000000E+00  0.00000000000E+00  0.24449500024E+03  0.24449500024E+03  0.00000000000E+00 0. -1.
         -3   -1    0    0    0  501 -0.00000000000E+00 -0.00000000000E+00 -0.18641019593E+03  0.18641019593E+03  0.00000000000E+00 0.  1.
         23    2    1    2    0    0 -0.17440921325E+02  0.32562985079E+02  0.29403487610E+02  0.10253424145E+03  0.91017426090E+02 0.  0.
         24    2    1    2    0    0  0.36556267913E+02 -0.13461371641E+03  0.31728956467E+02  0.16331622376E+03  0.78792441871E+02 0.  0.
        -11    1    4    4    0    0  0.35111630143E+02 -0.13971182135E+02  0.18092056637E+02  0.41896813899E+02  0.00000000000E+00 0.  1.
         12    1    4    4    0    0  0.14446377703E+01 -0.12064253427E+03  0.13636899830E+02  0.12141940986E+03  0.00000000000E+00 0. -1.
        -11    1    3    3    0    0  0.22000256587E+02  0.49243947350E+02  0.75625648972E+01  0.54462556204E+02  0.00000000000E+00 0. -1.
         11    1    3    3    0    0 -0.39441177912E+02 -0.16680962271E+02  0.21840922713E+02  0.48071685246E+02  0.00000000000E+00 0.  1.
         21    1    1    2  503  501  0.10625995915E+02 -0.25520042017E+02 -0.18338408426E+02  0.33173506859E+02  0.00000000000E+00 0.  1.
         -4    1    1    2    0  502 -0.29741342503E+02  0.12757077334E+03  0.15290768659E+02  0.13188122411E+03  0.00000000000E+00 0.  1.
<scales pt_clust_5="13000.00000" pt_clust_6="13000.00000" pt_clust_7="13000.00000" pt_clust_8="13000.00000" pt_clust_9="27.64388" pt_clust_10="134.96179"></scales>
<clustering>
<clus scale="   27.644">  2  9  1 -1</clus>
<clus scale="   78.792">  5  6 -1 -1</clus>
<clus scale="   91.017">  7  8 -1 -1</clus>
<clus scale="   96.050">  2  7  1 -1</clus>
<clus scale="  134.962">  1 10  2 -1</clus>
<clus scale="  134.962">  1  5  2 -1</clus>
</clustering>
</event>
<event>
10    4  0.2977685E-005  0.2195696E+03  0.7546771E-02  0.1143345E+00
         21   -1    0    0  501  502  0.00000000000E+00  0.00000000000E+00  0.41226188025E+03  0.41226188025E+03  0.00000000000E+00 0. -1.
          2   -1    0    0  503    0 -0.00000000000E+00 -0.00000000000E+00 -0.10080881233E+04  0.10080881233E+04  0.00000000000E+00 0. -1.
         23    2    1    2    0    0 -0.91106088052E+02  0.13424328001E+03  0.91359746936E+02  0.20701322395E+03  0.90478141135E+02 0.  0.
         24    2    1    2    0    0  0.20172254317E+03 -0.15871158864E+03 -0.36336326553E+03  0.45312710846E+03  0.86081129718E+02 0.  0.
        -11    1    4    4    0    0  0.64577210846E+02 -0.14362402418E+02 -0.54828061287E+02  0.85922122113E+02  0.00000000000E+00 0.  1.
         12    1    4    4    0    0  0.13714533233E+03 -0.14434918623E+03 -0.30853520424E+03  0.36720498635E+03  0.00000000000E+00 0. -1.
        -11    1    3    3    0    0 -0.58894107918E+02  0.13617673020E+03  0.54588891436E+02  0.15809036929E+03  0.00000000000E+00 0. -1.
         11    1    3    3    0    0 -0.32211980135E+02 -0.19334501888E+01  0.36770855500E+02  0.48922854660E+02  0.00000000000E+00 0.  1.
         21    1    1    2  503  502  0.52337869696E+02 -0.84499704069E+02 -0.49199008771E+03  0.50192997419E+03  0.00000000000E+00 0. -1.
          1    1    1    2  501    0 -0.16295432482E+03  0.10896801270E+03  0.16816736327E+03  0.25827969692E+03  0.00000000000E+00 0. -1.
<scales pt_clust_5="13000.00000" pt_clust_6="13000.00000" pt_clust_7="13000.00000" pt_clust_8="13000.00000" pt_clust_9="99.39544" pt_clust_10="201.99215"></scales>
<clustering>
<clus scale="   86.081">  5  6 -1 -1</clus>
<clus scale="   90.478">  7  8 -1 -1</clus>
<clus scale="   99.395">  2  9  1 -1</clus>
<clus scale="  176.036">  2  7  1 -1</clus>
<clus scale="  201.992">  1 10  2 -1</clus>
<clus scale="  201.992">  1  5  2 -1</clus>
</clustering>
</event>
<event>
10    4  0.2977685E-005  0.1368556E+03  0.7546771E-02  0.1220024E+00
          2   -1    0    0  503    0 -0.00000000000E+00  0.00000000000E+00  0.16367358707E+04  0.16367358707E+04  0.00000000000E+00 0. -1.
         21   -1    0    0  501  502  0.00000000000E+00 -0.00000000000E+00 -0.42483193130E+03  0.42483193130E+03  0.00000000000E+00 0. -1.
         24    2    1    2    0    0 -0.12383171815E+03  0.49442673008E+02  0.10309344154E+04  0.10426344611E+04  0.80510733775E+02 0.  0.
         23    2    1    2    0    0  0.90728892568E+02  0.51233726868E+02  0.41149210421E+03  0.43412411523E+03  0.91002026789E+02 0.  0.
        -11    1    3    3    0    0 -0.56111922378E+02  0.49017096198E+02  0.32364533759E+03  0.33211071662E+03  0.00000000000E+00 0.  1.
         12    1    3    3    0    0 -0.67719795771E+02  0.42557680994E+00  0.70728907778E+03  0.71052374443E+03  0.00000000000E+00 0. -1.
        -13    1    4    4    0    0  0.20031257340E+02 -0.25875247780E+02  0.12190564728E+03  0.12622110187E+03  0.00000000000E+00 0.  1.
         13    1    4    4    0    0  0.70697635228E+02  0.77108974648E+02  0.28958645693E+03  0.30790301336E+03  0.00000000000E+00 0. -1.
         21    1    1    2  503  502  0.33689210591E+02  0.60296340317E+01  0.16840976017E+03  0.17185216530E+03  0.00000000000E+00 0.  1.
          1    1    1    2  501    0 -0.58638500949E+00 -0.10670603391E+03 -0.39893234039E+03  0.41295706039E+03  0.00000000000E+00 0. -1.
<scales pt_clust_5="13000.00000" pt_clust_6="13000.00000" pt_clust_7="13000.00000" pt_clust_8="13000.00000" pt_clust_9="34.22454" pt_clust_10="106.67805"></scales>
<clustering>
<clus scale="   34.225">  1  9  2 -1</clus>
<clus scale="   80.511">  5  6 -1 -1</clus>
<clus scale="   91.002">  7  8 -1 -1</clus>
<clus scale="  106.678">  2 10  1 -1</clus>
<clus scale="  130.116">  1  5  2 -1</clus>
<clus scale="  106.678">  2  5  1 -1</clus>
</clustering>
</event>
<event>
10    4  0.2977685E-005  0.1093030E+03  0.7546771E-02  0.1265669E+00
         21   -1    0    0  503  502  0.00000000000E+00  0.00000000000E+00  0.42815782188E+03  0.42815782188E+03  0.00000000000E+00 0. -1.
         -1   -1    0    0    0  501 -0.00000000000E+00 -0.00000000000E+00 -0.60697125646E+02  0.60697125646E+02  0.00000000000E+00 0.  1.
         24    2    1    2    0    0 -0.28058886290E+01 -0.46958886058E+02  0.58152154080E+02  0.11011546652E+03  0.80812950391E+02 0.  0.
         23    2    1    2    0    0 -0.10141281173E+02  0.69852404732E+02  0.26656350733E+03  0.29020446612E+03  0.90445147367E+02 0.  0.
        -13    1    3    3    0    0 -0.22421334496E+02  0.15617893791E+02  0.22960032880E+02  0.35690306203E+02  0.00000000000E+00 0.  1.
         14    1    3    3    0    0  0.19615445867E+02 -0.62576779849E+02  0.35192121201E+02  0.74425160312E+02  0.00000000000E+00 0. -1.
        -13    1    4    4    0    0 -0.24319131548E+02 -0.14856695922E+02  0.57108248608E+02  0.63823926798E+02  0.00000000000E+00 0.  1.
         13    1    4    4    0    0  0.14177850374E+02  0.84709100654E+02  0.20945525873E+03  0.22638053932E+03  0.00000000000E+00 0. -1.
         21    1    1    2  503  501 -0.27772386908E+02 -0.23876428460E+02  0.17264204783E+02  0.40490024418E+02  0.00000000000E+00 0.  1.
         -2    1    1    2    0  502  0.40719556710E+02  0.98290978667E+00  0.25480830035E+02  0.48044990473E+02  0.00000000000E+00 0.  1.
<scales pt_clust_5="13000.00000" pt_clust_6="13000.00000" pt_clust_7="13000.00000" pt_clust_8="13000.00000" pt_clust_9="36.62498" pt_clust_10="34.63034"></scales>
<clustering>
<clus scale="   36.625">  2  9  1 -1</clus>
<clus scale="   34.630">  1 10  2 -1</clus>
<clus scale="   80.813">  5  6 -1 -1</clus>
<clus scale="   90.445">  7  8 -1 -1</clus>
<clus scale="  101.477">  2  5  1 -1</clus>
<clus scale="   34.630">  1  5  2 -1</clus>
</clustering>
</event>
<event>
10    4  0.2977685E-005  0.1964301E+03  0.7546771E-02  0.1159566E+00
          4   -1    0    0  503    0 -0.00000000000E+00  0.00000000000E+00  0.35924955752E+03  0.35924955752E+03  0.00000000000E+00 0. -1.
         21   -1    0    0  501  502  0.00000000000E+00 -0.00000000000E+00 -0.41938353746E+03  0.41938353746E+03  0.00000000000E+00 0. -1.
         24    2    1    2    0    0  0.10890221569E+03 -0.28650203924E+02 -0.82129900533E+02  0.16226743123E+03  0.83095558903E+02 0.  0.
         23    2    1    2    0    0 -0.87570475798E+02 -0.13731442561E+03 -0.14133931411E+03  0.23472945476E+03  0.92721494305E+02 0.  0.
        -11    1    3    3    0    0  0.38593344272E+02 -0.45824792631E+02 -0.63977294671E+02  0.87649598261E+02  0.00000000000E+00 0.  1.
         12    1    3    3    0    0  0.70308871421E+02  0.17174588707E+02 -0.18152605861E+02  0.74617832971E+02  0.00000000000E+00 0. -1.
        -11    1    4    4    0    0 -0.51296829513E+02 -0.13947122155E+03 -0.12763460142E+03  0.19589328176E+03  0.00000000000E+00 0. -1.
         11    1    4    4    0    0 -0.36273646285E+02  0.21567959371E+01 -0.13704712693E+02  0.38836173003E+02  0.00000000000E+00 0.  1.
         21    1    1    2  503  502 -0.13882491535E+03  0.16514591728E+03  0.15133379396E+03  0.26352883772E+03  0.00000000000E+00 0. -1.
          3    1    1    2  501    0  0.11749317546E+03  0.81871225621E+00  0.12001440748E+02  0.11810737127E+03  0.00000000000E+00 0. -1.
<scales pt_clust_5="13000.00000" pt_clust_6="13000.00000" pt_clust_7="13000.00000" pt_clust_8="13000.00000" pt_clust_9="177.98847" pt_clust_10="117.49609"></scales>
<clustering>
<clus scale="   83.096">  5  6 -1 -1</clus>
<clus scale="   92.721">  7  8 -1 -1</clus>
<clus scale="  117.496">  2 10  1 -1</clus>
<clus scale="  167.572">  2  7  1 -1</clus>
<clus scale="  177.988">  1  9  2 -1</clus>
<clus scale="  117.496">  2  5  1 -1</clus>
</clustering>
</event>
<event>
10    4  0.2977685E-005  0.1033054E+03  0.7546771E-02  0.1281206E+00
         21   -1    0    0  501  502  0.00000000000E+00  0.00000000000E+00  0.18339377212E+03  0.18339377212E+03  0.00000000000E+00 0. -1.
          2   -1    0    0  503    0 -0.00000000000E+00 -0.00000000000E+00 -0.17247831830E+03  0.17247831830E+03  0.00000000000E+00 0. -1.
         24    2    1    2    0    0  0.38477039227E+02  0.14309117317E+02 -0.22836608872E+02  0.88663688935E+02  0.75196447021E+02 0.  0.
         23    2    1    2    0    0 -0.82847237107E+01 -0.58780948859E+02  0.31671426225E+02  0.11360341175E+03  0.91535890924E+02 0.  0.
        -11    1    3    3    0    0 -0.17791619792E+02  0.22509059457E+02 -0.54738481287E+01  0.29208945646E+02  0.00000000000E+00 0.  1.
         12    1    3    3    0    0  0.56268659018E+02 -0.81999421399E+01 -0.17362760744E+02  0.59454743288E+02  0.00000000000E+00 0. -1.
        -11    1    4    4    0    0  0.13129736954E+02 -0.78152273938E+02  0.16358235426E+02  0.80918228975E+02  0.00000000000E+00 0.  1.
         11    1    4    4    0    0 -0.21414460664E+02  0.19371325079E+02  0.15313190799E+02  0.32685182779E+02  0.00000000000E+00 0. -1.
         21    1    1    2  503  502  0.38405849251E+02  0.24393815355E+02 -0.48148669575E+02  0.66244711986E+02  0.00000000000E+00 0. -1.
          1    1    1    2  501    0 -0.68598164768E+02  0.20078016188E+02  0.50229306040E+02  0.87360277751E+02  0.00000000000E+00 0. -1.
<scales pt_clust_5="13000.00000" pt_clust_6="13000.00000" pt_clust_7="13000.00000" pt_clust_8="13000.00000" pt_clust_9="45.49799" pt_clust_10="66.87084"></scales>
<clustering>
<clus scale="   45.498">  2  9  1 -1</clus>
<clus scale="   66.871">  1 10  2 -1</clus>
<clus scale="   75.196">  5  6 -1 -1</clus>
<clus scale="   89.150">  2  5  1 -1</clus>
<clus scale="   91.536">  7  8 -1 -1</clus>
<clus scale="   66.871">  1  5  2 -1</clus>
</clustering>
</event>
<event>
10    4  0.2977685E-005  0.1022890E+03  0.7546771E-02  0.1282632E+00
         21   -1    0    0  501  502  0.00000000000E+00  0.00000000000E+00  0.49661751285E+02  0.49661751285E+02  0.00000000000E+00 0.  1.
          2   -1    0    0  503    0 -0.00000000000E+00 -0.00000000000E+00 -0.50975856689E+03  0.50975856689E+03  0.00000000000E+00 0. -1.
         24    2    1    2    0    0 -0.43423212489E+02 -0.40522050496E+02 -0.32757734997E+03  0.34155479789E+03  0.76322655810E+02 0.  0.
         23    2    1    2    0    0 -0.18574598866E+01  0.48068170497E+01 -0.61920823310E+02  0.11027187887E+03  0.91099633714E+02 0.  0.
        -13    1    3    3    0    0 -0.65035728436E+02 -0.29771255643E+02 -0.22135282151E+03  0.23262210821E+03  0.00000000000E+00 0.  1.
         14    1    3    3    0    0  0.21612515947E+02 -0.10750794852E+02 -0.10622452846E+03  0.10893268968E+03  0.00000000000E+00 0. -1.
        -11    1    4    4    0    0 -0.13818251706E+02  0.46160667435E+02 -0.33591313177E+02  0.58737786979E+02  0.00000000000E+00 0.  1.
         11    1    4    4    0    0  0.11960791819E+02 -0.41353850386E+02 -0.28329510133E+02  0.51534091891E+02  0.00000000000E+00 0. -1.
         21    1    1    2  503  502  0.15481825830E+02 -0.14337195526E+02 -0.93867073611E+01  0.23094423172E+02  0.00000000000E+00 0.  1.
          1    1    1    2  501    0  0.29798846545E+02  0.50052428972E+02 -0.61211934966E+02  0.84499218243E+02  0.00000000000E+00 0. -1.
<scales pt_clust_5="13000.00000" pt_clust_6="13000.00000" pt_clust_7="13000.00000" pt_clust_8="13000.00000" pt_clust_9="21.10076" pt_clust_10="57.33016"></scales>
<clustering>
<clus scale="   21.101">  1  9  2 -1</clus>
<clus scale="   57.330">  1 10  2 -1</clus>
<clus scale="   76.323">  5  6 -1 -1</clus>
<clus scale="   89.381">  2  5  1 -1</clus>
<clus scale="   91.100">  7  8 -1 -1</clus>
<clus scale="   21.101">  1  5  2 -1</clus>
</clustering>
</event>
<event>
10    4  0.2977685E-005  0.1802672E+03  0.7546771E-02  0.1170833E+00
         -1   -1    0    0    0  501 -0.00000000000E+00  0.00000000000E+00  0.34805962015E+03  0.34805962015E+03  0.00000000000E+00 0.  1.
         21   -1    0    0  503  502  0.00000000000E+00 -0.00000000000E+00 -0.62741381961E+03  0.62741381961E+03  0.00000000000E+00 0. -1.
         23    2    1    2    0    0  0.11244778712E+03  0.73282213901E+02  0.28775526740E+03  0.33417193700E+03  0.10417774167E+03 0.  0.
         24    2    1    2    0    0 -0.14158546295E+03 -0.81466993450E+02 -0.41375000109E+03  0.45186377967E+03  0.79426051352E+02 0.  0.
        -11    1    4    4    0    0 -0.13415423859E+03 -0.81004837646E+02 -0.30542796233E+03  0.34328615414E+03  0.00000000000E+00 0.  1.
         12    1    4    4    0    0 -0.74312243610E+01 -0.46215580400E+00 -0.10832203876E+03  0.10857762553E+03  0.00000000000E+00 0. -1.
        -11    1    3    3    0    0  0.29568026700E+02  0.54911480284E+02  0.44734971168E+02  0.76751263933E+02  0.00000000000E+00 0. -1.
         11    1    3    3    0    0  0.82879760416E+02  0.18370733617E+02  0.24302029624E+03  0.25742067307E+03  0.00000000000E+00 0.  1.
         21    1    1    2  503  501  0.22961900208E+02 -0.16730625924E+02  0.51410936062E+01  0.28872020165E+02  0.00000000000E+00 0.  1.
         -2    1    1    2    0  502  0.61757756236E+01  0.24915405473E+02 -0.15850055938E+03  0.16056570293E+03  0.00000000000E+00 0.  1.
<scales pt_clust_5="13000.00000" pt_clust_6="13000.00000" pt_clust_7="13000.00000" pt_clust_8="13000.00000" pt_clust_9="28.17155" pt_clust_10="25.66939"></scales>
<clustering>
<clus scale="   25.669">  2 10  1 -1</clus>
<clus scale="   28.172">  1  9  2 -1</clus>
<clus scale="   79.426">  5  6 -1 -1</clus>
<clus scale="  104.178">  7  8 -1 -1</clus>
<clus scale="  167.188">  2  5  1 -1</clus>
<clus scale="   25.669">  2  5  1 -1</clus>
</clustering>
</event>
<event>
10    4  0.2977685E-005  0.1698073E+03  0.7546771E-02  0.1179530E+00
          2   -1    0    0  503    0 -0.00000000000E+00  0.00000000000E+00  0.44262840744E+03  0.44262840744E+03  0.00000000000E+00 0. -1.
         21   -1    0    0  501  502  0.00000000000E+00 -0.00000000000E+00 -0.23469903693E+03  0.23469903693E+03  0.00000000000E+00 0. -1.
         23    2    1    2    0    0 -0.15568567164E+02 -0.10094506042E+03  0.19440467997E+03  0.23779746303E+03  0.91225919143E+02 0.  0.
         24    2    1    2    0    0  0.13006195359E+03  0.86621326297E+02 -0.53575518113E+02  0.18371364643E+03  0.80380357083E+02 0.  0.
        -11    1    4    4    0    0  0.48398237260E+02  0.98470210042E+01 -0.51858384907E+02  0.71614560515E+02  0.00000000000E+00 0.  1.
         12    1    4    4    0    0  0.81663716325E+02  0.76774305293E+02 -0.17171332052E+01  0.11209908592E+03  0.00000000000E+00 0. -1.
        -13    1    3    3    0    0  0.17536988711E+02 -0.10715930133E+02 -0.41969160645E+00  0.20556100620E+02  0.00000000000E+00 0.  1.
         13    1    3    3    0    0 -0.33105555875E+02 -0.90229130287E+02  0.19482437158E+03  0.21724136241E+03  0.00000000000E+00 0. -1.
         21    1    1    2  503  502 -0.59189517159E+02 -0.60882507901E+02  0.12115204656E+03  0.14794558829E+03  0.00000000000E+00 0. -1.
          1    1    1    2  501    0 -0.55303869263E+02  0.75206242024E+02 -0.54051837905E+02  0.10787074662E+03  0.00000000000E+00 0. -1.
<scales pt_clust_5="13000.00000" pt_clust_6="13000.00000" pt_clust_7="13000.00000" pt_clust_8="13000.00000" pt_clust_9="84.91218" pt_clust_10="92.42009"></scales>
<clustering>
<clus scale="   80.380">  5  6 -1 -1</clus>
<clus scale="   84.912">  1  9  2 -1</clus>
<clus scale="   91.226">  7  8 -1 -1</clus>
<clus scale="   92.420">  2 10  1 -1</clus>
<clus scale="  164.236">  2  5  1 -1</clus>
<clus scale="   92.420">  2  5  1 -1</clus>
</clustering>
</event>
<event>
10    4  0.2977685E-005  0.9680065E+02  0.7546771E-02  0.1292767E+00
         21   -1    0    0  503  502  0.00000000000E+00  0.00000000000E+00  0.78607040724E+02  0.78607040724E+02  0.00000000000E+00 0.  1.
         -1   -1    0    0    0  501 -0.00000000000E+00 -0.00000000000E+00 -0.38113348320E+03  0.38113348320E+03  0.00000000000E+00 0.  1.
         24    2    1    2    0    0  0.93668757943E+01  0.15002785776E+02 -0.23304513600E+03  0.24709708458E+03  0.80212915745E+02 0.  0.
         23    2    1    2    0    0 -0.36469420347E+02 -0.19043921920E+02  0.13676465756E+02  0.10042915754E+03  0.90588522380E+02 0.  0.
        -13    1    3    3    0    0  0.37461195685E+02 -0.15209820548E+02 -0.12830280944E+03  0.13452245438E+03  0.00000000000E+00 0.  1.
         14    1    3    3    0    0 -0.28094319891E+02  0.30212606324E+02 -0.10474232656E+03  0.11257463020E+03  0.00000000000E+00 0. -1.
        -11    1    4    4    0    0 -0.50026851245E+02  0.18278390972E+02  0.25425550587E+02  0.59019014263E+02  0.00000000000E+00 0.  1.
         11    1    4    4    0    0  0.13557430898E+02 -0.37322312893E+02 -0.11749084831E+02  0.41410143281E+02  0.00000000000E+00 0. -1.
         21    1    1    2  503  501  0.10612531290E+02  0.17091079434E+02 -0.88302334666E+02  0.90565076735E+02  0.00000000000E+00 0. -1.
         -2    1    1    2    0  502  0.16490013262E+02 -0.13049943290E+02  0.51445624321E+01  0.21649205064E+02  0.00000000000E+00 0.  1.
<scales pt_clust_5="13000.00000" pt_clust_6="13000.00000" pt_clust_7="13000.00000" pt_clust_8="13000.00000" pt_clust_9="20.11792" pt_clust_10="20.97207"></scales>
<clustering>
<clus scale="   20.118">  2  9  1 -1</clus>
<clus scale="   20.972">  1 10  2 -1</clus>
<clus scale="   80.213">  5  6 -1 -1</clus>
<clus scale="   87.168">  2  5  1 -1</clus>
<clus scale="   90.589">  7  8 -1 -1</clus>
<clus scale="   20.972">  1  5  2 -1</clus>
</clustering>
</event>
<event>
10    4  0.2977685E-005  0.1201807E+03  0.7546771E-02  0.1248168E+00
          2   -1    0    0  503    0 -0.00000000000E+00  0.00000000000E+00  0.22049782181E+03  0.22049782181E+03  0.00000000000E+00 0. -1.
         21   -1    0    0  501  502  0.00000000000E+00 -0.00000000000E+00 -0.15270946721E+03  0.15270946721E+03  0.00000000000E+00 0.  1.
         23    2    1    2    0    0 -0.69013709505E+02 -0.13444122899E+01  0.36581316663E+02  0.12329577455E+03  0.95388446622E+02 0.  0.
         24    2    1    2    0    0  0.74444167411E+02 -0.24479647505E+02  0.15552457828E+02  0.11258316496E+03  0.79321515898E+02 0.  0.
        -11    1    4    4    0    0  0.27417989766E+01 -0.31027318415E+02 -0.14751938662E+02  0.34464933540E+02  0.00000000000E+00 0.  1.
         12    1    4    4    0    0  0.71702368434E+02  0.65476709103E+01  0.30304396491E+02  0.78118231419E+02  0.00000000000E+00 0. -1.
        -13    1    3    3    0    0 -0.45111492291E+01  0.29471349573E+02  0.42110608291E+02  0.51596649539E+02  0.00000000000E+00 0.  1.
         13    1    3    3    0    0 -0.64502560276E+02 -0.30815761863E+02 -0.55292916280E+01  0.71699125010E+02  0.00000000000E+00 0. -1.
         21    1    1    2  503  502  0.47306961759E+01  0.73334419115E+02  0.39255561754E+02  0.83314558402E+02  0.00000000000E+00 0. -1.
          1    1    1    2  501    0 -0.10161154081E+02 -0.47510359320E+02 -0.23600981644E+02  0.54013791105E+02  0.00000000000E+00 0. -1.
<scales pt_clust_5="13000.00000" pt_clust_6="13000.00000" pt_clust_7="13000.00000" pt_clust_8="13000.00000" pt_clust_9="64.20515" pt_clust_10="48.58481"></scales>
<clustering>
<clus scale="   48.585">  2 10  1 -1</clus>
<clus scale="   64.205">  1  9  2 -1</clus>
<clus scale="   79.322">  5  6 -1 -1</clus>
<clus scale="   95.388">  7  8 -1 -1</clus>
<clus scale="  107.872">  2  5  1 -1</clus>
<clus scale="   48.585">  2  5  1 -1</clus>
</clustering>
</event>
<event>
10    4  0.2977685E-005  0.2381361E+03  0.7546771E-02  0.1121670E+00
         21   -1    0    0  503  502  0.00000000000E+00  0.00000000000E+00  0.56466225632E+03  0.56466225632E+03  0.00000000000E+00 0.  1.
         -1   -1    0    0    0  501 -0.00000000000E+00 -0.00000000000E+00 -0.25200040343E+03  0.25200040343E+03  0.00000000000E+00 0.  1.
         24    2    1    2    0    0 -0.18426422985E+03 -0.12347050772E+03  0.15468730562E+03  0.28198131176E+03  0.79918865003E+02 0.  0.
         23    2    1    2    0    0  0.22211351449E+03  0.62399037934E+02  0.26899091867E+03  0.36568144949E+03  0.90215048179E+02 0.  0.
        -13    1    3    3    0    0 -0.10119328790E+03 -0.10003136992E+03  0.12864827113E+03  0.19182474853E+03  0.00000000000E+00 0.  1.
         14    1    3    3    0    0 -0.83070941945E+02 -0.23439137803E+02  0.26039034499E+02  0.90156563234E+02  0.00000000000E+00 0. -1.
        -13    1    4    4    0    0  0.30605395980E+02  0.30459542618E+02  0.14422876171E+02  0.45524645596E+02  0.00000000000E+00 0. -1.
         13    1    4    4    0    0  0.19150811851E+03  0.31939495317E+02  0.25456804250E+03  0.32015680389E+03  0.00000000000E+00 0.  1.
         21    1    1    2  503  501  0.29974905698E+02 -0.75736517238E+01 -0.27570549237E+02  0.41424513966E+02  0.00000000000E+00 0. -1.
         -2    1    1    2    0  502 -0.67824190343E+02  0.68645121508E+02 -0.83445822163E+02  0.12757538453E+03  0.00000000000E+00 0.  1.
<scales pt_clust_5="13000.00000" pt_clust_6="13000.00000" pt_clust_7="13000.00000" pt_clust_8="13000.00000" pt_clust_9="30.91691" pt_clust_10="84.02603"></scales>
<clustering>
<clus scale="   30.917">  2  9  1 -1</clus>
<clus scale="   79.919">  5  6 -1 -1</clus>
<clus scale="   84.026">  1 10  2 -1</clus>
<clus scale="   90.215">  7  8 -1 -1</clus>
<clus scale="  234.429">  2  5  1 -1</clus>
<clus scale="   84.026">  1  5  2 -1</clus>
</clustering>
</event>
<event>
10    4  0.2977685E-005  0.1209862E+03  0.7546771E-02  0.1245764E+00
         21   -1    0    0  501  502  0.00000000000E+00  0.00000000000E+00  0.38990155875E+02  0.38990155875E+02  0.00000000000E+00 0. -1.
          2   -1    0    0  503    0 -0.00000000000E+00 -0.00000000000E+00 -0.10759698275E+04  0.10759698275E+04  0.00000000000E+00 0. -1.
         24    2    1    2    0    0  0.96546900744E+02 -0.35477289921E+02 -0.40398849837E+03  0.42482720858E+03  0.81801639308E+02 0.  0.
         23    2    1    2    0    0 -0.32628130488E+02  0.30159072948E+02 -0.21028027018E+03  0.23496621364E+03  0.94958753908E+02 0.  0.
        -13    1    3    3    0    0  0.65572926172E+02  0.18829208435E+02 -0.18916492944E+03  0.20109131822E+03  0.00000000000E+00 0.  1.
         14    1    3    3    0    0  0.30973974573E+02 -0.54306498356E+02 -0.21482356893E+03  0.22373589036E+03  0.00000000000E+00 0. -1.
        -11    1    4    4    0    0 -0.27592507640E+02 -0.10581397090E+02 -0.11049094466E+02  0.31549880043E+02  0.00000000000E+00 0.  1.
         11    1    4    4    0    0 -0.50356228481E+01  0.40740470038E+02 -0.19923117571E+03  0.20341633359E+03  0.00000000000E+00 0. -1.
         21    1    1    2  503  502  0.23531397529E+02  0.37914435789E+02 -0.28708505181E+03  0.29053237011E+03  0.00000000000E+00 0. -1.
          1    1    1    2  501    0 -0.87450167785E+02 -0.32596218816E+02 -0.13562585123E+03  0.16463419101E+03  0.00000000000E+00 0. -1.
<scales pt_clust_5="13000.00000" pt_clust_6="13000.00000" pt_clust_7="13000.00000" pt_clust_8="13000.00000" pt_clust_9="44.62321" pt_clust_10="86.75315"></scales>
<clustering>
<clus scale="   44.623">  2  9  1 -1</clus>
<clus scale="   81.802">  5  6 -1 -1</clus>
<clus scale="   86.753">  1 10  2 -1</clus>
<clus scale="   94.959">  7  8 -1 -1</clus>
<clus scale="  110.959">  2  5  1 -1</clus>
<clus scale="   86.753">  1  5  2 -1</clus>
</clustering>
</event>
<event>
10    4  0.2977685E-005  0.1788541E+03  0.7546771E-02  0.1171115E+00
         21   -1    0    0  503  502  0.00000000000E+00  0.00000000000E+00  0.12832366486E+04  0.12832366486E+04  0.00000000000E+00 0. -1.
         -1   -1    0    0    0  501 -0.00000000000E+00 -0.00000000000E+00 -0.11138651221E+03  0.11138651221E+03  0.00000000000E+00 0.  1.
         23    2    1    2    0    0  0.15978193423E+03 -0.11427331254E+02  0.58638810428E+03  0.61559760045E+03  0.97203633868E+02 0.  0.
         24    2    1    2    0    0 -0.13128040427E+03  0.55662629938E+02  0.65810340138E+03  0.67810086720E+03  0.79923878018E+02 0.  0.
        -13    1    4    4    0    0 -0.54689304766E+02  0.10454767553E+02  0.11507751761E+03  0.12783996746E+03  0.00000000000E+00 0.  1.
         14    1    4    4    0    0 -0.76591099503E+02  0.45207862385E+02  0.54302588377E+03  0.55026089975E+03  0.00000000000E+00 0. -1.
        -11    1    3    3    0    0  0.99993580648E+01 -0.27323061399E+02  0.44518520085E+02  0.53183037488E+02  0.00000000000E+00 0. -1.
         11    1    3    3    0    0  0.14978257616E+03  0.15895730145E+02  0.54186958419E+03  0.56241456296E+03  0.00000000000E+00 0.  1.
         21    1    1    2  503  501  0.79716930820E+01 -0.22424502803E+02 -0.42882758307E+02  0.49044236936E+02  0.00000000000E+00 0. -1.
         -2    1    1    2    0  502 -0.36473223041E+02 -0.21810795881E+02 -0.29758610934E+02  0.51880456250E+02  0.00000000000E+00 0.  1.
<scales pt_clust_5="13000.00000" pt_clust_6="13000.00000" pt_clust_7="13000.00000" pt_clust_8="13000.00000" pt_clust_9="23.79929" pt_clust_10="47.68660"></scales>
<clustering>
<clus scale="   23.799">  2  9  1 -1</clus>
<clus scale="   47.687">  1 10  2 -1</clus>
<clus scale="   79.924">  5  6 -1 -1</clus>
<clus scale="   97.204">  7  8 -1 -1</clus>
<clus scale="  170.083">  1  5  2 -1</clus>
<clus scale="   47.687">  1  5  2 -1</clus>
</clustering>
</event>
<event>
10    4  0.2977685E-005  0.1512772E+03  0.7546771E-02  0.1200587E+00
         -3   -1    0    0    0  501 -0.00000000000E+00  0.00000000000E+00  0.30000609665E+03  0.30000609665E+03  0.00000000000E+00 0.  1.
         21   -1    0    0  503  502  0.00000000000E+00 -0.00000000000E+00 -0.36591992691E+03  0.36591992691E+03  0.00000000000E+00 0.  1.
         23    2    1    2    0    0  0.10149974767E+03 -0.10011388752E+02 -0.14682967224E+03  0.19967980410E+03  0.88941805887E+02 0.  0.
         24    2    1    2    0    0 -0.13101728215E+03  0.70668514773E+02 -0.14208279409E+03  0.22056982784E+03  0.79397489725E+02 0.  0.
        -13    1    4    4    0    0 -0.10539263717E+03  0.26736866079E+02 -0.12769425867E+03  0.16771491190E+03  0.00000000000E+00 0.  1.
         14    1    4    4    0    0 -0.25624644987E+02  0.43931648694E+02 -0.14388535422E+02  0.52854915942E+02  0.00000000000E+00 0. -1.
        -13    1    3    3    0    0  0.67460215892E+02  0.24715288278E+02 -0.39826382319E+02  0.82145401159E+02  0.00000000000E+00 0.  1.
         13    1    3    3    0    0  0.34039531774E+02 -0.34726677031E+02 -0.10700328992E+03  0.11753440294E+03  0.00000000000E+00 0. -1.
         21    1    1    2  503  501 -0.20777365934E+02 -0.18509160038E+02  0.26175809327E+02  0.38202891702E+02  0.00000000000E+00 0.  1.
         -4    1    1    2    0  502  0.50294900422E+02 -0.42147965983E+02  0.19682282673E+03  0.20747349992E+03  0.00000000000E+00 0.  1.
<scales pt_clust_5="13000.00000" pt_clust_6="13000.00000" pt_clust_7="13000.00000" pt_clust_8="13000.00000" pt_clust_9="27.82603" pt_clust_10="65.93414"></scales>
<clustering>
<clus scale="   27.826">  1  9  2 -1</clus>
<clus scale="   65.934">  2 10  1 -1</clus>
<clus scale="   79.397">  5  6 -1 -1</clus>
<clus scale="   88.942">  7  8 -1 -1</clus>
<clus scale="  145.870">  2  5  1 -1</clus>
<clus scale="   65.934">  2  5  1 -1</clus>
</clustering>
</event>
<event>
10    4  0.2977685E-005  0.2062330E+03  0.7546771E-02  0.1185158E+00
         21   -1    0    0  501  502  0.00000000000E+00  0.00000000000E+00  0.74393971953E+02  0.74393971953E+02  0.00000000000E+00 0. -1.
          2   -1    0    0  503    0 -0.00000000000E+00 -0.00000000000E+00 -0.90606516282E+03  0.90606516282E+03  0.00000000000E+00 0. -1.
         24    2    1    2    0    0 -0.18526782227E+02 -0.12651592746E+02 -0.17712094013E+03  0.19518288320E+03  0.78874748837E+02 0.  0.
         23    2    1    2    0    0  0.29003062840E+02 -0.17833617335E+03 -0.42050940595E+03  0.46648301770E+03  0.90184682360E+02 0.  0.
        -13    1    3    3    0    0  0.21557479112E+02  0.15336664874E+02 -0.29250137158E+02  0.39439938120E+02  0.00000000000E+00 0.  1.
         14    1    3    3    0    0 -0.40084261339E+02 -0.27988257620E+02 -0.14787080297E+03  0.15574294508E+03  0.00000000000E+00 0. -1.
        -13    1    4    4    0    0 -0.24236638312E+02 -0.13207884601E+02 -0.44321363464E+02  0.52213466765E+02  0.00000000000E+00 0.  1.
         13    1    4    4    0    0  0.53239701152E+02 -0.16512828875E+03 -0.37618804249E+03  0.41426955094E+03  0.00000000000E+00 0. -1.
         21    1    1    2  503  502  0.22810520264E+02  0.60902704435E+01 -0.52396972118E+02  0.57470461247E+02  0.00000000000E+00 0. -1.
          1    1    1    2  501    0 -0.33286800877E+02  0.18489749566E+03 -0.18164387267E+03  0.26132277262E+03  0.00000000000E+00 0. -1.
<scales pt_clust_5="13000.00000" pt_clust_6="13000.00000" pt_clust_7="13000.00000" pt_clust_8="13000.00000" pt_clust_9="23.60956" pt_clust_10="185.46909"></scales>
<clustering>
<clus scale="   23.610">  2  9  1 -1</clus>
<clus scale="   78.875">  5  6 -1 -1</clus>
<clus scale="   80.825">  2  5  1 -1</clus>
<clus scale="   90.185">  7  8 -1 -1</clus>
<clus scale="  185.469">  1 10  2 -1</clus>
<clus scale="  185.469">  1  5  2 -1</clus>
</clustering>
</event>
<event>
10    4  0.2977685E-005  0.1533163E+03  0.7546771E-02  0.1198462E+00
         21   -1    0    0  501  502  0.00000000000E+00  0.00000000000E+00  0.67890357601E+02  0.67890357601E+02  0.00000000000E+00 0.  1.
          2   -1    0    0  503    0 -0.00000000000E+00 -0.00000000000E+00 -0.18305406571E+04  0.18305406571E+04  0.00000000000E+00 0. -1.
         24    2    1    2    0    0 -0.75858790793E+02  0.98051647569E+02 -0.14926011698E+04  0.14999616485E+04  0.81596649066E+02 0.  0.
         23    2    1    2    0    0  0.75320150525E+02 -0.32605482157E+02 -0.93934974059E+02  0.15552287822E+03  0.92883495617E+02 0.  0.
        -13    1    3    3    0    0 -0.11901071390E+02  0.47931440195E+02 -0.25767859317E+03  0.26236866398E+03  0.00000000000E+00 0.  1.
         14    1    3    3    0    0 -0.63957719402E+02  0.50120207374E+02 -0.12349225766E+04  0.12375929845E+04  0.00000000000E+00 0. -1.
        -13    1    4    4    0    0  0.22499357922E+02 -0.46234791132E+02 -0.86277144993E+02  0.10043715829E+03  0.00000000000E+00 0.  1.
         13    1    4    4    0    0  0.52820792603E+02  0.13629308975E+02 -0.76578290660E+01  0.55085719931E+02  0.00000000000E+00 0. -1.
         21    1    1    2  503  502  0.15362416532E+02  0.19153436756E+02 -0.15167378944E+03  0.15364828793E+03  0.00000000000E+00 0.  1.
          1    1    1    2  501    0 -0.14823776264E+02 -0.84599602168E+02 -0.24440366183E+02  0.89298200031E+02  0.00000000000E+00 0. -1.
<scales pt_clust_5="13000.00000" pt_clust_6="13000.00000" pt_clust_7="13000.00000" pt_clust_8="13000.00000" pt_clust_9="24.55317" pt_clust_10="85.16016"></scales>
<clustering>
<clus scale="   24.553">  2  9  1 -1</clus>
<clus scale="   81.597">  5  6 -1 -1</clus>
<clus scale="   85.160">  1 10  2 -1</clus>
<clus scale="   92.883">  7  8 -1 -1</clus>
<clus scale="  146.753">  2  5  1 -1</clus>
<clus scale="   85.160">  1  5  2 -1</clus>
</clustering>
</event>
<event>
10    4  0.2977685E-005  0.1303800E+03  0.7546771E-02  0.1230294E+00
         21   -1    0    0  501  502  0.00000000000E+00  0.00000000000E+00  0.10789718900E+03  0.10789718900E+03  0.00000000000E+00 0.  1.
          4   -1    0    0  503    0 -0.00000000000E+00 -0.00000000000E+00 -0.69042053047E+03  0.69042053047E+03  0.00000000000E+00 0. -1.
         24    2    1    2    0    0 -0.91491957207E+02 -0.41199517439E+02 -0.49159716854E+03  0.50797359797E+03  0.79380234625E+02 0.  0.
         23    2    1    2    0    0  0.30037304728E+02 -0.11754445515E+02  0.32694702319E+02  0.10316498862E+03  0.92377836365E+02 0.  0.
        -11    1    3    3    0    0 -0.71927395153E+02  0.46085259791E+01 -0.36259004737E+03  0.36968409641E+03  0.00000000000E+00 0.  1.
         12    1    3    3    0    0 -0.19564562053E+02 -0.45808043418E+02 -0.12900712117E+03  0.13828950156E+03  0.00000000000E+00 0. -1.
        -11    1    4    4    0    0 -0.26906528134E+02 -0.27727812309E+02  0.14814214914E+02  0.41379388532E+02  0.00000000000E+00 0.  1.
         11    1    4    4    0    0  0.56943832863E+02  0.15973366795E+02  0.17880487405E+02  0.61785600084E+02  0.00000000000E+00 0. -1.
         21    1    1    2  503  502  0.41020618052E+01 -0.34646466018E+02 -0.21862090979E+02  0.41172266644E+02  0.00000000000E+00 0.  1.
          3    1    1    2  501    0  0.57352590673E+02  0.87600428972E+02 -0.10175878427E+03  0.14600686624E+03  0.00000000000E+00 0. -1.
<scales pt_clust_5="13000.00000" pt_clust_6="13000.00000" pt_clust_7="13000.00000" pt_clust_8="13000.00000" pt_clust_9="34.88846" pt_clust_10="98.81229"></scales>
<clustering>
<clus scale="   34.888">  1  9  2 -1</clus>
<clus scale="   79.380">  5  6 -1 -1</clus>
<clus scale="   92.378">  7  8 -1 -1</clus>
<clus scale="   98.812">  1 10  2 -1</clus>
<clus scale="  121.517">  2  5  1 -1</clus>
<clus scale="   34.888">  1  5  2 -1</clus>
</clustering>
</event>
<event>
10    4  0.2977685E-005  0.1179073E+03  0.7546771E-02  0.1249802E+00
          2   -1    0    0  503    0 -0.00000000000E+00  0.00000000000E+00  0.42578553903E+03  0.42578553903E+03  0.00000000000E+00 0. -1.
         21   -1    0    0  501  502  0.00000000000E+00 -0.00000000000E+00 -0.64679448799E+02  0.64679448799E+02  0.00000000000E+00 0. -1.
         24    2    1    2    0    0  0.44796720770E+02 -0.73315790660E+02  0.17587478764E+03  0.21192577449E+03  0.81232023341E+02 0.  0.
         23    2    1    2    0    0 -0.45761646916E+02  0.62363983918E+02  0.57607426385E+02  0.13258889350E+03  0.90982439442E+02 0.  0.
        -13    1    3    3    0    0  0.49307836082E+02 -0.86768396922E+02  0.12989792590E+03  0.16380930547E+03  0.00000000000E+00 0.  1.
         14    1    3    3    0    0 -0.45111153122E+01  0.13452606262E+02  0.45976861735E+02  0.48116469027E+02  0.00000000000E+00 0. -1.
        -13    1    4    4    0    0  0.19488303294E+02  0.40591885997E+02  0.36699188790E+01  0.45177023792E+02  0.00000000000E+00 0. -1.
         13    1    4    4    0    0 -0.65249950210E+02  0.21772097920E+02  0.53937507506E+02  0.87411869710E+02  0.00000000000E+00 0.  1.
         21    1    1    2  503  502  0.52091514759E+01  0.32562796734E+02  0.11688501752E+03  0.12144784194E+03  0.00000000000E+00 0. -1.
          1    1    1    2  501    0 -0.42442253300E+01 -0.21610989992E+02  0.10738858684E+02  0.24502477894E+02  0.00000000000E+00 0. -1.
<scales pt_clust_5="13000.00000" pt_clust_6="13000.00000" pt_clust_7="13000.00000" pt_clust_8="13000.00000" pt_clust_9="32.10805" pt_clust_10="22.02381"></scales>
<clustering>
<clus scale="   22.024">  2 10  1 -1</clus>
<clus scale="   32.108">  1  9  2 -1</clus>
<clus scale="   81.232">  5  6 -1 -1</clus>
<clus scale="   90.982">  7  8 -1 -1</clus>
<clus scale="  110.558">  1  5  2 -1</clus>
<clus scale="   22.024">  2  5  1 -1</clus>
</clustering>
</event>
<event>
10    4  0.2977685E-005  0.2470559E+03  0.7546771E-02  0.1154544E+00
          2   -1    0    0  503    0 -0.00000000000E+00  0.00000000000E+00  0.41869291986E+03  0.41869291986E+03  0.00000000000E+00 0. -1.
         21   -1    0    0  501  502  0.00000000000E+00 -0.00000000000E+00 -0.48745137458E+03  0.48745137458E+03  0.00000000000E+00 0. -1.
         24    2    1    2    0    0 -0.83400888011E+01 -0.47059586856E+02 -0.55289929515E+02  0.10879980284E+03  0.80599373418E+02 0.  0.
         23    2    1    2    0    0 -0.11110288929E+02 -0.16272104171E+03  0.29868487129E+03  0.35192282846E+03  0.89640665537E+02 0.  0.
        -11    1    3    3    0    0 -0.10414969755E+02 -0.52752717660E+02 -0.72666126262E+02  0.90397382271E+02  0.00000000000E+00 0.  1.
         12    1    3    3    0    0  0.20748809542E+01  0.56931308036E+01  0.17376196747E+02  0.18402420566E+02  0.00000000000E+00 0. -1.
        -11    1    4    4    0    0 -0.25777543170E+02 -0.49262303971E+02  0.38299691163E+02  0.67513870187E+02  0.00000000000E+00 0.  1.
         11    1    4    4    0    0  0.14667254240E+02 -0.11345873774E+03  0.26038518012E+03  0.28440895827E+03  0.00000000000E+00 0. -1.
         21    1    1    2  503  502 -0.38692982004E+02 -0.21682508867E+02  0.90445131607E+01  0.45266778828E+02  0.00000000000E+00 0. -1.
          1    1    1    2  501    0  0.58143359735E+02  0.23146313744E+03 -0.32119790965E+03  0.40015488431E+03  0.00000000000E+00 0. -1.
<scales pt_clust_5="13000.00000" pt_clust_6="13000.00000" pt_clust_7="13000.00000" pt_clust_8="13000.00000" pt_clust_9="44.35401" pt_clust_10="230.21987"></scales>
<clustering>
<clus scale="   44.354">  1  9  2 -1</clus>
<clus scale="   80.599">  5  6 -1 -1</clus>
<clus scale="   89.641">  7  8 -1 -1</clus>
<clus scale="   94.727">  1  5  2 -1</clus>
<clus scale="  230.220">  2 10  1 -1</clus>
<clus scale="  230.220">  2  5  1 -1</clus>
</clustering>
</event>
<event>
10    4  0.2977685E-005  0.1650198E+03  0.7546771E-02  0.1201115E+00
         21   -1    0    0  501  502  0.00000000000E+00  0.00000000000E+00  0.17482221489E+03  0.17482221489E+03  0.00000000000E+00 0. -1.
          2   -1    0    0  503    0 -0.00000000000E+00 -0.00000000000E+00 -0.37029218406E+03  0.37029218406E+03  0.00000000000E+00 0. -1.
         23    2    1    2    0    0  0.27532334731E+01  0.58411405256E+02 -0.16485374645E+03  0.19632417844E+03  0.89145682815E+02 0.  0.
         24    2    1    2    0    0 -0.12974068917E+03  0.27606105171E+01 -0.21253478190E+02  0.15478989757E+03  0.81657422550E+02 0.  0.
        -13    1    4    4    0    0 -0.75002629460E+02  0.29999754513E+01  0.29011338676E+02  0.80473921555E+02  0.00000000000E+00 0.  1.
         14    1    4    4    0    0 -0.54738059715E+02 -0.23936493424E+00 -0.50264816866E+02  0.74315976018E+02  0.00000000000E+00 0. -1.
        -11    1    3    3    0    0  0.32808026990E+02  0.26039011579E+02 -0.23069972952E+02  0.47818619920E+02  0.00000000000E+00 0. -1.
         11    1    3    3    0    0 -0.30054793516E+02  0.32372393677E+02 -0.14178377349E+03  0.14850555852E+03  0.00000000000E+00 0.  1.
         21    1    1    2  503  502 -0.16239856233E+02  0.14515312003E+02 -0.22695842918E+02  0.31456771906E+02  0.00000000000E+00 0. -1.
          1    1    1    2  501    0  0.14322731193E+03 -0.75687327776E+02  0.13333098375E+02  0.16254355103E+03  0.00000000000E+00 0. -1.
<scales pt_clust_5="13000.00000" pt_clust_6="13000.00000" pt_clust_7="13000.00000" pt_clust_8="13000.00000" pt_clust_9="21.78135" pt_clust_10="143.40014"></scales>
<clustering>
<clus scale="   21.781">  2  9  1 -1</clus>
<clus scale="   81.657">  5  6 -1 -1</clus>
<clus scale="   89.146">  7  8 -1 -1</clus>
<clus scale="  111.099">  2  7  1 -1</clus>
<clus scale="  143.400">  1 10  2 -1</clus>
<clus scale="  143.400">  1  5  2 -1</clus>
</clustering>
</event>
<event>
10    4  0.2977685E-005  0.1651873E+03  0.7546771E-02  0.1184926E+00
         21   -1    0    0  501  502  0.00000000000E+00  0.00000000000E+00  0.35682065782E+03  0.35682065782E+03  0.00000000000E+00 0. -1.
          2   -1    0    0  503    0 -0.00000000000E+00 -0.00000000000E+00 -0.27815956415E+03  0.27815956415E+03  0.00000000000E+00 0. -1.
         23    2    1    2    0    0  0.12574208222E+03  0.46138269299E+02 -0.12525869651E+03  0.20594277687E+03  0.93716995035E+02 0.  0.
         24    2    1    2    0    0 -0.15114830784E+03 -0.23498967122E+02  0.27502177444E+03  0.32484899728E+03  0.80572217325E+02 0.  0.
        -13    1    4    4    0    0 -0.39126215176E+02 -0.43530589466E+02  0.81339840803E+02  0.10020949374E+03  0.00000000000E+00 0.  1.
         14    1    4    4    0    0 -0.11202209266E+03  0.20031622344E+02  0.19368193363E+03  0.22463950355E+03  0.00000000000E+00 0. -1.
        -13    1    3    3    0    0  0.29120290420E+02 -0.18045463988E+02 -0.68970030058E+02  0.77009708030E+02  0.00000000000E+00 0.  1.
         13    1    3    3    0    0  0.96621791804E+02  0.64183733287E+02 -0.56288666452E+02  0.12893306884E+03  0.00000000000E+00 0. -1.
         21    1    1    2  503  502 -0.77695545850E+01  0.20087859334E+02 -0.14946506860E+02  0.26216142706E+02  0.00000000000E+00 0.  1.
          1    1    1    2  501    0  0.33175780198E+02 -0.42727161511E+02 -0.56155477398E+02  0.77972305111E+02  0.00000000000E+00 0. -1.
<scales pt_clust_5="13000.00000" pt_clust_6="13000.00000" pt_clust_7="13000.00000" pt_clust_8="13000.00000" pt_clust_9="21.53806" pt_clust_10="48.74967"></scales>
<clustering>
<clus scale="   21.538">  2  9  1 -1</clus>
<clus scale="   48.750">  1 10  2 -1</clus>
<clus scale="   80.572">  5  6 -1 -1</clus>
<clus scale="   93.717">  7  8 -1 -1</clus>
<clus scale="  158.101">  1  5  2 -1</clus>
<clus scale="   48.750">  1  5  2 -1</clus>
</clustering>
</event>
<event>
10    4  0.2977685E-005  0.1359415E+03  0.7546771E-02  0.1220701E+00
         21   -1    0    0  501  502  0.00000000000E+00  0.00000000000E+00  0.55787195533E+02  0.55787195533E+02  0.00000000000E+00 0. -1.
          2   -1    0    0  503    0 -0.00000000000E+00 -0.00000000000E+00 -0.90478932235E+03  0.90478932235E+03  0.00000000000E+00 0. -1.
         23    2    1    2    0    0  0.77123914486E+02 -0.23520215885E+02 -0.15074404669E+03  0.19328401384E+03  0.90186715516E+02 0.  0.
         24    2    1    2    0    0 -0.96016108535E+02  0.87882113250E+02 -0.23455087943E+03  0.28060796020E+03  0.82367186175E+02 0.  0.
        -13    1    4    4    0    0 -0.31811630737E+02  0.45264402416E+02 -0.32045490505E+02  0.63935588196E+02  0.00000000000E+00 0.  1.
         14    1    4    4    0    0 -0.64204477798E+02  0.42617710834E+02 -0.20250538893E+03  0.21667237200E+03  0.00000000000E+00 0. -1.
        -13    1    3    3    0    0  0.24894903326E+02  0.27744915943E+02 -0.92574802458E+02  0.99797948989E+02  0.00000000000E+00 0.  1.
         13    1    3    3    0    0  0.52229011160E+02 -0.51265131828E+02 -0.58169244228E+02  0.93486064856E+02  0.00000000000E+00 0. -1.
         21    1    1    2  503  502 -0.46350347635E+02 -0.53985997651E+02 -0.32954938466E+03  0.33714335171E+03  0.00000000000E+00 0.  1.
          1    1    1    2  501    0  0.65242541684E+02 -0.10375899714E+02 -0.13415781603E+03  0.14954119213E+03  0.00000000000E+00 0. -1.
<scales pt_clust_5="13000.00000" pt_clust_6="13000.00000" pt_clust_7="13000.00000" pt_clust_8="13000.00000" pt_clust_9="68.56395" pt_clust_10="66.06249"></scales>
<clustering>
<clus scale="   66.062">  1 10  2 -1</clus>
<clus scale="   68.564">  2  9  1 -1</clus>
<clus scale="   82.367">  5  6 -1 -1</clus>
<clus scale="   90.187">  7  8 -1 -1</clus>
<clus scale="  130.885">  1  5  2 -1</clus>
<clus scale="   66.062">  1  5  2 -1</clus>
</clustering>
</event>
<event>
10    4  0.2977685E-005  0.1908615E+03  0.7546771E-02  0.1158951E+00
          2   -1    0    0  503    0 -0.00000000000E+00  0.00000000000E+00  0.38714550056E+03  0.38714550056E+03  0.00000000000E+00 0. -1.
         21   -1    0    0  501  502  0.00000000000E+00 -0.00000000000E+00 -0.46922762711E+03  0.46922762711E+03  0.00000000000E+00 0. -1.
         23    2    1    2    0    0  0.10874410182E+03  0.56670597111E+02  0.11726296817E+03  0.19317889938E+03  0.92361502827E+02 0.  0.
         24    2    1    2    0    0 -0.19340990084E+03  0.71696255830E+02 -0.20893392074E+03  0.30437493587E+03  0.80268147532E+02 0.  0.
        -13    1    4    4    0    0 -0.18808925484E+03  0.84807346285E+02 -0.20148141313E+03  0.28838275539E+03  0.00000000000E+00 0.  1.
         14    1    4    4    0    0 -0.53206459941E+01 -0.13111090455E+02 -0.74525076075E+01  0.15992180475E+02  0.00000000000E+00 0. -1.
        -11    1    3    3    0    0  0.59970688474E+02  0.76012214021E+02  0.53553434681E+02  0.11064497513E+03  0.00000000000E+00 0.  1.
         11    1    3    3    0    0  0.48773413345E+02 -0.19341616910E+02  0.63709533487E+02  0.82533924244E+02  0.00000000000E+00 0. -1.
         21    1    1    2  503  502  0.68979831945E+02 -0.92274153324E+02  0.16346867683E+03  0.19998686180E+03  0.00000000000E+00 0. -1.
          1    1    1    2  501    0  0.15685967074E+02 -0.36092699617E+02 -0.15387985082E+03  0.15883243062E+03  0.00000000000E+00 0. -1.
<scales pt_clust_5="13000.00000" pt_clust_6="13000.00000" pt_clust_7="13000.00000" pt_clust_8="13000.00000" pt_clust_9="117.44373" pt_clust_10="39.35394"></scales>
<clustering>
<clus scale="   39.354">  2 10  1 -1</clus>
<clus scale="   80.268">  5  6 -1 -1</clus>
<clus scale="   92.362">  7  8 -1 -1</clus>
<clus scale="  117.444">  1  9  2 -1</clus>
<clus scale="  185.312">  2  5  1 -1</clus>
<clus scale="   39.354">  2  5  1 -1</clus>
</clustering>
</event>
<event>
10    4  0.2977685E-005  0.1660916E+03  0.7546771E-02  0.1213943E+00
          2   -1    0    0  503    0 -0.00000000000E+00  0.00000000000E+00  0.27392852417E+02  0.27392852417E+02  0.00000000000E+00 0. -1.
         21   -1    0    0  501  502  0.00000000000E+00 -0.00000000000E+00 -0.17747911323E+04  0.17747911323E+04  0.00000000000E+00 0.  1.
         24    2    1    2    0    0 -0.65419237686E+01 -0.11212628099E+02 -0.42502377607E+03  0.43275930067E+03  0.80416927911E+02 0.  0.
         23    2    1    2    0    0 -0.13468690178E+03  0.16881913957E+02 -0.57282607991E+03  0.59581613496E+03  0.91878116665E+02 0.  0.
        -11    1    3    3    0    0 -0.32834232242E+02 -0.32966337661E+02 -0.27454045179E+03  0.27845524936E+03  0.00000000000E+00 0.  1.
         12    1    3    3    0    0  0.26292308473E+02  0.21753709562E+02 -0.15048332428E+03  0.15430405131E+03  0.00000000000E+00 0. -1.
        -13    1    4    4    0    0 -0.65626643662E+02  0.34882169931E+02 -0.42749500413E+03  0.43390736418E+03  0.00000000000E+00 0. -1.
         13    1    4    4    0    0 -0.69060258114E+02 -0.18000255974E+02 -0.14533107578E+03  0.16190877077E+03  0.00000000000E+00 0.  1.
         21    1    1    2  503  502  0.16265169502E+01 -0.45144582888E+02 -0.14375044573E+03  0.15068135110E+03  0.00000000000E+00 0.  1.
          1    1    1    2  501    0  0.13960230859E+03  0.39475297030E+02 -0.60579797819E+03  0.62292719801E+03  0.00000000000E+00 0. -1.
<scales pt_clust_5="13000.00000" pt_clust_6="13000.00000" pt_clust_7="13000.00000" pt_clust_8="13000.00000" pt_clust_9="45.17387" pt_clust_10="138.36480"></scales>
<clustering>
<clus scale="   45.174">  1  9  2 -1</clus>
<clus scale="   80.417">  5  6 -1 -1</clus>
<clus scale="   82.758">  1  5  2 -1</clus>
<clus scale="   91.878">  7  8 -1 -1</clus>
<clus scale="  138.365">  2 10  1 -1</clus>
<clus scale="  138.365">  2  5  1 -1</clus>
</clustering>
</event>
<event>
10    4  0.2977685E-005  0.2027704E+03  0.7546771E-02  0.1149195E+00
          2   -1    0    0  503    0 -0.00000000000E+00  0.00000000000E+00  0.16721164946E+03  0.16721164946E+03  0.00000000000E+00 0. -1.
         21   -1    0    0  501  502  0.00000000000E+00 -0.00000000000E+00 -0.67204968785E+03  0.67204968785E+03  0.00000000000E+00 0. -1.
         23    2    1    2    0    0  0.15479663227E+03 -0.11666303914E+03 -0.69211914755E+02  0.22824118693E+03  0.98648305629E+02 0.  0.
         24    2    1    2    0    0 -0.10588976417E+03  0.13158121237E+03 -0.49184182504E+03  0.52616000795E+03  0.80060698866E+02 0.  0.
        -13    1    4    4    0    0 -0.90521647211E+02  0.62351270276E+02 -0.23048353160E+03  0.25535173361E+03  0.00000000000E+00 0.  1.
         14    1    4    4    0    0 -0.15368116958E+02  0.69229942091E+02 -0.26135829344E+03  0.27080827434E+03  0.00000000000E+00 0. -1.
        -13    1    3    3    0    0  0.10359864228E+03 -0.54397844140E+02 -0.86851678946E+02  0.14572240138E+03  0.00000000000E+00 0.  1.
         13    1    3    3    0    0  0.51197989991E+02 -0.62265194997E+02  0.17639764191E+02  0.82518785545E+02  0.00000000000E+00 0. -1.
         21    1    1    2  503  502 -0.23924090099E+02  0.11329320797E+02  0.16968190441E+02  0.31442568019E+02  0.00000000000E+00 0.  1.
          1    1    1    2  501    0 -0.24982777999E+02 -0.26247494027E+02  0.39247510965E+02  0.53417574413E+02  0.00000000000E+00 0. -1.
<scales pt_clust_5="13000.00000" pt_clust_6="13000.00000" pt_clust_7="13000.00000" pt_clust_8="13000.00000" pt_clust_9="26.47103" pt_clust_10="39.76467"></scales>
<clustering>
<clus scale="   26.471">  1  9  2 -1</clus>
<clus scale="   39.765">  2 10  1 -1</clus>
<clus scale="   80.061">  5  6 -1 -1</clus>
<clus scale="   98.648">  7  8 -1 -1</clus>
<clus scale="  194.407">  2  5  1 -1</clus>
<clus scale="   39.765">  2  5  1 -1</clus>
</clustering>
</event>
<event>
10    4  0.2977685E-005  0.9192654E+02  0.7546771E-02  0.1304459E+00
         21   -1    0    0  501  502  0.00000000000E+00  0.00000000000E+00  0.14994866830E+03  0.14994866830E+03  0.00000000000E+00 0. -1.
          2   -1    0    0  503    0 -0.00000000000E+00 -0.00000000000E+00 -0.72312884701E+03  0.72312884701E+03  0.00000000000E+00 0. -1.
         24    2    1    2    0    0 -0.73008831486E+01 -0.19016008270E+02 -0.52421114975E+03  0.53085897809E+03  0.81234313128E+02 0.  0.
         23    2    1    2    0    0  0.11012690110E+02  0.52497246975E+02  0.39392229040E+02  0.11293037596E+03  0.91237502278E+02 0.  0.
        -13    1    3    3    0    0 -0.14082680813E+01 -0.39434893484E+02 -0.12495423725E+03  0.13103684768E+03  0.00000000000E+00 0.  1.
         14    1    3    3    0    0 -0.58926150672E+01  0.20418885214E+02 -0.39925691250E+03  0.39982213040E+03  0.00000000000E+00 0. -1.
        -11    1    4    4    0    0  0.47199995538E+02  0.50754407202E+02  0.29858377305E+02  0.75467689275E+02  0.00000000000E+00 0. -1.
         11    1    4    4    0    0 -0.36187305428E+02  0.17428397735E+01  0.95338517347E+01  0.37462686683E+02  0.00000000000E+00 0.  1.
         21    1    1    2  503  502  0.17529157134E+01  0.36816298585E+02 -0.13814315860E+03  0.14297567914E+03  0.00000000000E+00 0. -1.
          1    1    1    2  501    0 -0.54647226748E+01 -0.70297537290E+02  0.49781900602E+02  0.86312482125E+02  0.00000000000E+00 0. -1.
<scales pt_clust_5="13000.00000" pt_clust_6="13000.00000" pt_clust_7="13000.00000" pt_clust_8="13000.00000" pt_clust_9="36.85801" pt_clust_10="69.35454"></scales>
<clustering>
<clus scale="   36.858">  2  9  1 -1</clus>
<clus scale="   69.355">  1 10  2 -1</clus>
<clus scale="   81.234">  5  6 -1 -1</clus>
<clus scale="   82.007">  2  5  1 -1</clus>
<clus scale="   91.238">  7  8 -1 -1</clus>
<clus scale="   69.355">  1  5  2 -1</clus>
</clustering>
</event>
<event>
10    4  0.2977685E-005  0.1904779E+03  0.7546771E-02  0.1158329E+00
         21   -1    0    0  503  502  0.00000000000E+00  0.00000000000E+00  0.76215940313E+03  0.76215940313E+03  0.00000000000E+00 0.  1.
         -1   -1    0    0    0  501 -0.00000000000E+00 -0.00000000000E+00 -0.17597102124E+03  0.17597102124E+03  0.00000000000E+00 0.  1.
         23    2    1    2    0    0 -0.51837128010E+02  0.18139858665E+03  0.20820954481E+02  0.21040402382E+03  0.90795407449E+02 0.  0.
         24    2    1    2    0    0  0.85036065314E+02 -0.10739267798E+03  0.17436892331E+03  0.23856225876E+03  0.87994944179E+02 0.  0.
        -13    1    4    4    0    0  0.33330845278E+02  0.97621344531E+01  0.35584898474E+02  0.49724536352E+02  0.00000000000E+00 0.  1.
         14    1    4    4    0    0  0.51705220036E+02 -0.11715481243E+03  0.13878402484E+03  0.18883772241E+03  0.00000000000E+00 0. -1.
        -13    1    3    3    0    0 -0.67210589317E+02  0.11633972413E+03 -0.13898058601E+02  0.13507535215E+03  0.00000000000E+00 0.  1.
         13    1    3    3    0    0  0.15373461306E+02  0.65058862526E+02  0.34719013082E+02  0.75328671667E+02  0.00000000000E+00 0. -1.
         21    1    1    2  503  501 -0.10480429832E+03 -0.77338360682E+02  0.48091949379E+02  0.13884523245E+03  0.00000000000E+00 0.  1.
         -2    1    1    2    0  502  0.71605361021E+02  0.33324520036E+01  0.34290655472E+03  0.35031890933E+03  0.00000000000E+00 0.  1.
<scales pt_clust_5="13000.00000" pt_clust_6="13000.00000" pt_clust_7="13000.00000" pt_clust_8="13000.00000" pt_clust_9="117.18877" pt_clust_10="71.68286"></scales>
<clustering>
<clus scale="   71.683">  1 10  2 -1</clus>
<clus scale="   87.995">  5  6 -1 -1</clus>
<clus scale="   90.795">  7  8 -1 -1</clus>
<clus scale="  117.189">  1  9  2 -1</clus>
<clus scale="  189.159">  1  5  2 -1</clus>
<clus scale="   71.683">  1  5  2 -1</clus>
</clustering>
</event>
<event>
10    4  0.2977685E-005  0.1435696E+03  0.7546771E-02  0.1211914E+00
         21   -1    0    0  501  502  0.00000000000E+00  0.00000000000E+00  0.14682171056E+03  0.14682171056E+03  0.00000000000E+00 0. -1.
          4   -1    0    0  503    0 -0.00000000000E+00 -0.00000000000E+00 -0.53495699588E+03  0.53495699588E+03  0.00000000000E+00 0. -1.
         23    2    1    2    0    0 -0.11870045130E+03  0.55843530392E+02 -0.34272757380E+03  0.37839780749E+03  0.92273581521E+02 0.  0.
         24    2    1    2    0    0  0.86772866058E+02  0.24319321007E+02 -0.51008375019E+02  0.12853832992E+03  0.76153058241E+02 0.  0.
        -13    1    4    4    0    0  0.35759146375E+02 -0.25545241227E+02 -0.33019682556E+02  0.54968857864E+02  0.00000000000E+00 0.  1.
         14    1    4    4    0    0  0.51013719683E+02  0.49864562234E+02 -0.17988692463E+02  0.73569472060E+02  0.00000000000E+00 0. -1.
        -13    1    3    3    0    0 -0.15920172980E+02 -0.15087937583E+02 -0.12273175839E+02  0.25134212011E+02  0.00000000000E+00 0.  1.
         13    1    3    3    0    0 -0.10278027832E+03  0.70931467975E+02 -0.33045439796E+03  0.35326359548E+03  0.00000000000E+00 0. -1.
         21    1    1    2  503  502 -0.85369025553E+01 -0.53553720593E+02 -0.67852360780E+02  0.86860938045E+02  0.00000000000E+00 0. -1.
          3    1    1    2  501    0  0.40464487800E+02 -0.26609130806E+02  0.73453024277E+02  0.87981630984E+02  0.00000000000E+00 0. -1.
<scales pt_clust_5="13000.00000" pt_clust_6="13000.00000" pt_clust_7="13000.00000" pt_clust_8="13000.00000" pt_clust_9="57.44389" pt_clust_10="48.42954"></scales>
<clustering>
<clus scale="   48.430">  1 10  2 -1</clus>
<clus scale="   57.444">  2  9  1 -1</clus>
<clus scale="   76.153">  5  6 -1 -1</clus>
<clus scale="   92.274">  7  8 -1 -1</clus>
<clus scale="  133.780">  1  5  2 -1</clus>
<clus scale="   48.430">  1  5  2 -1</clus>
</clustering>
</event>
<event>
10    4  0.2977685E-005  0.2100028E+03  0.7546771E-02  0.1163324E+00
         -1   -1    0    0    0  501 -0.00000000000E+00  0.00000000000E+00  0.62034653743E+03  0.62034653743E+03  0.00000000000E+00 0.  1.
         21   -1    0    0  503  502  0.00000000000E+00 -0.00000000000E+00 -0.15775112044E+03  0.15775112044E+03  0.00000000000E+00 0.  1.
         24    2    1    2    0    0  0.82238827793E+02  0.65676298119E+02  0.15795981217E+03  0.20591370721E+03  0.79828263314E+02 0.  0.
         23    2    1    2    0    0  0.16105704031E+03 -0.86517210312E+02  0.17594743409E+03  0.27006510986E+03  0.92482788049E+02 0.  0.
        -11    1    3    3    0    0  0.69315408134E+02  0.52139069427E+02  0.16460052869E+03  0.18605494460E+03  0.00000000000E+00 0.  1.
         12    1    3    3    0    0  0.12923419659E+02  0.13537228693E+02 -0.66407165200E+01  0.19858762607E+02  0.00000000000E+00 0. -1.
        -13    1    4    4    0    0  0.69998728188E+02 -0.67237640505E+02  0.13985455076E+03  0.17023518325E+03  0.00000000000E+00 0. -1.
         13    1    4    4    0    0  0.91058312127E+02 -0.19279569806E+02  0.36092883331E+02  0.99829926607E+02  0.00000000000E+00 0.  1.
         21    1    1    2  503  501 -0.44819611071E+02  0.13855939868E+02  0.87516211642E+02  0.99296887697E+02  0.00000000000E+00 0.  1.
         -2    1    1    2    0  502 -0.19847625704E+03  0.69849723238E+01  0.41171959082E+02  0.20282195310E+03  0.00000000000E+00 0.  1.
<scales pt_clust_5="13000.00000" pt_clust_6="13000.00000" pt_clust_7="13000.00000" pt_clust_8="13000.00000" pt_clust_9="46.91252" pt_clust_10="188.54202"></scales>
<clustering>
<clus scale="   46.913">  1  9  2 -1</clus>
<clus scale="   79.828">  5  6 -1 -1</clus>
<clus scale="   92.483">  7  8 -1 -1</clus>
<clus scale="  125.677">  1  5  2 -1</clus>
<clus scale="  188.542">  2 10  1 -1</clus>
<clus scale="  188.542">  2  5  1 -1</clus>
</clustering>
</event>
<event>
10    4  0.2977685E-005  0.1104063E+03  0.7546771E-02  0.1263798E+00
          2   -1    0    0  503    0 -0.00000000000E+00  0.00000000000E+00  0.16284597650E+03  0.16284597650E+03  0.00000000000E+00 0. -1.
         21   -1    0    0  501  502  0.00000000000E+00 -0.00000000000E+00 -0.59890400099E+03  0.59890400099E+03  0.00000000000E+00 0.  1.
         24    2    1    2    0    0 -0.16414618247E+02  0.43014032551E+02 -0.25315146420E+02  0.95728151744E+02  0.80021095404E+02 0.  0.
         23    2    1    2    0    0  0.41097036981E+02 -0.62214463423E+02 -0.31735451487E+03  0.33828504843E+03  0.90350871468E+02 0.  0.
        -13    1    3    3    0    0 -0.44647948262E+02  0.24248090993E+02  0.39252074788E+01  0.50958968343E+02  0.00000000000E+00 0.  1.
         14    1    3    3    0    0  0.28233330015E+02  0.18765941557E+02 -0.29240353899E+02  0.44769183401E+02  0.00000000000E+00 0. -1.
        -13    1    4    4    0    0  0.20621510971E+02 -0.83799221829E+02 -0.21436051105E+03  0.23108004023E+03  0.00000000000E+00 0.  1.
         13    1    4    4    0    0  0.20475526010E+02  0.21584758406E+02 -0.10299400382E+03  0.10720500820E+03  0.00000000000E+00 0. -1.
         21    1    1    2  503  502  0.41972818008E+01  0.24538587337E+02  0.11480955888E+03  0.11747763299E+03  0.00000000000E+00 0. -1.
          1    1    1    2  501    0 -0.28879700535E+02 -0.53381564644E+01 -0.20819792207E+03  0.21025914433E+03  0.00000000000E+00 0. -1.
<scales pt_clust_5="13000.00000" pt_clust_6="13000.00000" pt_clust_7="13000.00000" pt_clust_8="13000.00000" pt_clust_9="24.89497" pt_clust_10="29.18396"></scales>
<clustering>
<clus scale="   24.895">  1  9  2 -1</clus>
<clus scale="   29.184">  2 10  1 -1</clus>
<clus scale="   80.021">  5  6 -1 -1</clus>
<clus scale="   90.351">  7  8 -1 -1</clus>
<clus scale="  102.126">  1  5  2 -1</clus>
<clus scale="   29.184">  2  5  1 -1</clus>
</clustering>
</event>
<event>
10    4  0.2977685E-005  0.1041363E+03  0.7546771E-02  0.1274007E+00
         21   -1    0    0  501  502  0.00000000000E+00  0.00000000000E+00  0.65803250915E+02  0.65803250915E+02  0.00000000000E+00 0. -1.
          2   -1    0    0  503    0 -0.00000000000E+00 -0.00000000000E+00 -0.42835986191E+03  0.42835986191E+03  0.00000000000E+00 0. -1.
         24    2    1    2    0    0 -0.46132241182E+02  0.13128516780E+02 -0.20038333223E+03  0.22206414304E+03  0.82815832790E+02 0.  0.
         23    2    1    2    0    0  0.37287299206E+02 -0.44166022063E+02 -0.70258620428E+02  0.12652009221E+03  0.87920872385E+02 0.  0.
        -13    1    3    3    0    0 -0.17475053476E+02  0.40800147627E+02 -0.51711425847E+02  0.68147641952E+02  0.00000000000E+00 0.  1.
         14    1    3    3    0    0 -0.28657187706E+02 -0.27671630847E+02 -0.14867190638E+03  0.15391650109E+03  0.00000000000E+00 0. -1.
        -13    1    4    4    0    0 -0.21116503937E+02  0.30170612821E+00 -0.43560902130E+02  0.48410225774E+02  0.00000000000E+00 0. -1.
         13    1    4    4    0    0  0.58403803143E+02 -0.44467728191E+02 -0.26697718298E+02  0.78109866434E+02  0.00000000000E+00 0.  1.
         21    1    1    2  503  502 -0.10769432496E+02  0.19728378682E+02 -0.11265428008E+03  0.11487461174E+03  0.00000000000E+00 0. -1.
          1    1    1    2  501    0  0.19614374472E+02  0.11309126600E+02  0.20739621743E+02  0.30704265834E+02  0.00000000000E+00 0. -1.
<scales pt_clust_5="13000.00000" pt_clust_6="13000.00000" pt_clust_7="13000.00000" pt_clust_8="13000.00000" pt_clust_9="22.47642" pt_clust_10="22.65222"></scales>
<clustering>
<clus scale="   22.476">  2  9  1 -1</clus>
<clus scale="   22.652">  1 10  2 -1</clus>
<clus scale="   82.816">  5  6 -1 -1</clus>
<clus scale="   87.921">  7  8 -1 -1</clus>
<clus scale="   99.864">  2  5  1 -1</clus>
<clus scale="   22.652">  1  5  2 -1</clus>
</clustering>
</event>
<event>
10    4  0.2977685E-005  0.9258442E+02  0.7546771E-02  0.1301452E+00
         21   -1    0    0  503  502  0.00000000000E+00  0.00000000000E+00  0.85823492711E+02  0.85823492711E+02  0.00000000000E+00 0.  1.
         -1   -1    0    0    0  501 -0.00000000000E+00 -0.00000000000E+00 -0.22258045244E+03  0.22258045244E+03  0.00000000000E+00 0.  1.
         23    2    1    2    0    0  0.20011926433E+01  0.10083336925E+00 -0.42049769666E+02  0.98858255479E+02  0.89446948568E+02 0.  0.
         24    2    1    2    0    0  0.57918918407E+01 -0.42674338232E+02 -0.17453579107E+02  0.93719993999E+02  0.81388971592E+02 0.  0.
        -13    1    4    4    0    0  0.18751997428E+02 -0.59228095628E+02 -0.30259655740E+02  0.69103194461E+02  0.00000000000E+00 0.  1.
         14    1    4    4    0    0 -0.12960105588E+02  0.16553757395E+02  0.12806076633E+02  0.24616799538E+02  0.00000000000E+00 0. -1.
        -13    1    3    3    0    0  0.10713559912E+02  0.36897167692E+02  0.47249203403E+01  0.38710544067E+02  0.00000000000E+00 0.  1.
         13    1    3    3    0    0 -0.87123672690E+01 -0.36796334323E+02 -0.46774690006E+02  0.60147711413E+02  0.00000000000E+00 0. -1.
         21    1    1    2  503  501 -0.34891725204E+02  0.47310079918E+02 -0.53160798939E+02  0.79257470900E+02  0.00000000000E+00 0.  1.
         -2    1    1    2    0  502  0.27098640720E+02 -0.47365750546E+01 -0.24092812016E+02  0.36568224772E+02  0.00000000000E+00 0.  1.
<scales pt_clust_5="13000.00000" pt_clust_6="13000.00000" pt_clust_7="13000.00000" pt_clust_8="13000.00000" pt_clust_9="55.61023" pt_clust_10="27.50949"></scales>
<clustering>
<clus scale="   27.509">  1 10  2 -1</clus>
<clus scale="   55.610">  2  9  1 -1</clus>
<clus scale="   81.389">  5  6 -1 -1</clus>
<clus scale="   84.825">  1  5  2 -1</clus>
<clus scale="   89.447">  7  8 -1 -1</clus>
<clus scale="   27.509">  1  5  2 -1</clus>
</clustering>
</event>
<event>
10    4  0.2977685E-005  0.1173497E+03  0.7546771E-02  0.1259877E+00
         21   -1    0    0  501  502  0.00000000000E+00  0.00000000000E+00  0.45240722736E+02  0.45240722736E+02  0.00000000000E+00 0. -1.
          2   -1    0    0  503    0 -0.00000000000E+00 -0.00000000000E+00 -0.14066780783E+04  0.14066780783E+04  0.00000000000E+00 0. -1.
         23    2    1    2    0    0  0.41050479205E+02  0.25616544670E+02 -0.45631088269E+02  0.10341151438E+03  0.79185831343E+02 0.  0.
         24    2    1    2    0    0  0.43569413163E+02  0.75000347906E+02 -0.63441656647E+03  0.64522661573E+03  0.79433367574E+02 0.  0.
        -11    1    4    4    0    0 -0.20303338902E+02  0.38343747012E+02 -0.20502290649E+03  0.20956350038E+03  0.00000000000E+00 0.  1.
         12    1    4    4    0    0  0.63872752065E+02  0.36656600894E+02 -0.42939365998E+03  0.43566311535E+03  0.00000000000E+00 0. -1.
        -13    1    3    3    0    0 -0.35730502387E+01  0.36545104946E+02 -0.44178780624E+02  0.57446288313E+02  0.00000000000E+00 0.  1.
         13    1    3    3    0    0  0.44623529443E+02 -0.10928560276E+02 -0.14523076456E+01  0.45965226065E+02  0.00000000000E+00 0. -1.
         21    1    1    2  503  502  0.89221290394E+01 -0.74832554842E+02 -0.24993465394E+03  0.26104951042E+03  0.00000000000E+00 0. -1.
          1    1    1    2  501    0 -0.93542021407E+02 -0.25784337734E+02 -0.43145504685E+03  0.44223116047E+03  0.00000000000E+00 0. -1.
<scales pt_clust_5="13000.00000" pt_clust_6="13000.00000" pt_clust_7="13000.00000" pt_clust_8="13000.00000" pt_clust_9="75.36256" pt_clust_10="86.37878"></scales>
<clustering>
<clus scale="   75.363">  2  9  1 -1</clus>
<clus scale="   79.186">  7  8 -1 -1</clus>
<clus scale="   79.433">  5  6 -1 -1</clus>
<clus scale="   91.841">  2  7  1 -1</clus>
<clus scale="   86.379">  1 10  2 -1</clus>
<clus scale="   86.379">  1  5  2 -1</clus>
</clustering>
</event>
<event>
10    4  0.2977685E-005  0.9910635E+02  0.7546771E-02  0.1286354E+00
          2   -1    0    0  503    0 -0.00000000000E+00  0.00000000000E+00  0.29357864262E+03  0.29357864262E+03  0.00000000000E+00 0. -1.
         21   -1    0    0  501  502  0.00000000000E+00 -0.00000000000E+00 -0.27615498459E+03  0.27615498459E+03  0.00000000000E+00 0. -1.
         24    2    1    2    0    0 -0.43180365268E+02 -0.78667519786E+02  0.12235128227E+03  0.17267852665E+03  0.82431272459E+02 0.  0.
         23    2    1    2    0    0  0.17910086869E+02 -0.84386195371E+02 -0.21795738540E+02  0.12705710389E+03  0.90700894431E+02 0.  0.
        -11    1    3    3    0    0 -0.27421414299E+02  0.52731822565E+01  0.62303331668E+02  0.68274779752E+02  0.00000000000E+00 0.  1.
         12    1    3    3    0    0 -0.15758950969E+02 -0.83940702043E+02  0.60047950603E+02  0.10440374690E+03  0.00000000000E+00 0. -1.
        -13    1    4    4    0    0  0.14166397855E+02 -0.40491559385E+02  0.34869086182E+02  0.55282062016E+02  0.00000000000E+00 0.  1.
         13    1    4    4    0    0  0.37436890140E+01 -0.43894635986E+02 -0.56664824722E+02  0.71775041878E+02  0.00000000000E+00 0. -1.
         21    1    1    2  503  502 -0.12925003319E+02  0.84447989188E+02  0.58522386443E+02  0.10355379425E+03  0.00000000000E+00 0. -1.
          1    1    1    2  501    0  0.38195281718E+02  0.78605725969E+02 -0.14165427215E+03  0.16644420242E+03  0.00000000000E+00 0. -1.
<scales pt_clust_5="13000.00000" pt_clust_6="13000.00000" pt_clust_7="13000.00000" pt_clust_8="13000.00000" pt_clust_9="85.43137" pt_clust_10="91.53810"></scales>
<clustering>
<clus scale="   82.431">  5  6 -1 -1</clus>
<clus scale="   85.431">  1  9  2 -1</clus>
<clus scale="   90.701">  7  8 -1 -1</clus>
<clus scale="   91.538">  2 10  1 -1</clus>
<clus scale="   91.599">  1  5  2 -1</clus>
<clus scale="   91.538">  2  5  1 -1</clus>
</clustering>
</event>
<event>
10    4  0.2977685E-005  0.1462978E+03  0.7546771E-02  0.1213201E+00
         -3   -1    0    0    0  501 -0.00000000000E+00  0.00000000000E+00  0.12648976908E+04  0.12648976908E+04  0.00000000000E+00 0.  1.
         21   -1    0    0  503  502  0.00000000000E+00 -0.00000000000E+00 -0.75025961828E+02  0.75025961828E+02  0.00000000000E+00 0. -1.
         24    2    1    2    0    0  0.75539943559E+02 -0.38609147302E+02  0.38584664541E+03  0.40307516001E+03  0.79968753342E+02 0.  0.
         23    2    1    2    0    0  0.40611059042E+02 -0.94834477592E+02  0.46272172138E+02  0.14600563049E+03  0.92377995021E+02 0.  0.
        -11    1    3    3    0    0  0.74196529848E+02 -0.59629390737E+02  0.32698702812E+03  0.34056028224E+03  0.00000000000E+00 0.  1.
         12    1    3    3    0    0  0.13434137112E+01  0.21020243434E+02  0.58859617297E+02  0.62514877772E+02  0.00000000000E+00 0. -1.
        -11    1    4    4    0    0  0.10486925963E+02 -0.10056215289E+03  0.53659872433E+02  0.11446442294E+03  0.00000000000E+00 0. -1.
         11    1    4    4    0    0  0.30124133079E+02  0.57276752967E+01 -0.73877002951E+01  0.31541207550E+02  0.00000000000E+00 0.  1.
         21    1    1    2  503  501  0.28801670154E+02  0.37103081727E+01  0.14761560631E+03  0.15044490625E+03  0.00000000000E+00 0. -1.
         -4    1    1    2    0  502 -0.14495267275E+03  0.12973331672E+03  0.61013730515E+03  0.64039795592E+03  0.00000000000E+00 0.  1.
<scales pt_clust_5="13000.00000" pt_clust_6="13000.00000" pt_clust_7="13000.00000" pt_clust_8="13000.00000" pt_clust_9="29.03967" pt_clust_10="113.44320"></scales>
<clustering>
<clus scale="   29.040">  1  9  2 -1</clus>
<clus scale="   79.969">  5  6 -1 -1</clus>
<clus scale="   92.378">  7  8 -1 -1</clus>
<clus scale="  123.021">  1  5  2 -1</clus>
<clus scale="  113.443">  2 10  1 -1</clus>
<clus scale="  113.443">  2  5  1 -1</clus>
</clustering>
</event>
<event>
10    4  0.2977685E-005  0.2539199E+03  0.7546771E-02  0.1141537E+00
         21   -1    0    0  503  502  0.00000000000E+00  0.00000000000E+00  0.47270756338E+03  0.47270756338E+03  0.00000000000E+00 0.  1.
          2   -1    0    0  502    0 -0.00000000000E+00 -0.00000000000E+00 -0.27954318084E+03  0.27954318084E+03  0.00000000000E+00 0. -1.
         23    2    1    2    0    0  0.91773950726E+01  0.75030313986E+02  0.88254237162E+02  0.14805310358E+03  0.91744964465E+02 0.  0.
         24    2    1    2    0    0  0.22071183128E+03  0.46960637428E+02  0.19678628225E+03  0.30934860783E+03  0.77799141086E+02 0.  0.
        -13    1    4    4    0    0  0.18004283048E+03  0.14635028747E+02  0.17934718834E+03  0.25454865711E+03  0.00000000000E+00 0.  1.
         14    1    4    4    0    0  0.40669000801E+02  0.32325608681E+02  0.17439093912E+02  0.54799950723E+02  0.00000000000E+00 0. -1.
        -13    1    3    3    0    0 -0.19659907103E+02  0.78610398380E+02  0.87110331842E+02  0.11897191515E+03  0.00000000000E+00 0.  1.
         13    1    3    3    0    0  0.28837302175E+02 -0.35800843940E+01  0.11439053203E+01  0.29081188428E+02  0.00000000000E+00 0. -1.
         21    1    1    2  503  501 -0.67486934143E+02 -0.70146778142E+02 -0.76266069958E+02  0.12365908859E+03  0.00000000000E+00 0. -1.
          1    1    1    2  501    0 -0.16240229221E+03 -0.51844173272E+02 -0.15610066914E+02  0.17118994423E+03  0.00000000000E+00 0. -1.
<scales pt_clust_5="13000.00000" pt_clust_6="13000.00000" pt_clust_7="13000.00000" pt_clust_8="13000.00000" pt_clust_9="78.39661" pt_clust_10="78.39661"></scales>
<clustering>
<clus scale="   77.799">  5  6 -1 -1</clus>
<clus scale="   78.397">  9 10 -1 -1</clus>
<clus scale="   91.745">  7  8 -1 -1</clus>
<clus scale="  118.874">  2  7  1 -1</clus>
<clus scale="  244.467">  2  5  1 -1</clus>
<clus scale="  253.920">  1  5  2 -1</clus>
</clustering>
</event>
<event>
10    4  0.2977685E-005  0.3136706E+03  0.7546771E-02  0.1078600E+00
          2   -1    0    0  502    0 -0.00000000000E+00  0.00000000000E+00  0.15682407439E+04  0.15682407439E+04  0.00000000000E+00 0. -1.
         21   -1    0    0  503  502  0.00000000000E+00 -0.00000000000E+00 -0.55117035805E+02  0.55117035805E+02  0.00000000000E+00 0. -1.
         24    2    1    2    0    0  0.29681518974E+01 -0.11447832819E+03  0.42601020579E+03  0.44869949017E+03  0.82051444190E+02 0.  0.
         23    2    1    2    0    0 -0.91165683647E+02 -0.11445237062E+03  0.57109154630E+03  0.59657613444E+03  0.91361933576E+02 0.  0.
        -11    1    3    3    0    0 -0.26597311864E+02 -0.87218378740E+01  0.12994699218E+03  0.13292745477E+03  0.00000000000E+00 0.  1.
         12    1    3    3    0    0  0.29565463761E+02 -0.10575649031E+03  0.29606321361E+03  0.31577203540E+03  0.00000000000E+00 0. -1.
        -11    1    4    4    0    0 -0.30491481881E+02 -0.64734962825E+02  0.12843882536E+03  0.14702679259E+03  0.00000000000E+00 0.  1.
         11    1    4    4    0    0 -0.60674201766E+02 -0.49717407790E+02  0.44265272094E+03  0.44954934185E+03  0.00000000000E+00 0. -1.
         21    1    1    2  503  501 -0.14404672705E+02  0.32040373614E+02  0.10795367788E+03  0.11352566540E+03  0.00000000000E+00 0. -1.
          1    1    1    2  501    0  0.10260220445E+03  0.19689032519E+03  0.40806827816E+03  0.46455648973E+03  0.00000000000E+00 0. -1.
<scales pt_clust_5="13000.00000" pt_clust_6="13000.00000" pt_clust_7="13000.00000" pt_clust_8="13000.00000" pt_clust_9="34.93253" pt_clust_10="260.57690"></scales>
<clustering>
<clus scale="   34.933">  9 10 -1 -1</clus>
<clus scale="   82.051">  5  6 -1 -1</clus>
<clus scale="   91.362">  7  8 -1 -1</clus>
<clus scale="  120.850">  5  7 -1 -1</clus>
<clus scale="  260.577">  2  9  1 -1</clus>
<clus scale="  260.577">  2  5  1 -1</clus>
</clustering>
</event>
<event>
10    4  0.2977685E-005  0.2217020E+03  0.7546771E-02  0.1158894E+00
         21   -1    0    0  503  502  0.00000000000E+00  0.00000000000E+00  0.53661218871E+03  0.53661218871E+03  0.00000000000E+00 0.  1.
         -1   -1    0    0    0  501 -0.00000000000E+00 -0.00000000000E+00 -0.67290010825E+03  0.67290010825E+03  0.00000000000E+00 0.  1.
         23    2    1    2    0    0  0.69162891757E+02  0.20018091751E+02 -0.29167588602E+03  0.31396084739E+03  0.91172153711E+02 0.  0.
         24    2    1    2    0    0 -0.53472960651E+02 -0.19017990425E+03 -0.89635225134E+02  0.23127005199E+03  0.80147425786E+02 0.  0.
        -11    1    4    4    0    0 -0.69085806218E+02 -0.15061200691E+03 -0.49875445914E+02  0.17304446062E+03  0.00000000000E+00 0.  1.
         12    1    4    4    0    0  0.15612845567E+02 -0.39567897348E+02 -0.39759779220E+02  0.58225591374E+02  0.00000000000E+00 0. -1.
        -13    1    3    3    0    0  0.64407020225E+02  0.52558696256E+02 -0.21620505003E+03  0.23163614671E+03  0.00000000000E+00 0.  1.
         13    1    3    3    0    0  0.47558715322E+01 -0.32540604506E+02 -0.75470835994E+02  0.82324700676E+02  0.00000000000E+00 0. -1.
         21    1    1    2  503  501  0.10091263548E+02 -0.38404430816E+02 -0.18310203170E+03  0.18735818082E+03  0.00000000000E+00 0. -1.
         -2    1    1    2    0  502 -0.25781194654E+02  0.20856624332E+03  0.42812522332E+03  0.47692321677E+03  0.00000000000E+00 0.  1.
<scales pt_clust_5="13000.00000" pt_clust_6="13000.00000" pt_clust_7="13000.00000" pt_clust_8="13000.00000" pt_clust_9="39.70811" pt_clust_10="206.70790"></scales>
<clustering>
<clus scale="   39.708">  2  9  1 -1</clus>
<clus scale="   80.147">  5  6 -1 -1</clus>
<clus scale="   91.172">  7  8 -1 -1</clus>
<clus scale="  118.392">  2  7  1 -1</clus>
<clus scale="  206.708">  1 10  2 -1</clus>
<clus scale="  206.708">  1  5  2 -1</clus>
</clustering>
</event>
<event>
10    4  0.2977685E-005  0.1535962E+03  0.7546771E-02  0.1201930E+00
         21   -1    0    0  501  502  0.00000000000E+00  0.00000000000E+00  0.17077474562E+03  0.17077474562E+03  0.00000000000E+00 0. -1.
          2   -1    0    0  503    0 -0.00000000000E+00 -0.00000000000E+00 -0.70753741024E+03  0.70753741024E+03  0.00000000000E+00 0. -1.
         23    2    1    2    0    0  0.20959488706E+02 -0.91546254399E+02 -0.22649314582E+03  0.26098979527E+03  0.89423214380E+02 0.  0.
         24    2    1    2    0    0  0.78267037370E+02  0.67420447753E+02 -0.22275723287E+03  0.25830031729E+03  0.80168717132E+02 0.  0.
        -13    1    4    4    0    0  0.22762282297E+02 -0.63592034002E+01 -0.11027404005E+03  0.11277821098E+03  0.00000000000E+00 0.  1.
         14    1    4    4    0    0  0.55504755073E+02  0.73779651153E+02 -0.11248319282E+03  0.14552210632E+03  0.00000000000E+00 0. -1.
        -11    1    3    3    0    0 -0.46729579391E+01 -0.10187877126E+03 -0.18128976209E+03  0.20800744796E+03  0.00000000000E+00 0. -1.
         11    1    3    3    0    0  0.25632446645E+02  0.10332516858E+02 -0.45203383726E+02  0.52982347304E+02  0.00000000000E+00 0.  1.
         21    1    1    2  503  502  0.38805562362E+02 -0.48258923996E+01 -0.18401930680E+03  0.18812832371E+03  0.00000000000E+00 0. -1.
          1    1    1    2  501    0 -0.13803208844E+03  0.28951699045E+02  0.96507020865E+02  0.17089371958E+03  0.00000000000E+00 0. -1.
<scales pt_clust_5="13000.00000" pt_clust_6="13000.00000" pt_clust_7="13000.00000" pt_clust_8="13000.00000" pt_clust_9="39.10449" pt_clust_10="131.01442"></scales>
<clustering>
<clus scale="   39.104">  2  9  1 -1</clus>
<clus scale="   80.169">  5  6 -1 -1</clus>
<clus scale="   89.423">  7  8 -1 -1</clus>
<clus scale="  135.366">  2  7  1 -1</clus>
<clus scale="  131.014">  1 10  2 -1</clus>
<clus scale="  131.014">  1  5  2 -1</clus>
</clustering>
</event>
<event>
10    4  0.2977685E-005  0.2739098E+03  0.7546771E-02  0.1099635E+00
         21   -1    0    0  501  502  0.00000000000E+00  0.00000000000E+00  0.21066641249E+03  0.21066641249E+03  0.00000000000E+00 0. -1.
          2   -1    0    0  503    0 -0.00000000000E+00 -0.00000000000E+00 -0.99594831218E+03  0.99594831218E+03  0.00000000000E+00 0. -1.
         24    2    1    2    0    0 -0.24236538305E+03  0.10169773505E+03 -0.70518480401E+03  0.75707167109E+03  0.82392348824E+02 0.  0.
         23    2    1    2    0    0  0.27473231442E+03 -0.76109810399E+02  0.30517145831E+02  0.30197580370E+03  0.94802647663E+02 0.  0.
        -13    1    3    3    0    0 -0.70577669187E+02  0.23736048009E+02 -0.11103509989E+03  0.13369143866E+03  0.00000000000E+00 0.  1.
         14    1    3    3    0    0 -0.17178771387E+03  0.77961687037E+02 -0.59414970412E+03  0.62338023243E+03  0.00000000000E+00 0. -1.
        -13    1    4    4    0    0  0.38245071635E+02  0.20847895577E+02  0.14399435802E+02  0.45876617200E+02  0.00000000000E+00 0.  1.
         13    1    4    4    0    0  0.23648724278E+03 -0.96957705975E+02  0.16117710029E+02  0.25609918650E+03  0.00000000000E+00 0. -1.
         21    1    1    2  503  502  0.22502275656E+02  0.16980821603E+02 -0.30052124314E+02  0.41204743511E+02  0.00000000000E+00 0. -1.
          1    1    1    2  501    0 -0.54869207019E+02 -0.42568746251E+02 -0.80562117193E+02  0.10636250638E+03  0.00000000000E+00 0. -1.
<scales pt_clust_5="13000.00000" pt_clust_6="13000.00000" pt_clust_7="13000.00000" pt_clust_8="13000.00000" pt_clust_9="28.19044" pt_clust_10="66.70254"></scales>
<clustering>
<clus scale="   28.190">  2  9  1 -1</clus>
<clus scale="   66.703">  1 10  2 -1</clus>
<clus scale="   82.392">  5  6 -1 -1</clus>
<clus scale="   94.803">  7  8 -1 -1</clus>
<clus scale="  269.866">  2  5  1 -1</clus>
<clus scale="   66.703">  1  5  2 -1</clus>
</clustering>
</event>
<event>
10    4  0.2977685E-005  0.1974099E+03  0.7546771E-02  0.1176243E+00
         21   -1    0    0  501  502  0.00000000000E+00  0.00000000000E+00  0.31547827806E+02  0.31547827806E+02  0.00000000000E+00 0.  1.
          2   -1    0    0  503    0 -0.00000000000E+00 -0.00000000000E+00 -0.27864641582E+04  0.27864641582E+04  0.00000000000E+00 0. -1.
         23    2    1    2    0    0  0.39380686886E+01 -0.69285210176E+02 -0.29929438570E+03  0.32036470850E+03  0.90777025741E+02 0.  0.
         24    2    1    2    0    0  0.39847105217E+02 -0.14981197569E+03 -0.91847109439E+03  0.93505888920E+03  0.81942389427E+02 0.  0.
        -11    1    4    4    0    0  0.55670592992E+02 -0.13548974671E+03 -0.67802787048E+03  0.69367029599E+03  0.00000000000E+00 0.  1.
         12    1    4    4    0    0 -0.15823487774E+02 -0.14322228980E+02 -0.24044322391E+03  0.24138859321E+03  0.00000000000E+00 0. -1.
        -11    1    3    3    0    0  0.40253551601E+02 -0.64800182584E+02 -0.22434347890E+03  0.23695866434E+03  0.00000000000E+00 0.  1.
         11    1    3    3    0    0 -0.36315482912E+02 -0.44850275921E+01 -0.74950906798E+02  0.83406044155E+02  0.00000000000E+00 0. -1.
         21    1    1    2  503  502  0.57657825595E+02  0.29174737360E+02 -0.30562451999E+03  0.31238107716E+03  0.00000000000E+00 0.  1.
          1    1    1    2  501    0 -0.10144299950E+03  0.18992244850E+03 -0.12315263303E+04  0.12502073111E+04  0.00000000000E+00 0. -1.
<scales pt_clust_5="13000.00000" pt_clust_6="13000.00000" pt_clust_7="13000.00000" pt_clust_8="13000.00000" pt_clust_9="64.61881" pt_clust_10="179.59992"></scales>
<clustering>
<clus scale="   64.619">  2  9  1 -1</clus>
<clus scale="   81.942">  5  6 -1 -1</clus>
<clus scale="   90.777">  7  8 -1 -1</clus>
<clus scale="  112.574">  2  7  1 -1</clus>
<clus scale="  179.600">  1 10  2 -1</clus>
<clus scale="  179.600">  1  5  2 -1</clus>
</clustering>
</event>
<event>
10    4  0.2977685E-005  0.2642543E+03  0.7546771E-02  0.1105093E+00
          2   -1    0    0  503    0 -0.00000000000E+00  0.00000000000E+00  0.23207220581E+04  0.23207220581E+04  0.00000000000E+00 0. -1.
         21   -1    0    0  501  502  0.00000000000E+00 -0.00000000000E+00 -0.65915648774E+02  0.65915648774E+02  0.00000000000E+00 0.  1.
         23    2    1    2    0    0  0.26983870685E+03 -0.56754198733E+02  0.12753737770E+04  0.13080318381E+04  0.91296503112E+02 0.  0.
         24    2    1    2    0    0 -0.20303995233E+03  0.11810918864E+03  0.42842521942E+03  0.49533527460E+03  0.81448529449E+02 0.  0.
        -13    1    4    4    0    0 -0.99253547636E+02  0.79053987610E+02  0.15523178541E+03  0.20049365795E+03  0.00000000000E+00 0.  1.
         14    1    4    4    0    0 -0.10378640469E+03  0.39055201028E+02  0.27319343401E+03  0.29484161666E+03  0.00000000000E+00 0. -1.
        -11    1    3    3    0    0  0.16198450719E+03 -0.41618076665E+01  0.57252126717E+03  0.59501000208E+03  0.00000000000E+00 0. -1.
         11    1    3    3    0    0  0.10785419966E+03 -0.52592391067E+02  0.70285250985E+03  0.71302183598E+03  0.00000000000E+00 0.  1.
         21    1    1    2  503  502 -0.67607462050E+02 -0.91207843758E+02  0.53941893507E+03  0.55123717872E+03  0.00000000000E+00 0.  1.
          1    1    1    2  501    0  0.80870752743E+00  0.29852853853E+02  0.11588477839E+02  0.32033415517E+02  0.00000000000E+00 0. -1.
<scales pt_clust_5="13000.00000" pt_clust_6="13000.00000" pt_clust_7="13000.00000" pt_clust_8="13000.00000" pt_clust_9="110.95174" pt_clust_10="29.86381"></scales>
<clustering>
<clus scale="   29.864">  2 10  1 -1</clus>
<clus scale="   81.449">  5  6 -1 -1</clus>
<clus scale="   91.297">  7  8 -1 -1</clus>
<clus scale="  110.952">  1  9  2 -1</clus>
<clus scale="  261.016">  2  5  1 -1</clus>
<clus scale="   29.864">  2  5  1 -1</clus>
</clustering>
</event>
<event>
10    4  0.2977685E-005  0.1101232E+03  0.7546771E-02  0.1265129E+00
         21   -1    0    0  501  502  0.00000000000E+00  0.00000000000E+00  0.18885774976E+03  0.18885774976E+03  0.00000000000E+00 0. -1.
          4   -1    0    0  503    0 -0.00000000000E+00 -0.00000000000E+00 -0.26937440387E+03  0.26937440387E+03  0.00000000000E+00 0. -1.
         23    2    1    2    0    0 -0.19371897948E+02 -0.37872595517E+02 -0.21402026636E+03  0.23649382249E+03  0.91186894567E+02 0.  0.
         24    2    1    2    0    0  0.13075677003E+02  0.48041115616E+02  0.12719753023E+03  0.15780168774E+03  0.79014168584E+02 0.  0.
        -11    1    4    4    0    0  0.15675690387E+02  0.52354839784E+02  0.33779639870E+02  0.64248117386E+02  0.00000000000E+00 0.  1.
         12    1    4    4    0    0 -0.26000133845E+01 -0.43137241679E+01  0.93417890363E+02  0.93553570352E+02  0.00000000000E+00 0. -1.
        -11    1    3    3    0    0  0.19002456545E+02 -0.53161777887E+02 -0.15032322076E+03  0.16057502509E+03  0.00000000000E+00 0. -1.
         11    1    3    3    0    0 -0.38374354493E+02  0.15289182369E+02 -0.63697045603E+02  0.75918797402E+02  0.00000000000E+00 0.  1.
         21    1    1    2  503  502 -0.20186609191E+02 -0.15344819833E+02 -0.15083135782E+02  0.29503621326E+02  0.00000000000E+00 0.  1.
          3    1    1    2  501    0  0.26482830137E+02  0.51762997338E+01  0.21389217803E+02  0.34433022075E+02  0.00000000000E+00 0. -1.
<scales pt_clust_5="13000.00000" pt_clust_6="13000.00000" pt_clust_7="13000.00000" pt_clust_8="13000.00000" pt_clust_9="25.35671" pt_clust_10="26.38497"></scales>
<clustering>
<clus scale="   25.357">  2  9  1 -1</clus>
<clus scale="   26.385">  1 10  2 -1</clus>
<clus scale="   79.014">  5  6 -1 -1</clus>
<clus scale="   91.187">  7  8 -1 -1</clus>
<clus scale="  100.276">  1  5  2 -1</clus>
<clus scale="   26.385">  1  5  2 -1</clus>
</clustering>
</event>
<event>
10    4  0.2977685E-005  0.1053589E+03  0.7546771E-02  0.1276440E+00
         21   -1    0    0  501  502  0.00000000000E+00  0.00000000000E+00  0.17884291536E+03  0.17884291536E+03  0.00000000000E+00 0.  1.
          2   -1    0    0  503    0 -0.00000000000E+00 -0.00000000000E+00 -0.47309113957E+03  0.47309113957E+03  0.00000000000E+00 0. -1.
         23    2    1    2    0    0  0.31669126271E+02  0.57662486695E+02 -0.28330679845E+03  0.30576606952E+03  0.94351742374E+02 0.  0.
         24    2    1    2    0    0 -0.57760116460E+02 -0.26905295463E+02  0.93170153915E+02  0.13788549349E+03  0.79193470424E+02 0.  0.
        -13    1    4    4    0    0 -0.25841618212E+02  0.24570077843E+02  0.57310267415E+02  0.67497738541E+02  0.00000000000E+00 0.  1.
         14    1    4    4    0    0 -0.31918498248E+02 -0.51475373306E+02  0.35859886500E+02  0.70387754952E+02  0.00000000000E+00 0. -1.
        -13    1    3    3    0    0  0.20357583718E+02 -0.23041335575E+02 -0.11067003767E+03  0.11486161934E+03  0.00000000000E+00 0. -1.
         13    1    3    3    0    0  0.11311542553E+02  0.80703822270E+02 -0.17263676078E+03  0.19090445018E+03  0.00000000000E+00 0.  1.
         21    1    1    2  503  502  0.83236482397E+00 -0.28023248227E+02 -0.15173644685E+03  0.15430471340E+03  0.00000000000E+00 0. -1.
          1    1    1    2  501    0  0.25258625365E+02 -0.27339430047E+01  0.47624867186E+02  0.53977778522E+02  0.00000000000E+00 0. -1.
<scales pt_clust_5="13000.00000" pt_clust_6="13000.00000" pt_clust_7="13000.00000" pt_clust_8="13000.00000" pt_clust_9="28.07167" pt_clust_10="25.40615"></scales>
<clustering>
<clus scale="   25.406">  1 10  2 -1</clus>
<clus scale="   28.072">  2  9  1 -1</clus>
<clus scale="   79.193">  5  6 -1 -1</clus>
<clus scale="   92.032">  1  5  2 -1</clus>
<clus scale="   94.352">  7  8 -1 -1</clus>
<clus scale="   25.406">  1  5  2 -1</clus>
</clustering>
</event>
<event>
10    4  0.2977685E-005  0.1665128E+03  0.7546771E-02  0.1210432E+00
          2   -1    0    0  503    0 -0.00000000000E+00  0.00000000000E+00  0.14145223563E+04  0.14145223563E+04  0.00000000000E+00 0. -1.
         21   -1    0    0  501  502  0.00000000000E+00 -0.00000000000E+00 -0.92632434063E+02  0.92632434063E+02  0.00000000000E+00 0. -1.
         24    2    1    2    0    0  0.29817366462E+02  0.19329457246E+02  0.25675965979E+02  0.92748160526E+02  0.81732874609E+02 0.  0.
         23    2    1    2    0    0 -0.15420761546E+03  0.80784956250E+02  0.94377235154E+03  0.96406779329E+03  0.91729279414E+02 0.  0.
        -11    1    3    3    0    0 -0.19948811420E+02 -0.11569524048E+02  0.25211971354E+02  0.34168003502E+02  0.00000000000E+00 0.  1.
         12    1    3    3    0    0  0.49766177881E+02  0.30898981294E+02  0.46399462452E+00  0.58580157024E+02  0.00000000000E+00 0. -1.
        -13    1    4    4    0    0  0.11920365894E+01  0.34331557156E+02  0.14800391745E+03  0.15193826492E+03  0.00000000000E+00 0.  1.
         13    1    4    4    0    0 -0.15539965205E+03  0.46453399094E+02  0.79576843409E+03  0.81212952837E+03  0.00000000000E+00 0. -1.
         21    1    1    2  503  502 -0.27589160179E+01 -0.53347206918E+02  0.30055531685E+03  0.30526551491E+03  0.00000000000E+00 0.  1.
          1    1    1    2  501    0  0.12714916502E+03 -0.46767206578E+02  0.51886287824E+02  0.14507332160E+03  0.00000000000E+00 0. -1.
<scales pt_clust_5="13000.00000" pt_clust_6="13000.00000" pt_clust_7="13000.00000" pt_clust_8="13000.00000" pt_clust_9="53.41850" pt_clust_10="138.96856"></scales>
<clustering>
<clus scale="   53.418">  1  9  2 -1</clus>
<clus scale="   81.733">  5  6 -1 -1</clus>
<clus scale="   88.501">  1  5  2 -1</clus>
<clus scale="   91.729">  7  8 -1 -1</clus>
<clus scale="  138.969">  2 10  1 -1</clus>
<clus scale="  138.969">  2  5  1 -1</clus>
</clustering>
</event>
<event>
10    4  0.2977685E-005  0.2484081E+03  0.7546771E-02  0.1153531E+00
          2   -1    0    0  503    0 -0.00000000000E+00  0.00000000000E+00  0.18610526218E+04  0.18610526218E+04  0.00000000000E+00 0. -1.
         21   -1    0    0  501  502  0.00000000000E+00 -0.00000000000E+00 -0.74956947494E+02  0.74956947494E+02  0.00000000000E+00 0. -1.
         23    2    1    2    0    0 -0.47626426596E+02 -0.24440456770E+03  0.44907286135E+03  0.52216841342E+03  0.94823773172E+02 0.  0.
         24    2    1    2    0    0 -0.22874253232E+02 -0.62382914991E+02  0.22714433698E+03  0.24934700053E+03  0.78514440119E+02 0.  0.
        -13    1    4    4    0    0 -0.19015135287E+02 -0.80460480317E+01  0.58693037571E+01  0.21465390411E+02  0.00000000000E+00 0.  1.
         14    1    4    4    0    0 -0.38591179451E+01 -0.54336866960E+02  0.22127503322E+03  0.22788161011E+03  0.00000000000E+00 0. -1.
        -11    1    3    3    0    0 -0.23932303071E+02 -0.15180988751E+03  0.18032481818E+03  0.23693044786E+03  0.00000000000E+00 0. -1.
         11    1    3    3    0    0 -0.23694123525E+02 -0.92594680194E+02  0.26874804317E+03  0.28523796556E+03  0.00000000000E+00 0.  1.
         21    1    1    2  503  502  0.28258065380E+02  0.22120876075E+03  0.96901646001E+03  0.99434638525E+03  0.00000000000E+00 0. -1.
          1    1    1    2  501    0  0.42242614448E+02  0.85578721946E+02  0.14086201601E+03  0.17014777013E+03  0.00000000000E+00 0. -1.
<scales pt_clust_5="13000.00000" pt_clust_6="13000.00000" pt_clust_7="13000.00000" pt_clust_8="13000.00000" pt_clust_9="229.59751" pt_clust_10="95.43666"></scales>
<clustering>
<clus scale="   78.514">  5  6 -1 -1</clus>
<clus scale="   94.824">  7  8 -1 -1</clus>
<clus scale="   95.437">  2 10  1 -1</clus>
<clus scale="   95.437">  2  5  1 -1</clus>
<clus scale="  229.598">  1  9  2 -1</clus>
<clus scale="   95.437">  2  5  1 -1</clus>
</clustering>
</event>
<event>
10    4  0.2977685E-005  0.1322426E+03  0.7546771E-02  0.1226224E+00
          2   -1    0    0  503    0 -0.00000000000E+00  0.00000000000E+00  0.49464052253E+03  0.49464052253E+03  0.00000000000E+00 0. -1.
         21   -1    0    0  501  502  0.00000000000E+00 -0.00000000000E+00 -0.10969994516E+03  0.10969994516E+03  0.00000000000E+00 0.  1.
         24    2    1    2    0    0 -0.18531935437E+02  0.89004169626E+02  0.66211601525E+02  0.13845335973E+03  0.80747642700E+02 0.  0.
         23    2    1    2    0    0 -0.39155396620E+02 -0.11753685838E+03  0.35589703127E+02  0.15675202938E+03  0.89199291385E+02 0.  0.
        -11    1    3    3    0    0 -0.24448931174E+02  0.10291142595E+03  0.52683803372E+02  0.11816977179E+03  0.00000000000E+00 0.  1.
         12    1    3    3    0    0  0.59169957371E+01 -0.13907256321E+02  0.13527798154E+02  0.20283587943E+02  0.00000000000E+00 0. -1.
        -11    1    4    4    0    0  0.11634527202E+02 -0.24139999273E+02  0.42468279993E+02  0.50216098949E+02  0.00000000000E+00 0. -1.
         11    1    4    4    0    0 -0.50789923822E+02 -0.93396859109E+02 -0.68785768657E+01  0.10653593043E+03  0.00000000000E+00 0.  1.
         21    1    1    2  503  502  0.45964142657E+02 -0.15008332073E+02  0.24603150087E+03  0.25073781498E+03  0.00000000000E+00 0. -1.
          1    1    1    2  501    0  0.11723189401E+02  0.43541020830E+02  0.37107771838E+02  0.58397263595E+02  0.00000000000E+00 0. -1.
<scales pt_clust_5="13000.00000" pt_clust_6="13000.00000" pt_clust_7="13000.00000" pt_clust_8="13000.00000" pt_clust_9="48.30790" pt_clust_10="45.09161"></scales>
<clustering>
<clus scale="   45.092">  2 10  1 -1</clus>
<clus scale="   48.308">  1  9  2 -1</clus>
<clus scale="   80.748">  5  6 -1 -1</clus>
<clus scale="   89.199">  7  8 -1 -1</clus>
<clus scale="  126.696">  1  5  2 -1</clus>
<clus scale="   45.092">  2  5  1 -1</clus>
</clustering>
</event>
<event>
10    4  0.2977685E-005  0.2934342E+03  0.7546771E-02  0.1110675E+00
          2   -1    0    0  502    0 -0.00000000000E+00  0.00000000000E+00  0.11079340627E+04  0.11079340627E+04  0.00000000000E+00 0. -1.
         21   -1    0    0  503  502  0.00000000000E+00 -0.00000000000E+00 -0.13383631021E+03  0.13383631021E+03  0.00000000000E+00 0. -1.
         24    2    1    2    0    0  0.59214438744E+01  0.14463849273E+03  0.17912390884E+03  0.24372480704E+03  0.79756189575E+02 0.  0.
         23    2    1    2    0    0  0.19295429179E+03 -0.26302232280E+03  0.33688155765E+03  0.47834706992E+03  0.94417341635E+02 0.  0.
        -11    1    3    3    0    0  0.42556244222E+02  0.69803125153E+02  0.82679590279E+02  0.11627306159E+03  0.00000000000E+00 0.  1.
         12    1    3    3    0    0 -0.36634800347E+02  0.74835367577E+02  0.96444318556E+02  0.12745174545E+03  0.00000000000E+00 0. -1.
        -11    1    4    4    0    0  0.86943601464E+01 -0.24820763983E+02  0.74226908425E+02  0.78748308918E+02  0.00000000000E+00 0.  1.
         11    1    4    4    0    0  0.18425993164E+03 -0.23820155882E+03  0.26265464923E+03  0.39959876100E+03  0.00000000000E+00 0. -1.
         21    1    1    2  503  501 -0.39064134853E+02 -0.10129355635E+02  0.74211697537E+02  0.84474768593E+02  0.00000000000E+00 0.  1.
          1    1    1    2  501    0 -0.15981160081E+03  0.12851318571E+03  0.38388058845E+03  0.43522372735E+03  0.00000000000E+00 0. -1.
<scales pt_clust_5="13000.00000" pt_clust_6="13000.00000" pt_clust_7="13000.00000" pt_clust_8="13000.00000" pt_clust_9="36.23406" pt_clust_10="289.58730"></scales>
<clustering>
<clus scale="   36.234">  9 10 -1 -1</clus>
<clus scale="   79.756">  5  6 -1 -1</clus>
<clus scale="   94.417">  7  8 -1 -1</clus>
<clus scale="  165.277">  1  5  2 -1</clus>
<clus scale="  289.587">  2  9  1 -1</clus>
<clus scale="  289.587">  2  5  1 -1</clus>
</clustering>
</event>
<event>
10    4  0.2977685E-005  0.1874031E+03  0.7546771E-02  0.1184846E+00
         21   -1    0    0  501  502  0.00000000000E+00  0.00000000000E+00  0.93232698645E+03  0.93232698645E+03  0.00000000000E+00 0. -1.
          4   -1    0    0  503    0 -0.00000000000E+00 -0.00000000000E+00 -0.11947705808E+03  0.11947705808E+03  0.00000000000E+00 0. -1.
         24    2    1    2    0    0  0.69023797041E+02 -0.35021962264E+02  0.31126831992E+03  0.33148811093E+03  0.83699332767E+02 0.  0.
         23    2    1    2    0    0  0.26014292731E+02  0.15456498161E+03  0.41187093288E+02  0.18375543941E+03  0.86617595737E+02 0.  0.
        -13    1    3    3    0    0  0.36176851216E+02 -0.57331511207E+02  0.13830748469E+03  0.15402800740E+03  0.00000000000E+00 0.  1.
         14    1    3    3    0    0  0.32846945825E+02  0.22309548943E+02  0.17296083523E+03  0.17746010353E+03  0.00000000000E+00 0. -1.
        -13    1    4    4    0    0 -0.31592646142E+02  0.52439927856E+02  0.21348679089E+02  0.64836775233E+02  0.00000000000E+00 0.  1.
         13    1    4    4    0    0  0.57606938873E+02  0.10212505376E+03  0.19838414199E+02  0.11891866417E+03  0.00000000000E+00 0. -1.
         21    1    1    2  503  502 -0.68121972702E+02  0.46728008021E+02  0.59756354629E+02  0.10195553843E+03  0.00000000000E+00 0. -1.
          3    1    1    2  501    0 -0.26916117071E+02 -0.16627102737E+03  0.40063816053E+03  0.43460495576E+03  0.00000000000E+00 0. -1.
<scales pt_clust_5="13000.00000" pt_clust_6="13000.00000" pt_clust_7="13000.00000" pt_clust_8="13000.00000" pt_clust_9="82.60817" pt_clust_10="166.18453"></scales>
<clustering>
<clus scale="   82.608">  2  9  1 -1</clus>
<clus scale="   83.699">  5  6 -1 -1</clus>
<clus scale="   86.618">  7  8 -1 -1</clus>
<clus scale="  108.470">  2  5  1 -1</clus>
<clus scale="  166.185">  1 10  2 -1</clus>
<clus scale="  166.185">  1  5  2 -1</clus>
</clustering>
</event>
<event>
10    4  0.2977685E-005  0.1404005E+03  0.7546771E-02  0.1214986E+00
         21   -1    0    0  501  502  0.00000000000E+00  0.00000000000E+00  0.16980452210E+03  0.16980452210E+03  0.00000000000E+00 0.  1.
          2   -1    0    0  503    0 -0.00000000000E+00 -0.00000000000E+00 -0.36436325226E+03  0.36436325226E+03  0.00000000000E+00 0. -1.
         23    2    1    2    0    0  0.33027619631E+02  0.14760059435E+03 -0.35870584489E+02  0.18030587778E+03  0.91360558339E+02 0.  0.
         24    2    1    2    0    0  0.73983327295E+02 -0.66545780512E+02 -0.52939174859E+02  0.13891800985E+03  0.81202115764E+02 0.  0.
        -13    1    4    4    0    0  0.12599079328E+02 -0.23162270559E+02  0.20827651061E+02  0.33600872401E+02  0.00000000000E+00 0.  1.
         14    1    4    4    0    0  0.61384247967E+02 -0.43383509953E+02 -0.73766825920E+02  0.10531713745E+03  0.00000000000E+00 0. -1.
        -13    1    3    3    0    0  0.10826463296E+02  0.15305865189E+03 -0.35235829752E+02  0.15743483390E+03  0.00000000000E+00 0.  1.
         13    1    3    3    0    0  0.22201156334E+02 -0.54580575422E+01 -0.63475473716E+00  0.22871043883E+02  0.00000000000E+00 0. -1.
         21    1    1    2  503  502 -0.74455975249E+02 -0.92366831815E+02 -0.12752384035E+03  0.17417707578E+03  0.00000000000E+00 0. -1.
          1    1    1    2  501    0 -0.32554971677E+02  0.11312017981E+02  0.21774869539E+02  0.40766810951E+02  0.00000000000E+00 0. -1.
<scales pt_clust_5="13000.00000" pt_clust_6="13000.00000" pt_clust_7="13000.00000" pt_clust_8="13000.00000" pt_clust_9="120.72041" pt_clust_10="34.46430"></scales>
<clustering>
<clus scale="   34.464">  1 10  2 -1</clus>
<clus scale="   81.202">  5  6 -1 -1</clus>
<clus scale="   91.361">  7  8 -1 -1</clus>
<clus scale="  120.720">  2  9  1 -1</clus>
<clus scale="  134.012">  1  5  2 -1</clus>
<clus scale="   34.464">  1  5  2 -1</clus>
</clustering>
</event>
<event>
10    4  0.2977685E-005  0.1023426E+03  0.7546771E-02  0.1280913E+00
         -3   -1    0    0    0  501 -0.00000000000E+00  0.00000000000E+00  0.13247404112E+03  0.13247404112E+03  0.00000000000E+00 0.  1.
         21   -1    0    0  503  502  0.00000000000E+00 -0.00000000000E+00 -0.28569701447E+03  0.28569701447E+03  0.00000000000E+00 0. -1.
         23    2    1    2    0    0  0.25028698270E+02  0.40823091876E+02  0.64259615553E+02  0.12183618239E+03  0.91770346962E+02 0.  0.
         24    2    1    2    0    0 -0.39363187146E+02 -0.63623797503E+02 -0.86672288752E+02  0.13985117096E+03  0.80304522102E+02 0.  0.
        -11    1    4    4    0    0  0.12745175223E+01 -0.43303793677E+02 -0.15359520070E+01  0.43349764593E+02  0.00000000000E+00 0.  1.
         12    1    4    4    0    0 -0.40637704668E+02 -0.20320003826E+02 -0.85136336746E+02  0.96501406366E+02  0.00000000000E+00 0. -1.
        -11    1    3    3    0    0 -0.16362475921E+02 -0.22447661952E+02  0.19976655657E+02  0.34215419282E+02  0.00000000000E+00 0. -1.
         11    1    3    3    0    0  0.41391174191E+02  0.63270753828E+02  0.44282959896E+02  0.87620763110E+02  0.00000000000E+00 0.  1.
         21    1    1    2  503  501 -0.21898868122E+02 -0.91923809285E+01 -0.89385062062E+01  0.25376311500E+02  0.00000000000E+00 0. -1.
         -4    1    1    2    0  502  0.36233356998E+02  0.31993086555E+02 -0.12187179394E+03  0.13110739073E+03  0.00000000000E+00 0.  1.
<scales pt_clust_5="13000.00000" pt_clust_6="13000.00000" pt_clust_7="13000.00000" pt_clust_8="13000.00000" pt_clust_9="23.74995" pt_clust_10="47.50112"></scales>
<clustering>
<clus scale="   23.750">  1  9  2 -1</clus>
<clus scale="   47.501">  2 10  1 -1</clus>
<clus scale="   80.305">  5  6 -1 -1</clus>
<clus scale="   91.770">  7  8 -1 -1</clus>
<clus scale="   92.201">  2  5  1 -1</clus>
<clus scale="   47.501">  2  5  1 -1</clus>
</clustering>
</event>
<event>
10    4  0.2977685E-005  0.1012112E+03  0.7546771E-02  0.1283139E+00
         21   -1    0    0  501  502  0.00000000000E+00  0.00000000000E+00  0.20674556967E+03  0.20674556967E+03  0.00000000000E+00 0. -1.
          2   -1    0    0  503    0 -0.00000000000E+00 -0.00000000000E+00 -0.41625903105E+03  0.41625903105E+03  0.00000000000E+00 0. -1.
         24    2    1    2    0    0  0.24553875438E+02 -0.19080005958E+02 -0.31878984672E+03  0.33013582847E+03  0.79973492120E+02 0.  0.
         23    2    1    2    0    0 -0.89533931556E+02  0.88398669451E+01  0.26107552729E+02  0.13062937118E+03  0.91038234588E+02 0.  0.
        -11    1    3    3    0    0  0.14056563128E+02 -0.46079251907E+02 -0.12103126069E+03  0.13026684339E+03  0.00000000000E+00 0.  1.
         12    1    3    3    0    0  0.10497312310E+02  0.26999245949E+02 -0.19775858603E+03  0.19986898508E+03  0.00000000000E+00 0. -1.
        -13    1    4    4    0    0 -0.91994399035E+02 -0.22535132007E+02  0.99014200200E+01  0.95230455983E+02  0.00000000000E+00 0.  1.
         13    1    4    4    0    0  0.24604674782E+01  0.31374998953E+02  0.16206132709E+02  0.35398915193E+02  0.00000000000E+00 0. -1.
         21    1    1    2  503  502  0.14393780255E+02  0.28493669324E+02 -0.25588150192E+02  0.40912388488E+02  0.00000000000E+00 0. -1.
          1    1    1    2  501    0  0.50586275863E+02 -0.18253530311E+02  0.10875698281E+03  0.12132701259E+03  0.00000000000E+00 0. -1.
<scales pt_clust_5="13000.00000" pt_clust_6="13000.00000" pt_clust_7="13000.00000" pt_clust_8="13000.00000" pt_clust_9="31.92288" pt_clust_10="53.84481"></scales>
<clustering>
<clus scale="   31.923">  2  9  1 -1</clus>
<clus scale="   53.845">  1 10  2 -1</clus>
<clus scale="   79.973">  5  6 -1 -1</clus>
<clus scale="   91.038">  7  8 -1 -1</clus>
<clus scale="   91.387">  2  5  1 -1</clus>
<clus scale="   53.845">  1  5  2 -1</clus>
</clustering>
</event>
<event>
10    4  0.2977685E-005  0.2095281E+03  0.7546771E-02  0.1161665E+00
          2   -1    0    0  503    0 -0.00000000000E+00  0.00000000000E+00  0.58093990817E+03  0.58093990817E+03  0.00000000000E+00 0. -1.
         21   -1    0    0  501  502  0.00000000000E+00 -0.00000000000E+00 -0.28521263734E+03  0.28521263734E+03  0.00000000000E+00 0.  1.
         23    2    1    2    0    0  0.78447410100E+02 -0.49677686077E+02  0.36678398753E+03  0.38952790613E+03  0.92626278672E+02 0.  0.
         24    2    1    2    0    0  0.12551460139E+03  0.10771099099E+03 -0.97340716621E+02  0.20728694648E+03  0.78339583409E+02 0.  0.
        -13    1    4    4    0    0  0.12749527994E+03  0.10913219778E+03 -0.73317265670E+02  0.18314012243E+03  0.00000000000E+00 0.  1.
         14    1    4    4    0    0 -0.19806785463E+01 -0.14212067940E+01 -0.24023450951E+02  0.24146824053E+02  0.00000000000E+00 0. -1.
        -11    1    3    3    0    0 -0.54934318502E+01  0.20152018295E+02  0.79361761927E+02  0.82064431339E+02  0.00000000000E+00 0.  1.
         11    1    3    3    0    0  0.83940841950E+02 -0.69829704373E+02  0.28742222560E+03  0.30746347479E+03  0.00000000000E+00 0. -1.
         21    1    1    2  503  502 -0.22709927812E+03 -0.73828315109E+02  0.31418684118E+02  0.24085646336E+03  0.00000000000E+00 0. -1.
          1    1    1    2  501    0  0.23137266626E+02  0.15795010198E+02 -0.51346841881E+01  0.28481229534E+02  0.00000000000E+00 0. -1.
<scales pt_clust_5="13000.00000" pt_clust_6="13000.00000" pt_clust_7="13000.00000" pt_clust_8="13000.00000" pt_clust_9="194.33201" pt_clust_10="28.01456"></scales>
<clustering>
<clus scale="   28.015">  2 10  1 -1</clus>
<clus scale="   78.340">  5  6 -1 -1</clus>
<clus scale="   92.626">  7  8 -1 -1</clus>
<clus scale="  131.492">  1  7  2 -1</clus>
<clus scale="  194.332">  1  9  2 -1</clus>
<clus scale="   28.015">  2  5  1 -1</clus>
</clustering>
</event>
<event>
10    4  0.2977685E-005  0.1695176E+03  0.7546771E-02  0.1179824E+00
         21   -1    0    0  501  502  0.00000000000E+00  0.00000000000E+00  0.13005048501E+03  0.13005048501E+03  0.00000000000E+00 0. -1.
          2   -1    0    0  503    0 -0.00000000000E+00 -0.00000000000E+00 -0.35392199407E+03  0.35392199407E+03  0.00000000000E+00 0. -1.
         24    2    1    2    0    0  0.95743549469E+02  0.11322029743E+03 -0.10161994742E+03  0.19678147950E+03  0.80066684371E+02 0.  0.
         23    2    1    2    0    0 -0.45987434214E+02 -0.13441537050E+03 -0.53231644105E+02  0.17683272007E+03  0.90850795374E+02 0.  0.
        -11    1    3    3    0    0  0.34850230075E+02  0.10038495822E+03 -0.65490392815E+02  0.12482255375E+03  0.00000000000E+00 0.  1.
         12    1    3    3    0    0  0.60893319395E+02  0.12835339208E+02 -0.36129554603E+02  0.71958925751E+02  0.00000000000E+00 0. -1.
        -11    1    4    4    0    0  0.20286290362E+02 -0.71395603195E+02 -0.75493167543E+01  0.74604677572E+02  0.00000000000E+00 0.  1.
         11    1    4    4    0    0 -0.66273724575E+02 -0.63019767306E+02 -0.45682327350E+02  0.10222804250E+03  0.00000000000E+00 0. -1.
         21    1    1    2  503  502 -0.22901830447E+02 -0.15929719401E+02 -0.46483075460E+00  0.27901001159E+02  0.00000000000E+00 0.  1.
          1    1    1    2  501    0 -0.26854284809E+02  0.37124792471E+02 -0.68555086781E+02  0.82457278345E+02  0.00000000000E+00 0. -1.
<scales pt_clust_5="13000.00000" pt_clust_6="13000.00000" pt_clust_7="13000.00000" pt_clust_8="13000.00000" pt_clust_9="27.89713" pt_clust_10="45.88035"></scales>
<clustering>
<clus scale="   27.897">  1  9  2 -1</clus>
<clus scale="   45.880">  1 10  2 -1</clus>
<clus scale="   80.067">  5  6 -1 -1</clus>
<clus scale="   90.851">  7  8 -1 -1</clus>
<clus scale="  163.991">  2  5  1 -1</clus>
<clus scale="   27.897">  1  5  2 -1</clus>
</clustering>
</event>
<event>
10    4  0.2977685E-005  0.1025519E+03  0.7546771E-02  0.1280309E+00
         21   -1    0    0  501  502  0.00000000000E+00  0.00000000000E+00  0.30710354674E+02  0.30710354674E+02  0.00000000000E+00 0.  1.
          2   -1    0    0  503    0 -0.00000000000E+00 -0.00000000000E+00 -0.58884079674E+03  0.58884079674E+03  0.00000000000E+00 0. -1.
         23    2    1    2    0    0  0.47705322767E+02 -0.27326114985E+02 -0.19732184055E+03  0.22400542507E+03  0.90664256050E+02 0.  0.
         24    2    1    2    0    0 -0.26428360221E+02  0.38126208579E+02 -0.13252861838E+03  0.16128159239E+03  0.79346400990E+02 0.  0.
        -11    1    4    4    0    0  0.17155055604E+02  0.23273250500E+02 -0.10341189592E+02  0.30706356407E+02  0.00000000000E+00 0.  1.
         12    1    4    4    0    0 -0.43583415825E+02  0.14852958079E+02 -0.12218742879E+03  0.13057523598E+03  0.00000000000E+00 0. -1.
        -11    1    3    3    0    0 -0.77202422152E+01 -0.28586680355E+02 -0.14515416173E+02  0.32977230634E+02  0.00000000000E+00 0.  1.
         11    1    3    3    0    0  0.55425564982E+02  0.12605653702E+01 -0.18280642437E+03  0.19102819444E+03  0.00000000000E+00 0. -1.
         21    1    1    2  503  502 -0.11732374334E+02  0.17924805604E+02 -0.73796707125E+02  0.76843355249E+02  0.00000000000E+00 0. -1.
          1    1    1    2  501    0 -0.95445882123E+01 -0.28724899198E+02 -0.15448327602E+03  0.15742077870E+03  0.00000000000E+00 0. -1.
<scales pt_clust_5="13000.00000" pt_clust_6="13000.00000" pt_clust_7="13000.00000" pt_clust_8="13000.00000" pt_clust_9="21.42305" pt_clust_10="26.71757"></scales>
<clustering>
<clus scale="   21.423">  2  9  1 -1</clus>
<clus scale="   26.718">  1 10  2 -1</clus>
<clus scale="   79.346">  5  6 -1 -1</clus>
<clus scale="   90.664">  7  8 -1 -1</clus>
<clus scale="   92.697">  1  5  2 -1</clus>
<clus scale="   26.718">  1  5  2 -1</clus>
</clustering>
</event>
<event>
10    4  0.2977685E-005  0.1102775E+03  0.7546771E-02  0.1270413E+00
         21   -1    0    0  503  502  0.00000000000E+00  0.00000000000E+00  0.24687601214E+03  0.24687601214E+03  0.00000000000E+00 0. -1.
         -3   -1    0    0    0  501 -0.00000000000E+00 -0.00000000000E+00 -0.11922187019E+03  0.11922187019E+03  0.00000000000E+00 0.  1.
         23    2    1    2    0    0  0.65749356257E+01  0.21546064146E+01  0.59577693327E+02  0.11766807223E+03  0.10123438928E+03 0.  0.
         24    2    1    2    0    0  0.13019765899E+01 -0.82861821730E+02  0.83690242865E+02  0.14170782420E+03  0.78798946979E+02 0.  0.
        -13    1    4    4    0    0  0.31305598569E+02 -0.49894671546E+02  0.76509472991E+02  0.96556813368E+02  0.00000000000E+00 0.  1.
         14    1    4    4    0    0 -0.30003621979E+02 -0.32967150184E+02  0.71807698737E+01  0.45151010831E+02  0.00000000000E+00 0. -1.
        -13    1    3    3    0    0  0.24820443802E+02  0.20857786314E+02 -0.17104859660E+02  0.36656212358E+02  0.00000000000E+00 0.  1.
         13    1    3    3    0    0 -0.18245508177E+02 -0.18703179899E+02  0.76682552987E+02  0.81011859870E+02  0.00000000000E+00 0. -1.
         21    1    1    2  503  501  0.47146954460E+01  0.54426247145E+02 -0.40816354244E+02  0.68193984377E+02  0.00000000000E+00 0.  1.
         -4    1    1    2    0  502 -0.12591607662E+02  0.26280968170E+02  0.25202559997E+02  0.38528001530E+02  0.00000000000E+00 0.  1.
<scales pt_clust_5="13000.00000" pt_clust_6="13000.00000" pt_clust_7="13000.00000" pt_clust_8="13000.00000" pt_clust_9="56.23575" pt_clust_10="29.14169"></scales>
<clustering>
<clus scale="   29.142">  1 10  2 -1</clus>
<clus scale="   56.236">  2  9  1 -1</clus>
<clus scale="   78.799">  5  6 -1 -1</clus>
<clus scale="   90.122">  1  5  2 -1</clus>
<clus scale="  101.234">  7  8 -1 -1</clus>
<clus scale="   29.142">  1  5  2 -1</clus>
</clustering>
</event>
<event>
10    4  0.2977685E-005  0.2416386E+03  0.7546771E-02  0.1119497E+00
          2   -1    0    0  503    0 -0.00000000000E+00  0.00000000000E+00  0.11145440217E+04  0.11145440217E+04  0.00000000000E+00 0. -1.
         21   -1    0    0  501  502  0.00000000000E+00 -0.00000000000E+00 -0.14574585080E+03  0.14574585080E+03  0.00000000000E+00 0. -1.
         24    2    1    2    0    0 -0.33174539940E+02 -0.19183253077E+03  0.25171113858E+03  0.32787846965E+03  0.79028625258E+02 0.  0.
         23    2    1    2    0    0 -0.84377745758E+02  0.25900249716E+03  0.11236448046E+03  0.30877494953E+03  0.92272940112E+02 0.  0.
        -13    1    3    3    0    0 -0.26396852759E+02 -0.52384000498E+02  0.13015613355E+03  0.14276377848E+03  0.00000000000E+00 0.  1.
         14    1    3    3    0    0 -0.67776871815E+01 -0.13944853028E+03  0.12155500502E+03  0.18511469117E+03  0.00000000000E+00 0. -1.
        -11    1    4    4    0    0 -0.56382324644E+02  0.79255524210E+02  0.75583438917E+02  0.12317979091E+03  0.00000000000E+00 0.  1.
         11    1    4    4    0    0 -0.27995421114E+02  0.17974697295E+03  0.36781041543E+02  0.18559515862E+03  0.00000000000E+00 0. -1.
         21    1    1    2  503  502  0.49835774975E+02 -0.45846365611E+02  0.42567339592E+03  0.43102590838E+03  0.00000000000E+00 0. -1.
          1    1    1    2  501    0  0.67716510723E+02 -0.21323600774E+02  0.17904915597E+03  0.19261054495E+03  0.00000000000E+00 0. -1.
<scales pt_clust_5="13000.00000" pt_clust_6="13000.00000" pt_clust_7="13000.00000" pt_clust_8="13000.00000" pt_clust_9="67.71627" pt_clust_10="87.94229"></scales>
<clustering>
<clus scale="   67.716">  1  9  2 -1</clus>
<clus scale="   79.029">  5  6 -1 -1</clus>
<clus scale="   87.942">  2 10  1 -1</clus>
<clus scale="   92.273">  7  8 -1 -1</clus>
<clus scale="  236.898">  1  5  2 -1</clus>
<clus scale="   87.942">  2  5  1 -1</clus>
</clustering>
</event>
<event>
10    4  0.2977685E-005  0.9611390E+02  0.7546771E-02  0.1294343E+00
         -1   -1    0    0    0  501 -0.00000000000E+00  0.00000000000E+00  0.48281224036E+03  0.48281224036E+03  0.00000000000E+00 0.  1.
         21   -1    0    0  503  502  0.00000000000E+00 -0.00000000000E+00 -0.21468490863E+03  0.21468490863E+03  0.00000000000E+00 0.  1.
         23    2    1    2    0    0  0.82850371595E+02  0.42052672855E+02  0.80787604669E+02  0.15348647355E+03  0.91645235156E+02 0.  0.
         24    2    1    2    0    0  0.37595250482E+02 -0.77925759262E+01  0.51947833089E+01  0.90221124124E+02  0.81478453387E+02 0.  0.
        -13    1    4    4    0    0  0.58761345721E+02  0.11203642175E+02  0.11920941199E+02  0.60996116172E+02  0.00000000000E+00 0.  1.
         14    1    4    4    0    0 -0.21166095240E+02 -0.18996218101E+02 -0.67261578900E+01  0.29225007952E+02  0.00000000000E+00 0. -1.
        -11    1    3    3    0    0  0.10109135053E+02  0.29532707797E+02 -0.13275741125E+02  0.33920801048E+02  0.00000000000E+00 0. -1.
         11    1    3    3    0    0  0.72741236542E+02  0.12519965059E+02  0.94063345795E+02  0.11956567250E+03  0.00000000000E+00 0.  1.
         21    1    1    2  503  501 -0.46133593549E+02 -0.26576730076E+02  0.30521229781E+03  0.30982120290E+03  0.00000000000E+00 0.  1.
         -2    1    1    2    0  502 -0.74312028528E+02 -0.76833668531E+01 -0.12306735406E+03  0.14396834842E+03  0.00000000000E+00 0.  1.
<scales pt_clust_5="13000.00000" pt_clust_6="13000.00000" pt_clust_7="13000.00000" pt_clust_8="13000.00000" pt_clust_9="53.24125" pt_clust_10="77.61764"></scales>
<clustering>
<clus scale="   53.241">  1  9  2 -1</clus>
<clus scale="   77.618">  2 10  1 -1</clus>
<clus scale="   81.478">  5  6 -1 -1</clus>
<clus scale="   86.474">  2  5  1 -1</clus>
<clus scale="   91.645">  7  8 -1 -1</clus>
<clus scale="   77.618">  2  5  1 -1</clus>
</clustering>
</event>
<event>
10    4  0.2977685E-005  0.9924709E+02  0.7546771E-02  0.1283880E+00
         21   -1    0    0  501  502  0.00000000000E+00  0.00000000000E+00  0.42527335198E+03  0.42527335198E+03  0.00000000000E+00 0. -1.
          2   -1    0    0  503    0 -0.00000000000E+00 -0.00000000000E+00 -0.39767144596E+03  0.39767144596E+03  0.00000000000E+00 0. -1.
         23    2    1    2    0    0 -0.34487634451E+02  0.35448682919E+02 -0.76444651702E+02  0.13046004971E+03  0.93434649594E+02 0.  0.
         24    2    1    2    0    0 -0.53887282827E+02  0.26946723857E+02  0.37279004270E+03  0.38609909730E+03  0.80437129600E+02 0.  0.
        -13    1    4    4    0    0 -0.67022425007E+01 -0.26741656839E+02  0.76705343461E+02  0.81509177277E+02  0.00000000000E+00 0.  1.
         14    1    4    4    0    0 -0.47185040326E+02  0.53688380696E+02  0.29608469924E+03  0.30458992002E+03  0.00000000000E+00 0. -1.
        -11    1    3    3    0    0  0.90878434340E+01  0.40091918588E+02  0.13949183062E+01  0.41132671095E+02  0.00000000000E+00 0.  1.
         11    1    3    3    0    0 -0.43575477885E+02 -0.46432356695E+01 -0.77839570008E+02  0.89327378611E+02  0.00000000000E+00 0. -1.
         21    1    1    2  503  502  0.25654755101E+02 -0.58043194684E+01 -0.18697719294E+03  0.18881823869E+03  0.00000000000E+00 0. -1.
          1    1    1    2  501    0  0.62720162177E+02 -0.56591087307E+02 -0.81766292040E+02  0.11756741224E+03  0.00000000000E+00 0. -1.
<scales pt_clust_5="13000.00000" pt_clust_6="13000.00000" pt_clust_7="13000.00000" pt_clust_8="13000.00000" pt_clust_9="26.30317" pt_clust_10="95.57024"></scales>
<clustering>
<clus scale="   26.303">  2  9  1 -1</clus>
<clus scale="   80.437">  5  6 -1 -1</clus>
<clus scale="   93.435">  7  8 -1 -1</clus>
<clus scale="   95.570">  1 10  2 -1</clus>
<clus scale="   95.570">  1  5  2 -1</clus>
<clus scale="   95.570">  1  5  2 -1</clus>
</clustering>
</event>
<event>
10    4  0.2977685E-005  0.1390604E+03  0.7546771E-02  0.1237265E+00
         21   -1    0    0  501  502  0.00000000000E+00  0.00000000000E+00  0.98541378555E+02  0.98541378555E+02  0.00000000000E+00 0. -1.
          2   -1    0    0  503    0 -0.00000000000E+00 -0.00000000000E+00 -0.39435471728E+03  0.39435471728E+03  0.00000000000E+00 0. -1.
         24    2    1    2    0    0 -0.35181756396E+02 -0.36659351994E+01 -0.13275896647E+03  0.15994939706E+03  0.81900374712E+02 0.  0.
         23    2    1    2    0    0 -0.90573791508E+02  0.33518811744E+02 -0.13587223768E+03  0.18623198638E+03  0.83029906228E+02 0.  0.
        -11    1    3    3    0    0 -0.10111512013E+02 -0.40659726657E+02 -0.45113198471E+02  0.61568309407E+02  0.00000000000E+00 0.  1.
         12    1    3    3    0    0 -0.25070244383E+02  0.36993791458E+02 -0.87645767996E+02  0.98381087651E+02  0.00000000000E+00 0. -1.
        -13    1    4    4    0    0 -0.53041083901E+02  0.29516854162E+02 -0.13551063677E+03  0.14848479363E+03  0.00000000000E+00 0.  1.
         13    1    4    4    0    0 -0.37532707607E+02  0.40019575816E+01 -0.36160090667E+00  0.37747192744E+02  0.00000000000E+00 0. -1.
         21    1    1    2  503  502  0.16260070409E+02  0.12223047725E+02 -0.21020382783E+02  0.29251483343E+02  0.00000000000E+00 0.  1.
          1    1    1    2  501    0  0.10949547749E+03 -0.42075924270E+02 -0.61617517907E+01  0.11746322906E+03  0.00000000000E+00 0. -1.
<scales pt_clust_5="13000.00000" pt_clust_6="13000.00000" pt_clust_7="13000.00000" pt_clust_8="13000.00000" pt_clust_9="20.34190" pt_clust_10="111.55191"></scales>
<clustering>
<clus scale="   20.342">  2  9  1 -1</clus>
<clus scale="   81.900">  5  6 -1 -1</clus>
<clus scale="   83.030">  7  8 -1 -1</clus>
<clus scale="   86.803">  2  5  1 -1</clus>
<clus scale="  111.552">  1 10  2 -1</clus>
<clus scale="  111.552">  1  5  2 -1</clus>
</clustering>
</event>
<event>
10    4  0.2977685E-005  0.4921654E+03  0.7546771E-02  0.1015919E+00
         21   -1    0    0  501  502  0.00000000000E+00  0.00000000000E+00  0.61192851642E+03  0.61192851642E+03  0.00000000000E+00 0.  1.
          2   -1    0    0  503    0 -0.00000000000E+00 -0.00000000000E+00 -0.12897827332E+04  0.12897827332E+04  0.00000000000E+00 0. -1.
         23    2    1    2    0    0 -0.46472676917E+03 -0.96928605520E+02 -0.88581617340E+03  0.10085791525E+04  0.84826229823E+02 0.  0.
         24    2    1    2    0    0  0.48431664332E+03  0.13713139909E+02  0.26580986718E+03  0.55812057287E+03  0.78057845028E+02 0.  0.
        -11    1    4    4    0    0  0.39311557494E+03  0.26622034705E+01  0.24719998436E+03  0.46438644990E+03  0.00000000000E+00 0.  1.
         12    1    4    4    0    0  0.91201068383E+02  0.11050936439E+02  0.18609882820E+02  0.93734122970E+02  0.00000000000E+00 0. -1.
        -13    1    3    3    0    0 -0.53267614376E+02 -0.27859156709E+02 -0.70004093498E+02  0.92272121794E+02  0.00000000000E+00 0.  1.
         13    1    3    3    0    0 -0.41145915480E+03 -0.69069448811E+02 -0.81581207990E+03  0.91630703071E+03  0.00000000000E+00 0. -1.
         21    1    1    2  503  502 -0.21396492521E+02  0.59616893875E+02 -0.19024677190E+03  0.20051388517E+03  0.00000000000E+00 0.  1.
          1    1    1    2  501    0  0.18066183739E+01  0.23598571736E+02  0.13239886129E+03  0.13449763912E+03  0.00000000000E+00 0. -1.
<scales pt_clust_5="13000.00000" pt_clust_6="13000.00000" pt_clust_7="13000.00000" pt_clust_8="13000.00000" pt_clust_9="63.57206" pt_clust_10="23.66762"></scales>
<clustering>
<clus scale="   23.668">  1 10  2 -1</clus>
<clus scale="   63.572">  2  9  1 -1</clus>
<clus scale="   78.058">  5  6 -1 -1</clus>
<clus scale="   84.826">  7  8 -1 -1</clus>
<clus scale="  491.044">  1  5  2 -1</clus>
<clus scale="   23.668">  1  5  2 -1</clus>
</clustering>
</event>
<event>
10    4  0.2977685E-005  0.3228645E+03  0.7546771E-02  0.1092411E+00
         -3   -1    0    0    0  501 -0.00000000000E+00  0.00000000000E+00  0.46751961500E+03  0.46751961500E+03  0.00000000000E+00 0.  1.
         21   -1    0    0  503  502  0.00000000000E+00 -0.00000000000E+00 -0.70914609931E+03  0.70914609931E+03  0.00000000000E+00 0.  1.
         23    2    1    2    0    0  0.11533820697E+03  0.13514741557E+03 -0.18590486995E+03  0.27247869485E+03  0.90090468718E+02 0.  0.
         24    2    1    2    0    0 -0.93382516336E+02  0.22916889489E+03  0.11323903135E+03  0.28327067197E+03  0.78616274614E+02 0.  0.
        -13    1    4    4    0    0 -0.20672136588E+02  0.46183352752E+02  0.61585810147E+02  0.79706030600E+02  0.00000000000E+00 0.  1.
         14    1    4    4    0    0 -0.72710379749E+02  0.18298554214E+03  0.51653221198E+02  0.20356464137E+03  0.00000000000E+00 0. -1.
        -11    1    3    3    0    0 -0.59146619697E+01  0.26440001724E+02 -0.24983775192E+01  0.27208432656E+02  0.00000000000E+00 0. -1.
         11    1    3    3    0    0  0.12125286894E+03  0.10870741385E+03 -0.18340649243E+03  0.24527026219E+03  0.00000000000E+00 0.  1.
         21    1    1    2  503  501  0.19136267088E+02 -0.18597200529E+02  0.14782319577E+03  0.15021234901E+03  0.00000000000E+00 0.  1.
         -4    1    1    2    0  502 -0.41091957720E+02 -0.34571910993E+03 -0.31678384149E+03  0.47070399849E+03  0.00000000000E+00 0.  1.
<scales pt_clust_5="13000.00000" pt_clust_6="13000.00000" pt_clust_7="13000.00000" pt_clust_8="13000.00000" pt_clust_9="26.68431" pt_clust_10="313.14687"></scales>
<clustering>
<clus scale="   26.684">  1  9  2 -1</clus>
<clus scale="   78.616">  5  6 -1 -1</clus>
<clus scale="   90.090">  7  8 -1 -1</clus>
<clus scale="  199.033">  1  7  2 -1</clus>
<clus scale="  313.147">  2 10  1 -1</clus>
<clus scale="  313.147">  2  5  1 -1</clus>
</clustering>
</event>
<event>
10    4  0.2977685E-005  0.1830932E+03  0.7546771E-02  0.1165905E+00
         21   -1    0    0  501  502  0.00000000000E+00  0.00000000000E+00  0.29465603996E+03  0.29465603996E+03  0.00000000000E+00 0.  1.
          2   -1    0    0  503    0 -0.00000000000E+00 -0.00000000000E+00 -0.25028440679E+03  0.25028440679E+03  0.00000000000E+00 0. -1.
         24    2    1    2    0    0  0.42957678413E+02  0.15951380226E+03  0.52756236098E+02  0.19147237682E+03  0.81169177595E+02 0.  0.
         23    2    1    2    0    0 -0.73953650007E+02 -0.14060427621E+03  0.81999270084E+02  0.20038350781E+03  0.90503950575E+02 0.  0.
        -13    1    3    3    0    0 -0.11827072146E+02  0.10861364328E+03  0.32847380052E+02  0.11408660534E+03  0.00000000000E+00 0.  1.
         14    1    3    3    0    0  0.54784750559E+02  0.50900158980E+02  0.19908856045E+02  0.77385771477E+02  0.00000000000E+00 0. -1.
        -13    1    4    4    0    0  0.52063946341E+01 -0.31854199376E+02  0.54121228301E+02  0.63015108632E+02  0.00000000000E+00 0.  1.
         13    1    4    4    0    0 -0.79160044641E+02 -0.10875007684E+03  0.27878041782E+02  0.13736839918E+03  0.00000000000E+00 0. -1.
         21    1    1    2  503  502 -0.44455298425E+02 -0.17290150323E+02 -0.40959473690E+02  0.62872103044E+02  0.00000000000E+00 0. -1.
          1    1    1    2  501    0  0.75451270019E+02 -0.16193757264E+01 -0.49424399321E+02  0.90212459081E+02  0.00000000000E+00 0. -1.
<scales pt_clust_5="13000.00000" pt_clust_6="13000.00000" pt_clust_7="13000.00000" pt_clust_8="13000.00000" pt_clust_9="47.69930" pt_clust_10="60.29896"></scales>
<clustering>
<clus scale="   47.699">  2  9  1 -1</clus>
<clus scale="   60.299">  1 10  2 -1</clus>
<clus scale="   81.169">  5  6 -1 -1</clus>
<clus scale="   90.504">  7  8 -1 -1</clus>
<clus scale="  178.663">  2  5  1 -1</clus>
<clus scale="   60.299">  1  5  2 -1</clus>
</clustering>
</event>
<event>
10    4  0.2977685E-005  0.1451692E+03  0.7546771E-02  0.1207827E+00
         -3   -1    0    0    0  501 -0.00000000000E+00  0.00000000000E+00  0.49332855584E+03  0.49332855584E+03  0.00000000000E+00 0.  1.
         21   -1    0    0  503  502  0.00000000000E+00 -0.00000000000E+00 -0.15817064074E+03  0.15817064074E+03  0.00000000000E+00 0.  1.
         24    2    1    2    0    0 -0.43728126317E+02 -0.15602291105E+03  0.24472886867E+03  0.30449434387E+03  0.81051147338E+02 0.  0.
         23    2    1    2    0    0  0.65758719481E+02  0.91327281939E+02  0.21767272830E+02  0.14436866747E+03  0.87770247621E+02 0.  0.
        -13    1    3    3    0    0 -0.63291939516E+02 -0.14315790190E+03  0.22369574060E+03  0.27301985065E+03  0.00000000000E+00 0.  1.
         14    1    3    3    0    0  0.19563813199E+02 -0.12865009149E+02  0.21033128071E+02  0.31474493224E+02  0.00000000000E+00 0. -1.
        -13    1    4    4    0    0  0.36326429952E+02  0.19432104271E+02 -0.30045004761E+02  0.50989395962E+02  0.00000000000E+00 0.  1.
         13    1    4    4    0    0  0.29432289528E+02  0.71895177668E+02  0.51812277591E+02  0.93379271511E+02  0.00000000000E+00 0. -1.
         21    1    1    2  503  501  0.31393326728E+02  0.58576518259E+02  0.11422725966E+03  0.13215376008E+03  0.00000000000E+00 0.  1.
         -4    1    1    2    0  502 -0.53423919892E+02  0.61191108493E+01 -0.45565486064E+02  0.70482425147E+02  0.00000000000E+00 0.  1.
<scales pt_clust_5="13000.00000" pt_clust_6="13000.00000" pt_clust_7="13000.00000" pt_clust_8="13000.00000" pt_clust_9="64.83717" pt_clust_10="53.77322"></scales>
<clustering>
<clus scale="   53.773">  2 10  1 -1</clus>
<clus scale="   64.837">  1  9  2 -1</clus>
<clus scale="   81.051">  5  6 -1 -1</clus>
<clus scale="   87.770">  7  8 -1 -1</clus>
<clus scale="  141.208">  1  5  2 -1</clus>
<clus scale="   53.773">  2  5  1 -1</clus>
</clustering>
</event>
<event>
10    4  0.2977685E-005  0.1015011E+03  0.7546771E-02  0.1280663E+00
          2   -1    0    0  502    0 -0.00000000000E+00  0.00000000000E+00  0.80097575731E+03  0.80097575731E+03  0.00000000000E+00 0. -1.
         21   -1    0    0  503  502  0.00000000000E+00 -0.00000000000E+00 -0.25052987043E+02  0.25052987043E+02  0.00000000000E+00 0. -1.
         23    2    1    2    0    0  0.36005300436E+02 -0.28536056805E+02  0.33567439679E+03  0.35007228349E+03  0.88105702453E+02 0.  0.
         24    2    1    2    0    0 -0.30071683650E+01  0.71825658778E+02  0.21994311658E+03  0.24499237242E+03  0.80488009623E+02 0.  0.
        -11    1    4    4    0    0 -0.18038181163E+02  0.76635732225E+02  0.21417892968E+03  0.22819076527E+03  0.00000000000E+00 0.  1.
         12    1    4    4    0    0  0.15031012798E+02 -0.48100734475E+01  0.57641868950E+01  0.16801607151E+02  0.00000000000E+00 0. -1.
        -13    1    3    3    0    0 -0.27156686473E+02 -0.23149624646E+02  0.13397690298E+03  0.13864775971E+03  0.00000000000E+00 0.  1.
         13    1    3    3    0    0  0.63161986909E+02 -0.53864321592E+01  0.20169749382E+03  0.21142452377E+03  0.00000000000E+00 0. -1.
         21    1    1    2  503  501  0.10109827649E+01 -0.31444504227E+02  0.76466283999E+02  0.82685376705E+02  0.00000000000E+00 0. -1.
          1    1    1    2  501    0 -0.34009114836E+02 -0.11845097745E+02  0.14383897289E+03  0.14827871174E+03  0.00000000000E+00 0. -1.
<scales pt_clust_5="13000.00000" pt_clust_6="13000.00000" pt_clust_7="13000.00000" pt_clust_8="13000.00000" pt_clust_9="31.46075" pt_clust_10="37.08719"></scales>
<clustering>
<clus scale="   31.461">  2  9  1 -1</clus>
<clus scale="   37.087">  2 10  1 -1</clus>
<clus scale="   80.488">  5  6 -1 -1</clus>
<clus scale="   88.106">  7  8 -1 -1</clus>
<clus scale="   94.964">  2  5  1 -1</clus>
<clus scale="   31.461">  2  5  1 -1</clus>
</clustering>
</event>
<event>
10    4  0.2977685E-005  0.3961485E+03  0.7546771E-02  0.1065420E+00
         21   -1    0    0  501  502  0.00000000000E+00  0.00000000000E+00  0.16396621930E+03  0.16396621930E+03  0.00000000000E+00 0. -1.
          2   -1    0    0  503    0 -0.00000000000E+00 -0.00000000000E+00 -0.21123378629E+04  0.21123378629E+04  0.00000000000E+00 0. -1.
         24    2    1    2    0    0 -0.15831689950E+03 -0.12934628168E+03 -0.41125371036E+03  0.46645017621E+03  0.81556430448E+02 0.  0.
         23    2    1    2    0    0 -0.11004166694E+03 -0.19597466019E+03 -0.11641666094E+04  0.11892101682E+04  0.91769786741E+02 0.  0.
        -13    1    3    3    0    0 -0.28227654698E+02 -0.43750182225E+02 -0.46351214192E+02  0.69708779874E+02  0.00000000000E+00 0.  1.
         14    1    3    3    0    0 -0.13008924481E+03 -0.85596099458E+02 -0.36490249617E+03  0.39674139634E+03  0.00000000000E+00 0. -1.
        -13    1    4    4    0    0  0.48612114639E+01 -0.27216472521E+02 -0.56690509902E+02  0.63072828273E+02  0.00000000000E+00 0.  1.
         13    1    4    4    0    0 -0.11490287840E+03 -0.16875818767E+03 -0.11074760995E+04  0.11261373399E+04  0.00000000000E+00 0. -1.
         21    1    1    2  503  502 -0.30745566760E+01 -0.20883493830E+02 -0.10158693131E+03  0.10375682063E+03  0.00000000000E+00 0.  1.
          1    1    1    2  501    0  0.27143312312E+03  0.34620443571E+03 -0.27136439254E+03  0.51688691719E+03  0.00000000000E+00 0. -1.
<scales pt_clust_5="13000.00000" pt_clust_6="13000.00000" pt_clust_7="13000.00000" pt_clust_8="13000.00000" pt_clust_9="21.10861" pt_clust_10="385.37243"></scales>
<clustering>
<clus scale="   21.109">  2  9  1 -1</clus>
<clus scale="   81.556">  5  6 -1 -1</clus>
<clus scale="   91.770">  7  8 -1 -1</clus>
<clus scale="  223.293">  2  5  1 -1</clus>
<clus scale="  385.372">  1 10  2 -1</clus>
<clus scale="  385.372">  1  5  2 -1</clus>
</clustering>
</event>
<event>
10    4  0.2977685E-005  0.1686331E+03  0.7546771E-02  0.1208297E+00
          2   -1    0    0  503    0 -0.00000000000E+00  0.00000000000E+00  0.45782153703E+03  0.45782153703E+03  0.00000000000E+00 0. -1.
         21   -1    0    0  501  502  0.00000000000E+00 -0.00000000000E+00 -0.28010939424E+03  0.28010939424E+03  0.00000000000E+00 0. -1.
         24    2    1    2    0    0  0.37150972750E+02 -0.94312755141E+01 -0.27521525780E+02  0.93212502728E+02  0.80386519700E+02 0.  0.
         23    2    1    2    0    0 -0.18181915386E+03 -0.27762969499E+01  0.18048473245E+03  0.27176218031E+03  0.90631294090E+02 0.  0.
        -11    1    3    3    0    0 -0.24521200435E+01 -0.38931593173E+02 -0.17817053263E+02  0.42885069974E+02  0.00000000000E+00 0.  1.
         12    1    3    3    0    0  0.39603092793E+02  0.29500317659E+02 -0.97044725172E+01  0.50327432754E+02  0.00000000000E+00 0. -1.
        -11    1    4    4    0    0 -0.97141071115E+02 -0.45197948332E+02  0.11118317102E+03  0.15440511568E+03  0.00000000000E+00 0. -1.
         11    1    4    4    0    0 -0.84678082743E+02  0.42421651382E+02  0.69301561431E+02  0.11735706464E+03  0.00000000000E+00 0.  1.
         21    1    1    2  503  502  0.75766710676E+01  0.22899822605E+02  0.17072088346E+03  0.17241643735E+03  0.00000000000E+00 0. -1.
          1    1    1    2  501    0  0.13709151004E+03 -0.10692250141E+02 -0.14597194733E+03  0.20053981087E+03  0.00000000000E+00 0. -1.
<scales pt_clust_5="13000.00000" pt_clust_6="13000.00000" pt_clust_7="13000.00000" pt_clust_8="13000.00000" pt_clust_9="24.12069" pt_clust_10="142.20790"></scales>
<clustering>
<clus scale="   24.121">  1  9  2 -1</clus>
<clus scale="   80.387">  5  6 -1 -1</clus>
<clus scale="   89.184">  1  5  2 -1</clus>
<clus scale="   90.631">  7  8 -1 -1</clus>
<clus scale="  142.208">  2 10  1 -1</clus>
<clus scale="  142.208">  2  5  1 -1</clus>
</clustering>
</event>
<event>
10    4  0.2977685E-005  0.1422092E+03  0.7546771E-02  0.1211403E+00
         21   -1    0    0  501  502  0.00000000000E+00  0.00000000000E+00  0.18859200768E+03  0.18859200768E+03  0.00000000000E+00 0. -1.
          2   -1    0    0  503    0 -0.00000000000E+00 -0.00000000000E+00 -0.29619692358E+03  0.29619692358E+03  0.00000000000E+00 0. -1.
         24    2    1    2    0    0 -0.73804539100E+02 -0.12358418621E+03 -0.80215447519E+02  0.18998090942E+03  0.94541349947E+02 0.  0.
         23    2    1    2    0    0  0.77643295426E+01  0.93490091197E+02  0.40580896056E+02  0.13611634651E+03  0.89889758573E+02 0.  0.
        -11    1    3    3    0    0 -0.39916833132E+02  0.23881508794E+01 -0.76764879855E+01  0.40718365632E+02  0.00000000000E+00 0.  1.
         12    1    3    3    0    0 -0.33887705968E+02 -0.12597233709E+03 -0.72538959533E+02  0.14926254379E+03  0.00000000000E+00 0. -1.
        -11    1    4    4    0    0  0.58542904245E+01  0.23256837806E+02 -0.28729288417E+02  0.37423591945E+02  0.00000000000E+00 0. -1.
         11    1    4    4    0    0  0.19100391181E+01  0.70233253391E+02  0.69310184473E+02  0.98692754561E+02  0.00000000000E+00 0.  1.
         21    1    1    2  503  502 -0.15185646627E+00  0.67145522315E+02 -0.37809715170E+02  0.77059190163E+02  0.00000000000E+00 0.  1.
          1    1    1    2  501    0  0.66192066024E+02 -0.37051427302E+02 -0.30160649267E+02  0.81632485163E+02  0.00000000000E+00 0. -1.
<scales pt_clust_5="13000.00000" pt_clust_6="13000.00000" pt_clust_7="13000.00000" pt_clust_8="13000.00000" pt_clust_9="67.14569" pt_clust_10="69.51075"></scales>
<clustering>
<clus scale="   67.146">  2  9  1 -1</clus>
<clus scale="   69.511">  1 10  2 -1</clus>
<clus scale="   89.890">  7  8 -1 -1</clus>
<clus scale="   94.541">  5  6 -1 -1</clus>
<clus scale="  139.160">  1  7  2 -1</clus>
<clus scale="   69.511">  1  5  2 -1</clus>
</clustering>
</event>
<event>
10    4  0.2977685E-005  0.1343182E+03  0.7546771E-02  0.1242816E+00
         21   -1    0    0  501  502  0.00000000000E+00  0.00000000000E+00  0.18837640423E+03  0.18837640423E+03  0.00000000000E+00 0. -1.
          2   -1    0    0  503    0 -0.00000000000E+00 -0.00000000000E+00 -0.18405499638E+04  0.18405499638E+04  0.00000000000E+00 0. -1.
         24    2    1    2    0    0  0.34045553717E+02  0.12260386826E+01 -0.48176214174E+03  0.48938805688E+03  0.79027249169E+02 0.  0.
         23    2    1    2    0    0 -0.57904676071E+01  0.39017046143E+02 -0.28922744292E+03  0.30574511495E+03  0.90948898688E+02 0.  0.
        -11    1    3    3    0    0  0.31553655162E+02  0.37573778740E+02 -0.24846615742E+03  0.25326439423E+03  0.00000000000E+00 0.  1.
         12    1    3    3    0    0  0.24918985556E+01 -0.36347740057E+02 -0.23329598432E+03  0.23612366265E+03  0.00000000000E+00 0. -1.
        -13    1    4    4    0    0  0.38094116249E+02  0.20282407315E+02 -0.77487733826E+02  0.88695471321E+02  0.00000000000E+00 0.  1.
         13    1    4    4    0    0 -0.43884583856E+02  0.18734638828E+02 -0.21173970909E+03  0.21704964362E+03  0.00000000000E+00 0. -1.
         21    1    1    2  503  502 -0.66022783654E+02 -0.16793243307E+03 -0.10232735012E+04  0.10390615806E+04  0.00000000000E+00 0. -1.
          1    1    1    2  501    0  0.37767697544E+02  0.12768934825E+03  0.14208952628E+03  0.19473161559E+03  0.00000000000E+00 0. -1.
<scales pt_clust_5="13000.00000" pt_clust_6="13000.00000" pt_clust_7="13000.00000" pt_clust_8="13000.00000" pt_clust_9="134.31824" pt_clust_10="13000.00000"></scales>
<clustering>
<clus scale="   79.027">  5  6 -1 -1</clus>
<clus scale="   86.058">  2  5  1 -1</clus>
<clus scale="   90.949">  7  8 -1 -1</clus>
<clus scale="   99.086">  2  7  1 -1</clus>
<clus scale="  134.318">  2  9  1 -1</clus>
<clus scale="  134.318">  1  5  2 -1</clus>
</clustering>
</event>
<event>
10    4  0.2977685E-005  0.9183228E+02  0.7546771E-02  0.1304298E+00
          2   -1    0    0  503    0 -0.00000000000E+00  0.00000000000E+00  0.73233844363E+02  0.73233844363E+02  0.00000000000E+00 0. -1.
         21   -1    0    0  501  502  0.00000000000E+00 -0.00000000000E+00 -0.33433984813E+03  0.33433984813E+03  0.00000000000E+00 0.  1.
         24    2    1    2    0    0  0.68794159177E+01  0.65561472556E+01  0.11225138497E+02  0.82550257689E+02  0.81229501291E+02 0.  0.
         23    2    1    2    0    0  0.55702139268E-01  0.18676551453E+02 -0.21026627612E+03  0.22975061042E+03  0.90689687624E+02 0.  0.
        -13    1    3    3    0    0  0.31971170547E+02  0.31135930048E+02  0.15328392476E+02  0.47186454645E+02  0.00000000000E+00 0.  1.
         14    1    3    3    0    0 -0.25091754629E+02 -0.24579782793E+02 -0.41032539783E+01  0.35363803044E+02  0.00000000000E+00 0. -1.
        -11    1    4    4    0    0 -0.21017888730E+02 -0.31560665597E+02 -0.79021373819E+02  0.87648187545E+02  0.00000000000E+00 0. -1.
         11    1    4    4    0    0  0.21073590869E+02  0.50237217050E+02 -0.13124490230E+03  0.14210242288E+03  0.00000000000E+00 0.  1.
         21    1    1    2  503  502 -0.49617936648E+01  0.22699980215E+02 -0.12882828087E+02  0.26568322447E+02  0.00000000000E+00 0. -1.
          1    1    1    2  501    0 -0.19733243921E+01 -0.47932678924E+02 -0.49182038056E+02  0.68704501929E+02  0.00000000000E+00 0. -1.
<scales pt_clust_5="13000.00000" pt_clust_6="13000.00000" pt_clust_7="13000.00000" pt_clust_8="13000.00000" pt_clust_9="23.23593" pt_clust_10="44.67702"></scales>
<clustering>
<clus scale="   23.236">  1  9  2 -1</clus>
<clus scale="   44.677">  2 10  1 -1</clus>
<clus scale="   81.230">  5  6 -1 -1</clus>
<clus scale="   82.503">  1  5  2 -1</clus>
<clus scale="   90.690">  7  8 -1 -1</clus>
<clus scale="   44.677">  2  5  1 -1</clus>
</clustering>
</event>
<event>
10    4  0.2977685E-005  0.9827304E+02  0.7546771E-02  0.1294625E+00
         21   -1    0    0  503  502  0.00000000000E+00  0.00000000000E+00  0.22934203579E+03  0.22934203579E+03  0.00000000000E+00 0. -1.
         -1   -1    0    0    0  501 -0.00000000000E+00 -0.00000000000E+00 -0.12918225173E+03  0.12918225173E+03  0.00000000000E+00 0.  1.
         23    2    1    2    0    0 -0.22271889774E+02 -0.34217283522E+02  0.98731756421E+01  0.10071691811E+03  0.91539928063E+02 0.  0.
         24    2    1    2    0    0  0.32940123909E+01  0.55249815360E+02  0.11685798753E+03  0.14804580372E+03  0.72099779022E+02 0.  0.
        -13    1    4    4    0    0 -0.14044594981E+02  0.31078600871E+02  0.77751992416E+01  0.34979762771E+02  0.00000000000E+00 0.  1.
         14    1    4    4    0    0  0.17338607372E+02  0.24171214490E+02  0.10908278829E+03  0.11306604095E+03  0.00000000000E+00 0. -1.
        -13    1    3    3    0    0  0.22617420850E+02 -0.41270089069E+02 -0.14380367392E+02  0.49209378618E+02  0.00000000000E+00 0. -1.
         13    1    3    3    0    0 -0.44889310624E+02  0.70528055469E+01  0.24253543034E+02  0.51507539488E+02  0.00000000000E+00 0.  1.
         21    1    1    2  503  501 -0.86208735313E+00  0.23312715877E+02 -0.50484517078E+02  0.55613958506E+02  0.00000000000E+00 0.  1.
         -2    1    1    2    0  502  0.19839964736E+02 -0.44345247716E+02  0.23913137968E+02  0.54147607179E+02  0.00000000000E+00 0.  1.
<scales pt_clust_5="13000.00000" pt_clust_6="13000.00000" pt_clust_7="13000.00000" pt_clust_8="13000.00000" pt_clust_9="23.32865" pt_clust_10="44.31974"></scales>
<clustering>
<clus scale="   23.329">  2  9  1 -1</clus>
<clus scale="   44.320">  1 10  2 -1</clus>
<clus scale="   72.100">  5  6 -1 -1</clus>
<clus scale="   80.476">  1  5  2 -1</clus>
<clus scale="   91.540">  7  8 -1 -1</clus>
<clus scale="   44.320">  1  5  2 -1</clus>
</clustering>
</event>
<event>
10    4  0.2977685E-005  0.3583342E+03  0.7546771E-02  0.1059245E+00
         21   -1    0    0  501  502  0.00000000000E+00  0.00000000000E+00  0.20232528078E+03  0.20232528078E+03  0.00000000000E+00 0. -1.
          2   -1    0    0  503    0 -0.00000000000E+00 -0.00000000000E+00 -0.80463990102E+03  0.80463990102E+03  0.00000000000E+00 0. -1.
         24    2    1    2    0    0 -0.11014347140E+02  0.18932157748E+03 -0.17231840463E+02  0.20741247358E+03  0.82213273441E+02 0.  0.
         23    2    1    2    0    0 -0.36230167784E+02  0.98258320934E+02 -0.63815642787E+02  0.15382935474E+03  0.92863940386E+02 0.  0.
        -13    1    3    3    0    0 -0.30529455089E+02  0.53734855131E+02  0.20865924907E+02  0.65229357702E+02  0.00000000000E+00 0.  1.
         14    1    3    3    0    0  0.19515107949E+02  0.13558672234E+03 -0.38097765370E+02  0.14218311588E+03  0.00000000000E+00 0. -1.
        -13    1    4    4    0    0  0.52039991041E+00  0.85824268638E+02 -0.74432615332E+02  0.11360585429E+03  0.00000000000E+00 0.  1.
         13    1    4    4    0    0 -0.36750567694E+02  0.12434052296E+02  0.10616972545E+02  0.40223500449E+02  0.00000000000E+00 0. -1.
         21    1    1    2  503  502  0.76645541977E+01  0.22692964331E+02 -0.18472351892E+03  0.18626995051E+03  0.00000000000E+00 0. -1.
          1    1    1    2  501    0  0.39579960726E+02 -0.31027286274E+03 -0.33654361807E+03  0.45945340298E+03  0.00000000000E+00 0. -1.
<scales pt_clust_5="13000.00000" pt_clust_6="13000.00000" pt_clust_7="13000.00000" pt_clust_8="13000.00000" pt_clust_9="23.95237" pt_clust_10="299.01634"></scales>
<clustering>
<clus scale="   23.952">  2  9  1 -1</clus>
<clus scale="   82.213">  5  6 -1 -1</clus>
<clus scale="   92.864">  7  8 -1 -1</clus>
<clus scale="  104.906">  5  7 -1 -1</clus>
<clus scale="  299.016">  1 10  2 -1</clus>
<clus scale="  299.016">  1  5  2 -1</clus>
</clustering>
</event>
<event>
10    4  0.2977685E-005  0.1292890E+03  0.7546771E-02  0.1242176E+00
         21   -1    0    0  501  502  0.00000000000E+00  0.00000000000E+00  0.78985808693E+02  0.78985808693E+02  0.00000000000E+00 0. -1.
          2   -1    0    0  503    0 -0.00000000000E+00 -0.00000000000E+00 -0.64978072351E+03  0.64978072351E+03  0.00000000000E+00 0. -1.
         24    2    1    2    0    0  0.19789727739E+02 -0.55219362714E+02 -0.89686163084E+02  0.13376930050E+03  0.80061267575E+02 0.  0.
         23    2    1    2    0    0  0.93464780686E+02 -0.98696833362E+01 -0.52157004824E+02  0.14132034444E+03  0.91749717838E+02 0.  0.
        -11    1    3    3    0    0  0.17968373889E+01 -0.32676581832E+02  0.64882529777E+01  0.33362929301E+02  0.00000000000E+00 0.  1.
         12    1    3    3    0    0  0.17992890350E+02 -0.22542780882E+02 -0.96174416061E+02  0.10040637120E+03  0.00000000000E+00 0. -1.
        -11    1    4    4    0    0  0.61059235047E+02  0.35175786169E+01  0.17261543743E+02  0.63549700521E+02  0.00000000000E+00 0. -1.
         11    1    4    4    0    0  0.32405545639E+02 -0.13387261953E+02 -0.69418548568E+02  0.77770643922E+02  0.00000000000E+00 0.  1.
         21    1    1    2  503  502 -0.42997682503E+02  0.16146250310E+01 -0.67648358221E+02  0.80172988498E+02  0.00000000000E+00 0. -1.
          1    1    1    2  501    0 -0.70256825922E+02  0.63474421019E+02 -0.36130338869E+03  0.37350389876E+03  0.00000000000E+00 0. -1.
<scales pt_clust_5="13000.00000" pt_clust_6="13000.00000" pt_clust_7="13000.00000" pt_clust_8="13000.00000" pt_clust_9="43.02799" pt_clust_10="91.09143"></scales>
<clustering>
<clus scale="   43.028">  2  9  1 -1</clus>
<clus scale="   80.061">  5  6 -1 -1</clus>
<clus scale="   91.750">  7  8 -1 -1</clus>
<clus scale="   97.752">  2  5  1 -1</clus>
<clus scale="   91.091">  1 10  2 -1</clus>
<clus scale="   91.091">  1  5  2 -1</clus>
</clustering>
</event>
<event>
10    4  0.2977685E-005  0.1061961E+03  0.7546771E-02  0.1277114E+00
          2   -1    0    0  503    0 -0.00000000000E+00  0.00000000000E+00  0.29860883559E+03  0.29860883559E+03  0.00000000000E+00 0. -1.
         21   -1    0    0  501  502  0.00000000000E+00 -0.00000000000E+00 -0.54067716369E+03  0.54067716369E+03  0.00000000000E+00 0. -1.
         24    2    1    2    0    0  0.48018814014E+02  0.11270519827E+02  0.25587299460E+03  0.27285030719E+03  0.80891715607E+02 0.  0.
         23    2    1    2    0    0  0.65688176892E+00  0.52870942948E+02 -0.27800873866E+03  0.30005695488E+03  0.99747427501E+02 0.  0.
        -13    1    3    3    0    0  0.42298904568E+02  0.27207764034E+01  0.45343227999E+02  0.62069382768E+02  0.00000000000E+00 0.  1.
         14    1    3    3    0    0  0.57199094464E+01  0.85497434241E+01  0.21052976660E+03  0.21078092443E+03  0.00000000000E+00 0. -1.
        -13    1    4    4    0    0  0.13205406813E+02  0.77040147614E+02 -0.24553323970E+03  0.25767448246E+03  0.00000000000E+00 0. -1.
         13    1    4    4    0    0 -0.12548525044E+02 -0.24169204666E+02 -0.32475498963E+02  0.42382472413E+02  0.00000000000E+00 0.  1.
         21    1    1    2  503  502 -0.17814262074E+02  0.14919880321E+02  0.68580287372E+01  0.24227738652E+02  0.00000000000E+00 0.  1.
          1    1    1    2  501    0 -0.30861433709E+02 -0.79061343097E+02 -0.22679061277E+03  0.24215099856E+03  0.00000000000E+00 0. -1.
<scales pt_clust_5="13000.00000" pt_clust_6="13000.00000" pt_clust_7="13000.00000" pt_clust_8="13000.00000" pt_clust_9="23.23684" pt_clust_10="84.67199"></scales>
<clustering>
<clus scale="   23.237">  1  9  2 -1</clus>
<clus scale="   80.892">  5  6 -1 -1</clus>
<clus scale="   84.672">  2 10  1 -1</clus>
<clus scale="   88.722">  1  5  2 -1</clus>
<clus scale="   99.747">  7  8 -1 -1</clus>
<clus scale="   84.672">  2  5  1 -1</clus>
</clustering>
</event>
<event>
10    4  0.2977685E-005  0.4776816E+03  0.7546771E-02  0.1033283E+00
          2   -1    0    0  502    0 -0.00000000000E+00  0.00000000000E+00  0.11756644584E+04  0.11756644584E+04  0.00000000000E+00 0. -1.
         21   -1    0    0  503  502  0.00000000000E+00 -0.00000000000E+00 -0.37584005862E+03  0.37584005862E+03  0.00000000000E+00 0. -1.
         24    2    1    2    0    0 -0.12850391472E+03  0.28058984198E+03  0.23261490910E+03  0.39483352154E+03  0.80869637551E+02 0.  0.
         23    2    1    2    0    0  0.43704158510E+03  0.77026547881E+02  0.10859089602E+03  0.46594183996E+03  0.91495242179E+02 0.  0.
        -11    1    3    3    0    0 -0.20098291168E+02  0.42617907860E+01  0.60543702550E+01  0.21418673343E+02  0.00000000000E+00 0.  1.
         12    1    3    3    0    0 -0.10840562355E+03  0.27632805119E+03  0.22656053884E+03  0.37341484820E+03  0.00000000000E+00 0. -1.
        -13    1    4    4    0    0  0.18984479957E+03  0.57676653727E+01  0.83440523718E+02  0.20745272928E+03  0.00000000000E+00 0.  1.
         13    1    4    4    0    0  0.24719678553E+03  0.71258882509E+02  0.25150372304E+02  0.25848911068E+03  0.00000000000E+00 0. -1.
         21    1    1    2  503  501 -0.12792376571E+03 -0.25778062305E+02  0.17507184083E+03  0.21835555358E+03  0.00000000000E+00 0. -1.
          1    1    1    2  501    0 -0.18061390467E+03 -0.33183832756E+03  0.28354675380E+03  0.47237360191E+03  0.00000000000E+00 0. -1.
<scales pt_clust_5="13000.00000" pt_clust_6="13000.00000" pt_clust_7="13000.00000" pt_clust_8="13000.00000" pt_clust_9="122.84492" pt_clust_10="122.84492"></scales>
<clustering>
<clus scale="   80.870">  5  6 -1 -1</clus>
<clus scale="   91.495">  7  8 -1 -1</clus>
<clus scale="  122.845">  9 10 -1 -1</clus>
<clus scale="  319.036">  1  5  2 -1</clus>
<clus scale="  439.159">  1  7  2 -1</clus>
<clus scale="  477.682">  2  5  1 -1</clus>
</clustering>
</event>
<event>
10    4  0.2977685E-005  0.1457048E+03  0.7546771E-02  0.1231796E+00
         21   -1    0    0  501  502  0.00000000000E+00  0.00000000000E+00  0.41091570026E+03  0.41091570026E+03  0.00000000000E+00 0.  1.
          2   -1    0    0  503    0 -0.00000000000E+00 -0.00000000000E+00 -0.18014575832E+03  0.18014575832E+03  0.00000000000E+00 0. -1.
         24    2    1    2    0    0  0.69283939688E+01  0.28783331442E+02  0.62235494624E+02  0.10648261903E+03  0.81171476230E+02 0.  0.
         23    2    1    2    0    0 -0.97927037426E+02  0.70075543449E+02  0.22434514841E+03  0.27048281299E+03  0.91268395740E+02 0.  0.
        -11    1    3    3    0    0  0.14903501546E+02  0.50420972794E+02  0.64610474909E+02  0.83300073972E+02  0.00000000000E+00 0.  1.
         12    1    3    3    0    0 -0.79751075775E+01 -0.21637641352E+02 -0.23749802849E+01  0.23182545061E+02  0.00000000000E+00 0. -1.
        -11    1    4    4    0    0 -0.11310630996E+03  0.53743895650E+02  0.16536956860E+03  0.20743321309E+03  0.00000000000E+00 0. -1.
         11    1    4    4    0    0  0.15179272534E+02  0.16331647799E+02  0.58975579811E+02  0.63049599908E+02  0.00000000000E+00 0.  1.
         21    1    1    2  503  502  0.13725849311E+02 -0.29913254027E+02 -0.97162763204E+02  0.10258559479E+03  0.00000000000E+00 0.  1.
          1    1    1    2  501    0  0.77272794147E+02 -0.68945620864E+02  0.41352062109E+02  0.11151043176E+03  0.00000000000E+00 0. -1.
<scales pt_clust_5="13000.00000" pt_clust_6="13000.00000" pt_clust_7="13000.00000" pt_clust_8="13000.00000" pt_clust_9="32.91203" pt_clust_10="113.57805"></scales>
<clustering>
<clus scale="   32.912">  2  9  1 -1</clus>
<clus scale="   81.171">  5  6 -1 -1</clus>
<clus scale="   84.412">  2  5  1 -1</clus>
<clus scale="   91.268">  7  8 -1 -1</clus>
<clus scale="  113.578">  1 10  2 -1</clus>
<clus scale="  113.578">  1  5  2 -1</clus>
</clustering>
</event>
<event>
10    4  0.2977685E-005  0.2040248E+03  0.7546771E-02  0.1147221E+00
         21   -1    0    0  501  502  0.00000000000E+00  0.00000000000E+00  0.63790055357E+03  0.63790055357E+03  0.00000000000E+00 0. -1.
          2   -1    0    0  503    0 -0.00000000000E+00 -0.00000000000E+00 -0.37893256291E+03  0.37893256291E+03  0.00000000000E+00 0. -1.
         24    2    1    2    0    0  0.12734531795E+03  0.89388823149E+02 -0.19653350332E+03  0.26361828375E+03  0.81621013771E+02 0.  0.
         23    2    1    2    0    0 -0.88295513720E+02 -0.13061869765E+03  0.46580783444E+03  0.50011895580E+03  0.91020269174E+02 0.  0.
        -11    1    3    3    0    0  0.32815356698E+02 -0.13559592238E+02 -0.47467995753E+02  0.59278333290E+02  0.00000000000E+00 0.  1.
         12    1    3    3    0    0  0.94529961256E+02  0.10294841539E+03 -0.14906550757E+03  0.20433995046E+03  0.00000000000E+00 0. -1.
        -13    1    4    4    0    0 -0.16537706687E+02 -0.97409087060E+02  0.31051229868E+03  0.32585259492E+03  0.00000000000E+00 0. -1.
         13    1    4    4    0    0 -0.71757807033E+02 -0.33209610593E+02  0.15529553576E+03  0.17426636088E+03  0.00000000000E+00 0.  1.
         21    1    1    2  503  502  0.17227046609E+02  0.32672442073E+02 -0.12214316040E+03  0.12760568655E+03  0.00000000000E+00 0.  1.
          1    1    1    2  501    0 -0.56276850842E+02  0.85574324307E+01  0.11183681993E+03  0.12549019039E+03  0.00000000000E+00 0. -1.
<scales pt_clust_5="13000.00000" pt_clust_6="13000.00000" pt_clust_7="13000.00000" pt_clust_8="13000.00000" pt_clust_9="36.93589" pt_clust_10="56.60586"></scales>
<clustering>
<clus scale="   36.936">  2  9  1 -1</clus>
<clus scale="   56.606">  1 10  2 -1</clus>
<clus scale="   81.621">  5  6 -1 -1</clus>
<clus scale="   91.020">  7  8 -1 -1</clus>
<clus scale="  200.009">  2  5  1 -1</clus>
<clus scale="   56.606">  1  5  2 -1</clus>
</clustering>
</event>
<event>
10    4  0.2977685E-005  0.1293996E+03  0.7546771E-02  0.1231040E+00
         21   -1    0    0  501  502  0.00000000000E+00  0.00000000000E+00  0.10603937406E+03  0.10603937406E+03  0.00000000000E+00 0.  1.
          2   -1    0    0  503    0 -0.00000000000E+00 -0.00000000000E+00 -0.42330526640E+03  0.42330526640E+03  0.00000000000E+00 0. -1.
         23    2    1    2    0    0 -0.86021541979E+02  0.28348818548E+02 -0.16646948730E+03  0.20954196048E+03  0.89400121945E+02 0.  0.
         24    2    1    2    0    0  0.80480873547E+02 -0.68400216141E+02 -0.13435724447E+03  0.18825001082E+03  0.78933116356E+02 0.  0.
        -11    1    4    4    0    0 -0.13476441332E+02 -0.24734337893E+02 -0.31472056337E+02  0.42236148878E+02  0.00000000000E+00 0.  1.
         12    1    4    4    0    0  0.93957314879E+02 -0.43665878249E+02 -0.10288518813E+03  0.14601386194E+03  0.00000000000E+00 0. -1.
        -11    1    3    3    0    0 -0.14557147886E+02 -0.23623173751E+02 -0.93541751757E+01  0.29282511604E+02  0.00000000000E+00 0.  1.
         11    1    3    3    0    0 -0.71464394092E+02  0.51971992299E+02 -0.15711531212E+03  0.18025944888E+03  0.00000000000E+00 0. -1.
         21    1    1    2  503  502  0.31084271590E+02  0.23884864695E+02 -0.64086270255E+02  0.75125020712E+02  0.00000000000E+00 0. -1.
          1    1    1    2  501    0 -0.25543603159E+02  0.16166532898E+02  0.47647109683E+02  0.56427648448E+02  0.00000000000E+00 0. -1.
<scales pt_clust_5="13000.00000" pt_clust_6="13000.00000" pt_clust_7="13000.00000" pt_clust_8="13000.00000" pt_clust_9="38.24776" pt_clust_10="30.22966"></scales>
<clustering>
<clus scale="   30.230">  1 10  2 -1</clus>
<clus scale="   38.248">  2  9  1 -1</clus>
<clus scale="   78.933">  5  6 -1 -1</clus>
<clus scale="   89.400">  7  8 -1 -1</clus>
<clus scale="  122.402">  1  5  2 -1</clus>
<clus scale="   30.230">  1  5  2 -1</clus>
</clustering>
</event>
<event>
10    4  0.2977685E-005  0.1257654E+03  0.7546771E-02  0.1253352E+00
         -3   -1    0    0    0  501 -0.00000000000E+00  0.00000000000E+00  0.91195634647E+03  0.91195634647E+03  0.00000000000E+00 0.  1.
         21   -1    0    0  503  502  0.00000000000E+00 -0.00000000000E+00 -0.85484660244E+02  0.85484660244E+02  0.00000000000E+00 0.  1.
         23    2    1    2    0    0  0.63566417707E+02  0.69951840687E+02  0.47890484893E+03  0.49633830616E+03  0.89821547285E+02 0.  0.
         24    2    1    2    0    0  0.21100139465E+01 -0.16727395406E+00  0.19331010984E+03  0.21050157287E+03  0.83292457483E+02 0.  0.
        -13    1    4    4    0    0  0.41572877595E+02 -0.74315960772E+00  0.12344624336E+03  0.13026062889E+03  0.00000000000E+00 0.  1.
         14    1    4    4    0    0 -0.39462863648E+02  0.57588565366E+00  0.69863866478E+02  0.80240943981E+02  0.00000000000E+00 0. -1.
        -11    1    3    3    0    0 -0.20562923237E+02  0.31926387256E+02  0.13124234413E+03  0.13662606234E+03  0.00000000000E+00 0.  1.
         11    1    3    3    0    0  0.84129340944E+02  0.38025453431E+02  0.34766250479E+03  0.35971224382E+03  0.00000000000E+00 0. -1.
         21    1    1    2  503  501 -0.83530507682E+02 -0.26570691075E+02  0.20418079930E+03  0.22220068888E+03  0.00000000000E+00 0.  1.
         -4    1    1    2    0  502  0.17854076029E+02 -0.43213875658E+02 -0.49924071839E+02  0.68400438809E+02  0.00000000000E+00 0.  1.
<scales pt_clust_5="13000.00000" pt_clust_6="13000.00000" pt_clust_7="13000.00000" pt_clust_8="13000.00000" pt_clust_9="88.02855" pt_clust_10="46.75689"></scales>
<clustering>
<clus scale="   46.757">  2 10  1 -1</clus>
<clus scale="   83.292">  5  6 -1 -1</clus>
<clus scale="   84.880">  2  5  1 -1</clus>
<clus scale="   88.029">  2  9  1 -1</clus>
<clus scale="   89.822">  7  8 -1 -1</clus>
<clus scale="   46.757">  2  5  1 -1</clus>
</clustering>
</event>
<event>
10    4  0.2977685E-005  0.1012910E+03  0.7546771E-02  0.1288675E+00
          2   -1    0    0  503    0 -0.00000000000E+00  0.00000000000E+00  0.49310661419E+03  0.49310661419E+03  0.00000000000E+00 0. -1.
         21   -1    0    0  501  502  0.00000000000E+00 -0.00000000000E+00 -0.19178556899E+03  0.19178556899E+03  0.00000000000E+00 0. -1.
         24    2    1    2    0    0 -0.85452271081E+01 -0.91516711006E+01  0.24479662002E+03  0.25764377749E+03  0.79360928163E+02 0.  0.
         23    2    1    2    0    0 -0.21857344681E+02  0.44632534022E+01  0.51076571049E+02  0.11365847266E+03  0.99054369669E+02 0.  0.
        -13    1    3    3    0    0 -0.12614241851E+02  0.24329155488E+02  0.31739073588E+02  0.41933229025E+02  0.00000000000E+00 0.  1.
         14    1    3    3    0    0  0.40690147432E+01 -0.33480826589E+02  0.21305754643E+03  0.21571054847E+03  0.00000000000E+00 0. -1.
        -13    1    4    4    0    0  0.38321519913E+02 -0.26858629203E+01  0.78230985031E+01  0.39204000028E+02  0.00000000000E+00 0.  1.
         13    1    4    4    0    0 -0.60178864594E+02  0.71491163225E+01  0.43253472546E+02  0.74454472635E+02  0.00000000000E+00 0. -1.
         21    1    1    2  503  502  0.15324488772E+02 -0.22286109528E+02  0.15679982976E+03  0.15911535830E+03  0.00000000000E+00 0. -1.
          1    1    1    2  501    0  0.15078083018E+02  0.26974527227E+02 -0.15135197563E+03  0.15447457472E+03  0.00000000000E+00 0. -1.
<scales pt_clust_5="13000.00000" pt_clust_6="13000.00000" pt_clust_7="13000.00000" pt_clust_8="13000.00000" pt_clust_9="27.04645" pt_clust_10="30.84706"></scales>
<clustering>
<clus scale="   27.046">  1  9  2 -1</clus>
<clus scale="   30.847">  2 10  1 -1</clus>
<clus scale="   79.361">  5  6 -1 -1</clus>
<clus scale="   82.136">  1  5  2 -1</clus>
<clus scale="   99.054">  7  8 -1 -1</clus>
<clus scale="   30.847">  2  5  1 -1</clus>
</clustering>
</event>
<event>
10    4  0.2977685E-005  0.1562112E+03  0.7546771E-02  0.1194827E+00
         21   -1    0    0  501  502  0.00000000000E+00  0.00000000000E+00  0.13132668832E+04  0.13132668832E+04  0.00000000000E+00 0.  1.
          4   -1    0    0  503    0 -0.00000000000E+00 -0.00000000000E+00 -0.70935634449E+02  0.70935634449E+02  0.00000000000E+00 0. -1.
         24    2    1    2    0    0  0.11187242682E+03 -0.15950657278E+02  0.23624225519E+03  0.27394845281E+03  0.80420695770E+02 0.  0.
         23    2    1    2    0    0 -0.19367483084E+03 -0.45012399531E+02  0.93956515593E+03  0.96468934434E+03  0.91141607501E+02 0.  0.
        -13    1    3    3    0    0  0.12249126794E+03 -0.85827189122E+01  0.22692034393E+03  0.25801282192E+03  0.00000000000E+00 0.  1.
         14    1    3    3    0    0 -0.10618841114E+02 -0.73679383656E+01  0.93219112608E+01  0.15935630892E+02  0.00000000000E+00 0. -1.
        -13    1    4    4    0    0 -0.34985287515E+02 -0.52136362132E+01  0.56961367122E+02  0.67050351896E+02  0.00000000000E+00 0. -1.
         13    1    4    4    0    0 -0.15868954332E+03 -0.39798763318E+02  0.88260378881E+03  0.89763899244E+03  0.00000000000E+00 0.  1.
         21    1    1    2  503  502 -0.11582368735E+02  0.18703876162E+02  0.29022895268E+02  0.36418603745E+02  0.00000000000E+00 0. -1.
          3    1    1    2  501    0  0.93384772751E+02  0.42259180646E+02  0.37500942393E+02  0.10914611679E+03  0.00000000000E+00 0. -1.
<scales pt_clust_5="13000.00000" pt_clust_6="13000.00000" pt_clust_7="13000.00000" pt_clust_8="13000.00000" pt_clust_9="21.99969" pt_clust_10="101.65456"></scales>
<clustering>
<clus scale="   22.000">  2  9  1 -1</clus>
<clus scale="   80.421">  5  6 -1 -1</clus>
<clus scale="   91.142">  7  8 -1 -1</clus>
<clus scale="  101.655">  1 10  2 -1</clus>
<clus scale="  150.209">  2  5  1 -1</clus>
<clus scale="  101.655">  1  5  2 -1</clus>
</clustering>
</event>
<event>
10    4  0.2977685E-005  0.1131041E+03  0.7546771E-02  0.1262722E+00
          2   -1    0    0  503    0 -0.00000000000E+00  0.00000000000E+00  0.13815478903E+03  0.13815478903E+03  0.00000000000E+00 0. -1.
         21   -1    0    0  501  502  0.00000000000E+00 -0.00000000000E+00 -0.31530117613E+03  0.31530117613E+03  0.00000000000E+00 0. -1.
         23    2    1    2    0    0  0.20022351765E+02  0.40335615492E+02 -0.35284980419E+02  0.11467694087E+03  0.99387697814E+02 0.  0.
         24    2    1    2    0    0 -0.53213697322E+02 -0.14417825566E+01 -0.17866758912E+03  0.20310605931E+03  0.80598930541E+02 0.  0.
        -13    1    4    4    0    0  0.57683493402E+01  0.29271308308E+02 -0.62377001543E+02  0.69144585223E+02  0.00000000000E+00 0.  1.
         14    1    4    4    0    0 -0.58982046663E+02 -0.30713090864E+02 -0.11629058758E+03  0.13396147408E+03  0.00000000000E+00 0. -1.
        -13    1    3    3    0    0  0.46254123406E+02  0.11535467433E+02 -0.53513437123E+02  0.71667279101E+02  0.00000000000E+00 0. -1.
         13    1    3    3    0    0 -0.26231771641E+02  0.28800148059E+02  0.18228456704E+02  0.43009661769E+02  0.00000000000E+00 0.  1.
         21    1    1    2  503  502  0.41530531633E+02  0.33885450580E+02  0.31624656764E+02  0.62234457772E+02  0.00000000000E+00 0. -1.
          1    1    1    2  501    0 -0.83391860757E+01 -0.72779283515E+02  0.51815256780E+01  0.73438507213E+02  0.00000000000E+00 0. -1.
<scales pt_clust_5="13000.00000" pt_clust_6="13000.00000" pt_clust_7="13000.00000" pt_clust_8="13000.00000" pt_clust_9="53.60046" pt_clust_10="58.95740"></scales>
<clustering>
<clus scale="   53.600">  1  9  2 -1</clus>
<clus scale="   58.957">  2 10  1 -1</clus>
<clus scale="   80.599">  5  6 -1 -1</clus>
<clus scale="   97.009">  2  5  1 -1</clus>
<clus scale="   99.388">  7  8 -1 -1</clus>
<clus scale="   58.957">  2  5  1 -1</clus>
</clustering>
</event>
<event>
10    4  0.2977685E-005  0.9298456E+02  0.7546771E-02  0.1300089E+00
          2   -1    0    0  503    0 -0.00000000000E+00  0.00000000000E+00  0.55002652679E+03  0.55002652679E+03  0.00000000000E+00 0. -1.
         21   -1    0    0  501  502  0.00000000000E+00 -0.00000000000E+00 -0.44226693727E+02  0.44226693727E+02  0.00000000000E+00 0. -1.
         24    2    1    2    0    0  0.27457062401E+02  0.15756408808E+02  0.16512572342E+03  0.18650454417E+03  0.80717320120E+02 0.  0.
         23    2    1    2    0    0  0.53343103032E+01 -0.32115987914E+02  0.51705663897E+02  0.10734199691E+03  0.88254954957E+02 0.  0.
        -11    1    3    3    0    0  0.19956938887E+02 -0.25714611297E+02  0.12175295468E+03  0.12602897530E+03  0.00000000000E+00 0.  1.
         12    1    3    3    0    0  0.75001235137E+01  0.41471020105E+02  0.43372768742E+02  0.60475568865E+02  0.00000000000E+00 0. -1.
        -13    1    4    4    0    0 -0.20614099562E+02  0.23390142343E+02  0.83314678170E+01  0.32271554279E+02  0.00000000000E+00 0. -1.
         13    1    4    4    0    0  0.25948409865E+02 -0.55506130257E+02  0.43374196080E+02  0.75070442627E+02  0.00000000000E+00 0.  1.
         21    1    1    2  503  502  0.20803694322E+02 -0.57989514403E+01  0.49331439301E+02  0.53851763563E+02  0.00000000000E+00 0. -1.
          1    1    1    2  501    0 -0.53595067026E+02  0.22158530546E+02  0.23963700645E+03  0.24655491588E+03  0.00000000000E+00 0. -1.
<scales pt_clust_5="13000.00000" pt_clust_6="13000.00000" pt_clust_7="13000.00000" pt_clust_8="13000.00000" pt_clust_9="21.59679" pt_clust_10="47.55474"></scales>
<clustering>
<clus scale="   21.597">  1  9  2 -1</clus>
<clus scale="   47.555">  2 10  1 -1</clus>
<clus scale="   80.717">  5  6 -1 -1</clus>
<clus scale="   85.863">  1  5  2 -1</clus>
<clus scale="   88.255">  7  8 -1 -1</clus>
<clus scale="   47.555">  2  5  1 -1</clus>
</clustering>
</event>
<event>
10    4  0.2977685E-005  0.2261151E+03  0.7546771E-02  0.1157489E+00
          2   -1    0    0  503    0 -0.00000000000E+00  0.00000000000E+00  0.35653217282E+03  0.35653217282E+03  0.00000000000E+00 0. -1.
         21   -1    0    0  501  502  0.00000000000E+00 -0.00000000000E+00 -0.30265006046E+03  0.30265006046E+03  0.00000000000E+00 0. -1.
         23    2    1    2    0    0 -0.59644199363E+02 -0.46515307522E+02 -0.80844090545E+02  0.14172991559E+03  0.88490099132E+02 0.  0.
         24    2    1    2    0    0  0.22881592465E+03  0.16578610488E+02 -0.47994982750E+02  0.24683370925E+03  0.77406614409E+02 0.  0.
        -11    1    4    4    0    0  0.40980483399E+02  0.33552701907E+02 -0.36495638756E+01  0.53089576579E+02  0.00000000000E+00 0.  1.
         12    1    4    4    0    0  0.18783544125E+03 -0.16974091419E+02 -0.44345418875E+02  0.19374413267E+03  0.00000000000E+00 0. -1.
        -13    1    3    3    0    0 -0.61848063429E+02  0.10978022413E+01 -0.68896721378E+02  0.92591286503E+02  0.00000000000E+00 0.  1.
         13    1    3    3    0    0  0.22038640659E+01 -0.47613109763E+02 -0.11947369167E+02  0.49138629083E+02  0.00000000000E+00 0. -1.
         21    1    1    2  503  502  0.90695288981E+01  0.18823856936E+02  0.16176038371E+02  0.26424574959E+02  0.00000000000E+00 0. -1.
          1    1    1    2  501    0 -0.17824125418E+03  0.11112840098E+02  0.16654514729E+03  0.24419403349E+03  0.00000000000E+00 0. -1.
<scales pt_clust_5="13000.00000" pt_clust_6="13000.00000" pt_clust_7="13000.00000" pt_clust_8="13000.00000" pt_clust_9="20.89483" pt_clust_10="212.45309"></scales>
<clustering>
<clus scale="   20.895">  1  9  2 -1</clus>
<clus scale="   77.407">  5  6 -1 -1</clus>
<clus scale="   88.490">  7  8 -1 -1</clus>
<clus scale="  115.317">  1  7  2 -1</clus>
<clus scale="  212.453">  2 10  1 -1</clus>
<clus scale="  212.453">  2  5  1 -1</clus>
</clustering>
</event>
<event>
10    4  0.2977685E-005  0.1536170E+03  0.7546771E-02  0.1219674E+00
         -1   -1    0    0    0  501 -0.00000000000E+00  0.00000000000E+00  0.20335936410E+03  0.20335936410E+03  0.00000000000E+00 0.  1.
         21   -1    0    0  503  502  0.00000000000E+00 -0.00000000000E+00 -0.38485978055E+03  0.38485978055E+03  0.00000000000E+00 0.  1.
         23    2    1    2    0    0  0.15633724997E+02 -0.11946330939E+02 -0.87793554778E+02  0.12759410143E+03  0.90473301468E+02 0.  0.
         24    2    1    2    0    0 -0.12990541420E+03  0.48180161825E+02 -0.11311397133E+03  0.19581124108E+03  0.79690193825E+02 0.  0.
        -13    1    4    4    0    0 -0.12391630214E+03  0.64549057595E+02 -0.87596660444E+02  0.16490908312E+03  0.00000000000E+00 0.  1.
         14    1    4    4    0    0 -0.59891120550E+01 -0.16368895770E+02 -0.25517310889E+02  0.30902157966E+02  0.00000000000E+00 0. -1.
        -13    1    3    3    0    0  0.27901095486E+02  0.32791503142E+02 -0.25897653308E+02  0.50243828024E+02  0.00000000000E+00 0. -1.
         13    1    3    3    0    0 -0.12267370490E+02 -0.44737834080E+02 -0.61895901469E+02  0.77350273404E+02  0.00000000000E+00 0.  1.
         21    1    1    2  503  501  0.22199723838E+02  0.56682441129E+02  0.95672152702E+02  0.11339703556E+03  0.00000000000E+00 0.  1.
         -2    1    1    2    0  502  0.92071965364E+02 -0.92916272016E+02 -0.76265043044E+02  0.15141676658E+03  0.00000000000E+00 0.  1.
<scales pt_clust_5="13000.00000" pt_clust_6="13000.00000" pt_clust_7="13000.00000" pt_clust_8="13000.00000" pt_clust_9="60.87468" pt_clust_10="131.33034"></scales>
<clustering>
<clus scale="   60.875">  1  9  2 -1</clus>
<clus scale="   79.690">  5  6 -1 -1</clus>
<clus scale="   90.473">  7  8 -1 -1</clus>
<clus scale="   92.682">  1  7  2 -1</clus>
<clus scale="  131.330">  2 10  1 -1</clus>
<clus scale="  131.330">  2  5  1 -1</clus>
</clustering>
</event>
<event>
10    4  0.2977685E-005  0.1380655E+03  0.7546771E-02  0.1232069E+00
         21   -1    0    0  501  502  0.00000000000E+00  0.00000000000E+00  0.13213655893E+03  0.13213655893E+03  0.00000000000E+00 0.  1.
          2   -1    0    0  503    0 -0.00000000000E+00 -0.00000000000E+00 -0.10493566701E+04  0.10493566701E+04  0.00000000000E+00 0. -1.
         23    2    1    2    0    0 -0.13843072237E+03 -0.13426694545E+03 -0.83256314976E+02  0.22907030013E+03  0.91383318400E+02 0.  0.
         24    2    1    2    0    0  0.49037110166E+02 -0.22327498954E+02 -0.12067898951E+03  0.15335166687E+03  0.77782773407E+02 0.  0.
        -11    1    4    4    0    0  0.51854865972E+02 -0.43260244816E+02 -0.11142546773E+03  0.13029202111E+03  0.00000000000E+00 0.  1.
         12    1    4    4    0    0 -0.28177558059E+01  0.20932745862E+02 -0.92535217823E+01  0.23059645758E+02  0.00000000000E+00 0. -1.
        -13    1    3    3    0    0 -0.10914253845E+03 -0.12918256627E+03 -0.98451241861E+02  0.19568565648E+03  0.00000000000E+00 0.  1.
         13    1    3    3    0    0 -0.29288183914E+02 -0.50843791855E+01  0.15194926885E+02  0.33384643651E+02  0.00000000000E+00 0. -1.
         21    1    1    2  503  502  0.29586078437E+02  0.95750108828E+02 -0.70640390896E+03  0.71347733108E+03  0.00000000000E+00 0. -1.
          1    1    1    2  501    0  0.59807533765E+02  0.60844335580E+02 -0.68808977611E+01  0.85593930983E+02  0.00000000000E+00 0. -1.
<scales pt_clust_5="13000.00000" pt_clust_6="13000.00000" pt_clust_7="13000.00000" pt_clust_8="13000.00000" pt_clust_9="103.49485" pt_clust_10="85.31690"></scales>
<clustering>
<clus scale="   77.783">  5  6 -1 -1</clus>
<clus scale="   85.317">  1 10  2 -1</clus>
<clus scale="   91.383">  7  8 -1 -1</clus>
<clus scale="   98.658">  1  5  2 -1</clus>
<clus scale="  103.495">  2  9  1 -1</clus>
<clus scale="   85.317">  1  5  2 -1</clus>
</clustering>
</event>
<event>
10    4  0.2977685E-005  0.1770137E+03  0.7546771E-02  0.1171893E+00
         21   -1    0    0  501  502  0.00000000000E+00  0.00000000000E+00  0.94003127044E+02  0.94003127044E+02  0.00000000000E+00 0. -1.
          2   -1    0    0  503    0 -0.00000000000E+00 -0.00000000000E+00 -0.18617705268E+04  0.18617705268E+04  0.00000000000E+00 0. -1.
         24    2    1    2    0    0 -0.15314501300E+03 -0.40553702996E+02 -0.30521295099E+03  0.35369417524E+03  0.82744343060E+02 0.  0.
         23    2    1    2    0    0  0.18396561535E+03  0.61597218431E+02 -0.17260255689E+03  0.27550482180E+03  0.92052698170E+02 0.  0.
        -13    1    3    3    0    0 -0.84574860374E+02  0.15428824116E+02 -0.18876536344E+03  0.20742063074E+03  0.00000000000E+00 0.  1.
         14    1    3    3    0    0 -0.68570152630E+02 -0.55982527112E+02 -0.11644758755E+03  0.14627354450E+03  0.00000000000E+00 0. -1.
        -11    1    4    4    0    0  0.69625213921E+02  0.44655845296E+02 -0.12632563378E+03  0.15099662474E+03  0.00000000000E+00 0.  1.
         11    1    4    4    0    0  0.11434040143E+03  0.16941373135E+02 -0.46276923110E+02  0.12450819706E+03  0.00000000000E+00 0. -1.
         21    1    1    2  503  502  0.64819468747E+02  0.10403666003E+03 -0.86013149343E+03  0.86882183223E+03  0.00000000000E+00 0. -1.
          1    1    1    2  501    0 -0.95640071095E+02 -0.12508017547E+03 -0.42982039842E+03  0.45775282456E+03  0.00000000000E+00 0. -1.
<scales pt_clust_5="13000.00000" pt_clust_6="13000.00000" pt_clust_7="13000.00000" pt_clust_8="13000.00000" pt_clust_9="122.57728" pt_clust_10="103.28971"></scales>
<clustering>
<clus scale="   82.744">  5  6 -1 -1</clus>
<clus scale="   92.053">  7  8 -1 -1</clus>
<clus scale="  122.577">  2  9  1 -1</clus>
<clus scale="  103.290">  1 10  2 -1</clus>
<clus scale="  172.357">  2  5  1 -1</clus>
<clus scale="  103.290">  1  5  2 -1</clus>
</clustering>
</event>
<event>
10    4  0.2977685E-005  0.2820402E+03  0.7546771E-02  0.1095076E+00
          2   -1    0    0  503    0 -0.00000000000E+00  0.00000000000E+00  0.33237606237E+03  0.33237606237E+03  0.00000000000E+00 0. -1.
         21   -1    0    0  501  502  0.00000000000E+00 -0.00000000000E+00 -0.93150812872E+03  0.93150812872E+03  0.00000000000E+00 0. -1.
         24    2    1    2    0    0 -0.21236330358E+03  0.27348867429E+03  0.53765052509E+02  0.35950861063E+03  0.80383658634E+02 0.  0.
         23    2    1    2    0    0 -0.35271541847E+02 -0.21546556521E+03 -0.38067413800E+03  0.44842359097E+03  0.92203178583E+02 0.  0.
        -11    1    3    3    0    0 -0.12844627659E+03  0.15116513966E+03 -0.86877671229E+01  0.19855685008E+03  0.00000000000E+00 0.  1.
         12    1    3    3    0    0 -0.83917026990E+02  0.12232353463E+03  0.62452819632E+02  0.16095176055E+03  0.00000000000E+00 0. -1.
        -13    1    4    4    0    0 -0.58341571305E+02 -0.14833209789E+03 -0.30819088731E+03  0.34696941253E+03  0.00000000000E+00 0. -1.
         13    1    4    4    0    0  0.23070029458E+02 -0.67133467317E+02 -0.72483250690E+02  0.10145417844E+03  0.00000000000E+00 0.  1.
         21    1    1    2  503  502  0.33210278156E+02 -0.57907381170E+02  0.39526821074E+02  0.77579359068E+02  0.00000000000E+00 0.  1.
          1    1    1    2  501    0  0.21442456727E+03 -0.11572790831E+00 -0.31174980194E+03  0.37837263042E+03  0.00000000000E+00 0. -1.
<scales pt_clust_5="13000.00000" pt_clust_6="13000.00000" pt_clust_7="13000.00000" pt_clust_8="13000.00000" pt_clust_9="66.75468" pt_clust_10="218.58201"></scales>
<clustering>
<clus scale="   66.755">  1  9  2 -1</clus>
<clus scale="   80.384">  5  6 -1 -1</clus>
<clus scale="   92.203">  7  8 -1 -1</clus>
<clus scale="  218.582">  2 10  1 -1</clus>
<clus scale="  278.400">  1  5  2 -1</clus>
<clus scale="  218.582">  2  5  1 -1</clus>
</clustering>
</event>
<event>
10    4  0.2977685E-005  0.1502067E+03  0.7546771E-02  0.1201929E+00
         21   -1    0    0  501  502  0.00000000000E+00  0.00000000000E+00  0.17306122992E+03  0.17306122992E+03  0.00000000000E+00 0.  1.
          2   -1    0    0  503    0 -0.00000000000E+00 -0.00000000000E+00 -0.32296590688E+03  0.32296590688E+03  0.00000000000E+00 0. -1.
         23    2    1    2    0    0 -0.44910953795E+02  0.15223174738E+03  0.60474689674E+01  0.18377729447E+03  0.92444704542E+02 0.  0.
         24    2    1    2    0    0 -0.10694778814E+02 -0.82478876082E+02 -0.49168477101E+02  0.12754777867E+03  0.83269162421E+02 0.  0.
        -13    1    4    4    0    0  0.33394156134E+02 -0.13953069107E+02 -0.16032516299E+02  0.39584079884E+02  0.00000000000E+00 0.  1.
         14    1    4    4    0    0 -0.44088934948E+02 -0.68525806975E+02 -0.33135960802E+02  0.87963698789E+02  0.00000000000E+00 0. -1.
        -11    1    3    3    0    0 -0.15620589570E+02  0.16706319366E+02  0.35308460030E+02  0.42068887256E+02  0.00000000000E+00 0. -1.
         11    1    3    3    0    0 -0.29290364225E+02  0.13552542802E+03 -0.29260991063E+02  0.14170840721E+03  0.00000000000E+00 0.  1.
         21    1    1    2  503  502  0.77876686960E+02 -0.88427709613E+02 -0.10071923735E+03  0.15501162205E+03  0.00000000000E+00 0. -1.
          1    1    1    2  501    0 -0.22270954350E+02  0.18674838311E+02 -0.60644314715E+01  0.29690441605E+02  0.00000000000E+00 0. -1.
<scales pt_clust_5="13000.00000" pt_clust_6="13000.00000" pt_clust_7="13000.00000" pt_clust_8="13000.00000" pt_clust_9="112.99642" pt_clust_10="29.06450"></scales>
<clustering>
<clus scale="   29.064">  1 10  2 -1</clus>
<clus scale="   83.269">  5  6 -1 -1</clus>
<clus scale="   92.445">  7  8 -1 -1</clus>
<clus scale="  112.996">  2  9  1 -1</clus>
<clus scale="  144.740">  1  5  2 -1</clus>
<clus scale="   29.064">  1  5  2 -1</clus>
</clustering>
</event>
<event>
10    4  0.2977685E-005  0.1742855E+03  0.7546771E-02  0.1201786E+00
          2   -1    0    0  503    0 -0.00000000000E+00  0.00000000000E+00  0.38290421024E+03  0.38290421024E+03  0.00000000000E+00 0. -1.
         21   -1    0    0  501  502  0.00000000000E+00 -0.00000000000E+00 -0.16806472251E+03  0.16806472251E+03  0.00000000000E+00 0.  1.
         24    2    1    2    0    0 -0.44485541245E+02 -0.53300503034E+01 -0.26810965569E+02  0.95714542701E+02  0.80218906710E+02 0.  0.
         23    2    1    2    0    0  0.17097376316E+03  0.74475745708E+02  0.64221272848E+02  0.21564635813E+03  0.87179788383E+02 0.  0.
        -11    1    3    3    0    0 -0.20095830773E+02 -0.42715999543E+02 -0.12411280301E+02  0.48811258026E+02  0.00000000000E+00 0.  1.
         12    1    3    3    0    0 -0.24389710472E+02  0.37385949240E+02 -0.14399685268E+02  0.46903284675E+02  0.00000000000E+00 0. -1.
        -11    1    4    4    0    0  0.52886644081E+02  0.34839928472E+02  0.65456241940E+02  0.91078742564E+02  0.00000000000E+00 0. -1.
         11    1    4    4    0    0  0.11808711908E+03  0.39635817236E+02 -0.12349690919E+01  0.12456761557E+03  0.00000000000E+00 0.  1.
         21    1    1    2  503  502 -0.13355892636E+02 -0.36484029145E+02  0.70759390921E+02  0.80723947217E+02  0.00000000000E+00 0.  1.
          1    1    1    2  501    0 -0.11313232928E+03 -0.32661666260E+02  0.10666978954E+03  0.15888408470E+03  0.00000000000E+00 0. -1.
<scales pt_clust_5="13000.00000" pt_clust_6="13000.00000" pt_clust_7="13000.00000" pt_clust_8="13000.00000" pt_clust_9="38.85182" pt_clust_10="150.91441"></scales>
<clustering>
<clus scale="   38.852">  1  9  2 -1</clus>
<clus scale="   80.219">  5  6 -1 -1</clus>
<clus scale="   87.180">  7  8 -1 -1</clus>
<clus scale="   92.943">  1  5  2 -1</clus>
<clus scale="  150.914">  2 10  1 -1</clus>
<clus scale="  150.914">  2  5  1 -1</clus>
</clustering>
</event>
<event>
10    4  0.2977685E-005  0.2188113E+03  0.7546771E-02  0.1134772E+00
          2   -1    0    0  503    0 -0.00000000000E+00  0.00000000000E+00  0.12825932856E+04  0.12825932856E+04  0.00000000000E+00 0. -1.
         21   -1    0    0  501  502  0.00000000000E+00 -0.00000000000E+00 -0.31137570439E+02  0.31137570439E+02  0.00000000000E+00 0. -1.
         24    2    1    2    0    0  0.29881522209E+02  0.80424105506E+02  0.49704912043E+03  0.51039671484E+03  0.78013052015E+02 0.  0.
         23    2    1    2    0    0  0.10362216356E+02  0.32175608733E+01  0.24940210323E+03  0.26609066467E+03  0.92114626986E+02 0.  0.
        -13    1    3    3    0    0  0.52416761686E+02  0.32018149352E+02  0.30123895009E+03  0.30743712177E+03  0.00000000000E+00 0.  1.
         14    1    3    3    0    0 -0.22535239476E+02  0.48405956154E+02  0.19581017034E+03  0.20295959307E+03  0.00000000000E+00 0. -1.
        -13    1    4    4    0    0 -0.38837528035E+02  0.15863637266E+02  0.11276990048E+03  0.12032065087E+03  0.00000000000E+00 0.  1.
         13    1    4    4    0    0  0.49199744391E+02 -0.12646076392E+02  0.13663220274E+03  0.14577001380E+03  0.00000000000E+00 0. -1.
         21    1    1    2  503  502 -0.11329031605E+02 -0.11668750524E+03  0.22395800511E+03  0.25278747771E+03  0.00000000000E+00 0. -1.
          1    1    1    2  501    0 -0.28914706961E+02  0.33045838864E+02  0.28104648640E+03  0.28445599882E+03  0.00000000000E+00 0. -1.
<scales pt_clust_5="13000.00000" pt_clust_6="13000.00000" pt_clust_7="13000.00000" pt_clust_8="13000.00000" pt_clust_9="103.68535" pt_clust_10="43.91002"></scales>
<clustering>
<clus scale="   43.910">  2 10  1 -1</clus>
<clus scale="   78.013">  5  6 -1 -1</clus>
<clus scale="   92.115">  7  8 -1 -1</clus>
<clus scale="   92.768">  5  7 -1 -1</clus>
<clus scale="  103.685">  2  9  1 -1</clus>
<clus scale="   43.910">  2  5  1 -1</clus>
</clustering>
</event>
<event>
10    4  0.2977685E-005  0.1054866E+03  0.7546771E-02  0.1273687E+00
         21   -1    0    0  501  502  0.00000000000E+00  0.00000000000E+00  0.45385507713E+02  0.45385507713E+02  0.00000000000E+00 0.  1.
          4   -1    0    0  503    0 -0.00000000000E+00 -0.00000000000E+00 -0.48385772497E+03  0.48385772497E+03  0.00000000000E+00 0. -1.
         24    2    1    2    0    0  0.31873952398E+02  0.52476867772E+02 -0.15844010320E+03  0.18792771555E+03  0.80273217677E+02 0.  0.
         23    2    1    2    0    0  0.29606507782E+02 -0.52516317262E+02 -0.10119912861E+03  0.14866701676E+03  0.90697901617E+02 0.  0.
        -13    1    3    3    0    0  0.40924239279E+02  0.39086612227E+02 -0.42260528178E+02  0.70629376734E+02  0.00000000000E+00 0.  1.
         14    1    3    3    0    0 -0.90502868807E+01  0.13390255546E+02 -0.11617957502E+03  0.11729833881E+03  0.00000000000E+00 0. -1.
        -11    1    4    4    0    0  0.25040032633E+01 -0.56040578007E+02 -0.14753962663E+02  0.58004274239E+02  0.00000000000E+00 0.  1.
         11    1    4    4    0    0  0.27102504519E+02  0.35242607449E+01 -0.86445165947E+02  0.90662742516E+02  0.00000000000E+00 0. -1.
         21    1    1    2  503  502 -0.38967816670E+02  0.88945622100E+01 -0.14884970856E+03  0.15412280724E+03  0.00000000000E+00 0. -1.
          3    1    1    2  501    0 -0.22512643510E+02 -0.88551127200E+01 -0.29983276889E+02  0.38525693142E+02  0.00000000000E+00 0. -1.
<scales pt_clust_5="13000.00000" pt_clust_6="13000.00000" pt_clust_7="13000.00000" pt_clust_8="13000.00000" pt_clust_9="41.26043" pt_clust_10="24.19157"></scales>
<clustering>
<clus scale="   24.192">  1 10  2 -1</clus>
<clus scale="   41.260">  2  9  1 -1</clus>
<clus scale="   80.273">  5  6 -1 -1</clus>
<clus scale="   90.698">  7  8 -1 -1</clus>
<clus scale="   96.670">  2  5  1 -1</clus>
<clus scale="   24.192">  1  5  2 -1</clus>
</clustering>
</event>
<event>
10    4  0.2977685E-005  0.1105845E+03  0.7546771E-02  0.1262306E+00
         21   -1    0    0  501  502  0.00000000000E+00  0.00000000000E+00  0.44209472638E+02  0.44209472638E+02  0.00000000000E+00 0. -1.
          2   -1    0    0  503    0 -0.00000000000E+00 -0.00000000000E+00 -0.14289794305E+04  0.14289794305E+04  0.00000000000E+00 0. -1.
         24    2    1    2    0    0 -0.12522690889E+02 -0.42041602380E+02 -0.11192530554E+04  0.11233230996E+04  0.84870900882E+02 0.  0.
         23    2    1    2    0    0  0.42922538195E+02  0.35399332732E+02 -0.18442800386E+03  0.21352130041E+03  0.92098860352E+02 0.  0.
        -11    1    3    3    0    0 -0.30099977887E+02  0.94883355025E+00 -0.15194069913E+03  0.15489636861E+03  0.00000000000E+00 0.  1.
         12    1    3    3    0    0  0.17577286999E+02 -0.42990435931E+02 -0.96731235629E+03  0.96842673096E+03  0.00000000000E+00 0. -1.
        -11    1    4    4    0    0 -0.22239095898E+02  0.12059931527E+02 -0.12571308427E+02  0.28249904962E+02  0.00000000000E+00 0. -1.
         11    1    4    4    0    0  0.65161634093E+02  0.23339401205E+02 -0.17185669543E+03  0.18527139545E+03  0.00000000000E+00 0.  1.
         21    1    1    2  503  502 -0.10396342503E+02 -0.24172342438E+02 -0.93837821583E+02  0.97457287238E+02  0.00000000000E+00 0. -1.
          1    1    1    2  501    0 -0.20003504804E+02  0.30814612087E+02  0.12748923027E+02  0.38887215905E+02  0.00000000000E+00 0. -1.
<scales pt_clust_5="13000.00000" pt_clust_6="13000.00000" pt_clust_7="13000.00000" pt_clust_8="13000.00000" pt_clust_9="26.31323" pt_clust_10="36.59538"></scales>
<clustering>
<clus scale="   26.313">  2  9  1 -1</clus>
<clus scale="   36.595">  1 10  2 -1</clus>
<clus scale="   84.871">  5  6 -1 -1</clus>
<clus scale="   92.099">  7  8 -1 -1</clus>
<clus scale="  104.641">  2  5  1 -1</clus>
<clus scale="   36.595">  1  5  2 -1</clus>
</clustering>
</event>
<event>
10    4  0.2977685E-005  0.9755525E+02  0.7546771E-02  0.1290868E+00
         21   -1    0    0  501  502  0.00000000000E+00  0.00000000000E+00  0.31479527259E+02  0.31479527259E+02  0.00000000000E+00 0. -1.
          2   -1    0    0  503    0 -0.00000000000E+00 -0.00000000000E+00 -0.11024464578E+04  0.11024464578E+04  0.00000000000E+00 0. -1.
         23    2    1    2    0    0  0.26095820528E+02  0.49514518408E+02 -0.34865609103E+03  0.36471826603E+03  0.91245078684E+02 0.  0.
         24    2    1    2    0    0 -0.46205910722E+02  0.30666413209E+02 -0.31885045945E+03  0.33366916106E+03  0.81203931374E+02 0.  0.
        -11    1    4    4    0    0  0.19310041737E+02 -0.88078463642E+01 -0.54911132026E+02  0.58870096737E+02  0.00000000000E+00 0.  1.
         12    1    4    4    0    0 -0.65515952459E+02  0.39474259573E+02 -0.26393932742E+03  0.27479906433E+03  0.00000000000E+00 0. -1.
        -13    1    3    3    0    0  0.30127795201E+02  0.75171827483E+02 -0.27015163435E+03  0.28202906452E+03  0.00000000000E+00 0. -1.
         13    1    3    3    0    0 -0.40319746729E+01 -0.25657309074E+02 -0.78504456674E+02  0.82689201510E+02  0.00000000000E+00 0.  1.
         21    1    1    2  503  502 -0.57315609151E+02 -0.44792889301E+02 -0.24611791862E+03  0.25664277089E+03  0.00000000000E+00 0. -1.
          1    1    1    2  501    0  0.77425699345E+02 -0.35388042317E+02 -0.15734246144E+03  0.17889578706E+03  0.00000000000E+00 0. -1.
<scales pt_clust_5="13000.00000" pt_clust_6="13000.00000" pt_clust_7="13000.00000" pt_clust_8="13000.00000" pt_clust_9="72.74257" pt_clust_10="79.53959"></scales>
<clustering>
<clus scale="   72.743">  2  9  1 -1</clus>
<clus scale="   79.540">  1 10  2 -1</clus>
<clus scale="   81.204">  5  6 -1 -1</clus>
<clus scale="   88.235">  1  5  2 -1</clus>
<clus scale="   91.245">  7  8 -1 -1</clus>
<clus scale="   79.540">  1  5  2 -1</clus>
</clustering>
</event>
<event>
10    4  0.2977685E-005  0.1781179E+03  0.7546771E-02  0.1186606E+00
         21   -1    0    0  503  502  0.00000000000E+00  0.00000000000E+00  0.37785858141E+03  0.37785858141E+03  0.00000000000E+00 0. -1.
          2   -1    0    0  502    0 -0.00000000000E+00 -0.00000000000E+00 -0.20366453328E+03  0.20366453328E+03  0.00000000000E+00 0. -1.
         23    2    1    2    0    0 -0.29406395141E+02 -0.72879102666E+02 -0.76800022958E+02  0.14372045587E+03  0.92634908262E+02 0.  0.
         24    2    1    2    0    0 -0.14299467314E+03  0.36898949844E+02  0.10290932837E+03  0.19793019801E+03  0.82322684438E+02 0.  0.
        -13    1    4    4    0    0 -0.67396933136E+02 -0.39422478372E+01  0.87690254952E+02  0.11066828239E+03  0.00000000000E+00 0.  1.
         14    1    4    4    0    0 -0.75597739999E+02  0.40841197681E+02  0.15219073416E+02  0.87261915614E+02  0.00000000000E+00 0. -1.
        -13    1    3    3    0    0 -0.57708028301E+02 -0.27094580396E+02 -0.59443134457E+02  0.87165469375E+02  0.00000000000E+00 0.  1.
         13    1    3    3    0    0  0.28301633160E+02 -0.45784522270E+02 -0.17356888501E+02  0.56554986495E+02  0.00000000000E+00 0. -1.
         21    1    1    2  503  501  0.90197668995E+02 -0.11671538228E+02  0.52112584461E+02  0.10482159012E+03  0.00000000000E+00 0.  1.
          1    1    1    2  501    0  0.82203399281E+02  0.47651691049E+02  0.95972158254E+02  0.13505087069E+03  0.00000000000E+00 0. -1.
<scales pt_clust_5="13000.00000" pt_clust_6="13000.00000" pt_clust_7="13000.00000" pt_clust_8="13000.00000" pt_clust_9="66.30561" pt_clust_10="171.87789"></scales>
<clustering>
<clus scale="   66.306">  9 10 -1 -1</clus>
<clus scale="   82.323">  5  6 -1 -1</clus>
<clus scale="   92.635">  7  8 -1 -1</clus>
<clus scale="  121.480">  2  7  1 -1</clus>
<clus scale="  171.878">  1  9  2 -1</clus>
<clus scale="  171.878">  1  5  2 -1</clus>
</clustering>
</event>
<event>
10    4  0.2977685E-005  0.1003398E+03  0.7546771E-02  0.1285106E+00
         21   -1    0    0  503  502  0.00000000000E+00  0.00000000000E+00  0.54550098309E+02  0.54550098309E+02  0.00000000000E+00 0. -1.
         -1   -1    0    0    0  501 -0.00000000000E+00 -0.00000000000E+00 -0.54641160519E+03  0.54641160519E+03  0.00000000000E+00 0.  1.
         24    2    1    2    0    0  0.35823439362E+02  0.95841918339E+01 -0.29510643411E+03  0.30801625751E+03  0.80068919672E+02 0.  0.
         23    2    1    2    0    0 -0.65716825597E+02 -0.22088441478E+02 -0.73418436106E+02  0.13605249054E+03  0.91177919523E+02 0.  0.
        -13    1    3    3    0    0  0.72420216205E+00 -0.32479133668E+02 -0.13269308345E+03  0.13661212606E+03  0.00000000000E+00 0.  1.
         14    1    3    3    0    0  0.35099237200E+02  0.42063325502E+02 -0.16241335066E+03  0.17140413145E+03  0.00000000000E+00 0. -1.
        -11    1    4    4    0    0 -0.41526994581E+02 -0.25196860876E+02 -0.92903893225E+02  0.10483561634E+03  0.00000000000E+00 0.  1.
         11    1    4    4    0    0 -0.24189831016E+02  0.31084193973E+01  0.19485457119E+02  0.31216874201E+02  0.00000000000E+00 0. -1.
         21    1    1    2  503  501 -0.15963213285E+02  0.24939761589E+02 -0.99349498811E+02  0.10366840792E+03  0.00000000000E+00 0.  1.
         -2    1    1    2    0  502  0.45856599521E+02 -0.12435511944E+02 -0.23987137853E+02  0.53224547525E+02  0.00000000000E+00 0.  1.
<scales pt_clust_5="13000.00000" pt_clust_6="13000.00000" pt_clust_7="13000.00000" pt_clust_8="13000.00000" pt_clust_9="29.61108" pt_clust_10="45.64218"></scales>
<clustering>
<clus scale="   29.611">  2  9  1 -1</clus>
<clus scale="   45.642">  1 10  2 -1</clus>
<clus scale="   80.069">  5  6 -1 -1</clus>
<clus scale="   90.364">  2  5  1 -1</clus>
<clus scale="   91.178">  7  8 -1 -1</clus>
<clus scale="   45.642">  1  5  2 -1</clus>
</clustering>
</event>
<event>
10    4  0.2977685E-005  0.2722608E+03  0.7546771E-02  0.1113777E+00
          2   -1    0    0  503    0 -0.00000000000E+00  0.00000000000E+00  0.16213684508E+04  0.16213684508E+04  0.00000000000E+00 0. -1.
         21   -1    0    0  501  502  0.00000000000E+00 -0.00000000000E+00 -0.13645455816E+03  0.13645455816E+03  0.00000000000E+00 0. -1.
         23    2    1    2    0    0 -0.12165523943E+03 -0.13200344867E+03  0.72736612606E+03  0.75576052775E+03  0.99436342543E+02 0.  0.
         24    2    1    2    0    0 -0.15141205267E+03 -0.13246555196E+03  0.21784311608E+03  0.30727390915E+03  0.80553707996E+02 0.  0.
        -11    1    4    4    0    0  0.18166732164E-01 -0.38204704762E+02  0.42580618763E+02  0.57207594689E+02  0.00000000000E+00 0.  1.
         12    1    4    4    0    0 -0.15143021940E+03 -0.94260847197E+02  0.17526249732E+03  0.25006631446E+03  0.00000000000E+00 0. -1.
        -11    1    3    3    0    0 -0.36391916152E+02  0.11598779234E+02  0.13244916629E+03  0.13784659913E+03  0.00000000000E+00 0.  1.
         11    1    3    3    0    0 -0.85263323278E+02 -0.14360222790E+03  0.59491695977E+03  0.61791392862E+03  0.00000000000E+00 0. -1.
         21    1    1    2  503  502  0.12013367541E+02  0.30866843827E+02  0.21369809806E+03  0.21624976338E+03  0.00000000000E+00 0. -1.
          1    1    1    2  501    0  0.26105392456E+03  0.23360215680E+03  0.32600655247E+03  0.47853880871E+03  0.00000000000E+00 0. -1.
<scales pt_clust_5="13000.00000" pt_clust_6="13000.00000" pt_clust_7="13000.00000" pt_clust_8="13000.00000" pt_clust_9="33.12224" pt_clust_10="260.07139"></scales>
<clustering>
<clus scale="   33.122">  1  9  2 -1</clus>
<clus scale="   80.554">  5  6 -1 -1</clus>
<clus scale="   99.436">  7  8 -1 -1</clus>
<clus scale="  191.258">  1  7  2 -1</clus>
<clus scale="  260.071">  2 10  1 -1</clus>
<clus scale="  260.071">  2  5  1 -1</clus>
</clustering>
</event>
<event>
10    4  0.2977685E-005  0.3931373E+03  0.7546771E-02  0.1074036E+00
          2   -1    0    0  503    0 -0.00000000000E+00  0.00000000000E+00  0.20619317248E+04  0.20619317248E+04  0.00000000000E+00 0. -1.
         21   -1    0    0  501  502  0.00000000000E+00 -0.00000000000E+00 -0.21488691767E+03  0.21488691767E+03  0.00000000000E+00 0. -1.
         24    2    1    2    0    0  0.14933650755E+03 -0.60128239741E+02  0.29744898720E+03  0.34783412858E+03  0.81215043670E+02 0.  0.
         23    2    1    2    0    0 -0.15654710586E+03  0.10978175962E+03  0.20567027386E+03  0.29561144256E+03  0.92340848617E+02 0.  0.
        -13    1    3    3    0    0  0.33753448683E+02  0.17767698972E+02  0.91718383123E+02  0.99334023514E+02  0.00000000000E+00 0.  1.
         14    1    3    3    0    0  0.11558305886E+03 -0.77895938712E+02  0.20573060408E+03  0.24850010507E+03  0.00000000000E+00 0. -1.
        -13    1    4    4    0    0 -0.49382571181E+02  0.38780177261E+02  0.13205142974E+02  0.64163200402E+02  0.00000000000E+00 0.  1.
         13    1    4    4    0    0 -0.10716453468E+03  0.71001582360E+02  0.19246513088E+03  0.23144824215E+03  0.00000000000E+00 0. -1.
         21    1    1    2  503  502  0.22859561829E+02 -0.43073018610E+03  0.10976875264E+04  0.11793934705E+04  0.00000000000E+00 0. -1.
          1    1    1    2  501    0 -0.15648963518E+02  0.38107666622E+03  0.24623801969E+03  0.45397960079E+03  0.00000000000E+00 0. -1.
<scales pt_clust_5="13000.00000" pt_clust_6="13000.00000" pt_clust_7="13000.00000" pt_clust_8="13000.00000" pt_clust_9="13000.00000" pt_clust_10="393.13726"></scales>
<clustering>
<clus scale="   81.215">  5  6 -1 -1</clus>
<clus scale="   92.341">  7  8 -1 -1</clus>
<clus scale="  180.313">  1  5  2 -1</clus>
<clus scale="  192.312">  1  7  2 -1</clus>
<clus scale="  393.137">  2 10  1 -1</clus>
<clus scale="  393.137">  2  5  1 -1</clus>
</clustering>
</event>
<event>
10    4  0.2977685E-005  0.1538283E+03  0.7546771E-02  0.1220561E+00
         21   -1    0    0  503  502  0.00000000000E+00  0.00000000000E+00  0.55744505061E+03  0.55744505061E+03  0.00000000000E+00 0.  1.
         -3   -1    0    0    0  501 -0.00000000000E+00 -0.00000000000E+00 -0.23185106757E+03  0.23185106757E+03  0.00000000000E+00 0.  1.
         24    2    1    2    0    0 -0.89207854160E+01  0.30474734696E+02 -0.12288555945E+03  0.15124372146E+03  0.82252736690E+02 0.  0.
         23    2    1    2    0    0  0.13056220552E+03 -0.61601020513E+02  0.35009172164E+03  0.38982553538E+03  0.92512481489E+02 0.  0.
        -11    1    3    3    0    0  0.17855225110E+02  0.51074394192E+02 -0.81425368003E+02  0.97762433277E+02  0.00000000000E+00 0.  1.
         12    1    3    3    0    0 -0.26776010526E+02 -0.20599659497E+02 -0.41460191449E+02  0.53481288186E+02  0.00000000000E+00 0. -1.
        -13    1    4    4    0    0 -0.22008958830E+01 -0.20731926615E+02  0.11417332844E+02  0.23769985552E+02  0.00000000000E+00 0. -1.
         13    1    4    4    0    0  0.13276310140E+03 -0.40869093898E+02  0.33867438880E+03  0.36605554983E+03  0.00000000000E+00 0.  1.
         21    1    1    2  503  501 -0.22045660944E+02 -0.39629818218E+01 -0.56494323417E+02  0.60772732123E+02  0.00000000000E+00 0.  1.
         -4    1    1    2    0  502 -0.99595759159E+02  0.35089267639E+02  0.15488214427E+03  0.18745412922E+03  0.00000000000E+00 0.  1.
<scales pt_clust_5="13000.00000" pt_clust_6="13000.00000" pt_clust_7="13000.00000" pt_clust_8="13000.00000" pt_clust_9="22.39903" pt_clust_10="122.90074"></scales>
<clustering>
<clus scale="   22.399">  2  9  1 -1</clus>
<clus scale="   82.253">  5  6 -1 -1</clus>
<clus scale="   90.598">  2  5  1 -1</clus>
<clus scale="   92.512">  7  8 -1 -1</clus>
<clus scale="  122.901">  1 10  2 -1</clus>
<clus scale="  122.901">  1  5  2 -1</clus>
</clustering>
</event>
<event>
10    4  0.2977685E-005  0.3064439E+03  0.7546771E-02  0.1125153E+00
         21   -1    0    0  501  502  0.00000000000E+00  0.00000000000E+00  0.66493324709E+02  0.66493324709E+02  0.00000000000E+00 0. -1.
          2   -1    0    0  503    0 -0.00000000000E+00 -0.00000000000E+00 -0.22565886139E+04  0.22565886139E+04  0.00000000000E+00 0. -1.
         23    2    1    2    0    0 -0.13177434942E+02  0.32930875305E+02 -0.27685015541E+03  0.29376968790E+03  0.91632601377E+02 0.  0.
         24    2    1    2    0    0  0.29876368548E+03 -0.60705145816E+01 -0.72250683025E+03  0.78608299545E+03  0.81325058020E+02 0.  0.
        -13    1    4    4    0    0  0.58953407396E+02  0.72829054086E+01 -0.76383080420E+02  0.96762182330E+02  0.00000000000E+00 0.  1.
         14    1    4    4    0    0  0.23981027809E+03 -0.13353419990E+02 -0.64612374983E+03  0.68932081312E+03  0.00000000000E+00 0. -1.
        -13    1    3    3    0    0  0.30120678025E+02 -0.13145540930E+02 -0.67423288349E+02  0.75006401745E+02  0.00000000000E+00 0. -1.
         13    1    3    3    0    0 -0.43298112968E+02  0.46076416236E+02 -0.20942686706E+03  0.21876328615E+03  0.00000000000E+00 0.  1.
         21    1    1    2  503  502  0.21629593164E+01  0.49876470850E+02 -0.29736362478E+03  0.30152523290E+03  0.00000000000E+00 0. -1.
          1    1    1    2  501    0 -0.28774920986E+03 -0.76736831574E+02 -0.89337467872E+03  0.94170402233E+03  0.00000000000E+00 0. -1.
<scales pt_clust_5="13000.00000" pt_clust_6="13000.00000" pt_clust_7="13000.00000" pt_clust_8="13000.00000" pt_clust_9="49.92335" pt_clust_10="295.45592"></scales>
<clustering>
<clus scale="   49.923">  2  9  1 -1</clus>
<clus scale="   81.325">  5  6 -1 -1</clus>
<clus scale="   91.633">  7  8 -1 -1</clus>
<clus scale="  100.887">  2  7  1 -1</clus>
<clus scale="  295.456">  1 10  2 -1</clus>
<clus scale="  295.456">  1  5  2 -1</clus>
</clustering>
</event>
<event>
10    4  0.2977685E-005  0.2615750E+03  0.7546771E-02  0.1106797E+00
         21   -1    0    0  501  502  0.00000000000E+00  0.00000000000E+00  0.70008413854E+03  0.70008413854E+03  0.00000000000E+00 0. -1.
          2   -1    0    0  503    0 -0.00000000000E+00 -0.00000000000E+00 -0.15583940667E+04  0.15583940667E+04  0.00000000000E+00 0. -1.
         24    2    1    2    0    0  0.13081768113E+03 -0.20992638288E+03 -0.87614166480E+03  0.91380987607E+03  0.79005828253E+02 0.  0.
         23    2    1    2    0    0 -0.16806167313E+03  0.23335055863E+03 -0.52301407727E+03  0.60377306826E+03  0.91109734625E+02 0.  0.
        -11    1    3    3    0    0 -0.85029624685E+01 -0.27589671089E+02 -0.13058522225E+03  0.13373851574E+03  0.00000000000E+00 0.  1.
         12    1    3    3    0    0  0.13932064360E+03 -0.18233671179E+03 -0.74555644255E+03  0.78007136034E+03  0.00000000000E+00 0. -1.
        -13    1    4    4    0    0 -0.14059754383E+02  0.23368354050E+02 -0.11119650808E+02  0.29451711298E+02  0.00000000000E+00 0.  1.
         13    1    4    4    0    0 -0.15400191875E+03  0.20998220458E+03 -0.51189442646E+03  0.57432135696E+03  0.00000000000E+00 0. -1.
         21    1    1    2  503  502  0.11750359229E+02  0.84113012624E+02 -0.76155939384E+02  0.11407364699E+03  0.00000000000E+00 0.  1.
          1    1    1    2  501    0  0.25493632776E+02 -0.10753718838E+03  0.61700175325E+03  0.62682161394E+03  0.00000000000E+00 0. -1.
<scales pt_clust_5="13000.00000" pt_clust_6="13000.00000" pt_clust_7="13000.00000" pt_clust_8="13000.00000" pt_clust_9="84.92979" pt_clust_10="110.25227"></scales>
<clustering>
<clus scale="   79.006">  5  6 -1 -1</clus>
<clus scale="   84.930">  2  9  1 -1</clus>
<clus scale="   91.110">  7  8 -1 -1</clus>
<clus scale="  110.252">  1 10  2 -1</clus>
<clus scale="  257.609">  2  5  1 -1</clus>
<clus scale="  110.252">  1  5  2 -1</clus>
</clustering>
</event>
<event>
10    4  0.2977685E-005  0.2305034E+03  0.7546771E-02  0.1126871E+00
         21   -1    0    0  501  502  0.00000000000E+00  0.00000000000E+00  0.62013824579E+03  0.62013824579E+03  0.00000000000E+00 0. -1.
          2   -1    0    0  503    0 -0.00000000000E+00 -0.00000000000E+00 -0.49820617456E+03  0.49820617456E+03  0.00000000000E+00 0. -1.
         24    2    1    2    0    0 -0.87755743693E+02 -0.18363096086E+03 -0.39965650662E+03  0.45554543203E+03  0.79843077524E+02 0.  0.
         23    2    1    2    0    0  0.11376342268E+03  0.14030515678E+03  0.11528150963E+03  0.23196156964E+03  0.88818297482E+02 0.  0.
        -13    1    3    3    0    0 -0.67729622415E+02 -0.18028455956E+03 -0.32127018508E+03  0.37457223067E+03  0.00000000000E+00 0.  1.
         14    1    3    3    0    0 -0.20026121279E+02 -0.33464013025E+01 -0.78386321540E+02  0.80973201368E+02  0.00000000000E+00 0. -1.
        -13    1    4    4    0    0 -0.56825001855E+01  0.34531155308E+02 -0.21681799699E+00  0.34996264162E+02  0.00000000000E+00 0. -1.
         13    1    4    4    0    0  0.11944592287E+03  0.10577400147E+03  0.11549832763E+03  0.19696530548E+03  0.00000000000E+00 0.  1.
         21    1    1    2  503  502 -0.10370462511E+02 -0.18788455419E+02  0.20732593380E+01  0.21560402455E+02  0.00000000000E+00 0. -1.
          1    1    1    2  501    0 -0.15637216478E+02  0.62114259500E+02  0.40423380888E+03  0.40927701623E+03  0.00000000000E+00 0. -1.
<scales pt_clust_5="13000.00000" pt_clust_6="13000.00000" pt_clust_7="13000.00000" pt_clust_8="13000.00000" pt_clust_9="21.46049" pt_clust_10="63.97141"></scales>
<clustering>
<clus scale="   21.460">  2  9  1 -1</clus>
<clus scale="   63.971">  1 10  2 -1</clus>
<clus scale="   79.843">  5  6 -1 -1</clus>
<clus scale="   88.818">  7  8 -1 -1</clus>
<clus scale="  227.196">  2  5  1 -1</clus>
<clus scale="   63.971">  1  5  2 -1</clus>
</clustering>
</event>
<event>
10    4  0.2977685E-005  0.9530762E+02  0.7546771E-02  0.1297253E+00
          2   -1    0    0  503    0 -0.00000000000E+00  0.00000000000E+00  0.63464754976E+03  0.63464754976E+03  0.00000000000E+00 0. -1.
         21   -1    0    0  501  502  0.00000000000E+00 -0.00000000000E+00 -0.11240661648E+03  0.11240661648E+03  0.00000000000E+00 0.  1.
         24    2    1    2    0    0  0.14530982661E+02  0.47023450906E+01  0.51482599148E+02  0.97332687564E+02  0.81178399510E+02 0.  0.
         23    2    1    2    0    0  0.86889633377E+02  0.16221073946E+02 -0.27897993128E+02  0.13116620066E+03  0.92808095262E+02 0.  0.
        -11    1    3    3    0    0 -0.47743597809E+01  0.41067619030E+02  0.23568766277E+02  0.47590236267E+02  0.00000000000E+00 0.  1.
         12    1    3    3    0    0  0.19305342441E+02 -0.36365273940E+02  0.27913832871E+02  0.49742451297E+02  0.00000000000E+00 0. -1.
        -11    1    4    4    0    0  0.36323179037E+02 -0.19515261320E+02 -0.50548933474E+02  0.65233529991E+02  0.00000000000E+00 0.  1.
         11    1    4    4    0    0  0.50566454340E+02  0.35736335266E+02  0.22650940345E+02  0.65932670668E+02  0.00000000000E+00 0. -1.
         21    1    1    2  503  502 -0.48655911063E+02 -0.20786538375E+02  0.42311701357E+03  0.42641234156E+03  0.00000000000E+00 0. -1.
          1    1    1    2  501    0 -0.52764704975E+02 -0.13688066140E+00  0.75539313689E+02  0.92142936463E+02  0.00000000000E+00 0. -1.
<scales pt_clust_5="13000.00000" pt_clust_6="13000.00000" pt_clust_7="13000.00000" pt_clust_8="13000.00000" pt_clust_9="53.67989" pt_clust_10="52.76491"></scales>
<clustering>
<clus scale="   52.765">  2 10  1 -1</clus>
<clus scale="   53.680">  1  9  2 -1</clus>
<clus scale="   81.178">  5  6 -1 -1</clus>
<clus scale="   84.025">  1  5  2 -1</clus>
<clus scale="   92.808">  7  8 -1 -1</clus>
<clus scale="   52.765">  2  5  1 -1</clus>
</clustering>
</event>
<event>
10    4  0.2977685E-005  0.1221302E+03  0.7546771E-02  0.1244403E+00
         21   -1    0    0  503  502  0.00000000000E+00  0.00000000000E+00  0.12438553515E+03  0.12438553515E+03  0.00000000000E+00 0. -1.
         -1   -1    0    0    0  501 -0.00000000000E+00 -0.00000000000E+00 -0.63249400332E+03  0.63249400332E+03  0.00000000000E+00 0.  1.
         23    2    1    2    0    0  0.63707275591E+02  0.10627487395E+03 -0.13548567729E+03  0.20674691570E+03  0.95052367693E+02 0.  0.
         24    2    1    2    0    0 -0.55940131899E+02 -0.27089513542E+02  0.25804276318E+02  0.10459460721E+03  0.80068914569E+02 0.  0.
        -13    1    4    4    0    0 -0.72396717170E+02 -0.42111750276E+01  0.23868099944E+02  0.76345955014E+02  0.00000000000E+00 0.  1.
         14    1    4    4    0    0  0.16456585270E+02 -0.22878338514E+02  0.19361763743E+01  0.28248652196E+02  0.00000000000E+00 0. -1.
        -11    1    3    3    0    0  0.19325802020E+02  0.94449785615E+02 -0.12794782414E+03  0.16020266642E+03  0.00000000000E+00 0. -1.
         11    1    3    3    0    0  0.44381473571E+02  0.11825088335E+02 -0.75378531463E+01  0.46544249274E+02  0.00000000000E+00 0.  1.
         21    1    1    2  503  501 -0.16542538633E+02 -0.55936552743E+02 -0.41275303181E+03  0.41685443357E+03  0.00000000000E+00 0.  1.
         -2    1    1    2    0  502  0.87753949419E+01 -0.23248807665E+02  0.14325964611E+02  0.28683581999E+02  0.00000000000E+00 0.  1.
<scales pt_clust_5="13000.00000" pt_clust_6="13000.00000" pt_clust_7="13000.00000" pt_clust_8="13000.00000" pt_clust_9="58.72695" pt_clust_10="24.84984"></scales>
<clustering>
<clus scale="   24.850">  1 10  2 -1</clus>
<clus scale="   58.727">  2  9  1 -1</clus>
<clus scale="   80.069">  5  6 -1 -1</clus>
<clus scale="   95.052">  7  8 -1 -1</clus>
<clus scale="  110.869">  1  5  2 -1</clus>
<clus scale="   24.850">  1  5  2 -1</clus>
</clustering>
</event>
<event>
10    4  0.2977685E-005  0.1387798E+03  0.7546771E-02  0.1234085E+00
          2   -1    0    0  503    0 -0.00000000000E+00  0.00000000000E+00  0.21442382113E+03  0.21442382113E+03  0.00000000000E+00 0. -1.
         21   -1    0    0  501  502  0.00000000000E+00 -0.00000000000E+00 -0.49614165171E+03  0.49614165171E+03  0.00000000000E+00 0.  1.
         24    2    1    2    0    0  0.47038622622E+02  0.92563751945E+01  0.13358800815E+03  0.16304092650E+03  0.80238863991E+02 0.  0.
         23    2    1    2    0    0 -0.10901181632E+02 -0.13327669541E+03 -0.23729782594E+03  0.28744460460E+03  0.91829348354E+02 0.  0.
        -13    1    3    3    0    0 -0.21201137839E+02  0.13182519713E+02  0.31726222581E+02  0.40371032572E+02  0.00000000000E+00 0.  1.
         14    1    3    3    0    0  0.68239760461E+02 -0.39261445181E+01  0.10186178557E+03  0.12266989393E+03  0.00000000000E+00 0. -1.
        -13    1    4    4    0    0 -0.35564212511E+01 -0.44856080424E+02 -0.17063110433E+03  0.17646441525E+03  0.00000000000E+00 0.  1.
         13    1    4    4    0    0 -0.73447603812E+01 -0.88420614982E+02 -0.66666721606E+02  0.11098018935E+03  0.00000000000E+00 0. -1.
         21    1    1    2  503  502 -0.16896308391E+02  0.90817958108E+02 -0.16203001787E+02  0.93786587629E+02  0.00000000000E+00 0. -1.
          1    1    1    2  501    0 -0.19241132599E+02  0.33202362103E+02 -0.16180501100E+03  0.16629335410E+03  0.00000000000E+00 0. -1.
<scales pt_clust_5="13000.00000" pt_clust_6="13000.00000" pt_clust_7="13000.00000" pt_clust_8="13000.00000" pt_clust_9="104.05389" pt_clust_10="38.37471"></scales>
<clustering>
<clus scale="   38.375">  2 10  1 -1</clus>
<clus scale="   80.239">  5  6 -1 -1</clus>
<clus scale="   91.829">  7  8 -1 -1</clus>
<clus scale="   93.201">  1  5  2 -1</clus>
<clus scale="  104.054">  1  9  2 -1</clus>
<clus scale="   38.375">  2  5  1 -1</clus>
</clustering>
</event>
<event>
10    4  0.2977685E-005  0.1674524E+03  0.7546771E-02  0.1212425E+00
         -1   -1    0    0    0  501 -0.00000000000E+00  0.00000000000E+00  0.10549703419E+04  0.10549703419E+04  0.00000000000E+00 0.  1.
         21   -1    0    0  503  502  0.00000000000E+00 -0.00000000000E+00 -0.15845529152E+03  0.15845529152E+03  0.00000000000E+00 0.  1.
         24    2    1    2    0    0 -0.16597458156E+02 -0.31922735094E+02  0.62415386767E+03  0.63042466239E+03  0.81071991445E+02 0.  0.
         23    2    1    2    0    0 -0.99240626007E+02 -0.10396788094E+03 -0.65333835029E+02  0.18234082293E+03  0.91223043087E+02 0.  0.
        -11    1    3    3    0    0 -0.27614054095E+02 -0.34835209605E+02  0.15807114472E+03  0.16420266321E+03  0.00000000000E+00 0.  1.
         12    1    3    3    0    0  0.11016595939E+02  0.29124745116E+01  0.46608272295E+03  0.46622199918E+03  0.00000000000E+00 0. -1.
        -13    1    4    4    0    0  0.20860060649E+01 -0.58587975336E+02 -0.15463465464E+02  0.60630199071E+02  0.00000000000E+00 0. -1.
         13    1    4    4    0    0 -0.10132663207E+03 -0.45379905603E+02 -0.49870369565E+02  0.12171062386E+03  0.00000000000E+00 0.  1.
         21    1    1    2  503  501  0.41752513551E+02  0.25245584398E+02  0.21201846138E+03  0.21756019830E+03  0.00000000000E+00 0.  1.
         -2    1    1    2    0  502  0.74085570612E+02  0.11064503163E+03  0.12567655639E+03  0.18309994982E+03  0.00000000000E+00 0.  1.
<scales pt_clust_5="13000.00000" pt_clust_6="13000.00000" pt_clust_7="13000.00000" pt_clust_8="13000.00000" pt_clust_9="48.79151" pt_clust_10="140.42327"></scales>
<clustering>
<clus scale="   48.792">  1  9  2 -1</clus>
<clus scale="   81.072">  5  6 -1 -1</clus>
<clus scale="   83.403">  1  5  2 -1</clus>
<clus scale="   91.223">  7  8 -1 -1</clus>
<clus scale="  140.423">  2 10  1 -1</clus>
<clus scale="  140.423">  2  5  1 -1</clus>
</clustering>
</event>
<event>
10    4  0.2977685E-005  0.1270289E+03  0.7546771E-02  0.1234184E+00
         21   -1    0    0  503  502  0.00000000000E+00  0.00000000000E+00  0.10608198345E+03  0.10608198345E+03  0.00000000000E+00 0. -1.
         -1   -1    0    0    0  501 -0.00000000000E+00 -0.00000000000E+00 -0.67385853589E+03  0.67385853589E+03  0.00000000000E+00 0.  1.
         24    2    1    2    0    0  0.82480259027E+02 -0.20656087299E+02 -0.39683748574E+03  0.41395398269E+03  0.81536756275E+02 0.  0.
         23    2    1    2    0    0 -0.20067539037E+02  0.33937621630E+02  0.57664412885E+02  0.11381521445E+03  0.89856831922E+02 0.  0.
        -11    1    3    3    0    0  0.88050838699E+02  0.24621363453E+01 -0.24689767007E+03  0.26214017585E+03  0.00000000000E+00 0.  1.
         12    1    3    3    0    0 -0.55705796724E+01 -0.23118223645E+02 -0.14993981567E+03  0.15181380684E+03  0.00000000000E+00 0. -1.
        -11    1    4    4    0    0 -0.13918373799E+02  0.62600246683E+02  0.22334110145E+02  0.67906733760E+02  0.00000000000E+00 0. -1.
         11    1    4    4    0    0 -0.61491652386E+01 -0.28662625052E+02  0.35330302739E+02  0.45908480695E+02  0.00000000000E+00 0.  1.
         21    1    1    2  503  501  0.90864193249E+01 -0.31014349310E+02 -0.80921325603E+02  0.87136179722E+02  0.00000000000E+00 0.  1.
         -2    1    1    2    0  502 -0.71499139314E+02  0.17732814979E+02 -0.14768215398E+03  0.16503514248E+03  0.00000000000E+00 0.  1.
<scales pt_clust_5="13000.00000" pt_clust_6="13000.00000" pt_clust_7="13000.00000" pt_clust_8="13000.00000" pt_clust_9="32.31800" pt_clust_10="69.74204"></scales>
<clustering>
<clus scale="   32.318">  2  9  1 -1</clus>
<clus scale="   69.742">  1 10  2 -1</clus>
<clus scale="   81.537">  5  6 -1 -1</clus>
<clus scale="   89.857">  7  8 -1 -1</clus>
<clus scale="  121.286">  2  5  1 -1</clus>
<clus scale="   69.742">  1  5  2 -1</clus>
</clustering>
</event>
<event>
10    4  0.2977685E-005  0.3667147E+03  0.7546771E-02  0.1112187E+00
         21   -1    0    0  501  502  0.00000000000E+00  0.00000000000E+00  0.24206926997E+03  0.24206926997E+03  0.00000000000E+00 0.  1.
          2   -1    0    0  503    0 -0.00000000000E+00 -0.00000000000E+00 -0.98183544840E+03  0.98183544840E+03  0.00000000000E+00 0. -1.
         24    2    1    2    0    0  0.25806430599E+02  0.39347079842E+01 -0.84162108877E+02  0.11855117354E+03  0.79307416995E+02 0.  0.
         23    2    1    2    0    0 -0.25362018367E+03  0.20443750048E+03 -0.49066130606E+03  0.59508670052E+03  0.85216047219E+02 0.  0.
        -13    1    3    3    0    0  0.39174011640E+02  0.82712050563E+01 -0.76535590117E+01  0.40762642046E+02  0.00000000000E+00 0.  1.
         14    1    3    3    0    0 -0.13367581041E+02 -0.43364970721E+01 -0.76508549865E+02  0.77788531496E+02  0.00000000000E+00 0. -1.
        -11    1    4    4    0    0 -0.22702217820E+03  0.20317269641E+03 -0.47465738783E+03  0.56401937004E+03  0.00000000000E+00 0.  1.
         11    1    4    4    0    0 -0.26598005467E+02  0.12648040671E+01 -0.16003918230E+02  0.31067330476E+02  0.00000000000E+00 0. -1.
         21    1    1    2  503  502 -0.66594100483E+02  0.13302249402E+02 -0.12149088434E+03  0.13918246670E+03  0.00000000000E+00 0.  1.
          1    1    1    2  501    0  0.29440785355E+03 -0.22167445787E+03 -0.43451879158E+02  0.37108437761E+03  0.00000000000E+00 0. -1.
<scales pt_clust_5="13000.00000" pt_clust_6="13000.00000" pt_clust_7="13000.00000" pt_clust_8="13000.00000" pt_clust_9="67.90968" pt_clust_10="356.67613"></scales>
<clustering>
<clus scale="   67.910">  2  9  1 -1</clus>
<clus scale="   79.307">  5  6 -1 -1</clus>
<clus scale="   81.485">  2  5  1 -1</clus>
<clus scale="   85.216">  7  8 -1 -1</clus>
<clus scale="  356.676">  1 10  2 -1</clus>
<clus scale="  356.676">  1  5  2 -1</clus>
</clustering>
</event>
<event>
10    4  0.2977685E-005  0.1191364E+03  0.7546771E-02  0.1247244E+00
         21   -1    0    0  501  502  0.00000000000E+00  0.00000000000E+00  0.18779841976E+03  0.18779841976E+03  0.00000000000E+00 0. -1.
          2   -1    0    0  503    0 -0.00000000000E+00 -0.00000000000E+00 -0.66168383217E+03  0.66168383217E+03  0.00000000000E+00 0. -1.
         24    2    1    2    0    0 -0.19482369048E+02 -0.27452216704E+02 -0.42029422220E+03  0.42954648376E+03  0.82035124107E+02 0.  0.
         23    2    1    2    0    0 -0.86442044006E+02  0.67070912795E+02  0.11751119726E+03  0.18433090515E+03  0.90544280862E+02 0.  0.
        -11    1    3    3    0    0  0.22950449725E+02 -0.36581172327E+02 -0.16333967076E+03  0.16895192616E+03  0.00000000000E+00 0.  1.
         12    1    3    3    0    0 -0.42432818773E+02  0.91289556229E+01 -0.25695455144E+03  0.26059455759E+03  0.00000000000E+00 0. -1.
        -13    1    4    4    0    0 -0.54958888747E+02 -0.10084678017E+02  0.65518949341E+02  0.86109888549E+02  0.00000000000E+00 0.  1.
         13    1    4    4    0    0 -0.31483155258E+02  0.77155590812E+02  0.51992247917E+02  0.98221016600E+02  0.00000000000E+00 0. -1.
         21    1    1    2  503  502  0.39952872437E+02 -0.68592341393E+02 -0.47420618022E+02  0.92465433148E+02  0.00000000000E+00 0. -1.
          1    1    1    2  501    0  0.65971540617E+02  0.28973645302E+02 -0.12368176944E+03  0.14313942988E+03  0.00000000000E+00 0. -1.
<scales pt_clust_5="13000.00000" pt_clust_6="13000.00000" pt_clust_7="13000.00000" pt_clust_8="13000.00000" pt_clust_9="80.92102" pt_clust_10="72.05360"></scales>
<clustering>
<clus scale="   72.054">  1 10  2 -1</clus>
<clus scale="   80.921">  2  9  1 -1</clus>
<clus scale="   82.035">  5  6 -1 -1</clus>
<clus scale="   90.544">  7  8 -1 -1</clus>
<clus scale="  112.805">  2  5  1 -1</clus>
<clus scale="   72.054">  1  5  2 -1</clus>
</clustering>
</event>
<event>
10    4  0.2977685E-005  0.1225972E+03  0.7546771E-02  0.1241692E+00
          2   -1    0    0  503    0 -0.00000000000E+00  0.00000000000E+00  0.10657035557E+03  0.10657035557E+03  0.00000000000E+00 0. -1.
         21   -1    0    0  501  502  0.00000000000E+00 -0.00000000000E+00 -0.55613413697E+03  0.55613413697E+03  0.00000000000E+00 0.  1.
         24    2    1    2    0    0  0.27350903617E+02 -0.51981732742E+02 -0.46411869156E+01  0.10154796484E+03  0.82705961568E+02 0.  0.
         23    2    1    2    0    0 -0.12405397625E+03 -0.15392942167E+00 -0.25072415141E+03  0.29447853827E+03  0.92008677209E+02 0.  0.
        -11    1    3    3    0    0 -0.12067957362E+02 -0.31202284523E+02  0.30133090033E+02  0.45024674005E+02  0.00000000000E+00 0.  1.
         12    1    3    3    0    0  0.39418860978E+02 -0.20779448219E+02 -0.34774276948E+02  0.56523290831E+02  0.00000000000E+00 0. -1.
        -13    1    4    4    0    0 -0.11401364505E+03  0.32417236239E+02 -0.17414803116E+03  0.21065973801E+03  0.00000000000E+00 0.  1.
         13    1    4    4    0    0 -0.10040331196E+02 -0.32571165661E+02 -0.76576120255E+02  0.83818800256E+02  0.00000000000E+00 0. -1.
         21    1    1    2  503  502  0.60337185230E+02  0.67734369950E+02 -0.26685665833E+02  0.94554986939E+02  0.00000000000E+00 0. -1.
          1    1    1    2  501    0  0.36365887400E+02 -0.15598707786E+02 -0.16751277724E+03  0.17212300250E+03  0.00000000000E+00 0. -1.
<scales pt_clust_5="13000.00000" pt_clust_6="13000.00000" pt_clust_7="13000.00000" pt_clust_8="13000.00000" pt_clust_9="92.86610" pt_clust_10="39.57016"></scales>
<clustering>
<clus scale="   39.570">  2 10  1 -1</clus>
<clus scale="   82.706">  5  6 -1 -1</clus>
<clus scale="   92.009">  7  8 -1 -1</clus>
<clus scale="   92.866">  1  9  2 -1</clus>
<clus scale="  115.779">  1  5  2 -1</clus>
<clus scale="   39.570">  2  5  1 -1</clus>
</clustering>
</event>
<event>
10    4  0.2977685E-005  0.1101493E+03  0.7546771E-02  0.1264262E+00
         21   -1    0    0  501  502  0.00000000000E+00  0.00000000000E+00  0.32550951589E+02  0.32550951589E+02  0.00000000000E+00 0.  1.
          2   -1    0    0  503    0 -0.00000000000E+00 -0.00000000000E+00 -0.65934049557E+03  0.65934049557E+03  0.00000000000E+00 0. -1.
         23    2    1    2    0    0  0.39409186735E+02  0.51112800082E+02 -0.38145772554E+03  0.39733481211E+03  0.90550285523E+02 0.  0.
         24    2    1    2    0    0 -0.17022099550E+02 -0.39064612684E+02 -0.92449265397E+02  0.12967436422E+03  0.80329186639E+02 0.  0.
        -11    1    4    4    0    0  0.20204075674E+02 -0.44155003529E+02 -0.72151468832E+02  0.86969554817E+02  0.00000000000E+00 0.  1.
         12    1    4    4    0    0 -0.37226175224E+02  0.50903908443E+01 -0.20297796565E+02  0.42704809403E+02  0.00000000000E+00 0. -1.
        -13    1    3    3    0    0  0.57222220096E+02  0.49960818866E+01 -0.14922331407E+03  0.15989665653E+03  0.00000000000E+00 0. -1.
         13    1    3    3    0    0 -0.17813033361E+02  0.46116718196E+02 -0.23223441147E+03  0.23743815558E+03  0.00000000000E+00 0.  1.
         21    1    1    2  503  502 -0.15295623666E+01  0.20413267738E+02 -0.78025697269E+02  0.80666290947E+02  0.00000000000E+00 0. -1.
          1    1    1    2  501    0 -0.20857524818E+02 -0.32461455136E+02 -0.74856855771E+02  0.84215979879E+02  0.00000000000E+00 0. -1.
<scales pt_clust_5="13000.00000" pt_clust_6="13000.00000" pt_clust_7="13000.00000" pt_clust_8="13000.00000" pt_clust_9="20.47049" pt_clust_10="36.38232"></scales>
<clustering>
<clus scale="   20.470">  2  9  1 -1</clus>
<clus scale="   36.382">  1 10  2 -1</clus>
<clus scale="   80.329">  5  6 -1 -1</clus>
<clus scale="   90.550">  7  8 -1 -1</clus>
<clus scale="  101.913">  1  5  2 -1</clus>
<clus scale="   36.382">  1  5  2 -1</clus>
</clustering>
</event>
<event>
10    4  0.2977685E-005  0.1408694E+03  0.7546771E-02  0.1226108E+00
         21   -1    0    0  501  502  0.00000000000E+00  0.00000000000E+00  0.35122131682E+03  0.35122131682E+03  0.00000000000E+00 0. -1.
          2   -1    0    0  503    0 -0.00000000000E+00 -0.00000000000E+00 -0.60196577510E+03  0.60196577510E+03  0.00000000000E+00 0. -1.
         24    2    1    2    0    0  0.46862868484E+02  0.11487032386E+03 -0.25991324407E+03  0.29901489222E+03  0.80397086880E+02 0.  0.
         23    2    1    2    0    0 -0.12248656975E+02  0.73635559860E+02  0.27049664071E+03  0.29478023544E+03  0.90303539793E+02 0.  0.
        -13    1    3    3    0    0  0.11880250907E+02  0.29552195123E+02 -0.11207658993E+02  0.33765133174E+02  0.00000000000E+00 0.  1.
         14    1    3    3    0    0  0.34982617577E+02  0.85318128736E+02 -0.24870558508E+03  0.26524975905E+03  0.00000000000E+00 0. -1.
        -13    1    4    4    0    0 -0.87587271646E+01  0.94548093942E+02  0.20466618155E+03  0.22561982014E+03  0.00000000000E+00 0. -1.
         13    1    4    4    0    0 -0.34899298102E+01 -0.20912534082E+02  0.65830459164E+02  0.69160415307E+02  0.00000000000E+00 0.  1.
         21    1    1    2  503  502  0.10968766385E+02 -0.11515936869E+03 -0.24578519672E+03  0.27164748657E+03  0.00000000000E+00 0.  1.
          1    1    1    2  501    0 -0.45582977894E+02 -0.73346515032E+02 -0.15542658199E+02  0.87744477689E+02  0.00000000000E+00 0. -1.
<scales pt_clust_5="13000.00000" pt_clust_6="13000.00000" pt_clust_7="13000.00000" pt_clust_8="13000.00000" pt_clust_9="115.67408" pt_clust_10="86.35693"></scales>
<clustering>
<clus scale="   80.397">  5  6 -1 -1</clus>
<clus scale="   86.357">  1 10  2 -1</clus>
<clus scale="   90.304">  7  8 -1 -1</clus>
<clus scale="  105.069">  1  7  2 -1</clus>
<clus scale="  115.674">  2  9  1 -1</clus>
<clus scale="   86.357">  1  5  2 -1</clus>
</clustering>
</event>
<event>
10    4  0.2977685E-005  0.2111733E+03  0.7546771E-02  0.1173641E+00
          2   -1    0    0  503    0 -0.00000000000E+00  0.00000000000E+00  0.57025963050E+03  0.57025963050E+03  0.00000000000E+00 0. -1.
         21   -1    0    0  501  502  0.00000000000E+00 -0.00000000000E+00 -0.21242638019E+03  0.21242638019E+03  0.00000000000E+00 0.  1.
         23    2    1    2    0    0 -0.24236674144E+02 -0.34864193301E+02 -0.39590206424E+02  0.10650796106E+03  0.89295201304E+02 0.  0.
         24    2    1    2    0    0 -0.68595012903E+02  0.19127554510E+03  0.30506363541E+01  0.21719677661E+03  0.76638915951E+02 0.  0.
        -11    1    4    4    0    0 -0.80704869279E+02  0.18484130600E+03 -0.40955838415E+01  0.20173338380E+03  0.00000000000E+00 0.  1.
         12    1    4    4    0    0  0.12109856376E+02  0.64342390960E+01  0.71462201956E+01  0.15463392812E+02  0.00000000000E+00 0. -1.
        -11    1    3    3    0    0  0.27052307795E+02 -0.12737290821E+02  0.10288078681E+02  0.31621361410E+02  0.00000000000E+00 0. -1.
         11    1    3    3    0    0 -0.51288981939E+02 -0.22126902480E+02 -0.49878285105E+02  0.74886599647E+02  0.00000000000E+00 0.  1.
         21    1    1    2  503  502  0.49999906704E+02  0.18137607442E+02  0.11625959864E+03  0.12784857351E+03  0.00000000000E+00 0. -1.
          1    1    1    2  501    0  0.42831780343E+02 -0.17454895924E+03  0.27811322174E+03  0.33113269951E+03  0.00000000000E+00 0. -1.
<scales pt_clust_5="13000.00000" pt_clust_6="13000.00000" pt_clust_7="13000.00000" pt_clust_8="13000.00000" pt_clust_9="53.18800" pt_clust_10="196.77574"></scales>
<clustering>
<clus scale="   53.188">  1  9  2 -1</clus>
<clus scale="   76.639">  5  6 -1 -1</clus>
<clus scale="   89.295">  7  8 -1 -1</clus>
<clus scale="   97.555">  1  7  2 -1</clus>
<clus scale="  196.776">  2 10  1 -1</clus>
<clus scale="  196.776">  2  5  1 -1</clus>
</clustering>
</event>
<event>
10    4  0.2977685E-005  0.2268029E+03  0.7546771E-02  0.1129950E+00
         21   -1    0    0  503  502  0.00000000000E+00  0.00000000000E+00  0.62328392301E+03  0.62328392301E+03  0.00000000000E+00 0.  1.
         -1   -1    0    0    0  501 -0.00000000000E+00 -0.00000000000E+00 -0.16598711008E+03  0.16598711008E+03  0.00000000000E+00 0.  1.
         23    2    1    2    0    0  0.10170634717E+03  0.16557681967E+03  0.13842352643E+03  0.25587706059E+03  0.92477744359E+02 0.  0.
         24    2    1    2    0    0 -0.17025844979E+03 -0.14837206935E+03  0.26971760949E+03  0.36019293941E+03  0.77389624888E+02 0.  0.
        -11    1    4    4    0    0 -0.11780921506E+03 -0.95691090869E+02  0.23093682723E+03  0.27634690915E+03  0.00000000000E+00 0.  1.
         12    1    4    4    0    0 -0.52449234728E+02 -0.52680978478E+02  0.38780782263E+02  0.83846030257E+02  0.00000000000E+00 0. -1.
        -13    1    3    3    0    0  0.10362323150E+03  0.99283623187E+02  0.66900393295E+02  0.15833721787E+03  0.00000000000E+00 0.  1.
         13    1    3    3    0    0 -0.19168843256E+01  0.66293196478E+02  0.71523133139E+02  0.97539842725E+02  0.00000000000E+00 0. -1.
         21    1    1    2  503  501  0.92023582322E+02 -0.62421058254E+02  0.50750666918E+02  0.12223075885E+03  0.00000000000E+00 0.  1.
         -2    1    1    2    0  502 -0.23471479702E+02  0.45216307936E+02 -0.15949899185E+01  0.50970274235E+02  0.00000000000E+00 0.  1.
<scales pt_clust_5="13000.00000" pt_clust_6="13000.00000" pt_clust_7="13000.00000" pt_clust_8="13000.00000" pt_clust_9="104.78126" pt_clust_10="50.94534"></scales>
<clustering>
<clus scale="   50.945">  1 10  2 -1</clus>
<clus scale="   77.390">  5  6 -1 -1</clus>
<clus scale="   92.478">  7  8 -1 -1</clus>
<clus scale="  104.781">  2  9  1 -1</clus>
<clus scale="  221.081">  1  5  2 -1</clus>
<clus scale="   50.945">  1  5  2 -1</clus>
</clustering>
</event>
<event>
10    4  0.2977685E-005  0.1306811E+03  0.7546771E-02  0.1229284E+00
          2   -1    0    0  503    0 -0.00000000000E+00  0.00000000000E+00  0.72657176425E+03  0.72657176425E+03  0.00000000000E+00 0. -1.
         21   -1    0    0  501  502  0.00000000000E+00 -0.00000000000E+00 -0.52162532301E+02  0.52162532301E+02  0.00000000000E+00 0. -1.
         23    2    1    2    0    0 -0.42431096227E+02 -0.89928640925E+02  0.23147886996E+03  0.26770891038E+03  0.90543001230E+02 0.  0.
         24    2    1    2    0    0  0.33416930379E+02  0.97629904820E+02  0.19629201766E+03  0.23554972394E+03  0.79402938878E+02 0.  0.
        -13    1    4    4    0    0  0.49098329627E+02  0.31379850341E+02  0.11933115084E+03  0.13279783334E+03  0.00000000000E+00 0.  1.
         14    1    4    4    0    0 -0.15681399248E+02  0.66250054479E+02  0.76960866820E+02  0.10275189060E+03  0.00000000000E+00 0. -1.
        -13    1    3    3    0    0  0.14068107786E+02 -0.42656010453E+02  0.32244882277E+02  0.55291765367E+02  0.00000000000E+00 0. -1.
         13    1    3    3    0    0 -0.56499204012E+02 -0.47272630472E+02  0.19923398769E+03  0.21241714501E+03  0.00000000000E+00 0.  1.
         21    1    1    2  503  502  0.12560170250E+02  0.55555667135E+02  0.14403191226E+03  0.15488505989E+03  0.00000000000E+00 0. -1.
          1    1    1    2  501    0 -0.35460044025E+01 -0.63256931030E+02  0.10260643206E+03  0.12059060233E+03  0.00000000000E+00 0. -1.
<scales pt_clust_5="13000.00000" pt_clust_6="13000.00000" pt_clust_7="13000.00000" pt_clust_8="13000.00000" pt_clust_9="56.95779" pt_clust_10="52.52584"></scales>
<clustering>
<clus scale="   56.958">  1  9  2 -1</clus>
<clus scale="   52.526">  2 10  1 -1</clus>
<clus scale="   79.403">  5  6 -1 -1</clus>
<clus scale="   90.543">  7  8 -1 -1</clus>
<clus scale="  123.225">  2  5  1 -1</clus>
<clus scale="   52.526">  2  5  1 -1</clus>
</clustering>
</event>
<event>
10    4  0.2977685E-005  0.2421020E+03  0.7546771E-02  0.1119405E+00
          2   -1    0    0  503    0 -0.00000000000E+00  0.00000000000E+00  0.14103145048E+04  0.14103145048E+04  0.00000000000E+00 0. -1.
         21   -1    0    0  501  502  0.00000000000E+00 -0.00000000000E+00 -0.28002272613E+03  0.28002272613E+03  0.00000000000E+00 0. -1.
         24    2    1    2    0    0  0.24041055793E+03  0.13990828039E+03  0.93673696628E+03  0.98040232365E+03  0.79630452431E+02 0.  0.
         23    2    1    2    0    0 -0.15064884625E+03 -0.26385523169E+03  0.13158569985E+02  0.31891382151E+03  0.96011558781E+02 0.  0.
        -13    1    3    3    0    0  0.55285771824E+02  0.65394706206E+02  0.36254173280E+03  0.37251777433E+03  0.00000000000E+00 0.  1.
         14    1    3    3    0    0  0.18512478610E+03  0.74513574179E+02  0.57419523347E+03  0.60788454933E+03  0.00000000000E+00 0. -1.
        -13    1    4    4    0    0 -0.17976251964E+02 -0.57765734953E+02 -0.33880375242E+02  0.69339062555E+02  0.00000000000E+00 0.  1.
         13    1    4    4    0    0 -0.13267259429E+03 -0.20608949674E+03  0.47038945228E+02  0.24957475896E+03  0.00000000000E+00 0. -1.
         21    1    1    2  503  502 -0.11899246489E+03  0.13612161898E+02  0.23555194611E+03  0.26425218441E+03  0.00000000000E+00 0. -1.
          1    1    1    2  501    0  0.29230753210E+02  0.11033478941E+03 -0.55155703729E+02  0.12676890132E+03  0.00000000000E+00 0. -1.
<scales pt_clust_5="13000.00000" pt_clust_6="13000.00000" pt_clust_7="13000.00000" pt_clust_8="13000.00000" pt_clust_9="118.82566" pt_clust_10="114.14115"></scales>
<clustering>
<clus scale="   79.630">  5  6 -1 -1</clus>
<clus scale="   96.012">  7  8 -1 -1</clus>
<clus scale="  114.141">  2 10  1 -1</clus>
<clus scale="  118.826">  1  9  2 -1</clus>
<clus scale="  236.085">  1  5  2 -1</clus>
<clus scale="  114.141">  2  5  1 -1</clus>
</clustering>
</event>
<event>
10    4  0.6401493E-005  0.2171480E+03  0.7546771E-02  0.1137165E+00
         -1   -1    0    0    0  501 -0.00000000000E+00  0.00000000000E+00  0.28234748838E+03  0.28234748838E+03  0.00000000000E+00 0.  1.
         21   -1    0    0  503  502  0.00000000000E+00 -0.00000000000E+00 -0.72502876715E+03  0.72502876715E+03  0.00000000000E+00 0.  1.
         23    2    1    2    0    0  0.14137279830E+03 -0.11749562755E+03  0.19572474653E+03  0.28467038739E+03  0.94538682346E+02 0.  0.
         24    2    1    2    0    0 -0.11556737936E+03  0.87119435525E+02 -0.34871915881E+03  0.38594631673E+03  0.80024324159E+02 0.  0.
        -11    1    4    4    0    0 -0.79857188797E+02  0.10718096512E+02 -0.15589067169E+03  0.17548204956E+03  0.00000000000E+00 0.  1.
         12    1    4    4    0    0 -0.35710190567E+02  0.76401339013E+02 -0.19282848712E+03  0.21046426718E+03  0.00000000000E+00 0. -1.
        -11    1    3    3    0    0  0.92287542764E+02 -0.92377742221E+02  0.18813819734E+03  0.22901226846E+03  0.00000000000E+00 0.  1.
         11    1    3    3    0    0  0.49085255533E+02 -0.25117885332E+02  0.75865491934E+01  0.55658118931E+02  0.00000000000E+00 0. -1.
         21    1    1    2  503  501  0.36650978282E+02  0.10020012000E+02  0.17253827071E+01  0.38035138951E+02  0.00000000000E+00 0.  1.
         -2    1    1    2    0  502 -0.62456397215E+02  0.20356180027E+02 -0.29141224919E+03  0.29872441246E+03  0.00000000000E+00 0.  1.
<scales pt_clust_5="13000.00000" pt_clust_6="13000.00000" pt_clust_7="13000.00000" pt_clust_8="13000.00000" pt_clust_9="37.99598" pt_clust_10="65.24849"></scales>
<clustering>
<clus scale="   37.996">  1  9  2 -1</clus>
<clus scale="   65.248">  2 10  1 -1</clus>
<clus scale="   80.024">  5  6 -1 -1</clus>
<clus scale="   94.539">  7  8 -1 -1</clus>
<clus scale="  211.233">  2  5  1 -1</clus>
<clus scale="   65.248">  2  5  1 -1</clus>
</clustering>
</event>
<event>
10    4  0.2977685E-005  0.2625489E+03  0.7546771E-02  0.1106305E+00
         21   -1    0    0  501  502  0.00000000000E+00  0.00000000000E+00  0.68396043884E+03  0.68396043884E+03  0.00000000000E+00 0. -1.
          2   -1    0    0  503    0 -0.00000000000E+00 -0.00000000000E+00 -0.31497196396E+03  0.31497196396E+03  0.00000000000E+00 0. -1.
         23    2    1    2    0    0  0.92445425871E+02  0.21801001773E+03  0.20187729851E+03  0.32629577651E+03  0.98183326079E+02 0.  0.
         24    2    1    2    0    0 -0.10046316494E+03 -0.22500728637E+03  0.29001943860E+03  0.38999530604E+03  0.85228736574E+02 0.  0.
        -11    1    4    4    0    0 -0.16619657525E+02 -0.20403886946E+02  0.83080742529E+02  0.87148960969E+02  0.00000000000E+00 0.  1.
         12    1    4    4    0    0 -0.83843507416E+02 -0.20460339942E+03  0.20693869607E+03  0.30284634507E+03  0.00000000000E+00 0. -1.
        -13    1    3    3    0    0  0.39038387869E+02  0.29501178184E+02  0.60870030460E+01  0.49308892177E+02  0.00000000000E+00 0.  1.
         13    1    3    3    0    0  0.53407038002E+02  0.18850883955E+03  0.19579029546E+03  0.27698688433E+03  0.00000000000E+00 0. -1.
         21    1    1    2  503  502  0.71176563697E+02  0.11054710884E+02 -0.18219769330E+03  0.19591913969E+03  0.00000000000E+00 0. -1.
          1    1    1    2  501    0 -0.63158824627E+02 -0.40574422468E+01  0.59289431075E+02  0.86722180571E+02  0.00000000000E+00 0. -1.
<scales pt_clust_5="13000.00000" pt_clust_6="13000.00000" pt_clust_7="13000.00000" pt_clust_8="13000.00000" pt_clust_9="71.32212" pt_clust_10="63.28902"></scales>
<clustering>
<clus scale="   63.289">  1 10  2 -1</clus>
<clus scale="   71.322">  2  9  1 -1</clus>
<clus scale="   85.229">  5  6 -1 -1</clus>
<clus scale="   98.183">  7  8 -1 -1</clus>
<clus scale="  257.984">  1  5  2 -1</clus>
<clus scale="   63.289">  1  5  2 -1</clus>
</clustering>
</event>
<event>
10    4  0.2977685E-005  0.1181845E+03  0.7546771E-02  0.1249659E+00
         21   -1    0    0  501  502  0.00000000000E+00  0.00000000000E+00  0.43450733070E+02  0.43450733070E+02  0.00000000000E+00 0. -1.
          2   -1    0    0  503    0 -0.00000000000E+00 -0.00000000000E+00 -0.87446894625E+03  0.87446894625E+03  0.00000000000E+00 0. -1.
         24    2    1    2    0    0 -0.49394659309E+02 -0.34405810748E+02 -0.46464337635E+03  0.47568011059E+03  0.82185815308E+02 0.  0.
         23    2    1    2    0    0  0.42963532061E+02  0.95504891886E+02 -0.19250971969E+03  0.23796638702E+03  0.92741359252E+02 0.  0.
        -11    1    3    3    0    0 -0.51603034937E+02 -0.38035587922E+02 -0.18121360359E+03  0.19221849362E+03  0.00000000000E+00 0.  1.
         12    1    3    3    0    0  0.22083756285E+01  0.36297771738E+01 -0.28342977277E+03  0.28346161697E+03  0.00000000000E+00 0. -1.
        -13    1    4    4    0    0 -0.26004804406E+02  0.11834274532E+02 -0.62166893121E+02  0.68417998408E+02  0.00000000000E+00 0.  1.
         13    1    4    4    0    0  0.68968336467E+02  0.83670617354E+02 -0.13034282657E+03  0.16954838861E+03  0.00000000000E+00 0. -1.
         21    1    1    2  503  502  0.38656998566E+02 -0.35154677380E+02 -0.14417247162E+03  0.15334900212E+03  0.00000000000E+00 0. -1.
          1    1    1    2  501    0 -0.32225871319E+02 -0.25944403758E+02 -0.29692645518E+02  0.50924179586E+02  0.00000000000E+00 0. -1.
<scales pt_clust_5="13000.00000" pt_clust_6="13000.00000" pt_clust_7="13000.00000" pt_clust_8="13000.00000" pt_clust_9="51.67571" pt_clust_10="41.37172"></scales>
<clustering>
<clus scale="   41.372">  1 10  2 -1</clus>
<clus scale="   51.676">  2  9  1 -1</clus>
<clus scale="   82.186">  5  6 -1 -1</clus>
<clus scale="   92.741">  7  8 -1 -1</clus>
<clus scale="  110.096">  2  5  1 -1</clus>
<clus scale="   41.372">  1  5  2 -1</clus>
</clustering>
</event>
<event>
10    4  0.2977685E-005  0.1102545E+03  0.7546771E-02  0.1266018E+00
          2   -1    0    0  503    0 -0.00000000000E+00  0.00000000000E+00  0.36349188560E+03  0.36349188560E+03  0.00000000000E+00 0. -1.
         21   -1    0    0  501  502  0.00000000000E+00 -0.00000000000E+00 -0.14907711547E+03  0.14907711547E+03  0.00000000000E+00 0.  1.
         24    2    1    2    0    0 -0.58235533052E+02 -0.58900677443E+02  0.26445472530E+03  0.28759055308E+03  0.76885352155E+02 0.  0.
         23    2    1    2    0    0  0.95284697244E+01  0.26587703476E+02 -0.80758151958E+02  0.12547216324E+03  0.91780645725E+02 0.  0.
        -13    1    3    3    0    0 -0.66358329804E+02 -0.16430012606E+02  0.13916941906E+03  0.15505321812E+03  0.00000000000E+00 0.  1.
         14    1    3    3    0    0  0.81227967523E+01 -0.42470664837E+02  0.12528530624E+03  0.13253733496E+03  0.00000000000E+00 0. -1.
        -11    1    4    4    0    0  0.37157330426E+02  0.34705059533E+01 -0.81286495011E+02  0.89443870037E+02  0.00000000000E+00 0.  1.
         11    1    4    4    0    0 -0.27628860701E+02  0.23117197522E+02  0.52834305357E+00  0.36028293206E+02  0.00000000000E+00 0. -1.
         21    1    1    2  503  502  0.83566776720E+01  0.20758220871E+02  0.48891121765E+02  0.53768760288E+02  0.00000000000E+00 0.  1.
          1    1    1    2  501    0  0.40350385656E+02  0.11554753097E+02 -0.18172924968E+02  0.45737524458E+02  0.00000000000E+00 0. -1.
<scales pt_clust_5="13000.00000" pt_clust_6="13000.00000" pt_clust_7="13000.00000" pt_clust_8="13000.00000" pt_clust_9="22.37717" pt_clust_10="42.58635"></scales>
<clustering>
<clus scale="   22.377">  1  9  2 -1</clus>
<clus scale="   42.586">  2 10  1 -1</clus>
<clus scale="   76.885">  5  6 -1 -1</clus>
<clus scale="   91.781">  7  8 -1 -1</clus>
<clus scale="   98.202">  1  5  2 -1</clus>
<clus scale="   42.586">  2  5  1 -1</clus>
</clustering>
</event>
<event>
10    4  0.2977685E-005  0.1343458E+03  0.7546771E-02  0.1223884E+00
          4   -1    0    0  503    0 -0.00000000000E+00  0.00000000000E+00  0.56330331922E+03  0.56330331922E+03  0.00000000000E+00 0. -1.
         21   -1    0    0  501  502  0.00000000000E+00 -0.00000000000E+00 -0.64991154307E+02  0.64991154307E+02  0.00000000000E+00 0. -1.
         23    2    1    2    0    0  0.10168899681E+02  0.93488635265E+02  0.39056148411E+03  0.41209810551E+03  0.91886039469E+02 0.  0.
         24    2    1    2    0    0 -0.62095944940E+01 -0.70903926510E+02  0.41313576024E+02  0.11516724918E+03  0.80565239784E+02 0.  0.
        -11    1    4    4    0    0 -0.18871196168E+02  0.67271346249E+01  0.29453322655E+02  0.35621266127E+02  0.00000000000E+00 0.  1.
         12    1    4    4    0    0  0.12661601674E+02 -0.77631061135E+02  0.11860253369E+02  0.79545983053E+02  0.00000000000E+00 0. -1.
        -11    1    3    3    0    0  0.10535089520E+02  0.30468212876E+02  0.24083156422E+02  0.40240508574E+02  0.00000000000E+00 0.  1.
         11    1    3    3    0    0 -0.36618983916E+00  0.63020422389E+02  0.36647832769E+03  0.37185759694E+03  0.00000000000E+00 0. -1.
         21    1    1    2  503  502  0.15524442039E+02  0.20157777739E+02  0.39190692833E+02  0.46725311221E+02  0.00000000000E+00 0.  1.
          3    1    1    2  501    0 -0.19483747226E+02 -0.42742486494E+02  0.27246411943E+02  0.54303807614E+02  0.00000000000E+00 0. -1.
<scales pt_clust_5="13000.00000" pt_clust_6="13000.00000" pt_clust_7="13000.00000" pt_clust_8="13000.00000" pt_clust_9="25.44296" pt_clust_10="45.03415"></scales>
<clustering>
<clus scale="   25.443">  1  9  2 -1</clus>
<clus scale="   45.034">  2 10  1 -1</clus>
<clus scale="   80.565">  5  6 -1 -1</clus>
<clus scale="   91.886">  7  8 -1 -1</clus>
<clus scale="  126.872">  2  5  1 -1</clus>
<clus scale="   45.034">  2  5  1 -1</clus>
</clustering>
</event>
<event>
10    4  0.2977685E-005  0.3526762E+03  0.7546771E-02  0.1063105E+00
         21   -1    0    0  501  502  0.00000000000E+00  0.00000000000E+00  0.20830436235E+03  0.20830436235E+03  0.00000000000E+00 0. -1.
          2   -1    0    0  503    0 -0.00000000000E+00 -0.00000000000E+00 -0.98722406547E+03  0.98722406547E+03  0.00000000000E+00 0. -1.
         24    2    1    2    0    0 -0.37356631175E+03 -0.21096674106E+02 -0.48742021990E+03  0.61888371290E+03  0.73768017415E+02 0.  0.
         23    2    1    2    0    0  0.26995042051E+03  0.10227378064E+03 -0.10183638858E+03  0.33113029201E+03  0.12626743250E+03 0.  0.
        -11    1    3    3    0    0 -0.75026373437E+02  0.24261462641E+02 -0.87903050291E+02  0.11808692362E+03  0.00000000000E+00 0.  1.
         12    1    3    3    0    0 -0.29853993831E+03 -0.45358136747E+02 -0.39951716961E+03  0.50079678927E+03  0.00000000000E+00 0. -1.
        -13    1    4    4    0    0  0.10068271062E+03  0.49913728689E+02 -0.10517735888E+03  0.15391772266E+03  0.00000000000E+00 0.  1.
         13    1    4    4    0    0  0.16926770989E+03  0.52360051946E+02  0.33409703044E+01  0.17721256935E+03  0.00000000000E+00 0. -1.
         21    1    1    2  503  502  0.39363839361E+02  0.13355243126E+02 -0.52825875481E+02  0.67219398157E+02  0.00000000000E+00 0. -1.
          1    1    1    2  501    0  0.64252051878E+02 -0.94532349656E+02 -0.13683721916E+03  0.17829502475E+03  0.00000000000E+00 0. -1.
<scales pt_clust_5="13000.00000" pt_clust_6="13000.00000" pt_clust_7="13000.00000" pt_clust_8="13000.00000" pt_clust_9="41.56771" pt_clust_10="116.38352"></scales>
<clustering>
<clus scale="   41.568">  2  9  1 -1</clus>
<clus scale="   73.768">  5  6 -1 -1</clus>
<clus scale="  116.384">  1 10  2 -1</clus>
<clus scale="  126.267">  7  8 -1 -1</clus>
<clus scale="  337.459">  2  5  1 -1</clus>
<clus scale="  116.384">  1  5  2 -1</clus>
</clustering>
</event>
<event>
10    4  0.2977685E-005  0.1993251E+03  0.7546771E-02  0.1178227E+00
         21   -1    0    0  501  502  0.00000000000E+00  0.00000000000E+00  0.19926804949E+03  0.19926804949E+03  0.00000000000E+00 0. -1.
          2   -1    0    0  503    0 -0.00000000000E+00 -0.00000000000E+00 -0.39932567426E+03  0.39932567426E+03  0.00000000000E+00 0. -1.
         24    2    1    2    0    0  0.47342724739E+02 -0.47848477373E+02 -0.13396523141E+03  0.17034650625E+03  0.80872978148E+02 0.  0.
         23    2    1    2    0    0 -0.15864877760E+03  0.10905786722E+03  0.50817488188E+02  0.21864650401E+03  0.90337276763E+02 0.  0.
        -11    1    3    3    0    0  0.54251587474E+02 -0.36154471145E+02 -0.42378419900E+02  0.77758028527E+02  0.00000000000E+00 0.  1.
         12    1    3    3    0    0 -0.69088627342E+01 -0.11694006228E+02 -0.91586811505E+02  0.92588477726E+02  0.00000000000E+00 0. -1.
        -11    1    4    4    0    0 -0.14780402063E+03  0.57390949538E+02  0.27451994174E+02  0.16091414353E+03  0.00000000000E+00 0. -1.
         11    1    4    4    0    0 -0.10844756976E+02  0.51666917684E+02  0.23365494014E+02  0.57732360487E+02  0.00000000000E+00 0.  1.
         21    1    1    2  503  502 -0.24895894217E+02 -0.90131882147E+01 -0.83091384543E+01  0.27750403466E+02  0.00000000000E+00 0. -1.
          1    1    1    2  501    0  0.13620194708E+03 -0.52196201635E+02 -0.10860074310E+03  0.18185031002E+03  0.00000000000E+00 0. -1.
<scales pt_clust_5="13000.00000" pt_clust_6="13000.00000" pt_clust_7="13000.00000" pt_clust_8="13000.00000" pt_clust_9="26.47722" pt_clust_10="177.67868"></scales>
<clustering>
<clus scale="   26.477">  1  9  2 -1</clus>
<clus scale="   80.873">  5  6 -1 -1</clus>
<clus scale="   90.337">  7  8 -1 -1</clus>
<clus scale="  104.567">  2  5  1 -1</clus>
<clus scale="  177.679">  1 10  2 -1</clus>
<clus scale="   26.477">  1  5  2 -1</clus>
</clustering>
</event>
<event>
10    4  0.2977685E-005  0.2229373E+03  0.7546771E-02  0.1137669E+00
         21   -1    0    0  501  502  0.00000000000E+00  0.00000000000E+00  0.28195242972E+03  0.28195242972E+03  0.00000000000E+00 0.  1.
          2   -1    0    0  503    0 -0.00000000000E+00 -0.00000000000E+00 -0.69346533090E+03  0.69346533090E+03  0.00000000000E+00 0. -1.
         23    2    1    2    0    0  0.20713526045E+03 -0.61743213856E+02 -0.42614228442E+03  0.48645588494E+03  0.91240565773E+02 0.  0.
         24    2    1    2    0    0 -0.16349698279E+02  0.14820809513E+03  0.54108559887E+02  0.17690235574E+03  0.78318293621E+02 0.  0.
        -11    1    4    4    0    0 -0.43104855529E+02  0.10037120439E+03  0.16608244222E+02  0.11049090921E+03  0.00000000000E+00 0.  1.
         12    1    4    4    0    0  0.26755157250E+02  0.47836890739E+02  0.37500315665E+02  0.66411446528E+02  0.00000000000E+00 0. -1.
        -13    1    3    3    0    0  0.12252117522E+02 -0.32023079623E+02 -0.95944601251E+02  0.10188698897E+03  0.00000000000E+00 0.  1.
         13    1    3    3    0    0  0.19488314293E+03 -0.29720134233E+02 -0.33019768317E+03  0.38456889597E+03  0.00000000000E+00 0. -1.
         21    1    1    2  503  502 -0.19142179884E+03 -0.14185406452E+03 -0.70637704100E+02  0.24850465978E+03  0.00000000000E+00 0.  1.
          1    1    1    2  501    0  0.63623666957E+00  0.55389183241E+02  0.31158527452E+02  0.63554860162E+02  0.00000000000E+00 0. -1.
<scales pt_clust_5="13000.00000" pt_clust_6="13000.00000" pt_clust_7="13000.00000" pt_clust_8="13000.00000" pt_clust_9="203.41144" pt_clust_10="55.39284"></scales>
<clustering>
<clus scale="   55.393">  1 10  2 -1</clus>
<clus scale="   78.318">  5  6 -1 -1</clus>
<clus scale="   91.241">  7  8 -1 -1</clus>
<clus scale="  192.831">  1  5  2 -1</clus>
<clus scale="  203.411">  1  9  2 -1</clus>
<clus scale="   55.393">  1  5  2 -1</clus>
</clustering>
</event>
<event>
10    4  0.4337547E-005  0.8085976E+02  0.7546771E-02  0.1328523E+00
         -3   -1    0    0    0  501 -0.00000000000E+00  0.00000000000E+00  0.13501944052E+03  0.13501944052E+03  0.00000000000E+00 0.  1.
         21   -1    0    0  503  502  0.00000000000E+00 -0.00000000000E+00 -0.22821593681E+03  0.22821593681E+03  0.00000000000E+00 0.  1.
         24    2    1    2    0    0 -0.27449064188E+02 -0.17106077496E+02  0.66049392834E+02  0.10861897239E+03  0.79934284623E+02 0.  0.
         23    2    1    2    0    0 -0.22506242090E+02  0.17124675459E+02 -0.32511426695E+02  0.88448654513E+02  0.77242385882E+02 0.  0.
        -11    1    3    3    0    0 -0.38523917167E+02 -0.10784937612E+02  0.80167299831E+02  0.89594659637E+02  0.00000000000E+00 0.  1.
         12    1    3    3    0    0  0.11074852979E+02 -0.63211398835E+01 -0.14117906997E+02  0.19024312758E+02  0.00000000000E+00 0. -1.
        -11    1    4    4    0    0 -0.41867485776E+02  0.77084783838E+01  0.72962293516E+01  0.43191920159E+02  0.00000000000E+00 0.  1.
         11    1    4    4    0    0  0.19361243687E+02  0.94161970757E+01 -0.39807656047E+02  0.45256734354E+02  0.00000000000E+00 0. -1.
         21    1    1    2  503  501  0.10081102738E+02  0.18424449669E+02  0.94808801752E+01  0.23042917934E+02  0.00000000000E+00 0. -1.
         -4    1    1    2    0  502  0.39874203540E+02 -0.18443047633E+02 -0.13621534260E+03  0.14312483248E+03  0.00000000000E+00 0.  1.
<scales pt_clust_5="13000.00000" pt_clust_6="13000.00000" pt_clust_7="13000.00000" pt_clust_8="13000.00000" pt_clust_9="21.00212" pt_clust_10="43.97828"></scales>
<clustering>
<clus scale="   21.002">  1  9  2 -1</clus>
<clus scale="   43.978">  2 10  1 -1</clus>
<clus scale="   77.242">  7  8 -1 -1</clus>
<clus scale="   78.200">  2  7  1 -1</clus>
<clus scale="   79.934">  5  6 -1 -1</clus>
<clus scale="   43.978">  2  5  1 -1</clus>
</clustering>
</event>
<event>
10    4  0.2977685E-005  0.1105066E+03  0.7546771E-02  0.1261177E+00
         21   -1    0    0  501  502  0.00000000000E+00  0.00000000000E+00  0.12665573480E+03  0.12665573480E+03  0.00000000000E+00 0.  1.
          2   -1    0    0  503    0 -0.00000000000E+00 -0.00000000000E+00 -0.27746232083E+03  0.27746232083E+03  0.00000000000E+00 0. -1.
         24    2    1    2    0    0  0.37224322110E+02 -0.17844799872E+02 -0.11628291452E+03  0.15023328933E+03  0.85698529599E+02 0.  0.
         23    2    1    2    0    0 -0.63290881515E+02 -0.11884287761E+02  0.54502643944E+02  0.12320643379E+03  0.89790395655E+02 0.  0.
        -11    1    3    3    0    0  0.17875479052E+02  0.31443392337E+02 -0.22680935625E+02  0.42692440945E+02  0.00000000000E+00 0.  1.
         12    1    3    3    0    0  0.19348843059E+02 -0.49288192209E+02 -0.93601978897E+02  0.10754084839E+03  0.00000000000E+00 0. -1.
        -13    1    4    4    0    0 -0.30038503523E+02  0.24523769518E+01 -0.22834232141E+02  0.37811744261E+02  0.00000000000E+00 0. -1.
         13    1    4    4    0    0 -0.33252377993E+02 -0.14336664712E+02  0.77336876085E+02  0.85394689529E+02  0.00000000000E+00 0.  1.
         21    1    1    2  503  502  0.38261633477E+02  0.49201686728E+02 -0.87794669801E+02  0.10766922782E+03  0.00000000000E+00 0. -1.
          1    1    1    2  501    0 -0.12195074073E+02 -0.19472599096E+02 -0.12316456521E+01  0.23009104680E+02  0.00000000000E+00 0. -1.
<scales pt_clust_5="13000.00000" pt_clust_6="13000.00000" pt_clust_7="13000.00000" pt_clust_8="13000.00000" pt_clust_9="60.36606" pt_clust_10="22.97612"></scales>
<clustering>
<clus scale="   22.976">  1 10  2 -1</clus>
<clus scale="   60.366">  2  9  1 -1</clus>
<clus scale="   85.699">  5  6 -1 -1</clus>
<clus scale="   89.790">  7  8 -1 -1</clus>
<clus scale="  107.208">  2  5  1 -1</clus>
<clus scale="   22.976">  1  5  2 -1</clus>
</clustering>
</event>
<event>
10    4  0.2977685E-005  0.9882038E+02  0.7546771E-02  0.1296985E+00
         21   -1    0    0  501  502  0.00000000000E+00  0.00000000000E+00  0.67096485690E+02  0.67096485690E+02  0.00000000000E+00 0. -1.
          2   -1    0    0  503    0 -0.00000000000E+00 -0.00000000000E+00 -0.28945876469E+03  0.28945876469E+03  0.00000000000E+00 0. -1.
         24    2    1    2    0    0 -0.40807557685E+02 -0.83866022143E+01 -0.10766681281E+03  0.13451468111E+03  0.69039590038E+02 0.  0.
         23    2    1    2    0    0  0.13182485998E+01 -0.32937160190E+02 -0.52079013365E+02  0.11221415011E+03  0.93772051009E+02 0.  0.
        -13    1    3    3    0    0  0.69524933956E+01  0.22627424995E+02 -0.32899055746E+02  0.40530055456E+02  0.00000000000E+00 0.  1.
         14    1    3    3    0    0 -0.47760051081E+02 -0.31014027209E+02 -0.74767757067E+02  0.93984625656E+02  0.00000000000E+00 0. -1.
        -11    1    4    4    0    0 -0.36383388971E+02 -0.40139656163E+01  0.60860389543E+01  0.37106640688E+02  0.00000000000E+00 0. -1.
         11    1    4    4    0    0  0.37701637571E+02 -0.28923194574E+02 -0.58165052319E+02  0.75107509419E+02  0.00000000000E+00 0.  1.
         21    1    1    2  503  502 -0.78839254122E+01  0.30871754816E+02 -0.50685084785E+02  0.59868183077E+02  0.00000000000E+00 0. -1.
          1    1    1    2  501    0  0.47373234498E+02  0.10452007588E+02 -0.11931368038E+02  0.49958236084E+02  0.00000000000E+00 0. -1.
<scales pt_clust_5="13000.00000" pt_clust_6="13000.00000" pt_clust_7="13000.00000" pt_clust_8="13000.00000" pt_clust_9="31.86254" pt_clust_10="48.55682"></scales>
<clustering>
<clus scale="   31.863">  2  9  1 -1</clus>
<clus scale="   48.557">  1 10  2 -1</clus>
<clus scale="   69.040">  5  6 -1 -1</clus>
<clus scale="   75.754">  2  5  1 -1</clus>
<clus scale="   93.772">  7  8 -1 -1</clus>
<clus scale="   48.557">  1  5  2 -1</clus>
</clustering>
</event>
<event>
10    4  0.2977685E-005  0.1762901E+03  0.7546771E-02  0.1173074E+00
         21   -1    0    0  501  502  0.00000000000E+00  0.00000000000E+00  0.46259866654E+03  0.46259866654E+03  0.00000000000E+00 0. -1.
          2   -1    0    0  503    0 -0.00000000000E+00 -0.00000000000E+00 -0.18747731116E+03  0.18747731116E+03  0.00000000000E+00 0. -1.
         23    2    1    2    0    0  0.49665239810E+02  0.13868014715E+03  0.75113342004E+02  0.19179523519E+03  0.97183223006E+02 0.  0.
         24    2    1    2    0    0 -0.10379980326E+03 -0.14499229670E+03  0.26130841176E+03  0.32756311657E+03  0.84960838145E+02 0.  0.
        -13    1    4    4    0    0 -0.38998691703E+02 -0.26237630935E+02  0.13318920257E+03  0.14123977808E+03  0.00000000000E+00 0.  1.
         14    1    4    4    0    0 -0.64801111555E+02 -0.11875466577E+03  0.12811920920E+03  0.18632333849E+03  0.00000000000E+00 0. -1.
        -13    1    3    3    0    0  0.75866271696E+02  0.12601480027E+03  0.66666325716E+02  0.16149247677E+03  0.00000000000E+00 0. -1.
         13    1    3    3    0    0 -0.26201031886E+02  0.12665346880E+02  0.84470162874E+01  0.30302758417E+02  0.00000000000E+00 0.  1.
         21    1    1    2  503  502  0.15440317714E+02 -0.46954028587E+02 -0.22609150801E+02  0.54353085576E+02  0.00000000000E+00 0. -1.
          1    1    1    2  501    0  0.38694245734E+02  0.53266178138E+02 -0.38691247591E+02  0.76364540374E+02  0.00000000000E+00 0. -1.
<scales pt_clust_5="13000.00000" pt_clust_6="13000.00000" pt_clust_7="13000.00000" pt_clust_8="13000.00000" pt_clust_9="49.42757" pt_clust_10="56.82216"></scales>
<clustering>
<clus scale="   49.428">  2  9  1 -1</clus>
<clus scale="   56.822">  1 10  2 -1</clus>
<clus scale="   84.961">  5  6 -1 -1</clus>
<clus scale="   97.183">  7  8 -1 -1</clus>
<clus scale="  169.859">  1  5  2 -1</clus>
<clus scale="   56.822">  1  5  2 -1</clus>
</clustering>
</event>
<event>
10    4  0.2977685E-005  0.9575573E+02  0.7546771E-02  0.1298825E+00
          2   -1    0    0  503    0 -0.00000000000E+00  0.00000000000E+00  0.24473871596E+03  0.24473871596E+03  0.00000000000E+00 0. -1.
         21   -1    0    0  501  502  0.00000000000E+00 -0.00000000000E+00 -0.23543778001E+03  0.23543778001E+03  0.00000000000E+00 0. -1.
         24    2    1    2    0    0 -0.40427149023E+02 -0.70905586496E+01  0.10147121693E+03  0.13442541845E+03  0.78033036975E+02 0.  0.
         23    2    1    2    0    0 -0.65421823422E+01 -0.26426835666E+02 -0.82724848067E+02  0.12793129733E+03  0.93711464371E+02 0.  0.
        -13    1    3    3    0    0 -0.81420505218E+00 -0.23581218106E+02 -0.70443739020E+00  0.23605783386E+02  0.00000000000E+00 0.  1.
         14    1    3    3    0    0 -0.39612943971E+02  0.16490659457E+02  0.10217565432E+03  0.11081963506E+03  0.00000000000E+00 0. -1.
        -11    1    4    4    0    0  0.43221705808E+02 -0.13118609271E+02 -0.47369242488E+02  0.65452722602E+02  0.00000000000E+00 0.  1.
         11    1    4    4    0    0 -0.49763888150E+02 -0.13308226396E+02 -0.35355605580E+02  0.62478574724E+02  0.00000000000E+00 0. -1.
         21    1    1    2  503  502  0.24213304398E+02  0.17518320179E+02  0.10027194037E+03  0.10463095946E+03  0.00000000000E+00 0. -1.
          1    1    1    2  501    0  0.22756026967E+02  0.15999074137E+02 -0.10971737329E+03  0.11318882073E+03  0.00000000000E+00 0. -1.
<scales pt_clust_5="13000.00000" pt_clust_6="13000.00000" pt_clust_7="13000.00000" pt_clust_8="13000.00000" pt_clust_9="30.37500" pt_clust_10="27.81739"></scales>
<clustering>
<clus scale="   27.817">  2 10  1 -1</clus>
<clus scale="   30.375">  1  9  2 -1</clus>
<clus scale="   78.033">  5  6 -1 -1</clus>
<clus scale="   80.477">  1  5  2 -1</clus>
<clus scale="   93.711">  7  8 -1 -1</clus>
<clus scale="   27.817">  2  5  1 -1</clus>
</clustering>
</event>
<event>
10    4  0.2977685E-005  0.1834519E+03  0.7546771E-02  0.1182409E+00
         21   -1    0    0  501  502  0.00000000000E+00  0.00000000000E+00  0.15331354850E+03  0.15331354850E+03  0.00000000000E+00 0. -1.
          4   -1    0    0  503    0 -0.00000000000E+00 -0.00000000000E+00 -0.58579593079E+03  0.58579593079E+03  0.00000000000E+00 0. -1.
         24    2    1    2    0    0  0.56871281277E-01  0.88978823306E+02 -0.21546535433E+03  0.24476513873E+03  0.74615145861E+02 0.  0.
         23    2    1    2    0    0 -0.10853614393E+03 -0.21210762570E+03 -0.18847011705E+03  0.31592299752E+03  0.86698419384E+02 0.  0.
        -11    1    3    3    0    0  0.31422964260E+02  0.26086943913E+02 -0.47221135646E+02  0.62432098934E+02  0.00000000000E+00 0.  1.
         12    1    3    3    0    0 -0.31366092979E+02  0.62891879392E+02 -0.16824421868E+03  0.18233303980E+03  0.00000000000E+00 0. -1.
        -11    1    4    4    0    0 -0.41175155679E+02 -0.12837198224E+02 -0.34889528417E+02  0.55474915922E+02  0.00000000000E+00 0.  1.
         11    1    4    4    0    0 -0.67360988252E+02 -0.19927042747E+03 -0.15358058863E+03  0.26044808160E+03  0.00000000000E+00 0. -1.
         21    1    1    2  503  502  0.13319054073E+02  0.18034253291E+02 -0.28986656288E+02  0.36645023345E+02  0.00000000000E+00 0.  1.
          3    1    1    2  501    0  0.95160218577E+02  0.10509454910E+03  0.43974537268E+00  0.14177631969E+03  0.00000000000E+00 0. -1.
<scales pt_clust_5="13000.00000" pt_clust_6="13000.00000" pt_clust_7="13000.00000" pt_clust_8="13000.00000" pt_clust_9="22.41944" pt_clust_10="161.67243"></scales>
<clustering>
<clus scale="   22.419">  2  9  1 -1</clus>
<clus scale="   74.615">  5  6 -1 -1</clus>
<clus scale="   86.698">  7  8 -1 -1</clus>
<clus scale="  122.098">  2  5  1 -1</clus>
<clus scale="  161.672">  1 10  2 -1</clus>
<clus scale="  161.672">  1  5  2 -1</clus>
</clustering>
</event>
<event>
10    4  0.2977685E-005  0.2370770E+03  0.7546771E-02  0.1122004E+00
          2   -1    0    0  503    0 -0.00000000000E+00  0.00000000000E+00  0.14430489766E+04  0.14430489766E+04  0.00000000000E+00 0. -1.
         21   -1    0    0  501  502  0.00000000000E+00 -0.00000000000E+00 -0.84584823387E+02  0.84584823387E+02  0.00000000000E+00 0. -1.
         24    2    1    2    0    0  0.26812193922E+03  0.54604565666E+02  0.57213653002E+03  0.64057384696E+03  0.90131079757E+02 0.  0.
         23    2    1    2    0    0 -0.15275011287E+03 -0.80694956024E+02  0.25259129267E+03  0.32009488639E+03  0.93883450347E+02 0.  0.
        -11    1    3    3    0    0  0.15335734617E+02  0.16095776448E+02  0.13027711909E+02  0.25767810409E+02  0.00000000000E+00 0.  1.
         12    1    3    3    0    0  0.25278620460E+03  0.38508789218E+02  0.55910881811E+03  0.61480603655E+03  0.00000000000E+00 0. -1.
        -13    1    4    4    0    0 -0.15406071554E+03 -0.44444862817E+02  0.20593912125E+03  0.26099994553E+03  0.00000000000E+00 0.  1.
         13    1    4    4    0    0  0.13106026733E+01 -0.36250093207E+02  0.46652171421E+02  0.59094940860E+02  0.00000000000E+00 0. -1.
         21    1    1    2  503  502 -0.61704558711E+02  0.48744560507E+02  0.48406463867E+03  0.49041009284E+03  0.00000000000E+00 0. -1.
          1    1    1    2  501    0 -0.53667267638E+02 -0.22654170149E+02  0.49671691814E+02  0.76554973767E+02  0.00000000000E+00 0. -1.
<scales pt_clust_5="13000.00000" pt_clust_6="13000.00000" pt_clust_7="13000.00000" pt_clust_8="13000.00000" pt_clust_9="79.91936" pt_clust_10="58.25279"></scales>
<clustering>
<clus scale="   58.253">  2 10  1 -1</clus>
<clus scale="   79.919">  1  9  2 -1</clus>
<clus scale="   90.131">  5  6 -1 -1</clus>
<clus scale="   93.883">  7  8 -1 -1</clus>
<clus scale="  235.616">  1  5  2 -1</clus>
<clus scale="   58.253">  2  5  1 -1</clus>
</clustering>
</event>
<event>
10    4  0.2977685E-005  0.5862891E+03  0.7546771E-02  0.1034710E+00
          2   -1    0    0  503    0 -0.00000000000E+00  0.00000000000E+00  0.19765561761E+04  0.19765561761E+04  0.00000000000E+00 0. -1.
         21   -1    0    0  501  502  0.00000000000E+00 -0.00000000000E+00 -0.33233620056E+03  0.33233620056E+03  0.00000000000E+00 0. -1.
         24    2    1    2    0    0  0.21003566719E+02 -0.13428908714E+03  0.79060171613E+02  0.17811948039E+03  0.83673949478E+02 0.  0.
         23    2    1    2    0    0 -0.57891563815E+03 -0.20769775235E+03  0.52278988070E+03  0.81241888426E+03  0.91834153234E+02 0.  0.
        -13    1    3    3    0    0  0.23051444885E+02 -0.27686847089E+02 -0.11929425082E+02  0.37950517728E+02  0.00000000000E+00 0.  1.
         14    1    3    3    0    0 -0.20478781657E+01 -0.10660224005E+03  0.90989596695E+02  0.14016896267E+03  0.00000000000E+00 0. -1.
        -11    1    4    4    0    0 -0.19519807445E+02  0.68556838588E+01  0.31137690227E+02  0.37384208384E+02  0.00000000000E+00 0.  1.
         11    1    4    4    0    0 -0.55939583071E+03 -0.21455343621E+03  0.49165219047E+03  0.77503467587E+03  0.00000000000E+00 0. -1.
         21    1    1    2  503  502  0.14386186302E+03 -0.48526666564E+02  0.53417859739E+03  0.55533579653E+03  0.00000000000E+00 0. -1.
          1    1    1    2  501    0  0.41405020841E+03  0.39051350606E+03  0.50819132582E+03  0.76301821547E+03  0.00000000000E+00 0. -1.
<scales pt_clust_5="13000.00000" pt_clust_6="13000.00000" pt_clust_7="13000.00000" pt_clust_8="13000.00000" pt_clust_9="151.82580" pt_clust_10="579.05217"></scales>
<clustering>
<clus scale="   83.674">  5  6 -1 -1</clus>
<clus scale="   91.834">  7  8 -1 -1</clus>
<clus scale="  151.826">  1  9  2 -1</clus>
<clus scale="  165.455">  1  5  2 -1</clus>
<clus scale="  579.052">  2 10  1 -1</clus>
<clus scale="  579.052">  2  5  1 -1</clus>
</clustering>
</event>
<event>
10    4  0.2977685E-005  0.1249376E+03  0.7546771E-02  0.1240400E+00
          2   -1    0    0  503    0 -0.00000000000E+00  0.00000000000E+00  0.22532928559E+04  0.22532928559E+04  0.00000000000E+00 0. -1.
         21   -1    0    0  501  502  0.00000000000E+00 -0.00000000000E+00 -0.48869922815E+02  0.48869922815E+02  0.00000000000E+00 0.  1.
         24    2    1    2    0    0 -0.14777118504E+03 -0.21791910171E+02  0.16170122114E+04  0.16257510029E+04  0.77631315897E+02 0.  0.
         23    2    1    2    0    0  0.53711873380E+02  0.26854178214E+02  0.44093426918E+02  0.12073025828E+03  0.95002382802E+02 0.  0.
        -11    1    3    3    0    0 -0.40099541432E+02  0.14394291623E+02  0.21729542949E+03  0.22143277203E+03  0.00000000000E+00 0.  1.
         12    1    3    3    0    0 -0.10767164361E+03 -0.36186201794E+02  0.13997167819E+04  0.14043182309E+04  0.00000000000E+00 0. -1.
        -11    1    4    4    0    0  0.34727859481E+02 -0.25309963308E+02  0.48795680167E+02  0.65020280450E+02  0.00000000000E+00 0. -1.
         11    1    4    4    0    0  0.18984013899E+02  0.52164141522E+02 -0.47022532492E+01  0.55709977833E+02  0.00000000000E+00 0.  1.
         21    1    1    2  503  502  0.71214945150E+02  0.24295938775E+02  0.42642758616E+03  0.43301541231E+03  0.00000000000E+00 0. -1.
          1    1    1    2  501    0  0.22844366511E+02 -0.29358206818E+02  0.11688970861E+03  0.12266610521E+03  0.00000000000E+00 0. -1.
<scales pt_clust_5="13000.00000" pt_clust_6="13000.00000" pt_clust_7="13000.00000" pt_clust_8="13000.00000" pt_clust_9="76.15675" pt_clust_10="37.19905"></scales>
<clustering>
<clus scale="   37.199">  2 10  1 -1</clus>
<clus scale="   76.157">  1  9  2 -1</clus>
<clus scale="   77.631">  5  6 -1 -1</clus>
<clus scale="   95.002">  7  8 -1 -1</clus>
<clus scale="  112.297">  1  5  2 -1</clus>
<clus scale="   37.199">  2  5  1 -1</clus>
</clustering>
</event>
<event>
10    4  0.2977685E-005  0.3522202E+03  0.7546771E-02  0.1062074E+00
          2   -1    0    0  503    0 -0.00000000000E+00  0.00000000000E+00  0.41813844174E+04  0.41813844174E+04  0.00000000000E+00 0. -1.
         21   -1    0    0  501  502  0.00000000000E+00 -0.00000000000E+00 -0.72222919107E+02  0.72222919107E+02  0.00000000000E+00 0. -1.
         23    2    1    2    0    0  0.12663353034E+03  0.21960121364E+03  0.11538656986E+04  0.11845474655E+04  0.86521115783E+02 0.  0.
         24    2    1    2    0    0 -0.20010268110E+03 -0.43983249450E+03  0.12699077932E+04  0.13605642093E+04  0.70536927111E+02 0.  0.
        -11    1    4    4    0    0  0.14789489803E+01 -0.38626885557E+02  0.82720723820E+02  0.91306854765E+02  0.00000000000E+00 0.  1.
         12    1    4    4    0    0 -0.20158163008E+03 -0.40120560895E+03  0.11871870694E+04  0.12692573545E+04  0.00000000000E+00 0. -1.
        -13    1    3    3    0    0  0.75837261810E+02  0.50488934013E+02  0.41310572506E+03  0.42303281529E+03  0.00000000000E+00 0.  1.
         13    1    3    3    0    0  0.50796268534E+02  0.16911227962E+03  0.74075997358E+03  0.76151465020E+03  0.00000000000E+00 0. -1.
         21    1    1    2  503  502  0.98948299624E+02  0.56208492712E+02  0.64995195579E+03  0.65983915122E+03  0.00000000000E+00 0. -1.
          1    1    1    2  501    0 -0.25479148865E+02  0.16402278815E+03  0.10354360507E+04  0.10486565106E+04  0.00000000000E+00 0. -1.
<scales pt_clust_5="13000.00000" pt_clust_6="13000.00000" pt_clust_7="13000.00000" pt_clust_8="13000.00000" pt_clust_9="113.79877" pt_clust_10="180.67110"></scales>
<clustering>
<clus scale="   70.537">  5  6 -1 -1</clus>
<clus scale="   86.521">  7  8 -1 -1</clus>
<clus scale="  113.799">  1  9  2 -1</clus>
<clus scale="  180.671">  2 10  1 -1</clus>
<clus scale="  348.638">  2  5  1 -1</clus>
<clus scale="  180.671">  2  5  1 -1</clus>
</clustering>
</event>
<event>
10    4  0.2977685E-005  0.9357343E+02  0.7546771E-02  0.1300945E+00
          2   -1    0    0  503    0 -0.00000000000E+00  0.00000000000E+00  0.33580291941E+03  0.33580291941E+03  0.00000000000E+00 0. -1.
         21   -1    0    0  501  502  0.00000000000E+00 -0.00000000000E+00 -0.10579171144E+03  0.10579171144E+03  0.00000000000E+00 0. -1.
         23    2    1    2    0    0 -0.37317494685E+02  0.19075528001E+02  0.12797394209E+03  0.16282391705E+03  0.91530469956E+02 0.  0.
         24    2    1    2    0    0 -0.17508958653E+02 -0.17764952516E+02 -0.12957207900E+02  0.85381866492E+02  0.80622681164E+02 0.  0.
        -13    1    4    4    0    0 -0.54268376911E+01 -0.47748652863E+02  0.51472662082E+01  0.48330929713E+02  0.00000000000E+00 0.  1.
         14    1    4    4    0    0 -0.12082120962E+02  0.29983700347E+02 -0.18104474109E+02  0.37050936779E+02  0.00000000000E+00 0. -1.
        -13    1    3    3    0    0  0.12391832783E+02  0.41302602904E+02  0.37100508037E+02  0.56885061510E+02  0.00000000000E+00 0.  1.
         13    1    3    3    0    0 -0.49709327468E+02 -0.22227074903E+02  0.90873434051E+02  0.10593885554E+03  0.00000000000E+00 0. -1.
         21    1    1    2  503  502  0.24795250323E+02 -0.41211162105E+01  0.14716139961E+03  0.14929255029E+03  0.00000000000E+00 0.  1.
          1    1    1    2  501    0  0.30031203014E+02  0.28105407253E+01 -0.32166925830E+02  0.44096297021E+02  0.00000000000E+00 0. -1.
<scales pt_clust_5="13000.00000" pt_clust_6="13000.00000" pt_clust_7="13000.00000" pt_clust_8="13000.00000" pt_clust_9="25.13539" pt_clust_10="30.93592"></scales>
<clustering>
<clus scale="   25.135">  1  9  2 -1</clus>
<clus scale="   30.936">  2 10  1 -1</clus>
<clus scale="   80.623">  5  6 -1 -1</clus>
<clus scale="   82.935">  2  5  1 -1</clus>
<clus scale="   91.530">  7  8 -1 -1</clus>
<clus scale="   30.936">  2  5  1 -1</clus>
</clustering>
</event>
<event>
10    4  0.2977685E-005  0.1911127E+03  0.7546771E-02  0.1168528E+00
         -1   -1    0    0    0  501 -0.00000000000E+00  0.00000000000E+00  0.33423316731E+03  0.33423316731E+03  0.00000000000E+00 0.  1.
         21   -1    0    0  503  502  0.00000000000E+00 -0.00000000000E+00 -0.44116302198E+03  0.44116302198E+03  0.00000000000E+00 0.  1.
         23    2    1    2    0    0 -0.11185388889E+03  0.26492504009E+02 -0.24716767531E+03  0.28800531303E+03  0.92962655876E+02 0.  0.
         24    2    1    2    0    0 -0.11860014349E+03 -0.72663841696E+02  0.35596498178E+01  0.16154991106E+03  0.82095521999E+02 0.  0.
        -11    1    4    4    0    0 -0.64072044605E+02 -0.32421050153E+02  0.42447049891E+02  0.83415247032E+02  0.00000000000E+00 0.  1.
         12    1    4    4    0    0 -0.54528098882E+02 -0.40242791543E+02 -0.38887400073E+02  0.78134664031E+02  0.00000000000E+00 0. -1.
        -13    1    3    3    0    0 -0.11906779126E+03 -0.10546100871E+01 -0.20625361858E+03  0.23815710423E+03  0.00000000000E+00 0.  1.
         13    1    3    3    0    0  0.72139023721E+01  0.27547114096E+02 -0.40914056731E+02  0.49848208801E+02  0.00000000000E+00 0. -1.
         21    1    1    2  503  501 -0.10150159550E+02 -0.38954694375E+02  0.23889861352E+02  0.46810462807E+02  0.00000000000E+00 0.  1.
         -2    1    1    2    0  502  0.24060419193E+03  0.85126032063E+02  0.11278830947E+03  0.27903050238E+03  0.00000000000E+00 0.  1.
<scales pt_clust_5="13000.00000" pt_clust_6="13000.00000" pt_clust_7="13000.00000" pt_clust_8="13000.00000" pt_clust_9="40.25536" pt_clust_10="172.58158"></scales>
<clustering>
<clus scale="   40.255">  1  9  2 -1</clus>
<clus scale="   82.096">  5  6 -1 -1</clus>
<clus scale="   92.963">  7  8 -1 -1</clus>
<clus scale="  147.908">  1  7  2 -1</clus>
<clus scale="  172.582">  2 10  1 -1</clus>
<clus scale="  172.582">  2  5  1 -1</clus>
</clustering>
</event>
<event>
10    4  0.2977685E-005  0.1081486E+03  0.7546771E-02  0.1269100E+00
         -1   -1    0    0    0  501 -0.00000000000E+00  0.00000000000E+00  0.11412179381E+03  0.11412179381E+03  0.00000000000E+00 0.  1.
         21   -1    0    0  503  502  0.00000000000E+00 -0.00000000000E+00 -0.46873368480E+03  0.46873368480E+03  0.00000000000E+00 0. -1.
         24    2    1    2    0    0 -0.49882487674E+02 -0.26899288255E+02  0.60917473261E+02  0.11531979541E+03  0.79849122599E+02 0.  0.
         23    2    1    2    0    0  0.53430127711E+02  0.23846054532E+02 -0.25103439194E+03  0.27369318493E+03  0.92012394144E+02 0.  0.
        -11    1    3    3    0    0 -0.62743833723E+02 -0.24959447480E+01  0.61269609955E+02  0.87732454169E+02  0.00000000000E+00 0.  1.
         12    1    3    3    0    0  0.12861346049E+02 -0.24403343507E+02 -0.35213669348E+00  0.27587341242E+02  0.00000000000E+00 0. -1.
        -11    1    4    4    0    0  0.53740125340E+02 -0.15833130626E+02 -0.77192420795E+02  0.95380076144E+02  0.00000000000E+00 0.  1.
         11    1    4    4    0    0 -0.30999762884E+00  0.39679185158E+02 -0.17384197114E+03  0.17831310878E+03  0.00000000000E+00 0. -1.
         21    1    1    2  503  501  0.20036710740E+02  0.47856938021E+02 -0.80717248804E+02  0.95953272735E+02  0.00000000000E+00 0. -1.
         -2    1    1    2    0  502 -0.23584350776E+02 -0.44803704297E+02 -0.83777723504E+02  0.97889225535E+02  0.00000000000E+00 0.  1.
<scales pt_clust_5="13000.00000" pt_clust_6="13000.00000" pt_clust_7="13000.00000" pt_clust_8="13000.00000" pt_clust_9="40.10611" pt_clust_10="50.63194"></scales>
<clustering>
<clus scale="   50.632">  2 10  1 -1</clus>
<clus scale="   40.106">  2  9  1 -1</clus>
<clus scale="   79.849">  5  6 -1 -1</clus>
<clus scale="   92.012">  7  8 -1 -1</clus>
<clus scale="   98.009">  1  5  2 -1</clus>
<clus scale="   50.632">  2  5  1 -1</clus>
</clustering>
</event>
<event>
10    4  0.2977685E-005  0.1602535E+03  0.7546771E-02  0.1190142E+00
          2   -1    0    0  503    0 -0.00000000000E+00  0.00000000000E+00  0.78638821014E+03  0.78638821014E+03  0.00000000000E+00 0. -1.
         21   -1    0    0  501  502  0.00000000000E+00 -0.00000000000E+00 -0.60425004772E+02  0.60425004772E+02  0.00000000000E+00 0. -1.
         24    2    1    2    0    0  0.97764706779E+02 -0.65905878886E+02  0.19404340915E+03  0.24096548922E+03  0.80684568520E+02 0.  0.
         23    2    1    2    0    0 -0.14355501327E+03  0.50137894382E+02  0.20160849930E+03  0.26864807410E+03  0.91673062782E+02 0.  0.
        -11    1    3    3    0    0  0.50079547758E+02  0.11119658399E+02  0.84053645686E+02  0.98471433724E+02  0.00000000000E+00 0.  1.
         12    1    3    3    0    0  0.47685159021E+02 -0.77025537285E+02  0.10998976346E+03  0.14249405550E+03  0.00000000000E+00 0. -1.
        -13    1    4    4    0    0 -0.25204758315E+02 -0.24229572552E+02  0.61478701267E+02  0.70724696798E+02  0.00000000000E+00 0.  1.
         13    1    4    4    0    0 -0.11835025495E+03  0.74367466934E+02  0.14012979804E+03  0.19792337730E+03  0.00000000000E+00 0. -1.
         21    1    1    2  503  502  0.19740930185E+02  0.30599502768E+02  0.14636068266E+03  0.15082268835E+03  0.00000000000E+00 0. -1.
          1    1    1    2  501    0  0.26049376301E+02 -0.14831518264E+02  0.18395061426E+03  0.18637696324E+03  0.00000000000E+00 0. -1.
<scales pt_clust_5="13000.00000" pt_clust_6="13000.00000" pt_clust_7="13000.00000" pt_clust_8="13000.00000" pt_clust_9="36.49467" pt_clust_10="29.97574"></scales>
<clustering>
<clus scale="   29.976">  2 10  1 -1</clus>
<clus scale="   36.495">  1  9  2 -1</clus>
<clus scale="   80.685">  5  6 -1 -1</clus>
<clus scale="   91.673">  7  8 -1 -1</clus>
<clus scale="  154.231">  1  5  2 -1</clus>
<clus scale="   29.976">  2  5  1 -1</clus>
</clustering>
</event>
<event>
10    4  0.2977685E-005  0.1238555E+03  0.7546771E-02  0.1240548E+00
         -1   -1    0    0    0  501 -0.00000000000E+00  0.00000000000E+00  0.24756795310E+03  0.24756795310E+03  0.00000000000E+00 0.  1.
         21   -1    0    0  503  502  0.00000000000E+00 -0.00000000000E+00 -0.14472485179E+03  0.14472485179E+03  0.00000000000E+00 0.  1.
         23    2    1    2    0    0  0.10387888340E+03  0.32898662702E+02  0.79996899510E+02  0.16321741513E+03  0.91472816973E+02 0.  0.
         24    2    1    2    0    0 -0.40829174273E+02 -0.75448809480E+01 -0.34376036669E+02  0.95599832938E+02  0.78953590548E+02 0.  0.
        -13    1    4    4    0    0 -0.63278064799E+02 -0.29774768476E+01 -0.35586006422E+02  0.72659085503E+02  0.00000000000E+00 0.  1.
         14    1    4    4    0    0  0.22448890526E+02 -0.45674041004E+01  0.12099697534E+01  0.22940747435E+02  0.00000000000E+00 0. -1.
        -13    1    3    3    0    0  0.48218686517E+02  0.62061597877E+02  0.53200147311E+02  0.94904896262E+02  0.00000000000E+00 0.  1.
         13    1    3    3    0    0  0.55660196883E+02 -0.29162935176E+02  0.26796752199E+02  0.68312518864E+02  0.00000000000E+00 0. -1.
         21    1    1    2  503  501  0.30515129996E+01  0.32491134607E+02  0.18127603076E+02  0.37330892742E+02  0.00000000000E+00 0.  1.
         -2    1    1    2    0  502 -0.66101222126E+02 -0.57844916361E+02  0.39094635395E+02  0.96144664085E+02  0.00000000000E+00 0.  1.
<scales pt_clust_5="13000.00000" pt_clust_6="13000.00000" pt_clust_7="13000.00000" pt_clust_8="13000.00000" pt_clust_9="32.63412" pt_clust_10="80.84489"></scales>
<clustering>
<clus scale="   32.634">  1  9  2 -1</clus>
<clus scale="   78.954">  5  6 -1 -1</clus>
<clus scale="   80.845">  2 10  1 -1</clus>
<clus scale="   91.473">  7  8 -1 -1</clus>
<clus scale="  114.920">  2  5  1 -1</clus>
<clus scale="   80.845">  2  5  1 -1</clus>
</clustering>
</event>
<event>
10    4  0.2977685E-005  0.1111381E+03  0.7546771E-02  0.1262267E+00
         21   -1    0    0  501  502  0.00000000000E+00  0.00000000000E+00  0.16062897156E+03  0.16062897156E+03  0.00000000000E+00 0. -1.
          2   -1    0    0  503    0 -0.00000000000E+00 -0.00000000000E+00 -0.15946864067E+03  0.15946864067E+03  0.00000000000E+00 0. -1.
         23    2    1    2    0    0 -0.41966749032E+02  0.18190902588E+02 -0.59997464070E+02  0.11810931251E+03  0.90873522246E+02 0.  0.
         24    2    1    2    0    0  0.75234143611E+02  0.40288569636E+01  0.91355813672E+02  0.14342718703E+03  0.80926295073E+02 0.  0.
        -13    1    4    4    0    0  0.23248503091E+02  0.18679712258E+02 -0.75241779123E+01  0.30757727472E+02  0.00000000000E+00 0.  1.
         14    1    4    4    0    0  0.51985640520E+02 -0.14650855295E+02  0.98879991584E+02  0.11266945956E+03  0.00000000000E+00 0. -1.
        -11    1    3    3    0    0 -0.57651685636E+02  0.38749600816E+02 -0.60689388556E+02  0.92241261393E+02  0.00000000000E+00 0.  1.
         11    1    3    3    0    0  0.15684936603E+02 -0.20558698228E+02  0.69192448584E+00  0.25868051117E+02  0.00000000000E+00 0. -1.
         21    1    1    2  503  502 -0.27521449775E+02 -0.39103253966E+00 -0.18210873543E+02  0.33003318308E+02  0.00000000000E+00 0. -1.
          1    1    1    2  501    0 -0.57459448041E+01 -0.21828727012E+02 -0.11987145163E+02  0.25557794385E+02  0.00000000000E+00 0. -1.
<scales pt_clust_5="13000.00000" pt_clust_6="13000.00000" pt_clust_7="13000.00000" pt_clust_8="13000.00000" pt_clust_9="27.83499" pt_clust_10="22.57232"></scales>
<clustering>
<clus scale="   22.572">  1 10  2 -1</clus>
<clus scale="   27.835">  2  9  1 -1</clus>
<clus scale="   80.926">  5  6 -1 -1</clus>
<clus scale="   90.874">  7  8 -1 -1</clus>
<clus scale="  103.164">  1  5  2 -1</clus>
<clus scale="   22.572">  1  5  2 -1</clus>
</clustering>
</event>
<event>
10    4  0.2977685E-005  0.9988080E+02  0.7546771E-02  0.1288135E+00
          2   -1    0    0  503    0 -0.00000000000E+00  0.00000000000E+00  0.41128258286E+03  0.41128258286E+03  0.00000000000E+00 0. -1.
         21   -1    0    0  501  502  0.00000000000E+00 -0.00000000000E+00 -0.78832675811E+02  0.78832675811E+02  0.00000000000E+00 0. -1.
         23    2    1    2    0    0 -0.81885573483E+01  0.11384293973E+02  0.18015680581E+03  0.20295079051E+03  0.92389902422E+02 0.  0.
         24    2    1    2    0    0  0.94342246113E+02 -0.82606061905E+01  0.67556214537E+02  0.13993173187E+03  0.77771141474E+02 0.  0.
        -13    1    4    4    0    0  0.83284870590E+02 -0.35629039453E+02  0.38230097941E+02  0.98322624610E+02  0.00000000000E+00 0.  1.
         14    1    4    4    0    0  0.11057375523E+02  0.27368433262E+02  0.29326116596E+02  0.41609107264E+02  0.00000000000E+00 0. -1.
        -13    1    3    3    0    0  0.26551487682E+02  0.22160855424E+02  0.15478816381E+03  0.15860473091E+03  0.00000000000E+00 0. -1.
         13    1    3    3    0    0 -0.34740045030E+02 -0.10776561451E+02  0.25368641999E+02  0.44346059602E+02  0.00000000000E+00 0.  1.
         21    1    1    2  503  502 -0.79871136851E+01  0.19020834276E+02  0.58227995884E+02  0.61774473905E+02  0.00000000000E+00 0. -1.
          1    1    1    2  501    0 -0.78166575080E+02 -0.22144522058E+02  0.26508890822E+02  0.85458262383E+02  0.00000000000E+00 0. -1.
<scales pt_clust_5="13000.00000" pt_clust_6="13000.00000" pt_clust_7="13000.00000" pt_clust_8="13000.00000" pt_clust_9="20.62974" pt_clust_10="81.70645"></scales>
<clustering>
<clus scale="   20.630">  1  9  2 -1</clus>
<clus scale="   77.771">  5  6 -1 -1</clus>
<clus scale="   81.706">  2 10  1 -1</clus>
<clus scale="   86.537">  2  5  1 -1</clus>
<clus scale="   92.390">  7  8 -1 -1</clus>
<clus scale="   81.706">  2  5  1 -1</clus>
</clustering>
</event>
<event>
10    4  0.2977685E-005  0.1239734E+03  0.7546771E-02  0.1241238E+00
         21   -1    0    0  503  502  0.00000000000E+00  0.00000000000E+00  0.20900149434E+03  0.20900149434E+03  0.00000000000E+00 0.  1.
         -3   -1    0    0    0  501 -0.00000000000E+00 -0.00000000000E+00 -0.37251290590E+03  0.37251290590E+03  0.00000000000E+00 0.  1.
         24    2    1    2    0    0 -0.84340740525E+02  0.80984383265E+02 -0.21523854581E+03  0.25648175488E+03  0.76048853622E+02 0.  0.
         23    2    1    2    0    0  0.10553278924E+03 -0.24394968252E+02  0.52654854449E+02  0.15129070963E+03  0.91564518462E+02 0.  0.
        -13    1    3    3    0    0  0.17926690633E+01  0.44040891322E+02 -0.88337799659E+02  0.98723759143E+02  0.00000000000E+00 0.  1.
         14    1    3    3    0    0 -0.86133409588E+02  0.36943491944E+02 -0.12690074616E+03  0.15775799574E+03  0.00000000000E+00 0. -1.
        -11    1    4    4    0    0  0.10838389242E+03  0.15937079645E+00  0.61999532631E+02  0.12486406841E+03  0.00000000000E+00 0.  1.
         11    1    4    4    0    0 -0.28511031757E+01 -0.24554339048E+02 -0.93446781830E+01  0.26426641212E+02  0.00000000000E+00 0. -1.
         21    1    1    2  503  501  0.28635540579E+02 -0.38508787241E+02 -0.71112352839E+02  0.85789787302E+02  0.00000000000E+00 0.  1.
         -4    1    1    2    0  502 -0.49827589293E+02 -0.18080627773E+02  0.70184632646E+02  0.87952148439E+02  0.00000000000E+00 0.  1.
<scales pt_clust_5="13000.00000" pt_clust_6="13000.00000" pt_clust_7="13000.00000" pt_clust_8="13000.00000" pt_clust_9="47.98876" pt_clust_10="52.60853"></scales>
<clustering>
<clus scale="   47.989">  2  9  1 -1</clus>
<clus scale="   52.609">  1 10  2 -1</clus>
<clus scale="   76.049">  5  6 -1 -1</clus>
<clus scale="   91.565">  7  8 -1 -1</clus>
<clus scale="  112.999">  2  5  1 -1</clus>
<clus scale="   52.609">  1  5  2 -1</clus>
</clustering>
</event>
<event>
10    4  0.2977685E-005  0.1166545E+03  0.7546771E-02  0.1251233E+00
         -1   -1    0    0    0  501 -0.00000000000E+00  0.00000000000E+00  0.33034438196E+03  0.33034438196E+03  0.00000000000E+00 0.  1.
         21   -1    0    0  503  502  0.00000000000E+00 -0.00000000000E+00 -0.11573859306E+03  0.11573859306E+03  0.00000000000E+00 0. -1.
         24    2    1    2    0    0  0.90559258264E+02  0.47329055884E+02  0.13954414978E+03  0.19391955746E+03  0.87699522463E+02 0.  0.
         23    2    1    2    0    0  0.26553060947E+00 -0.64385314668E+02  0.20905592167E+02  0.11650723639E+03  0.94822745665E+02 0.  0.
        -11    1    3    3    0    0  0.10861212623E+02 -0.22531757533E+02  0.11017135005E+02  0.27331727002E+02  0.00000000000E+00 0.  1.
         12    1    3    3    0    0  0.79698045641E+02  0.69860813417E+02  0.12852701478E+03  0.16658783046E+03  0.00000000000E+00 0. -1.
        -13    1    4    4    0    0  0.27734402347E+02 -0.66965995598E+02 -0.12104254187E+02  0.73485744260E+02  0.00000000000E+00 0. -1.
         13    1    4    4    0    0 -0.27468871738E+02  0.25806809299E+01  0.33009846354E+02  0.43021492128E+02  0.00000000000E+00 0.  1.
         21    1    1    2  503  501 -0.37770190648E+02 -0.14256730481E+02  0.61549348656E+02  0.73608178795E+02  0.00000000000E+00 0.  1.
         -2    1    1    2    0  502 -0.53054598226E+02  0.31312989265E+02 -0.73933017054E+01  0.62048002383E+02  0.00000000000E+00 0.  1.
<scales pt_clust_5="13000.00000" pt_clust_6="13000.00000" pt_clust_7="13000.00000" pt_clust_8="13000.00000" pt_clust_9="40.37130" pt_clust_10="64.31851"></scales>
<clustering>
<clus scale="   40.371">  1  9  2 -1</clus>
<clus scale="   64.319">  2 10  1 -1</clus>
<clus scale="   87.700">  5  6 -1 -1</clus>
<clus scale="   94.823">  7  8 -1 -1</clus>
<clus scale="  110.942">  1  5  2 -1</clus>
<clus scale="   64.319">  2  5  1 -1</clus>
</clustering>
</event>
<event>
10    4  0.2977685E-005  0.1521695E+03  0.7546771E-02  0.1198444E+00
          2   -1    0    0  503    0 -0.00000000000E+00  0.00000000000E+00  0.76038774407E+03  0.76038774407E+03  0.00000000000E+00 0. -1.
         21   -1    0    0  501  502  0.00000000000E+00 -0.00000000000E+00 -0.53698436644E+02  0.53698436644E+02  0.00000000000E+00 0. -1.
         23    2    1    2    0    0  0.11269560071E+03  0.41881081418E+02  0.50170053532E+03  0.52397725863E+03  0.91621051188E+02 0.  0.
         24    2    1    2    0    0 -0.12492613767E+03 -0.21856303356E+02  0.14730925253E+03  0.21347018819E+03  0.88234162852E+02 0.  0.
        -11    1    4    4    0    0 -0.18253513159E+02 -0.41618424070E+02  0.52031893654E+02  0.69084020742E+02  0.00000000000E+00 0.  1.
         12    1    4    4    0    0 -0.10667262451E+03  0.19762120714E+02  0.95277358879E+02  0.14438616744E+03  0.00000000000E+00 0. -1.
        -13    1    3    3    0    0  0.28127262676E+02  0.11914265022E+02  0.26679076556E+02  0.40556944443E+02  0.00000000000E+00 0.  1.
         13    1    3    3    0    0  0.84568338037E+02  0.29966816396E+02  0.47502145876E+03  0.48342031418E+03  0.00000000000E+00 0. -1.
         21    1    1    2  503  502  0.23390196239E+02  0.41994853571E+01  0.28456768973E+02  0.37074582368E+02  0.00000000000E+00 0. -1.
          1    1    1    2  501    0 -0.11159659285E+02 -0.24224263419E+02  0.29222750598E+02  0.39564151528E+02  0.00000000000E+00 0. -1.
<scales pt_clust_5="13000.00000" pt_clust_6="13000.00000" pt_clust_7="13000.00000" pt_clust_8="13000.00000" pt_clust_9="23.76419" pt_clust_10="25.32957"></scales>
<clustering>
<clus scale="   23.764">  2  9  1 -1</clus>
<clus scale="   25.330">  2 10  1 -1</clus>
<clus scale="   88.234">  5  6 -1 -1</clus>
<clus scale="   91.621">  7  8 -1 -1</clus>
<clus scale="  150.155">  2  5  1 -1</clus>
<clus scale="   23.764">  2  5  1 -1</clus>
</clustering>
</event>
<event>
10    4  0.2977685E-005  0.1422095E+03  0.7546771E-02  0.1229034E+00
         21   -1    0    0  501  502  0.00000000000E+00  0.00000000000E+00  0.21107165099E+03  0.21107165099E+03  0.00000000000E+00 0. -1.
          2   -1    0    0  503    0 -0.00000000000E+00 -0.00000000000E+00 -0.40263645716E+03  0.40263645716E+03  0.00000000000E+00 0. -1.
         24    2    1    2    0    0 -0.34402581941E+02 -0.12759191681E+02 -0.28718866455E+03  0.30052748166E+03  0.80579796285E+02 0.  0.
         23    2    1    2    0    0 -0.56789361014E+02  0.69064663011E+02 -0.20659529075E+01  0.12849570648E+03  0.92260062986E+02 0.  0.
        -11    1    3    3    0    0  0.16707561322E+02 -0.25330508571E+02 -0.58983304098E+02  0.66331044257E+02  0.00000000000E+00 0.  1.
         12    1    3    3    0    0 -0.51110143263E+02  0.12571316890E+02 -0.22820536045E+03  0.23419643740E+03  0.00000000000E+00 0. -1.
        -11    1    4    4    0    0 -0.11433671627E+02 -0.22121060729E+02  0.80045459522E+01  0.26156126061E+02  0.00000000000E+00 0.  1.
         11    1    4    4    0    0 -0.45355689388E+02  0.91185723740E+02 -0.10070498860E+02  0.10233958042E+03  0.00000000000E+00 0. -1.
         21    1    1    2  503  502 -0.18260062975E+02 -0.97972850064E+01 -0.11100051899E+02  0.23508037892E+02  0.00000000000E+00 0.  1.
          1    1    1    2  501    0  0.10945200593E+03 -0.46508186323E+02  0.10878986319E+03  0.16117688212E+03  0.00000000000E+00 0. -1.
<scales pt_clust_5="13000.00000" pt_clust_6="13000.00000" pt_clust_7="13000.00000" pt_clust_8="13000.00000" pt_clust_9="20.72237" pt_clust_10="108.22027"></scales>
<clustering>
<clus scale="   20.722">  2  9  1 -1</clus>
<clus scale="   80.580">  5  6 -1 -1</clus>
<clus scale="   92.260">  7  8 -1 -1</clus>
<clus scale="   96.114">  2  5  1 -1</clus>
<clus scale="  108.220">  1 10  2 -1</clus>
<clus scale="  108.220">  1  5  2 -1</clus>
</clustering>
</event>
<event>
10    4  0.2977685E-005  0.2120196E+03  0.7546771E-02  0.1168852E+00
          2   -1    0    0  503    0 -0.00000000000E+00  0.00000000000E+00  0.48361506987E+03  0.48361506987E+03  0.00000000000E+00 0. -1.
         21   -1    0    0  501  502  0.00000000000E+00 -0.00000000000E+00 -0.37267326237E+03  0.37267326237E+03  0.00000000000E+00 0. -1.
         23    2    1    2    0    0 -0.76790751540E+02  0.54744471379E+02  0.20955097035E+03  0.24718796302E+03  0.91085142683E+02 0.  0.
         24    2    1    2    0    0  0.41204710219E+02 -0.19168533025E+03 -0.76040033624E+02  0.22555498068E+03  0.81558988595E+02 0.  0.
        -13    1    4    4    0    0  0.60084713811E+02 -0.88932106642E+02 -0.46645404809E+02  0.11702515206E+03  0.00000000000E+00 0.  1.
         14    1    4    4    0    0 -0.18880003593E+02 -0.10275322360E+03 -0.29394628814E+02  0.10852982862E+03  0.00000000000E+00 0. -1.
        -13    1    3    3    0    0 -0.27275429046E+02  0.53027429166E+02  0.43251898132E+02  0.73665351188E+02  0.00000000000E+00 0.  1.
         13    1    3    3    0    0 -0.49515322494E+02  0.17170422125E+01  0.16629907222E+03  0.17352261183E+03  0.00000000000E+00 0. -1.
         21    1    1    2  503  502  0.33800969497E+02 -0.60438518243E+02  0.12103676266E+03  0.13944611125E+03  0.00000000000E+00 0. -1.
          1    1    1    2  501    0  0.17850718251E+01  0.19737937711E+03 -0.14360589189E+03  0.24409927729E+03  0.00000000000E+00 0. -1.
<scales pt_clust_5="13000.00000" pt_clust_6="13000.00000" pt_clust_7="13000.00000" pt_clust_8="13000.00000" pt_clust_9="69.24825" pt_clust_10="195.70498"></scales>
<clustering>
<clus scale="   69.248">  1  9  2 -1</clus>
<clus scale="   81.559">  5  6 -1 -1</clus>
<clus scale="   91.085">  7  8 -1 -1</clus>
<clus scale="  107.525">  1  7  2 -1</clus>
<clus scale="  195.705">  2 10  1 -1</clus>
<clus scale="  195.705">  2  5  1 -1</clus>
</clustering>
</event>
<event>
10    4  0.2977685E-005  0.1846744E+03  0.7546771E-02  0.1165070E+00
          2   -1    0    0  503    0 -0.00000000000E+00  0.00000000000E+00  0.31659868496E+03  0.31659868496E+03  0.00000000000E+00 0. -1.
         21   -1    0    0  501  502  0.00000000000E+00 -0.00000000000E+00 -0.26697789989E+03  0.26697789989E+03  0.00000000000E+00 0. -1.
         23    2    1    2    0    0 -0.55277076772E+02 -0.13936397806E+03  0.16835133157E+03  0.24445470920E+03  0.94541315894E+02 0.  0.
         24    2    1    2    0    0  0.10493286579E+03  0.12482374497E+03 -0.29495841145E+02  0.18385031525E+03  0.79618214889E+02 0.  0.
        -11    1    4    4    0    0 -0.81583554329E+01  0.35864845008E+02  0.88398252144E+00  0.36791674275E+02  0.00000000000E+00 0.  1.
         12    1    4    4    0    0  0.11309122122E+03  0.88958899960E+02 -0.30379823666E+02  0.14705864098E+03  0.00000000000E+00 0. -1.
        -11    1    3    3    0    0 -0.26003059262E+02 -0.14437483783E+03  0.13050393525E+03  0.19634543541E+03  0.00000000000E+00 0. -1.
         11    1    3    3    0    0 -0.29274017510E+02  0.50108597676E+01  0.37847396312E+02  0.48109273787E+02  0.00000000000E+00 0.  1.
         21    1    1    2  503  502  0.12124463629E+02 -0.23773814693E+02  0.13112063550E+02  0.29734207471E+02  0.00000000000E+00 0. -1.
          1    1    1    2  501    0 -0.61780252646E+02  0.38314047788E+02 -0.10234676890E+03  0.12553735293E+03  0.00000000000E+00 0. -1.
<scales pt_clust_5="13000.00000" pt_clust_6="13000.00000" pt_clust_7="13000.00000" pt_clust_8="13000.00000" pt_clust_9="26.68702" pt_clust_10="71.80148"></scales>
<clustering>
<clus scale="   26.687">  1  9  2 -1</clus>
<clus scale="   71.801">  2 10  1 -1</clus>
<clus scale="   79.618">  5  6 -1 -1</clus>
<clus scale="   94.541">  7  8 -1 -1</clus>
<clus scale="  177.498">  2  5  1 -1</clus>
<clus scale="   71.801">  2  5  1 -1</clus>
</clustering>
</event>
<event>
10    4  0.2977685E-005  0.1892549E+03  0.7546771E-02  0.1160484E+00
         21   -1    0    0  501  502  0.00000000000E+00  0.00000000000E+00  0.13829824168E+03  0.13829824168E+03  0.00000000000E+00 0. -1.
          2   -1    0    0  503    0 -0.00000000000E+00 -0.00000000000E+00 -0.48567380305E+03  0.48567380305E+03  0.00000000000E+00 0. -1.
         24    2    1    2    0    0 -0.59735524951E+02 -0.12205718639E+03 -0.10878136146E+03  0.19192450027E+03  0.80841446748E+02 0.  0.
         23    2    1    2    0    0  0.12327623678E+03  0.15763196239E+03 -0.19222499404E+03  0.29276471602E+03  0.93358794372E+02 0.  0.
        -11    1    3    3    0    0  0.43987527595E+01 -0.81181058103E+02 -0.46758584296E+02  0.93787410808E+02  0.00000000000E+00 0.  1.
         12    1    3    3    0    0 -0.64134277710E+02 -0.40876128287E+02 -0.62022777161E+02  0.98137089462E+02  0.00000000000E+00 0. -1.
        -13    1    4    4    0    0  0.20171469097E+02  0.92728942026E+02 -0.11243649778E+03  0.14713093110E+03  0.00000000000E+00 0.  1.
         13    1    4    4    0    0  0.10310476768E+03  0.64903020365E+02 -0.79788496267E+02  0.14563378491E+03  0.00000000000E+00 0. -1.
         21    1    1    2  503  502 -0.49423132314E+02  0.28679808793E+02 -0.46221242173E+02  0.73495446581E+02  0.00000000000E+00 0. -1.
          1    1    1    2  501    0 -0.14117579517E+02 -0.64254584793E+02 -0.14796369547E+00  0.65787381857E+02  0.00000000000E+00 0. -1.
<scales pt_clust_5="13000.00000" pt_clust_6="13000.00000" pt_clust_7="13000.00000" pt_clust_8="13000.00000" pt_clust_9="57.14173" pt_clust_10="64.57725"></scales>
<clustering>
<clus scale="   57.142">  2  9  1 -1</clus>
<clus scale="   64.577">  1 10  2 -1</clus>
<clus scale="   80.841">  5  6 -1 -1</clus>
<clus scale="   93.359">  7  8 -1 -1</clus>
<clus scale="  183.404">  2  5  1 -1</clus>
<clus scale="   64.577">  1  5  2 -1</clus>
</clustering>
</event>
<event>
10    4  0.2977685E-005  0.2094112E+03  0.7546771E-02  0.1167602E+00
         21   -1    0    0  501  502  0.00000000000E+00  0.00000000000E+00  0.24639127356E+03  0.24639127356E+03  0.00000000000E+00 0.  1.
          2   -1    0    0  503    0 -0.00000000000E+00 -0.00000000000E+00 -0.36512435913E+03  0.36512435913E+03  0.00000000000E+00 0. -1.
         23    2    1    2    0    0 -0.16118533741E+03  0.18372103950E+02 -0.97743994357E+02  0.21108296546E+03  0.93187352547E+02 0.  0.
         24    2    1    2    0    0 -0.72215628439E+02 -0.38567537359E+02  0.12581985030E+02  0.11229591832E+03  0.75825556350E+02 0.  0.
        -13    1    4    4    0    0 -0.82554204113E+02 -0.12537124607E+02  0.11258108669E+02  0.84256282383E+02  0.00000000000E+00 0.  1.
         14    1    4    4    0    0  0.10338575674E+02 -0.26030412752E+02  0.13238763610E+01  0.28039635940E+02  0.00000000000E+00 0. -1.
        -11    1    3    3    0    0 -0.62166340626E+02 -0.41192917749E+01 -0.89712839177E+02  0.10922461254E+03  0.00000000000E+00 0. -1.
         11    1    3    3    0    0 -0.99018996783E+02  0.22491395725E+02 -0.80311551802E+01  0.10185835292E+03  0.00000000000E+00 0.  1.
         21    1    1    2  503  502  0.22936590792E+03  0.55163109351E+02 -0.60822694421E+02  0.24362078833E+03  0.00000000000E+00 0.  1.
          1    1    1    2  501    0  0.40350579314E+01 -0.34967675942E+02  0.27251618178E+02  0.44515960583E+02  0.00000000000E+00 0. -1.
<scales pt_clust_5="13000.00000" pt_clust_6="13000.00000" pt_clust_7="13000.00000" pt_clust_8="13000.00000" pt_clust_9="187.53448" pt_clust_10="35.19972"></scales>
<clustering>
<clus scale="   35.200">  1 10  2 -1</clus>
<clus scale="   75.826">  5  6 -1 -1</clus>
<clus scale="   93.187">  7  8 -1 -1</clus>
<clus scale="  114.840">  1  5  2 -1</clus>
<clus scale="  187.534">  1  9  2 -1</clus>
<clus scale="   35.200">  1  5  2 -1</clus>
</clustering>
</event>
<event>
10    4  0.2977685E-005  0.9394965E+02  0.7546771E-02  0.1301524E+00
         21   -1    0    0  501  502  0.00000000000E+00  0.00000000000E+00  0.28952109550E+03  0.28952109550E+03  0.00000000000E+00 0. -1.
          4   -1    0    0  503    0 -0.00000000000E+00 -0.00000000000E+00 -0.11615789989E+03  0.11615789989E+03  0.00000000000E+00 0. -1.
         23    2    1    2    0    0  0.14539082074E+02 -0.74798912821E+01 -0.37766964417E+02  0.10197985704E+03  0.93307094910E+02 0.  0.
         24    2    1    2    0    0  0.38311258599E+00 -0.31532164505E+02  0.41175318791E+02  0.95615309912E+02  0.80327183683E+02 0.  0.
        -13    1    4    4    0    0 -0.29856161228E+02 -0.41090878034E+02  0.11275276934E+02  0.52028669893E+02  0.00000000000E+00 0.  1.
         14    1    4    4    0    0  0.30239273814E+02  0.95587135287E+01  0.29900041856E+02  0.43586640019E+02  0.00000000000E+00 0. -1.
        -13    1    3    3    0    0 -0.18080140673E+02  0.32595802144E+02  0.11487976269E+01  0.37292057333E+02  0.00000000000E+00 0.  1.
         13    1    3    3    0    0  0.32619222746E+02 -0.40075693426E+02 -0.38915762044E+02  0.64687799712E+02  0.00000000000E+00 0. -1.
         21    1    1    2  503  502  0.24929139718E+02  0.42981049798E+02  0.21180421779E+02  0.54013358676E+02  0.00000000000E+00 0. -1.
          3    1    1    2  501    0 -0.39851334377E+02 -0.39689940102E+01  0.14877441946E+03  0.15407046976E+03  0.00000000000E+00 0. -1.
<scales pt_clust_5="13000.00000" pt_clust_6="13000.00000" pt_clust_7="13000.00000" pt_clust_8="13000.00000" pt_clust_9="44.20285" pt_clust_10="40.04849"></scales>
<clustering>
<clus scale="   40.048">  1 10  2 -1</clus>
<clus scale="   44.203">  1  9  2 -1</clus>
<clus scale="   80.327">  5  6 -1 -1</clus>
<clus scale="   81.073">  1  5  2 -1</clus>
<clus scale="   93.307">  7  8 -1 -1</clus>
<clus scale="   40.048">  1  5  2 -1</clus>
</clustering>
</event>
<event>
10    4  0.2977685E-005  0.4056508E+03  0.7546771E-02  0.1074122E+00
          2   -1    0    0  503    0 -0.00000000000E+00  0.00000000000E+00  0.89105866676E+03  0.89105866676E+03  0.00000000000E+00 0. -1.
         21   -1    0    0  501  502  0.00000000000E+00 -0.00000000000E+00 -0.51642525120E+03  0.51642525120E+03  0.00000000000E+00 0. -1.
         24    2    1    2    0    0 -0.14619813638E+03 -0.45125883053E+02  0.37210294261E+03  0.40994973185E+03  0.78663475283E+02 0.  0.
         23    2    1    2    0    0 -0.30879710138E+03  0.15304913525E+03  0.22204730043E+02  0.35707477002E+03  0.90717438943E+02 0.  0.
        -13    1    3    3    0    0 -0.13635375463E+03 -0.63130129545E+02  0.30904879414E+03  0.34364067981E+03  0.00000000000E+00 0.  1.
         14    1    3    3    0    0 -0.98443817490E+01  0.18004246493E+02  0.63054148471E+02  0.66309052046E+02  0.00000000000E+00 0. -1.
        -13    1    4    4    0    0 -0.22215916355E+02 -0.36509419570E+01  0.20495328940E+02  0.30445604363E+02  0.00000000000E+00 0.  1.
         13    1    4    4    0    0 -0.28658118503E+03  0.15670007721E+03  0.17094011037E+01  0.32662916566E+03  0.00000000000E+00 0. -1.
         21    1    1    2  503  502  0.24517999268E+02 -0.16761068666E+02  0.16178476672E+03  0.16448822588E+03  0.00000000000E+00 0. -1.
          1    1    1    2  501    0  0.43047723850E+03 -0.91162183533E+02 -0.18145902381E+03  0.47597119019E+03  0.00000000000E+00 0. -1.
<scales pt_clust_5="13000.00000" pt_clust_6="13000.00000" pt_clust_7="13000.00000" pt_clust_8="13000.00000" pt_clust_9="29.69959" pt_clust_10="395.37696"></scales>
<clustering>
<clus scale="   29.700">  1  9  2 -1</clus>
<clus scale="   78.663">  5  6 -1 -1</clus>
<clus scale="   90.717">  7  8 -1 -1</clus>
<clus scale="  163.751">  1  5  2 -1</clus>
<clus scale="  395.377">  2 10  1 -1</clus>
<clus scale="  395.377">  2  5  1 -1</clus>
</clustering>
</event>
<event>
10    4  0.2977685E-005  0.2734727E+03  0.7546771E-02  0.1120032E+00
          2   -1    0    0  503    0 -0.00000000000E+00  0.00000000000E+00  0.13155045352E+04  0.13155045352E+04  0.00000000000E+00 0. -1.
         21   -1    0    0  501  502  0.00000000000E+00 -0.00000000000E+00 -0.15160495135E+03  0.15160495135E+03  0.00000000000E+00 0.  1.
         23    2    1    2    0    0 -0.74351836637E+02 -0.10342460700E+03  0.10517052799E+03  0.19572849745E+03  0.10499504661E+03 0.  0.
         24    2    1    2    0    0  0.18072957289E+03  0.21961457087E+03  0.16532958333E+03  0.33861992664E+03  0.80223720539E+02 0.  0.
        -11    1    4    4    0    0  0.18286896394E+03  0.21213677476E+03  0.14197914849E+03  0.31400819700E+03  0.00000000000E+00 0.  1.
         12    1    4    4    0    0 -0.21393910463E+01  0.74777961151E+01  0.23350434840E+02  0.24611729642E+02  0.00000000000E+00 0. -1.
        -13    1    3    3    0    0 -0.57163696678E+02 -0.12354808095E+03  0.99617242675E+02  0.16868731892E+03  0.00000000000E+00 0. -1.
         13    1    3    3    0    0 -0.17188139959E+02  0.20123473948E+02  0.55532853123E+01  0.27041178538E+02  0.00000000000E+00 0.  1.
         21    1    1    2  503  502  0.62258779780E+02  0.12145707366E+01  0.22868485938E+03  0.23701138316E+03  0.00000000000E+00 0. -1.
          1    1    1    2  501    0 -0.16863651604E+03 -0.11740453461E+03  0.66471461311E+03  0.69574967924E+03  0.00000000000E+00 0. -1.
<scales pt_clust_5="13000.00000" pt_clust_6="13000.00000" pt_clust_7="13000.00000" pt_clust_8="13000.00000" pt_clust_9="62.27063" pt_clust_10="261.44126"></scales>
<clustering>
<clus scale="   62.271">  1  9  2 -1</clus>
<clus scale="   80.224">  5  6 -1 -1</clus>
<clus scale="  104.995">  7  8 -1 -1</clus>
<clus scale="  161.252">  1  7  2 -1</clus>
<clus scale="  261.441">  2 10  1 -1</clus>
<clus scale="  261.441">  2  5  1 -1</clus>
</clustering>
</event>
<event>
10    4  0.2977685E-005  0.1113802E+03  0.7546771E-02  0.1258932E+00
         21   -1    0    0  503  502  0.00000000000E+00  0.00000000000E+00  0.32446002842E+03  0.32446002842E+03  0.00000000000E+00 0.  1.
         -1   -1    0    0    0  501 -0.00000000000E+00 -0.00000000000E+00 -0.25496780803E+03  0.25496780803E+03  0.00000000000E+00 0.  1.
         24    2    1    2    0    0 -0.14441545655E+02 -0.73406898596E+02 -0.32477908847E+02  0.11485973421E+03  0.80875292754E+02 0.  0.
         23    2    1    2    0    0  0.18253038274E+02  0.31561771937E+02  0.26573078079E+03  0.28091611336E+03  0.83496682730E+02 0.  0.
        -11    1    3    3    0    0  0.23885244133E+02 -0.67206179659E+02 -0.22143494408E+02  0.74682727697E+02  0.00000000000E+00 0.  1.
         12    1    3    3    0    0 -0.38326789788E+02 -0.62007189368E+01 -0.10334414440E+02  0.40177006516E+02  0.00000000000E+00 0. -1.
        -13    1    4    4    0    0 -0.86329183157E+01  0.48103458241E+02  0.21990379280E+03  0.22526905704E+03  0.00000000000E+00 0.  1.
         13    1    4    4    0    0  0.26885956590E+02 -0.16541686304E+02  0.45826987995E+02  0.55647056312E+02  0.00000000000E+00 0. -1.
         21    1    1    2  503  501 -0.26935615582E+02 -0.80359800270E+01 -0.52723681145E+02  0.59748564128E+02  0.00000000000E+00 0.  1.
         -2    1    1    2    0  502  0.23124122963E+02  0.49881106686E+02 -0.11103697041E+03  0.12390342475E+03  0.00000000000E+00 0.  1.
<scales pt_clust_5="13000.00000" pt_clust_6="13000.00000" pt_clust_7="13000.00000" pt_clust_8="13000.00000" pt_clust_9="28.10880" pt_clust_10="45.70218"></scales>
<clustering>
<clus scale="   28.109">  2  9  1 -1</clus>
<clus scale="   45.702">  1 10  2 -1</clus>
<clus scale="   80.875">  5  6 -1 -1</clus>
<clus scale="   83.497">  7  8 -1 -1</clus>
<clus scale="  109.429">  2  5  1 -1</clus>
<clus scale="   45.702">  1  5  2 -1</clus>
</clustering>
</event>
<event>
10    4  0.2977685E-005  0.1371728E+03  0.7546771E-02  0.1242781E+00
         -1   -1    0    0    0  501 -0.00000000000E+00  0.00000000000E+00  0.41144121016E+03  0.41144121016E+03  0.00000000000E+00 0.  1.
         21   -1    0    0  503  502  0.00000000000E+00 -0.00000000000E+00 -0.94537123855E+02  0.94537123855E+02  0.00000000000E+00 0.  1.
         24    2    1    2    0    0  0.18183077346E+02 -0.88912159441E+01  0.47081612056E+01  0.81469332938E+02  0.78774408310E+02 0.  0.
         23    2    1    2    0    0 -0.31206491606E+01 -0.85912731932E+02  0.19328475044E+03  0.22996237639E+03  0.90182946525E+02 0.  0.
        -11    1    3    3    0    0  0.38720514283E+02 -0.76894696125E+00  0.29190896148E+02  0.48497195008E+02  0.00000000000E+00 0.  1.
         12    1    3    3    0    0 -0.20537436937E+02 -0.81222689829E+01 -0.24482734942E+02  0.32972137929E+02  0.00000000000E+00 0. -1.
        -13    1    4    4    0    0  0.32563591081E+02 -0.42924957909E+01  0.75081209638E+02  0.81951211247E+02  0.00000000000E+00 0. -1.
         13    1    4    4    0    0 -0.35684240241E+02 -0.81620236141E+02  0.11820354080E+03  0.14801116515E+03  0.00000000000E+00 0.  1.
         21    1    1    2  503  501 -0.28165428960E+02 -0.15320199246E+02  0.62221399499E+02  0.69996445975E+02  0.00000000000E+00 0.  1.
         -2    1    1    2    0  502  0.13103000774E+02  0.11012414712E+03  0.56689775156E+02  0.12455017871E+03  0.00000000000E+00 0.  1.
<scales pt_clust_5="13000.00000" pt_clust_6="13000.00000" pt_clust_7="13000.00000" pt_clust_8="13000.00000" pt_clust_9="32.06244" pt_clust_10="103.36061"></scales>
<clustering>
<clus scale="   32.062">  1  9  2 -1</clus>
<clus scale="   78.774">  5  6 -1 -1</clus>
<clus scale="   80.853">  1  5  2 -1</clus>
<clus scale="   90.183">  7  8 -1 -1</clus>
<clus scale="  103.361">  2 10  1 -1</clus>
<clus scale="  103.361">  2  5  1 -1</clus>
</clustering>
</event>
<event>
10    4  0.2977685E-005  0.1223474E+03  0.7546771E-02  0.1241620E+00
         21   -1    0    0  501  502  0.00000000000E+00  0.00000000000E+00  0.16963785171E+03  0.16963785171E+03  0.00000000000E+00 0.  1.
          2   -1    0    0  503    0 -0.00000000000E+00 -0.00000000000E+00 -0.25401166242E+03  0.25401166242E+03  0.00000000000E+00 0. -1.
         24    2    1    2    0    0  0.19762719508E+02 -0.11243456467E+03 -0.57188558363E+02  0.15101298565E+03  0.80636804326E+02 0.  0.
         23    2    1    2    0    0 -0.87963309991E+02  0.28192646140E+02 -0.15180493782E+02  0.12893608413E+03  0.88666212275E+02 0.  0.
        -11    1    3    3    0    0  0.29866698087E+02 -0.10972844326E+03 -0.24013847154E+02  0.11622829160E+03  0.00000000000E+00 0.  1.
         12    1    3    3    0    0 -0.10103978579E+02 -0.27061214187E+01 -0.33174711209E+02  0.34784694048E+02  0.00000000000E+00 0. -1.
        -13    1    4    4    0    0 -0.96068938616E+02  0.94211294965E+01 -0.32794697746E+02  0.10194847153E+03  0.00000000000E+00 0. -1.
         13    1    4    4    0    0  0.81056286249E+01  0.18771516643E+02  0.17614203964E+02  0.26987612599E+02  0.00000000000E+00 0.  1.
         21    1    1    2  503  502  0.34272036040E+02  0.75152429512E+02 -0.46232311446E+02  0.94656678251E+02  0.00000000000E+00 0. -1.
          1    1    1    2  501    0  0.33928554443E+02  0.90894890219E+01  0.34227552879E+02  0.49043766101E+02  0.00000000000E+00 0. -1.
<scales pt_clust_5="13000.00000" pt_clust_6="13000.00000" pt_clust_7="13000.00000" pt_clust_8="13000.00000" pt_clust_9="86.97657" pt_clust_10="35.12500"></scales>
<clustering>
<clus scale="   35.125">  1 10  2 -1</clus>
<clus scale="   80.637">  5  6 -1 -1</clus>
<clus scale="   86.977">  2  9  1 -1</clus>
<clus scale="   88.666">  7  8 -1 -1</clus>
<clus scale="  116.660">  2  5  1 -1</clus>
<clus scale="   35.125">  1  5  2 -1</clus>
</clustering>
</event>
<event>
10    4  0.2977685E-005  0.2967545E+03  0.7546771E-02  0.1132869E+00
          2   -1    0    0  503    0 -0.00000000000E+00  0.00000000000E+00  0.22397270090E+04  0.22397270090E+04  0.00000000000E+00 0. -1.
         21   -1    0    0  501  502  0.00000000000E+00 -0.00000000000E+00 -0.71675764141E+02  0.71675764141E+02  0.00000000000E+00 0. -1.
         24    2    1    2    0    0 -0.18129157594E+02 -0.24012174761E+02  0.36056860425E+03  0.37209237556E+03  0.86820312649E+02 0.  0.
         23    2    1    2    0    0 -0.14107625242E+03  0.18910013814E+03  0.10191287437E+04  0.10514578680E+04  0.10620207499E+03 0.  0.
        -13    1    3    3    0    0 -0.39074586563E+02 -0.43702908192E+02  0.18155561039E+03  0.19078576247E+03  0.00000000000E+00 0.  1.
         14    1    3    3    0    0  0.20945428969E+02  0.19690733431E+02  0.17901299386E+03  0.18130661309E+03  0.00000000000E+00 0. -1.
        -11    1    4    4    0    0 -0.24208764612E+02 -0.96382777644E+01  0.68983498750E+02  0.73740652167E+02  0.00000000000E+00 0.  1.
         11    1    4    4    0    0 -0.11686748781E+03  0.19873841590E+03  0.95014524497E+03  0.97771721586E+03  0.00000000000E+00 0. -1.
         21    1    1    2  503  502  0.13503890771E+02  0.95942667241E+02  0.30008409036E+03  0.31533761550E+03  0.00000000000E+00 0.  1.
          1    1    1    2  501    0  0.14570151924E+03 -0.26103063062E+03  0.48826980650E+03  0.57251491402E+03  0.00000000000E+00 0. -1.
<scales pt_clust_5="13000.00000" pt_clust_6="13000.00000" pt_clust_7="13000.00000" pt_clust_8="13000.00000" pt_clust_9="92.59882" pt_clust_10="277.09994"></scales>
<clustering>
<clus scale="   86.820">  5  6 -1 -1</clus>
<clus scale="   91.886">  1  5  2 -1</clus>
<clus scale="   92.599">  1  9  2 -1</clus>
<clus scale="  106.202">  7  8 -1 -1</clus>
<clus scale="  277.100">  2 10  1 -1</clus>
<clus scale="  277.100">  2  5  1 -1</clus>
</clustering>
</event>
<event>
10    4  0.2977685E-005  0.1857210E+03  0.7546771E-02  0.1202088E+00
         21   -1    0    0  501  502  0.00000000000E+00  0.00000000000E+00  0.62637514599E+03  0.62637514599E+03  0.00000000000E+00 0. -1.
          2   -1    0    0  503    0 -0.00000000000E+00 -0.00000000000E+00 -0.25884102687E+03  0.25884102687E+03  0.00000000000E+00 0. -1.
         24    2    1    2    0    0  0.39064883931E+00  0.15575909619E+02  0.55875113714E+02  0.94600053875E+02  0.74728711306E+02 0.  0.
         23    2    1    2    0    0 -0.44148041230E+02 -0.12562715169E+03 -0.12081522320E+03  0.20077603369E+03  0.89350247681E+02 0.  0.
        -13    1    3    3    0    0  0.16295363019E+02 -0.25196941874E+02  0.35027376364E+02  0.46123116012E+02  0.00000000000E+00 0.  1.
         14    1    3    3    0    0 -0.15904714179E+02  0.40772851492E+02  0.20847737351E+02  0.48476937863E+02  0.00000000000E+00 0. -1.
        -11    1    4    4    0    0  0.13864181394E+02 -0.65332278424E+02 -0.88972617634E+02  0.11125038795E+03  0.00000000000E+00 0. -1.
         11    1    4    4    0    0 -0.58012222625E+02 -0.60294873265E+02 -0.31842605563E+02  0.89525645739E+02  0.00000000000E+00 0.  1.
         21    1    1    2  503  502 -0.66440735434E+02 -0.14362852986E+02 -0.46825471259E+02  0.82542641281E+02  0.00000000000E+00 0. -1.
          1    1    1    2  501    0  0.11019812783E+03  0.12441409506E+03  0.47929969985E+03  0.50729744402E+03  0.00000000000E+00 0. -1.
<scales pt_clust_5="13000.00000" pt_clust_6="13000.00000" pt_clust_7="13000.00000" pt_clust_8="13000.00000" pt_clust_9="67.97546" pt_clust_10="162.81526"></scales>
<clustering>
<clus scale="   67.975">  2  9  1 -1</clus>
<clus scale="   74.729">  5  6 -1 -1</clus>
<clus scale="   76.311">  2  5  1 -1</clus>
<clus scale="   89.350">  7  8 -1 -1</clus>
<clus scale="  162.815">  1 10  2 -1</clus>
<clus scale="  162.815">  1  5  2 -1</clus>
</clustering>
</event>
<event>
10    4  0.2977685E-005  0.4352965E+03  0.7546771E-02  0.1049626E+00
          2   -1    0    0  503    0 -0.00000000000E+00  0.00000000000E+00  0.38435880795E+03  0.38435880795E+03  0.00000000000E+00 0. -1.
         21   -1    0    0  501  502  0.00000000000E+00 -0.00000000000E+00 -0.21765546693E+04  0.21765546693E+04  0.00000000000E+00 0. -1.
         24    2    1    2    0    0 -0.10815795790E+03  0.22399071022E+03 -0.14300300556E+04  0.14537268622E+04  0.80410495626E+02 0.  0.
         23    2    1    2    0    0  0.28358767415E+03 -0.54107123326E+03 -0.15737201753E+03  0.63755646050E+03  0.92370125201E+02 0.  0.
        -11    1    3    3    0    0 -0.23886702816E+02  0.59374176316E+02 -0.20330048764E+03  0.21313600273E+03  0.00000000000E+00 0.  1.
         12    1    3    3    0    0 -0.84271255083E+02  0.16461653391E+03 -0.12267295679E+04  0.12405908594E+04  0.00000000000E+00 0. -1.
        -11    1    4    4    0    0  0.49486698658E+02 -0.39992821322E+02 -0.46782489484E+01  0.63798472667E+02  0.00000000000E+00 0.  1.
         11    1    4    4    0    0  0.23410097549E+03 -0.50107841194E+03 -0.15269376858E+03  0.57375798783E+03  0.00000000000E+00 0. -1.
         21    1    1    2  503  502  0.50037874541E+02  0.59449614980E+02 -0.58790110195E+02  0.97438814989E+02  0.00000000000E+00 0.  1.
          1    1    1    2  501    0 -0.22546759079E+03  0.25763090806E+03 -0.14600367809E+03  0.37219133964E+03  0.00000000000E+00 0. -1.
<scales pt_clust_5="13000.00000" pt_clust_6="13000.00000" pt_clust_7="13000.00000" pt_clust_8="13000.00000" pt_clust_9="77.70486" pt_clust_10="425.38310"></scales>
<clustering>
<clus scale="   77.705">  1  9  2 -1</clus>
<clus scale="   80.410">  5  6 -1 -1</clus>
<clus scale="   92.370">  7  8 -1 -1</clus>
<clus scale="  262.403">  1  5  2 -1</clus>
<clus scale="  425.383">  2 10  1 -1</clus>
<clus scale="  425.383">  2  5  1 -1</clus>
</clustering>
</event>
<event>
10    4  0.2977685E-005  0.1007057E+03  0.7546771E-02  0.1285558E+00
          2   -1    0    0  503    0 -0.00000000000E+00  0.00000000000E+00  0.10395020804E+04  0.10395020804E+04  0.00000000000E+00 0. -1.
         21   -1    0    0  501  502  0.00000000000E+00 -0.00000000000E+00 -0.88909551136E+02  0.88909551136E+02  0.00000000000E+00 0. -1.
         24    2    1    2    0    0  0.12798433325E+02  0.16471707966E+02  0.58431725187E+03  0.59014454893E+03  0.80055110650E+02 0.  0.
         23    2    1    2    0    0 -0.45983017124E+02 -0.54232012417E+02  0.28090786987E+03  0.30440271657E+03  0.93253597585E+02 0.  0.
        -11    1    3    3    0    0  0.17436998103E+02 -0.21007453470E+02  0.82327750776E+02  0.86736500690E+02  0.00000000000E+00 0.  1.
         12    1    3    3    0    0 -0.46385647778E+01  0.37479161436E+02  0.50198950110E+03  0.50340804824E+03  0.00000000000E+00 0. -1.
        -13    1    4    4    0    0 -0.78726590028E+01  0.26046869385E+02  0.85769890384E+02  0.89982733127E+02  0.00000000000E+00 0.  1.
         13    1    4    4    0    0 -0.38110358121E+02 -0.80278881802E+02  0.19513797949E+03  0.21441998344E+03  0.00000000000E+00 0. -1.
         21    1    1    2  503  502 -0.20324295014E+02  0.22661981497E+02  0.14743017281E+03  0.15054002201E+03  0.00000000000E+00 0. -1.
          1    1    1    2  501    0  0.53508878813E+02  0.15098322954E+02 -0.62062765302E+02  0.83324344010E+02  0.00000000000E+00 0. -1.
<scales pt_clust_5="13000.00000" pt_clust_6="13000.00000" pt_clust_7="13000.00000" pt_clust_8="13000.00000" pt_clust_9="30.44080" pt_clust_10="55.43911"></scales>
<clustering>
<clus scale="   30.441">  1  9  2 -1</clus>
<clus scale="   55.439">  2 10  1 -1</clus>
<clus scale="   80.055">  5  6 -1 -1</clus>
<clus scale="   88.624">  1  5  2 -1</clus>
<clus scale="   93.254">  7  8 -1 -1</clus>
<clus scale="   55.439">  2  5  1 -1</clus>
</clustering>
</event>
<event>
10    4  0.2977685E-005  0.1322140E+03  0.7546771E-02  0.1228124E+00
         21   -1    0    0  501  502  0.00000000000E+00  0.00000000000E+00  0.17133829705E+03  0.17133829705E+03  0.00000000000E+00 0. -1.
          2   -1    0    0  503    0 -0.00000000000E+00 -0.00000000000E+00 -0.59089066937E+03  0.59089066937E+03  0.00000000000E+00 0. -1.
         24    2    1    2    0    0 -0.66426475510E+02  0.13120505597E+02 -0.33303594410E+03  0.35482760024E+03  0.10200520335E+03 0.  0.
         23    2    1    2    0    0  0.74041710186E+02 -0.18595696760E+02  0.36506266958E+02  0.12222779373E+03  0.88198363072E+02 0.  0.
        -11    1    3    3    0    0 -0.23109630580E+02  0.44468715695E+02 -0.68115924988E+02  0.84565364885E+02  0.00000000000E+00 0.  1.
         12    1    3    3    0    0 -0.43316844930E+02 -0.31348210097E+02 -0.26492001911E+03  0.27026223535E+03  0.00000000000E+00 0. -1.
        -13    1    4    4    0    0  0.16278372953E+02 -0.42021278258E+02  0.39355566249E+02  0.59830041344E+02  0.00000000000E+00 0.  1.
         13    1    4    4    0    0  0.57763337233E+02  0.23425581498E+02 -0.28492992915E+01  0.62397752389E+02  0.00000000000E+00 0. -1.
         21    1    1    2  503  502 -0.13369978940E+02  0.26014410458E+02 -0.20162143110E+03  0.20373194980E+03  0.00000000000E+00 0.  1.
          1    1    1    2  501    0  0.57547442638E+01 -0.20539219296E+02  0.78598735927E+02  0.81441622652E+02  0.00000000000E+00 0. -1.
<scales pt_clust_5="13000.00000" pt_clust_6="13000.00000" pt_clust_7="13000.00000" pt_clust_8="13000.00000" pt_clust_9="29.00758" pt_clust_10="21.33018"></scales>
<clustering>
<clus scale="   21.330">  1 10  2 -1</clus>
<clus scale="   29.008">  2  9  1 -1</clus>
<clus scale="   88.198">  7  8 -1 -1</clus>
<clus scale="  102.005">  5  6 -1 -1</clus>
<clus scale="  121.879">  1  7  2 -1</clus>
<clus scale="   21.330">  1  5  2 -1</clus>
</clustering>
</event>
<event>
10    4  0.2977685E-005  0.1936207E+03  0.7546771E-02  0.1189853E+00
          4   -1    0    0  503    0 -0.00000000000E+00  0.00000000000E+00  0.23702017381E+03  0.23702017381E+03  0.00000000000E+00 0. -1.
         21   -1    0    0  501  502  0.00000000000E+00 -0.00000000000E+00 -0.87223908361E+03  0.87223908361E+03  0.00000000000E+00 0. -1.
         24    2    1    2    0    0 -0.11614053408E+02 -0.11937225190E+02  0.14628772709E+03  0.16776396251E+03  0.80419303879E+02 0.  0.
         23    2    1    2    0    0  0.10655061837E+03 -0.14397200190E+03 -0.10257797560E+03  0.22396988285E+03  0.86944210481E+02 0.  0.
        -11    1    3    3    0    0 -0.31283560904E+02  0.17089652788E+02  0.11625259046E+03  0.12159515699E+03  0.00000000000E+00 0.  1.
         12    1    3    3    0    0  0.19669507496E+02 -0.29026877978E+02  0.30035136637E+02  0.46168805519E+02  0.00000000000E+00 0. -1.
        -11    1    4    4    0    0  0.66509970250E+02 -0.51074769817E+02 -0.88357044864E+02  0.12181615505E+03  0.00000000000E+00 0.  1.
         11    1    4    4    0    0  0.40040648116E+02 -0.92897232087E+02 -0.14220930740E+02  0.10215372779E+03  0.00000000000E+00 0. -1.
         21    1    1    2  503  502 -0.30414570176E+02 -0.43617073231E+01 -0.20818016613E+02  0.37114153439E+02  0.00000000000E+00 0. -1.
          3    1    1    2  501    0 -0.64521994782E+02  0.16027093442E+03 -0.65811064468E+03  0.68041125863E+03  0.00000000000E+00 0. -1.
<scales pt_clust_5="13000.00000" pt_clust_6="13000.00000" pt_clust_7="13000.00000" pt_clust_8="13000.00000" pt_clust_9="30.72573" pt_clust_10="173.00201"></scales>
<clustering>
<clus scale="   30.726">  1  9  2 -1</clus>
<clus scale="   80.419">  5  6 -1 -1</clus>
<clus scale="   86.944">  7  8 -1 -1</clus>
<clus scale="   88.007">  1  5  2 -1</clus>
<clus scale="  173.002">  2 10  1 -1</clus>
<clus scale="  173.002">  2  5  1 -1</clus>
</clustering>
</event>
<event>
10    4  0.2977685E-005  0.2024014E+03  0.7546771E-02  0.1148779E+00
         21   -1    0    0  501  502  0.00000000000E+00  0.00000000000E+00  0.10408918237E+03  0.10408918237E+03  0.00000000000E+00 0. -1.
          2   -1    0    0  503    0 -0.00000000000E+00 -0.00000000000E+00 -0.14836661265E+04  0.14836661265E+04  0.00000000000E+00 0. -1.
         24    2    1    2    0    0 -0.19991225023E+03  0.52112498768E+02 -0.11651220720E+04  0.11861204098E+04  0.81801977466E+02 0.  0.
         23    2    1    2    0    0  0.15310534876E+03 -0.74524461328E+02 -0.19809142489E+02  0.19512711989E+03  0.93204332691E+02 0.  0.
        -11    1    3    3    0    0 -0.44600838130E+02  0.11007147808E+01 -0.11501001379E+03  0.12336024322E+03  0.00000000000E+00 0.  1.
         12    1    3    3    0    0 -0.15531141210E+03  0.51011783988E+02 -0.10501120582E+04  0.10627601665E+04  0.00000000000E+00 0. -1.
        -11    1    4    4    0    0  0.21227614539E+02  0.82843260387E+01 -0.31601564807E+02  0.38960243521E+02  0.00000000000E+00 0.  1.
         11    1    4    4    0    0  0.13187773422E+03 -0.82808787367E+02  0.11792422318E+02  0.15616687636E+03  0.00000000000E+00 0. -1.
         21    1    1    2  503  502  0.31361038096E+02  0.36827517496E+01 -0.16591831432E+03  0.16889631257E+03  0.00000000000E+00 0. -1.
          1    1    1    2  501    0  0.15445863371E+02  0.18729210810E+02 -0.28727415358E+02  0.37611466682E+02  0.00000000000E+00 0. -1.
<scales pt_clust_5="13000.00000" pt_clust_6="13000.00000" pt_clust_7="13000.00000" pt_clust_8="13000.00000" pt_clust_9="31.83939" pt_clust_10="24.27670"></scales>
<clustering>
<clus scale="   24.277">  1 10  2 -1</clus>
<clus scale="   31.839">  2  9  1 -1</clus>
<clus scale="   81.802">  5  6 -1 -1</clus>
<clus scale="   93.204">  7  8 -1 -1</clus>
<clus scale="  197.410">  2  5  1 -1</clus>
<clus scale="   24.277">  1  5  2 -1</clus>
</clustering>
</event>
<event>
10    4  0.2977685E-005  0.1051451E+03  0.7546771E-02  0.1274161E+00
         -1   -1    0    0    0  501 -0.00000000000E+00  0.00000000000E+00  0.80339188756E+03  0.80339188756E+03  0.00000000000E+00 0.  1.
         21   -1    0    0  503  502  0.00000000000E+00 -0.00000000000E+00 -0.85030247879E+02  0.85030247879E+02  0.00000000000E+00 0.  1.
         23    2    1    2    0    0  0.75801071993E+02 -0.87844512503E+02  0.28517177267E+03  0.32110938742E+03  0.91246029320E+02 0.  0.
         24    2    1    2    0    0 -0.53256982726E+02  0.85627751671E+01 -0.12090110548E+02  0.98401752184E+02  0.81407043505E+02 0.  0.
        -11    1    4    4    0    0 -0.25071117608E+02 -0.34163772238E+02 -0.19562063348E+02  0.46673317796E+02  0.00000000000E+00 0.  1.
         12    1    4    4    0    0 -0.28185865118E+02  0.42726547405E+02  0.74719527998E+01  0.51728434388E+02  0.00000000000E+00 0. -1.
        -13    1    3    3    0    0  0.63007329795E+02 -0.50242196638E+02  0.26415209318E+03  0.27617119738E+03  0.00000000000E+00 0.  1.
         13    1    3    3    0    0  0.12793742199E+02 -0.37602315865E+02  0.21019679490E+02  0.44938190036E+02  0.00000000000E+00 0. -1.
         21    1    1    2  503  501 -0.40470480845E+02  0.69747491112E+02  0.44080433432E+03  0.44811944110E+03  0.00000000000E+00 0.  1.
         -2    1    1    2    0  502  0.17926391577E+02  0.95342462238E+01  0.44756432379E+01  0.20791554738E+02  0.00000000000E+00 0.  1.
<scales pt_clust_5="13000.00000" pt_clust_6="13000.00000" pt_clust_7="13000.00000" pt_clust_8="13000.00000" pt_clust_9="80.60861" pt_clust_10="20.30412"></scales>
<clustering>
<clus scale="   20.304">  2 10  1 -1</clus>
<clus scale="   80.609">  1  9  2 -1</clus>
<clus scale="   81.407">  5  6 -1 -1</clus>
<clus scale="   91.246">  7  8 -1 -1</clus>
<clus scale="   96.730">  2  5  1 -1</clus>
<clus scale="   20.304">  2  5  1 -1</clus>
</clustering>
</event>
<event>
10    4  0.2977685E-005  0.1215339E+03  0.7546771E-02  0.1257486E+00
          2   -1    0    0  503    0 -0.00000000000E+00  0.00000000000E+00  0.22466558768E+03  0.22466558768E+03  0.00000000000E+00 0. -1.
         21   -1    0    0  501  502  0.00000000000E+00 -0.00000000000E+00 -0.74990247892E+03  0.74990247892E+03  0.00000000000E+00 0. -1.
         24    2    1    2    0    0  0.15402358845E+02  0.32586833814E+02  0.17784204311E+03  0.19825696637E+03  0.79868003739E+02 0.  0.
         23    2    1    2    0    0  0.50264834446E+02  0.33598744485E+02 -0.35137286009E+03  0.36806624214E+03  0.91402639888E+02 0.  0.
        -11    1    3    3    0    0 -0.30316441589E+02  0.98383455682E+01  0.39280077015E+02  0.50584623399E+02  0.00000000000E+00 0.  1.
         12    1    3    3    0    0  0.45718800435E+02  0.22748488246E+02  0.13856196610E+03  0.14767234297E+03  0.00000000000E+00 0. -1.
        -11    1    4    4    0    0 -0.26906447475E+02  0.11444128373E+02 -0.88416095665E+02  0.93125350805E+02  0.00000000000E+00 0.  1.
         11    1    4    4    0    0  0.77171281920E+02  0.22154616112E+02 -0.26295676443E+03  0.27494089133E+03  0.00000000000E+00 0. -1.
         21    1    1    2  503  502  0.16124207141E+02 -0.19521645631E+02  0.15143182569E+02  0.29502553828E+02  0.00000000000E+00 0.  1.
          1    1    1    2  501    0 -0.81791400432E+02 -0.46663932669E+02 -0.36684925683E+03  0.37874230425E+03  0.00000000000E+00 0. -1.
<scales pt_clust_5="13000.00000" pt_clust_6="13000.00000" pt_clust_7="13000.00000" pt_clust_8="13000.00000" pt_clust_9="25.31965" pt_clust_10="80.10029"></scales>
<clustering>
<clus scale="   25.320">  1  9  2 -1</clus>
<clus scale="   79.868">  5  6 -1 -1</clus>
<clus scale="   86.666">  1  5  2 -1</clus>
<clus scale="   80.100">  2 10  1 -1</clus>
<clus scale="   91.403">  7  8 -1 -1</clus>
<clus scale="   80.100">  2  5  1 -1</clus>
</clustering>
</event>
<event>
10    4  0.2977685E-005  0.1123370E+03  0.7546771E-02  0.1260217E+00
         21   -1    0    0  501  502  0.00000000000E+00  0.00000000000E+00  0.15500712297E+03  0.15500712297E+03  0.00000000000E+00 0. -1.
          2   -1    0    0  503    0 -0.00000000000E+00 -0.00000000000E+00 -0.76429610940E+03  0.76429610940E+03  0.00000000000E+00 0. -1.
         24    2    1    2    0    0 -0.71002027192E+02 -0.19490729743E+02 -0.42325298772E+03  0.43720685377E+03  0.81151493888E+02 0.  0.
         23    2    1    2    0    0  0.11716928045E+02  0.60848910792E+02 -0.21595169904E+03  0.24262157436E+03  0.91598120497E+02 0.  0.
        -11    1    3    3    0    0 -0.12984676802E+02 -0.41821703050E+02 -0.12239034741E+03  0.12998866803E+03  0.00000000000E+00 0.  1.
         12    1    3    3    0    0 -0.58017350390E+02  0.22330973307E+02 -0.30086264031E+03  0.30721818574E+03  0.00000000000E+00 0. -1.
        -13    1    4    4    0    0 -0.30070067908E+02  0.58398341939E+01 -0.12331933611E+03  0.12706679860E+03  0.00000000000E+00 0. -1.
         13    1    4    4    0    0  0.41786995953E+02  0.55009076598E+02 -0.92632362929E+02  0.11555477576E+03  0.00000000000E+00 0.  1.
         21    1    1    2  503  502 -0.10903019307E+01 -0.51884988843E+02 -0.90520626285E+02  0.10434186412E+03  0.00000000000E+00 0. -1.
          1    1    1    2  501    0  0.60375401078E+02  0.10526807794E+02  0.12043632661E+03  0.13513294012E+03  0.00000000000E+00 0. -1.
<scales pt_clust_5="13000.00000" pt_clust_6="13000.00000" pt_clust_7="13000.00000" pt_clust_8="13000.00000" pt_clust_9="51.89644" pt_clust_10="61.17877"></scales>
<clustering>
<clus scale="   51.896">  2  9  1 -1</clus>
<clus scale="   61.179">  1 10  2 -1</clus>
<clus scale="   81.151">  5  6 -1 -1</clus>
<clus scale="   91.598">  7  8 -1 -1</clus>
<clus scale="  103.995">  2  5  1 -1</clus>
<clus scale="   61.179">  1  5  2 -1</clus>
</clustering>
</event>
<event>
10    4  0.2977685E-005  0.1253413E+03  0.7546771E-02  0.1249949E+00
         21   -1    0    0  501  502  0.00000000000E+00  0.00000000000E+00  0.10655878978E+03  0.10655878978E+03  0.00000000000E+00 0.  1.
          2   -1    0    0  503    0 -0.00000000000E+00 -0.00000000000E+00 -0.93107829030E+03  0.93107829030E+03  0.00000000000E+00 0. -1.
         24    2    1    2    0    0  0.40020329184E+02 -0.20144334937E+02  0.53915721576E+01  0.91917651011E+02  0.80077241080E+02 0.  0.
         23    2    1    2    0    0  0.38634064795E+02  0.64398851999E+02 -0.38592693183E+02  0.12484140369E+03  0.91957473911E+02 0.  0.
        -11    1    3    3    0    0  0.41326255335E+02 -0.60133958821E+01  0.37932364144E+02  0.56417059118E+02  0.00000000000E+00 0.  1.
         12    1    3    3    0    0 -0.13059261510E+01 -0.14130939054E+02 -0.32540791986E+02  0.35500591893E+02  0.00000000000E+00 0. -1.
        -13    1    4    4    0    0  0.16289990175E+02 -0.20803792737E+02 -0.23726217202E+02  0.35511898778E+02  0.00000000000E+00 0. -1.
         13    1    4    4    0    0  0.22344074620E+02  0.85202644736E+02 -0.14866475981E+02  0.89329504917E+02  0.00000000000E+00 0.  1.
         21    1    1    2  503  502  0.36796770269E+02 -0.85991775310E+02 -0.28817252086E+03  0.30297192857E+03  0.00000000000E+00 0. -1.
          1    1    1    2  501    0 -0.11545116425E+03  0.41737258248E+02 -0.50314585863E+03  0.51790609681E+03  0.00000000000E+00 0. -1.
<scales pt_clust_5="13000.00000" pt_clust_6="13000.00000" pt_clust_7="13000.00000" pt_clust_8="13000.00000" pt_clust_9="85.17196" pt_clust_10="97.23185"></scales>
<clustering>
<clus scale="   80.077">  5  6 -1 -1</clus>
<clus scale="   91.759">  2  5  1 -1</clus>
<clus scale="   91.957">  7  8 -1 -1</clus>
<clus scale="   97.232">  1 10  2 -1</clus>
<clus scale="   85.172">  2  9  1 -1</clus>
<clus scale="   97.232">  1  5  2 -1</clus>
</clustering>
</event>
<event>
10    4  0.2977685E-005  0.2629809E+03  0.7546771E-02  0.1106062E+00
          2   -1    0    0  503    0 -0.00000000000E+00  0.00000000000E+00  0.81236674887E+03  0.81236674887E+03  0.00000000000E+00 0. -1.
         21   -1    0    0  501  502  0.00000000000E+00 -0.00000000000E+00 -0.28981043948E+03  0.28981043948E+03  0.00000000000E+00 0. -1.
         24    2    1    2    0    0 -0.95452775195E+02 -0.19871401802E+03  0.20007524738E+03  0.30827266561E+03  0.80021487710E+02 0.  0.
         23    2    1    2    0    0  0.36485251660E+02  0.19995743916E+03 -0.11640741864E+03  0.25238197090E+03  0.93977768945E+02 0.  0.
        -13    1    3    3    0    0 -0.64362868038E+02 -0.47139872515E+02  0.69762998115E+02  0.10597934831E+03  0.00000000000E+00 0.  1.
         14    1    3    3    0    0 -0.31089907156E+02 -0.15157414551E+03  0.13031224926E+03  0.20229331729E+03  0.00000000000E+00 0. -1.
        -13    1    4    4    0    0  0.28934811761E+02  0.30160902910E+02 -0.60353649076E+02  0.73412984906E+02  0.00000000000E+00 0.  1.
         13    1    4    4    0    0  0.75504398991E+01  0.16979653625E+03 -0.56053769568E+02  0.17896898599E+03  0.00000000000E+00 0. -1.
         21    1    1    2  503  502 -0.55524963094E+02 -0.88416393180E+02  0.36523997667E+03  0.37986934683E+03  0.00000000000E+00 0. -1.
          1    1    1    2  501    0  0.11449248663E+03  0.87172972044E+02  0.73648503988E+02  0.16165320501E+03  0.00000000000E+00 0. -1.
<scales pt_clust_5="13000.00000" pt_clust_6="13000.00000" pt_clust_7="13000.00000" pt_clust_8="13000.00000" pt_clust_9="104.40536" pt_clust_10="118.16510"></scales>
<clustering>
<clus scale="   80.021">  5  6 -1 -1</clus>
<clus scale="   93.978">  7  8 -1 -1</clus>
<clus scale="  104.405">  1  9  2 -1</clus>
<clus scale="  118.165">  2 10  1 -1</clus>
<clus scale="  258.323">  1  5  2 -1</clus>
<clus scale="  118.165">  2  5  1 -1</clus>
</clustering>
</event>
<event>
10    4  0.2977685E-005  0.1271583E+03  0.7546771E-02  0.1234986E+00
          2   -1    0    0  503    0 -0.00000000000E+00  0.00000000000E+00  0.12972884630E+04  0.12972884630E+04  0.00000000000E+00 0. -1.
         21   -1    0    0  501  502  0.00000000000E+00 -0.00000000000E+00 -0.44524824189E+02  0.44524824189E+02  0.00000000000E+00 0. -1.
         24    2    1    2    0    0 -0.93339301664E+02 -0.71167163691E+02  0.71905888227E+03  0.73301874314E+03  0.80584187071E+02 0.  0.
         23    2    1    2    0    0 -0.24648040370E+02  0.49184032861E+02  0.76540873125E+02  0.13190982056E+03  0.92277302301E+02 0.  0.
        -13    1    3    3    0    0 -0.37638648367E+02 -0.82376447702E+01  0.83898561004E+02  0.92322777150E+02  0.00000000000E+00 0.  1.
         14    1    3    3    0    0 -0.55700653297E+02 -0.62929518921E+02  0.63516032127E+03  0.64069596599E+03  0.00000000000E+00 0. -1.
        -11    1    4    4    0    0 -0.37613490977E+02  0.27495382686E+02 -0.47018808863E+01  0.46828180152E+02  0.00000000000E+00 0. -1.
         11    1    4    4    0    0  0.12965450607E+02  0.21688650176E+02  0.81242754011E+02  0.85081640412E+02  0.00000000000E+00 0.  1.
         21    1    1    2  503  502  0.42045749064E+02 -0.15152847884E+02  0.23434755242E+03  0.23857122445E+03  0.00000000000E+00 0.  1.
          1    1    1    2  501    0  0.75941592970E+02  0.37135978714E+02  0.22281633097E+03  0.23831349900E+03  0.00000000000E+00 0. -1.
<scales pt_clust_5="13000.00000" pt_clust_6="13000.00000" pt_clust_7="13000.00000" pt_clust_8="13000.00000" pt_clust_9="44.69288" pt_clust_10="91.56382"></scales>
<clustering>
<clus scale="   44.693">  1  9  2 -1</clus>
<clus scale="   80.584">  5  6 -1 -1</clus>
<clus scale="   91.564">  2 10  1 -1</clus>
<clus scale="   92.277">  7  8 -1 -1</clus>
<clus scale="  118.945">  1  5  2 -1</clus>
<clus scale="   91.564">  2  5  1 -1</clus>
</clustering>
</event>
<event>
10    4  0.2977685E-005  0.2286302E+03  0.7546771E-02  0.1146925E+00
         21   -1    0    0  501  502  0.00000000000E+00  0.00000000000E+00  0.19670152776E+03  0.19670152776E+03  0.00000000000E+00 0. -1.
          2   -1    0    0  503    0 -0.00000000000E+00 -0.00000000000E+00 -0.84772077785E+03  0.84772077785E+03  0.00000000000E+00 0. -1.
         23    2    1    2    0    0 -0.10609793117E+02  0.11379891357E+03 -0.59835560479E+02  0.15741634530E+03  0.90204495623E+02 0.  0.
         24    2    1    2    0    0 -0.38536457013E+02 -0.29136106259E+03 -0.56444801583E+03  0.64081452703E+03  0.75268639919E+02 0.  0.
        -11    1    4    4    0    0  0.45568058191E+01 -0.11942114380E+03 -0.16433337720E+03  0.20319358486E+03  0.00000000000E+00 0.  1.
         12    1    4    4    0    0 -0.43093262832E+02 -0.17193991880E+03 -0.40011463863E+03  0.43762094217E+03  0.00000000000E+00 0. -1.
        -13    1    3    3    0    0  0.35194989929E+02  0.61485417875E+02 -0.51067996612E+02  0.87333179292E+02  0.00000000000E+00 0. -1.
         13    1    3    3    0    0 -0.45804783046E+02  0.52313495692E+02 -0.87675638676E+01  0.70083166008E+02  0.00000000000E+00 0.  1.
         21    1    1    2  503  502  0.13082597332E+02 -0.22449578841E+02 -0.34039555122E+02  0.42823232666E+02  0.00000000000E+00 0. -1.
          1    1    1    2  501    0  0.36063652799E+02  0.20001172787E+03  0.73038813468E+01  0.20336820061E+03  0.00000000000E+00 0. -1.
<scales pt_clust_5="13000.00000" pt_clust_6="13000.00000" pt_clust_7="13000.00000" pt_clust_8="13000.00000" pt_clust_9="25.98342" pt_clust_10="215.88516"></scales>
<clustering>
<clus scale="   25.983">  2  9  1 -1</clus>
<clus scale="   75.269">  5  6 -1 -1</clus>
<clus scale="   90.204">  7  8 -1 -1</clus>
<clus scale="  143.139">  2  7  1 -1</clus>
<clus scale="  215.885">  1 10  2 -1</clus>
<clus scale="  215.885">  1  5  2 -1</clus>
</clustering>
</event>
<event>
10    4  0.2977685E-005  0.9384449E+02  0.7546771E-02  0.1304762E+00
         21   -1    0    0  501  502  0.00000000000E+00  0.00000000000E+00  0.15908605226E+03  0.15908605226E+03  0.00000000000E+00 0. -1.
          2   -1    0    0  503    0 -0.00000000000E+00 -0.00000000000E+00 -0.77042466071E+03  0.77042466071E+03  0.00000000000E+00 0. -1.
         24    2    1    2    0    0 -0.19387030081E+02  0.73284497190E+01 -0.61939429552E+03  0.62402116601E+03  0.72962724691E+02 0.  0.
         23    2    1    2    0    0  0.10846777237E+03 -0.41477961926E+02  0.67522861298E+01  0.14759978268E+03  0.90853857985E+02 0.  0.
        -13    1    3    3    0    0  0.45409151342E+01 -0.28764877677E+02 -0.16335048102E+03  0.16592594055E+03  0.00000000000E+00 0.  1.
         14    1    3    3    0    0 -0.23927945215E+02  0.36093327396E+02 -0.45604381450E+03  0.45809522546E+03  0.00000000000E+00 0. -1.
        -11    1    4    4    0    0  0.81112171623E+02 -0.65846393727E+02  0.23863605263E+02  0.10716530972E+03  0.00000000000E+00 0. -1.
         11    1    4    4    0    0  0.27355600752E+02  0.24368431801E+02 -0.17111319133E+02  0.40434472958E+02  0.00000000000E+00 0.  1.
         21    1    1    2  503  502 -0.63983842483E+02  0.32096687650E+02 -0.58856460431E+02  0.92672608637E+02  0.00000000000E+00 0. -1.
          1    1    1    2  501    0 -0.25096899810E+02  0.20528245569E+01  0.60159861374E+02  0.65217155636E+02  0.00000000000E+00 0. -1.
<scales pt_clust_5="13000.00000" pt_clust_6="13000.00000" pt_clust_7="13000.00000" pt_clust_8="13000.00000" pt_clust_9="75.69717" pt_clust_10="25.18072"></scales>
<clustering>
<clus scale="   25.181">  1 10  2 -1</clus>
<clus scale="   72.963">  5  6 -1 -1</clus>
<clus scale="   75.697">  1  9  2 -1</clus>
<clus scale="   76.655">  2  5  1 -1</clus>
<clus scale="   90.854">  7  8 -1 -1</clus>
<clus scale="   25.181">  1  5  2 -1</clus>
</clustering>
</event>
<event>
10    4  0.2977685E-005  0.1030356E+03  0.7546771E-02  0.1278231E+00
          2   -1    0    0  503    0 -0.00000000000E+00  0.00000000000E+00  0.78541629708E+03  0.78541629708E+03  0.00000000000E+00 0. -1.
         21   -1    0    0  501  502  0.00000000000E+00 -0.00000000000E+00 -0.10325601671E+03  0.10325601671E+03  0.00000000000E+00 0.  1.
         24    2    1    2    0    0  0.63935687931E+02  0.24876942260E+02  0.59630962295E+03  0.60589036936E+03  0.82530835555E+02 0.  0.
         23    2    1    2    0    0 -0.63329107356E+02 -0.12530109486E+02 -0.55816725124E+02  0.12517665538E+03  0.91575699654E+02 0.  0.
        -13    1    3    3    0    0 -0.34752729173E+01  0.36093389949E+02  0.14658281874E+03  0.15100110288E+03  0.00000000000E+00 0.  1.
         14    1    3    3    0    0  0.67410960848E+02 -0.11216447688E+02  0.44972680421E+03  0.45488926648E+03  0.00000000000E+00 0. -1.
        -13    1    4    4    0    0 -0.41588712325E+02 -0.50618865417E+02 -0.46510080899E+02  0.80343501008E+02  0.00000000000E+00 0.  1.
         13    1    4    4    0    0 -0.21740395031E+02  0.38088755932E+02 -0.93066442248E+01  0.44833154375E+02  0.00000000000E+00 0. -1.
         21    1    1    2  503  502 -0.20994302456E+02 -0.13652519133E+02  0.13312789382E+03  0.13546286623E+03  0.00000000000E+00 0. -1.
          1    1    1    2  501    0  0.20387721881E+02  0.13056863580E+01  0.85394887287E+01  0.22142422815E+02  0.00000000000E+00 0. -1.
<scales pt_clust_5="13000.00000" pt_clust_6="13000.00000" pt_clust_7="13000.00000" pt_clust_8="13000.00000" pt_clust_9="24.82781" pt_clust_10="20.42949"></scales>
<clustering>
<clus scale="   20.429">  2 10  1 -1</clus>
<clus scale="   24.828">  1  9  2 -1</clus>
<clus scale="   82.531">  5  6 -1 -1</clus>
<clus scale="   91.576">  7  8 -1 -1</clus>
<clus scale="   95.087">  1  5  2 -1</clus>
<clus scale="   20.429">  2  5  1 -1</clus>
</clustering>
</event>
<event>
10    4  0.2977685E-005  0.2607902E+03  0.7546771E-02  0.1107179E+00
         21   -1    0    0  501  502  0.00000000000E+00  0.00000000000E+00  0.17297861147E+03  0.17297861147E+03  0.00000000000E+00 0. -1.
          2   -1    0    0  503    0 -0.00000000000E+00 -0.00000000000E+00 -0.63326739969E+03  0.63326739969E+03  0.00000000000E+00 0. -1.
         23    2    1    2    0    0 -0.44219627265E+02  0.21017143652E+03 -0.19250396811E+03  0.30247205067E+03  0.91127139404E+02 0.  0.
         24    2    1    2    0    0  0.46461453065E+02 -0.27493554676E+03 -0.14445936517E+03  0.32429660695E+03  0.80941704985E+02 0.  0.
        -11    1    4    4    0    0  0.50393434916E+02 -0.18458416879E+03 -0.59927733719E+02  0.20050473041E+03  0.00000000000E+00 0.  1.
         12    1    4    4    0    0 -0.39319818510E+01 -0.90351377972E+02 -0.84531631446E+02  0.12379187654E+03  0.00000000000E+00 0. -1.
        -11    1    3    3    0    0 -0.57591006492E+02  0.15612533027E+03 -0.98951494344E+02  0.19360589096E+03  0.00000000000E+00 0. -1.
         11    1    3    3    0    0  0.13371379227E+02  0.54046106248E+02 -0.93552473769E+02  0.10886615972E+03  0.00000000000E+00 0.  1.
         21    1    1    2  503  502 -0.52568863527E+02  0.17659186227E+02 -0.82363138486E+02  0.99292592130E+02  0.00000000000E+00 0.  1.
          1    1    1    2  501    0  0.50327037727E+02  0.47104924014E+02 -0.40962316456E+02  0.80184761409E+02  0.00000000000E+00 0. -1.
<scales pt_clust_5="13000.00000" pt_clust_6="13000.00000" pt_clust_7="13000.00000" pt_clust_8="13000.00000" pt_clust_9="55.45568" pt_clust_10="66.21894"></scales>
<clustering>
<clus scale="   55.456">  2  9  1 -1</clus>
<clus scale="   66.219">  1 10  2 -1</clus>
<clus scale="   80.942">  5  6 -1 -1</clus>
<clus scale="   91.127">  7  8 -1 -1</clus>
<clus scale="  257.408">  1  5  2 -1</clus>
<clus scale="   66.219">  1  5  2 -1</clus>
</clustering>
</event>
<event>
10    4  0.2977685E-005  0.2603058E+03  0.7546771E-02  0.1107476E+00
         21   -1    0    0  501  502  0.00000000000E+00  0.00000000000E+00  0.35998469011E+03  0.35998469011E+03  0.00000000000E+00 0. -1.
          2   -1    0    0  503    0 -0.00000000000E+00 -0.00000000000E+00 -0.82335047066E+03  0.82335047066E+03  0.00000000000E+00 0. -1.
         23    2    1    2    0    0  0.18443836130E+03 -0.14298413786E+01 -0.23672669748E+03  0.31353905007E+03  0.90816590168E+02 0.  0.
         24    2    1    2    0    0 -0.32547342027E+03  0.11854680712E+03 -0.43410952720E+03  0.56117532374E+03  0.80500742779E+02 0.  0.
        -11    1    4    4    0    0 -0.31939091381E+02  0.44196381187E+00 -0.80873311558E+02  0.86952822914E+02  0.00000000000E+00 0.  1.
         12    1    4    4    0    0 -0.29353432889E+03  0.11810484331E+03 -0.35323621565E+03  0.47422250083E+03  0.00000000000E+00 0. -1.
        -11    1    3    3    0    0  0.55738486518E+02 -0.12662074851E+02 -0.18751353579E+02  0.60155800052E+02  0.00000000000E+00 0.  1.
         11    1    3    3    0    0  0.12869987478E+03  0.11232233472E+02 -0.21797534390E+03  0.25338325001E+03  0.00000000000E+00 0. -1.
         21    1    1    2  503  502 -0.15155087832E+01 -0.20288509863E+02 -0.16381968995E+02  0.26120668205E+02  0.00000000000E+00 0. -1.
          1    1    1    2  501    0  0.14255056776E+03 -0.96828455876E+02  0.22385241313E+03  0.28250011876E+03  0.00000000000E+00 0. -1.
<scales pt_clust_5="13000.00000" pt_clust_6="13000.00000" pt_clust_7="13000.00000" pt_clust_8="13000.00000" pt_clust_9="20.34503" pt_clust_10="172.69861"></scales>
<clustering>
<clus scale="   20.345">  2  9  1 -1</clus>
<clus scale="   80.501">  5  6 -1 -1</clus>
<clus scale="   90.817">  7  8 -1 -1</clus>
<clus scale="  172.699">  1 10  2 -1</clus>
<clus scale="  256.889">  1  5  2 -1</clus>
<clus scale="  172.699">  1  5  2 -1</clus>
</clustering>
</event>
<event>
10    4  0.2977685E-005  0.2149050E+03  0.7546771E-02  0.1172575E+00
         21   -1    0    0  501  502  0.00000000000E+00  0.00000000000E+00  0.70921131852E+02  0.70921131852E+02  0.00000000000E+00 0. -1.
          2   -1    0    0  503    0 -0.00000000000E+00 -0.00000000000E+00 -0.11776294516E+04  0.11776294516E+04  0.00000000000E+00 0. -1.
         23    2    1    2    0    0 -0.90331955945E+01 -0.16546976349E+02 -0.11858010297E+03  0.15172308406E+03  0.92753718882E+02 0.  0.
         24    2    1    2    0    0 -0.21092192610E+03  0.37510195911E+01 -0.57772632982E+03  0.62019283045E+03  0.79807930116E+02 0.  0.
        -11    1    4    4    0    0 -0.26522187599E+02 -0.15892410149E+02 -0.35214874285E+02  0.46862378368E+02  0.00000000000E+00 0.  1.
         12    1    4    4    0    0 -0.18439973850E+03  0.19643429740E+02 -0.54251145554E+03  0.57333045208E+03  0.00000000000E+00 0. -1.
        -11    1    3    3    0    0  0.12232134300E+02 -0.32189291412E+02 -0.12043307872E+03  0.12525933914E+03  0.00000000000E+00 0.  1.
         11    1    3    3    0    0 -0.21265329894E+02  0.15642315063E+02  0.18529757495E+01  0.26463744920E+02  0.00000000000E+00 0. -1.
         21    1    1    2  503  502  0.27690469951E+02 -0.18824838065E+02 -0.13618825710E+03  0.14024399462E+03  0.00000000000E+00 0.  1.
          1    1    1    2  501    0  0.19226465174E+03  0.31620794823E+02 -0.27421362981E+03  0.33639067428E+03  0.00000000000E+00 0. -1.
<scales pt_clust_5="13000.00000" pt_clust_6="13000.00000" pt_clust_7="13000.00000" pt_clust_8="13000.00000" pt_clust_9="33.48338" pt_clust_10="199.53654"></scales>
<clustering>
<clus scale="   33.483">  2  9  1 -1</clus>
<clus scale="   79.808">  5  6 -1 -1</clus>
<clus scale="   92.754">  7  8 -1 -1</clus>
<clus scale="   94.834">  2  7  1 -1</clus>
<clus scale="  199.537">  1 10  2 -1</clus>
<clus scale="  199.537">  1  5  2 -1</clus>
</clustering>
</event>
<event>
10    4  0.2977685E-005  0.9857595E+02  0.7546771E-02  0.1288448E+00
         21   -1    0    0  503  502  0.00000000000E+00  0.00000000000E+00  0.24726911135E+02  0.24726911135E+02  0.00000000000E+00 0. -1.
         -1   -1    0    0    0  501 -0.00000000000E+00 -0.00000000000E+00 -0.94835599261E+03  0.94835599261E+03  0.00000000000E+00 0.  1.
         24    2    1    2    0    0  0.17526760749E+02  0.39078006082E+02 -0.25820930771E+03  0.27330891384E+03  0.78685690563E+02 0.  0.
         23    2    1    2    0    0  0.13765914628E+02 -0.53133152076E+02 -0.19721076415E+03  0.22316989866E+03  0.88882427495E+02 0.  0.
        -11    1    3    3    0    0  0.23207209122E+02 -0.18140417126E+02 -0.58655543592E+02  0.65636286327E+02  0.00000000000E+00 0.  1.
         12    1    3    3    0    0 -0.56804483733E+01  0.57218423208E+02 -0.19955376411E+03  0.20767262752E+03  0.00000000000E+00 0. -1.
        -11    1    4    4    0    0 -0.22792624799E+02 -0.68898413405E+00 -0.12354772333E+03  0.12563446336E+03  0.00000000000E+00 0.  1.
         11    1    4    4    0    0  0.36558539428E+02 -0.52444167942E+02 -0.73663040816E+02  0.97535435296E+02  0.00000000000E+00 0. -1.
         21    1    1    2  503  501  0.19801114964E+02 -0.19259714776E+02 -0.16880585124E+03  0.17105097539E+03  0.00000000000E+00 0.  1.
         -2    1    1    2    0  502 -0.51093790341E+02  0.33314860770E+02 -0.29940315838E+03  0.30555311585E+03  0.00000000000E+00 0.  1.
<scales pt_clust_5="13000.00000" pt_clust_6="13000.00000" pt_clust_7="13000.00000" pt_clust_8="13000.00000" pt_clust_9="27.62283" pt_clust_10="50.50509"></scales>
<clustering>
<clus scale="   27.623">  2  9  1 -1</clus>
<clus scale="   50.505">  1 10  2 -1</clus>
<clus scale="   78.686">  5  6 -1 -1</clus>
<clus scale="   88.882">  7  8 -1 -1</clus>
<clus scale="   89.491">  2  5  1 -1</clus>
<clus scale="   50.505">  1  5  2 -1</clus>
</clustering>
</event>
<event>
10    4  0.2977685E-005  0.2473219E+03  0.7546771E-02  0.1148457E+00
          2   -1    0    0  503    0 -0.00000000000E+00  0.00000000000E+00  0.94998892920E+03  0.94998892920E+03  0.00000000000E+00 0. -1.
         21   -1    0    0  501  502  0.00000000000E+00 -0.00000000000E+00 -0.19719552617E+03  0.19719552617E+03  0.00000000000E+00 0.  1.
         24    2    1    2    0    0 -0.86371400656E+01  0.72987744207E+02  0.40358387399E+02  0.11625947050E+03  0.80533558559E+02 0.  0.
         23    2    1    2    0    0 -0.36114881879E+02  0.14265482587E+03  0.48480893551E+03  0.51490406903E+03  0.91824900327E+02 0.  0.
        -13    1    3    3    0    0  0.30612122030E+02  0.84532637172E+01  0.21677308201E+02  0.38450817592E+02  0.00000000000E+00 0.  1.
         14    1    3    3    0    0 -0.39249262096E+02  0.64534480490E+02  0.18681079199E+02  0.77808652907E+02  0.00000000000E+00 0. -1.
        -11    1    4    4    0    0  0.12859111737E+02  0.82502859390E+02  0.15460878409E+03  0.17571555048E+03  0.00000000000E+00 0.  1.
         11    1    4    4    0    0 -0.48973993616E+02  0.60151966484E+02  0.33020015142E+03  0.33918851856E+03  0.00000000000E+00 0. -1.
         21    1    1    2  503  502  0.77431134350E+02 -0.33079979720E+03  0.13898799086E+03  0.36707185672E+03  0.00000000000E+00 0.  1.
          1    1    1    2  501    0 -0.32679112406E+02  0.11515722712E+03  0.88638089256E+02  0.14894905912E+03  0.00000000000E+00 0. -1.
<scales pt_clust_5="13000.00000" pt_clust_6="13000.00000" pt_clust_7="13000.00000" pt_clust_8="13000.00000" pt_clust_9="229.64391" pt_clust_10="129.60429"></scales>
<clustering>
<clus scale="   80.534">  5  6 -1 -1</clus>
<clus scale="   91.825">  7  8 -1 -1</clus>
<clus scale="  109.030">  1  5  2 -1</clus>
<clus scale="  129.604">  2 10  1 -1</clus>
<clus scale="  229.644">  2  9  1 -1</clus>
<clus scale="  129.604">  2  5  1 -1</clus>
</clustering>
</event>
<event>
10    4  0.2977685E-005  0.1249879E+03  0.7546771E-02  0.1242501E+00
          2   -1    0    0  503    0 -0.00000000000E+00  0.00000000000E+00  0.35563616365E+03  0.35563616365E+03  0.00000000000E+00 0. -1.
         21   -1    0    0  501  502  0.00000000000E+00 -0.00000000000E+00 -0.24763513625E+03  0.24763513625E+03  0.00000000000E+00 0. -1.
         23    2    1    2    0    0 -0.10496265757E+03  0.20372793476E+01  0.22223876401E+03  0.26607057662E+03  0.10189295130E+03 0.  0.
         24    2    1    2    0    0  0.55054000234E+02  0.18642130075E+02 -0.65197867708E+02  0.11807914659E+03  0.79457227175E+02 0.  0.
        -11    1    4    4    0    0  0.59390267495E+02 -0.10481695619E+02 -0.64952161181E+02  0.88633250297E+02  0.00000000000E+00 0.  1.
         12    1    4    4    0    0 -0.43362672611E+01  0.29123825694E+02 -0.24570652668E+00  0.29445896293E+02  0.00000000000E+00 0. -1.
        -11    1    3    3    0    0 -0.90521838459E+02 -0.36952105033E+02  0.18917813172E+03  0.21295076150E+03  0.00000000000E+00 0. -1.
         11    1    3    3    0    0 -0.14440819115E+02  0.38989384381E+02  0.33060632292E+02  0.53119815122E+02  0.00000000000E+00 0.  1.
         21    1    1    2  503  502  0.33105188523E+02 -0.40075253634E+01  0.80658922579E+02  0.87280442015E+02  0.00000000000E+00 0. -1.
          1    1    1    2  501    0  0.16803468818E+02 -0.16671884059E+02 -0.12969879148E+03  0.13184113468E+03  0.00000000000E+00 0. -1.
<scales pt_clust_5="13000.00000" pt_clust_6="13000.00000" pt_clust_7="13000.00000" pt_clust_8="13000.00000" pt_clust_9="33.87872" pt_clust_10="23.67083"></scales>
<clustering>
<clus scale="   23.671">  2 10  1 -1</clus>
<clus scale="   33.879">  1  9  2 -1</clus>
<clus scale="   79.457">  5  6 -1 -1</clus>
<clus scale="  101.893">  7  8 -1 -1</clus>
<clus scale="  107.486">  2  5  1 -1</clus>
<clus scale="   23.671">  2  5  1 -1</clus>
</clustering>
</event>
<event>
10    4  0.2977685E-005  0.1144135E+03  0.7546771E-02  0.1255153E+00
         21   -1    0    0  501  502  0.00000000000E+00  0.00000000000E+00  0.24307624753E+02  0.24307624753E+02  0.00000000000E+00 0. -1.
          2   -1    0    0  503    0 -0.00000000000E+00 -0.00000000000E+00 -0.12862515914E+04  0.12862515914E+04  0.00000000000E+00 0. -1.
         24    2    1    2    0    0  0.32621759541E+02  0.45305711718E+02 -0.72927570547E+03  0.73597600928E+03  0.81858688769E+02 0.  0.
         23    2    1    2    0    0 -0.73916627579E+01 -0.80184269889E+02 -0.19046860936E+03  0.22521383925E+03  0.89212266091E+02 0.  0.
        -11    1    3    3    0    0 -0.97564015760E+01  0.51543801179E+02 -0.29837343544E+03  0.30294992621E+03  0.00000000000E+00 0.  1.
         12    1    3    3    0    0  0.42378161117E+02 -0.62380894609E+01 -0.43090227003E+03  0.43302608307E+03  0.00000000000E+00 0. -1.
        -13    1    4    4    0    0  0.40320576360E+02 -0.47657805559E+02 -0.97616022913E+02  0.11587019996E+03  0.00000000000E+00 0.  1.
         13    1    4    4    0    0 -0.47712239117E+02 -0.32526464330E+02 -0.92852586448E+02  0.10934363929E+03  0.00000000000E+00 0. -1.
         21    1    1    2  503  502  0.15964594924E+02  0.21279308821E+02 -0.14934292175E+03  0.15169372285E+03  0.00000000000E+00 0. -1.
          1    1    1    2  501    0 -0.41194691707E+02  0.13599249350E+02 -0.19285673003E+03  0.19767564475E+03  0.00000000000E+00 0. -1.
<scales pt_clust_5="13000.00000" pt_clust_6="13000.00000" pt_clust_7="13000.00000" pt_clust_8="13000.00000" pt_clust_9="26.60220" pt_clust_10="42.14532"></scales>
<clustering>
<clus scale="   26.602">  2  9  1 -1</clus>
<clus scale="   42.145">  1 10  2 -1</clus>
<clus scale="   81.859">  5  6 -1 -1</clus>
<clus scale="   89.212">  7  8 -1 -1</clus>
<clus scale="  108.777">  2  5  1 -1</clus>
<clus scale="   42.145">  1  5  2 -1</clus>
</clustering>
</event>
<event>
10    4  0.2977685E-005  0.1152501E+03  0.7546771E-02  0.1259074E+00
         21   -1    0    0  501  502  0.00000000000E+00  0.00000000000E+00  0.35720393833E+03  0.35720393833E+03  0.00000000000E+00 0. -1.
          2   -1    0    0  503    0 -0.00000000000E+00 -0.00000000000E+00 -0.37848000480E+03  0.37848000480E+03  0.00000000000E+00 0. -1.
         24    2    1    2    0    0 -0.55273450103E+02  0.82850494148E+01  0.23340221751E+02  0.10122343585E+03  0.81102538091E+02 0.  0.
         23    2    1    2    0    0 -0.31005191077E+02  0.30725899759E+02 -0.73911198334E+02  0.12536174714E+03  0.91363557381E+02 0.  0.
        -11    1    3    3    0    0 -0.68668835797E+02  0.16562131148E+02  0.37563346594E+02  0.80004488657E+02  0.00000000000E+00 0.  1.
         12    1    3    3    0    0  0.13395385694E+02 -0.82770817330E+01 -0.14223124842E+02  0.21218947198E+02  0.00000000000E+00 0. -1.
        -11    1    4    4    0    0 -0.47090991501E+02  0.46336025203E+02 -0.78376972600E+02  0.10250628540E+03  0.00000000000E+00 0.  1.
         11    1    4    4    0    0  0.16085800424E+02 -0.15610125445E+02  0.44657742660E+01  0.22855461743E+02  0.00000000000E+00 0. -1.
         21    1    1    2  503  502  0.19333230654E+03 -0.93222173353E+01 -0.18498124733E+03  0.26773559037E+03  0.00000000000E+00 0. -1.
          1    1    1    2  501    0 -0.10705366536E+03 -0.29688731838E+02  0.21427615744E+03  0.24136316976E+03  0.00000000000E+00 0. -1.
<scales pt_clust_5="13000.00000" pt_clust_6="13000.00000" pt_clust_7="13000.00000" pt_clust_8="13000.00000" pt_clust_9="13000.00000" pt_clust_10="115.25011"></scales>
<clustering>
<clus scale="   81.103">  5  6 -1 -1</clus>
<clus scale="   91.364">  7  8 -1 -1</clus>
<clus scale="   98.496">  2  5  1 -1</clus>
<clus scale="  108.060">  2  7  1 -1</clus>
<clus scale="  115.250">  1 10  2 -1</clus>
<clus scale="  115.250">  1  5  2 -1</clus>
</clustering>
</event>
<event>
10    4  0.2977685E-005  0.2455384E+03  0.7546771E-02  0.1154764E+00
         21   -1    0    0  503  502  0.00000000000E+00  0.00000000000E+00  0.21065405439E+03  0.21065405439E+03  0.00000000000E+00 0.  1.
         -1   -1    0    0    0  501 -0.00000000000E+00 -0.00000000000E+00 -0.88548926500E+03  0.88548926500E+03  0.00000000000E+00 0.  1.
         23    2    1    2    0    0  0.82034941810E+01  0.27543046540E+02 -0.35056369060E+03  0.36372253154E+03  0.92591911403E+02 0.  0.
         24    2    1    2    0    0 -0.15389816074E+03  0.17453719849E+03 -0.35799178173E+03  0.43412597708E+03  0.78481658072E+02 0.  0.
        -11    1    4    4    0    0 -0.94787888424E+02  0.84751333394E+02 -0.12886126549E+03  0.18103247788E+03  0.00000000000E+00 0.  1.
         12    1    4    4    0    0 -0.59110272314E+02  0.89785865096E+02 -0.22913051624E+03  0.25309349920E+03  0.00000000000E+00 0. -1.
        -13    1    3    3    0    0  0.27371121779E+02 -0.25573892453E+02 -0.97815661949E+02  0.10474304753E+03  0.00000000000E+00 0.  1.
         13    1    3    3    0    0 -0.19167627598E+02  0.53116938993E+02 -0.25274802865E+03  0.25897948402E+03  0.00000000000E+00 0. -1.
         21    1    1    2  503  501 -0.27404820362E+02 -0.79983263417E+02  0.87039117578E+01  0.84994733283E+02  0.00000000000E+00 0.  1.
         -2    1    1    2    0  502  0.17309948692E+03 -0.12209698161E+03  0.25016349952E+02  0.21330007749E+03  0.00000000000E+00 0.  1.
<scales pt_clust_5="13000.00000" pt_clust_6="13000.00000" pt_clust_7="13000.00000" pt_clust_8="13000.00000" pt_clust_9="84.54790" pt_clust_10="232.65800"></scales>
<clustering>
<clus scale="   78.482">  5  6 -1 -1</clus>
<clus scale="   84.548">  1  9  2 -1</clus>
<clus scale="   92.592">  7  8 -1 -1</clus>
<clus scale="   95.998">  2  7  1 -1</clus>
<clus scale="  232.658">  1 10  2 -1</clus>
<clus scale="   84.548">  1  5  2 -1</clus>
</clustering>
</event>
<event>
10    4  0.2977685E-005  0.1517515E+03  0.7546771E-02  0.1200958E+00
          2   -1    0    0  503    0 -0.00000000000E+00  0.00000000000E+00  0.76080285897E+03  0.76080285897E+03  0.00000000000E+00 0. -1.
         21   -1    0    0  501  502  0.00000000000E+00 -0.00000000000E+00 -0.15451192570E+03  0.15451192570E+03  0.00000000000E+00 0.  1.
         23    2    1    2    0    0 -0.11973670386E+03 -0.37884710892E+02  0.61281698012E+03  0.63236604343E+03  0.92574468352E+02 0.  0.
         24    2    1    2    0    0  0.47822935175E+02  0.65034872388E+02 -0.67313423909E+02  0.13091487731E+03  0.78045117135E+02 0.  0.
        -11    1    4    4    0    0  0.28703687944E+02 -0.38789422137E+01 -0.49276258313E+02  0.57158529788E+02  0.00000000000E+00 0.  1.
         12    1    4    4    0    0  0.19119247232E+02  0.68913814601E+02 -0.18037165597E+02  0.73756347526E+02  0.00000000000E+00 0. -1.
        -13    1    3    3    0    0 -0.31687651096E+02  0.29615772842E+02  0.21711932756E+03  0.22140913177E+03  0.00000000000E+00 0.  1.
         13    1    3    3    0    0 -0.88049052761E+02 -0.67500483734E+02  0.39569765256E+03  0.41095691166E+03  0.00000000000E+00 0. -1.
         21    1    1    2  503  502  0.23911349921E+02 -0.68323264537E+02  0.49755715453E+02  0.87837647693E+02  0.00000000000E+00 0.  1.
          1    1    1    2  501    0  0.48002418760E+02  0.41173103041E+02  0.11031661599E+02  0.64196216232E+02  0.00000000000E+00 0. -1.
<scales pt_clust_5="13000.00000" pt_clust_6="13000.00000" pt_clust_7="13000.00000" pt_clust_8="13000.00000" pt_clust_9="69.51765" pt_clust_10="63.24126"></scales>
<clustering>
<clus scale="   63.241">  2 10  1 -1</clus>
<clus scale="   69.518">  2  9  1 -1</clus>
<clus scale="   78.045">  5  6 -1 -1</clus>
<clus scale="   92.574">  7  8 -1 -1</clus>
<clus scale="  143.351">  2  5  1 -1</clus>
<clus scale="   63.241">  2  5  1 -1</clus>
</clustering>
</event>
<event>
10    4  0.2977685E-005  0.1465212E+03  0.7546771E-02  0.1224589E+00
         -3   -1    0    0    0  501 -0.00000000000E+00  0.00000000000E+00  0.77391098766E+03  0.77391098766E+03  0.00000000000E+00 0.  1.
         21   -1    0    0  503  502  0.00000000000E+00 -0.00000000000E+00 -0.10996659763E+03  0.10996659763E+03  0.00000000000E+00 0.  1.
         24    2    1    2    0    0 -0.83964333962E+02  0.89079593654E+02  0.11074473295E+03  0.18897377250E+03  0.91986452437E+02 0.  0.
         23    2    1    2    0    0  0.48542590030E+02 -0.14419550028E+02 -0.95705328745E+01  0.10592785063E+03  0.92546247735E+02 0.  0.
        -13    1    3    3    0    0  0.19912618804E+02  0.15411705565E+02  0.24771941024E+02  0.35322544050E+02  0.00000000000E+00 0.  1.
         14    1    3    3    0    0 -0.10387695277E+03  0.73667888089E+02  0.85972791926E+02  0.15365122845E+03  0.00000000000E+00 0. -1.
        -13    1    4    4    0    0  0.41090215366E+02 -0.49466556342E+02  0.10033789026E+02  0.65084736439E+02  0.00000000000E+00 0.  1.
         13    1    4    4    0    0  0.74523746636E+01  0.35047006313E+02 -0.19604321901E+02  0.40843114191E+02  0.00000000000E+00 0. -1.
         21    1    1    2  503  501  0.93191066061E+02 -0.63150929774E+02  0.32221611251E+03  0.34131486620E+03  0.00000000000E+00 0.  1.
         -4    1    1    2    0  502 -0.57769322129E+02 -0.11509113853E+02  0.24055407744E+03  0.24766109596E+03  0.00000000000E+00 0.  1.
<scales pt_clust_5="13000.00000" pt_clust_6="13000.00000" pt_clust_7="13000.00000" pt_clust_8="13000.00000" pt_clust_9="114.04801" pt_clust_10="58.90465"></scales>
<clustering>
<clus scale="   58.905">  2 10  1 -1</clus>
<clus scale="   91.986">  5  6 -1 -1</clus>
<clus scale="   92.546">  7  8 -1 -1</clus>
<clus scale="   96.371">  2  7  1 -1</clus>
<clus scale="  114.048">  1  9  2 -1</clus>
<clus scale="   58.905">  2  5  1 -1</clus>
</clustering>
</event>
<event>
10    4  0.2977685E-005  0.1128898E+03  0.7546771E-02  0.1256308E+00
         21   -1    0    0  501  502  0.00000000000E+00  0.00000000000E+00  0.45434284476E+02  0.45434284476E+02  0.00000000000E+00 0.  1.
          2   -1    0    0  503    0 -0.00000000000E+00 -0.00000000000E+00 -0.76955393800E+03  0.76955393800E+03  0.00000000000E+00 0. -1.
         24    2    1    2    0    0 -0.27720025377E+02  0.27069921696E+02 -0.29530885681E+03  0.31227915833E+03  0.93860382207E+02 0.  0.
         23    2    1    2    0    0  0.75286430651E+02 -0.95901863888E+01 -0.82453775591E+02  0.14448110087E+03  0.91192900402E+02 0.  0.
        -13    1    3    3    0    0  0.29784677125E+02 -0.35806979324E+01 -0.48630517171E+02  0.57139089855E+02  0.00000000000E+00 0.  1.
         14    1    3    3    0    0 -0.57504702502E+02  0.30650619628E+02 -0.24667833964E+03  0.25514006848E+03  0.00000000000E+00 0. -1.
        -13    1    4    4    0    0  0.82255793204E+02 -0.37009574676E+02 -0.59577013303E+02  0.10809784756E+03  0.00000000000E+00 0.  1.
         13    1    4    4    0    0 -0.69693625526E+01  0.27419388287E+02 -0.22876762288E+02  0.36383253307E+02  0.00000000000E+00 0. -1.
         21    1    1    2  503  502 -0.45709616900E+02  0.22509820897E+02 -0.17571936527E+03  0.18295725306E+03  0.00000000000E+00 0. -1.
          1    1    1    2  501    0 -0.18567883738E+01 -0.39989556204E+02 -0.17063765585E+03  0.17527071022E+03  0.00000000000E+00 0. -1.
<scales pt_clust_5="13000.00000" pt_clust_6="13000.00000" pt_clust_7="13000.00000" pt_clust_8="13000.00000" pt_clust_9="49.70407" pt_clust_10="40.03266"></scales>
<clustering>
<clus scale="   40.033">  1 10  2 -1</clus>
<clus scale="   49.704">  2  9  1 -1</clus>
<clus scale="   91.193">  7  8 -1 -1</clus>
<clus scale="   93.860">  5  6 -1 -1</clus>
<clus scale="  110.682">  1  7  2 -1</clus>
<clus scale="   40.033">  1  5  2 -1</clus>
</clustering>
</event>
<event>
10    4  0.2977685E-005  0.1236098E+03  0.7546771E-02  0.1247360E+00
         21   -1    0    0  501  502  0.00000000000E+00  0.00000000000E+00  0.40305216384E+03  0.40305216384E+03  0.00000000000E+00 0. -1.
          2   -1    0    0  503    0 -0.00000000000E+00 -0.00000000000E+00 -0.34046962707E+03  0.34046962707E+03  0.00000000000E+00 0. -1.
         24    2    1    2    0    0  0.33842086678E+02 -0.35558879457E+02 -0.24871815614E+03  0.26582801588E+03  0.79963067070E+02 0.  0.
         23    2    1    2    0    0  0.49998214254E+02 -0.20004594761E+02  0.16314721952E+03  0.19646441551E+03  0.95295572224E+02 0.  0.
        -11    1    3    3    0    0 -0.24226408265E+02 -0.22555948230E+02 -0.11032535058E+03  0.11518408153E+03  0.00000000000E+00 0.  1.
         12    1    3    3    0    0  0.58068494943E+02 -0.13002931227E+02 -0.13839280556E+03  0.15064393435E+03  0.00000000000E+00 0. -1.
        -11    1    4    4    0    0  0.13512161565E+02 -0.51258083997E+02  0.47274161075E+02  0.71026868089E+02  0.00000000000E+00 0.  1.
         11    1    4    4    0    0  0.36486052688E+02  0.31253489236E+02  0.11587305844E+03  0.12543754742E+03  0.00000000000E+00 0. -1.
         21    1    1    2  503  502 -0.24492300455E+02 -0.27377402001E+02 -0.47823496294E+02  0.60303248003E+02  0.00000000000E+00 0.  1.
          1    1    1    2  501    0 -0.59348000477E+02  0.82940876219E+02  0.19597696968E+03  0.22092611153E+03  0.00000000000E+00 0. -1.
<scales pt_clust_5="13000.00000" pt_clust_6="13000.00000" pt_clust_7="13000.00000" pt_clust_8="13000.00000" pt_clust_9="36.73411" pt_clust_10="78.72824"></scales>
<clustering>
<clus scale="   36.734">  2  9  1 -1</clus>
<clus scale="   79.963">  5  6 -1 -1</clus>
<clus scale="   95.296">  7  8 -1 -1</clus>
<clus scale="  100.760">  2  5  1 -1</clus>
<clus scale="   78.728">  1 10  2 -1</clus>
<clus scale="   78.728">  1  5  2 -1</clus>
</clustering>
</event>
<event>
10    4  0.2977685E-005  0.1345415E+03  0.7546771E-02  0.1223806E+00
         21   -1    0    0  501  502  0.00000000000E+00  0.00000000000E+00  0.51722107593E+03  0.51722107593E+03  0.00000000000E+00 0. -1.
          4   -1    0    0  503    0 -0.00000000000E+00 -0.00000000000E+00 -0.21884205614E+03  0.21884205614E+03  0.00000000000E+00 0. -1.
         23    2    1    2    0    0 -0.58670317714E+02 -0.10059846797E+03 -0.97199765955E+02  0.17765604971E+03  0.92474967196E+02 0.  0.
         24    2    1    2    0    0  0.26134894954E+02  0.57264566334E+02  0.16680535287E+03  0.19556326159E+03  0.80366039126E+02 0.  0.
        -11    1    4    4    0    0 -0.21313002980E+01  0.44300268633E+02  0.26097590824E+02  0.51460086366E+02  0.00000000000E+00 0.  1.
         12    1    4    4    0    0  0.28266195252E+02  0.12964297701E+02  0.14070776205E+03  0.14410317522E+03  0.00000000000E+00 0. -1.
        -13    1    3    3    0    0 -0.44925790977E+02 -0.65611957266E+02 -0.11191506681E+03  0.13728888452E+03  0.00000000000E+00 0. -1.
         13    1    3    3    0    0 -0.13744526737E+02 -0.34986510700E+02  0.14715300860E+02  0.40367165192E+02  0.00000000000E+00 0.  1.
         21    1    1    2  503  502  0.22901774440E+02  0.34781677623E+01 -0.63559588239E+02  0.67649169844E+02  0.00000000000E+00 0.  1.
          3    1    1    2  501    0  0.96336483200E+01  0.39855733870E+02  0.29233302111E+03  0.29519465093E+03  0.00000000000E+00 0. -1.
<scales pt_clust_5="13000.00000" pt_clust_6="13000.00000" pt_clust_7="13000.00000" pt_clust_8="13000.00000" pt_clust_9="23.16439" pt_clust_10="41.08579"></scales>
<clustering>
<clus scale="   23.164">  2  9  1 -1</clus>
<clus scale="   41.086">  1 10  2 -1</clus>
<clus scale="   80.366">  5  6 -1 -1</clus>
<clus scale="   92.475">  7  8 -1 -1</clus>
<clus scale="  126.525">  1  5  2 -1</clus>
<clus scale="   41.086">  1  5  2 -1</clus>
</clustering>
</event>
<event>
10    4  0.2977685E-005  0.2328307E+03  0.7546771E-02  0.1126226E+00
         21   -1    0    0  501  502  0.00000000000E+00  0.00000000000E+00  0.17913802806E+03  0.17913802806E+03  0.00000000000E+00 0.  1.
          2   -1    0    0  503    0 -0.00000000000E+00 -0.00000000000E+00 -0.64276749296E+03  0.64276749296E+03  0.00000000000E+00 0. -1.
         23    2    1    2    0    0  0.68208386326E+02 -0.18362556336E+03 -0.46030781632E+03  0.51067522425E+03  0.10264096366E+03 0.  0.
         24    2    1    2    0    0 -0.10328621227E+03  0.17683082836E+03  0.19980178093E+02  0.22098628613E+03  0.80613569819E+02 0.  0.
        -13    1    4    4    0    0 -0.78361802924E+02  0.16101735000E+03  0.42274492632E+02  0.18399535833E+03  0.00000000000E+00 0.  1.
         14    1    4    4    0    0 -0.24924409342E+02  0.15813478353E+02 -0.22294314539E+02  0.36990927799E+02  0.00000000000E+00 0. -1.
        -11    1    3    3    0    0 -0.27138080614E+02 -0.31143775471E+02 -0.85692327072E+02  0.95129307203E+02  0.00000000000E+00 0.  1.
         11    1    3    3    0    0  0.95346466940E+02 -0.15248178789E+03 -0.37461548924E+03  0.41554591705E+03  0.00000000000E+00 0. -1.
         21    1    1    2  503  502  0.21211154214E+02 -0.11486535139E+02 -0.49713991659E+02  0.55256986158E+02  0.00000000000E+00 0. -1.
          1    1    1    2  501    0  0.13866671725E+02  0.18281270140E+02  0.26412164988E+02  0.34987024480E+02  0.00000000000E+00 0. -1.
<scales pt_clust_5="13000.00000" pt_clust_6="13000.00000" pt_clust_7="13000.00000" pt_clust_8="13000.00000" pt_clust_9="24.19047" pt_clust_10="22.94536"></scales>
<clustering>
<clus scale="   22.945">  1 10  2 -1</clus>
<clus scale="   24.190">  2  9  1 -1</clus>
<clus scale="   80.614">  5  6 -1 -1</clus>
<clus scale="  102.641">  7  8 -1 -1</clus>
<clus scale="  223.994">  1  5  2 -1</clus>
<clus scale="   22.945">  1  5  2 -1</clus>
</clustering>
</event>
<event>
10    4  0.2977685E-005  0.1041660E+03  0.7546771E-02  0.1272853E+00
          2   -1    0    0  503    0 -0.00000000000E+00  0.00000000000E+00  0.63173657946E+03  0.63173657946E+03  0.00000000000E+00 0. -1.
         21   -1    0    0  501  502  0.00000000000E+00 -0.00000000000E+00 -0.46498584123E+03  0.46498584123E+03  0.00000000000E+00 0. -1.
         24    2    1    2    0    0 -0.11464915459E+03 -0.20991439868E+00  0.28071260363E+03  0.31585077540E+03  0.88417610070E+02 0.  0.
         23    2    1    2    0    0  0.16572680398E+01 -0.11531629508E+02  0.48268953031E+02  0.10356636855E+03  0.90886609858E+02 0.  0.
        -11    1    3    3    0    0 -0.31403346396E+02 -0.40496162317E+02  0.82422725294E+02  0.97054700928E+02  0.00000000000E+00 0.  1.
         12    1    3    3    0    0 -0.83245808192E+02  0.40286247918E+02  0.19828987834E+03  0.21879607447E+03  0.00000000000E+00 0. -1.
        -13    1    4    4    0    0  0.26406637732E+02 -0.62253371087E+01  0.66863850449E+02  0.72158435649E+02  0.00000000000E+00 0.  1.
         13    1    4    4    0    0 -0.24749369692E+02 -0.53062923990E+01 -0.18594897418E+02  0.31407932902E+02  0.00000000000E+00 0. -1.
         21    1    1    2  503  502  0.58966535431E+02  0.14632614332E+02  0.25217106314E+03  0.25938660487E+03  0.00000000000E+00 0.  1.
          1    1    1    2  501    0  0.54025351117E+02 -0.28910704252E+01 -0.41440188157E+03  0.41791867187E+03  0.00000000000E+00 0. -1.
<scales pt_clust_5="13000.00000" pt_clust_6="13000.00000" pt_clust_7="13000.00000" pt_clust_8="13000.00000" pt_clust_9="64.58857" pt_clust_10="54.10265"></scales>
<clustering>
<clus scale="   54.103">  2 10  1 -1</clus>
<clus scale="   64.589">  1  9  2 -1</clus>
<clus scale="   88.418">  5  6 -1 -1</clus>
<clus scale="   90.887">  7  8 -1 -1</clus>
<clus scale="  102.019">  1  5  2 -1</clus>
<clus scale="   54.103">  2  5  1 -1</clus>
</clustering>
</event>
<event>
10    4  0.2977685E-005  0.1111911E+03  0.7546771E-02  0.1267214E+00
         21   -1    0    0  501  502  0.00000000000E+00  0.00000000000E+00  0.23323198039E+03  0.23323198039E+03  0.00000000000E+00 0. -1.
          2   -1    0    0  503    0 -0.00000000000E+00 -0.00000000000E+00 -0.12219852883E+03  0.12219852883E+03  0.00000000000E+00 0. -1.
         24    2    1    2    0    0 -0.63978880768E+02 -0.88055752087E+00  0.40690102828E+02  0.10362448475E+03  0.70627733969E+02 0.  0.
         23    2    1    2    0    0  0.51840457723E+02  0.43646462278E+02  0.44932845416E+02  0.12334129240E+03  0.92745172857E+02 0.  0.
        -13    1    3    3    0    0 -0.37790476952E+02 -0.22350978814E+02  0.51874588226E+02  0.67960718844E+02  0.00000000000E+00 0.  1.
         14    1    3    3    0    0 -0.26188403817E+02  0.21470421294E+02 -0.11184485397E+02  0.35663765906E+02  0.00000000000E+00 0. -1.
        -11    1    4    4    0    0  0.63880420279E+02 -0.14197841695E+01  0.91443533409E+01  0.64547215897E+02  0.00000000000E+00 0.  1.
         11    1    4    4    0    0 -0.12039962556E+02  0.45066246447E+02  0.35788492075E+02  0.58794076506E+02  0.00000000000E+00 0. -1.
         21    1    1    2  503  502  0.20018820280E+02 -0.31503859968E+01 -0.43838958173E+02  0.48296297488E+02  0.00000000000E+00 0. -1.
          1    1    1    2  501    0 -0.78803972348E+01 -0.39615518760E+02  0.69249461482E+02  0.80168434579E+02  0.00000000000E+00 0. -1.
<scales pt_clust_5="13000.00000" pt_clust_6="13000.00000" pt_clust_7="13000.00000" pt_clust_8="13000.00000" pt_clust_9="20.26519" pt_clust_10="40.35933"></scales>
<clustering>
<clus scale="   20.265">  2  9  1 -1</clus>
<clus scale="   40.359">  1 10  2 -1</clus>
<clus scale="   70.628">  5  6 -1 -1</clus>
<clus scale="   92.745">  7  8 -1 -1</clus>
<clus scale="   93.542">  2  5  1 -1</clus>
<clus scale="   40.359">  1  5  2 -1</clus>
</clustering>
</event>
<event>
10    4  0.2977685E-005  0.9526965E+02  0.7546771E-02  0.1295743E+00
         21   -1    0    0  501  502  0.00000000000E+00  0.00000000000E+00  0.41192243043E+02  0.41192243043E+02  0.00000000000E+00 0.  1.
          2   -1    0    0  503    0 -0.00000000000E+00 -0.00000000000E+00 -0.54118668028E+03  0.54118668028E+03  0.00000000000E+00 0. -1.
         23    2    1    2    0    0 -0.77867423602E+01 -0.27667130212E+02 -0.14462853122E+03  0.17339040455E+03  0.91217963675E+02 0.  0.
         24    2    1    2    0    0  0.45458686313E+02 -0.16695052429E+02 -0.14839287448E+03  0.17633713400E+03  0.82031229988E+02 0.  0.
        -11    1    4    4    0    0  0.28753832833E+02 -0.25287305729E+02 -0.14205843108E+02  0.40841605160E+02  0.00000000000E+00 0.  1.
         12    1    4    4    0    0  0.16704853479E+02  0.85922532993E+01 -0.13418703137E+03  0.13549552884E+03  0.00000000000E+00 0. -1.
        -11    1    3    3    0    0 -0.34198815499E+01 -0.57391908604E+02 -0.12476238989E+03  0.13737241606E+03  0.00000000000E+00 0.  1.
         11    1    3    3    0    0 -0.43668608103E+01  0.29724778392E+02 -0.19866141333E+02  0.36017988496E+02  0.00000000000E+00 0. -1.
         21    1    1    2  503  502  0.79249334519E+00 -0.25472440484E+02 -0.65112340915E+02  0.69922029500E+02  0.00000000000E+00 0. -1.
          1    1    1    2  501    0 -0.38464437298E+02  0.69834623126E+02 -0.14186069062E+03  0.16272935527E+03  0.00000000000E+00 0. -1.
<scales pt_clust_5="13000.00000" pt_clust_6="13000.00000" pt_clust_7="13000.00000" pt_clust_8="13000.00000" pt_clust_9="25.48477" pt_clust_10="72.52619"></scales>
<clustering>
<clus scale="   25.485">  2  9  1 -1</clus>
<clus scale="   72.526">  1 10  2 -1</clus>
<clus scale="   82.031">  5  6 -1 -1</clus>
<clus scale="   86.514">  1  5  2 -1</clus>
<clus scale="   91.218">  7  8 -1 -1</clus>
<clus scale="   72.526">  1  5  2 -1</clus>
</clustering>
</event>
<event>
10    4  0.2977685E-005  0.3535013E+03  0.7546771E-02  0.1061187E+00
         21   -1    0    0  501  502  0.00000000000E+00  0.00000000000E+00  0.77390482903E+03  0.77390482903E+03  0.00000000000E+00 0. -1.
          2   -1    0    0  503    0 -0.00000000000E+00 -0.00000000000E+00 -0.23327077063E+03  0.23327077063E+03  0.00000000000E+00 0. -1.
         24    2    1    2    0    0 -0.27797698098E+02 -0.44907378147E+02  0.13595719834E+03  0.16768604081E+03  0.82733692480E+02 0.  0.
         23    2    1    2    0    0 -0.20749192348E+03 -0.12113015322E+03  0.42423360555E+03  0.49603270539E+03  0.91372208102E+02 0.  0.
        -11    1    3    3    0    0 -0.31844768423E+02  0.16711852334E+02  0.42558208232E+02  0.55718725508E+02  0.00000000000E+00 0.  1.
         12    1    3    3    0    0  0.40470703242E+01 -0.61619230481E+02  0.93398990106E+02  0.11196731530E+03  0.00000000000E+00 0. -1.
        -13    1    4    4    0    0 -0.11892699488E+03 -0.10609817398E+03  0.20922452628E+03  0.26301208153E+03  0.00000000000E+00 0.  1.
         13    1    4    4    0    0 -0.88564928596E+02 -0.15031979240E+02  0.21500907927E+03  0.23302062386E+03  0.00000000000E+00 0. -1.
         21    1    1    2  503  502  0.32033884926E+02 -0.25802046387E+02 -0.47192979548E+02  0.62602657290E+02  0.00000000000E+00 0.  1.
          1    1    1    2  501    0  0.20325573665E+03  0.19183957775E+03  0.27636234060E+02  0.28085419617E+03  0.00000000000E+00 0. -1.
<scales pt_clust_5="13000.00000" pt_clust_6="13000.00000" pt_clust_7="13000.00000" pt_clust_8="13000.00000" pt_clust_9="41.13290" pt_clust_10="284.92826"></scales>
<clustering>
<clus scale="   41.133">  2  9  1 -1</clus>
<clus scale="   82.734">  5  6 -1 -1</clus>
<clus scale="   91.372">  7  8 -1 -1</clus>
<clus scale="   95.731">  5  7 -1 -1</clus>
<clus scale="  284.928">  1 10  2 -1</clus>
<clus scale="  284.928">  1  5  2 -1</clus>
</clustering>
</event>
<event>
10    4  0.2977685E-005  0.1218404E+03  0.7546771E-02  0.1242686E+00
          2   -1    0    0  502    0 -0.00000000000E+00  0.00000000000E+00  0.17083546062E+03  0.17083546062E+03  0.00000000000E+00 0. -1.
         21   -1    0    0  503  502  0.00000000000E+00 -0.00000000000E+00 -0.21995419939E+03  0.21995419939E+03  0.00000000000E+00 0. -1.
         24    2    1    2    0    0 -0.70717758869E+02  0.84418600586E+01  0.59445420337E+02  0.12318518683E+03  0.81046689224E+02 0.  0.
         23    2    1    2    0    0  0.13551521811E+03 -0.14023661514E+02 -0.10942740508E+03  0.19643232758E+03  0.89723268510E+02 0.  0.
        -11    1    3    3    0    0 -0.79401242515E+02  0.29508079711E+02  0.42378954294E+02  0.94716734784E+02  0.00000000000E+00 0.  1.
         12    1    3    3    0    0  0.86834836451E+01 -0.21066219652E+02  0.17066466044E+02  0.28468452045E+02  0.00000000000E+00 0. -1.
        -13    1    4    4    0    0  0.80781875726E+01  0.26313826937E+02 -0.30989523659E+02  0.41449067290E+02  0.00000000000E+00 0.  1.
         13    1    4    4    0    0  0.12743703054E+03 -0.40337488451E+02 -0.78437881422E+02  0.15498326029E+03  0.00000000000E+00 0. -1.
         21    1    1    2  503  501 -0.22339301949E+02  0.10142876952E+02 -0.10948534720E+02  0.26866201387E+02  0.00000000000E+00 0. -1.
          1    1    1    2  501    0 -0.42458157294E+02 -0.45610754967E+01  0.11811780690E+02  0.44305944224E+02  0.00000000000E+00 0. -1.
<scales pt_clust_5="13000.00000" pt_clust_6="13000.00000" pt_clust_7="13000.00000" pt_clust_8="13000.00000" pt_clust_9="21.90111" pt_clust_10="71.16695"></scales>
<clustering>
<clus scale="   21.901">  9 10 -1 -1</clus>
<clus scale="   71.167">  2  9  1 -1</clus>
<clus scale="   81.047">  5  6 -1 -1</clus>
<clus scale="   89.723">  7  8 -1 -1</clus>
<clus scale="  115.600">  1  5  2 -1</clus>
<clus scale="   71.167">  2  5  1 -1</clus>
</clustering>
</event>
<event>
10    4  0.2977685E-005  0.1714120E+03  0.7546771E-02  0.1194228E+00
          2   -1    0    0  503    0 -0.00000000000E+00  0.00000000000E+00  0.64542729101E+03  0.64542729101E+03  0.00000000000E+00 0. -1.
         21   -1    0    0  501  502  0.00000000000E+00 -0.00000000000E+00 -0.14297858308E+03  0.14297858308E+03  0.00000000000E+00 0. -1.
         23    2    1    2    0    0 -0.35512493635E+02 -0.61771827259E+02 -0.55167130802E+02  0.12762441142E+03  0.90375230137E+02 0.  0.
         24    2    1    2    0    0 -0.29778782716E+02  0.16794970229E+03  0.28813137831E+03  0.34433681702E+03  0.80338496275E+02 0.  0.
        -11    1    4    4    0    0 -0.28468961514E+02  0.58868992974E+02  0.17663397206E+03  0.18834967531E+03  0.00000000000E+00 0.  1.
         12    1    4    4    0    0 -0.13098212026E+01  0.10908070932E+03  0.11149740626E+03  0.15598714171E+03  0.00000000000E+00 0. -1.
        -13    1    3    3    0    0  0.56856841184E+01  0.21400792471E+02 -0.83161436843E+01  0.23653311989E+02  0.00000000000E+00 0.  1.
         13    1    3    3    0    0 -0.41198177754E+02 -0.83172619730E+02 -0.46850987118E+02  0.10397109943E+03  0.00000000000E+00 0. -1.
         21    1    1    2  503  502 -0.20458915640E+02  0.87307476656E+01  0.30493170430E+02  0.37744226404E+02  0.00000000000E+00 0. -1.
          1    1    1    2  501    0  0.85750191991E+02 -0.11490862270E+03  0.23899128999E+03  0.27870041925E+03  0.00000000000E+00 0. -1.
<scales pt_clust_5="13000.00000" pt_clust_6="13000.00000" pt_clust_7="13000.00000" pt_clust_8="13000.00000" pt_clust_9="22.24395" pt_clust_10="151.41927"></scales>
<clustering>
<clus scale="   22.244">  1  9  2 -1</clus>
<clus scale="   80.338">  5  6 -1 -1</clus>
<clus scale="   90.375">  7  8 -1 -1</clus>
<clus scale="  115.189">  1  7  2 -1</clus>
<clus scale="  151.419">  2 10  1 -1</clus>
<clus scale="  151.419">  2  5  1 -1</clus>
</clustering>
</event>
<event>
10    4  0.2977685E-005  0.1136119E+03  0.7546771E-02  0.1258939E+00
          4   -1    0    0  503    0 -0.00000000000E+00  0.00000000000E+00  0.10213463206E+03  0.10213463206E+03  0.00000000000E+00 0. -1.
         21   -1    0    0  501  502  0.00000000000E+00 -0.00000000000E+00 -0.87187003063E+03  0.87187003063E+03  0.00000000000E+00 0. -1.
         23    2    1    2    0    0 -0.55898994071E+02 -0.81690223264E+02 -0.25378117132E+03  0.28795900724E+03  0.93367643329E+02 0.  0.
         24    2    1    2    0    0 -0.21593696603E+02  0.46466959155E+02 -0.24369936998E+03  0.26163472583E+03  0.80236405717E+02 0.  0.
        -13    1    4    4    0    0 -0.26954721785E+02 -0.80959783382E+01 -0.15366458336E+03  0.15622069668E+03  0.00000000000E+00 0.  1.
         14    1    4    4    0    0  0.53610251822E+01  0.54562937494E+02 -0.90034786623E+02  0.10541402915E+03  0.00000000000E+00 0. -1.
        -11    1    3    3    0    0 -0.79939127610E+02 -0.43674613491E+02 -0.17033917758E+03  0.19316617563E+03  0.00000000000E+00 0. -1.
         11    1    3    3    0    0  0.24040133540E+02 -0.38015609773E+02 -0.83441993737E+02  0.94792831617E+02  0.00000000000E+00 0.  1.
         21    1    1    2  503  502  0.28862990636E+02  0.88244201364E+01  0.70777681933E+02  0.76944284251E+02  0.00000000000E+00 0. -1.
          3    1    1    2  501    0  0.48629700037E+02  0.26398843972E+02 -0.34303253920E+03  0.34746664536E+03  0.00000000000E+00 0. -1.
<scales pt_clust_5="13000.00000" pt_clust_6="13000.00000" pt_clust_7="13000.00000" pt_clust_8="13000.00000" pt_clust_9="30.18183" pt_clust_10="57.65419"></scales>
<clustering>
<clus scale="   30.182">  1  9  2 -1</clus>
<clus scale="   57.654">  2 10  1 -1</clus>
<clus scale="   80.236">  5  6 -1 -1</clus>
<clus scale="   93.368">  7  8 -1 -1</clus>
<clus scale="  103.092">  2  5  1 -1</clus>
<clus scale="   57.654">  2  5  1 -1</clus>
</clustering>
</event>
<event>
10    4  0.2977685E-005  0.1472038E+03  0.7546771E-02  0.1232592E+00
         21   -1    0    0  501  502  0.00000000000E+00  0.00000000000E+00  0.80876547291E+02  0.80876547291E+02  0.00000000000E+00 0. -1.
          2   -1    0    0  503    0 -0.00000000000E+00 -0.00000000000E+00 -0.86446663218E+03  0.86446663218E+03  0.00000000000E+00 0. -1.
         24    2    1    2    0    0 -0.27312937380E+02 -0.34743426576E+02 -0.52952445981E+02  0.97292392015E+02  0.68620301442E+02 0.  0.
         23    2    1    2    0    0  0.13656126301E+03 -0.13966906066E+02 -0.60012913127E+03  0.62005721680E+03  0.73972460340E+02 0.  0.
        -11    1    3    3    0    0 -0.38800690454E+02  0.11053231222E+01 -0.43851698461E+02  0.58563527701E+02  0.00000000000E+00 0.  1.
         12    1    3    3    0    0  0.11487753074E+02 -0.35848749698E+02 -0.91007475198E+01  0.38728864314E+02  0.00000000000E+00 0. -1.
        -11    1    4    4    0    0  0.11900420539E+03  0.99351407115E+01 -0.53955871298E+03  0.55261588167E+03  0.00000000000E+00 0. -1.
         11    1    4    4    0    0  0.17557057618E+02 -0.23902046778E+02 -0.60570418286E+02  0.67441335127E+02  0.00000000000E+00 0.  1.
         21    1    1    2  503  502  0.12708190889E+02  0.16674598506E+02 -0.94587260785E+02  0.96882868732E+02  0.00000000000E+00 0.  1.
          1    1    1    2  501    0 -0.12195651652E+03  0.32035734136E+02 -0.35921246854E+02  0.13111070192E+03  0.00000000000E+00 0. -1.
<scales pt_clust_5="13000.00000" pt_clust_6="13000.00000" pt_clust_7="13000.00000" pt_clust_8="13000.00000" pt_clust_9="20.96522" pt_clust_10="127.26758"></scales>
<clustering>
<clus scale="   20.965">  2  9  1 -1</clus>
<clus scale="   68.620">  5  6 -1 -1</clus>
<clus scale="   73.972">  7  8 -1 -1</clus>
<clus scale="   80.529">  2  5  1 -1</clus>
<clus scale="  127.268">  1 10  2 -1</clus>
<clus scale="  127.268">  1  5  2 -1</clus>
</clustering>
</event>
<event>
10    4  0.2977685E-005  0.1315728E+03  0.7546771E-02  0.1227776E+00
         21   -1    0    0  501  502  0.00000000000E+00  0.00000000000E+00  0.10628067087E+04  0.10628067087E+04  0.00000000000E+00 0. -1.
          2   -1    0    0  503    0 -0.00000000000E+00 -0.00000000000E+00 -0.63782940884E+02  0.63782940884E+02  0.00000000000E+00 0. -1.
         23    2    1    2    0    0  0.89107563153E+02  0.19678055778E+02  0.21484090267E+03  0.25037586838E+03  0.90576367310E+02 0.  0.
         24    2    1    2    0    0 -0.92582394420E+02 -0.75391684232E+02  0.41418466764E+03  0.43842140567E+03  0.80056131799E+02 0.  0.
        -11    1    4    4    0    0 -0.54995887889E+02 -0.23643788196E+02  0.90696418835E+02  0.10867114058E+03  0.00000000000E+00 0.  1.
         12    1    4    4    0    0 -0.37586506532E+02 -0.51747896036E+02  0.32348824880E+03  0.32975026510E+03  0.00000000000E+00 0. -1.
        -13    1    3    3    0    0  0.21176307305E+02  0.48782375414E+02  0.71547220332E+02  0.89146850081E+02  0.00000000000E+00 0. -1.
         13    1    3    3    0    0  0.67931255847E+02 -0.29104319636E+02  0.14329368234E+03  0.16122901830E+03  0.00000000000E+00 0.  1.
         21    1    1    2  503  502 -0.45143137834E+02  0.54172897298E+02  0.62355014785E+01  0.70791858104E+02  0.00000000000E+00 0. -1.
          1    1    1    2  501    0  0.48617969101E+02  0.15407311558E+01  0.36376269606E+03  0.36700051746E+03  0.00000000000E+00 0. -1.
<scales pt_clust_5="13000.00000" pt_clust_6="13000.00000" pt_clust_7="13000.00000" pt_clust_8="13000.00000" pt_clust_9="68.89585" pt_clust_10="48.64238"></scales>
<clustering>
<clus scale="   48.642">  1 10  2 -1</clus>
<clus scale="   68.896">  2  9  1 -1</clus>
<clus scale="   80.056">  5  6 -1 -1</clus>
<clus scale="   90.576">  7  8 -1 -1</clus>
<clus scale="  124.564">  1  5  2 -1</clus>
<clus scale="   48.642">  1  5  2 -1</clus>
</clustering>
</event>
<event>
10    4  0.2977685E-005  0.9301231E+02  0.7546771E-02  0.1304235E+00
         21   -1    0    0  501  502  0.00000000000E+00  0.00000000000E+00  0.18110938681E+03  0.18110938681E+03  0.00000000000E+00 0. -1.
          2   -1    0    0  503    0 -0.00000000000E+00 -0.00000000000E+00 -0.14086700849E+03  0.14086700849E+03  0.00000000000E+00 0. -1.
         24    2    1    2    0    0  0.14568184678E+02  0.25463495309E+01 -0.82939240423E+01  0.80218259592E+02  0.78405765701E+02 0.  0.
         23    2    1    2    0    0  0.16858233015E+02 -0.10758255532E+01  0.98619249079E+02  0.13597979477E+03  0.92083608076E+02 0.  0.
        -13    1    3    3    0    0  0.22591491948E+02  0.22384093213E+02 -0.34143633908E+02  0.46660592300E+02  0.00000000000E+00 0.  1.
         14    1    3    3    0    0 -0.80233072692E+01 -0.19837743682E+02  0.25849709865E+02  0.33557667292E+02  0.00000000000E+00 0. -1.
        -11    1    4    4    0    0  0.53877554386E+02  0.13169572454E+01  0.73650701903E+02  0.91263087465E+02  0.00000000000E+00 0. -1.
         11    1    4    4    0    0 -0.37019321370E+02 -0.23927827986E+01  0.24968547176E+02  0.44716707307E+02  0.00000000000E+00 0.  1.
         21    1    1    2  503  502 -0.30433672736E+01  0.40720838254E+02 -0.13037782174E+02  0.42865283348E+02  0.00000000000E+00 0. -1.
          1    1    1    2  501    0 -0.28383050420E+02 -0.42191362232E+02 -0.37045164549E+02  0.62913057584E+02  0.00000000000E+00 0. -1.
<scales pt_clust_5="13000.00000" pt_clust_6="13000.00000" pt_clust_7="13000.00000" pt_clust_8="13000.00000" pt_clust_9="40.83441" pt_clust_10="38.31373"></scales>
<clustering>
<clus scale="   40.834">  2  9  1 -1</clus>
<clus scale="   38.314">  1 10  2 -1</clus>
<clus scale="   78.406">  5  6 -1 -1</clus>
<clus scale="   79.494">  2  5  1 -1</clus>
<clus scale="   92.084">  7  8 -1 -1</clus>
<clus scale="   38.314">  1  5  2 -1</clus>
</clustering>
</event>
<event>
10    4  0.2977685E-005  0.3287117E+03  0.7546771E-02  0.1105406E+00
         21   -1    0    0  501  502  0.00000000000E+00  0.00000000000E+00  0.30257815791E+03  0.30257815791E+03  0.00000000000E+00 0.  1.
          2   -1    0    0  503    0 -0.00000000000E+00 -0.00000000000E+00 -0.17662450587E+04  0.17662450587E+04  0.00000000000E+00 0. -1.
         24    2    1    2    0    0 -0.43993187294E+02 -0.10084103841E+03 -0.22473111707E+03  0.26191694663E+03  0.77408632569E+02 0.  0.
         23    2    1    2    0    0  0.17990598642E+03 -0.40739239033E+03 -0.19358833397E+03  0.49381334523E+03  0.89668574356E+02 0.  0.
        -13    1    3    3    0    0 -0.59724020571E+02 -0.86027940359E+02 -0.14219262216E+03  0.17659701852E+03  0.00000000000E+00 0.  1.
         14    1    3    3    0    0  0.15730833277E+02 -0.14813098051E+02 -0.82538494914E+02  0.85319928107E+02  0.00000000000E+00 0. -1.
        -11    1    4    4    0    0  0.23321644346E+02 -0.13223610294E+03 -0.30552180255E+02  0.13770882954E+03  0.00000000000E+00 0. -1.
         11    1    4    4    0    0  0.15658434208E+03 -0.27515628739E+03 -0.16303615371E+03  0.35610451569E+03  0.00000000000E+00 0.  1.
         21    1    1    2  503  502 -0.24307998810E+01  0.28387059313E+03 -0.10106105574E+04  0.10497247835E+04  0.00000000000E+00 0. -1.
          1    1    1    2  501    0 -0.13348199925E+03  0.22436283561E+03 -0.34736892366E+02  0.26336814123E+03  0.00000000000E+00 0. -1.
<scales pt_clust_5="13000.00000" pt_clust_6="13000.00000" pt_clust_7="13000.00000" pt_clust_8="13000.00000" pt_clust_9="218.04661" pt_clust_10="316.24500"></scales>
<clustering>
<clus scale="   77.409">  5  6 -1 -1</clus>
<clus scale="   89.669">  7  8 -1 -1</clus>
<clus scale="  134.523">  2  5  1 -1</clus>
<clus scale="  218.047">  2  9  1 -1</clus>
<clus scale="  316.245">  1 10  2 -1</clus>
<clus scale="  316.245">  1  5  2 -1</clus>
</clustering>
</event>
<event>
10    4  0.2977685E-005  0.9440719E+02  0.7546771E-02  0.1299280E+00
         21   -1    0    0  501  502  0.00000000000E+00  0.00000000000E+00  0.11681694796E+03  0.11681694796E+03  0.00000000000E+00 0. -1.
          2   -1    0    0  503    0 -0.00000000000E+00 -0.00000000000E+00 -0.58256324928E+03  0.58256324928E+03  0.00000000000E+00 0. -1.
         24    2    1    2    0    0 -0.49145796893E+02  0.47487643914E+01 -0.28882391534E+03  0.30361170282E+03  0.79516991260E+02 0.  0.
         23    2    1    2    0    0 -0.31710065259E+02  0.18374011529E+02  0.29490353988E+02  0.10253844678E+03  0.91111577488E+02 0.  0.
        -13    1    3    3    0    0 -0.59670464560E+02  0.85375295853E+01 -0.11877399588E+03  0.13319427859E+03  0.00000000000E+00 0.  1.
         14    1    3    3    0    0  0.10524667667E+02 -0.37887651939E+01 -0.17004991946E+03  0.17041742422E+03  0.00000000000E+00 0. -1.
        -11    1    4    4    0    0 -0.40709746340E+02 -0.27792849669E+02  0.51015210297E+01  0.49555539112E+02  0.00000000000E+00 0. -1.
         11    1    4    4    0    0  0.89996810810E+01  0.46166861198E+02  0.24388832958E+02  0.52982907673E+02  0.00000000000E+00 0.  1.
         21    1    1    2  503  502  0.61053933127E+02 -0.33907082156E+02 -0.24157057069E+03  0.25146294677E+03  0.00000000000E+00 0. -1.
          1    1    1    2  501    0  0.19801929025E+02  0.10784306236E+02  0.35157830731E+02  0.41767100878E+02  0.00000000000E+00 0. -1.
<scales pt_clust_5="13000.00000" pt_clust_6="13000.00000" pt_clust_7="13000.00000" pt_clust_8="13000.00000" pt_clust_9="70.60998" pt_clust_10="22.54812"></scales>
<clustering>
<clus scale="   22.548">  1 10  2 -1</clus>
<clus scale="   70.610">  2  9  1 -1</clus>
<clus scale="   79.517">  5  6 -1 -1</clus>
<clus scale="   83.273">  2  5  1 -1</clus>
<clus scale="   91.112">  7  8 -1 -1</clus>
<clus scale="   22.548">  1  5  2 -1</clus>
</clustering>
</event>
<event>
10    4  0.2977685E-005  0.1306526E+03  0.7546771E-02  0.1229548E+00
         21   -1    0    0  501  502  0.00000000000E+00  0.00000000000E+00  0.92316517880E+02  0.92316517880E+02  0.00000000000E+00 0. -1.
          2   -1    0    0  503    0 -0.00000000000E+00 -0.00000000000E+00 -0.62985200066E+03  0.62985200066E+03  0.00000000000E+00 0. -1.
         24    2    1    2    0    0  0.39784145861E+02  0.64796500544E+02 -0.30809699584E+03  0.32705490096E+03  0.79118800896E+02 0.  0.
         23    2    1    2    0    0 -0.58423812404E+00 -0.13041307793E+03 -0.59243474816E+02  0.16973155604E+03  0.91055475271E+02 0.  0.
        -11    1    3    3    0    0  0.24890433723E+02  0.76812588396E+02 -0.28881104715E+03  0.29988585892E+03  0.00000000000E+00 0.  1.
         12    1    3    3    0    0  0.14893712138E+02 -0.12016087852E+02 -0.19285948690E+02  0.27169042041E+02  0.00000000000E+00 0. -1.
        -11    1    4    4    0    0 -0.40211548054E+02 -0.31660496317E+02 -0.86356347708E+01  0.51903080948E+02  0.00000000000E+00 0.  1.
         11    1    4    4    0    0  0.39627309930E+02 -0.98752581616E+02 -0.50607840045E+02  0.11782847509E+03  0.00000000000E+00 0. -1.
         21    1    1    2  503  502 -0.12163633339E+02  0.24692028888E+02 -0.17402089006E+03  0.17618433654E+03  0.00000000000E+00 0.  1.
          1    1    1    2  501    0 -0.27036274398E+02  0.40924548501E+02  0.38258779265E+01  0.49197725001E+02  0.00000000000E+00 0. -1.
<scales pt_clust_5="13000.00000" pt_clust_6="13000.00000" pt_clust_7="13000.00000" pt_clust_8="13000.00000" pt_clust_9="27.52545" pt_clust_10="50.41129"></scales>
<clustering>
<clus scale="   27.525">  2  9  1 -1</clus>
<clus scale="   50.411">  1 10  2 -1</clus>
<clus scale="   79.119">  5  6 -1 -1</clus>
<clus scale="   91.055">  7  8 -1 -1</clus>
<clus scale="  122.633">  2  5  1 -1</clus>
<clus scale="   50.411">  1  5  2 -1</clus>
</clustering>
</event>
<event>
10    4  0.2977685E-005  0.1783321E+03  0.7546771E-02  0.1196008E+00
         21   -1    0    0  503  502  0.00000000000E+00  0.00000000000E+00  0.33994148771E+02  0.33994148771E+02  0.00000000000E+00 0. -1.
          2   -1    0    0  502    0 -0.00000000000E+00 -0.00000000000E+00 -0.17647922377E+04  0.17647922377E+04  0.00000000000E+00 0. -1.
         24    2    1    2    0    0 -0.23491575606E+02 -0.50870673806E+02 -0.44932526675E+03  0.45957004433E+03  0.78560490874E+02 0.  0.
         23    2    1    2    0    0 -0.12527583424E+03 -0.44386035413E+02 -0.37645076303E+03  0.40934171170E+03  0.90450567533E+02 0.  0.
        -13    1    3    3    0    0 -0.11044910407E+02 -0.63980736545E+02 -0.21604162873E+03  0.22558703428E+03  0.00000000000E+00 0.  1.
         14    1    3    3    0    0 -0.12446665198E+02  0.13110062739E+02 -0.23328363802E+03  0.23398301004E+03  0.00000000000E+00 0. -1.
        -13    1    4    4    0    0 -0.48217554112E+02 -0.25420637436E+02 -0.27597448057E+03  0.28130598155E+03  0.00000000000E+00 0. -1.
         13    1    4    4    0    0 -0.77058280130E+02 -0.18965397977E+02 -0.10047628246E+03  0.12803573015E+03  0.00000000000E+00 0.  1.
         21    1    1    2  503  501 -0.17725366728E+01 -0.21140026333E+02 -0.58483141073E+02  0.62211899098E+02  0.00000000000E+00 0.  1.
          1    1    1    2  501    0  0.15053994652E+03  0.11639673555E+03 -0.84653891803E+03  0.86766273130E+03  0.00000000000E+00 0. -1.
<scales pt_clust_5="13000.00000" pt_clust_6="13000.00000" pt_clust_7="13000.00000" pt_clust_8="13000.00000" pt_clust_9="21.21421" pt_clust_10="153.69146"></scales>
<clustering>
<clus scale="   21.214">  1  9  2 -1</clus>
<clus scale="   78.560">  5  6 -1 -1</clus>
<clus scale="   90.451">  7  8 -1 -1</clus>
<clus scale="   98.382">  2  5  1 -1</clus>
<clus scale="  153.691">  1 10  2 -1</clus>
<clus scale="   21.214">  1  5  2 -1</clus>
</clustering>
</event>
<event>
10    4  0.2977685E-005  0.1328120E+03  0.7546771E-02  0.1226419E+00
         21   -1    0    0  501  502  0.00000000000E+00  0.00000000000E+00  0.80186395109E+03  0.80186395109E+03  0.00000000000E+00 0.  1.
          4   -1    0    0  503    0 -0.00000000000E+00 -0.00000000000E+00 -0.29903151753E+03  0.29903151753E+03  0.00000000000E+00 0. -1.
         24    2    1    2    0    0 -0.40116914600E+02 -0.64130165271E+02  0.10303018562E+02  0.11059702781E+03  0.80021905967E+02 0.  0.
         23    2    1    2    0    0  0.63916989890E+02  0.11617804322E+03  0.72135551374E+03  0.73923047026E+03  0.92331964242E+02 0.  0.
        -13    1    3    3    0    0 -0.58308212579E+02 -0.66245920134E+02 -0.24408086742E+01  0.88285486551E+02  0.00000000000E+00 0.  1.
         14    1    3    3    0    0  0.18191297979E+02  0.21157548630E+01  0.12743827237E+02  0.22311541261E+02  0.00000000000E+00 0. -1.
        -13    1    4    4    0    0  0.21320897311E+02 -0.22053681848E+01  0.32181094606E+02  0.38666098342E+02  0.00000000000E+00 0. -1.
         13    1    4    4    0    0  0.42596092580E+02  0.11838341141E+03  0.68917441914E+03  0.70056437191E+03  0.00000000000E+00 0.  1.
         21    1    1    2  503  502 -0.52710846982E+02 -0.17656108657E+02 -0.15474830736E+03  0.16442995528E+03  0.00000000000E+00 0. -1.
          3    1    1    2  501    0  0.28910771692E+02 -0.34391769297E+02 -0.74077791382E+02  0.86638015278E+02  0.00000000000E+00 0. -1.
<scales pt_clust_5="13000.00000" pt_clust_6="13000.00000" pt_clust_7="13000.00000" pt_clust_8="13000.00000" pt_clust_9="55.48956" pt_clust_10="44.92915"></scales>
<clustering>
<clus scale="   44.929">  1 10  2 -1</clus>
<clus scale="   55.490">  2  9  1 -1</clus>
<clus scale="   80.022">  5  6 -1 -1</clus>
<clus scale="   92.332">  7  8 -1 -1</clus>
<clus scale="  124.569">  2  5  1 -1</clus>
<clus scale="   44.929">  1  5  2 -1</clus>
</clustering>
</event>
<event>
10    4  0.2977685E-005  0.1079903E+03  0.7546771E-02  0.1269330E+00
          2   -1    0    0  503    0 -0.00000000000E+00  0.00000000000E+00  0.93170306133E+03  0.93170306133E+03  0.00000000000E+00 0. -1.
         21   -1    0    0  501  502  0.00000000000E+00 -0.00000000000E+00 -0.52353247182E+02  0.52353247182E+02  0.00000000000E+00 0.  1.
         24    2    1    2    0    0 -0.26877388962E+02  0.85576300701E+02  0.26289423651E+03  0.28942437363E+03  0.81285860910E+02 0.  0.
         23    2    1    2    0    0  0.30180800810E+02  0.11781496505E+02  0.44416865611E+02  0.10810739426E+03  0.93084189559E+02 0.  0.
        -13    1    3    3    0    0 -0.92764199406E+01  0.93444222523E+02  0.16680816151E+03  0.19142318939E+03  0.00000000000E+00 0.  1.
         14    1    3    3    0    0 -0.17600969021E+02 -0.78679218218E+01  0.96086075000E+02  0.98001184244E+02  0.00000000000E+00 0. -1.
        -11    1    4    4    0    0  0.53518805935E+02 -0.13998196299E+02  0.47878457105E+02  0.73161183309E+02  0.00000000000E+00 0.  1.
         11    1    4    4    0    0 -0.23338005124E+02  0.25779692804E+02 -0.34615914945E+01  0.34946210953E+02  0.00000000000E+00 0. -1.
         21    1    1    2  503  502  0.32967655880E+02 -0.35370929660E+02  0.13023072295E+03  0.13891727826E+03  0.00000000000E+00 0. -1.
          1    1    1    2  501    0 -0.36271067728E+02 -0.61986867546E+02  0.44180798908E+03  0.44760726236E+03  0.00000000000E+00 0. -1.
<scales pt_clust_5="13000.00000" pt_clust_6="13000.00000" pt_clust_7="13000.00000" pt_clust_8="13000.00000" pt_clust_9="48.35255" pt_clust_10="83.65281"></scales>
<clustering>
<clus scale="   48.353">  1  9  2 -1</clus>
<clus scale="   81.286">  5  6 -1 -1</clus>
<clus scale="   83.653">  2 10  1 -1</clus>
<clus scale="   93.084">  7  8 -1 -1</clus>
<clus scale="   98.003">  1  5  2 -1</clus>
<clus scale="   83.653">  2  5  1 -1</clus>
</clustering>
</event>
<event>
10    4  0.2977685E-005  0.1337961E+03  0.7546771E-02  0.1235513E+00
          2   -1    0    0  503    0 -0.00000000000E+00  0.00000000000E+00  0.14635632609E+04  0.14635632609E+04  0.00000000000E+00 0. -1.
         21   -1    0    0  501  502  0.00000000000E+00 -0.00000000000E+00 -0.62853735745E+02  0.62853735745E+02  0.00000000000E+00 0. -1.
         24    2    1    2    0    0 -0.41806165146E+02  0.82777694851E+02  0.50983463563E+03  0.52450348760E+03  0.81071885423E+02 0.  0.
         23    2    1    2    0    0  0.18582970322E+00  0.73969773685E+02  0.16575948045E+03  0.20414297912E+03  0.93416211726E+02 0.  0.
        -13    1    3    3    0    0 -0.35271087241E+02 -0.43946059124E+01  0.16183987059E+03  0.16569703035E+03  0.00000000000E+00 0.  1.
         14    1    3    3    0    0 -0.65350779050E+01  0.87172300764E+02  0.34799476505E+03  0.35880645725E+03  0.00000000000E+00 0. -1.
        -13    1    4    4    0    0 -0.28987143518E+02  0.64243867840E+02  0.15711514843E+03  0.17219959034E+03  0.00000000000E+00 0. -1.
         13    1    4    4    0    0  0.29172973221E+02  0.97259058456E+01  0.86443320179E+01  0.31943388786E+02  0.00000000000E+00 0.  1.
         21    1    1    2  503  502  0.68422797796E+02 -0.93161039941E+02  0.71929275293E+03  0.72852091462E+03  0.00000000000E+00 0. -1.
          1    1    1    2  501    0 -0.26802462353E+02 -0.63586428596E+02  0.58226560995E+01  0.69249615262E+02  0.00000000000E+00 0. -1.
<scales pt_clust_5="13000.00000" pt_clust_6="13000.00000" pt_clust_7="13000.00000" pt_clust_8="13000.00000" pt_clust_9="106.43655" pt_clust_10="69.00439"></scales>
<clustering>
<clus scale="   69.004">  2 10  1 -1</clus>
<clus scale="   81.072">  5  6 -1 -1</clus>
<clus scale="   93.416">  7  8 -1 -1</clus>
<clus scale="  101.010">  2  7  1 -1</clus>
<clus scale="  106.437">  1  9  2 -1</clus>
<clus scale="   69.004">  2  5  1 -1</clus>
</clustering>
</event>
<event>
10    4  0.2977685E-005  0.2393873E+03  0.7546771E-02  0.1120935E+00
         21   -1    0    0  503  502  0.00000000000E+00  0.00000000000E+00  0.38677659976E+03  0.38677659976E+03  0.00000000000E+00 0.  1.
         -3   -1    0    0    0  501 -0.00000000000E+00 -0.00000000000E+00 -0.50275673453E+03  0.50275673453E+03  0.00000000000E+00 0.  1.
         24    2    1    2    0    0 -0.17860450383E+03 -0.18964407991E+03 -0.19002341885E+03  0.33199067605E+03  0.79021917449E+02 0.  0.
         23    2    1    2    0    0 -0.40038206833E+02  0.22833680697E+03 -0.54443854685E+02  0.25497283371E+03  0.91138670139E+02 0.  0.
        -13    1    3    3    0    0 -0.83188951306E+02 -0.68940556566E+02 -0.12426340610E+03  0.16466510273E+03  0.00000000000E+00 0.  1.
         14    1    3    3    0    0 -0.95415552521E+02 -0.12070352334E+03 -0.65760012748E+02  0.16732557332E+03  0.00000000000E+00 0. -1.
        -13    1    4    4    0    0  0.14811140109E+02  0.10661171092E+03 -0.56252429516E+02  0.12144860066E+03  0.00000000000E+00 0. -1.
         13    1    4    4    0    0 -0.54849346942E+02  0.12172509605E+03  0.18085748313E+01  0.13352423305E+03  0.00000000000E+00 0.  1.
         21    1    1    2  503  501 -0.41138250484E+01  0.19983641448E+02 -0.19946857649E+02  0.28533254496E+02  0.00000000000E+00 0. -1.
         -4    1    1    2    0  502  0.22275653571E+03 -0.58676368508E+02  0.14843399641E+03  0.27403657003E+03  0.00000000000E+00 0.  1.
<scales pt_clust_5="13000.00000" pt_clust_6="13000.00000" pt_clust_7="13000.00000" pt_clust_8="13000.00000" pt_clust_9="20.40268" pt_clust_10="229.17733"></scales>
<clustering>
<clus scale="   20.403">  2  9  1 -1</clus>
<clus scale="   79.022">  5  6 -1 -1</clus>
<clus scale="   91.139">  7  8 -1 -1</clus>
<clus scale="  229.177">  1 10  2 -1</clus>
<clus scale="  235.041">  2  5  1 -1</clus>
<clus scale="  229.177">  1  5  2 -1</clus>
</clustering>
</event>
<event>
10    4  0.2977685E-005  0.1795963E+03  0.7546771E-02  0.1169039E+00
          2   -1    0    0  503    0 -0.00000000000E+00  0.00000000000E+00  0.40095175643E+03  0.40095175643E+03  0.00000000000E+00 0. -1.
         21   -1    0    0  501  502  0.00000000000E+00 -0.00000000000E+00 -0.32873850903E+03  0.32873850903E+03  0.00000000000E+00 0.  1.
         24    2    1    2    0    0  0.67526485187E+01  0.13617031785E+03 -0.12297723550E+02  0.15950237384E+03  0.81864641512E+02 0.  0.
         23    2    1    2    0    0 -0.19270400966E+02 -0.15829380945E+03 -0.13965938606E+03  0.22991396110E+03  0.89035986731E+02 0.  0.
        -11    1    3    3    0    0  0.44383242499E+02  0.77453256672E+02 -0.57004629439E+01  0.89450402244E+02  0.00000000000E+00 0.  1.
         12    1    3    3    0    0 -0.37630593980E+02  0.58717061180E+02 -0.65972606058E+01  0.70051971596E+02  0.00000000000E+00 0. -1.
        -11    1    4    4    0    0 -0.29152546784E+02 -0.56033514047E+02 -0.10301522565E+03  0.12083775236E+03  0.00000000000E+00 0.  1.
         11    1    4    4    0    0  0.98821458181E+01 -0.10226029540E+03 -0.36644160412E+02  0.10907620874E+03  0.00000000000E+00 0. -1.
         21    1    1    2  503  502 -0.29255110447E+02  0.65108072544E+02  0.26055571256E+03  0.27015588453E+03  0.00000000000E+00 0. -1.
          1    1    1    2  501    0  0.41772862894E+02 -0.42984580949E+02 -0.36385355558E+02  0.70118045985E+02  0.00000000000E+00 0. -1.
<scales pt_clust_5="13000.00000" pt_clust_6="13000.00000" pt_clust_7="13000.00000" pt_clust_8="13000.00000" pt_clust_9="70.39815" pt_clust_10="59.93869"></scales>
<clustering>
<clus scale="   59.939">  2 10  1 -1</clus>
<clus scale="   70.398">  1  9  2 -1</clus>
<clus scale="   81.865">  5  6 -1 -1</clus>
<clus scale="   89.036">  7  8 -1 -1</clus>
<clus scale="  176.151">  1  5  2 -1</clus>
<clus scale="   59.939">  2  5  1 -1</clus>
</clustering>
</event>
<event>
10    4  0.2977685E-005  0.1361080E+03  0.7546771E-02  0.1222085E+00
          2   -1    0    0  503    0 -0.00000000000E+00  0.00000000000E+00  0.19995788007E+03  0.19995788007E+03  0.00000000000E+00 0. -1.
         21   -1    0    0  501  502  0.00000000000E+00 -0.00000000000E+00 -0.22463573744E+03  0.22463573744E+03  0.00000000000E+00 0.  1.
         23    2    1    2    0    0  0.37583475152E+02 -0.94134410279E+02 -0.30326065960E+01  0.13661626708E+03  0.91547817700E+02 0.  0.
         24    2    1    2    0    0  0.75366112675E+01  0.97788343772E+02 -0.12167792308E+03  0.17415017994E+03  0.76833635341E+02 0.  0.
        -13    1    4    4    0    0  0.12223782045E+02  0.68911607865E+02 -0.12643321617E+03  0.14451155212E+03  0.00000000000E+00 0.  1.
         14    1    4    4    0    0 -0.46871707772E+01  0.28876735908E+02  0.47552930846E+01  0.29638627817E+02  0.00000000000E+00 0. -1.
        -13    1    3    3    0    0  0.65456364573E+02 -0.43473533867E+02 -0.52343413228E+01  0.78752029428E+02  0.00000000000E+00 0.  1.
         13    1    3    3    0    0 -0.27872889421E+02 -0.50660876412E+02  0.22017347268E+01  0.57864237654E+02  0.00000000000E+00 0. -1.
         21    1    1    2  503  502 -0.19915655510E+02 -0.16560221433E+02  0.44403305036E+02  0.51405522722E+02  0.00000000000E+00 0. -1.
          1    1    1    2  501    0 -0.25204430910E+02  0.12906287939E+02  0.55629367278E+02  0.62421647764E+02  0.00000000000E+00 0. -1.
<scales pt_clust_5="13000.00000" pt_clust_6="13000.00000" pt_clust_7="13000.00000" pt_clust_8="13000.00000" pt_clust_9="25.90124" pt_clust_10="33.56647"></scales>
<clustering>
<clus scale="   25.901">  1  9  2 -1</clus>
<clus scale="   33.566">  2 10  1 -1</clus>
<clus scale="   76.834">  5  6 -1 -1</clus>
<clus scale="   91.548">  7  8 -1 -1</clus>
<clus scale="  126.680">  2  5  1 -1</clus>
<clus scale="   33.566">  2  5  1 -1</clus>
</clustering>
</event>
<event>
10    4  0.2977685E-005  0.2465416E+03  0.7546771E-02  0.1116135E+00
          2   -1    0    0  503    0 -0.00000000000E+00  0.00000000000E+00  0.79112763096E+03  0.79112763096E+03  0.00000000000E+00 0. -1.
         21   -1    0    0  501  502  0.00000000000E+00 -0.00000000000E+00 -0.21321591248E+03  0.21321591248E+03  0.00000000000E+00 0.  1.
         24    2    1    2    0    0  0.13078897948E+03 -0.16546267825E+03  0.46229075497E+03  0.51445393216E+03  0.80414247085E+02 0.  0.
         23    2    1    2    0    0 -0.20402631696E+03  0.15040550271E+03 -0.54775734607E+02  0.27495384327E+03  0.91382063710E+02 0.  0.
        -13    1    3    3    0    0  0.39542798268E+02 -0.45123711662E+02  0.60444400706E+02  0.85166353836E+02  0.00000000000E+00 0.  1.
         14    1    3    3    0    0  0.91246181213E+02 -0.12033896659E+03  0.40184635427E+03  0.42928757832E+03  0.00000000000E+00 0. -1.
        -11    1    4    4    0    0 -0.91600944816E+02  0.11516595142E+03 -0.55283159716E+01  0.14725655074E+03  0.00000000000E+00 0. -1.
         11    1    4    4    0    0 -0.11242537214E+03  0.35239551288E+02 -0.49247418635E+02  0.12769729253E+03  0.00000000000E+00 0.  1.
         21    1    1    2  503  502  0.32558821320E+02  0.38196239725E+01  0.16958637264E+03  0.17272580628E+03  0.00000000000E+00 0. -1.
          1    1    1    2  501    0  0.40678516158E+02  0.11237551568E+02  0.81032547744E+00  0.42209961732E+02  0.00000000000E+00 0. -1.
<scales pt_clust_5="13000.00000" pt_clust_6="13000.00000" pt_clust_7="13000.00000" pt_clust_8="13000.00000" pt_clust_9="32.78210" pt_clust_10="43.32667"></scales>
<clustering>
<clus scale="   32.782">  1  9  2 -1</clus>
<clus scale="   43.327">  2 10  1 -1</clus>
<clus scale="   80.414">  5  6 -1 -1</clus>
<clus scale="   91.382">  7  8 -1 -1</clus>
<clus scale="  242.690">  1  5  2 -1</clus>
<clus scale="   43.327">  2  5  1 -1</clus>
</clustering>
</event>
<event>
10    4  0.2977685E-005  0.2120077E+03  0.7546771E-02  0.1140800E+00
         21   -1    0    0  501  502  0.00000000000E+00  0.00000000000E+00  0.20081075207E+03  0.20081075207E+03  0.00000000000E+00 0.  1.
          2   -1    0    0  503    0 -0.00000000000E+00 -0.00000000000E+00 -0.62876481264E+03  0.62876481264E+03  0.00000000000E+00 0. -1.
         24    2    1    2    0    0 -0.18191314896E+02  0.22404437599E+03 -0.14418159904E+03  0.27904663836E+03  0.80943724436E+02 0.  0.
         23    2    1    2    0    0  0.50044847070E+02 -0.12319223826E+03  0.59012925843E+02  0.17159499078E+03  0.91002753574E+02 0.  0.
        -13    1    3    3    0    0 -0.40495294326E+02  0.20036216337E+03 -0.11112144243E+03  0.23266465211E+03  0.00000000000E+00 0.  1.
         14    1    3    3    0    0  0.22303979430E+02  0.23682212617E+02 -0.33060156616E+02  0.46381986248E+02  0.00000000000E+00 0. -1.
        -13    1    4    4    0    0  0.80096653838E+00 -0.11002267423E+03  0.43495217249E+02  0.11831087995E+03  0.00000000000E+00 0. -1.
         13    1    4    4    0    0  0.49243880532E+02 -0.13169564034E+02  0.15517708595E+02  0.53284110828E+02  0.00000000000E+00 0.  1.
         21    1    1    2  503  502  0.64941358356E+01  0.26469984256E+02 -0.42014139827E+02  0.50080153875E+02  0.00000000000E+00 0. -1.
          1    1    1    2  501    0 -0.38347668009E+02 -0.12732212199E+03 -0.30077124755E+03  0.32885378170E+03  0.00000000000E+00 0. -1.
<scales pt_clust_5="13000.00000" pt_clust_6="13000.00000" pt_clust_7="13000.00000" pt_clust_8="13000.00000" pt_clust_9="27.25498" pt_clust_10="118.26961"></scales>
<clustering>
<clus scale="   27.255">  2  9  1 -1</clus>
<clus scale="   80.944">  5  6 -1 -1</clus>
<clus scale="   91.003">  7  8 -1 -1</clus>
<clus scale="  118.270">  1 10  2 -1</clus>
<clus scale="  207.889">  2  5  1 -1</clus>
<clus scale="  118.270">  1  5  2 -1</clus>
</clustering>
</event>
<event>
10    4  0.2977685E-005  0.1820241E+03  0.7546771E-02  0.1193222E+00
         21   -1    0    0  501  502  0.00000000000E+00  0.00000000000E+00  0.35985598239E+02  0.35985598239E+02  0.00000000000E+00 0. -1.
          2   -1    0    0  503    0 -0.00000000000E+00 -0.00000000000E+00 -0.17356006679E+04  0.17356006679E+04  0.00000000000E+00 0. -1.
         23    2    1    2    0    0  0.45758377925E+02  0.29836503442E+02 -0.17953724125E+03  0.20452528575E+03  0.81319895647E+02 0.  0.
         24    2    1    2    0    0  0.80426102700E+01  0.14942294865E+03 -0.85906178309E+03  0.87555930656E+03  0.78898992169E+02 0.  0.
        -11    1    4    4    0    0 -0.35610411114E+02  0.65311225838E+02 -0.37260011571E+03  0.37995329163E+03  0.00000000000E+00 0.  1.
         12    1    4    4    0    0  0.43653021384E+02  0.84111722807E+02 -0.48646166739E+03  0.49560601492E+03  0.00000000000E+00 0. -1.
        -11    1    3    3    0    0 -0.22390307101E+02  0.15163218294E+02 -0.36717605231E+02  0.45600784807E+02  0.00000000000E+00 0.  1.
         11    1    3    3    0    0  0.68148685026E+02  0.14673285148E+02 -0.14281963602E+03  0.15892450094E+03  0.00000000000E+00 0. -1.
         21    1    1    2  503  502  0.16980154311E+02 -0.16681901726E+02 -0.11420498028E+03  0.11665928599E+03  0.00000000000E+00 0.  1.
          1    1    1    2  501    0 -0.70781142506E+02 -0.16257755036E+03 -0.54681106503E+03  0.57484238783E+03  0.00000000000E+00 0. -1.
<scales pt_clust_5="13000.00000" pt_clust_6="13000.00000" pt_clust_7="13000.00000" pt_clust_8="13000.00000" pt_clust_9="23.80360" pt_clust_10="164.03572"></scales>
<clustering>
<clus scale="   23.804">  2  9  1 -1</clus>
<clus scale="   78.899">  5  6 -1 -1</clus>
<clus scale="   81.320">  7  8 -1 -1</clus>
<clus scale="   98.342">  2  7  1 -1</clus>
<clus scale="  164.036">  1 10  2 -1</clus>
<clus scale="  164.036">  1  5  2 -1</clus>
</clustering>
</event>
<event>
10    4  0.2977685E-005  0.1752918E+03  0.7546771E-02  0.1173426E+00
          2   -1    0    0  503    0 -0.00000000000E+00  0.00000000000E+00  0.58214852257E+03  0.58214852257E+03  0.00000000000E+00 0. -1.
         21   -1    0    0  501  502  0.00000000000E+00 -0.00000000000E+00 -0.12234407717E+03  0.12234407717E+03  0.00000000000E+00 0. -1.
         23    2    1    2    0    0 -0.13576097094E+03  0.54803161990E+02  0.42173326647E+03  0.45229103957E+03  0.72620993057E+02 0.  0.
         24    2    1    2    0    0  0.10861934828E+03 -0.60949440128E+02 -0.73336559311E+01  0.14896564795E+03  0.81387865726E+02 0.  0.
        -11    1    4    4    0    0  0.11178429927E+03 -0.36197187541E+02  0.10983010403E+02  0.11801098452E+03  0.00000000000E+00 0.  1.
         12    1    4    4    0    0 -0.31649509867E+01 -0.24752252587E+02 -0.18316666334E+02  0.30954663436E+02  0.00000000000E+00 0. -1.
        -13    1    3    3    0    0 -0.95237078067E+02  0.24875945749E+01  0.28250585937E+03  0.29813730015E+03  0.00000000000E+00 0. -1.
         13    1    3    3    0    0 -0.40523892872E+02  0.52315567415E+02  0.13922740711E+03  0.15415373942E+03  0.00000000000E+00 0.  1.
         21    1    1    2  503  502 -0.19681117552E+02  0.95141917112E+01  0.51453006506E+02  0.55904186878E+02  0.00000000000E+00 0.  1.
          1    1    1    2  501    0  0.46822740209E+02 -0.33679135739E+01 -0.60481716465E+01  0.47331725331E+02  0.00000000000E+00 0. -1.
<scales pt_clust_5="13000.00000" pt_clust_6="13000.00000" pt_clust_7="13000.00000" pt_clust_8="13000.00000" pt_clust_9="21.86015" pt_clust_10="46.15137"></scales>
<clustering>
<clus scale="   21.860">  1  9  2 -1</clus>
<clus scale="   46.151">  2 10  1 -1</clus>
<clus scale="   72.621">  7  8 -1 -1</clus>
<clus scale="   81.388">  5  6 -1 -1</clus>
<clus scale="  171.397">  1  7  2 -1</clus>
<clus scale="   46.151">  2  5  1 -1</clus>
</clustering>
</event>
<event>
10    4  0.2977685E-005  0.4317783E+03  0.7546771E-02  0.1054662E+00
          4   -1    0    0  503    0 -0.00000000000E+00  0.00000000000E+00  0.42322733591E+03  0.42322733591E+03  0.00000000000E+00 0. -1.
         21   -1    0    0  501  502  0.00000000000E+00 -0.00000000000E+00 -0.99900300539E+03  0.99900300539E+03  0.00000000000E+00 0. -1.
         24    2    1    2    0    0  0.14493652045E+03  0.13342404021E+03  0.12902278537E+03  0.24900067239E+03  0.80906651387E+02 0.  0.
         23    2    1    2    0    0  0.29832570919E+03  0.78422953601E+02 -0.15555385304E+03  0.36332765957E+03  0.11252376905E+03 0.  0.
        -13    1    3    3    0    0  0.31041648944E+02  0.54876745189E+02  0.50848530653E+01  0.63252643126E+02  0.00000000000E+00 0.  1.
         14    1    3    3    0    0  0.11389487151E+03  0.78547295021E+02  0.12393793231E+03  0.18574802927E+03  0.00000000000E+00 0. -1.
        -13    1    4    4    0    0  0.21890759118E+03  0.10520382918E+03 -0.99318703846E+02  0.26239775930E+03  0.00000000000E+00 0. -1.
         13    1    4    4    0    0  0.79418118008E+02 -0.26780875581E+02 -0.56235149197E+02  0.10092990028E+03  0.00000000000E+00 0.  1.
         21    1    1    2  503  502  0.35204400127E+02  0.29471540540E+02 -0.51099327729E+01  0.46195593979E+02  0.00000000000E+00 0. -1.
          3    1    1    2  501    0 -0.47846662977E+03 -0.24131853435E+03 -0.54413466903E+03  0.76370641536E+03  0.00000000000E+00 0. -1.
<scales pt_clust_5="13000.00000" pt_clust_6="13000.00000" pt_clust_7="13000.00000" pt_clust_8="13000.00000" pt_clust_9="45.91211" pt_clust_10="416.85861"></scales>
<clustering>
<clus scale="   45.912">  1  9  2 -1</clus>
<clus scale="   80.907">  5  6 -1 -1</clus>
<clus scale="  112.524">  7  8 -1 -1</clus>
<clus scale="  233.024">  1  5  2 -1</clus>
<clus scale="  416.859">  2 10  1 -1</clus>
<clus scale="  416.859">  2  5  1 -1</clus>
</clustering>
</event>
<event>
10    4  0.2977685E-005  0.1517765E+03  0.7546771E-02  0.1202243E+00
         -3   -1    0    0    0  501 -0.00000000000E+00  0.00000000000E+00  0.17749522725E+03  0.17749522725E+03  0.00000000000E+00 0.  1.
         21   -1    0    0  503  502  0.00000000000E+00 -0.00000000000E+00 -0.35524963906E+03  0.35524963906E+03  0.00000000000E+00 0.  1.
         24    2    1    2    0    0 -0.11428366679E+03 -0.71948450288E+02  0.38446171578E+02  0.16192244769E+03  0.80643877413E+02 0.  0.
         23    2    1    2    0    0  0.10309263638E+03 -0.38589095322E+02 -0.11773026271E+03  0.18999933768E+03  0.10060876505E+03 0.  0.
        -13    1    3    3    0    0 -0.10726871177E+03 -0.74499106972E+02  0.82986989032E+01  0.13086467005E+03  0.00000000000E+00 0.  1.
         14    1    3    3    0    0 -0.70149550234E+01  0.25506566840E+01  0.30147472675E+02  0.31057777644E+02  0.00000000000E+00 0. -1.
        -13    1    4    4    0    0  0.36964030670E+02 -0.38453973678E+02 -0.11147077796E+03  0.12357500554E+03  0.00000000000E+00 0.  1.
         13    1    4    4    0    0  0.66128605708E+02 -0.13512164433E+00 -0.62594847577E+01  0.66424332140E+02  0.00000000000E+00 0. -1.
         21    1    1    2  503  501  0.18880210818E+02 -0.13711655921E+02 -0.21675981170E+01  0.23434383931E+02  0.00000000000E+00 0. -1.
         -4    1    1    2    0  502 -0.76891804065E+01  0.12424920153E+03 -0.96302722556E+02  0.15738869701E+03  0.00000000000E+00 0.  1.
<scales pt_clust_5="13000.00000" pt_clust_6="13000.00000" pt_clust_7="13000.00000" pt_clust_8="13000.00000" pt_clust_9="23.33392" pt_clust_10="121.81295"></scales>
<clustering>
<clus scale="   23.334">  1  9  2 -1</clus>
<clus scale="   80.644">  5  6 -1 -1</clus>
<clus scale="  100.609">  7  8 -1 -1</clus>
<clus scale="  121.813">  2 10  1 -1</clus>
<clus scale="  139.346">  1  5  2 -1</clus>
<clus scale="  121.813">  2  5  1 -1</clus>
</clustering>
</event>
<event>
10    4  0.2977685E-005  0.1637883E+03  0.7546771E-02  0.1186194E+00
          2   -1    0    0  503    0 -0.00000000000E+00  0.00000000000E+00  0.75589691839E+03  0.75589691839E+03  0.00000000000E+00 0. -1.
         21   -1    0    0  501  502  0.00000000000E+00 -0.00000000000E+00 -0.27272327470E+03  0.27272327470E+03  0.00000000000E+00 0. -1.
         23    2    1    2    0    0  0.58240116721E+02 -0.12043916604E+03  0.60349480904E+03  0.62480528677E+03  0.90984382814E+02 0.  0.
         24    2    1    2    0    0 -0.13581173642E+03  0.10575107547E+03  0.95743990720E+01  0.18981991257E+03  0.79446915460E+02 0.  0.
        -11    1    4    4    0    0 -0.39830966856E+02  0.41106554120E+01 -0.23138202039E+02  0.46246943706E+02  0.00000000000E+00 0.  1.
         12    1    4    4    0    0 -0.95980769568E+02  0.10164042005E+03  0.32712601111E+02  0.14357296886E+03  0.00000000000E+00 0. -1.
        -13    1    3    3    0    0  0.28347613237E+02 -0.18968625774E+02  0.45461630728E+02  0.56834459692E+02  0.00000000000E+00 0.  1.
         13    1    3    3    0    0  0.29892503484E+02 -0.10147054026E+03  0.55803317832E+03  0.56797082707E+03  0.00000000000E+00 0. -1.
         21    1    1    2  503  502  0.21664098565E+02  0.80484709275E+02 -0.70869369410E+02  0.10940561738E+03  0.00000000000E+00 0. -1.
          1    1    1    2  501    0  0.55907521138E+02 -0.65796618705E+02 -0.59026195011E+02  0.10458937637E+03  0.00000000000E+00 0. -1.
<scales pt_clust_5="13000.00000" pt_clust_6="13000.00000" pt_clust_7="13000.00000" pt_clust_8="13000.00000" pt_clust_9="83.34939" pt_clust_10="72.03754"></scales>
<clustering>
<clus scale="   79.447">  5  6 -1 -1</clus>
<clus scale="   83.349">  2  9  1 -1</clus>
<clus scale="   72.038">  2 10  1 -1</clus>
<clus scale="   90.984">  7  8 -1 -1</clus>
<clus scale="  157.671">  2  5  1 -1</clus>
<clus scale="   83.349">  2  5  1 -1</clus>
</clustering>
</event>
<event>
10    4  0.2977685E-005  0.1254850E+03  0.7546771E-02  0.1236783E+00
         21   -1    0    0  501  502  0.00000000000E+00  0.00000000000E+00  0.47224357246E+03  0.47224357246E+03  0.00000000000E+00 0. -1.
          2   -1    0    0  503    0 -0.00000000000E+00 -0.00000000000E+00 -0.34751829588E+03  0.34751829588E+03  0.00000000000E+00 0. -1.
         24    2    1    2    0    0  0.10347316253E+03 -0.55202209045E+02 -0.22914081082E+02  0.14370096284E+03  0.79818120512E+02 0.  0.
         23    2    1    2    0    0 -0.39919654280E+02 -0.55013461795E+01  0.17156122980E+03  0.19733597881E+03  0.88794084008E+02 0.  0.
        -11    1    3    3    0    0  0.60235825097E+02 -0.52186173927E+02  0.20565459370E+02  0.82308501951E+02  0.00000000000E+00 0.  1.
         12    1    3    3    0    0  0.43237337437E+02 -0.30160351182E+01 -0.43479540453E+02  0.61392460893E+02  0.00000000000E+00 0. -1.
        -11    1    4    4    0    0 -0.59649317756E+02 -0.12579025123E+02  0.66539228502E+02  0.90242683423E+02  0.00000000000E+00 0.  1.
         11    1    4    4    0    0  0.19729663476E+02  0.70776789435E+01  0.10502200130E+03  0.10709329539E+03  0.00000000000E+00 0. -1.
         21    1    1    2  503  502 -0.42800193626E-01  0.53266350431E+02 -0.24389614655E+03  0.24964502042E+03  0.00000000000E+00 0. -1.
          1    1    1    2  501    0 -0.63510708060E+02  0.74372047942E+01  0.21997427441E+03  0.22907990627E+03  0.00000000000E+00 0. -1.
<scales pt_clust_5="13000.00000" pt_clust_6="13000.00000" pt_clust_7="13000.00000" pt_clust_8="13000.00000" pt_clust_9="53.26637" pt_clust_10="64.27104"></scales>
<clustering>
<clus scale="   53.266">  2  9  1 -1</clus>
<clus scale="   64.271">  1 10  2 -1</clus>
<clus scale="   79.818">  5  6 -1 -1</clus>
<clus scale="   88.794">  7  8 -1 -1</clus>
<clus scale="  119.302">  2  5  1 -1</clus>
<clus scale="   64.271">  1  5  2 -1</clus>
</clustering>
</event>
<event>
10    4  0.2977685E-005  0.3579174E+03  0.7546771E-02  0.1105884E+00
         21   -1    0    0  501  502  0.00000000000E+00  0.00000000000E+00  0.69424192489E+03  0.69424192489E+03  0.00000000000E+00 0.  1.
          2   -1    0    0  503    0 -0.00000000000E+00 -0.00000000000E+00 -0.38273172313E+03  0.38273172313E+03  0.00000000000E+00 0. -1.
         24    2    1    2    0    0  0.74929838414E+02 -0.36605506749E+02 -0.14702740156E+03  0.18724785487E+03  0.80562140828E+02 0.  0.
         23    2    1    2    0    0 -0.32894802481E+03  0.14663404477E+03  0.34771496881E+03  0.51059723933E+03  0.10047634136E+03 0.  0.
        -11    1    3    3    0    0  0.26800906541E+02  0.25538538768E+02 -0.40647072150E+02  0.54978996246E+02  0.00000000000E+00 0.  1.
         12    1    3    3    0    0  0.48128931873E+02 -0.62144045517E+02 -0.10638032941E+03  0.13226885863E+03  0.00000000000E+00 0. -1.
        -11    1    4    4    0    0 -0.23459286282E+03  0.13063144953E+03  0.30333405510E+03  0.40510484554E+03  0.00000000000E+00 0.  1.
         11    1    4    4    0    0 -0.94355161982E+02  0.16002595238E+02  0.44380913705E+02  0.10549239379E+03  0.00000000000E+00 0. -1.
         21    1    1    2  503  502 -0.40973771215E+02  0.12889599664E+02  0.11322276281E+02  0.44420554333E+02  0.00000000000E+00 0.  1.
          1    1    1    2  501    0  0.29499195761E+03 -0.12291813769E+03  0.99500358235E+02  0.33470799948E+03  0.00000000000E+00 0. -1.
<scales pt_clust_5="13000.00000" pt_clust_6="13000.00000" pt_clust_7="13000.00000" pt_clust_8="13000.00000" pt_clust_9="42.95337" pt_clust_10="343.52504"></scales>
<clustering>
<clus scale="   42.953">  2  9  1 -1</clus>
<clus scale="   80.562">  5  6 -1 -1</clus>
<clus scale="  100.476">  7  8 -1 -1</clus>
<clus scale="  102.935">  2  5  1 -1</clus>
<clus scale="  343.525">  1 10  2 -1</clus>
<clus scale="  343.525">  1  5  2 -1</clus>
</clustering>
</event>
<event>
10    4  0.2977685E-005  0.1932694E+03  0.7546771E-02  0.1183925E+00
          2   -1    0    0  503    0 -0.00000000000E+00  0.00000000000E+00  0.12175059942E+04  0.12175059942E+04  0.00000000000E+00 0. -1.
         21   -1    0    0  501  502  0.00000000000E+00 -0.00000000000E+00 -0.82388710210E+02  0.82388710210E+02  0.00000000000E+00 0.  1.
         24    2    1    2    0    0  0.35903588196E+02 -0.52464189302E+02  0.36793651664E+03  0.38201104457E+03  0.80706871417E+02 0.  0.
         23    2    1    2    0    0  0.46457873506E+02  0.13168732787E+03  0.65635410986E+02  0.17975217605E+03  0.92211448792E+02 0.  0.
        -11    1    3    3    0    0  0.54922913680E+01  0.20334523417E+02  0.46738791765E+02  0.51265707473E+02  0.00000000000E+00 0.  1.
         12    1    3    3    0    0  0.30411296828E+02 -0.72798712719E+02  0.32119772487E+03  0.33074533710E+03  0.00000000000E+00 0. -1.
        -13    1    4    4    0    0  0.69447549855E+02  0.64144470273E+02  0.25617680049E+02  0.97947643047E+02  0.00000000000E+00 0.  1.
         13    1    4    4    0    0 -0.22989676349E+02  0.67542857595E+02  0.40017730937E+02  0.81804533004E+02  0.00000000000E+00 0. -1.
         21    1    1    2  503  502  0.14195773473E+02  0.48772094404E+02  0.69603042125E+02  0.86167398998E+02  0.00000000000E+00 0. -1.
          1    1    1    2  501    0 -0.96557235175E+02 -0.12799523297E+03  0.63194231427E+03  0.65196408482E+03  0.00000000000E+00 0. -1.
<scales pt_clust_5="13000.00000" pt_clust_6="13000.00000" pt_clust_7="13000.00000" pt_clust_8="13000.00000" pt_clust_9="50.79604" pt_clust_10="169.85330"></scales>
<clustering>
<clus scale="   50.796">  2  9  1 -1</clus>
<clus scale="   80.707">  5  6 -1 -1</clus>
<clus scale="   92.211">  7  8 -1 -1</clus>
<clus scale="  100.942">  1  5  2 -1</clus>
<clus scale="  169.853">  2 10  1 -1</clus>
<clus scale="   50.796">  2  5  1 -1</clus>
</clustering>
</event>
<event>
10    4  0.2977685E-005  0.1754610E+03  0.7546771E-02  0.1173575E+00
         21   -1    0    0  503  502  0.00000000000E+00  0.00000000000E+00  0.29536453335E+03  0.29536453335E+03  0.00000000000E+00 0.  1.
         -1   -1    0    0    0  501 -0.00000000000E+00 -0.00000000000E+00 -0.24246721456E+03  0.24246721456E+03  0.00000000000E+00 0.  1.
         24    2    1    2    0    0 -0.17083117980E+03 -0.13569056353E+02 -0.29231999231E+02  0.19156070131E+03  0.80458568373E+02 0.  0.
         23    2    1    2    0    0  0.12230717179E+03 -0.76115143969E+02 -0.21499698702E+01  0.17031258687E+03  0.90825081685E+02 0.  0.
        -13    1    3    3    0    0 -0.36901554794E+02 -0.84944697056E+01 -0.42449913638E+02  0.56884760083E+02  0.00000000000E+00 0.  1.
         14    1    3    3    0    0 -0.13392962500E+03 -0.50745866469E+01  0.13217914407E+02  0.13467594122E+03  0.00000000000E+00 0. -1.
        -13    1    4    4    0    0  0.32018137988E+02 -0.65005710488E+02  0.22831516451E+02  0.75974875451E+02  0.00000000000E+00 0.  1.
         13    1    4    4    0    0  0.90289033798E+02 -0.11109433481E+02 -0.24981486321E+02  0.94337711416E+02  0.00000000000E+00 0. -1.
         21    1    1    2  503  501 -0.35361138081E+02  0.93468546979E+01  0.94007093385E+01  0.37764363032E+02  0.00000000000E+00 0.  1.
         -2    1    1    2    0  502  0.83885146091E+02  0.80337345624E+02  0.74878578560E+02  0.13819409670E+03  0.00000000000E+00 0.  1.
<scales pt_clust_5="13000.00000" pt_clust_6="13000.00000" pt_clust_7="13000.00000" pt_clust_8="13000.00000" pt_clust_9="36.57559" pt_clust_10="109.35973"></scales>
<clustering>
<clus scale="   36.576">  1  9  2 -1</clus>
<clus scale="   80.459">  5  6 -1 -1</clus>
<clus scale="   90.825">  7  8 -1 -1</clus>
<clus scale="  109.360">  1 10  2 -1</clus>
<clus scale="  170.326">  2  5  1 -1</clus>
<clus scale="   36.576">  1  5  2 -1</clus>
</clustering>
</event>
<event>
10    4  0.2977685E-005  0.9018102E+02  0.7546771E-02  0.1306660E+00
         21   -1    0    0  503  502  0.00000000000E+00  0.00000000000E+00  0.16969873580E+03  0.16969873580E+03  0.00000000000E+00 0. -1.
         -1   -1    0    0    0  501 -0.00000000000E+00 -0.00000000000E+00 -0.10952813517E+03  0.10952813517E+03  0.00000000000E+00 0.  1.
         23    2    1    2    0    0  0.14802015732E+02  0.39669613180E+02 -0.25696529177E+02  0.10126157315E+03  0.88322232222E+02 0.  0.
         24    2    1    2    0    0 -0.20487049720E+02  0.95283569516E+01  0.59007792614E+02  0.10306467241E+03  0.81424187543E+02 0.  0.
        -13    1    4    4    0    0  0.31202376430E+02  0.55233051989E+01  0.30104286154E+02  0.43707702296E+02  0.00000000000E+00 0.  1.
         14    1    4    4    0    0 -0.51689426150E+02  0.40050517527E+01  0.28903506460E+02  0.59356970112E+02  0.00000000000E+00 0. -1.
        -11    1    3    3    0    0  0.27803876619E+02 -0.21587041669E+02 -0.67973071160E+01  0.35850513345E+02  0.00000000000E+00 0.  1.
         11    1    3    3    0    0 -0.13001860887E+02  0.61256654849E+02 -0.18899222061E+02  0.65411059801E+02  0.00000000000E+00 0. -1.
         21    1    1    2  503  501 -0.21174618585E+02 -0.20205089864E+02  0.48623550400E+01  0.29669051639E+02  0.00000000000E+00 0. -1.
         -2    1    1    2    0  502  0.26859652572E+02 -0.28992880268E+02  0.21996982148E+02  0.45231573775E+02  0.00000000000E+00 0.  1.
<scales pt_clust_5="13000.00000" pt_clust_6="13000.00000" pt_clust_7="13000.00000" pt_clust_8="13000.00000" pt_clust_9="29.26790" pt_clust_10="39.72864"></scales>
<clustering>
<clus scale="   29.268">  2  9  1 -1</clus>
<clus scale="   39.729">  1 10  2 -1</clus>
<clus scale="   81.424">  5  6 -1 -1</clus>
<clus scale="   83.437">  1  5  2 -1</clus>
<clus scale="   88.322">  7  8 -1 -1</clus>
<clus scale="   39.729">  1  5  2 -1</clus>
</clustering>
</event>
<event>
10    4  0.2977685E-005  0.1380567E+03  0.7546771E-02  0.1216673E+00
         21   -1    0    0  501  502  0.00000000000E+00  0.00000000000E+00  0.13112204174E+03  0.13112204174E+03  0.00000000000E+00 0. -1.
          4   -1    0    0  503    0 -0.00000000000E+00 -0.00000000000E+00 -0.56094668359E+03  0.56094668359E+03  0.00000000000E+00 0. -1.
         23    2    1    2    0    0  0.83951201642E+02  0.12503004892E+02 -0.84301826050E+02  0.14692578494E+03  0.85300990705E+02 0.  0.
         24    2    1    2    0    0 -0.13656747413E+03  0.22379602238E+02 -0.42315715205E+02  0.16631113999E+03  0.81958855187E+02 0.  0.
        -11    1    4    4    0    0 -0.50749374958E+02  0.73456334878E+01  0.24196003082E+02  0.56700123061E+02  0.00000000000E+00 0.  1.
         12    1    4    4    0    0 -0.85818099172E+02  0.15033968750E+02 -0.66511718287E+02  0.10961101693E+03  0.00000000000E+00 0. -1.
        -13    1    3    3    0    0  0.68715983621E+02  0.26707038997E+02 -0.15894337546E+02  0.75417387272E+02  0.00000000000E+00 0.  1.
         13    1    3    3    0    0  0.15235218021E+02 -0.14204034105E+02 -0.68407488504E+02  0.71508397664E+02  0.00000000000E+00 0. -1.
         21    1    1    2  503  502  0.29734426599E+02 -0.12722316761E+03 -0.15499549108E+03  0.20271525043E+03  0.00000000000E+00 0. -1.
          3    1    1    2  501    0  0.22881845890E+02  0.92340560483E+02 -0.14821160951E+03  0.17611654998E+03  0.00000000000E+00 0. -1.
<scales pt_clust_5="13000.00000" pt_clust_6="13000.00000" pt_clust_7="13000.00000" pt_clust_8="13000.00000" pt_clust_9="113.74402" pt_clust_10="95.13342"></scales>
<clustering>
<clus scale="   81.959">  5  6 -1 -1</clus>
<clus scale="   85.301">  7  8 -1 -1</clus>
<clus scale="   95.133">  1 10  2 -1</clus>
<clus scale="  113.744">  2  9  1 -1</clus>
<clus scale="  136.017">  1  5  2 -1</clus>
<clus scale="   95.133">  1  5  2 -1</clus>
</clustering>
</event>
<event>
10    4  0.2977685E-005  0.2868842E+03  0.7546771E-02  0.1095845E+00
          2   -1    0    0  503    0 -0.00000000000E+00  0.00000000000E+00  0.22145167686E+03  0.22145167686E+03  0.00000000000E+00 0. -1.
         21   -1    0    0  501  502  0.00000000000E+00 -0.00000000000E+00 -0.26759334099E+04  0.26759334099E+04  0.00000000000E+00 0. -1.
         23    2    1    2    0    0  0.19394488544E+03  0.81444211992E+02  0.13069939918E+02  0.22964526358E+03  0.91204964221E+02 0.  0.
         24    2    1    2    0    0 -0.21062726620E+03  0.20347601822E+03 -0.11271908103E+04  0.11673099353E+04  0.79290775157E+02 0.  0.
        -13    1    4    4    0    0 -0.24930512688E+02  0.49753535492E+02 -0.32319568584E+03  0.32795181979E+03  0.00000000000E+00 0.  1.
         14    1    4    4    0    0 -0.18569675351E+03  0.15372248273E+03 -0.80399512445E+03  0.83935811553E+03  0.00000000000E+00 0. -1.
        -13    1    3    3    0    0  0.13564857106E+03  0.97556499659E+02  0.21924807661E+02  0.16851855282E+03  0.00000000000E+00 0. -1.
         13    1    3    3    0    0  0.58296314388E+02 -0.16112287666E+02 -0.88548677431E+01  0.61126710756E+02  0.00000000000E+00 0.  1.
         21    1    1    2  503  502  0.34639831505E+02  0.26197935182E+02  0.55347510792E+02  0.70353370107E+02  0.00000000000E+00 0. -1.
          1    1    1    2  501    0 -0.17957450750E+02 -0.31111816539E+03 -0.13957083735E+04  0.14300765178E+04  0.00000000000E+00 0. -1.
<scales pt_clust_5="13000.00000" pt_clust_6="13000.00000" pt_clust_7="13000.00000" pt_clust_8="13000.00000" pt_clust_9="43.43098" pt_clust_10="275.70912"></scales>
<clustering>
<clus scale="   43.431">  1  9  2 -1</clus>
<clus scale="   79.291">  5  6 -1 -1</clus>
<clus scale="   91.205">  7  8 -1 -1</clus>
<clus scale="  259.262">  1  7  2 -1</clus>
<clus scale="  275.709">  2 10  1 -1</clus>
<clus scale="  275.709">  2  5  1 -1</clus>
</clustering>
</event>
<event>
10    4  0.2977685E-005  0.1183071E+03  0.7546771E-02  0.1251138E+00
         21   -1    0    0  501  502  0.00000000000E+00  0.00000000000E+00  0.62028107341E+02  0.62028107341E+02  0.00000000000E+00 0.  1.
          2   -1    0    0  503    0 -0.00000000000E+00 -0.00000000000E+00 -0.54430100856E+03  0.54430100856E+03  0.00000000000E+00 0. -1.
         23    2    1    2    0    0 -0.15436214493E+02  0.70113640672E+02 -0.18960175961E+03  0.22330863414E+03  0.93614739808E+02 0.  0.
         24    2    1    2    0    0  0.34139894552E+02 -0.51073038018E+02 -0.23998212882E+02  0.10233260346E+03  0.78243593334E+02 0.  0.
        -13    1    4    4    0    0 -0.16067505765E+02 -0.45743880184E+02 -0.16910295549E+02  0.51348080892E+02  0.00000000000E+00 0.  1.
         14    1    4    4    0    0  0.50207400317E+02 -0.53291578342E+01 -0.70879173339E+01  0.50984522572E+02  0.00000000000E+00 0. -1.
        -11    1    3    3    0    0  0.23446119397E+02  0.74273837845E+02 -0.13929222136E+03  0.15958899221E+03  0.00000000000E+00 0.  1.
         11    1    3    3    0    0 -0.38882333890E+02 -0.41601971723E+01 -0.50309538250E+02  0.63719641934E+02  0.00000000000E+00 0. -1.
         21    1    1    2  503  502  0.13289036041E+02  0.23836741771E+02 -0.10528939202E+03  0.10876876761E+03  0.00000000000E+00 0. -1.
          1    1    1    2  501    0 -0.31992716100E+02 -0.42877344426E+02 -0.16338353671E+03  0.17191911068E+03  0.00000000000E+00 0. -1.
<scales pt_clust_5="13000.00000" pt_clust_6="13000.00000" pt_clust_7="13000.00000" pt_clust_8="13000.00000" pt_clust_9="27.29082" pt_clust_10="43.14808"></scales>
<clustering>
<clus scale="   27.291">  2  9  1 -1</clus>
<clus scale="   43.148">  1 10  2 -1</clus>
<clus scale="   78.244">  5  6 -1 -1</clus>
<clus scale="   93.615">  7  8 -1 -1</clus>
<clus scale="  106.559">  1  5  2 -1</clus>
<clus scale="   43.148">  1  5  2 -1</clus>
</clustering>
</event>
<event>
10    4  0.2977685E-005  0.1102169E+03  0.7546771E-02  0.1266602E+00
          2   -1    0    0  503    0 -0.00000000000E+00  0.00000000000E+00  0.54028584080E+03  0.54028584080E+03  0.00000000000E+00 0. -1.
         21   -1    0    0  501  502  0.00000000000E+00 -0.00000000000E+00 -0.73578402879E+02  0.73578402879E+02  0.00000000000E+00 0.  1.
         23    2    1    2    0    0 -0.32448321159E+02  0.20842371263E+02  0.41839189767E+02  0.11060009277E+03  0.94839679110E+02 0.  0.
         24    2    1    2    0    0  0.78534212916E+02  0.32785122195E+02  0.64331278101E+02  0.13294527555E+03  0.79331242992E+02 0.  0.
        -13    1    4    4    0    0  0.42857014849E+02 -0.24113617213E+02  0.26335281887E+02  0.55782948371E+02  0.00000000000E+00 0.  1.
         14    1    4    4    0    0  0.35677198067E+02  0.56898739408E+02  0.37995996215E+02  0.77162327184E+02  0.00000000000E+00 0. -1.
        -11    1    3    3    0    0 -0.44292508383E+01 -0.34516579721E+02  0.32943951301E+02  0.47919896348E+02  0.00000000000E+00 0. -1.
         11    1    3    3    0    0 -0.28019070321E+02  0.55358950984E+02  0.88952384656E+01  0.62680196419E+02  0.00000000000E+00 0.  1.
         21    1    1    2  503  502 -0.21172663183E+02 -0.28075222093E+01  0.45821750996E+02  0.50554888108E+02  0.00000000000E+00 0. -1.
          1    1    1    2  501    0 -0.24913228573E+02 -0.50819971248E+02  0.31471521906E+03  0.31976398725E+03  0.00000000000E+00 0. -1.
<scales pt_clust_5="13000.00000" pt_clust_6="13000.00000" pt_clust_7="13000.00000" pt_clust_8="13000.00000" pt_clust_9="21.35799" pt_clust_10="65.24555"></scales>
<clustering>
<clus scale="   21.358">  1  9  2 -1</clus>
<clus scale="   65.246">  2 10  1 -1</clus>
<clus scale="   79.331">  5  6 -1 -1</clus>
<clus scale="   94.840">  7  8 -1 -1</clus>
<clus scale="   97.194">  2  5  1 -1</clus>
<clus scale="   65.246">  2  5  1 -1</clus>
</clustering>
</event>
<event>
10    4  0.2977685E-005  0.3436062E+03  0.7546771E-02  0.1065552E+00
         21   -1    0    0  501  502  0.00000000000E+00  0.00000000000E+00  0.16232775863E+03  0.16232775863E+03  0.00000000000E+00 0.  1.
          2   -1    0    0  503    0 -0.00000000000E+00 -0.00000000000E+00 -0.22380049628E+04  0.22380049628E+04  0.00000000000E+00 0. -1.
         24    2    1    2    0    0 -0.22045408782E+03  0.41370512486E+03 -0.13334503831E+04  0.14158984992E+04  0.83226802527E+02 0.  0.
         23    2    1    2    0    0  0.14629088949E+03 -0.22197102434E+03 -0.96654692008E+02  0.29174585925E+03  0.71423783916E+02 0.  0.
        -13    1    3    3    0    0 -0.16188803067E+02  0.45432368989E+02 -0.78084185381E+02  0.91778633152E+02  0.00000000000E+00 0.  1.
         14    1    3    3    0    0 -0.20426528476E+03  0.36827275587E+03 -0.12553661977E+04  0.13241198660E+04  0.00000000000E+00 0. -1.
        -13    1    4    4    0    0  0.22129652204E+02 -0.48006929735E+02  0.85158551191E+01  0.53543501918E+02  0.00000000000E+00 0.  1.
         13    1    4    4    0    0  0.12416123729E+03 -0.17396409460E+03 -0.10517054713E+03  0.23820235733E+03  0.00000000000E+00 0. -1.
         21    1    1    2  503  502  0.57667741687E+02 -0.13162583190E+03 -0.59591033848E+03  0.61299270759E+03  0.00000000000E+00 0.  1.
          1    1    1    2  501    0  0.16495456643E+02 -0.60108268621E+02 -0.49661790621E+02  0.79695655428E+02  0.00000000000E+00 0. -1.
<scales pt_clust_5="13000.00000" pt_clust_6="13000.00000" pt_clust_7="13000.00000" pt_clust_8="13000.00000" pt_clust_9="147.28123" pt_clust_10="62.33060"></scales>
<clustering>
<clus scale="   62.331">  1 10  2 -1</clus>
<clus scale="   71.424">  7  8 -1 -1</clus>
<clus scale="   83.227">  5  6 -1 -1</clus>
<clus scale="  147.281">  2  9  1 -1</clus>
<clus scale="  340.940">  1  7  2 -1</clus>
<clus scale="   62.331">  1  5  2 -1</clus>
</clustering>
</event>
<event>
10    4  0.2977685E-005  0.1031133E+03  0.7546771E-02  0.1280157E+00
         21   -1    0    0  501  502  0.00000000000E+00  0.00000000000E+00  0.48688001152E+02  0.48688001152E+02  0.00000000000E+00 0. -1.
          2   -1    0    0  503    0 -0.00000000000E+00 -0.00000000000E+00 -0.48619495536E+03  0.48619495536E+03  0.00000000000E+00 0. -1.
         24    2    1    2    0    0  0.17861936219E+02  0.29191367940E+02 -0.27512595657E+03  0.28825845962E+03  0.78914275238E+02 0.  0.
         23    2    1    2    0    0 -0.54681499825E+02 -0.13003358567E+02 -0.48684099738E+02  0.11842842068E+03  0.92173724564E+02 0.  0.
        -11    1    3    3    0    0  0.69669262482E+01  0.26031450534E+02 -0.21753543767E+02  0.34632226967E+02  0.00000000000E+00 0.  1.
         12    1    3    3    0    0  0.10895009971E+02  0.31599174059E+01 -0.25337241280E+03  0.25362623265E+03  0.00000000000E+00 0. -1.
        -13    1    4    4    0    0 -0.25585836872E+02  0.37941002853E+01  0.25914203647E+02  0.36613879829E+02  0.00000000000E+00 0. -1.
         13    1    4    4    0    0 -0.29095662953E+02 -0.16797458852E+02 -0.74598303386E+02  0.81814540850E+02  0.00000000000E+00 0.  1.
         21    1    1    2  503  502  0.15446824942E+02  0.13621520687E+02 -0.57605419530E+02  0.61176258351E+02  0.00000000000E+00 0.  1.
          1    1    1    2  501    0  0.21372738664E+02 -0.29809530061E+02 -0.56091478369E+02  0.67019817860E+02  0.00000000000E+00 0. -1.
<scales pt_clust_5="13000.00000" pt_clust_6="13000.00000" pt_clust_7="13000.00000" pt_clust_8="13000.00000" pt_clust_9="20.59491" pt_clust_10="36.50109"></scales>
<clustering>
<clus scale="   20.595">  2  9  1 -1</clus>
<clus scale="   36.501">  1 10  2 -1</clus>
<clus scale="   78.914">  5  6 -1 -1</clus>
<clus scale="   91.454">  2  5  1 -1</clus>
<clus scale="   92.174">  7  8 -1 -1</clus>
<clus scale="   36.501">  1  5  2 -1</clus>
</clustering>
</event>
<event>
10    4  0.2977685E-005  0.9662207E+02  0.7546771E-02  0.1295582E+00
         -1   -1    0    0    0  501 -0.00000000000E+00  0.00000000000E+00  0.54816705562E+03  0.54816705562E+03  0.00000000000E+00 0.  1.
         21   -1    0    0  503  502  0.00000000000E+00 -0.00000000000E+00 -0.43872390747E+02  0.43872390747E+02  0.00000000000E+00 0.  1.
         24    2    1    2    0    0  0.99014245868E+00 -0.45340290726E+02  0.23424681260E+03  0.25113246317E+03  0.78353190742E+02 0.  0.
         23    2    1    2    0    0 -0.93700657725E+01  0.26539279564E+01  0.18052817249E+03  0.20308010811E+03  0.92500096127E+02 0.  0.
        -11    1    3    3    0    0 -0.92991152589E+01 -0.51841035541E+02  0.76273224364E+02  0.92690729124E+02  0.00000000000E+00 0.  1.
         12    1    3    3    0    0  0.10289257718E+02  0.65007448144E+01  0.15797358824E+03  0.15844173405E+03  0.00000000000E+00 0. -1.
        -11    1    4    4    0    0 -0.28574313841E+02  0.28100403404E+02  0.32328631844E+02  0.51490431343E+02  0.00000000000E+00 0.  1.
         11    1    4    4    0    0  0.19204248069E+02 -0.25446475447E+02  0.14819954064E+03  0.15158967677E+03  0.00000000000E+00 0. -1.
         21    1    1    2  503  501 -0.15388583399E+02 -0.20110032384E+02  0.58736717849E+02  0.63962676033E+02  0.00000000000E+00 0.  1.
         -2    1    1    2    0  502  0.23768506713E+02  0.62796395154E+02  0.30782961933E+02  0.73864199048E+02  0.00000000000E+00 0.  1.
<scales pt_clust_5="13000.00000" pt_clust_6="13000.00000" pt_clust_7="13000.00000" pt_clust_8="13000.00000" pt_clust_9="25.32236" pt_clust_10="64.54184"></scales>
<clustering>
<clus scale="   25.322">  1  9  2 -1</clus>
<clus scale="   64.542">  2 10  1 -1</clus>
<clus scale="   78.353">  5  6 -1 -1</clus>
<clus scale="   83.179">  1  5  2 -1</clus>
<clus scale="   92.500">  7  8 -1 -1</clus>
<clus scale="   64.542">  2  5  1 -1</clus>
</clustering>
</event>
<event>
10    4  0.2977685E-005  0.1308055E+03  0.7546771E-02  0.1228571E+00
          2   -1    0    0  503    0 -0.00000000000E+00  0.00000000000E+00  0.63004472917E+03  0.63004472917E+03  0.00000000000E+00 0. -1.
         21   -1    0    0  501  502  0.00000000000E+00 -0.00000000000E+00 -0.64757507774E+02  0.64757507774E+02  0.00000000000E+00 0. -1.
         24    2    1    2    0    0  0.29641205539E+01 -0.10137928054E+03  0.35109580108E+03  0.37436186272E+03  0.81191121395E+02 0.  0.
         23    2    1    2    0    0 -0.37809965259E+02  0.49915617315E+02  0.60623977644E+02  0.12549307123E+03  0.90288880469E+02 0.  0.
        -11    1    3    3    0    0 -0.25422438069E+02 -0.22848940424E+02  0.41821979337E+02  0.54013446396E+02  0.00000000000E+00 0.  1.
         12    1    3    3    0    0  0.28386558623E+02 -0.78530340113E+02  0.30927382174E+03  0.32034841633E+03  0.00000000000E+00 0. -1.
        -13    1    4    4    0    0  0.16804934005E+02  0.16185475742E+02  0.56548332438E+02  0.61172619148E+02  0.00000000000E+00 0.  1.
         13    1    4    4    0    0 -0.54614899263E+02  0.33730141573E+02  0.40756452058E+01  0.64320452081E+02  0.00000000000E+00 0. -1.
         21    1    1    2  503  502  0.17664549143E+02 -0.16461612523E+02  0.10960359991E+03  0.11223176955E+03  0.00000000000E+00 0. -1.
          1    1    1    2  501    0  0.17181295562E+02  0.67925275746E+02  0.43963842768E+02  0.82715533446E+02  0.00000000000E+00 0. -1.
<scales pt_clust_5="13000.00000" pt_clust_6="13000.00000" pt_clust_7="13000.00000" pt_clust_8="13000.00000" pt_clust_9="24.14583" pt_clust_10="68.69442"></scales>
<clustering>
<clus scale="   24.146">  1  9  2 -1</clus>
<clus scale="   68.694">  2 10  1 -1</clus>
<clus scale="   81.191">  5  6 -1 -1</clus>
<clus scale="   90.289">  7  8 -1 -1</clus>
<clus scale="  124.700">  1  5  2 -1</clus>
<clus scale="   68.694">  2  5  1 -1</clus>
</clustering>
</event>
<event>
10    4  0.2977685E-005  0.8730281E+02  0.7546771E-02  0.1311195E+00
          4   -1    0    0  503    0 -0.00000000000E+00  0.00000000000E+00  0.10318030862E+03  0.10318030862E+03  0.00000000000E+00 0. -1.
         21   -1    0    0  501  502  0.00000000000E+00 -0.00000000000E+00 -0.43425133464E+03  0.43425133464E+03  0.00000000000E+00 0.  1.
         23    2    1    2    0    0  0.97118755463E+01  0.21565390340E+02  0.54443001181E+02  0.10478750921E+03  0.86353894648E+02 0.  0.
         24    2    1    2    0    0  0.25618259591E+02 -0.60987537140E+01 -0.25424704404E+03  0.26896481132E+03  0.83707946483E+02 0.  0.
        -11    1    4    4    0    0  0.67922315520E+01  0.25911905733E+02 -0.24712103726E+02  0.36445155216E+02  0.00000000000E+00 0.  1.
         12    1    4    4    0    0  0.18826028039E+02 -0.32010659447E+02 -0.22953494031E+03  0.23251965610E+03  0.00000000000E+00 0. -1.
        -11    1    3    3    0    0  0.17544021858E+02 -0.28668592968E+02  0.52038774515E+01  0.34011193249E+02  0.00000000000E+00 0.  1.
         11    1    3    3    0    0 -0.78321463120E+01  0.50233983308E+02  0.49239123729E+02  0.70776315957E+02  0.00000000000E+00 0. -1.
         21    1    1    2  503  502 -0.19515509407E+02 -0.35652093199E+02 -0.13011916266E+02  0.42675951329E+02  0.00000000000E+00 0. -1.
          3    1    1    2  501    0 -0.15814625730E+02  0.20185456573E+02 -0.11825506690E+03  0.12100337140E+03  0.00000000000E+00 0. -1.
<scales pt_clust_5="13000.00000" pt_clust_6="13000.00000" pt_clust_7="13000.00000" pt_clust_8="13000.00000" pt_clust_9="39.80359" pt_clust_10="25.64284"></scales>
<clustering>
<clus scale="   25.643">  2 10  1 -1</clus>
<clus scale="   39.804">  1  9  2 -1</clus>
<clus scale="   83.708">  5  6 -1 -1</clus>
<clus scale="   84.687">  2  5  1 -1</clus>
<clus scale="   86.354">  7  8 -1 -1</clus>
<clus scale="   25.643">  2  5  1 -1</clus>
</clustering>
</event>
<event>
10    4  0.2977685E-005  0.2886607E+03  0.7546771E-02  0.1129696E+00
         -1   -1    0    0    0  501 -0.00000000000E+00  0.00000000000E+00  0.11569924967E+04  0.11569924967E+04  0.00000000000E+00 0.  1.
         21   -1    0    0  503  502  0.00000000000E+00 -0.00000000000E+00 -0.16656440694E+03  0.16656440694E+03  0.00000000000E+00 0. -1.
         24    2    1    2    0    0  0.82042137734E+02 -0.74519563743E+01  0.11165707250E+03  0.15936046953E+03  0.78370998414E+02 0.  0.
         23    2    1    2    0    0  0.22133827018E+03  0.18296662232E+03  0.26178453311E+03  0.39962856199E+03  0.93297540444E+02 0.  0.
        -11    1    3    3    0    0  0.22679955293E+02 -0.15163766471E+02  0.92605809131E+02  0.96540955405E+02  0.00000000000E+00 0.  1.
         12    1    3    3    0    0  0.59362182441E+02  0.77118100963E+01  0.19051263367E+02  0.62819514126E+02  0.00000000000E+00 0. -1.
        -11    1    4    4    0    0  0.21102557401E+02  0.41267003752E+02  0.86737684200E+01  0.47154191608E+02  0.00000000000E+00 0.  1.
         11    1    4    4    0    0  0.20023571278E+03  0.14169961857E+03  0.25311076469E+03  0.35247437038E+03  0.00000000000E+00 0. -1.
         21    1    1    2  503  501 -0.57722022119E+02 -0.70382928626E+02  0.42727169819E+03  0.43686003771E+03  0.00000000000E+00 0.  1.
         -2    1    1    2    0  502 -0.24565838580E+03 -0.10513173732E+03  0.18971478592E+03  0.32770783436E+03  0.00000000000E+00 0.  1.
<scales pt_clust_5="13000.00000" pt_clust_6="13000.00000" pt_clust_7="13000.00000" pt_clust_8="13000.00000" pt_clust_9="91.02521" pt_clust_10="273.16764"></scales>
<clustering>
<clus scale="   78.371">  5  6 -1 -1</clus>
<clus scale="   91.025">  1  9  2 -1</clus>
<clus scale="   93.298">  7  8 -1 -1</clus>
<clus scale="  107.906">  1  5  2 -1</clus>
<clus scale="  273.168">  2 10  1 -1</clus>
<clus scale="  273.168">  2  5  1 -1</clus>
</clustering>
</event>
<event>
10    4  0.2977685E-005  0.1373414E+03  0.7546771E-02  0.1218839E+00
          2   -1    0    0  503    0 -0.00000000000E+00  0.00000000000E+00  0.15114349234E+03  0.15114349234E+03  0.00000000000E+00 0. -1.
         21   -1    0    0  501  502  0.00000000000E+00 -0.00000000000E+00 -0.39392466065E+03  0.39392466065E+03  0.00000000000E+00 0.  1.
         23    2    1    2    0    0 -0.21100969378E+02  0.12032186535E+03  0.33940096722E+02  0.15583209512E+03  0.90604136304E+02 0.  0.
         24    2    1    2    0    0 -0.30981685996E+02 -0.10946669612E+03 -0.28322931293E+03  0.31611502873E+03  0.82262052360E+02 0.  0.
        -11    1    4    4    0    0  0.57900952356E+00 -0.94189933022E+02 -0.14057075962E+03  0.16921057058E+03  0.00000000000E+00 0.  1.
         12    1    4    4    0    0 -0.31560695520E+02 -0.15276763101E+02 -0.14265855331E+03  0.14690445816E+03  0.00000000000E+00 0. -1.
        -13    1    3    3    0    0  0.28905519035E+02  0.83487804206E+02  0.31083246526E+02  0.93658479042E+02  0.00000000000E+00 0. -1.
         13    1    3    3    0    0 -0.50006488413E+02  0.36834061142E+02  0.28568501952E+01  0.62173616081E+02  0.00000000000E+00 0.  1.
         21    1    1    2  503  502  0.16413816117E+02 -0.25269000398E+02  0.15097564709E+02  0.33702703167E+02  0.00000000000E+00 0.  1.
          1    1    1    2  501    0  0.35668839258E+02  0.14413831173E+02 -0.85895168040E+01  0.39418325967E+02  0.00000000000E+00 0. -1.
<scales pt_clust_5="13000.00000" pt_clust_6="13000.00000" pt_clust_7="13000.00000" pt_clust_8="13000.00000" pt_clust_9="30.13197" pt_clust_10="39.33534"></scales>
<clustering>
<clus scale="   30.132">  1  9  2 -1</clus>
<clus scale="   39.335">  2 10  1 -1</clus>
<clus scale="   82.262">  5  6 -1 -1</clus>
<clus scale="   90.604">  7  8 -1 -1</clus>
<clus scale="  131.987">  2  5  1 -1</clus>
<clus scale="   39.335">  2  5  1 -1</clus>
</clustering>
</event>
<event>
10    4  0.2977685E-005  0.1275132E+03  0.7546771E-02  0.1235313E+00
         21   -1    0    0  503  502  0.00000000000E+00  0.00000000000E+00  0.67568221396E+03  0.67568221396E+03  0.00000000000E+00 0. -1.
         -3   -1    0    0    0  501 -0.00000000000E+00 -0.00000000000E+00 -0.11272295144E+03  0.11272295144E+03  0.00000000000E+00 0.  1.
         24    2    1    2    0    0  0.49803289698E+02  0.57188998835E+02  0.23203151561E+01  0.11058247460E+03  0.80449677273E+02 0.  0.
         23    2    1    2    0    0 -0.72320984440E+02 -0.58228133134E+02  0.58128987151E+03  0.59625666309E+03  0.94885474526E+02 0.  0.
        -13    1    3    3    0    0  0.51843796617E+02  0.75703589522E+02  0.42741675509E+01  0.91853585790E+02  0.00000000000E+00 0.  1.
         14    1    3    3    0    0 -0.20405069194E+01 -0.18514590687E+02 -0.19538523948E+01  0.18728888808E+02  0.00000000000E+00 0. -1.
        -11    1    4    4    0    0 -0.86108682835E+02 -0.15261733660E+02  0.39792105143E+03  0.40741721729E+03  0.00000000000E+00 0. -1.
         11    1    4    4    0    0  0.13787698395E+02 -0.42966399474E+02  0.18336882009E+03  0.18883944580E+03  0.00000000000E+00 0.  1.
         21    1    1    2  503  501 -0.14414191384E+02  0.29107424119E+02 -0.97875083522E+01  0.33923537136E+02  0.00000000000E+00 0. -1.
         -4    1    1    2    0  502  0.36931886126E+02 -0.28068289820E+02 -0.10863415795E+02  0.47642490583E+02  0.00000000000E+00 0.  1.
<scales pt_clust_5="13000.00000" pt_clust_6="13000.00000" pt_clust_7="13000.00000" pt_clust_8="13000.00000" pt_clust_9="32.48093" pt_clust_10="37.31420"></scales>
<clustering>
<clus scale="   32.481">  2  9  1 -1</clus>
<clus scale="   37.314">  1 10  2 -1</clus>
<clus scale="   80.450">  5  6 -1 -1</clus>
<clus scale="   94.885">  7  8 -1 -1</clus>
<clus scale="  117.169">  2  5  1 -1</clus>
<clus scale="   37.314">  1  5  2 -1</clus>
</clustering>
</event>
<event>
10    4  0.2977685E-005  0.1113430E+03  0.7546771E-02  0.1265058E+00
         21   -1    0    0  501  502  0.00000000000E+00  0.00000000000E+00  0.41124698528E+02  0.41124698528E+02  0.00000000000E+00 0. -1.
          2   -1    0    0  503    0 -0.00000000000E+00 -0.00000000000E+00 -0.96051727130E+03  0.96051727130E+03  0.00000000000E+00 0. -1.
         23    2    1    2    0    0 -0.96608281035E+02  0.19141201762E+02 -0.48545806648E+03  0.50373758598E+03  0.91555860791E+02 0.  0.
         24    2    1    2    0    0  0.46096789716E+02 -0.26714830857E+02 -0.13060713898E+03  0.15912399606E+03  0.73645265713E+02 0.  0.
        -13    1    4    4    0    0 -0.46585869800E+01 -0.31496097898E+02 -0.20720242406E+02  0.37987301310E+02  0.00000000000E+00 0.  1.
         14    1    4    4    0    0  0.50755376696E+02  0.47812670410E+01 -0.10988689657E+03  0.12113669475E+03  0.00000000000E+00 0. -1.
        -13    1    3    3    0    0 -0.20709139891E+02 -0.16890451127E+02 -0.28301702987E+02  0.38924827633E+02  0.00000000000E+00 0.  1.
         13    1    3    3    0    0 -0.75899141143E+02  0.36031652889E+02 -0.45715636349E+03  0.46481275834E+03  0.00000000000E+00 0. -1.
         21    1    1    2  503  502  0.62247707454E+02  0.31332397254E+02 -0.30438424089E+03  0.31225992747E+03  0.00000000000E+00 0.  1.
          1    1    1    2  501    0 -0.11736216136E+02 -0.23758768160E+02  0.10568735752E+01  0.26520460317E+02  0.00000000000E+00 0. -1.
<scales pt_clust_5="13000.00000" pt_clust_6="13000.00000" pt_clust_7="13000.00000" pt_clust_8="13000.00000" pt_clust_9="66.67923" pt_clust_10="26.49939"></scales>
<clustering>
<clus scale="   26.499">  1 10  2 -1</clus>
<clus scale="   66.679">  2  9  1 -1</clus>
<clus scale="   73.645">  5  6 -1 -1</clus>
<clus scale="   91.556">  7  8 -1 -1</clus>
<clus scale="   97.152">  1  5  2 -1</clus>
<clus scale="   26.499">  1  5  2 -1</clus>
</clustering>
</event>
<event>
10    4  0.2977685E-005  0.1611924E+03  0.7546771E-02  0.1190001E+00
         21   -1    0    0  501  502  0.00000000000E+00  0.00000000000E+00  0.11555317245E+03  0.11555317245E+03  0.00000000000E+00 0. -1.
          2   -1    0    0  503    0 -0.00000000000E+00 -0.00000000000E+00 -0.65806261548E+03  0.65806261548E+03  0.00000000000E+00 0. -1.
         24    2    1    2    0    0 -0.12870225715E+03 -0.14313210676E+02 -0.28929436989E+03  0.32718037305E+03  0.81158025258E+02 0.  0.
         23    2    1    2    0    0  0.18196397679E+03  0.12329275281E+02 -0.50546747622E+02  0.21278088381E+03  0.97251380158E+02 0.  0.
        -11    1    3    3    0    0 -0.53125668859E+02 -0.23962045091E+02 -0.20693078213E+03  0.21498108031E+03  0.00000000000E+00 0.  1.
         12    1    3    3    0    0 -0.75576588293E+02  0.96488344155E+01 -0.82363587758E+02  0.11219929274E+03  0.00000000000E+00 0. -1.
        -13    1    4    4    0    0  0.16407027700E+03 -0.23555920944E+02 -0.48175768633E+02  0.17261182431E+03  0.00000000000E+00 0. -1.
         13    1    4    4    0    0  0.17893699787E+02  0.35885196225E+02 -0.23709789892E+01  0.40169059505E+02  0.00000000000E+00 0.  1.
         21    1    1    2  503  502  0.23547355750E+02 -0.41641899598E+01 -0.11265397153E+03  0.11516395157E+03  0.00000000000E+00 0.  1.
          1    1    1    2  501    0 -0.76809075387E+02  0.61481253542E+01 -0.90014353989E+02  0.11849057950E+03  0.00000000000E+00 0. -1.
<scales pt_clust_5="13000.00000" pt_clust_6="13000.00000" pt_clust_7="13000.00000" pt_clust_8="13000.00000" pt_clust_9="23.91273" pt_clust_10="72.49546"></scales>
<clustering>
<clus scale="   23.913">  2  9  1 -1</clus>
<clus scale="   72.495">  1 10  2 -1</clus>
<clus scale="   81.158">  5  6 -1 -1</clus>
<clus scale="   97.251">  7  8 -1 -1</clus>
<clus scale="  152.026">  2  5  1 -1</clus>
<clus scale="   72.495">  1  5  2 -1</clus>
</clustering>
</event>
<event>
10    4  0.2977685E-005  0.1029227E+03  0.7546771E-02  0.1279652E+00
         21   -1    0    0  501  502  0.00000000000E+00  0.00000000000E+00  0.63094046486E+02  0.63094046486E+02  0.00000000000E+00 0. -1.
          4   -1    0    0  503    0 -0.00000000000E+00 -0.00000000000E+00 -0.38558762491E+03  0.38558762491E+03  0.00000000000E+00 0. -1.
         24    2    1    2    0    0  0.95098271407E+01 -0.39679509165E+02 -0.94597684290E+02  0.13035353858E+03  0.79865029183E+02 0.  0.
         23    2    1    2    0    0 -0.21537158434E+02  0.41375796799E+02 -0.25021679058E+02  0.10560332890E+03  0.91379280460E+02 0.  0.
        -13    1    3    3    0    0  0.36663155893E+02 -0.41738322672E+02 -0.37301561794E+02  0.66915477222E+02  0.00000000000E+00 0.  1.
         14    1    3    3    0    0 -0.27153328752E+02  0.20588135078E+01 -0.57296122496E+02  0.63438061354E+02  0.00000000000E+00 0. -1.
        -11    1    4    4    0    0  0.19973625636E+02  0.52900157855E+02 -0.26608994198E+02  0.62493287595E+02  0.00000000000E+00 0.  1.
         11    1    4    4    0    0 -0.41510784070E+02 -0.11524361056E+02  0.15873151399E+01  0.43110041304E+02  0.00000000000E+00 0. -1.
         21    1    1    2  503  502  0.20997259989E+02 -0.24988563712E+02 -0.66416403055E+02  0.74003052898E+02  0.00000000000E+00 0. -1.
          3    1    1    2  501    0 -0.89699286955E+01  0.23292276078E+02 -0.13645781202E+03  0.13872175102E+03  0.00000000000E+00 0. -1.
<scales pt_clust_5="13000.00000" pt_clust_6="13000.00000" pt_clust_7="13000.00000" pt_clust_8="13000.00000" pt_clust_9="31.19811" pt_clust_10="24.95978"></scales>
<clustering>
<clus scale="   24.960">  1 10  2 -1</clus>
<clus scale="   31.198">  2  9  1 -1</clus>
<clus scale="   79.865">  5  6 -1 -1</clus>
<clus scale="   91.379">  7  8 -1 -1</clus>
<clus scale="   92.851">  2  5  1 -1</clus>
<clus scale="   24.960">  1  5  2 -1</clus>
</clustering>
</event>
<event>
10    4  0.2977685E-005  0.1166196E+03  0.7546771E-02  0.1250592E+00
         21   -1    0    0  503  502  0.00000000000E+00  0.00000000000E+00  0.79252625009E+02  0.79252625009E+02  0.00000000000E+00 0.  1.
         -1   -1    0    0    0  501 -0.00000000000E+00 -0.00000000000E+00 -0.59698806076E+03  0.59698806076E+03  0.00000000000E+00 0.  1.
         23    2    1    2    0    0 -0.60220624203E+02  0.74701478269E+02 -0.80870191351E+02  0.15386091662E+03  0.89030103782E+02 0.  0.
         24    2    1    2    0    0  0.78822392012E+01 -0.63928922558E+02 -0.64221754686E+02  0.12348804412E+03  0.83521413006E+02 0.  0.
        -13    1    4    4    0    0  0.45659487465E+02 -0.40158694932E+02 -0.38579461351E+02  0.72013085008E+02  0.00000000000E+00 0.  1.
         14    1    4    4    0    0 -0.37777248264E+02 -0.23770227626E+02 -0.25642293335E+02  0.51474959109E+02  0.00000000000E+00 0. -1.
        -11    1    3    3    0    0 -0.82212039273E+02  0.53355987610E+02 -0.48742815122E+02  0.10946023406E+03  0.00000000000E+00 0.  1.
         11    1    3    3    0    0  0.21991415070E+02  0.21345490659E+02 -0.32127376229E+02  0.44400682558E+02  0.00000000000E+00 0. -1.
         21    1    1    2  503  501  0.55633402431E+01 -0.50992760658E+02 -0.29645378661E+03  0.30085887055E+03  0.00000000000E+00 0. -1.
         -2    1    1    2    0  502  0.46775044759E+02  0.40220204946E+02 -0.76189703100E+02  0.98032854475E+02  0.00000000000E+00 0.  1.
<scales pt_clust_5="13000.00000" pt_clust_6="13000.00000" pt_clust_7="13000.00000" pt_clust_8="13000.00000" pt_clust_9="51.29534" pt_clust_10="54.62741"></scales>
<clustering>
<clus scale="   51.295">  2  9  1 -1</clus>
<clus scale="   54.627">  1 10  2 -1</clus>
<clus scale="   83.521">  5  6 -1 -1</clus>
<clus scale="   89.030">  7  8 -1 -1</clus>
<clus scale="  112.470">  1  5  2 -1</clus>
<clus scale="   54.627">  1  5  2 -1</clus>
</clustering>
</event>
<event>
10    4  0.2977685E-005  0.9508155E+02  0.7546771E-02  0.1292259E+00
          2   -1    0    0  503    0 -0.00000000000E+00  0.00000000000E+00  0.37084517466E+03  0.37084517466E+03  0.00000000000E+00 0. -1.
         21   -1    0    0  501  502  0.00000000000E+00 -0.00000000000E+00 -0.24060560899E+03  0.24060560899E+03  0.00000000000E+00 0. -1.
         24    2    1    2    0    0  0.15212381892E+02  0.10369457681E+02  0.19898813679E+03  0.21894799811E+03  0.89459516401E+02 0.  0.
         23    2    1    2    0    0 -0.34438505446E+01  0.18581169821E+02 -0.12124828187E+02  0.94471910381E+02  0.91764973786E+02 0.  0.
        -11    1    3    3    0    0 -0.16846715869E+01 -0.38726628083E+02  0.98148654779E+02  0.10552605496E+03  0.00000000000E+00 0.  1.
         12    1    3    3    0    0  0.16897053479E+02  0.49096085764E+02  0.10083948202E+03  0.11342194314E+03  0.00000000000E+00 0. -1.
        -11    1    4    4    0    0  0.22496841935E+02 -0.30651369036E+02 -0.58998811872E+01  0.38476264356E+02  0.00000000000E+00 0. -1.
         11    1    4    4    0    0 -0.25940692479E+02  0.49232538857E+02 -0.62249469996E+01  0.55995646025E+02  0.00000000000E+00 0.  1.
         21    1    1    2  503  502 -0.59212219667E+01  0.29238623937E+02  0.11390807086E+03  0.11774976266E+03  0.00000000000E+00 0. -1.
          1    1    1    2  501    0 -0.58473093808E+01 -0.58189251440E+02 -0.17053181379E+03  0.18028111250E+03  0.00000000000E+00 0. -1.
<scales pt_clust_5="13000.00000" pt_clust_6="13000.00000" pt_clust_7="13000.00000" pt_clust_8="13000.00000" pt_clust_9="29.83216" pt_clust_10="57.93777"></scales>
<clustering>
<clus scale="   29.832">  1  9  2 -1</clus>
<clus scale="   57.938">  2 10  1 -1</clus>
<clus scale="   89.460">  5  6 -1 -1</clus>
<clus scale="   91.765">  7  8 -1 -1</clus>
<clus scale="   92.858">  1  5  2 -1</clus>
<clus scale="   57.938">  2  5  1 -1</clus>
</clustering>
</event>
<event>
10    4  0.2977685E-005  0.1136468E+03  0.7546771E-02  0.1258794E+00
         -3   -1    0    0    0  501 -0.00000000000E+00  0.00000000000E+00  0.62513989579E+03  0.62513989579E+03  0.00000000000E+00 0.  1.
         21   -1    0    0  503  502  0.00000000000E+00 -0.00000000000E+00 -0.71080680911E+02  0.71080680911E+02  0.00000000000E+00 0.  1.
         24    2    1    2    0    0 -0.54653490107E+01 -0.85967300999E+02  0.49071296812E+03  0.50461294425E+03  0.80092194050E+02 0.  0.
         23    2    1    2    0    0  0.17224342816E+02  0.28070074631E+02  0.20299020031E+02  0.10078650994E+03  0.93065908347E+02 0.  0.
        -13    1    3    3    0    0  0.75015946039E+01 -0.94569962675E+02  0.33650241436E+03  0.34961925953E+03  0.00000000000E+00 0.  1.
         14    1    3    3    0    0 -0.12966943615E+02  0.86026616767E+01  0.15421055376E+03  0.15499368473E+03  0.00000000000E+00 0. -1.
        -13    1    4    4    0    0  0.36729467652E+01 -0.21642974840E+02  0.39994942430E+02  0.45623506199E+02  0.00000000000E+00 0.  1.
         13    1    4    4    0    0  0.13551396051E+02  0.49713049471E+02 -0.19695922399E+02  0.55163003742E+02  0.00000000000E+00 0. -1.
         21    1    1    2  503  501 -0.20632341934E+02  0.19802101684E+02  0.43078024343E+02  0.51706217673E+02  0.00000000000E+00 0. -1.
         -4    1    1    2    0  502  0.88733481288E+01  0.38095124684E+02 -0.30797612244E-01  0.39114904834E+02  0.00000000000E+00 0.  1.
<scales pt_clust_5="13000.00000" pt_clust_6="13000.00000" pt_clust_7="13000.00000" pt_clust_8="13000.00000" pt_clust_9="28.59750" pt_clust_10="39.61764"></scales>
<clustering>
<clus scale="   28.597">  1  9  2 -1</clus>
<clus scale="   39.618">  2 10  1 -1</clus>
<clus scale="   80.092">  5  6 -1 -1</clus>
<clus scale="   93.066">  7  8 -1 -1</clus>
<clus scale="  103.291">  1  5  2 -1</clus>
<clus scale="   39.618">  2  5  1 -1</clus>
</clustering>
</event>
<event>
10    4  0.2977685E-005  0.3366249E+03  0.7546771E-02  0.1089606E+00
          2   -1    0    0  502    0 -0.00000000000E+00  0.00000000000E+00  0.23804075373E+04  0.23804075373E+04  0.00000000000E+00 0. -1.
         21   -1    0    0  503  502  0.00000000000E+00 -0.00000000000E+00 -0.12946039525E+03  0.12946039525E+03  0.00000000000E+00 0.  1.
         23    2    1    2    0    0  0.23480995141E+02  0.16270934533E+03  0.11312676469E+03  0.22035117526E+03  0.93441357859E+02 0.  0.
         24    2    1    2    0    0  0.23734262516E+03  0.16581482880E+03  0.41851581760E+03  0.51567496556E+03  0.83301268632E+02 0.  0.
        -11    1    4    4    0    0  0.13847797523E+03  0.14247664498E+03  0.25655267858E+03  0.32449194270E+03  0.00000000000E+00 0.  1.
         12    1    4    4    0    0  0.98864649929E+02  0.23338183821E+02  0.16196313902E+03  0.19118302287E+03  0.00000000000E+00 0. -1.
        -11    1    3    3    0    0  0.29415120582E+02  0.77387319101E+02  0.56293933775E+01  0.82980338311E+02  0.00000000000E+00 0.  1.
         11    1    3    3    0    0 -0.59341254410E+01  0.85322026226E+02  0.10749737131E+03  0.13737083695E+03  0.00000000000E+00 0. -1.
         21    1    1    2  503  501 -0.45116374012E+02 -0.60569953010E+02  0.15842411979E+03  0.17550614844E+03  0.00000000000E+00 0. -1.
          1    1    1    2  501    0 -0.21570724629E+03 -0.26795422112E+03  0.15608804400E+04  0.15983356433E+04  0.00000000000E+00 0. -1.
<scales pt_clust_5="13000.00000" pt_clust_6="13000.00000" pt_clust_7="13000.00000" pt_clust_8="13000.00000" pt_clust_9="56.51960" pt_clust_10="56.51960"></scales>
<clustering>
<clus scale="   56.520">  9 10 -1 -1</clus>
<clus scale="   83.301">  5  6 -1 -1</clus>
<clus scale="   93.441">  7  8 -1 -1</clus>
<clus scale="  189.095">  1  7  2 -1</clus>
<clus scale="  325.125">  1  5  2 -1</clus>
<clus scale="  336.625">  2  5  1 -1</clus>
</clustering>
</event>
<event>
10    4  0.3001625E-005  0.1494165E+03  0.7546771E-02  0.1203364E+00
         21   -1    0    0  503  502  0.00000000000E+00  0.00000000000E+00  0.46898715413E+02  0.46898715413E+02  0.00000000000E+00 0.  1.
         -3   -1    0    0    0  501 -0.00000000000E+00 -0.00000000000E+00 -0.11209903315E+04  0.11209903315E+04  0.00000000000E+00 0.  1.
         23    2    1    2    0    0  0.79666019712E+02  0.78918641052E+02 -0.32156196012E+03  0.35231626181E+03  0.90276395242E+02 0.  0.
         24    2    1    2    0    0 -0.84083092112E+02 -0.11426889755E+03 -0.20226405838E+03  0.25920034637E+03  0.78401039010E+02 0.  0.
        -13    1    4    4    0    0 -0.78107493226E+02 -0.69083494841E+02 -0.18103841963E+03  0.20892156217E+03  0.00000000000E+00 0.  1.
         14    1    4    4    0    0 -0.59755988853E+01 -0.45185402707E+02 -0.21225638750E+02  0.50278784196E+02  0.00000000000E+00 0. -1.
        -11    1    3    3    0    0  0.29025216007E+02 -0.12784883115E+02 -0.13176711088E+03  0.13553039479E+03  0.00000000000E+00 0.  1.
         11    1    3    3    0    0  0.50640803705E+02  0.91703524167E+02 -0.18979484923E+03  0.21678586702E+03  0.00000000000E+00 0. -1.
         21    1    1    2  503  501  0.49161206340E+00 -0.23345847194E+02 -0.14975545664E+03  0.15156505883E+03  0.00000000000E+00 0. -1.
         -4    1    1    2    0  502  0.39254603358E+01  0.58696103690E+02 -0.40051014092E+03  0.40480737988E+03  0.00000000000E+00 0.  1.
<scales pt_clust_5="13000.00000" pt_clust_6="13000.00000" pt_clust_7="13000.00000" pt_clust_8="13000.00000" pt_clust_9="23.35102" pt_clust_10="49.18195"></scales>
<clustering>
<clus scale="   23.351">  2  9  1 -1</clus>
<clus scale="   49.182">  1 10  2 -1</clus>
<clus scale="   78.401">  5  6 -1 -1</clus>
<clus scale="   90.276">  7  8 -1 -1</clus>
<clus scale="  142.556">  1  5  2 -1</clus>
<clus scale="   49.182">  1  5  2 -1</clus>
</clustering>
</event>
<event>
10    4  0.2977685E-005  0.1803496E+03  0.7546771E-02  0.1184462E+00
          2   -1    0    0  503    0 -0.00000000000E+00  0.00000000000E+00  0.35590202161E+03  0.35590202161E+03  0.00000000000E+00 0. -1.
         21   -1    0    0  501  502  0.00000000000E+00 -0.00000000000E+00 -0.20073343692E+03  0.20073343692E+03  0.00000000000E+00 0.  1.
         23    2    1    2    0    0  0.59857122006E+02 -0.38325519176E+02  0.10952663087E+03  0.16219799993E+03  0.96230908953E+02 0.  0.
         24    2    1    2    0    0 -0.63715559247E+01  0.17078203637E+03  0.86492942073E+01  0.18876016008E+03  0.79677393719E+02 0.  0.
        -11    1    4    4    0    0  0.31479051441E+02  0.12454046964E+03  0.11228908491E+02  0.12894707304E+03  0.00000000000E+00 0.  1.
         12    1    4    4    0    0 -0.37850607366E+02  0.46241566727E+02 -0.25796142839E+01  0.59813087040E+02  0.00000000000E+00 0. -1.
        -11    1    3    3    0    0  0.16988017859E+02  0.25630759787E+02  0.68204366728E+02  0.74815534742E+02  0.00000000000E+00 0.  1.
         11    1    3    3    0    0  0.42869104147E+02 -0.63956278963E+02  0.41322264140E+02  0.87382465190E+02  0.00000000000E+00 0. -1.
         21    1    1    2  503  502  0.21210519538E+02  0.13568595674E+02  0.33128185113E+02  0.41610930974E+02  0.00000000000E+00 0. -1.
          1    1    1    2  501    0 -0.74696085619E+02 -0.14602511287E+03  0.38644744967E+01  0.16406636754E+03  0.00000000000E+00 0. -1.
<scales pt_clust_5="13000.00000" pt_clust_6="13000.00000" pt_clust_7="13000.00000" pt_clust_8="13000.00000" pt_clust_9="25.17922" pt_clust_10="161.79457"></scales>
<clustering>
<clus scale="   25.179">  1  9  2 -1</clus>
<clus scale="   79.677">  5  6 -1 -1</clus>
<clus scale="   96.231">  7  8 -1 -1</clus>
<clus scale="  122.747">  1  7  2 -1</clus>
<clus scale="  161.795">  2 10  1 -1</clus>
<clus scale="  161.795">  2  5  1 -1</clus>
</clustering>
</event>
<event>
10    4  0.2977685E-005  0.1233086E+03  0.7546771E-02  0.1240550E+00
         21   -1    0    0  501  502  0.00000000000E+00  0.00000000000E+00  0.47062735116E+03  0.47062735116E+03  0.00000000000E+00 0.  1.
          2   -1    0    0  503    0 -0.00000000000E+00 -0.00000000000E+00 -0.23653443788E+03  0.23653443788E+03  0.00000000000E+00 0. -1.
         23    2    1    2    0    0  0.66808746161E+01 -0.97926577733E+02 -0.77599539441E+02  0.15460264285E+03  0.90807708614E+02 0.  0.
         24    2    1    2    0    0 -0.40315372852E+02  0.82264330479E+02  0.37231657244E+02  0.12798790410E+03  0.81252433428E+02 0.  0.
        -13    1    4    4    0    0 -0.55755683085E+02  0.88953565192E+02  0.27402227878E+02  0.10850029977E+03  0.00000000000E+00 0.  1.
         14    1    4    4    0    0  0.15440310233E+02 -0.66892347122E+01  0.98294293660E+01  0.19487604337E+02  0.00000000000E+00 0. -1.
        -11    1    3    3    0    0  0.48465065228E+02 -0.44681124126E+02 -0.41500280179E+02  0.77894407089E+02  0.00000000000E+00 0. -1.
         11    1    3    3    0    0 -0.41784190612E+02 -0.53245453607E+02 -0.36099259262E+02  0.76708235765E+02  0.00000000000E+00 0.  1.
         21    1    1    2  503  502 -0.91859812540E+01  0.25014827437E+02 -0.71261833628E+02  0.76081356293E+02  0.00000000000E+00 0.  1.
          1    1    1    2  501    0  0.42820479490E+02 -0.93525801839E+01  0.34572262911E+03  0.34848988579E+03  0.00000000000E+00 0. -1.
<scales pt_clust_5="13000.00000" pt_clust_6="13000.00000" pt_clust_7="13000.00000" pt_clust_8="13000.00000" pt_clust_9="26.64815" pt_clust_10="43.70877"></scales>
<clustering>
<clus scale="   26.648">  2  9  1 -1</clus>
<clus scale="   43.709">  1 10  2 -1</clus>
<clus scale="   81.252">  5  6 -1 -1</clus>
<clus scale="   90.808">  7  8 -1 -1</clus>
<clus scale="  116.451">  1  5  2 -1</clus>
<clus scale="   43.709">  1  5  2 -1</clus>
</clustering>
</event>
<event>
10    4  0.2977685E-005  0.9945576E+02  0.7546771E-02  0.1287236E+00
         -1   -1    0    0    0  501 -0.00000000000E+00  0.00000000000E+00  0.98571762665E+02  0.98571762665E+02  0.00000000000E+00 0.  1.
         21   -1    0    0  503  502  0.00000000000E+00 -0.00000000000E+00 -0.17968670008E+03  0.17968670008E+03  0.00000000000E+00 0.  1.
         24    2    1    2    0    0 -0.23678822928E+02  0.34279303607E+02 -0.16955643788E+02  0.91074159546E+02  0.79191232909E+02 0.  0.
         23    2    1    2    0    0  0.50061510467E+02 -0.51329181672E+01 -0.56351575857E+02  0.11799983335E+03  0.90641926775E+02 0.  0.
        -13    1    3    3    0    0  0.27763847011E+02  0.13731938082E+02  0.52106598266E+01  0.31409366440E+02  0.00000000000E+00 0.  1.
         14    1    3    3    0    0 -0.51442669939E+02  0.20547365525E+02 -0.22166303615E+02  0.59664793106E+02  0.00000000000E+00 0. -1.
        -13    1    4    4    0    0  0.22731438694E+02  0.10578508887E+02 -0.76555630061E+02  0.80556735593E+02  0.00000000000E+00 0.  1.
         13    1    4    4    0    0  0.27330071773E+02 -0.15711427054E+02  0.20204054205E+02  0.37443097755E+02  0.00000000000E+00 0. -1.
         21    1    1    2  503  501  0.12664819321E+02 -0.23789950236E+02 -0.12091456727E+02  0.29539172406E+02  0.00000000000E+00 0. -1.
         -2    1    1    2    0  502 -0.39047506859E+02 -0.53564352036E+01  0.42837389563E+01  0.39645297444E+02  0.00000000000E+00 0.  1.
<scales pt_clust_5="13000.00000" pt_clust_6="13000.00000" pt_clust_7="13000.00000" pt_clust_8="13000.00000" pt_clust_9="26.95106" pt_clust_10="38.47971"></scales>
<clustering>
<clus scale="   26.951">  2  9  1 -1</clus>
<clus scale="   38.480">  2 10  1 -1</clus>
<clus scale="   79.191">  5  6 -1 -1</clus>
<clus scale="   89.144">  1  5  2 -1</clus>
<clus scale="   90.642">  7  8 -1 -1</clus>
<clus scale="   26.951">  2  5  1 -1</clus>
</clustering>
</event>
<event>
10    4  0.2977685E-005  0.3772796E+03  0.7546771E-02  0.1051944E+00
          2   -1    0    0  503    0 -0.00000000000E+00  0.00000000000E+00  0.11078273847E+03  0.11078273847E+03  0.00000000000E+00 0. -1.
         21   -1    0    0  501  502  0.00000000000E+00 -0.00000000000E+00 -0.13828390034E+04  0.13828390034E+04  0.00000000000E+00 0. -1.
         24    2    1    2    0    0 -0.10821594923E+03 -0.16035882590E+03 -0.58795259456E+03  0.62411887868E+03  0.80065451727E+02 0.  0.
         23    2    1    2    0    0 -0.97299515148E+02 -0.72741561784E+02 -0.27764430582E+03  0.31631566047E+03  0.90612946357E+02 0.  0.
        -11    1    3    3    0    0 -0.47832231478E+02 -0.11693209239E+03 -0.44993782176E+03  0.46733829294E+03  0.00000000000E+00 0.  1.
         12    1    3    3    0    0 -0.60383717751E+02 -0.43426733513E+02 -0.13801477280E+03  0.15678058574E+03  0.00000000000E+00 0. -1.
        -13    1    4    4    0    0 -0.73124310019E+02 -0.23306835471E+02 -0.23343315965E+03  0.24572629757E+03  0.00000000000E+00 0. -1.
         13    1    4    4    0    0 -0.24175205128E+02 -0.49434726313E+02 -0.44211146168E+02  0.70589362897E+02  0.00000000000E+00 0.  1.
         21    1    1    2  503  502 -0.26628295446E+02 -0.18826800476E+02 -0.38054323242E+02  0.50116325203E+02  0.00000000000E+00 0. -1.
          1    1    1    2  501    0  0.23214375982E+03  0.25192718816E+03 -0.36840504133E+03  0.50307087755E+03  0.00000000000E+00 0. -1.
<scales pt_clust_5="13000.00000" pt_clust_6="13000.00000" pt_clust_7="13000.00000" pt_clust_8="13000.00000" pt_clust_9="32.61157" pt_clust_10="322.10748"></scales>
<clustering>
<clus scale="   32.612">  1  9  2 -1</clus>
<clus scale="   80.065">  5  6 -1 -1</clus>
<clus scale="   90.613">  7  8 -1 -1</clus>
<clus scale="  111.481">  5  7 -1 -1</clus>
<clus scale="  322.107">  2 10  1 -1</clus>
<clus scale="  322.107">  2  5  1 -1</clus>
</clustering>
</event>
<event>
10    4  0.2977685E-005  0.1067697E+03  0.7546771E-02  0.1271903E+00
          2   -1    0    0  503    0 -0.00000000000E+00  0.00000000000E+00  0.33766166551E+03  0.33766166551E+03  0.00000000000E+00 0. -1.
         21   -1    0    0  501  502  0.00000000000E+00 -0.00000000000E+00 -0.77359496127E+02  0.77359496127E+02  0.00000000000E+00 0.  1.
         24    2    1    2    0    0 -0.63764960582E+01 -0.37272263987E+02  0.14732064499E+03  0.17156096524E+03  0.79371978628E+02 0.  0.
         23    2    1    2    0    0  0.36705065291E+02  0.59905240381E+02  0.16014241672E+02  0.11654437365E+03  0.91598228417E+02 0.  0.
        -13    1    3    3    0    0  0.31458036322E+02 -0.20516875435E+00  0.33141316793E+02  0.45694606052E+02  0.00000000000E+00 0.  1.
         14    1    3    3    0    0 -0.37834532380E+02 -0.37067095233E+02  0.11417932819E+03  0.12586635919E+03  0.00000000000E+00 0. -1.
        -11    1    4    4    0    0  0.61174432601E+02  0.26524144825E+02  0.29642656825E+02  0.72969367316E+02  0.00000000000E+00 0. -1.
         11    1    4    4    0    0 -0.24469367311E+02  0.33381095557E+02 -0.13628415153E+02  0.43575006331E+02  0.00000000000E+00 0.  1.
         21    1    1    2  503  502  0.88521955786E+01 -0.27216649716E+02  0.78118197095E+02  0.83195913996E+02  0.00000000000E+00 0. -1.
          1    1    1    2  501    0 -0.39180764811E+02  0.45836733221E+01  0.18849085633E+02  0.43719908755E+02  0.00000000000E+00 0. -1.
<scales pt_clust_5="13000.00000" pt_clust_6="13000.00000" pt_clust_7="13000.00000" pt_clust_8="13000.00000" pt_clust_9="28.62005" pt_clust_10="38.12439"></scales>
<clustering>
<clus scale="   28.620">  1  9  2 -1</clus>
<clus scale="   38.124">  2 10  1 -1</clus>
<clus scale="   79.372">  5  6 -1 -1</clus>
<clus scale="   91.598">  7  8 -1 -1</clus>
<clus scale="   96.486">  1  5  2 -1</clus>
<clus scale="   38.124">  2  5  1 -1</clus>
</clustering>
</event>
<event>
10    4  0.2977685E-005  0.1684550E+03  0.7546771E-02  0.1180185E+00
         21   -1    0    0  501  502  0.00000000000E+00  0.00000000000E+00  0.67232949223E+02  0.67232949223E+02  0.00000000000E+00 0.  1.
          2   -1    0    0  503    0 -0.00000000000E+00 -0.00000000000E+00 -0.92841000477E+03  0.92841000477E+03  0.00000000000E+00 0. -1.
         24    2    1    2    0    0  0.14840305260E+03  0.73196707941E+01 -0.61581958242E+03  0.63860642886E+03  0.80668266923E+02 0.  0.
         23    2    1    2    0    0 -0.14795635551E+03 -0.26724983270E+02 -0.15545540781E+03  0.23276338091E+03  0.86064509576E+02 0.  0.
        -11    1    3    3    0    0  0.43311116243E+02  0.89827121789E+01 -0.70330837791E+02  0.83084105897E+02  0.00000000000E+00 0.  1.
         12    1    3    3    0    0  0.10509193635E+03 -0.16630413848E+01 -0.54548874463E+03  0.55552232297E+03  0.00000000000E+00 0. -1.
        -13    1    4    4    0    0 -0.10371302776E+03  0.21704948540E+02 -0.11140493213E+03  0.15374835226E+03  0.00000000000E+00 0.  1.
         13    1    4    4    0    0 -0.44243327748E+02 -0.48429931810E+02 -0.44050475679E+02  0.79015028652E+02  0.00000000000E+00 0. -1.
         21    1    1    2  503  502 -0.67884201655E+01 -0.21303097364E+02 -0.78360163572E+02  0.81487544083E+02  0.00000000000E+00 0.  1.
          1    1    1    2  501    0  0.63417230810E+01  0.40708409840E+02 -0.11541901747E+02  0.42785600139E+02  0.00000000000E+00 0. -1.
<scales pt_clust_5="13000.00000" pt_clust_6="13000.00000" pt_clust_7="13000.00000" pt_clust_8="13000.00000" pt_clust_9="22.35855" pt_clust_10="40.49224"></scales>
<clustering>
<clus scale="   22.359">  2  9  1 -1</clus>
<clus scale="   40.492">  1 10  2 -1</clus>
<clus scale="   80.668">  5  6 -1 -1</clus>
<clus scale="   86.065">  7  8 -1 -1</clus>
<clus scale="  165.763">  2  5  1 -1</clus>
<clus scale="   40.492">  1  5  2 -1</clus>
</clustering>
</event>
<event>
10    4  0.2977685E-005  0.1265900E+03  0.7546771E-02  0.1245720E+00
         21   -1    0    0  501  502  0.00000000000E+00  0.00000000000E+00  0.47852591294E+03  0.47852591294E+03  0.00000000000E+00 0.  1.
          2   -1    0    0  503    0 -0.00000000000E+00 -0.00000000000E+00 -0.10349791812E+03  0.10349791812E+03  0.00000000000E+00 0. -1.
         24    2    1    2    0    0  0.55892379010E+02 -0.10484816702E+02  0.12906667397E+02  0.99182373759E+02  0.80228871290E+02 0.  0.
         23    2    1    2    0    0  0.51445686853E+02  0.96931413817E+02  0.26430324277E+03  0.30166462546E+03  0.95409561565E+02 0.  0.
        -13    1    3    3    0    0  0.60481575641E+02  0.81934457270E+01  0.34625064457E+02  0.70171565705E+02  0.00000000000E+00 0.  1.
         14    1    3    3    0    0 -0.45891966308E+01 -0.18678262429E+02 -0.21718397060E+02  0.29010808054E+02  0.00000000000E+00 0. -1.
        -11    1    4    4    0    0  0.69856016380E+02  0.33411042944E+02  0.16616919431E+03  0.18332583547E+03  0.00000000000E+00 0.  1.
         11    1    4    4    0    0 -0.18410329527E+02  0.63520370873E+02  0.98134048461E+02  0.11833878999E+03  0.00000000000E+00 0. -1.
         21    1    1    2  503  502 -0.80685263141E+02 -0.50645214788E+02  0.29787060062E+02  0.99811414258E+02  0.00000000000E+00 0. -1.
          1    1    1    2  501    0 -0.26652802722E+02 -0.35801382328E+02  0.68031024599E+02  0.81365417577E+02  0.00000000000E+00 0. -1.
<scales pt_clust_5="13000.00000" pt_clust_6="13000.00000" pt_clust_7="13000.00000" pt_clust_8="13000.00000" pt_clust_9="83.19888" pt_clust_10="44.63307"></scales>
<clustering>
<clus scale="   44.633">  1 10  2 -1</clus>
<clus scale="   80.229">  5  6 -1 -1</clus>
<clus scale="   95.410">  7  8 -1 -1</clus>
<clus scale="   96.952">  2  5  1 -1</clus>
<clus scale="   83.199">  2  9  1 -1</clus>
<clus scale="   44.633">  1  5  2 -1</clus>
</clustering>
</event>
<event>
10    4  0.2977685E-005  0.1653854E+03  0.7546771E-02  0.1191575E+00
         21   -1    0    0  501  502  0.00000000000E+00  0.00000000000E+00  0.10374875135E+04  0.10374875135E+04  0.00000000000E+00 0. -1.
          2   -1    0    0  503    0 -0.00000000000E+00 -0.00000000000E+00 -0.72341107383E+02  0.72341107383E+02  0.00000000000E+00 0. -1.
         24    2    1    2    0    0 -0.10160429830E+03 -0.34401146239E+02  0.35439551970E+03  0.37889659098E+03  0.80371450026E+02 0.  0.
         23    2    1    2    0    0 -0.66992717773E+02  0.11732188518E+03  0.36660177872E+03  0.40110242449E+03  0.90740519025E+02 0.  0.
        -13    1    3    3    0    0 -0.29436803994E+02 -0.33147940847E+02  0.23682145385E+03  0.24093507925E+03  0.00000000000E+00 0.  1.
         14    1    3    3    0    0 -0.72167494302E+02 -0.12532053922E+01  0.11757406585E+03  0.13796151173E+03  0.00000000000E+00 0. -1.
        -13    1    4    4    0    0 -0.28358058545E+02  0.24495355814E+02  0.22102284579E+03  0.22417693972E+03  0.00000000000E+00 0.  1.
         13    1    4    4    0    0 -0.38634659227E+02  0.92826529364E+02  0.14557893293E+03  0.17692548477E+03  0.00000000000E+00 0. -1.
         21    1    1    2  503  502  0.19435787813E+01 -0.36953733344E+02  0.91985252218E+01  0.38130942459E+02  0.00000000000E+00 0.  1.
          1    1    1    2  501    0  0.16665343729E+03 -0.45967005595E+02  0.23495058247E+03  0.29169866295E+03  0.00000000000E+00 0. -1.
<scales pt_clust_5="13000.00000" pt_clust_6="13000.00000" pt_clust_7="13000.00000" pt_clust_8="13000.00000" pt_clust_9="37.00481" pt_clust_10="138.26966"></scales>
<clustering>
<clus scale="   37.005">  2  9  1 -1</clus>
<clus scale="   80.371">  5  6 -1 -1</clus>
<clus scale="   90.741">  7  8 -1 -1</clus>
<clus scale="  135.950">  2  5  1 -1</clus>
<clus scale="  138.270">  1 10  2 -1</clus>
<clus scale="  138.270">  1  5  2 -1</clus>
</clustering>
</event>
<event>
10    4  0.2977685E-005  0.1455160E+03  0.7546771E-02  0.1216846E+00
          2   -1    0    0  503    0 -0.00000000000E+00  0.00000000000E+00  0.33915014139E+03  0.33915014139E+03  0.00000000000E+00 0. -1.
         21   -1    0    0  501  502  0.00000000000E+00 -0.00000000000E+00 -0.32053583016E+03  0.32053583016E+03  0.00000000000E+00 0.  1.
         24    2    1    2    0    0 -0.44915602708E+02 -0.87403217860E+02  0.11369711523E+03  0.17062299306E+03  0.80798749307E+02 0.  0.
         23    2    1    2    0    0 -0.36322180157E+02 -0.47960266492E+02 -0.18882651191E+03  0.21807070575E+03  0.90993918307E+02 0.  0.
        -13    1    3    3    0    0 -0.32213015365E+02 -0.10187541117E+03  0.10382829182E+03  0.14898520713E+03  0.00000000000E+00 0.  1.
         14    1    3    3    0    0 -0.12702587343E+02  0.14472193313E+02  0.98688234083E+01  0.21637785930E+02  0.00000000000E+00 0. -1.
        -11    1    4    4    0    0 -0.53363130963E+02 -0.23836696659E+02 -0.17674913056E+03  0.18616140042E+03  0.00000000000E+00 0.  1.
         11    1    4    4    0    0  0.17040950805E+02 -0.24123569833E+02 -0.12077381357E+02  0.31909305325E+02  0.00000000000E+00 0. -1.
         21    1    1    2  503  502  0.12449269054E+03  0.96753807927E+02  0.12849278282E+03  0.20339647142E+03  0.00000000000E+00 0. -1.
          1    1    1    2  501    0 -0.43254907677E+02  0.38609676426E+02 -0.34749074908E+02  0.67595801340E+02  0.00000000000E+00 0. -1.
<scales pt_clust_5="13000.00000" pt_clust_6="13000.00000" pt_clust_7="13000.00000" pt_clust_8="13000.00000" pt_clust_9="121.02258" pt_clust_10="57.98012"></scales>
<clustering>
<clus scale="   57.980">  2 10  1 -1</clus>
<clus scale="   80.799">  5  6 -1 -1</clus>
<clus scale="   90.994">  7  8 -1 -1</clus>
<clus scale="  115.729">  2  7  1 -1</clus>
<clus scale="  121.023">  2  9  1 -1</clus>
<clus scale="   57.980">  2  5  1 -1</clus>
</clustering>
</event>
<event>
10    4  0.2977685E-005  0.1053052E+03  0.7546771E-02  0.1273613E+00
         21   -1    0    0  501  502  0.00000000000E+00  0.00000000000E+00  0.39646841232E+03  0.39646841232E+03  0.00000000000E+00 0. -1.
          2   -1    0    0  503    0 -0.00000000000E+00 -0.00000000000E+00 -0.84318746463E+03  0.84318746463E+03  0.00000000000E+00 0. -1.
         23    2    1    2    0    0 -0.31949194840E+01 -0.38643841315E+00 -0.21485484322E+03  0.23359266031E+03  0.91610973421E+02 0.  0.
         24    2    1    2    0    0  0.40978662725E+02 -0.94393950038E+01 -0.27189115336E+02  0.96332955634E+02  0.82294819835E+02 0.  0.
        -13    1    4    4    0    0  0.30317721443E+02 -0.44492097085E+02 -0.25714355409E+02  0.59665224466E+02  0.00000000000E+00 0.  1.
         14    1    4    4    0    0  0.10660941282E+02  0.35052702081E+02 -0.14747599274E+01  0.36667731168E+02  0.00000000000E+00 0. -1.
        -13    1    3    3    0    0 -0.36851191443E+02 -0.25659494447E+02 -0.73757020202E+02  0.86351131986E+02  0.00000000000E+00 0.  1.
         13    1    3    3    0    0  0.33656271959E+02  0.25273056034E+02 -0.14109782301E+03  0.14724152832E+03  0.00000000000E+00 0. -1.
         21    1    1    2  503  502 -0.72072724047E+02  0.58525077078E+02 -0.55077387158E+03  0.55854410732E+03  0.00000000000E+00 0. -1.
          1    1    1    2  501    0  0.34288980805E+02 -0.48699243661E+02  0.34609877783E+03  0.35118615370E+03  0.00000000000E+00 0. -1.
<scales pt_clust_5="13000.00000" pt_clust_6="13000.00000" pt_clust_7="13000.00000" pt_clust_8="13000.00000" pt_clust_9="88.19583" pt_clust_10="59.55964"></scales>
<clustering>
<clus scale="   59.560">  1 10  2 -1</clus>
<clus scale="   82.295">  5  6 -1 -1</clus>
<clus scale="   88.196">  2  9  1 -1</clus>
<clus scale="   91.611">  7  8 -1 -1</clus>
<clus scale="   97.309">  1  5  2 -1</clus>
<clus scale="   59.560">  1  5  2 -1</clus>
</clustering>
</event>
<event>
10    4  0.2977685E-005  0.1405913E+03  0.7546771E-02  0.1215217E+00
          2   -1    0    0  503    0 -0.00000000000E+00  0.00000000000E+00  0.20533509764E+03  0.20533509764E+03  0.00000000000E+00 0. -1.
         21   -1    0    0  501  502  0.00000000000E+00 -0.00000000000E+00 -0.46587922709E+03  0.46587922709E+03  0.00000000000E+00 0. -1.
         24    2    1    2    0    0  0.39030906812E+02  0.78043609686E+02  0.81597152703E+02  0.14362331594E+03  0.79720416784E+02 0.  0.
         23    2    1    2    0    0 -0.10759365559E+03 -0.49052524935E+01 -0.18167258776E+03  0.23040437974E+03  0.92091220190E+02 0.  0.
        -13    1    3    3    0    0  0.62935761986E+02  0.44894151045E+02  0.52247134975E+02  0.93306795293E+02  0.00000000000E+00 0.  1.
         14    1    3    3    0    0 -0.23904855174E+02  0.33149458641E+02  0.29350017728E+02  0.50316520644E+02  0.00000000000E+00 0. -1.
        -11    1    4    4    0    0 -0.12087252086E+03  0.10548269461E+02 -0.15591429548E+03  0.19756188859E+03  0.00000000000E+00 0. -1.
         11    1    4    4    0    0  0.13278865276E+02 -0.15453521955E+02 -0.25758292286E+02  0.32842491155E+02  0.00000000000E+00 0.  1.
         21    1    1    2  503  502  0.17336938008E+02  0.43565834231E+02  0.38654326958E+02  0.60767658539E+02  0.00000000000E+00 0. -1.
          1    1    1    2  501    0  0.51225810767E+02 -0.11670419142E+03 -0.19912302136E+03  0.23641897051E+03  0.00000000000E+00 0. -1.
<scales pt_clust_5="13000.00000" pt_clust_6="13000.00000" pt_clust_7="13000.00000" pt_clust_8="13000.00000" pt_clust_9="46.88871" pt_clust_10="123.57135"></scales>
<clustering>
<clus scale="   46.889">  1  9  2 -1</clus>
<clus scale="   79.720">  5  6 -1 -1</clus>
<clus scale="   92.091">  7  8 -1 -1</clus>
<clus scale="  123.571">  2 10  1 -1</clus>
<clus scale="  132.817">  1  5  2 -1</clus>
<clus scale="  123.571">  2  5  1 -1</clus>
</clustering>
</event>
<event>
10    4  0.2977685E-005  0.2245670E+03  0.7546771E-02  0.1162512E+00
         21   -1    0    0  501  502  0.00000000000E+00  0.00000000000E+00  0.37755571833E+03  0.37755571833E+03  0.00000000000E+00 0. -1.
          4   -1    0    0  503    0 -0.00000000000E+00 -0.00000000000E+00 -0.30237618645E+03  0.30237618645E+03  0.00000000000E+00 0. -1.
         24    2    1    2    0    0 -0.66342330693E+02  0.33247372213E+01 -0.54313659571E+01  0.10669496048E+03  0.83318402141E+02 0.  0.
         23    2    1    2    0    0  0.19287336520E+03  0.15760068395E+03  0.20423941888E+02  0.26558948581E+03  0.89902875281E+02 0.  0.
        -13    1    3    3    0    0 -0.49115184489E+02  0.15194009899E+02 -0.40778829737E+02  0.65620669296E+02  0.00000000000E+00 0.  1.
         14    1    3    3    0    0 -0.17227146205E+02 -0.11869272677E+02  0.35347463780E+02  0.41074291180E+02  0.00000000000E+00 0. -1.
        -11    1    4    4    0    0  0.12064081698E+03  0.95833283762E+02  0.56251912339E+02  0.16401982392E+03  0.00000000000E+00 0. -1.
         11    1    4    4    0    0  0.72232548222E+02  0.61767400186E+02 -0.35827970452E+02  0.10156966188E+03  0.00000000000E+00 0.  1.
         21    1    1    2  503  502  0.12564668538E+02 -0.33814396398E+02 -0.69912152565E+02  0.78670155558E+02  0.00000000000E+00 0.  1.
          3    1    1    2  501    0 -0.13909570305E+03 -0.12711102477E+03  0.13009910852E+03  0.22897730294E+03  0.00000000000E+00 0. -1.
<scales pt_clust_5="13000.00000" pt_clust_6="13000.00000" pt_clust_7="13000.00000" pt_clust_8="13000.00000" pt_clust_9="36.07332" pt_clust_10="205.78585"></scales>
<clustering>
<clus scale="   36.073">  2  9  1 -1</clus>
<clus scale="   83.318">  5  6 -1 -1</clus>
<clus scale="   89.903">  7  8 -1 -1</clus>
<clus scale="  104.728">  2  5  1 -1</clus>
<clus scale="  205.786">  1 10  2 -1</clus>
<clus scale="  205.786">  1  5  2 -1</clus>
</clustering>
</event>
<event>
10    4  0.2977685E-005  0.9455327E+02  0.7546771E-02  0.1296421E+00
         21   -1    0    0  501  502  0.00000000000E+00  0.00000000000E+00  0.47257834231E+03  0.47257834231E+03  0.00000000000E+00 0. -1.
          4   -1    0    0  503    0 -0.00000000000E+00 -0.00000000000E+00 -0.49840617662E+02  0.49840617662E+02  0.00000000000E+00 0. -1.
         24    2    1    2    0    0  0.69317267345E+01 -0.74987512848E+01  0.54233349096E+02  0.10025847170E+03  0.83703195207E+02 0.  0.
         23    2    1    2    0    0 -0.22831133997E+02  0.25181964347E+02  0.29981235983E+03  0.31520238727E+03  0.91157565917E+02 0.  0.
        -11    1    3    3    0    0  0.18484328117E+02 -0.28536178566E+02  0.65459005278E+02  0.73762220988E+02  0.00000000000E+00 0.  1.
         12    1    3    3    0    0 -0.11552601383E+02  0.21037427281E+02 -0.11225656181E+02  0.26496250716E+02  0.00000000000E+00 0. -1.
        -11    1    4    4    0    0  0.34268003858E+02  0.26329177786E+01  0.82185491560E+02  0.89082452635E+02  0.00000000000E+00 0. -1.
         11    1    4    4    0    0 -0.57099137856E+02  0.22549046569E+02  0.21762686827E+03  0.22611993463E+03  0.00000000000E+00 0.  1.
         21    1    1    2  503  502  0.26576879837E+02  0.55707304439E+01 -0.61675956214E+01  0.27846055651E+02  0.00000000000E+00 0. -1.
          3    1    1    2  501    0 -0.10677472574E+02 -0.23253943506E+02  0.74859611345E+02  0.79112045352E+02  0.00000000000E+00 0. -1.
<scales pt_clust_5="13000.00000" pt_clust_6="13000.00000" pt_clust_7="13000.00000" pt_clust_8="13000.00000" pt_clust_9="26.74333" pt_clust_10="25.58817"></scales>
<clustering>
<clus scale="   25.588">  1 10  2 -1</clus>
<clus scale="   26.743">  2  9  1 -1</clus>
<clus scale="   83.703">  5  6 -1 -1</clus>
<clus scale="   87.389">  2  5  1 -1</clus>
<clus scale="   91.158">  7  8 -1 -1</clus>
<clus scale="   25.588">  1  5  2 -1</clus>
</clustering>
</event>
<event>
10    4  0.2977685E-005  0.1288777E+03  0.7546771E-02  0.1231924E+00
          4   -1    0    0  503    0 -0.00000000000E+00  0.00000000000E+00  0.19480596979E+03  0.19480596979E+03  0.00000000000E+00 0. -1.
         21   -1    0    0  501  502  0.00000000000E+00 -0.00000000000E+00 -0.19497109516E+03  0.19497109516E+03  0.00000000000E+00 0.  1.
         24    2    1    2    0    0  0.48391328289E+02  0.11151141571E+03  0.61942418579E+02  0.15840003107E+03  0.80480992383E+02 0.  0.
         23    2    1    2    0    0 -0.52324976493E+02 -0.27488188326E+02 -0.45380087797E+02  0.11763544468E+03  0.91023303686E+02 0.  0.
        -13    1    3    3    0    0 -0.10201696636E+02  0.47720901111E+02 -0.48249012353E+01  0.49037115423E+02  0.00000000000E+00 0.  1.
         14    1    3    3    0    0  0.58593024925E+02  0.63790514603E+02  0.66767319815E+02  0.10936291565E+03  0.00000000000E+00 0. -1.
        -11    1    4    4    0    0 -0.47559111802E+02  0.18973777840E+02 -0.48892304427E+02  0.70797816302E+02  0.00000000000E+00 0.  1.
         11    1    4    4    0    0 -0.47658646910E+01 -0.46461966167E+02  0.35122166299E+01  0.46837628377E+02  0.00000000000E+00 0. -1.
         21    1    1    2  503  502 -0.21841415613E+02 -0.24890862216E+01  0.10000390549E+02  0.24150585859E+02  0.00000000000E+00 0. -1.
          3    1    1    2  501    0  0.25775063817E+02 -0.81534141166E+02 -0.26727846710E+02  0.89591003344E+02  0.00000000000E+00 0. -1.
<scales pt_clust_5="13000.00000" pt_clust_6="13000.00000" pt_clust_7="13000.00000" pt_clust_8="13000.00000" pt_clust_9="21.98279" pt_clust_10="84.85249"></scales>
<clustering>
<clus scale="   21.983">  1  9  2 -1</clus>
<clus scale="   80.481">  5  6 -1 -1</clus>
<clus scale="   84.852">  2 10  1 -1</clus>
<clus scale="   91.023">  7  8 -1 -1</clus>
<clus scale="  121.661">  1  5  2 -1</clus>
<clus scale="   84.852">  2  5  1 -1</clus>
</clustering>
</event>
<event>
10    4  0.2977685E-005  0.9447687E+02  0.7546771E-02  0.1296190E+00
         -1   -1    0    0    0  501 -0.00000000000E+00  0.00000000000E+00  0.94434852191E+03  0.94434852191E+03  0.00000000000E+00 0.  1.
         21   -1    0    0  503  502  0.00000000000E+00 -0.00000000000E+00 -0.65565459053E+02  0.65565459053E+02  0.00000000000E+00 0. -1.
         23    2    1    2    0    0  0.27962161065E+02  0.17262936427E+02  0.35367309166E+03  0.36588384686E+03  0.87786344067E+02 0.  0.
         24    2    1    2    0    0  0.18373732683E+02 -0.50216621747E+02  0.11156571720E+03  0.14773868306E+03  0.80749650554E+02 0.  0.
        -11    1    4    4    0    0 -0.44270551017E+01  0.20587094907E+02  0.35987975535E+02  0.41696063084E+02  0.00000000000E+00 0.  1.
         12    1    4    4    0    0  0.22800787784E+02 -0.70803716654E+02  0.75577741666E+02  0.10604261997E+03  0.00000000000E+00 0. -1.
        -13    1    3    3    0    0 -0.27854140071E+02 -0.11784766825E+02  0.13441747087E+03  0.13777804732E+03  0.00000000000E+00 0.  1.
         13    1    3    3    0    0  0.55816301135E+02  0.29047703252E+02  0.21925562079E+03  0.22810579954E+03  0.00000000000E+00 0. -1.
         21    1    1    2  503  501 -0.56065582091E+02  0.13356259748E+02  0.45005300404E+03  0.45372838308E+03  0.00000000000E+00 0.  1.
         -2    1    1    2    0  502  0.97296883439E+01  0.19597425573E+02 -0.36508750044E+02  0.42563067960E+02  0.00000000000E+00 0.  1.
<scales pt_clust_5="13000.00000" pt_clust_6="13000.00000" pt_clust_7="13000.00000" pt_clust_8="13000.00000" pt_clust_9="57.30671" pt_clust_10="21.87981"></scales>
<clustering>
<clus scale="   21.880">  2 10  1 -1</clus>
<clus scale="   57.307">  1  9  2 -1</clus>
<clus scale="   80.750">  5  6 -1 -1</clus>
<clus scale="   87.786">  7  8 -1 -1</clus>
<clus scale="   87.977">  2  5  1 -1</clus>
<clus scale="   21.880">  2  5  1 -1</clus>
</clustering>
</event>
<event>
10    4  0.2977685E-005  0.1331939E+03  0.7546771E-02  0.1239593E+00
          2   -1    0    0  503    0 -0.00000000000E+00  0.00000000000E+00  0.14853661550E+03  0.14853661550E+03  0.00000000000E+00 0. -1.
         21   -1    0    0  501  502  0.00000000000E+00 -0.00000000000E+00 -0.43816804632E+03  0.43816804632E+03  0.00000000000E+00 0.  1.
         23    2    1    2    0    0 -0.71073228069E+02 -0.49799669958E+02  0.33214272984E+02  0.13075833644E+03  0.91995346306E+02 0.  0.
         24    2    1    2    0    0  0.19659871658E+02 -0.67961293456E+02 -0.14425701655E+03  0.17910661147E+03  0.79144446975E+02 0.  0.
        -13    1    4    4    0    0  0.43300583955E+02 -0.31712187510E+02 -0.11488508490E+03  0.12680373078E+03  0.00000000000E+00 0.  1.
         14    1    4    4    0    0 -0.23640712297E+02 -0.36249105946E+02 -0.29371931654E+02  0.52302880694E+02  0.00000000000E+00 0. -1.
        -13    1    3    3    0    0  0.18909517820E+02 -0.10063544451E+02 -0.96064690588E+01  0.23476137648E+02  0.00000000000E+00 0.  1.
         13    1    3    3    0    0 -0.89982745889E+02 -0.39736125507E+02  0.42820742043E+02  0.10728219879E+03  0.00000000000E+00 0. -1.
         21    1    1    2  503  502  0.10687937355E+03  0.76772965704E+02 -0.15638605740E+03  0.20438661332E+03  0.00000000000E+00 0.  1.
          1    1    1    2  501    0 -0.55466017137E+02  0.40987997709E+02 -0.22202629847E+02  0.72453100592E+02  0.00000000000E+00 0. -1.
<scales pt_clust_5="13000.00000" pt_clust_6="13000.00000" pt_clust_7="13000.00000" pt_clust_8="13000.00000" pt_clust_9="96.31961" pt_clust_10="68.96738"></scales>
<clustering>
<clus scale="   68.967">  2 10  1 -1</clus>
<clus scale="   79.144">  5  6 -1 -1</clus>
<clus scale="   91.995">  7  8 -1 -1</clus>
<clus scale="   94.214">  2  5  1 -1</clus>
<clus scale="   96.320">  2  9  1 -1</clus>
<clus scale="   68.967">  2  5  1 -1</clus>
</clustering>
</event>
<event>
10    4  0.2977685E-005  0.1497874E+03  0.7546771E-02  0.1226576E+00
         -1   -1    0    0    0  501 -0.00000000000E+00  0.00000000000E+00  0.28304051431E+03  0.28304051431E+03  0.00000000000E+00 0.  1.
         21   -1    0    0  503  502  0.00000000000E+00 -0.00000000000E+00 -0.28018585971E+03  0.28018585971E+03  0.00000000000E+00 0.  1.
         24    2    1    2    0    0  0.30110468059E+02 -0.89143246930E+01 -0.55047407847E+02  0.10094982632E+03  0.78578272133E+02 0.  0.
         23    2    1    2    0    0  0.64044350944E+02 -0.46472819015E+02 -0.14555155411E+02  0.12449949872E+03  0.95009846005E+02 0.  0.
        -11    1    3    3    0    0 -0.17827359966E+02 -0.27658321442E+02 -0.25229057445E+02  0.41464476940E+02  0.00000000000E+00 0.  1.
         12    1    3    3    0    0  0.47937828025E+02  0.18743996749E+02 -0.29818350402E+02  0.59485349378E+02  0.00000000000E+00 0. -1.
        -13    1    4    4    0    0  0.17361053460E+02 -0.40603553613E+02  0.34864841043E+02  0.56263770618E+02  0.00000000000E+00 0.  1.
         13    1    4    4    0    0  0.46683297484E+02 -0.58692654027E+01 -0.49419996454E+02  0.68235728104E+02  0.00000000000E+00 0. -1.
         21    1    1    2  503  501  0.98012873885E+01 -0.41273548915E+02  0.16364910964E+03  0.16905798461E+03  0.00000000000E+00 0.  1.
         -2    1    1    2    0  502 -0.10395610639E+03  0.96660692623E+02 -0.91191891787E+02  0.16871906437E+03  0.00000000000E+00 0.  1.
<scales pt_clust_5="13000.00000" pt_clust_6="13000.00000" pt_clust_7="13000.00000" pt_clust_8="13000.00000" pt_clust_9="42.42135" pt_clust_10="115.79889"></scales>
<clustering>
<clus scale="   42.421">  1  9  2 -1</clus>
<clus scale="   78.578">  5  6 -1 -1</clus>
<clus scale="   86.551">  1  5  2 -1</clus>
<clus scale="   95.010">  7  8 -1 -1</clus>
<clus scale="  115.799">  2 10  1 -1</clus>
<clus scale="  115.799">  2  5  1 -1</clus>
</clustering>
</event>
<event>
10    4  0.2977685E-005  0.2412478E+03  0.7546771E-02  0.1152017E+00
          2   -1    0    0  503    0 -0.00000000000E+00  0.00000000000E+00  0.39877859957E+03  0.39877859957E+03  0.00000000000E+00 0. -1.
         21   -1    0    0  501  502  0.00000000000E+00 -0.00000000000E+00 -0.26788212599E+03  0.26788212599E+03  0.00000000000E+00 0. -1.
         23    2    1    2    0    0  0.68315455271E+02  0.29070368809E+02 -0.50467515284E+02  0.11827221138E+03  0.77001676045E+02 0.  0.
         24    2    1    2    0    0 -0.10941445965E+03 -0.22655988050E+03  0.30687599009E+02  0.26220154126E+03  0.67134313679E+02 0.  0.
        -13    1    4    4    0    0 -0.62168343198E+02 -0.77475750532E+02 -0.12083236362E+02  0.10006697466E+03  0.00000000000E+00 0.  1.
         14    1    4    4    0    0 -0.47246116450E+02 -0.14908412997E+03  0.42770835370E+02  0.16213456660E+03  0.00000000000E+00 0. -1.
        -11    1    3    3    0    0  0.77373680637E+02  0.80428691580E+01 -0.54556117153E+02  0.95014441631E+02  0.00000000000E+00 0. -1.
         11    1    3    3    0    0 -0.90582253658E+01  0.21027499651E+02  0.40886018697E+01  0.23257769747E+02  0.00000000000E+00 0.  1.
         21    1    1    2  503  502  0.23877660074E+02 -0.16246591057E+02  0.17755779668E+02  0.33902243040E+02  0.00000000000E+00 0. -1.
          1    1    1    2  501    0  0.17221344303E+02  0.21373610275E+03  0.13292061018E+03  0.25228472988E+03  0.00000000000E+00 0. -1.
<scales pt_clust_5="13000.00000" pt_clust_6="13000.00000" pt_clust_7="13000.00000" pt_clust_8="13000.00000" pt_clust_9="28.88069" pt_clust_10="231.71870"></scales>
<clustering>
<clus scale="   28.881">  1  9  2 -1</clus>
<clus scale="   67.134">  5  6 -1 -1</clus>
<clus scale="   77.002">  7  8 -1 -1</clus>
<clus scale="  107.977">  1  7  2 -1</clus>
<clus scale="  231.719">  2 10  1 -1</clus>
<clus scale="  231.719">  2  5  1 -1</clus>
</clustering>
</event>
<event>
10    4  0.2977685E-005  0.2318251E+03  0.7546771E-02  0.1125938E+00
          2   -1    0    0  503    0 -0.00000000000E+00  0.00000000000E+00  0.82979457970E+03  0.82979457970E+03  0.00000000000E+00 0. -1.
         21   -1    0    0  501  502  0.00000000000E+00 -0.00000000000E+00 -0.10090542501E+03  0.10090542501E+03  0.00000000000E+00 0. -1.
         23    2    1    2    0    0  0.21159038657E+03  0.53140700821E+02  0.32633837186E+03  0.40246729123E+03  0.88818701821E+02 0.  0.
         24    2    1    2    0    0 -0.21106761978E+03 -0.63996487715E+02  0.17386937396E+03  0.29198191001E+03  0.79861041919E+02 0.  0.
        -11    1    4    4    0    0 -0.74097751083E+02 -0.52938244708E+02  0.37807890527E+02  0.98602084432E+02  0.00000000000E+00 0.  1.
         12    1    4    4    0    0 -0.13696986870E+03 -0.11058243008E+02  0.13606148343E+03  0.19337982558E+03  0.00000000000E+00 0. -1.
        -11    1    3    3    0    0  0.68308389254E+02 -0.18800117822E+02  0.66636761219E+02  0.97262214752E+02  0.00000000000E+00 0.  1.
         11    1    3    3    0    0  0.14328199731E+03  0.71940818643E+02  0.25970161064E+03  0.30520507648E+03  0.00000000000E+00 0. -1.
         21    1    1    2  503  502 -0.26331210469E+02  0.13868971972E+02  0.16150841524E+03  0.16422743139E+03  0.00000000000E+00 0. -1.
          1    1    1    2  501    0  0.25808443679E+02 -0.30131850777E+01  0.67172993640E+02  0.72023372067E+02  0.00000000000E+00 0. -1.
<scales pt_clust_5="13000.00000" pt_clust_6="13000.00000" pt_clust_7="13000.00000" pt_clust_8="13000.00000" pt_clust_9="29.42606" pt_clust_10="25.98376"></scales>
<clustering>
<clus scale="   25.984">  2 10  1 -1</clus>
<clus scale="   29.426">  1  9  2 -1</clus>
<clus scale="   79.861">  5  6 -1 -1</clus>
<clus scale="   88.819">  7  8 -1 -1</clus>
<clus scale="  228.543">  2  5  1 -1</clus>
<clus scale="   25.984">  2  5  1 -1</clus>
</clustering>
</event>
<event>
10    4  0.2977685E-005  0.1396973E+03  0.7546771E-02  0.1216474E+00
         -3   -1    0    0    0  501 -0.00000000000E+00  0.00000000000E+00  0.75368993913E+02  0.75368993913E+02  0.00000000000E+00 0.  1.
         21   -1    0    0  503  502  0.00000000000E+00 -0.00000000000E+00 -0.44562173377E+03  0.44562173377E+03  0.00000000000E+00 0.  1.
         24    2    1    2    0    0 -0.70447830809E+02 -0.41534400358E+02 -0.11312111029E+03  0.16127961912E+03  0.80788159232E+02 0.  0.
         23    2    1    2    0    0  0.12370395735E+03  0.55758087305E+02 -0.22182209569E+03  0.27618630349E+03  0.93070933892E+02 0.  0.
        -13    1    3    3    0    0 -0.85486536058E+02 -0.23264932142E+02 -0.73430859020E+02  0.11507083024E+03  0.00000000000E+00 0.  1.
         14    1    3    3    0    0  0.15038705249E+02 -0.18269468215E+02 -0.39690251267E+02  0.46208788884E+02  0.00000000000E+00 0. -1.
        -11    1    4    4    0    0  0.12630389240E+03  0.19085378799E+02 -0.17471685489E+03  0.21643221642E+03  0.00000000000E+00 0.  1.
         11    1    4    4    0    0 -0.25999350502E+01  0.36672708506E+02 -0.47105240801E+02  0.59754087077E+02  0.00000000000E+00 0. -1.
         21    1    1    2  503  501 -0.28287437098E+02  0.18795363914E+02 -0.12021903850E+02  0.36027364245E+02  0.00000000000E+00 0.  1.
         -4    1    1    2    0  502 -0.24968689448E+02 -0.33019050861E+02 -0.23287630030E+02  0.47497440825E+02  0.00000000000E+00 0.  1.
<scales pt_clust_5="13000.00000" pt_clust_6="13000.00000" pt_clust_7="13000.00000" pt_clust_8="13000.00000" pt_clust_9="33.96240" pt_clust_10="42.29099"></scales>
<clustering>
<clus scale="   33.962">  1  9  2 -1</clus>
<clus scale="   42.291">  2 10  1 -1</clus>
<clus scale="   80.788">  5  6 -1 -1</clus>
<clus scale="   93.071">  7  8 -1 -1</clus>
<clus scale="  131.833">  1  5  2 -1</clus>
<clus scale="   42.291">  2  5  1 -1</clus>
</clustering>
</event>
<event>
10    4  0.2977685E-005  0.1269796E+03  0.7546771E-02  0.1235327E+00
          2   -1    0    0  503    0 -0.00000000000E+00  0.00000000000E+00  0.68762766501E+03  0.68762766501E+03  0.00000000000E+00 0. -1.
         21   -1    0    0  501  502  0.00000000000E+00 -0.00000000000E+00 -0.10101568672E+03  0.10101568672E+03  0.00000000000E+00 0. -1.
         24    2    1    2    0    0 -0.68655481684E+02  0.11498650403E+02  0.39202215744E+03  0.40595146743E+03  0.79179718749E+02 0.  0.
         23    2    1    2    0    0  0.71467188555E+02 -0.72770433098E+02  0.91077329545E+02  0.16438180848E+03  0.91231595570E+02 0.  0.
        -13    1    3    3    0    0 -0.24823810248E+02 -0.24393710350E+02  0.61985550235E+02  0.71087854784E+02  0.00000000000E+00 0.  1.
         14    1    3    3    0    0 -0.43831671436E+02  0.35892360753E+02  0.33003660720E+03  0.33486361265E+03  0.00000000000E+00 0. -1.
        -13    1    4    4    0    0  0.38019121625E+02  0.55112882287E+00  0.72214821533E+02  0.81613343280E+02  0.00000000000E+00 0.  1.
         13    1    4    4    0    0  0.33448066930E+02 -0.73321561920E+02  0.18862508011E+02  0.82768465204E+02  0.00000000000E+00 0. -1.
         21    1    1    2  503  502 -0.25005001246E+02  0.13084388865E+02  0.14701685649E+03  0.14970106015E+03  0.00000000000E+00 0.  1.
          1    1    1    2  501    0  0.22193294375E+02  0.48187393829E+02 -0.43504365180E+02  0.68609015654E+02  0.00000000000E+00 0. -1.
<scales pt_clust_5="13000.00000" pt_clust_6="13000.00000" pt_clust_7="13000.00000" pt_clust_8="13000.00000" pt_clust_9="28.22147" pt_clust_10="53.08970"></scales>
<clustering>
<clus scale="   28.221">  1  9  2 -1</clus>
<clus scale="   53.090">  2 10  1 -1</clus>
<clus scale="   79.180">  5  6 -1 -1</clus>
<clus scale="   91.232">  7  8 -1 -1</clus>
<clus scale="  118.617">  1  5  2 -1</clus>
<clus scale="   53.090">  2  5  1 -1</clus>
</clustering>
</event>
<event>
10    4  0.2977685E-005  0.1206834E+03  0.7546771E-02  0.1245553E+00
          2   -1    0    0  503    0 -0.00000000000E+00  0.00000000000E+00  0.46936921531E+03  0.46936921531E+03  0.00000000000E+00 0. -1.
         21   -1    0    0  501  502  0.00000000000E+00 -0.00000000000E+00 -0.15858032116E+03  0.15858032116E+03  0.00000000000E+00 0. -1.
         23    2    1    2    0    0  0.70053053637E+02 -0.28469415717E+02  0.26005692534E+03  0.28575842313E+03  0.91161033421E+02 0.  0.
         24    2    1    2    0    0 -0.60001758578E+02  0.11065138377E+03 -0.22772214654E+02  0.15070946384E+03  0.79692088492E+02 0.  0.
        -11    1    4    4    0    0 -0.25588028165E+02 -0.34754558426E+01  0.89981331144E+01  0.27345792697E+02  0.00000000000E+00 0.  1.
         12    1    4    4    0    0 -0.34413730414E+02  0.11412683961E+03 -0.31770347769E+02  0.12336367114E+03  0.00000000000E+00 0. -1.
        -11    1    3    3    0    0  0.70009458249E+02 -0.56347592970E+02  0.21084632772E+03  0.22919980233E+03  0.00000000000E+00 0. -1.
         11    1    3    3    0    0  0.43595387511E-01  0.27878177252E+02  0.49210597628E+02  0.56558620796E+02  0.00000000000E+00 0.  1.
         21    1    1    2  503  502  0.69404421744E+02 -0.49659347490E+02  0.12708676949E+02  0.86281718925E+02  0.00000000000E+00 0. -1.
          1    1    1    2  501    0 -0.79455716802E+02 -0.32522620558E+02  0.60795506518E+02  0.10519993058E+03  0.00000000000E+00 0. -1.
<scales pt_clust_5="13000.00000" pt_clust_6="13000.00000" pt_clust_7="13000.00000" pt_clust_8="13000.00000" pt_clust_9="85.34064" pt_clust_10="78.68442"></scales>
<clustering>
<clus scale="   79.692">  5  6 -1 -1</clus>
<clus scale="   85.341">  2  9  1 -1</clus>
<clus scale="   78.684">  2 10  1 -1</clus>
<clus scale="   91.161">  7  8 -1 -1</clus>
<clus scale="  112.272">  2  5  1 -1</clus>
<clus scale="   85.341">  2  5  1 -1</clus>
</clustering>
</event>
<event>
10    4  0.2977685E-005  0.1578730E+03  0.7546771E-02  0.1193165E+00
         21   -1    0    0  503  502  0.00000000000E+00  0.00000000000E+00  0.66597379837E+03  0.66597379837E+03  0.00000000000E+00 0.  1.
         -1   -1    0    0    0  501 -0.00000000000E+00 -0.00000000000E+00 -0.11628458215E+03  0.11628458215E+03  0.00000000000E+00 0.  1.
         24    2    1    2    0    0  0.85693787657E+02  0.84527322766E+02  0.18995555940E+03  0.23867223631E+03  0.79956415022E+02 0.  0.
         23    2    1    2    0    0 -0.13976529098E+03 -0.67562342368E+02  0.39986818446E+03  0.43878576310E+03  0.92408734908E+02 0.  0.
        -11    1    3    3    0    0  0.70384424972E+02  0.17218543323E+02  0.72939762130E+02  0.10281368787E+03  0.00000000000E+00 0.  1.
         12    1    3    3    0    0  0.15309362685E+02  0.67308779443E+02  0.11701579727E+03  0.13585854845E+03  0.00000000000E+00 0. -1.
        -11    1    4    4    0    0 -0.11092883834E+03 -0.14516873112E+02  0.19086081026E+03  0.22123244715E+03  0.00000000000E+00 0.  1.
         11    1    4    4    0    0 -0.28836452640E+02 -0.53045469256E+02  0.20900737420E+03  0.21755331595E+03  0.00000000000E+00 0. -1.
         21    1    1    2  503  501 -0.20348227783E+02 -0.30546897677E+01 -0.13185310482E+02  0.24438369749E+02  0.00000000000E+00 0. -1.
         -2    1    1    2    0  502  0.74419731104E+02 -0.13910290631E+02 -0.26949217158E+02  0.80362011352E+02  0.00000000000E+00 0.  1.
<scales pt_clust_5="13000.00000" pt_clust_6="13000.00000" pt_clust_7="13000.00000" pt_clust_8="13000.00000" pt_clust_9="20.57624" pt_clust_10="65.11306"></scales>
<clustering>
<clus scale="   20.576">  2  9  1 -1</clus>
<clus scale="   65.113">  1 10  2 -1</clus>
<clus scale="   79.956">  5  6 -1 -1</clus>
<clus scale="   92.409">  7  8 -1 -1</clus>
<clus scale="  150.922">  2  5  1 -1</clus>
<clus scale="   65.113">  1  5  2 -1</clus>
</clustering>
</event>
<event>
10    4  0.2977685E-005  0.9947088E+02  0.7546771E-02  0.1289523E+00
         21   -1    0    0  501  502  0.00000000000E+00  0.00000000000E+00  0.31156472863E+02  0.31156472863E+02  0.00000000000E+00 0.  1.
          2   -1    0    0  503    0 -0.00000000000E+00 -0.00000000000E+00 -0.73940110460E+03  0.73940110460E+03  0.00000000000E+00 0. -1.
         24    2    1    2    0    0  0.13792417456E+02 -0.15565691044E+02 -0.31620706961E+03  0.32752966016E+03  0.82802451009E+02 0.  0.
         23    2    1    2    0    0  0.38315997766E+02  0.12546016979E+02 -0.17715678120E+03  0.20609404722E+03  0.97286756266E+02 0.  0.
        -13    1    3    3    0    0 -0.29712121204E+02  0.12659045439E+02 -0.95547291532E+02  0.10085805122E+03  0.00000000000E+00 0.  1.
         14    1    3    3    0    0  0.43504538660E+02 -0.28224736482E+02 -0.22065977808E+03  0.22667160893E+03  0.00000000000E+00 0. -1.
        -13    1    4    4    0    0  0.65690367553E+02 -0.13019253983E+02 -0.10038674763E+03  0.12067404221E+03  0.00000000000E+00 0.  1.
         13    1    4    4    0    0 -0.27374369787E+02  0.25565270962E+02 -0.76770033568E+02  0.85420005002E+02  0.00000000000E+00 0. -1.
         21    1    1    2  503  502  0.67474766564E+01 -0.23694714298E+02 -0.11749896295E+03  0.12005404708E+03  0.00000000000E+00 0. -1.
          1    1    1    2  501    0 -0.58855891879E+02  0.26714388363E+02 -0.97381817977E+02  0.11687982301E+03  0.00000000000E+00 0. -1.
<scales pt_clust_5="13000.00000" pt_clust_6="13000.00000" pt_clust_7="13000.00000" pt_clust_8="13000.00000" pt_clust_9="24.63672" pt_clust_10="61.96876"></scales>
<clustering>
<clus scale="   24.637">  2  9  1 -1</clus>
<clus scale="   61.969">  1 10  2 -1</clus>
<clus scale="   82.802">  5  6 -1 -1</clus>
<clus scale="   85.358">  2  5  1 -1</clus>
<clus scale="   97.287">  7  8 -1 -1</clus>
<clus scale="   61.969">  1  5  2 -1</clus>
</clustering>
</event>
<event>
10    4  0.2977685E-005  0.1756796E+03  0.7546771E-02  0.1198230E+00
          2   -1    0    0  503    0 -0.00000000000E+00  0.00000000000E+00  0.80809622259E+03  0.80809622259E+03  0.00000000000E+00 0. -1.
         21   -1    0    0  501  502  0.00000000000E+00 -0.00000000000E+00 -0.11784453375E+03  0.11784453375E+03  0.00000000000E+00 0. -1.
         24    2    1    2    0    0  0.48734893999E+02 -0.24131677318E+02  0.40079789556E+02  0.10591139381E+03  0.81568413396E+02 0.  0.
         23    2    1    2    0    0 -0.20948627540E+02 -0.14524722645E+03  0.13560015430E+03  0.21924492821E+03  0.90251509203E+02 0.  0.
        -13    1    3    3    0    0  0.62062666604E+02 -0.35963689684E+02  0.48103801422E+02  0.86366297090E+02  0.00000000000E+00 0.  1.
         14    1    3    3    0    0 -0.13327772605E+02  0.11832012367E+02 -0.80240118665E+01  0.19545096717E+02  0.00000000000E+00 0. -1.
        -11    1    4    4    0    0  0.87630509554E+01 -0.13102522180E+03  0.13185645694E+03  0.18609278612E+03  0.00000000000E+00 0. -1.
         11    1    4    4    0    0 -0.29711678495E+02 -0.14222004646E+02  0.37436973618E+01  0.33152142089E+02  0.00000000000E+00 0.  1.
         21    1    1    2  503  502  0.10183523624E+03  0.20743462377E+02  0.25044969827E+03  0.27115633486E+03  0.00000000000E+00 0. -1.
          1    1    1    2  501    0 -0.12962150270E+03  0.14863544139E+03  0.26412204671E+03  0.32962809946E+03  0.00000000000E+00 0. -1.
<scales pt_clust_5="13000.00000" pt_clust_6="13000.00000" pt_clust_7="13000.00000" pt_clust_8="13000.00000" pt_clust_9="119.74691" pt_clust_10="150.72497"></scales>
<clustering>
<clus scale="   81.568">  5  6 -1 -1</clus>
<clus scale="   90.252">  7  8 -1 -1</clus>
<clus scale="   98.035">  1  5  2 -1</clus>
<clus scale="  119.747">  1  9  2 -1</clus>
<clus scale="  150.725">  2 10  1 -1</clus>
<clus scale="  150.725">  2  5  1 -1</clus>
</clustering>
</event>
<event>
10    4  0.2977685E-005  0.1243117E+03  0.7546771E-02  0.1241935E+00
          2   -1    0    0  503    0 -0.00000000000E+00  0.00000000000E+00  0.86666893030E+03  0.86666893030E+03  0.00000000000E+00 0. -1.
         21   -1    0    0  501  502  0.00000000000E+00 -0.00000000000E+00 -0.90385220034E+02  0.90385220034E+02  0.00000000000E+00 0. -1.
         24    2    1    2    0    0  0.45320427952E+02  0.53817531166E+02  0.48058514815E+03  0.49211006741E+03  0.79119946738E+02 0.  0.
         23    2    1    2    0    0 -0.84344663228E+01 -0.14788745535E+02 -0.46527538531E+02  0.10934196972E+03  0.97473110572E+02 0.  0.
        -11    1    3    3    0    0  0.63815128818E+02  0.21016956516E+02  0.27368438501E+03  0.28181062033E+03  0.00000000000E+00 0.  1.
         12    1    3    3    0    0 -0.18494700866E+02  0.32800574649E+02  0.20690076314E+03  0.21029944708E+03  0.00000000000E+00 0. -1.
        -13    1    4    4    0    0 -0.47249758198E+02 -0.23506843078E+02 -0.69568292109E+01  0.53230712883E+02  0.00000000000E+00 0.  1.
         13    1    4    4    0    0  0.38815291876E+02  0.87180975433E+01 -0.39570709320E+02  0.56111256841E+02  0.00000000000E+00 0. -1.
         21    1    1    2  503  502  0.50646840119E+01  0.20983711573E+02  0.11029110540E+03  0.11238369591E+03  0.00000000000E+00 0. -1.
          1    1    1    2  501    0 -0.41950645641E+02 -0.60012497204E+02  0.23193499525E+03  0.24321841729E+03  0.00000000000E+00 0. -1.
<scales pt_clust_5="13000.00000" pt_clust_6="13000.00000" pt_clust_7="13000.00000" pt_clust_8="13000.00000" pt_clust_9="21.58627" pt_clust_10="66.94498"></scales>
<clustering>
<clus scale="   21.586">  1  9  2 -1</clus>
<clus scale="   66.945">  2 10  1 -1</clus>
<clus scale="   79.120">  5  6 -1 -1</clus>
<clus scale="   97.473">  7  8 -1 -1</clus>
<clus scale="  110.509">  1  5  2 -1</clus>
<clus scale="   66.945">  2  5  1 -1</clus>
</clustering>
</event>
<event>
10    4  0.2977685E-005  0.9140628E+02  0.7546771E-02  0.1302086E+00
         -3   -1    0    0    0  501 -0.00000000000E+00  0.00000000000E+00  0.18556288551E+03  0.18556288551E+03  0.00000000000E+00 0.  1.
         21   -1    0    0  503  502  0.00000000000E+00 -0.00000000000E+00 -0.23429026478E+03  0.23429026478E+03  0.00000000000E+00 0.  1.
         24    2    1    2    0    0  0.35196618174E+02 -0.90273085480E+01  0.99749185214E+02  0.13315408923E+03  0.80372988604E+02 0.  0.
         23    2    1    2    0    0 -0.49842815842E+02 -0.26852213735E+02 -0.68539647528E+02  0.12299160548E+03  0.84993553066E+02 0.  0.
        -11    1    3    3    0    0  0.33246330881E+02 -0.42846550718E+02  0.64412565664E+02  0.84202874303E+02  0.00000000000E+00 0.  1.
         12    1    3    3    0    0  0.19502872931E+01  0.33819242170E+02  0.35336619551E+02  0.48951214926E+02  0.00000000000E+00 0. -1.
        -11    1    4    4    0    0 -0.32465877976E+02 -0.12990387588E+02  0.13883559706E+02  0.37623618015E+02  0.00000000000E+00 0.  1.
         11    1    4    4    0    0 -0.17376937867E+02 -0.13861826147E+02 -0.82423207235E+02  0.85367987470E+02  0.00000000000E+00 0. -1.
         21    1    1    2  503  501 -0.22244637164E+02  0.39291033868E+02  0.25567382006E+02  0.51887380427E+02  0.00000000000E+00 0.  1.
         -4    1    1    2    0  502  0.36890834832E+02 -0.34115115849E+01 -0.10550429897E+03  0.11182007515E+03  0.00000000000E+00 0.  1.
<scales pt_clust_5="13000.00000" pt_clust_6="13000.00000" pt_clust_7="13000.00000" pt_clust_8="13000.00000" pt_clust_9="43.05417" pt_clust_10="37.04824"></scales>
<clustering>
<clus scale="   37.048">  2 10  1 -1</clus>
<clus scale="   43.054">  1  9  2 -1</clus>
<clus scale="   80.373">  5  6 -1 -1</clus>
<clus scale="   84.994">  7  8 -1 -1</clus>
<clus scale="   87.126">  1  5  2 -1</clus>
<clus scale="   37.048">  2  5  1 -1</clus>
</clustering>
</event>
<event>
10    4  0.2977685E-005  0.1467681E+03  0.7546771E-02  0.1206711E+00
         21   -1    0    0  501  502  0.00000000000E+00  0.00000000000E+00  0.86082321742E+03  0.86082321742E+03  0.00000000000E+00 0. -1.
          2   -1    0    0  503    0 -0.00000000000E+00 -0.00000000000E+00 -0.11621789465E+03  0.11621789465E+03  0.00000000000E+00 0. -1.
         23    2    1    2    0    0  0.10426974742E+03  0.41500459868E+02 -0.94856229569E+01  0.14492931478E+03  0.91214367527E+02 0.  0.
         24    2    1    2    0    0 -0.97600649023E+02  0.40527980959E+02  0.30200880535E+03  0.32976374257E+03  0.79789745414E+02 0.  0.
        -13    1    4    4    0    0 -0.77887047577E+02  0.48148303077E+02  0.29266498032E+03  0.30665524938E+03  0.00000000000E+00 0.  1.
         14    1    4    4    0    0 -0.19713601447E+02 -0.76203221181E+01  0.93438250365E+01  0.23108493190E+02  0.00000000000E+00 0. -1.
        -11    1    3    3    0    0  0.33702448496E+02  0.16292563006E+02 -0.47843538062E+02  0.60747895257E+02  0.00000000000E+00 0.  1.
         11    1    3    3    0    0  0.70567298924E+02  0.25207896862E+02  0.38357915105E+02  0.84181419523E+02  0.00000000000E+00 0. -1.
         21    1    1    2  503  502  0.11234511227E+02  0.16704766463E+02 -0.14684327679E+02  0.24917723501E+02  0.00000000000E+00 0.  1.
          1    1    1    2  501    0 -0.17903609624E+02 -0.98733207291E+02  0.46676646806E+03  0.47743033121E+03  0.00000000000E+00 0. -1.
<scales pt_clust_5="13000.00000" pt_clust_6="13000.00000" pt_clust_7="13000.00000" pt_clust_8="13000.00000" pt_clust_9="20.13116" pt_clust_10="99.32453"></scales>
<clustering>
<clus scale="   20.131">  2  9  1 -1</clus>
<clus scale="   79.790">  5  6 -1 -1</clus>
<clus scale="   91.214">  7  8 -1 -1</clus>
<clus scale="   99.325">  1 10  2 -1</clus>
<clus scale="  139.954">  1  5  2 -1</clus>
<clus scale="   99.325">  1  5  2 -1</clus>
</clustering>
</event>
<event>
10    4  0.2977685E-005  0.1856083E+03  0.7546771E-02  0.1193364E+00
         21   -1    0    0  503  502  0.00000000000E+00  0.00000000000E+00  0.41850512604E+03  0.41850512604E+03  0.00000000000E+00 0.  1.
         -3   -1    0    0    0  501 -0.00000000000E+00 -0.00000000000E+00 -0.18592469481E+03  0.18592469481E+03  0.00000000000E+00 0.  1.
         24    2    1    2    0    0  0.24904750572E+02 -0.27489774690E+02 -0.58087677652E+02  0.10809537465E+03  0.83273629756E+02 0.  0.
         23    2    1    2    0    0  0.10634301116E+03 -0.93542585325E+02  0.11717984340E+03  0.20390000796E+03  0.88232909148E+02 0.  0.
        -13    1    3    3    0    0 -0.20179433421E+02 -0.34271642773E+02 -0.46237581294E+02  0.60989088823E+02  0.00000000000E+00 0.  1.
         14    1    3    3    0    0  0.45084183993E+02  0.67818680830E+01 -0.11850096358E+02  0.47106285830E+02  0.00000000000E+00 0. -1.
        -13    1    4    4    0    0 -0.39554485021E+01 -0.34173870208E+02  0.32129906233E+01  0.34551733482E+02  0.00000000000E+00 0. -1.
         13    1    4    4    0    0  0.11029845966E+03 -0.59368715117E+02  0.11396685278E+03  0.16934827448E+03  0.00000000000E+00 0.  1.
         21    1    1    2  503  501  0.24027460143E+02  0.23480646866E+02 -0.78908768642E+01  0.34509789276E+02  0.00000000000E+00 0. -1.
         -4    1    1    2    0  502 -0.15527522187E+03  0.97551713149E+02  0.18137914235E+03  0.25792464897E+03  0.00000000000E+00 0.  1.
<scales pt_clust_5="13000.00000" pt_clust_6="13000.00000" pt_clust_7="13000.00000" pt_clust_8="13000.00000" pt_clust_9="33.59553" pt_clust_10="163.29549"></scales>
<clustering>
<clus scale="   33.596">  2  9  1 -1</clus>
<clus scale="   83.274">  5  6 -1 -1</clus>
<clus scale="   88.233">  7  8 -1 -1</clus>
<clus scale="   92.467">  2  5  1 -1</clus>
<clus scale="  163.295">  1 10  2 -1</clus>
<clus scale="  163.295">  1  5  2 -1</clus>
</clustering>
</event>
<event>
10    4  0.2977685E-005  0.1413600E+03  0.7546771E-02  0.1223710E+00
          2   -1    0    0  503    0 -0.00000000000E+00  0.00000000000E+00  0.15789808489E+04  0.15789808489E+04  0.00000000000E+00 0. -1.
         21   -1    0    0  501  502  0.00000000000E+00 -0.00000000000E+00 -0.96640656571E+02  0.96640656571E+02  0.00000000000E+00 0. -1.
         24    2    1    2    0    0 -0.11336892649E+03 -0.12297484639E+02  0.71824594104E+03  0.73171504029E+03  0.80783208348E+02 0.  0.
         23    2    1    2    0    0 -0.66641225168E+02 -0.22214095672E+02  0.32165135602E+03  0.34353295779E+03  0.98085571413E+02 0.  0.
        -13    1    3    3    0    0 -0.58761766736E+02 -0.44210612984E+02  0.31024941559E+03  0.31884514016E+03  0.00000000000E+00 0.  1.
         14    1    3    3    0    0 -0.54607159757E+02  0.31913128345E+02  0.40799652544E+03  0.41286990013E+03  0.00000000000E+00 0. -1.
        -13    1    4    4    0    0 -0.91759638741E+02 -0.19884713585E+02  0.22877728412E+03  0.24729391191E+03  0.00000000000E+00 0. -1.
         13    1    4    4    0    0  0.25118413573E+02 -0.23293820875E+01  0.92874071898E+02  0.96239045882E+02  0.00000000000E+00 0.  1.
         21    1    1    2  503  502  0.10799426866E+03  0.58825131837E+02  0.49364150582E+03  0.50872890076E+03  0.00000000000E+00 0. -1.
          1    1    1    2  501    0  0.72015883000E+02 -0.24313551526E+02 -0.51198610585E+02  0.91644606595E+02  0.00000000000E+00 0. -1.
<scales pt_clust_5="13000.00000" pt_clust_6="13000.00000" pt_clust_7="13000.00000" pt_clust_8="13000.00000" pt_clust_9="116.00315" pt_clust_10="76.00945"></scales>
<clustering>
<clus scale="   76.009">  2 10  1 -1</clus>
<clus scale="   80.783">  5  6 -1 -1</clus>
<clus scale="   98.086">  7  8 -1 -1</clus>
<clus scale="  109.303">  2  7  1 -1</clus>
<clus scale="  116.003">  2  9  1 -1</clus>
<clus scale="   76.009">  2  5  1 -1</clus>
</clustering>
</event>
<event>
10    4  0.2977685E-005  0.1644422E+03  0.7546771E-02  0.1185798E+00
         21   -1    0    0  503  502  0.00000000000E+00  0.00000000000E+00  0.22243534726E+03  0.22243534726E+03  0.00000000000E+00 0. -1.
         -1   -1    0    0    0  501 -0.00000000000E+00 -0.00000000000E+00 -0.60504624242E+03  0.60504624242E+03  0.00000000000E+00 0.  1.
         23    2    1    2    0    0  0.59575668180E+02 -0.11770668865E+03 -0.17183908653E+03  0.23567258298E+03  0.92783457126E+02 0.  0.
         24    2    1    2    0    0  0.49513455085E+02  0.17846779953E+03  0.72762236007E+02  0.21416870216E+03  0.79193132868E+02 0.  0.
        -11    1    4    4    0    0  0.15556990749E+02  0.16174592590E+03  0.67498159726E+02  0.17595387484E+03  0.00000000000E+00 0.  1.
         12    1    4    4    0    0  0.33956464336E+02  0.16721873633E+02  0.52640762807E+01  0.38214827320E+02  0.00000000000E+00 0. -1.
        -13    1    3    3    0    0  0.43933561306E+02 -0.18032955121E+02 -0.16172038763E+02  0.50168517191E+02  0.00000000000E+00 0. -1.
         13    1    3    3    0    0  0.15642106874E+02 -0.99673733534E+02 -0.15566704777E+03  0.18550406579E+03  0.00000000000E+00 0.  1.
         21    1    1    2  503  501 -0.58601549570E+02 -0.11250201668E+02 -0.29930053977E+03  0.30519095949E+03  0.00000000000E+00 0.  1.
         -2    1    1    2    0  502 -0.50487573694E+02 -0.49510909206E+02  0.15766495133E+02  0.72449345040E+02  0.00000000000E+00 0.  1.
<scales pt_clust_5="13000.00000" pt_clust_6="13000.00000" pt_clust_7="13000.00000" pt_clust_8="13000.00000" pt_clust_9="59.67167" pt_clust_10="75.42966"></scales>
<clustering>
<clus scale="   59.672">  2  9  1 -1</clus>
<clus scale="   75.430">  1 10  2 -1</clus>
<clus scale="   79.193">  5  6 -1 -1</clus>
<clus scale="   92.783">  7  8 -1 -1</clus>
<clus scale="  157.175">  1  5  2 -1</clus>
<clus scale="   75.430">  1  5  2 -1</clus>
</clustering>
</event>
<event>
10    4  0.2977685E-005  0.1942937E+03  0.7546771E-02  0.1155567E+00
          2   -1    0    0  503    0 -0.00000000000E+00  0.00000000000E+00  0.41794594892E+03  0.41794594892E+03  0.00000000000E+00 0. -1.
         21   -1    0    0  501  502  0.00000000000E+00 -0.00000000000E+00 -0.26174164235E+03  0.26174164235E+03  0.00000000000E+00 0.  1.
         24    2    1    2    0    0  0.16803062102E+03  0.12929917681E+03  0.14332856524E+03  0.26868657010E+03  0.81834153091E+02 0.  0.
         23    2    1    2    0    0 -0.12661175889E+03 -0.59503949043E+02 -0.13651383474E+03  0.21564985770E+03  0.91091034755E+02 0.  0.
        -11    1    3    3    0    0  0.48718437700E+02  0.67447549018E+02  0.93986821242E+02  0.12552362569E+03  0.00000000000E+00 0.  1.
         12    1    3    3    0    0  0.11931218332E+03  0.61851627793E+02  0.49341744003E+02  0.14316294440E+03  0.00000000000E+00 0. -1.
        -11    1    4    4    0    0 -0.42362889746E+02  0.21322376150E+01 -0.93642379708E+02  0.10280105127E+03  0.00000000000E+00 0.  1.
         11    1    4    4    0    0 -0.84248869142E+02 -0.61636186658E+02 -0.42871455031E+02  0.11284880644E+03  0.00000000000E+00 0. -1.
         21    1    1    2  503  502 -0.60325852176E+02 -0.75305794531E+01  0.70912147117E+02  0.93404767953E+02  0.00000000000E+00 0. -1.
          1    1    1    2  501    0  0.18906990043E+02 -0.62264648315E+02  0.78477428955E+02  0.10194639551E+03  0.00000000000E+00 0. -1.
<scales pt_clust_5="13000.00000" pt_clust_6="13000.00000" pt_clust_7="13000.00000" pt_clust_8="13000.00000" pt_clust_9="60.79406" pt_clust_10="64.34450"></scales>
<clustering>
<clus scale="   60.794">  1  9  2 -1</clus>
<clus scale="   64.345">  2 10  1 -1</clus>
<clus scale="   81.834">  5  6 -1 -1</clus>
<clus scale="   91.091">  7  8 -1 -1</clus>
<clus scale="  190.130">  1  5  2 -1</clus>
<clus scale="   64.345">  2  5  1 -1</clus>
</clustering>
</event>
<event>
10    4  0.2977685E-005  0.1228658E+03  0.7546771E-02  0.1243746E+00
         21   -1    0    0  501  502  0.00000000000E+00  0.00000000000E+00  0.36066455612E+03  0.36066455612E+03  0.00000000000E+00 0.  1.
          2   -1    0    0  503    0 -0.00000000000E+00 -0.00000000000E+00 -0.53354442551E+03  0.53354442551E+03  0.00000000000E+00 0. -1.
         24    2    1    2    0    0 -0.25173333843E+02 -0.49428812286E+02 -0.46677151303E+03  0.47692764229E+03  0.80668620804E+02 0.  0.
         23    2    1    2    0    0 -0.13830116198E+02  0.57773463293E+02  0.32142855025E+03  0.34098872500E+03  0.97097644094E+02 0.  0.
        -13    1    3    3    0    0 -0.32191934264E+02  0.12665131588E+02 -0.19689932400E+03  0.19991515696E+03  0.00000000000E+00 0.  1.
         14    1    3    3    0    0  0.70186004203E+01 -0.62093943874E+02 -0.26987218903E+03  0.27701248533E+03  0.00000000000E+00 0. -1.
        -13    1    4    4    0    0 -0.27399785321E+02  0.81603994815E+02  0.23227180708E+03  0.24770981525E+03  0.00000000000E+00 0.  1.
         13    1    4    4    0    0  0.13569669124E+02 -0.23830531522E+02  0.89156743164E+02  0.93278909751E+02  0.00000000000E+00 0. -1.
         21    1    1    2  503  502  0.24872218398E+02 -0.27722665241E+02 -0.35066627567E+02  0.51155075848E+02  0.00000000000E+00 0. -1.
          1    1    1    2  501    0  0.14131231643E+02  0.19378014234E+02  0.75297209599E+01  0.25137538486E+02  0.00000000000E+00 0. -1.
<scales pt_clust_5="13000.00000" pt_clust_6="13000.00000" pt_clust_7="13000.00000" pt_clust_8="13000.00000" pt_clust_9="37.13232" pt_clust_10="23.98331"></scales>
<clustering>
<clus scale="   23.983">  1 10  2 -1</clus>
<clus scale="   37.132">  2  9  1 -1</clus>
<clus scale="   80.669">  5  6 -1 -1</clus>
<clus scale="   97.098">  7  8 -1 -1</clus>
<clus scale="  110.343">  2  5  1 -1</clus>
<clus scale="   23.983">  1  5  2 -1</clus>
</clustering>
</event>
<event>
10    4  0.2977685E-005  0.1512779E+03  0.7546771E-02  0.1205254E+00
          2   -1    0    0  503    0 -0.00000000000E+00  0.00000000000E+00  0.52181956721E+03  0.52181956721E+03  0.00000000000E+00 0. -1.
         21   -1    0    0  501  502  0.00000000000E+00 -0.00000000000E+00 -0.16391487028E+03  0.16391487028E+03  0.00000000000E+00 0. -1.
         23    2    1    2    0    0 -0.51432054304E+02 -0.81039227376E+02 -0.38536950149E+02  0.13753120585E+03  0.90648350638E+02 0.  0.
         24    2    1    2    0    0 -0.10050644662E+03 -0.16847206191E+02  0.76286945423E+02  0.14984765216E+03  0.79052176743E+02 0.  0.
        -11    1    4    4    0    0 -0.10984901167E+03 -0.19583319692E+02  0.50869280115E+02  0.12262950475E+03  0.00000000000E+00 0.  1.
         12    1    4    4    0    0  0.93425650536E+01  0.27361135008E+01  0.25417665308E+02  0.27218147412E+02  0.00000000000E+00 0. -1.
        -13    1    3    3    0    0 -0.17936627390E+02  0.13976799242E+02  0.11004566278E+02  0.25262105972E+02  0.00000000000E+00 0.  1.
         13    1    3    3    0    0 -0.33495426914E+02 -0.95016026619E+02 -0.49541516427E+02  0.11226909988E+03  0.00000000000E+00 0. -1.
         21    1    1    2  503  502 -0.26716371948E+02  0.19819445353E+02  0.94268265754E+02  0.99965398376E+02  0.00000000000E+00 0. -1.
          1    1    1    2  501    0  0.17865487287E+03  0.78066988215E+02  0.22588643590E+03  0.29839018109E+03  0.00000000000E+00 0. -1.
<scales pt_clust_5="13000.00000" pt_clust_6="13000.00000" pt_clust_7="13000.00000" pt_clust_8="13000.00000" pt_clust_9="33.26522" pt_clust_10="128.97969"></scales>
<clustering>
<clus scale="   33.265">  1  9  2 -1</clus>
<clus scale="   79.052">  5  6 -1 -1</clus>
<clus scale="   90.648">  7  8 -1 -1</clus>
<clus scale="  131.874">  1  7  2 -1</clus>
<clus scale="  128.980">  2 10  1 -1</clus>
<clus scale="  128.980">  2  5  1 -1</clus>
</clustering>
</event>
<event>
10    4  0.2977685E-005  0.1378759E+03  0.7546771E-02  0.1218951E+00
         21   -1    0    0  503  502  0.00000000000E+00  0.00000000000E+00  0.19137424877E+03  0.19137424877E+03  0.00000000000E+00 0. -1.
         -1   -1    0    0    0  501 -0.00000000000E+00 -0.00000000000E+00 -0.35067320461E+03  0.35067320461E+03  0.00000000000E+00 0.  1.
         23    2    1    2    0    0 -0.19359558768E+02  0.10679597693E+03 -0.10761376137E+03  0.17832796388E+03  0.91869297702E+02 0.  0.
         24    2    1    2    0    0 -0.90724557083E+02 -0.48796462694E+02  0.54660563789E+02  0.14131271228E+03  0.79808930507E+02 0.  0.
        -11    1    4    4    0    0 -0.28254379400E+02 -0.31125304224E+01 -0.19223663112E+02  0.34315405059E+02  0.00000000000E+00 0.  1.
         12    1    4    4    0    0 -0.62470177683E+02 -0.45683932271E+02  0.73884226902E+02  0.10699730722E+03  0.00000000000E+00 0. -1.
        -13    1    3    3    0    0 -0.55473976841E+02  0.78811379460E+02 -0.76561481295E+02  0.12308637641E+03  0.00000000000E+00 0. -1.
         13    1    3    3    0    0  0.36114418074E+02  0.27984597472E+02 -0.31052280074E+02  0.55241587470E+02  0.00000000000E+00 0.  1.
         21    1    1    2  503  501  0.10197760795E+03  0.28234541380E+02 -0.39304968867E+02  0.11287826376E+03  0.00000000000E+00 0. -1.
         -2    1    1    2    0  502  0.81065078975E+01 -0.86234055619E+02 -0.67040789398E+02  0.10952851346E+03  0.00000000000E+00 0.  1.
<scales pt_clust_5="13000.00000" pt_clust_6="13000.00000" pt_clust_7="13000.00000" pt_clust_8="13000.00000" pt_clust_9="104.17267" pt_clust_10="86.61429"></scales>
<clustering>
<clus scale="   79.809">  5  6 -1 -1</clus>
<clus scale="   86.614">  1 10  2 -1</clus>
<clus scale="   91.869">  7  8 -1 -1</clus>
<clus scale="  104.173">  2  9  1 -1</clus>
<clus scale="  130.151">  1  5  2 -1</clus>
<clus scale="   86.614">  1  5  2 -1</clus>
</clustering>
</event>
<event>
10    4  0.2977685E-005  0.1374134E+03  0.7546771E-02  0.1224267E+00
         21   -1    0    0  501  502  0.00000000000E+00  0.00000000000E+00  0.84292448959E+02  0.84292448959E+02  0.00000000000E+00 0.  1.
          2   -1    0    0  503    0 -0.00000000000E+00 -0.00000000000E+00 -0.68144457102E+03  0.68144457102E+03  0.00000000000E+00 0. -1.
         23    2    1    2    0    0 -0.46802638901E+02 -0.43866281790E+02 -0.15214253034E+03  0.18825445719E+03  0.90430378896E+02 0.  0.
         24    2    1    2    0    0  0.80221228242E+02 -0.83299281939E+02 -0.30403382948E+03  0.33518445091E+03  0.80856853957E+02 0.  0.
        -13    1    4    4    0    0  0.56826455809E+02 -0.34180327313E+02 -0.76521772559E+02  0.10125770356E+03  0.00000000000E+00 0.  1.
         14    1    4    4    0    0  0.23394772433E+02 -0.49118954627E+02 -0.22751205693E+03  0.23392674735E+03  0.00000000000E+00 0. -1.
        -11    1    3    3    0    0 -0.55801926479E+02 -0.63609892763E+02 -0.95478995589E+02  0.12757865047E+03  0.00000000000E+00 0.  1.
         11    1    3    3    0    0  0.89992875773E+01  0.19743610973E+02 -0.56663534747E+02  0.60675806720E+02  0.00000000000E+00 0. -1.
         21    1    1    2  503  502 -0.54144471272E+02  0.88954688505E+01 -0.10241170818E+03  0.11618481444E+03  0.00000000000E+00 0. -1.
          1    1    1    2  501    0  0.20725881932E+02  0.11827009488E+03 -0.38564054067E+02  0.12611329744E+03  0.00000000000E+00 0. -1.
<scales pt_clust_5="13000.00000" pt_clust_6="13000.00000" pt_clust_7="13000.00000" pt_clust_8="13000.00000" pt_clust_9="54.87033" pt_clust_10="111.10636"></scales>
<clustering>
<clus scale="   54.870">  2  9  1 -1</clus>
<clus scale="   80.857">  5  6 -1 -1</clus>
<clus scale="   90.430">  7  8 -1 -1</clus>
<clus scale="  117.619">  2  7  1 -1</clus>
<clus scale="  111.106">  1 10  2 -1</clus>
<clus scale="  111.106">  1  5  2 -1</clus>
</clustering>
</event>
<event>
10    4  0.2977685E-005  0.1748671E+03  0.7546771E-02  0.1174214E+00
         21   -1    0    0  501  502  0.00000000000E+00  0.00000000000E+00  0.64163452852E+02  0.64163452852E+02  0.00000000000E+00 0. -1.
          2   -1    0    0  503    0 -0.00000000000E+00 -0.00000000000E+00 -0.11815870107E+04  0.11815870107E+04  0.00000000000E+00 0. -1.
         24    2    1    2    0    0  0.15110855207E+03  0.49691025566E+02 -0.26275056151E+03  0.31774552108E+03  0.81371776823E+02 0.  0.
         23    2    1    2    0    0 -0.12307780489E+03 -0.83692654304E+02 -0.26738257054E+03  0.31950913838E+03  0.91869712297E+02 0.  0.
        -13    1    3    3    0    0  0.35980038881E+02  0.52340967613E+02 -0.93381014838E+02  0.11293429072E+03  0.00000000000E+00 0.  1.
         14    1    3    3    0    0  0.11512851319E+03 -0.26499420479E+01 -0.16936954667E+03  0.20481123036E+03  0.00000000000E+00 0. -1.
        -13    1    4    4    0    0 -0.92435073278E+02 -0.81646395704E+01 -0.12903886246E+03  0.15894002685E+03  0.00000000000E+00 0. -1.
         13    1    4    4    0    0 -0.30642731609E+02 -0.75528014734E+02 -0.13834370808E+03  0.16056911153E+03  0.00000000000E+00 0.  1.
         21    1    1    2  503  502 -0.54326004129E+02 -0.30886151787E+02 -0.45065217879E+03  0.45496445504E+03  0.00000000000E+00 0. -1.
          1    1    1    2  501    0  0.26295256948E+02  0.64887780526E+02 -0.13663824703E+03  0.15353134908E+03  0.00000000000E+00 0. -1.
<scales pt_clust_5="13000.00000" pt_clust_6="13000.00000" pt_clust_7="13000.00000" pt_clust_8="13000.00000" pt_clust_9="62.49215" pt_clust_10="60.74459"></scales>
<clustering>
<clus scale="   62.492">  2  9  1 -1</clus>
<clus scale="   60.745">  1 10  2 -1</clus>
<clus scale="   81.372">  5  6 -1 -1</clus>
<clus scale="   91.870">  7  8 -1 -1</clus>
<clus scale="  169.587">  2  5  1 -1</clus>
<clus scale="   60.745">  1  5  2 -1</clus>
</clustering>
</event>
<event>
10    4  0.2977685E-005  0.1518435E+03  0.7546771E-02  0.1200206E+00
         21   -1    0    0  503  502  0.00000000000E+00  0.00000000000E+00  0.38293561026E+03  0.38293561026E+03  0.00000000000E+00 0.  1.
         -3   -1    0    0    0  501 -0.00000000000E+00 -0.00000000000E+00 -0.94590159224E+02  0.94590159224E+02  0.00000000000E+00 0.  1.
         24    2    1    2    0    0  0.11840622384E+03  0.25389353325E+01  0.50907315866E+02  0.15207216383E+03  0.80671606932E+02 0.  0.
         23    2    1    2    0    0 -0.10801470824E+03  0.23761514045E+02  0.22152402567E+03  0.26403655829E+03  0.91709451099E+02 0.  0.
        -11    1    3    3    0    0  0.10511778153E+03  0.95455858030E+00  0.71770508318E+02  0.12728576134E+03  0.00000000000E+00 0.  1.
         12    1    3    3    0    0  0.13288442306E+02  0.15843767522E+01 -0.20863192453E+02  0.24786402480E+02  0.00000000000E+00 0. -1.
        -13    1    4    4    0    0 -0.38323371621E+02 -0.13114664002E+02  0.15703863202E+03  0.16217831906E+03  0.00000000000E+00 0.  1.
         13    1    4    4    0    0 -0.69691336615E+02  0.36876178048E+02  0.64485393648E+02  0.10185823924E+03  0.00000000000E+00 0. -1.
         21    1    1    2  503  501  0.16727155349E+02 -0.21093123944E+02 -0.42103987522E+01  0.27247845079E+02  0.00000000000E+00 0.  1.
         -4    1    1    2    0  502 -0.27118670953E+02 -0.52073254337E+01  0.20124508251E+02  0.34169202285E+02  0.00000000000E+00 0.  1.
<scales pt_clust_5="13000.00000" pt_clust_6="13000.00000" pt_clust_7="13000.00000" pt_clust_8="13000.00000" pt_clust_9="26.92058" pt_clust_10="26.59061"></scales>
<clustering>
<clus scale="   26.921">  2  9  1 -1</clus>
<clus scale="   26.591">  1 10  2 -1</clus>
<clus scale="   80.672">  5  6 -1 -1</clus>
<clus scale="   91.709">  7  8 -1 -1</clus>
<clus scale="  145.443">  2  5  1 -1</clus>
<clus scale="   26.591">  1  5  2 -1</clus>
</clustering>
</event>
<event>
10    4  0.2977685E-005  0.1962267E+03  0.7546771E-02  0.1154082E+00
          2   -1    0    0  503    0 -0.00000000000E+00  0.00000000000E+00  0.37109695428E+03  0.37109695428E+03  0.00000000000E+00 0. -1.
         21   -1    0    0  501  502  0.00000000000E+00 -0.00000000000E+00 -0.28663958767E+03  0.28663958767E+03  0.00000000000E+00 0. -1.
         24    2    1    2    0    0  0.35768263980E+02  0.18551722006E+03  0.23903152625E+03  0.31495823939E+03  0.79791066955E+02 0.  0.
         23    2    1    2    0    0 -0.50491742753E+01 -0.16647802270E+03 -0.18417149308E+03  0.26458390406E+03  0.91351394190E+02 0.  0.
        -11    1    3    3    0    0 -0.20036930821E+02  0.13276697766E+02  0.28074517232E+02  0.36958460711E+02  0.00000000000E+00 0.  1.
         12    1    3    3    0    0  0.55805194801E+02  0.17224052230E+03  0.21095700902E+03  0.27799977868E+03  0.00000000000E+00 0. -1.
        -11    1    4    4    0    0  0.16385972351E+01 -0.40262414857E+02  0.10942855790E+01  0.40310600491E+02  0.00000000000E+00 0.  1.
         11    1    4    4    0    0 -0.66877715104E+01 -0.12621560785E+03 -0.18526577866E+03  0.22427330357E+03  0.00000000000E+00 0. -1.
         21    1    1    2  503  502  0.88359505240E+01 -0.19250974894E+02  0.32212084906E+02  0.38552463864E+02  0.00000000000E+00 0. -1.
          1    1    1    2  501    0 -0.39555040229E+02  0.21177753252E+00 -0.26147514692E+01  0.39641934646E+02  0.00000000000E+00 0. -1.
<scales pt_clust_5="13000.00000" pt_clust_6="13000.00000" pt_clust_7="13000.00000" pt_clust_8="13000.00000" pt_clust_9="21.18193" pt_clust_10="39.07701"></scales>
<clustering>
<clus scale="   21.182">  1  9  2 -1</clus>
<clus scale="   39.077">  2 10  1 -1</clus>
<clus scale="   79.791">  5  6 -1 -1</clus>
<clus scale="   91.351">  7  8 -1 -1</clus>
<clus scale="  191.119">  1  5  2 -1</clus>
<clus scale="   39.077">  2  5  1 -1</clus>
</clustering>
</event>
<event>
10    4  0.2977685E-005  0.1208831E+03  0.7546771E-02  0.1267655E+00
          2   -1    0    0  503    0 -0.00000000000E+00  0.00000000000E+00  0.65347121010E+03  0.65347121010E+03  0.00000000000E+00 0. -1.
         21   -1    0    0  501  502  0.00000000000E+00 -0.00000000000E+00 -0.77223336434E+02  0.77223336434E+02  0.00000000000E+00 0. -1.
         24    2    1    2    0    0 -0.51669400728E+01  0.19238355897E+02  0.30003971017E+03  0.30901148232E+03  0.71186072498E+02 0.  0.
         23    2    1    2    0    0  0.53780221784E+02  0.67789742005E+02  0.15105525764E+03  0.19756067371E+03  0.93406464237E+02 0.  0.
        -11    1    3    3    0    0 -0.30653418023E+02 -0.11367562283E+02  0.10603437120E+03  0.11096008915E+03  0.00000000000E+00 0.  1.
         12    1    3    3    0    0  0.25486477950E+02  0.30605918180E+02  0.19400533897E+03  0.19805139317E+03  0.00000000000E+00 0. -1.
        -13    1    4    4    0    0  0.17811109133E+02  0.50592796393E+02  0.14870012807E+02  0.55659535898E+02  0.00000000000E+00 0. -1.
         13    1    4    4    0    0  0.35969112650E+02  0.17196945611E+02  0.13618524483E+03  0.14190113782E+03  0.00000000000E+00 0.  1.
         21    1    1    2  503  502 -0.90999247983E+01 -0.23073669444E+02  0.14440535733E+03  0.14651999890E+03  0.00000000000E+00 0.  1.
          1    1    1    2  501    0 -0.39513356912E+02 -0.63954428457E+02 -0.19252451477E+02  0.77602391597E+02  0.00000000000E+00 0. -1.
<scales pt_clust_5="13000.00000" pt_clust_6="13000.00000" pt_clust_7="13000.00000" pt_clust_8="13000.00000" pt_clust_9="24.80328" pt_clust_10="76.73299"></scales>
<clustering>
<clus scale="   24.803">  1  9  2 -1</clus>
<clus scale="   71.186">  5  6 -1 -1</clus>
<clus scale="   72.177">  1  5  2 -1</clus>
<clus scale="   76.733">  2 10  1 -1</clus>
<clus scale="   93.406">  7  8 -1 -1</clus>
<clus scale="   76.733">  2  5  1 -1</clus>
</clustering>
</event>
<event>
10    4  0.2977685E-005  0.1324969E+03  0.7546771E-02  0.1244893E+00
         21   -1    0    0  501  502  0.00000000000E+00  0.00000000000E+00  0.78289237862E+02  0.78289237862E+02  0.00000000000E+00 0.  1.
          2   -1    0    0  503    0 -0.00000000000E+00 -0.00000000000E+00 -0.59999987063E+03  0.59999987063E+03  0.00000000000E+00 0. -1.
         24    2    1    2    0    0 -0.90197537680E+01 -0.11342465094E+02 -0.26233445761E+03  0.27634850088E+03  0.85668657162E+02 0.  0.
         23    2    1    2    0    0 -0.88881358957E+02 -0.59059414818E+02 -0.64903340862E+02  0.15501009595E+03  0.91802917948E+02 0.  0.
        -13    1    3    3    0    0  0.23613764739E+01  0.36277708858E+02 -0.86608140304E+02  0.93928793380E+02  0.00000000000E+00 0.  1.
         14    1    3    3    0    0 -0.11381130242E+02 -0.47620173952E+02 -0.17572631730E+03  0.18241970750E+03  0.00000000000E+00 0. -1.
        -13    1    4    4    0    0 -0.57563282930E+01 -0.53129786118E+02 -0.78481185185E+01  0.54013909807E+02  0.00000000000E+00 0. -1.
         13    1    4    4    0    0 -0.83125030664E+02 -0.59296287002E+01 -0.57055222344E+02  0.10099618615E+03  0.00000000000E+00 0.  1.
         21    1    1    2  503  502  0.19595141174E+02  0.31030027105E+02 -0.13769135663E+03  0.14249821693E+03  0.00000000000E+00 0. -1.
          1    1    1    2  501    0  0.78305971552E+02  0.39371852807E+02 -0.56781477674E+02  0.10443229472E+03  0.00000000000E+00 0. -1.
<scales pt_clust_5="13000.00000" pt_clust_6="13000.00000" pt_clust_7="13000.00000" pt_clust_8="13000.00000" pt_clust_9="36.69921" pt_clust_10="95.53881"></scales>
<clustering>
<clus scale="   36.699">  2  9  1 -1</clus>
<clus scale="   85.669">  5  6 -1 -1</clus>
<clus scale="   85.976">  2  5  1 -1</clus>
<clus scale="   91.803">  7  8 -1 -1</clus>
<clus scale="   95.539">  1 10  2 -1</clus>
<clus scale="   95.539">  1  5  2 -1</clus>
</clustering>
</event>
<event>
10    4  0.2977685E-005  0.1631115E+03  0.7546771E-02  0.1212218E+00
         21   -1    0    0  501  502  0.00000000000E+00  0.00000000000E+00  0.71911924756E+02  0.71911924756E+02  0.00000000000E+00 0.  1.
          2   -1    0    0  503    0 -0.00000000000E+00 -0.00000000000E+00 -0.88638741633E+03  0.88638741633E+03  0.00000000000E+00 0. -1.
         24    2    1    2    0    0 -0.40809641637E+02  0.42577558860E+01 -0.80061849150E+02  0.11781593488E+03  0.76073250798E+02 0.  0.
         23    2    1    2    0    0  0.15596007118E+03 -0.49236799275E+02 -0.16497728018E+03  0.25075657720E+03  0.94411608543E+02 0.  0.
        -13    1    3    3    0    0 -0.11918681081E+00  0.22346464671E+02 -0.68150016649E+02  0.71720314124E+02  0.00000000000E+00 0.  1.
         14    1    3    3    0    0 -0.40690454827E+02 -0.18088708785E+02 -0.11911832502E+02  0.46095620758E+02  0.00000000000E+00 0. -1.
        -11    1    4    4    0    0  0.75476962217E+02  0.18273210562E+02 -0.10227973504E+03  0.12842050556E+03  0.00000000000E+00 0. -1.
         11    1    4    4    0    0  0.80483108958E+02 -0.67510009837E+02 -0.62697545145E+02  0.12233607163E+03  0.00000000000E+00 0.  1.
         21    1    1    2  503  502 -0.61190151188E+02 -0.17413561727E+02 -0.16241830632E+03  0.17443386415E+03  0.00000000000E+00 0. -1.
          1    1    1    2  501    0 -0.53960278350E+02  0.62392605117E+02 -0.40701805592E+03  0.41529296486E+03  0.00000000000E+00 0. -1.
<scales pt_clust_5="13000.00000" pt_clust_6="13000.00000" pt_clust_7="13000.00000" pt_clust_8="13000.00000" pt_clust_9="63.61970" pt_clust_10="133.01062"></scales>
<clustering>
<clus scale="   63.620">  2  9  1 -1</clus>
<clus scale="   76.073">  5  6 -1 -1</clus>
<clus scale="   90.639">  2  5  1 -1</clus>
<clus scale="   94.412">  7  8 -1 -1</clus>
<clus scale="  133.011">  1 10  2 -1</clus>
<clus scale="  133.011">  1  5  2 -1</clus>
</clustering>
</event>
<event>
10    4  0.2977685E-005  0.1664246E+03  0.7546771E-02  0.1207099E+00
         21   -1    0    0  501  502  0.00000000000E+00  0.00000000000E+00  0.47247677196E+03  0.47247677196E+03  0.00000000000E+00 0. -1.
          2   -1    0    0  503    0 -0.00000000000E+00 -0.00000000000E+00 -0.55661160373E+03  0.55661160373E+03  0.00000000000E+00 0. -1.
         24    2    1    2    0    0 -0.15977571468E+03 -0.37921153159E+01  0.94307569129E+02  0.20193126117E+03  0.79621966197E+02 0.  0.
         23    2    1    2    0    0 -0.78485297612E+01 -0.38254495998E+02  0.62097639918E+01  0.98705167303E+02  0.90438614541E+02 0.  0.
        -13    1    3    3    0    0 -0.87899771507E+02  0.72794833361E+01  0.94420439895E+02  0.12920750821E+03  0.00000000000E+00 0.  1.
         14    1    3    3    0    0 -0.71875943178E+02 -0.11071598652E+02 -0.11287076527E+00  0.72723752958E+02  0.00000000000E+00 0. -1.
        -11    1    4    4    0    0 -0.13577853004E+02 -0.59401817660E+02 -0.20379904749E+02  0.64251650182E+02  0.00000000000E+00 0.  1.
         11    1    4    4    0    0  0.57293232426E+01  0.21147321662E+02  0.26589668740E+02  0.34453517121E+02  0.00000000000E+00 0. -1.
         21    1    1    2  503  502  0.14490075606E+03  0.71599443100E+01 -0.44331999963E+03  0.46645483809E+03  0.00000000000E+00 0. -1.
          1    1    1    2  501    0  0.22723488390E+02  0.34886667004E+02  0.25866783474E+03  0.26199710913E+03  0.00000000000E+00 0. -1.
<scales pt_clust_5="13000.00000" pt_clust_6="13000.00000" pt_clust_7="13000.00000" pt_clust_8="13000.00000" pt_clust_9="146.14201" pt_clust_10="41.63456"></scales>
<clustering>
<clus scale="   41.635">  1 10  2 -1</clus>
<clus scale="   79.622">  5  6 -1 -1</clus>
<clus scale="   90.439">  7  8 -1 -1</clus>
<clus scale="   95.194">  1  7  2 -1</clus>
<clus scale="  146.142">  2  9  1 -1</clus>
<clus scale="   41.635">  1  5  2 -1</clus>
</clustering>
</event>
<event>
10    4  0.2977685E-005  0.9661037E+02  0.7546771E-02  0.1292663E+00
         21   -1    0    0  503  502  0.00000000000E+00  0.00000000000E+00  0.50859129437E+02  0.50859129437E+02  0.00000000000E+00 0. -1.
         -3   -1    0    0    0  501 -0.00000000000E+00 -0.00000000000E+00 -0.52745570366E+03  0.52745570366E+03  0.00000000000E+00 0.  1.
         23    2    1    2    0    0  0.45325097791E+02 -0.15977748444E+02 -0.25528125632E+03  0.27567663695E+03  0.92300787638E+02 0.  0.
         24    2    1    2    0    0 -0.28927560386E+02 -0.18057921272E+02 -0.20424412679E+02  0.92111049030E+02  0.83092697932E+02 0.  0.
        -11    1    4    4    0    0  0.34102443609E+01  0.27764521007E+02 -0.22634193105E+02  0.35983400213E+02  0.00000000000E+00 0.  1.
         12    1    4    4    0    0 -0.32337804747E+02 -0.45822442279E+02  0.22097804261E+01  0.56127648818E+02  0.00000000000E+00 0. -1.
        -11    1    3    3    0    0  0.65360424752E+02 -0.36726458109E+02 -0.17556640681E+03  0.19090411480E+03  0.00000000000E+00 0.  1.
         11    1    3    3    0    0 -0.20035326961E+02  0.20748709665E+02 -0.79714849508E+02  0.84772522148E+02  0.00000000000E+00 0. -1.
         21    1    1    2  503  501 -0.30786341551E+02  0.65535114733E+01 -0.88366179368E+02  0.93804738658E+02  0.00000000000E+00 0.  1.
         -4    1    1    2    0  502  0.14388804146E+02  0.27482158243E+02 -0.11252472586E+03  0.11672240846E+03  0.00000000000E+00 0.  1.
<scales pt_clust_5="13000.00000" pt_clust_6="13000.00000" pt_clust_7="13000.00000" pt_clust_8="13000.00000" pt_clust_9="31.05511" pt_clust_10="31.02108"></scales>
<clustering>
<clus scale="   31.021">  1 10  2 -1</clus>
<clus scale="   31.055">  2  9  1 -1</clus>
<clus scale="   83.093">  5  6 -1 -1</clus>
<clus scale="   87.855">  1  5  2 -1</clus>
<clus scale="   92.301">  7  8 -1 -1</clus>
<clus scale="   31.021">  1  5  2 -1</clus>
</clustering>
</event>
<event>
10    4  0.2977685E-005  0.1065977E+03  0.7546771E-02  0.1273632E+00
         21   -1    0    0  503  502  0.00000000000E+00  0.00000000000E+00  0.42349021004E+02  0.42349021004E+02  0.00000000000E+00 0.  1.
         -3   -1    0    0    0  501 -0.00000000000E+00 -0.00000000000E+00 -0.81148066402E+03  0.81148066402E+03  0.00000000000E+00 0.  1.
         24    2    1    2    0    0 -0.91252513125E+01  0.50412186098E+02 -0.32729476859E+03  0.34080040959E+03  0.79989967565E+02 0.  0.
         23    2    1    2    0    0  0.71766340077E+01 -0.20585111979E+02 -0.38087177637E+02  0.10436902044E+03  0.94694289248E+02 0.  0.
        -13    1    3    3    0    0  0.95717005708E+01 -0.19048750020E+02 -0.50586041740E+02  0.54894625858E+02  0.00000000000E+00 0.  1.
         14    1    3    3    0    0 -0.18696951883E+02  0.69460936118E+02 -0.27670872685E+03  0.28590578374E+03  0.00000000000E+00 0. -1.
        -13    1    4    4    0    0  0.40412378560E+02  0.14492563094E+02 -0.14823316043E+00  0.42932699647E+02  0.00000000000E+00 0.  1.
         13    1    4    4    0    0 -0.33235744552E+02 -0.35077675073E+02 -0.37938944476E+02  0.61436320792E+02  0.00000000000E+00 0. -1.
         21    1    1    2  503  501  0.17234496611E+02  0.10344864003E+02 -0.13834820154E+03  0.13980081886E+03  0.00000000000E+00 0.  1.
         -4    1    1    2    0  502 -0.15285879306E+02 -0.40171938122E+02 -0.26540149525E+03  0.26885943613E+03  0.00000000000E+00 0.  1.
<scales pt_clust_5="13000.00000" pt_clust_6="13000.00000" pt_clust_7="13000.00000" pt_clust_8="13000.00000" pt_clust_9="20.10085" pt_clust_10="37.03646"></scales>
<clustering>
<clus scale="   20.101">  2  9  1 -1</clus>
<clus scale="   37.036">  1 10  2 -1</clus>
<clus scale="   79.990">  5  6 -1 -1</clus>
<clus scale="   93.779">  2  5  1 -1</clus>
<clus scale="   94.694">  7  8 -1 -1</clus>
<clus scale="   37.036">  1  5  2 -1</clus>
</clustering>
</event>
<event>
10    4  0.2977685E-005  0.1567000E+03  0.7546771E-02  0.1194403E+00
         21   -1    0    0  503  502  0.00000000000E+00  0.00000000000E+00  0.14075669799E+03  0.14075669799E+03  0.00000000000E+00 0. -1.
         -1   -1    0    0    0  501 -0.00000000000E+00 -0.00000000000E+00 -0.40929777030E+03  0.40929777030E+03  0.00000000000E+00 0.  1.
         23    2    1    2    0    0 -0.41814415000E+02  0.13725386037E+03 -0.21626775570E+03  0.27289374889E+03  0.84333792386E+02 0.  0.
         24    2    1    2    0    0 -0.26491725830E+01 -0.10003788545E+03  0.53428923781E+02  0.14824565219E+03  0.95433363432E+02 0.  0.
        -11    1    4    4    0    0 -0.37540301938E+02 -0.14832294043E+02 -0.26296377855E+01  0.40449798653E+02  0.00000000000E+00 0.  1.
         12    1    4    4    0    0  0.34891129355E+02 -0.85205591409E+02  0.56058561566E+02  0.10779585354E+03  0.00000000000E+00 0. -1.
        -11    1    3    3    0    0 -0.45101744150E+02  0.24571708810E+02 -0.90015018642E+02  0.10363705795E+03  0.00000000000E+00 0. -1.
         11    1    3    3    0    0  0.32873291505E+01  0.11268215156E+03 -0.12625273706E+03  0.16925669094E+03  0.00000000000E+00 0.  1.
         21    1    1    2  503  501 -0.32343917166E+01 -0.19997134044E+02 -0.47981389637E+02  0.52082246603E+02  0.00000000000E+00 0. -1.
         -2    1    1    2    0  502  0.47697979299E+02 -0.17218840870E+02 -0.57720850751E+02  0.76832820601E+02  0.00000000000E+00 0.  1.
<scales pt_clust_5="13000.00000" pt_clust_6="13000.00000" pt_clust_7="13000.00000" pt_clust_8="13000.00000" pt_clust_9="20.25702" pt_clust_10="51.54762"></scales>
<clustering>
<clus scale="   20.257">  2  9  1 -1</clus>
<clus scale="   51.548">  1 10  2 -1</clus>
<clus scale="   84.334">  7  8 -1 -1</clus>
<clus scale="   95.433">  5  6 -1 -1</clus>
<clus scale="  150.198">  2  7  1 -1</clus>
<clus scale="   51.548">  1  5  2 -1</clus>
</clustering>
</event>
<event>
10    4  0.2977685E-005  0.1530811E+03  0.7546771E-02  0.1213172E+00
          2   -1    0    0  503    0 -0.00000000000E+00  0.00000000000E+00  0.28421666032E+03  0.28421666032E+03  0.00000000000E+00 0. -1.
         21   -1    0    0  501  502  0.00000000000E+00 -0.00000000000E+00 -0.21351715001E+03  0.21351715001E+03  0.00000000000E+00 0.  1.
         24    2    1    2    0    0 -0.25117146722E+02 -0.11570296763E+03 -0.43316277307E+02  0.14480286151E+03  0.71228653243E+02 0.  0.
         23    2    1    2    0    0 -0.23851245713E+02  0.14116969953E+02 -0.38063384157E+02  0.11086967743E+03  0.10037476474E+03 0.  0.
        -11    1    3    3    0    0 -0.14307169505E+02 -0.11293679648E+03 -0.56864098456E+02  0.12725148640E+03  0.00000000000E+00 0.  1.
         12    1    3    3    0    0 -0.10809977217E+02 -0.27661711542E+01  0.13547821149E+02  0.17551375107E+02  0.00000000000E+00 0. -1.
        -13    1    4    4    0    0  0.73328601800E+01  0.51555454819E+02 -0.33528202065E+02  0.61934449975E+02  0.00000000000E+00 0.  1.
         13    1    4    4    0    0 -0.31184105893E+02 -0.37438484866E+02 -0.45351820921E+01  0.48935227455E+02  0.00000000000E+00 0. -1.
         21    1    1    2  503  502  0.84838463951E+02  0.11575816320E+03  0.14265979838E+03  0.20235942129E+03  0.00000000000E+00 0. -1.
          1    1    1    2  501    0 -0.35870071515E+02 -0.14172165522E+02  0.94193733952E+01  0.39701850098E+02  0.00000000000E+00 0. -1.
<scales pt_clust_5="13000.00000" pt_clust_6="13000.00000" pt_clust_7="13000.00000" pt_clust_8="13000.00000" pt_clust_9="135.50018" pt_clust_10="38.56830"></scales>
<clustering>
<clus scale="   38.568">  2 10  1 -1</clus>
<clus scale="   71.229">  5  6 -1 -1</clus>
<clus scale="  100.375">  7  8 -1 -1</clus>
<clus scale="  107.448">  2  7  1 -1</clus>
<clus scale="  135.500">  1  9  2 -1</clus>
<clus scale="   38.568">  2  5  1 -1</clus>
</clustering>
</event>
<event>
10    4  0.2977685E-005  0.1404896E+03  0.7546771E-02  0.1215586E+00
         21   -1    0    0  501  502  0.00000000000E+00  0.00000000000E+00  0.28903012253E+03  0.28903012253E+03  0.00000000000E+00 0.  1.
          2   -1    0    0  503    0 -0.00000000000E+00 -0.00000000000E+00 -0.75286768984E+03  0.75286768984E+03  0.00000000000E+00 0. -1.
         24    2    1    2    0    0 -0.11140577440E+03  0.72945449141E+02 -0.61834640898E+03  0.63754444167E+03  0.79864563422E+02 0.  0.
         23    2    1    2    0    0  0.14333275780E+02 -0.34149765705E+02  0.12824342228E+03  0.16276001635E+03  0.93127859794E+02 0.  0.
        -13    1    3    3    0    0 -0.16110755643E+01  0.40810754530E+02 -0.16850870737E+03  0.17338770922E+03  0.00000000000E+00 0.  1.
         14    1    3    3    0    0 -0.10979469884E+03  0.32134694611E+02 -0.44983770161E+03  0.46415673245E+03  0.00000000000E+00 0. -1.
        -11    1    4    4    0    0  0.31379732403E+02  0.13622483406E+02  0.12554188108E+02  0.36439913541E+02  0.00000000000E+00 0.  1.
         11    1    4    4    0    0 -0.17046456623E+02 -0.47772249112E+02  0.11568923418E+03  0.12632010281E+03  0.00000000000E+00 0. -1.
         21    1    1    2  503  502  0.10484128457E+02 -0.30237178638E+02 -0.90489790301E+02  0.95982321655E+02  0.00000000000E+00 0. -1.
          1    1    1    2  501    0  0.86588370167E+02 -0.85585047976E+01  0.11675520968E+03  0.14561103269E+03  0.00000000000E+00 0. -1.
<scales pt_clust_5="13000.00000" pt_clust_6="13000.00000" pt_clust_7="13000.00000" pt_clust_8="13000.00000" pt_clust_9="32.00319" pt_clust_10="87.30588"></scales>
<clustering>
<clus scale="   32.003">  2  9  1 -1</clus>
<clus scale="   79.865">  5  6 -1 -1</clus>
<clus scale="   87.306">  1 10  2 -1</clus>
<clus scale="   93.128">  7  8 -1 -1</clus>
<clus scale="  132.071">  2  5  1 -1</clus>
<clus scale="   87.306">  1  5  2 -1</clus>
</clustering>
</event>
<event>
10    4  0.2977685E-005  0.2040156E+03  0.7546771E-02  0.1147342E+00
         21   -1    0    0  501  502  0.00000000000E+00  0.00000000000E+00  0.69409076332E+02  0.69409076332E+02  0.00000000000E+00 0. -1.
          2   -1    0    0  503    0 -0.00000000000E+00 -0.00000000000E+00 -0.14305927984E+04  0.14305927984E+04  0.00000000000E+00 0. -1.
         24    2    1    2    0    0  0.56576863834E+02  0.21010463871E+03 -0.78632061712E+03  0.81983572425E+03  0.80533229862E+02 0.  0.
         23    2    1    2    0    0 -0.10106551659E+03 -0.81656544467E+02 -0.14282723244E+03  0.21355405533E+03  0.91234238778E+02 0.  0.
        -11    1    3    3    0    0  0.26910881662E+02  0.18401145252E+02 -0.62751862683E+02  0.70714877987E+02  0.00000000000E+00 0.  1.
         12    1    3    3    0    0  0.29665982171E+02  0.19170349346E+03 -0.72356875444E+03  0.74912084626E+03  0.00000000000E+00 0. -1.
        -11    1    4    4    0    0 -0.21179779664E+02 -0.43616927531E+02 -0.10814861402E+03  0.11852064018E+03  0.00000000000E+00 0.  1.
         11    1    4    4    0    0 -0.79885736921E+02 -0.38039616936E+02 -0.34678618418E+02  0.95033415152E+02  0.00000000000E+00 0. -1.
         21    1    1    2  503  502 -0.19163997580E+02  0.70357920543E+01 -0.10471488607E+03  0.10668630904E+03  0.00000000000E+00 0. -1.
          1    1    1    2  501    0  0.63652650332E+02 -0.13548388630E+03 -0.32732098642E+03  0.35992578609E+03  0.00000000000E+00 0. -1.
<scales pt_clust_5="13000.00000" pt_clust_6="13000.00000" pt_clust_7="13000.00000" pt_clust_8="13000.00000" pt_clust_9="20.41473" pt_clust_10="145.97391"></scales>
<clustering>
<clus scale="   20.415">  2  9  1 -1</clus>
<clus scale="   80.533">  5  6 -1 -1</clus>
<clus scale="   91.234">  7  8 -1 -1</clus>
<clus scale="  145.974">  1 10  2 -1</clus>
<clus scale="  199.460">  2  5  1 -1</clus>
<clus scale="  145.974">  1  5  2 -1</clus>
</clustering>
</event>
<event>
10    4  0.2977685E-005  0.2443274E+03  0.7546771E-02  0.1158106E+00
          2   -1    0    0  503    0 -0.00000000000E+00  0.00000000000E+00  0.83423727301E+03  0.83423727301E+03  0.00000000000E+00 0. -1.
         21   -1    0    0  501  502  0.00000000000E+00 -0.00000000000E+00 -0.42524120169E+03  0.42524120169E+03  0.00000000000E+00 0. -1.
         24    2    1    2    0    0  0.22083985287E+02 -0.35381639912E+02 -0.12386902152E+02  0.91592997018E+02  0.80599496951E+02 0.  0.
         23    2    1    2    0    0  0.21150786671E+03  0.69822552403E+02  0.71032735556E+03  0.75032226779E+03  0.93849810805E+02 0.  0.
        -11    1    3    3    0    0  0.29002198443E+02 -0.50039374346E+02 -0.32040088401E+02  0.66118331529E+02  0.00000000000E+00 0.  1.
         12    1    3    3    0    0 -0.69182131567E+01  0.14657734434E+02  0.19653186249E+02  0.25474665489E+02  0.00000000000E+00 0. -1.
        -13    1    4    4    0    0  0.14232556665E+03  0.78109027573E+02  0.38885444724E+03  0.42138505936E+03  0.00000000000E+00 0.  1.
         13    1    4    4    0    0  0.69182300068E+02 -0.82864751697E+01  0.32147290831E+03  0.32893720844E+03  0.00000000000E+00 0. -1.
         21    1    1    2  503  502 -0.15789330197E+02  0.24904524332E+02  0.19487855981E+02  0.35345647695E+02  0.00000000000E+00 0. -1.
          1    1    1    2  501    0 -0.21780252180E+03 -0.59345436823E+02 -0.30843223806E+03  0.38221756220E+03  0.00000000000E+00 0. -1.
<scales pt_clust_5="13000.00000" pt_clust_6="13000.00000" pt_clust_7="13000.00000" pt_clust_8="13000.00000" pt_clust_9="29.48793" pt_clust_10="225.58393"></scales>
<clustering>
<clus scale="   29.488">  1  9  2 -1</clus>
<clus scale="   80.599">  5  6 -1 -1</clus>
<clus scale="   90.096">  1  5  2 -1</clus>
<clus scale="   93.850">  7  8 -1 -1</clus>
<clus scale="  225.584">  2 10  1 -1</clus>
<clus scale="  225.584">  2  5  1 -1</clus>
</clustering>
</event>
<event>
10    4  0.2977685E-005  0.9700968E+02  0.7546771E-02  0.1295912E+00
         -1   -1    0    0    0  501 -0.00000000000E+00  0.00000000000E+00  0.14321955348E+03  0.14321955348E+03  0.00000000000E+00 0.  1.
         21   -1    0    0  503  502  0.00000000000E+00 -0.00000000000E+00 -0.21097623600E+03  0.21097623600E+03  0.00000000000E+00 0.  1.
         24    2    1    2    0    0  0.29552140974E+02  0.55286863880E+02 -0.28488463417E+02  0.10375137938E+03  0.77606635159E+02 0.  0.
         23    2    1    2    0    0 -0.13541414780E+02  0.45466151634E+02 -0.69680574574E+02  0.12596494366E+03  0.93601515476E+02 0.  0.
        -13    1    3    3    0    0  0.16336156035E+02  0.68039392790E+02 -0.13927786090E+00  0.69973197466E+02  0.00000000000E+00 0.  1.
         14    1    3    3    0    0  0.13215984938E+02 -0.12752528910E+02 -0.28349185556E+02  0.33778181911E+02  0.00000000000E+00 0. -1.
        -13    1    4    4    0    0  0.38924899473E+01  0.29010062070E+02 -0.89936405704E+02  0.94579555139E+02  0.00000000000E+00 0.  1.
         13    1    4    4    0    0 -0.17433904727E+02  0.16456089564E+02  0.20255831130E+02  0.31385388520E+02  0.00000000000E+00 0. -1.
         21    1    1    2  503  501  0.17453560994E+02 -0.70716732741E+02  0.54353224616E+01  0.73041261018E+02  0.00000000000E+00 0. -1.
         -2    1    1    2    0  502 -0.33464287188E+02 -0.30036282774E+02  0.24977033013E+02  0.51438205431E+02  0.00000000000E+00 0.  1.
<scales pt_clust_5="13000.00000" pt_clust_6="13000.00000" pt_clust_7="13000.00000" pt_clust_8="13000.00000" pt_clust_9="76.75330" pt_clust_10="44.96709"></scales>
<clustering>
<clus scale="   44.967">  2 10  1 -1</clus>
<clus scale="   76.753">  1  9  2 -1</clus>
<clus scale="   77.607">  5  6 -1 -1</clus>
<clus scale="   81.685">  1  5  2 -1</clus>
<clus scale="   93.602">  7  8 -1 -1</clus>
<clus scale="   44.967">  2  5  1 -1</clus>
</clustering>
</event>
<event>
10    4  0.2977685E-005  0.9515589E+02  0.7546771E-02  0.1297286E+00
         21   -1    0    0  501  502  0.00000000000E+00  0.00000000000E+00  0.82327621177E+02  0.82327621177E+02  0.00000000000E+00 0. -1.
          2   -1    0    0  503    0 -0.00000000000E+00 -0.00000000000E+00 -0.44506718844E+03  0.44506718844E+03  0.00000000000E+00 0. -1.
         23    2    1    2    0    0 -0.90240930090E+01 -0.33247102721E+02 -0.89130125527E+02  0.13339709299E+03  0.93079541507E+02 0.  0.
         24    2    1    2    0    0 -0.31913429292E+02  0.22237618854E+00  0.23451459748E+02  0.91088540374E+02  0.82028256124E+02 0.  0.
        -13    1    4    4    0    0 -0.55496809842E+01  0.33992161304E+02 -0.10953244708E+02  0.36141936290E+02  0.00000000000E+00 0.  1.
         14    1    4    4    0    0 -0.26363748308E+02 -0.33769785116E+02  0.34404704456E+02  0.54946604084E+02  0.00000000000E+00 0. -1.
        -11    1    3    3    0    0 -0.33468794522E+02  0.37075707045E+01  0.20894430321E+00  0.33674173264E+02  0.00000000000E+00 0. -1.
         11    1    3    3    0    0  0.24444701513E+02 -0.36954673425E+02 -0.89339069830E+02  0.99722919724E+02  0.00000000000E+00 0.  1.
         21    1    1    2  503  502  0.19554789115E+02  0.19645943320E+02 -0.22199526832E+03  0.22371913647E+03  0.00000000000E+00 0. -1.
          1    1    1    2  501    0  0.21382733187E+02  0.13378783213E+02 -0.75065633171E+02  0.79190039791E+02  0.00000000000E+00 0. -1.
<scales pt_clust_5="13000.00000" pt_clust_6="13000.00000" pt_clust_7="13000.00000" pt_clust_8="13000.00000" pt_clust_9="27.98306" pt_clust_10="25.22328"></scales>
<clustering>
<clus scale="   25.223">  1 10  2 -1</clus>
<clus scale="   27.983">  2  9  1 -1</clus>
<clus scale="   82.028">  5  6 -1 -1</clus>
<clus scale="   84.377">  1  5  2 -1</clus>
<clus scale="   93.080">  7  8 -1 -1</clus>
<clus scale="   25.223">  1  5  2 -1</clus>
</clustering>
</event>
<event>
10    4  0.2977685E-005  0.1338057E+03  0.7546771E-02  0.1235798E+00
         -3   -1    0    0    0  501 -0.00000000000E+00  0.00000000000E+00  0.41564561400E+03  0.41564561400E+03  0.00000000000E+00 0.  1.
         21   -1    0    0  503  502  0.00000000000E+00 -0.00000000000E+00 -0.15546347438E+03  0.15546347438E+03  0.00000000000E+00 0.  1.
         23    2    1    2    0    0 -0.25678028868E+02  0.27021069795E+02  0.16399205914E+03  0.19295490367E+03  0.94597568739E+02 0.  0.
         24    2    1    2    0    0 -0.89178825897E+02 -0.27192912991E+02 -0.51459349573E+02  0.12347338133E+03  0.62492349391E+02 0.  0.
        -13    1    4    4    0    0 -0.82105804015E+02 -0.23545370104E+01 -0.52743794778E+02  0.97615648259E+02  0.00000000000E+00 0.  1.
         14    1    4    4    0    0 -0.70730218821E+01 -0.24838375981E+02  0.12844452051E+01  0.25857733068E+02  0.00000000000E+00 0. -1.
        -13    1    3    3    0    0 -0.60769205883E+02  0.22575839412E+02  0.89716760064E+02  0.11068722575E+03  0.00000000000E+00 0. -1.
         13    1    3    3    0    0  0.35091177015E+02  0.44452303830E+01  0.74275299073E+02  0.82267677917E+02  0.00000000000E+00 0.  1.
         21    1    1    2  503  501  0.12236768453E+03  0.56295285140E+02  0.14512511163E+03  0.19800077619E+03  0.00000000000E+00 0.  1.
         -4    1    1    2    0  502 -0.75108297649E+01 -0.56123441944E+02  0.25243184205E+01  0.56680027196E+02  0.00000000000E+00 0.  1.
<scales pt_clust_5="13000.00000" pt_clust_6="13000.00000" pt_clust_7="13000.00000" pt_clust_8="13000.00000" pt_clust_9="118.31599" pt_clust_10="56.62379"></scales>
<clustering>
<clus scale="   56.624">  2 10  1 -1</clus>
<clus scale="   62.492">  5  6 -1 -1</clus>
<clus scale="   94.598">  7  8 -1 -1</clus>
<clus scale="  100.401">  1  7  2 -1</clus>
<clus scale="  118.316">  1  9  2 -1</clus>
<clus scale="   56.624">  2  5  1 -1</clus>
</clustering>
</event>
<event>
10    4  0.2977685E-005  0.1071187E+03  0.7546771E-02  0.1270466E+00
          2   -1    0    0  503    0 -0.00000000000E+00  0.00000000000E+00  0.51318667505E+03  0.51318667505E+03  0.00000000000E+00 0. -1.
         21   -1    0    0  501  502  0.00000000000E+00 -0.00000000000E+00 -0.13281122493E+03  0.13281122493E+03  0.00000000000E+00 0. -1.
         23    2    1    2    0    0 -0.17180293012E+02  0.11555263112E+02  0.68049017171E+02  0.11615819849E+03  0.91833391340E+02 0.  0.
         24    2    1    2    0    0  0.45789834721E+02 -0.12024955060E+03 -0.36034703163E+02  0.15640822555E+03  0.81291880314E+02 0.  0.
        -11    1    4    4    0    0 -0.43224490841E+01 -0.79994819900E+02  0.48014123644E+01  0.80255269843E+02  0.00000000000E+00 0.  1.
         12    1    4    4    0    0  0.50112283805E+02 -0.40254730702E+02 -0.40836115528E+02  0.76152955710E+02  0.00000000000E+00 0. -1.
        -13    1    3    3    0    0 -0.55247314098E+02  0.51967159591E+01  0.38212873573E+02  0.67375776645E+02  0.00000000000E+00 0.  1.
         13    1    3    3    0    0  0.38067021086E+02  0.63585471530E+01  0.29836143598E+02  0.48782421845E+02  0.00000000000E+00 0. -1.
         21    1    1    2  503  502 -0.60967860815E+01  0.48216627678E+02  0.25713782411E+03  0.26169041743E+03  0.00000000000E+00 0.  1.
          1    1    1    2  501    0 -0.22512755627E+02  0.60477659812E+02  0.91223312001E+02  0.11174105850E+03  0.00000000000E+00 0. -1.
<scales pt_clust_5="13000.00000" pt_clust_6="13000.00000" pt_clust_7="13000.00000" pt_clust_8="13000.00000" pt_clust_9="48.60056" pt_clust_10="83.57082"></scales>
<clustering>
<clus scale="   48.601">  1  9  2 -1</clus>
<clus scale="   81.292">  5  6 -1 -1</clus>
<clus scale="   83.571">  2 10  1 -1</clus>
<clus scale="   91.833">  7  8 -1 -1</clus>
<clus scale="   98.231">  2  5  1 -1</clus>
<clus scale="   83.571">  2  5  1 -1</clus>
</clustering>
</event>
<event>
10    4  0.2977685E-005  0.1749534E+03  0.7546771E-02  0.1174407E+00
         21   -1    0    0  501  502  0.00000000000E+00  0.00000000000E+00  0.29163240585E+03  0.29163240585E+03  0.00000000000E+00 0.  1.
          2   -1    0    0  503    0 -0.00000000000E+00 -0.00000000000E+00 -0.60488298511E+03  0.60488298511E+03  0.00000000000E+00 0. -1.
         24    2    1    2    0    0 -0.60987139368E+02  0.13582957885E+03  0.52011132652E+02  0.17608493668E+03  0.78304797731E+02 0.  0.
         23    2    1    2    0    0 -0.10241800875E+03 -0.16666271588E+03  0.85085309906E+02  0.23199326906E+03  0.91189130648E+02 0.  0.
        -11    1    3    3    0    0 -0.13182963238E+02  0.10628898216E+03  0.53810209999E+02  0.11986107353E+03  0.00000000000E+00 0.  1.
         12    1    3    3    0    0 -0.47804176130E+02  0.29540596696E+02 -0.17990773473E+01  0.56223863154E+02  0.00000000000E+00 0. -1.
        -11    1    4    4    0    0  0.94539021983E+01 -0.32341209723E+02  0.38343624630E+02  0.51044722185E+02  0.00000000000E+00 0.  1.
         11    1    4    4    0    0 -0.11187191094E+03 -0.13432150616E+03  0.46741685276E+02  0.18094854688E+03  0.00000000000E+00 0. -1.
         21    1    1    2  503  502  0.21140680362E+02  0.95401513033E+01 -0.18639429576E+03  0.18783177672E+03  0.00000000000E+00 0. -1.
          1    1    1    2  501    0  0.14226446775E+03  0.21292985723E+02 -0.26395272605E+03  0.30060540849E+03  0.00000000000E+00 0. -1.
<scales pt_clust_5="13000.00000" pt_clust_6="13000.00000" pt_clust_7="13000.00000" pt_clust_8="13000.00000" pt_clust_9="23.19360" pt_clust_10="158.98746"></scales>
<clustering>
<clus scale="   23.194">  2  9  1 -1</clus>
<clus scale="   78.305">  5  6 -1 -1</clus>
<clus scale="   91.189">  7  8 -1 -1</clus>
<clus scale="  158.987">  1 10  2 -1</clus>
<clus scale="  168.597">  2  5  1 -1</clus>
<clus scale="  158.987">  1  5  2 -1</clus>
</clustering>
</event>
<event>
10    4  0.2977685E-005  0.1935708E+03  0.7546771E-02  0.1193192E+00
          2   -1    0    0  503    0 -0.00000000000E+00  0.00000000000E+00  0.42871341861E+03  0.42871341861E+03  0.00000000000E+00 0. -1.
         21   -1    0    0  501  502  0.00000000000E+00 -0.00000000000E+00 -0.17269215866E+03  0.17269215866E+03  0.00000000000E+00 0. -1.
         24    2    1    2    0    0 -0.12829144921E+02 -0.88222293227E+01  0.48135716057E+02  0.95129133415E+02  0.80561071084E+02 0.  0.
         23    2    1    2    0    0  0.24985578845E+02  0.16857629890E+03  0.54670663376E+00  0.18911320990E+03  0.81983288355E+02 0.  0.
        -11    1    3    3    0    0 -0.37318718238E+02  0.20832262778E+02  0.18479543092E+02  0.46563541707E+02  0.00000000000E+00 0.  1.
         12    1    3    3    0    0  0.24489573317E+02 -0.29654492101E+02  0.29656172965E+02  0.48565591708E+02  0.00000000000E+00 0. -1.
        -13    1    4    4    0    0 -0.65499446928E+01  0.56120121530E+02 -0.35687005493E+02  0.66827630342E+02  0.00000000000E+00 0.  1.
         13    1    4    4    0    0  0.31535523538E+02  0.11245617737E+03  0.36233712127E+02  0.12228557955E+03  0.00000000000E+00 0. -1.
         21    1    1    2  503  502 -0.49265566597E+01  0.24377571703E+02  0.10182741026E+03  0.10482060123E+03  0.00000000000E+00 0.  1.
          1    1    1    2  501    0 -0.72298772642E+01 -0.18413164128E+03  0.10551142700E+03  0.21234263272E+03  0.00000000000E+00 0. -1.
<scales pt_clust_5="13000.00000" pt_clust_6="13000.00000" pt_clust_7="13000.00000" pt_clust_8="13000.00000" pt_clust_9="24.87040" pt_clust_10="175.35227"></scales>
<clustering>
<clus scale="   24.870">  1  9  2 -1</clus>
<clus scale="   80.561">  5  6 -1 -1</clus>
<clus scale="   81.827">  1  5  2 -1</clus>
<clus scale="   81.983">  7  8 -1 -1</clus>
<clus scale="  175.352">  2 10  1 -1</clus>
<clus scale="  175.352">  2  5  1 -1</clus>
</clustering>
</event>
<event>
10    4  0.2977685E-005  0.2994641E+03  0.7546771E-02  0.1085804E+00
         21   -1    0    0  503  502  0.00000000000E+00  0.00000000000E+00  0.10335126445E+03  0.10335126445E+03  0.00000000000E+00 0. -1.
          2   -1    0    0  502    0 -0.00000000000E+00 -0.00000000000E+00 -0.12950436505E+04  0.12950436505E+04  0.00000000000E+00 0. -1.
         24    2    1    2    0    0  0.17153085731E+03  0.25935301661E+03 -0.52667178027E+03  0.61695410418E+03  0.81008519929E+02 0.  0.
         23    2    1    2    0    0 -0.20547261881E+03 -0.16741697381E+03 -0.34317554614E+03  0.44269676661E+03  0.89238621129E+02 0.  0.
        -13    1    3    3    0    0  0.48042499859E+02  0.14355252135E+03 -0.26835290183E+03  0.30810499526E+03  0.00000000000E+00 0.  1.
         14    1    3    3    0    0  0.12348835745E+03  0.11580049525E+03 -0.25831887843E+03  0.30884910892E+03  0.00000000000E+00 0. -1.
        -13    1    4    4    0    0 -0.13321439101E+03 -0.92702382281E+02 -0.27194314238E+03  0.31669050876E+03  0.00000000000E+00 0.  1.
         13    1    4    4    0    0 -0.72258227805E+02 -0.74714591527E+02 -0.71232403760E+02  0.12600625785E+03  0.00000000000E+00 0. -1.
         21    1    1    2  503  501 -0.60134273512E+01 -0.31645579410E+02 -0.12318652187E+03  0.12732840678E+03  0.00000000000E+00 0. -1.
          1    1    1    2  501    0  0.39955188854E+02 -0.60290463387E+02 -0.19865853781E+03  0.21141563740E+03  0.00000000000E+00 0. -1.
<scales pt_clust_5="13000.00000" pt_clust_6="13000.00000" pt_clust_7="13000.00000" pt_clust_8="13000.00000" pt_clust_9="26.34985" pt_clust_10="105.65650"></scales>
<clustering>
<clus scale="   26.350">  9 10 -1 -1</clus>
<clus scale="   81.009">  5  6 -1 -1</clus>
<clus scale="   89.239">  7  8 -1 -1</clus>
<clus scale="  105.657">  1  9  2 -1</clus>
<clus scale="  297.115">  2  5  1 -1</clus>
<clus scale="  105.657">  1  5  2 -1</clus>
</clustering>
</event>
<event>
10    4  0.2977685E-005  0.9878606E+02  0.7546771E-02  0.1290476E+00
          2   -1    0    0  503    0 -0.00000000000E+00  0.00000000000E+00  0.16120365377E+04  0.16120365377E+04  0.00000000000E+00 0. -1.
         21   -1    0    0  501  502  0.00000000000E+00 -0.00000000000E+00 -0.28325043455E+02  0.28325043455E+02  0.00000000000E+00 0.  1.
         23    2    1    2    0    0  0.14663085906E+02  0.36281941369E+02  0.41876046692E+03  0.43035251523E+03  0.91167830655E+02 0.  0.
         24    2    1    2    0    0 -0.73547992460E+02 -0.41828633659E+02  0.18680452992E+03  0.21894238960E+03  0.76686998753E+02 0.  0.
        -11    1    4    4    0    0 -0.73758522859E+02 -0.23146384627E+01  0.10826607134E+03  0.13102373621E+03  0.00000000000E+00 0.  1.
         12    1    4    4    0    0  0.21053039854E+00 -0.39513995196E+02  0.78538458572E+02  0.87918653392E+02  0.00000000000E+00 0. -1.
        -11    1    3    3    0    0  0.48016872227E+02 -0.16916387655E+01  0.18007352787E+03  0.18637316625E+03  0.00000000000E+00 0.  1.
         11    1    3    3    0    0 -0.33353786322E+02  0.37973580135E+02  0.23868693906E+03  0.24397934898E+03  0.00000000000E+00 0. -1.
         21    1    1    2  503  502 -0.43931224501E+02 -0.26250700322E+02  0.36045466537E+03  0.36406952295E+03  0.00000000000E+00 0. -1.
          1    1    1    2  501    0  0.10281613106E+03  0.31797392611E+02  0.61769183208E+03  0.62699715342E+03  0.00000000000E+00 0. -1.
<scales pt_clust_5="13000.00000" pt_clust_6="13000.00000" pt_clust_7="13000.00000" pt_clust_8="13000.00000" pt_clust_9="51.17667" pt_clust_10="83.07777"></scales>
<clustering>
<clus scale="   51.177">  1  9  2 -1</clus>
<clus scale="   76.687">  5  6 -1 -1</clus>
<clus scale="   83.078">  2 10  1 -1</clus>
<clus scale="   85.604">  2  5  1 -1</clus>
<clus scale="   91.168">  7  8 -1 -1</clus>
<clus scale="   83.078">  2  5  1 -1</clus>
</clustering>
</event>
<event>
10    4  0.2977685E-005  0.1260111E+03  0.7546771E-02  0.1236664E+00
          2   -1    0    0  503    0 -0.00000000000E+00  0.00000000000E+00  0.62216132367E+03  0.62216132367E+03  0.00000000000E+00 0. -1.
         21   -1    0    0  501  502  0.00000000000E+00 -0.00000000000E+00 -0.76397562726E+02  0.76397562726E+02  0.00000000000E+00 0.  1.
         24    2    1    2    0    0 -0.47697979713E+02 -0.38299746914E+02  0.25118461026E+03  0.27074073299E+03  0.80404404026E+02 0.  0.
         23    2    1    2    0    0  0.99649325096E+02 -0.48283226383E+02  0.96456576056E+02  0.17309344389E+03  0.91630842585E+02 0.  0.
        -13    1    3    3    0    0 -0.68175911921E+02 -0.22502552236E+02  0.21167601794E+03  0.22351970023E+03  0.00000000000E+00 0.  1.
         14    1    3    3    0    0  0.20477932208E+02 -0.15797194678E+02  0.39508592322E+02  0.47221032755E+02  0.00000000000E+00 0. -1.
        -11    1    4    4    0    0  0.21707046693E+02  0.23134210790E+02  0.27780340950E+01  0.31845016226E+02  0.00000000000E+00 0.  1.
         11    1    4    4    0    0  0.77942278402E+02 -0.71417437173E+02  0.93678541961E+02  0.14124842767E+03  0.00000000000E+00 0. -1.
         21    1    1    2  503  502 -0.67143096382E+02  0.69845148160E+02  0.20845612558E+03  0.22987060796E+03  0.00000000000E+00 0.  1.
          1    1    1    2  501    0  0.15191750999E+02  0.16737825137E+02 -0.10333550948E+02  0.24854101551E+02  0.00000000000E+00 0. -1.
<scales pt_clust_5="13000.00000" pt_clust_6="13000.00000" pt_clust_7="13000.00000" pt_clust_8="13000.00000" pt_clust_9="97.25099" pt_clust_10="22.60407"></scales>
<clustering>
<clus scale="   22.604">  2 10  1 -1</clus>
<clus scale="   80.404">  5  6 -1 -1</clus>
<clus scale="   91.631">  7  8 -1 -1</clus>
<clus scale="   97.251">  1  9  2 -1</clus>
<clus scale="  118.099">  1  5  2 -1</clus>
<clus scale="   22.604">  2  5  1 -1</clus>
</clustering>
</event>
<event>
10    4  0.2977685E-005  0.2989788E+03  0.7546771E-02  0.1108708E+00
         21   -1    0    0  501  502  0.00000000000E+00  0.00000000000E+00  0.76036938411E+03  0.76036938411E+03  0.00000000000E+00 0.  1.
          2   -1    0    0  503    0 -0.00000000000E+00 -0.00000000000E+00 -0.26561998089E+03  0.26561998089E+03  0.00000000000E+00 0. -1.
         24    2    1    2    0    0 -0.35318836664E+02  0.12510041386E+03  0.53064221631E+02  0.16026277713E+03  0.77271031729E+02 0.  0.
         23    2    1    2    0    0  0.96524847699E+02 -0.38248785417E+03  0.37398913372E+03  0.55102727539E+03  0.90272815786E+02 0.  0.
        -11    1    3    3    0    0 -0.43585832061E+02  0.47710102408E+02  0.51138614393E+02  0.82408352188E+02  0.00000000000E+00 0.  1.
         12    1    3    3    0    0  0.82669953979E+01  0.77390311455E+02  0.19256072380E+01  0.77854424943E+02  0.00000000000E+00 0. -1.
        -11    1    4    4    0    0  0.11221073667E+03 -0.31790684325E+03  0.29671546378E+03  0.44910586375E+03  0.00000000000E+00 0.  1.
         11    1    4    4    0    0 -0.15685888970E+02 -0.64581010923E+02  0.77273669939E+02  0.10192141164E+03  0.00000000000E+00 0. -1.
         21    1    1    2  503  502 -0.30287000970E+02  0.50458087102E+02 -0.47705742789E+02  0.75757236465E+02  0.00000000000E+00 0.  1.
          1    1    1    2  501    0 -0.30919010065E+02  0.20692935320E+03  0.11540179066E+03  0.23894207601E+03  0.00000000000E+00 0. -1.
<scales pt_clust_5="13000.00000" pt_clust_6="13000.00000" pt_clust_7="13000.00000" pt_clust_8="13000.00000" pt_clust_9="58.84999" pt_clust_10="285.02484"></scales>
<clustering>
<clus scale="   58.850">  2  9  1 -1</clus>
<clus scale="   77.271">  5  6 -1 -1</clus>
<clus scale="   90.273">  7  8 -1 -1</clus>
<clus scale="  164.283">  2  5  1 -1</clus>
<clus scale="  285.025">  1 10  2 -1</clus>
<clus scale="  285.025">  1  5  2 -1</clus>
</clustering>
</event>
<event>
10    4  0.2977685E-005  0.1169501E+03  0.7546771E-02  0.1250012E+00
          2   -1    0    0  503    0 -0.00000000000E+00  0.00000000000E+00  0.10637160426E+04  0.10637160426E+04  0.00000000000E+00 0. -1.
         21   -1    0    0  501  502  0.00000000000E+00 -0.00000000000E+00 -0.35476917079E+02  0.35476917079E+02  0.00000000000E+00 0. -1.
         24    2    1    2    0    0  0.51712240710E+02 -0.36939102941E+02  0.53114045626E+03  0.54205585137E+03  0.87611121249E+02 0.  0.
         23    2    1    2    0    0 -0.10041994600E+03 -0.12017140847E+02  0.42545911137E+03  0.44706673056E+03  0.92868880135E+02 0.  0.
        -13    1    3    3    0    0 -0.23706039454E+02 -0.19547827556E+02  0.16215516170E+03  0.16504057178E+03  0.00000000000E+00 0.  1.
         14    1    3    3    0    0  0.75418280164E+02 -0.17391275385E+02  0.36898529456E+03  0.37701527959E+03  0.00000000000E+00 0. -1.
        -13    1    4    4    0    0 -0.41895657136E+02  0.40528339074E+02  0.16517057842E+03  0.17515453843E+03  0.00000000000E+00 0.  1.
         13    1    4    4    0    0 -0.58524288864E+02 -0.52545479921E+02  0.26028853295E+03  0.27191219214E+03  0.00000000000E+00 0. -1.
         21    1    1    2  503  502  0.18264979705E+02  0.14014815560E+02  0.56994256548E+02  0.61468445712E+02  0.00000000000E+00 0. -1.
          1    1    1    2  501    0  0.30442725585E+02  0.34941428228E+02  0.14645301367E+02  0.48601932058E+02  0.00000000000E+00 0. -1.
<scales pt_clust_5="13000.00000" pt_clust_6="13000.00000" pt_clust_7="13000.00000" pt_clust_8="13000.00000" pt_clust_9="23.02226" pt_clust_10="57.91571"></scales>
<clustering>
<clus scale="   23.022">  2  9  1 -1</clus>
<clus scale="   57.916">  2 10  1 -1</clus>
<clus scale="   87.611">  5  6 -1 -1</clus>
<clus scale="   92.869">  7  8 -1 -1</clus>
<clus scale="  112.820">  1  5  2 -1</clus>
<clus scale="   23.022">  2  5  1 -1</clus>
</clustering>
</event>
<event>
10    4  0.2977685E-005  0.9667548E+02  0.7546771E-02  0.1296170E+00
         -1   -1    0    0    0  501 -0.00000000000E+00  0.00000000000E+00  0.65106304957E+02  0.65106304957E+02  0.00000000000E+00 0.  1.
         21   -1    0    0  503  502  0.00000000000E+00 -0.00000000000E+00 -0.64504250202E+03  0.64504250202E+03  0.00000000000E+00 0. -1.
         23    2    1    2    0    0 -0.21842839255E+02  0.47676933474E+02 -0.17267048929E+02  0.10668209143E+03  0.91283722763E+02 0.  0.
         24    2    1    2    0    0 -0.16107999897E+02 -0.10134862225E+01 -0.42200860515E+03  0.42905189945E+03  0.75721692993E+02 0.  0.
        -11    1    4    4    0    0 -0.37471016726E+02  0.15016778920E+02 -0.13780216329E+03  0.14359323435E+03  0.00000000000E+00 0.  1.
         12    1    4    4    0    0  0.21363016830E+02 -0.16030265143E+02 -0.28420644185E+03  0.28545866510E+03  0.00000000000E+00 0. -1.
        -13    1    3    3    0    0 -0.55226862812E+02  0.26723052165E+02  0.47471139714E+01  0.61535867460E+02  0.00000000000E+00 0.  1.
         13    1    3    3    0    0  0.33384023557E+02  0.20953881310E+02 -0.22014162901E+02  0.45146223973E+02  0.00000000000E+00 0. -1.
         21    1    1    2  503  501 -0.14146176171E+02 -0.31084722776E+02 -0.14629515826E+02  0.37153694616E+02  0.00000000000E+00 0.  1.
         -2    1    1    2    0  502  0.52097015323E+02 -0.15578724476E+02 -0.12603102716E+03  0.13726112147E+03  0.00000000000E+00 0.  1.
<scales pt_clust_5="13000.00000" pt_clust_6="13000.00000" pt_clust_7="13000.00000" pt_clust_8="13000.00000" pt_clust_9="34.15222" pt_clust_10="54.00715"></scales>
<clustering>
<clus scale="   34.152">  1  9  2 -1</clus>
<clus scale="   54.007">  2 10  1 -1</clus>
<clus scale="   75.722">  5  6 -1 -1</clus>
<clus scale="   82.141">  2  5  1 -1</clus>
<clus scale="   91.284">  7  8 -1 -1</clus>
<clus scale="   54.007">  2  5  1 -1</clus>
</clustering>
</event>
<event>
10    4  0.2977685E-005  0.1060285E+03  0.7546771E-02  0.1271897E+00
          2   -1    0    0  503    0 -0.00000000000E+00  0.00000000000E+00  0.89442732299E+03  0.89442732299E+03  0.00000000000E+00 0. -1.
         21   -1    0    0  501  502  0.00000000000E+00 -0.00000000000E+00 -0.60393157941E+02  0.60393157941E+02  0.00000000000E+00 0.  1.
         23    2    1    2    0    0  0.19761357159E+02 -0.25843552760E+02  0.17627307272E+03  0.20194356056E+03  0.93008628790E+02 0.  0.
         24    2    1    2    0    0  0.39506347310E+02 -0.45513969081E+02  0.71046357891E+02  0.12527554100E+03  0.83750243844E+02 0.  0.
        -13    1    4    4    0    0  0.81979373268E+01 -0.19181244423E+02 -0.17826281089E+02  0.27439070894E+02  0.00000000000E+00 0.  1.
         14    1    4    4    0    0  0.31308409983E+02 -0.26332724658E+02  0.88872638980E+02  0.97836470106E+02  0.00000000000E+00 0. -1.
        -13    1    3    3    0    0  0.41268253527E+02  0.21417694734E+02  0.78424598325E+02  0.91171289447E+02  0.00000000000E+00 0.  1.
         13    1    3    3    0    0 -0.21506896369E+02 -0.47261247494E+02  0.97848474391E+02  0.11077227111E+03  0.00000000000E+00 0. -1.
         21    1    1    2  503  502 -0.98130096331E+02 -0.33379085519E+02  0.36353915371E+03  0.37802697712E+03  0.00000000000E+00 0. -1.
          1    1    1    2  501    0  0.38862391862E+02  0.10473660736E+03  0.22317558074E+03  0.24957440226E+03  0.00000000000E+00 0. -1.
<scales pt_clust_5="13000.00000" pt_clust_6="13000.00000" pt_clust_7="13000.00000" pt_clust_8="13000.00000" pt_clust_9="99.52035" pt_clust_10="65.02260"></scales>
<clustering>
<clus scale="   83.750">  5  6 -1 -1</clus>
<clus scale="   93.009">  7  8 -1 -1</clus>
<clus scale="   98.534">  1  7  2 -1</clus>
<clus scale="   99.520">  1  9  2 -1</clus>
<clus scale="   65.023">  2 10  1 -1</clus>
<clus scale="   65.023">  2  5  1 -1</clus>
</clustering>
</event>
<event>
10    4  0.2977685E-005  0.8931074E+02  0.7546771E-02  0.1308933E+00
          2   -1    0    0  503    0 -0.00000000000E+00  0.00000000000E+00  0.44613420311E+03  0.44613420311E+03  0.00000000000E+00 0. -1.
         21   -1    0    0  501  502  0.00000000000E+00 -0.00000000000E+00 -0.56462321172E+02  0.56462321172E+02  0.00000000000E+00 0.  1.
         24    2    1    2    0    0 -0.35250943588E+00  0.32183630294E+02  0.15300768894E+03  0.17663288801E+03  0.82170030610E+02 0.  0.
         23    2    1    2    0    0 -0.38510742254E+01  0.45217687489E+02  0.54944165596E+02  0.11407941529E+03  0.89083004129E+02 0.  0.
        -11    1    3    3    0    0  0.34589462776E+02  0.31268055742E+01  0.31435324805E+02  0.46844289875E+02  0.00000000000E+00 0.  1.
         12    1    3    3    0    0 -0.34941972212E+02  0.29056824720E+02  0.12157236413E+03  0.12978859813E+03  0.00000000000E+00 0. -1.
        -13    1    4    4    0    0  0.21650567005E+02 -0.11040765117E+02 -0.82947341726E+01  0.25679722759E+02  0.00000000000E+00 0.  1.
         13    1    4    4    0    0 -0.25501641230E+02  0.56258452606E+02  0.63238899769E+02  0.88399692528E+02  0.00000000000E+00 0. -1.
         21    1    1    2  503  502 -0.26271526209E+02 -0.25982799151E+02  0.12167260859E+03  0.12715943780E+03  0.00000000000E+00 0.  1.
          1    1    1    2  501    0  0.30475109870E+02 -0.51418518631E+02  0.60047418824E+02  0.84724783194E+02  0.00000000000E+00 0. -1.
<scales pt_clust_5="13000.00000" pt_clust_6="13000.00000" pt_clust_7="13000.00000" pt_clust_8="13000.00000" pt_clust_9="36.94995" pt_clust_10="62.31074"></scales>
<clustering>
<clus scale="   36.950">  1  9  2 -1</clus>
<clus scale="   62.311">  2 10  1 -1</clus>
<clus scale="   82.170">  5  6 -1 -1</clus>
<clus scale="   82.417">  1  5  2 -1</clus>
<clus scale="   89.083">  7  8 -1 -1</clus>
<clus scale="   62.311">  2  5  1 -1</clus>
</clustering>
</event>
<event>
10    4  0.2977685E-005  0.2140940E+03  0.7546771E-02  0.1139967E+00
         21   -1    0    0  501  502  0.00000000000E+00  0.00000000000E+00  0.28043773899E+03  0.28043773899E+03  0.00000000000E+00 0.  1.
          4   -1    0    0  503    0 -0.00000000000E+00 -0.00000000000E+00 -0.42947046665E+03  0.42947046665E+03  0.00000000000E+00 0. -1.
         23    2    1    2    0    0  0.30083394292E+02  0.14379038994E+03 -0.23077993023E+03  0.29151766872E+03  0.10070992072E+03 0.  0.
         24    2    1    2    0    0 -0.99307663531E+02 -0.14134044931E+03  0.11938844622E+03  0.22543207765E+03  0.82017595032E+02 0.  0.
        -11    1    4    4    0    0 -0.52442806961E+02 -0.10247075735E+03  0.11753935829E+03  0.16451749105E+03  0.00000000000E+00 0.  1.
         12    1    4    4    0    0 -0.46864856570E+02 -0.38869691956E+02  0.18490879310E+01  0.60914586597E+02  0.00000000000E+00 0. -1.
        -13    1    3    3    0    0  0.20987045644E+02  0.85125519680E+02 -0.21173904710E+03  0.22917293526E+03  0.00000000000E+00 0. -1.
         13    1    3    3    0    0  0.90963486481E+01  0.58664870256E+02 -0.19040883125E+02  0.62344733467E+02  0.00000000000E+00 0.  1.
         21    1    1    2  503  502  0.49436432447E+02  0.57836321318E+02 -0.84779051157E+02  0.11391439080E+03  0.00000000000E+00 0.  1.
          3    1    1    2  501    0  0.19787836792E+02 -0.60286261942E+02  0.47137807497E+02  0.79044068465E+02  0.00000000000E+00 0. -1.
<scales pt_clust_5="13000.00000" pt_clust_6="13000.00000" pt_clust_7="13000.00000" pt_clust_8="13000.00000" pt_clust_9="73.96501" pt_clust_10="63.45070"></scales>
<clustering>
<clus scale="   63.451">  1 10  2 -1</clus>
<clus scale="   73.965">  2  9  1 -1</clus>
<clus scale="   82.018">  5  6 -1 -1</clus>
<clus scale="  100.710">  7  8 -1 -1</clus>
<clus scale="  205.963">  1  5  2 -1</clus>
<clus scale="   63.451">  1  5  2 -1</clus>
</clustering>
</event>
<event>
10    4  0.2977685E-005  0.2724928E+03  0.7546771E-02  0.1106600E+00
         21   -1    0    0  501  502  0.00000000000E+00  0.00000000000E+00  0.20292357350E+03  0.20292357350E+03  0.00000000000E+00 0. -1.
          2   -1    0    0  503    0 -0.00000000000E+00 -0.00000000000E+00 -0.16980469328E+04  0.16980469328E+04  0.00000000000E+00 0. -1.
         23    2    1    2    0    0  0.21983422127E+02  0.22002832764E+03 -0.26824621017E+03  0.35623818886E+03  0.77806697109E+02 0.  0.
         24    2    1    2    0    0 -0.26122914455E+03 -0.28888970788E+03 -0.10507626159E+04  0.11234570740E+04  0.79723226027E+02 0.  0.
        -13    1    4    4    0    0 -0.18784565970E+02 -0.46484824395E+02 -0.20057721497E+03  0.20674844131E+03  0.00000000000E+00 0.  1.
         14    1    4    4    0    0 -0.24244457858E+03 -0.24240488348E+03 -0.85018540097E+03  0.91670863269E+03  0.00000000000E+00 0. -1.
        -13    1    3    3    0    0  0.46345468493E+02  0.18698344920E+03 -0.23121185505E+03  0.30094789356E+03  0.00000000000E+00 0.  1.
         13    1    3    3    0    0 -0.24362046366E+02  0.33044878444E+02 -0.37034355126E+02  0.55290295298E+02  0.00000000000E+00 0. -1.
         21    1    1    2  503  502  0.10441510871E+02 -0.29262505271E+02 -0.16940198090E+03  0.17222761247E+03  0.00000000000E+00 0.  1.
          1    1    1    2  501    0  0.22880421155E+03  0.98123885505E+02 -0.67125522659E+01  0.24904763096E+03  0.00000000000E+00 0. -1.
<scales pt_clust_5="13000.00000" pt_clust_6="13000.00000" pt_clust_7="13000.00000" pt_clust_8="13000.00000" pt_clust_9="31.06959" pt_clust_10="260.56963"></scales>
<clustering>
<clus scale="   31.070">  2  9  1 -1</clus>
<clus scale="   77.807">  7  8 -1 -1</clus>
<clus scale="   79.723">  5  6 -1 -1</clus>
<clus scale="  229.022">  2  7  1 -1</clus>
<clus scale="  260.570">  1 10  2 -1</clus>
<clus scale="  260.570">  1  5  2 -1</clus>
</clustering>
</event>
<event>
10    4  0.2977685E-005  0.3052178E+03  0.7546771E-02  0.1126839E+00
         21   -1    0    0  501  502  0.00000000000E+00  0.00000000000E+00  0.70863513839E+03  0.70863513839E+03  0.00000000000E+00 0.  1.
          2   -1    0    0  503    0 -0.00000000000E+00 -0.00000000000E+00 -0.31679498612E+03  0.31679498612E+03  0.00000000000E+00 0. -1.
         24    2    1    2    0    0 -0.32153928879E+02 -0.56110157272E+02  0.19675277818E+03  0.22250635166E+03  0.81333854674E+02 0.  0.
         23    2    1    2    0    0  0.28429955672E+03 -0.96827917466E+02  0.31790943348E+03  0.44456657561E+03  0.79819475683E+02 0.  0.
        -11    1    3    3    0    0 -0.51623295398E+02 -0.22505553542E+02  0.15759617412E+03  0.16735596393E+03  0.00000000000E+00 0.  1.
         12    1    3    3    0    0  0.19469366519E+02 -0.33604603730E+02  0.39156604060E+02  0.55150387723E+02  0.00000000000E+00 0. -1.
        -11    1    4    4    0    0  0.23786349989E+03 -0.50849824943E+02  0.27084184853E+03  0.36403304273E+03  0.00000000000E+00 0.  1.
         11    1    4    4    0    0  0.46436056825E+02 -0.45978092523E+02  0.47067584949E+02  0.80533532882E+02  0.00000000000E+00 0. -1.
         21    1    1    2  503  502  0.66256321394E+01  0.34379528966E+02  0.19547985353E+02  0.40099560403E+02  0.00000000000E+00 0.  1.
          1    1    1    2  501    0 -0.25877125998E+03  0.11855854577E+03 -0.14237004475E+03  0.31825763684E+03  0.00000000000E+00 0. -1.
<scales pt_clust_5="13000.00000" pt_clust_6="13000.00000" pt_clust_7="13000.00000" pt_clust_8="13000.00000" pt_clust_9="35.01216" pt_clust_10="294.59611"></scales>
<clustering>
<clus scale="   35.012">  1  9  2 -1</clus>
<clus scale="   79.819">  7  8 -1 -1</clus>
<clus scale="   81.334">  5  6 -1 -1</clus>
<clus scale="   97.935">  2  5  1 -1</clus>
<clus scale="  294.596">  1 10  2 -1</clus>
<clus scale="   35.012">  1  5  2 -1</clus>
</clustering>
</event>
<event>
10    4  0.2977685E-005  0.3090960E+03  0.7546771E-02  0.1099074E+00
          2   -1    0    0  503    0 -0.00000000000E+00  0.00000000000E+00  0.27968650727E+04  0.27968650727E+04  0.00000000000E+00 0. -1.
         21   -1    0    0  501  502  0.00000000000E+00 -0.00000000000E+00 -0.13601257314E+03  0.13601257314E+03  0.00000000000E+00 0. -1.
         23    2    1    2    0    0  0.20293079003E+02  0.17656467937E+03  0.12082690185E+03  0.23533091658E+03  0.95888503116E+02 0.  0.
         24    2    1    2    0    0 -0.92513917333E+02 -0.29189541809E+03  0.13768640221E+04  0.14127405751E+04  0.79496146334E+02 0.  0.
        -13    1    4    4    0    0  0.52942983088E+01 -0.27948646670E+02  0.63958803326E+02  0.69999178339E+02  0.00000000000E+00 0.  1.
         14    1    4    4    0    0 -0.97808215641E+02 -0.26394677142E+03  0.13129052187E+04  0.13427413968E+04  0.00000000000E+00 0. -1.
        -13    1    3    3    0    0  0.28488372665E+02  0.55814586462E+01  0.29184892407E+02  0.41164280663E+02  0.00000000000E+00 0.  1.
         13    1    3    3    0    0 -0.81952936616E+01  0.17098322073E+03  0.91642009447E+02  0.19416663592E+03  0.00000000000E+00 0. -1.
         21    1    1    2  503  502 -0.84221099075E+02 -0.13893143902E+03  0.79195298892E+03  0.80844583921E+03  0.00000000000E+00 0. -1.
          1    1    1    2  501    0  0.15644193740E+03  0.25426217773E+03  0.37120858674E+03  0.47636031497E+03  0.00000000000E+00 0. -1.
<scales pt_clust_5="13000.00000" pt_clust_6="13000.00000" pt_clust_7="13000.00000" pt_clust_8="13000.00000" pt_clust_9="162.46581" pt_clust_10="298.69831"></scales>
<clustering>
<clus scale="   79.496">  5  6 -1 -1</clus>
<clus scale="   95.889">  7  8 -1 -1</clus>
<clus scale="  162.466">  1  9  2 -1</clus>
<clus scale="  190.554">  1  7  2 -1</clus>
<clus scale="  298.698">  2 10  1 -1</clus>
<clus scale="  298.698">  2  5  1 -1</clus>
</clustering>
</event>
<event>
10    4  0.2977685E-005  0.2248024E+03  0.7546771E-02  0.1130817E+00
         21   -1    0    0  501  502  0.00000000000E+00  0.00000000000E+00  0.50783764048E+03  0.50783764048E+03  0.00000000000E+00 0.  1.
          2   -1    0    0  503    0 -0.00000000000E+00 -0.00000000000E+00 -0.55652147926E+03  0.55652147926E+03  0.00000000000E+00 0. -1.
         24    2    1    2    0    0 -0.15737098057E+03 -0.16660433242E+03 -0.36341721332E+03  0.43657673810E+03  0.77489019943E+02 0.  0.
         23    2    1    2    0    0  0.12419701045E+03  0.23845116828E+03  0.95025782360E+02  0.29741720085E+03  0.84517660816E+02 0.  0.
        -11    1    3    3    0    0 -0.26878894796E+02 -0.20553830452E+02 -0.15275513262E+02  0.37125142924E+02  0.00000000000E+00 0.  1.
         12    1    3    3    0    0 -0.13049208578E+03 -0.14605050196E+03 -0.34814170006E+03  0.39945159518E+03  0.00000000000E+00 0. -1.
        -13    1    4    4    0    0  0.98207601770E-01  0.79085614342E+02  0.17043592347E+02  0.80901347829E+02  0.00000000000E+00 0. -1.
         13    1    4    4    0    0  0.12409880284E+03  0.15936555393E+03  0.77982190012E+02  0.21651585302E+03  0.00000000000E+00 0.  1.
         21    1    1    2  503  502  0.42836190351E+02  0.17812200641E+02 -0.36321447675E+02  0.58919107739E+02  0.00000000000E+00 0. -1.
          1    1    1    2  501    0 -0.96622202256E+01 -0.89659036501E+02  0.25602903985E+03  0.27144607305E+03  0.00000000000E+00 0. -1.
<scales pt_clust_5="13000.00000" pt_clust_6="13000.00000" pt_clust_7="13000.00000" pt_clust_8="13000.00000" pt_clust_9="46.39196" pt_clust_10="89.84250"></scales>
<clustering>
<clus scale="   46.392">  2  9  1 -1</clus>
<clus scale="   77.489">  5  6 -1 -1</clus>
<clus scale="   84.518">  7  8 -1 -1</clus>
<clus scale="   89.843">  1 10  2 -1</clus>
<clus scale="  222.255">  2  5  1 -1</clus>
<clus scale="   89.843">  1  5  2 -1</clus>
</clustering>
</event>
<event>
10    4  0.2977685E-005  0.3261384E+03  0.7546771E-02  0.1116609E+00
          4   -1    0    0  503    0 -0.00000000000E+00  0.00000000000E+00  0.49152975993E+03  0.49152975993E+03  0.00000000000E+00 0. -1.
         21   -1    0    0  501  502  0.00000000000E+00 -0.00000000000E+00 -0.39636054419E+03  0.39636054419E+03  0.00000000000E+00 0.  1.
         23    2    1    2    0    0  0.48873739067E+02 -0.16517973882E+02  0.21229606392E+02  0.10578759670E+03  0.89882331948E+02 0.  0.
         24    2    1    2    0    0 -0.31154494194E+03  0.10689471473E+03 -0.18316833087E+03  0.38500861332E+03  0.78703646724E+02 0.  0.
        -11    1    4    4    0    0 -0.29407500351E+03  0.87770850293E+02 -0.18614776614E+03  0.35893567765E+03  0.00000000000E+00 0.  1.
         12    1    4    4    0    0 -0.17469938434E+02  0.19123864439E+02  0.29794352682E+01  0.26072935671E+02  0.00000000000E+00 0. -1.
        -11    1    3    3    0    0 -0.57514368172E+01 -0.33559045183E+02  0.32946328138E+02  0.47378782982E+02  0.00000000000E+00 0. -1.
         11    1    3    3    0    0  0.54625175884E+02  0.17041071301E+02 -0.11716721746E+02  0.58408813718E+02  0.00000000000E+00 0.  1.
         21    1    1    2  503  502 -0.79270553666E+01 -0.19659830444E+02  0.30422886777E+02  0.37079632950E+02  0.00000000000E+00 0.  1.
          3    1    1    2  501    0  0.27059825824E+03 -0.70716910406E+02  0.22668505345E+03  0.36001446115E+03  0.00000000000E+00 0. -1.
<scales pt_clust_5="13000.00000" pt_clust_6="13000.00000" pt_clust_7="13000.00000" pt_clust_8="13000.00000" pt_clust_9="21.19781" pt_clust_10="316.49971"></scales>
<clustering>
<clus scale="   21.198">  1  9  2 -1</clus>
<clus scale="   78.704">  5  6 -1 -1</clus>
<clus scale="   89.882">  7  8 -1 -1</clus>
<clus scale="  103.593">  1  7  2 -1</clus>
<clus scale="  316.500">  2 10  1 -1</clus>
<clus scale="  316.500">  2  5  1 -1</clus>
</clustering>
</event>
<event>
10    4  0.2977685E-005  0.1772697E+03  0.7546771E-02  0.1186461E+00
         21   -1    0    0  503  502  0.00000000000E+00  0.00000000000E+00  0.31109170103E+03  0.31109170103E+03  0.00000000000E+00 0.  1.
         -1   -1    0    0    0  501 -0.00000000000E+00 -0.00000000000E+00 -0.23133550641E+03  0.23133550641E+03  0.00000000000E+00 0.  1.
         24    2    1    2    0    0 -0.73486991987E+02 -0.52347184901E+02  0.56493704694E+02  0.13429750462E+03  0.81876219497E+02 0.  0.
         23    2    1    2    0    0  0.97979439555E+02 -0.12838543899E+03  0.20304817707E+02  0.18649171887E+03  0.91016943833E+02 0.  0.
        -13    1    3    3    0    0 -0.76206456445E+02 -0.51818914351E+02  0.15788491283E+02  0.93498130171E+02  0.00000000000E+00 0.  1.
         14    1    3    3    0    0  0.27194644583E+01 -0.52827054965E+00  0.40705213411E+02  0.40799374450E+02  0.00000000000E+00 0. -1.
        -11    1    4    4    0    0  0.10403709054E+02 -0.81976219397E+02  0.27573712491E+02  0.87112842505E+02  0.00000000000E+00 0.  1.
         11    1    4    4    0    0  0.87575730501E+02 -0.46409219589E+02 -0.72688947834E+01  0.99378876362E+02  0.00000000000E+00 0. -1.
         21    1    1    2  503  501 -0.26971581238E+02  0.20517023821E+02 -0.43182751910E+02  0.54892299309E+02  0.00000000000E+00 0. -1.
         -2    1    1    2    0  502  0.24791336693E+01  0.16021560007E+03  0.46140424129E+02  0.16674568464E+03  0.00000000000E+00 0.  1.
<scales pt_clust_5="13000.00000" pt_clust_6="13000.00000" pt_clust_7="13000.00000" pt_clust_8="13000.00000" pt_clust_9="33.88826" pt_clust_10="152.11987"></scales>
<clustering>
<clus scale="   33.888">  2  9  1 -1</clus>
<clus scale="   81.876">  5  6 -1 -1</clus>
<clus scale="   91.017">  7  8 -1 -1</clus>
<clus scale="  123.629">  2  5  1 -1</clus>
<clus scale="  152.120">  1 10  2 -1</clus>
<clus scale="  152.120">  1  5  2 -1</clus>
</clustering>
</event>
<event>
10    4  0.2977685E-005  0.2292293E+03  0.7546771E-02  0.1155833E+00
         -1   -1    0    0    0  501 -0.00000000000E+00  0.00000000000E+00  0.40163042429E+03  0.40163042429E+03  0.00000000000E+00 0.  1.
         21   -1    0    0  503  502  0.00000000000E+00 -0.00000000000E+00 -0.23485419171E+03  0.23485419171E+03  0.00000000000E+00 0.  1.
         23    2    1    2    0    0  0.66350774172E+02 -0.49508657239E+01  0.45946584745E+02  0.12108330464E+03  0.90128473349E+02 0.  0.
         24    2    1    2    0    0 -0.19536153804E+03 -0.14980502169E+03 -0.18632956697E+02  0.25960696841E+03  0.80255316982E+02 0.  0.
        -13    1    4    4    0    0 -0.19499733148E+03 -0.11974687389E+03 -0.18049179858E+02  0.22954094620E+03  0.00000000000E+00 0.  1.
         14    1    4    4    0    0 -0.36420655499E+00 -0.30058147807E+02 -0.58377683878E+00  0.30066022208E+02  0.00000000000E+00 0. -1.
        -13    1    3    3    0    0  0.91983809842E+01  0.28274669900E+02  0.46239505586E+02  0.54974167093E+02  0.00000000000E+00 0.  1.
         13    1    3    3    0    0  0.57152393188E+02 -0.33225535624E+02 -0.29292084141E+00  0.66109137547E+02  0.00000000000E+00 0. -1.
         21    1    1    2  503  501  0.21528538869E+02  0.95410473744E+01  0.47622058152E+02  0.53125982283E+02  0.00000000000E+00 0. -1.
         -2    1    1    2    0  502  0.10748222499E+03  0.14521484004E+03  0.91840546372E+02  0.20266836067E+03  0.00000000000E+00 0.  1.
<scales pt_clust_5="13000.00000" pt_clust_6="13000.00000" pt_clust_7="13000.00000" pt_clust_8="13000.00000" pt_clust_9="23.54803" pt_clust_10="214.72123"></scales>
<clustering>
<clus scale="   23.548">  1  9  2 -1</clus>
<clus scale="   80.255">  5  6 -1 -1</clus>
<clus scale="   90.128">  7  8 -1 -1</clus>
<clus scale="  115.057">  1  7  2 -1</clus>
<clus scale="  214.721">  2 10  1 -1</clus>
<clus scale="  214.721">  2  5  1 -1</clus>
</clustering>
</event>
<event>
10    4  0.2977685E-005  0.2821402E+03  0.7546771E-02  0.1137680E+00
          2   -1    0    0  503    0 -0.00000000000E+00  0.00000000000E+00  0.30790217876E+03  0.30790217876E+03  0.00000000000E+00 0. -1.
         21   -1    0    0  501  502  0.00000000000E+00 -0.00000000000E+00 -0.43832897949E+03  0.43832897949E+03  0.00000000000E+00 0. -1.
         24    2    1    2    0    0  0.11288089691E+02  0.42329454884E+02 -0.79288166025E+02  0.12480523484E+03  0.85851788865E+02 0.  0.
         23    2    1    2    0    0  0.19456659282E+03 -0.19051850729E+03 -0.12018816300E+03  0.31061986912E+03  0.88803422815E+02 0.  0.
        -13    1    3    3    0    0  0.34344809268E+02  0.20812822362E+02 -0.74356568128E+00  0.40165811186E+02  0.00000000000E+00 0.  1.
         14    1    3    3    0    0 -0.23056719577E+02  0.21516632523E+02 -0.78544600343E+02  0.84639423650E+02  0.00000000000E+00 0. -1.
        -11    1    4    4    0    0  0.33674103611E+02 -0.36962894450E+02  0.12627913406E+02  0.51571940211E+02  0.00000000000E+00 0.  1.
         11    1    4    4    0    0  0.16089248921E+03 -0.15355561284E+03 -0.13281607641E+03  0.25904792891E+03  0.00000000000E+00 0. -1.
         21    1    1    2  503  502 -0.16336536719E+02 -0.30852688284E+02  0.32209392024E+02  0.47499639376E+02  0.00000000000E+00 0.  1.
          1    1    1    2  501    0 -0.18951814580E+03  0.17904174069E+03  0.36840136281E+02  0.26330641492E+03  0.00000000000E+00 0. -1.
<scales pt_clust_5="13000.00000" pt_clust_6="13000.00000" pt_clust_7="13000.00000" pt_clust_8="13000.00000" pt_clust_9="34.91090" pt_clust_10="267.80050"></scales>
<clustering>
<clus scale="   34.911">  1  9  2 -1</clus>
<clus scale="   85.852">  5  6 -1 -1</clus>
<clus scale="   88.803">  7  8 -1 -1</clus>
<clus scale="   95.108">  1  5  2 -1</clus>
<clus scale="  267.800">  2 10  1 -1</clus>
<clus scale="  267.800">  2  5  1 -1</clus>
</clustering>
</event>
<event>
10    4  0.2977685E-005  0.9180298E+02  0.7546771E-02  0.1305275E+00
         21   -1    0    0  501  502  0.00000000000E+00  0.00000000000E+00  0.35862178297E+02  0.35862178297E+02  0.00000000000E+00 0.  1.
          2   -1    0    0  503    0 -0.00000000000E+00 -0.00000000000E+00 -0.51052157987E+03  0.51052157987E+03  0.00000000000E+00 0. -1.
         24    2    1    2    0    0 -0.10143514729E+02 -0.32579588904E+01 -0.23226934352E+03  0.24601565446E+03  0.80381273393E+02 0.  0.
         23    2    1    2    0    0  0.64331631833E+01  0.21333518924E+02 -0.81460540788E+02  0.12426188271E+03  0.91152022315E+02 0.  0.
        -13    1    3    3    0    0 -0.42990742877E+02 -0.14458320593E+02 -0.11188991260E+03  0.12073358915E+03  0.00000000000E+00 0.  1.
         14    1    3    3    0    0  0.32847228148E+02  0.11200361702E+02 -0.12037943092E+03  0.12528206531E+03  0.00000000000E+00 0. -1.
        -11    1    4    4    0    0  0.28668276664E+01  0.44879159588E+02 -0.62888531425E+01  0.45408229871E+02  0.00000000000E+00 0.  1.
         11    1    4    4    0    0  0.35663355169E+01 -0.23545640664E+02 -0.75171687646E+02  0.78853652844E+02  0.00000000000E+00 0. -1.
         21    1    1    2  503  502  0.36266814899E+02 -0.61056800934E+01 -0.79347795939E+02  0.87456468673E+02  0.00000000000E+00 0. -1.
          1    1    1    2  501    0 -0.32556463353E+02 -0.11969879940E+02 -0.81581721318E+02  0.88649752312E+02  0.00000000000E+00 0. -1.
<scales pt_clust_5="13000.00000" pt_clust_6="13000.00000" pt_clust_7="13000.00000" pt_clust_8="13000.00000" pt_clust_9="33.07059" pt_clust_10="34.68721"></scales>
<clustering>
<clus scale="   34.687">  1 10  2 -1</clus>
<clus scale="   33.071">  2  9  1 -1</clus>
<clus scale="   80.381">  5  6 -1 -1</clus>
<clus scale="   81.119">  2  5  1 -1</clus>
<clus scale="   91.152">  7  8 -1 -1</clus>
<clus scale="   34.687">  1  5  2 -1</clus>
</clustering>
</event>
<event>
10    4  0.2977685E-005  0.1296499E+03  0.7546771E-02  0.1228840E+00
         -3   -1    0    0    0  501 -0.00000000000E+00  0.00000000000E+00  0.11916469099E+03  0.11916469099E+03  0.00000000000E+00 0.  1.
         21   -1    0    0  503  502  0.00000000000E+00 -0.00000000000E+00 -0.34816732707E+03  0.34816732707E+03  0.00000000000E+00 0.  1.
         24    2    1    2    0    0 -0.23699192739E+02 -0.10406816749E+03  0.21642952433E+02  0.13582357390E+03  0.81165205690E+02 0.  0.
         23    2    1    2    0    0  0.22736732511E+02  0.62843374346E+02 -0.11553915567E+03  0.15809563753E+03  0.84727123214E+02 0.  0.
        -11    1    3    3    0    0  0.15202414909E+02 -0.28973130645E+02 -0.23188209102E+02  0.40102976944E+02  0.00000000000E+00 0.  1.
         12    1    3    3    0    0 -0.38901607647E+02 -0.75095036845E+02  0.44831161535E+02  0.95720596952E+02  0.00000000000E+00 0. -1.
        -13    1    4    4    0    0  0.78307469676E+01 -0.20799228943E+02 -0.31862615251E+02  0.38847841295E+02  0.00000000000E+00 0.  1.
         13    1    4    4    0    0  0.14905985543E+02  0.83642603289E+02 -0.83676540416E+02  0.11924779623E+03  0.00000000000E+00 0. -1.
         21    1    1    2  503  501  0.15566326110E+02 -0.15478902789E+02  0.41550577529E+01  0.22342145041E+02  0.00000000000E+00 0. -1.
         -4    1    1    2    0  502 -0.14603865882E+02  0.56703695932E+02 -0.13926149060E+03  0.15107066160E+03  0.00000000000E+00 0.  1.
<scales pt_clust_5="13000.00000" pt_clust_6="13000.00000" pt_clust_7="13000.00000" pt_clust_8="13000.00000" pt_clust_9="21.95238" pt_clust_10="57.50541"></scales>
<clustering>
<clus scale="   21.952">  1  9  2 -1</clus>
<clus scale="   57.505">  2 10  1 -1</clus>
<clus scale="   81.165">  5  6 -1 -1</clus>
<clus scale="   84.727">  7  8 -1 -1</clus>
<clus scale="  127.351">  1  5  2 -1</clus>
<clus scale="   57.505">  2  5  1 -1</clus>
</clustering>
</event>
<event>
10    4  0.2977685E-005  0.1587117E+03  0.7546771E-02  0.1190675E+00
         21   -1    0    0  503  502  0.00000000000E+00  0.00000000000E+00  0.29848677950E+03  0.29848677950E+03  0.00000000000E+00 0.  1.
         -3   -1    0    0    0  501 -0.00000000000E+00 -0.00000000000E+00 -0.10322360384E+04  0.10322360384E+04  0.00000000000E+00 0.  1.
         24    2    1    2    0    0  0.22732087960E+02 -0.18138226068E+03 -0.45062497187E+03  0.49436410937E+03  0.88976036384E+02 0.  0.
         23    2    1    2    0    0  0.12319932224E+03  0.10523952922E+03  0.41802231919E+02  0.19100991230E+03  0.92108243344E+02 0.  0.
        -13    1    3    3    0    0  0.20621873830E+02 -0.14079035420E+03 -0.42006488360E+03  0.44351064468E+03  0.00000000000E+00 0.  1.
         14    1    3    3    0    0  0.21102141302E+01 -0.40591906483E+02 -0.30560088268E+02  0.50853464686E+02  0.00000000000E+00 0. -1.
        -11    1    4    4    0    0  0.12893967261E+02  0.61986589579E+02  0.34973736201E+02  0.72330864112E+02  0.00000000000E+00 0. -1.
         11    1    4    4    0    0  0.11030535498E+03  0.43252939646E+02  0.68284957186E+01  0.11867904819E+03  0.00000000000E+00 0.  1.
         21    1    1    2  503  501  0.52569190238E+01  0.62146136316E+02 -0.44650280583E+03  0.45083759057E+03  0.00000000000E+00 0.  1.
         -4    1    1    2    0  502 -0.15118832923E+03  0.13996595139E+02  0.12157628692E+03  0.19451120562E+03  0.00000000000E+00 0.  1.
<scales pt_clust_5="13000.00000" pt_clust_6="13000.00000" pt_clust_7="13000.00000" pt_clust_8="13000.00000" pt_clust_9="62.36808" pt_clust_10="151.91572"></scales>
<clustering>
<clus scale="   62.368">  2  9  1 -1</clus>
<clus scale="   88.976">  5  6 -1 -1</clus>
<clus scale="   92.108">  7  8 -1 -1</clus>
<clus scale="  151.916">  1 10  2 -1</clus>
<clus scale="  156.915">  2  5  1 -1</clus>
<clus scale="  151.916">  1  5  2 -1</clus>
</clustering>
</event>
<event>
10    4  0.2977685E-005  0.1379418E+03  0.7546771E-02  0.1238992E+00
          2   -1    0    0  503    0 -0.00000000000E+00  0.00000000000E+00  0.16854921343E+03  0.16854921343E+03  0.00000000000E+00 0. -1.
         21   -1    0    0  501  502  0.00000000000E+00 -0.00000000000E+00 -0.31411958028E+03  0.31411958028E+03  0.00000000000E+00 0. -1.
         24    2    1    2    0    0 -0.39616915023E+02  0.42034565222E+00  0.83423775771E+02  0.12342497472E+03  0.81881141752E+02 0.  0.
         23    2    1    2    0    0 -0.89267003835E+02  0.10319247976E+02 -0.78078613344E+02  0.15061334646E+03  0.92266057778E+02 0.  0.
        -11    1    3    3    0    0  0.21672845619E+02 -0.16470576340E+02  0.28496258576E+02  0.39408487348E+02  0.00000000000E+00 0.  1.
         12    1    3    3    0    0 -0.61289760642E+02  0.16890921993E+02  0.54927517195E+02  0.84016487373E+02  0.00000000000E+00 0. -1.
        -13    1    4    4    0    0 -0.86160652889E+02 -0.21253228802E+02 -0.31319556201E+02  0.94107770356E+02  0.00000000000E+00 0. -1.
         13    1    4    4    0    0 -0.31063509465E+01  0.31572476777E+02 -0.46759057143E+02  0.56505576105E+02  0.00000000000E+00 0.  1.
         21    1    1    2  503  502  0.21430321035E+02  0.54531623836E+01  0.66439215190E+00  0.22123224371E+02  0.00000000000E+00 0.  1.
          1    1    1    2  501    0  0.10745359782E+03 -0.16192756011E+02 -0.15157992143E+03  0.18650724815E+03  0.00000000000E+00 0. -1.
<scales pt_clust_5="13000.00000" pt_clust_6="13000.00000" pt_clust_7="13000.00000" pt_clust_8="13000.00000" pt_clust_9="22.11325" pt_clust_10="102.54230"></scales>
<clustering>
<clus scale="   22.113">  1  9  2 -1</clus>
<clus scale="   81.881">  5  6 -1 -1</clus>
<clus scale="   85.858">  1  5  2 -1</clus>
<clus scale="   92.266">  7  8 -1 -1</clus>
<clus scale="  102.542">  2 10  1 -1</clus>
<clus scale="  102.542">  2  5  1 -1</clus>
</clustering>
</event>
<event>
10    4  0.2977685E-005  0.2270636E+03  0.7546771E-02  0.1142510E+00
         -1   -1    0    0    0  501 -0.00000000000E+00  0.00000000000E+00  0.13305553345E+04  0.13305553345E+04  0.00000000000E+00 0.  1.
         21   -1    0    0  503  502  0.00000000000E+00 -0.00000000000E+00 -0.14707594453E+03  0.14707594453E+03  0.00000000000E+00 0.  1.
         24    2    1    2    0    0  0.13171434845E+03  0.41078199764E+02  0.17135068357E+02  0.16117622470E+03  0.81535739144E+02 0.  0.
         23    2    1    2    0    0 -0.24265754926E+03  0.88122350677E+02  0.84483543863E+03  0.88807452513E+03  0.91001147882E+02 0.  0.
        -11    1    3    3    0    0  0.13062388988E+03  0.28617706156E+02 -0.70929118436E+01  0.13390998137E+03  0.00000000000E+00 0.  1.
         12    1    3    3    0    0  0.10904585750E+01  0.12460493607E+02  0.24227980201E+02  0.27266243332E+02  0.00000000000E+00 0. -1.
        -13    1    4    4    0    0 -0.16243132945E+03  0.12161684337E+02  0.52566124389E+03  0.55031953144E+03  0.00000000000E+00 0.  1.
         13    1    4    4    0    0 -0.80226219805E+02  0.75960666339E+02  0.31917419473E+03  0.33775499368E+03  0.00000000000E+00 0. -1.
         21    1    1    2  503  501  0.16055826956E+02  0.56984194056E+02  0.13842202919E+03  0.15055114120E+03  0.00000000000E+00 0.  1.
         -2    1    1    2    0  502  0.94887373850E+02 -0.18618474450E+03  0.18308685376E+03  0.27782938797E+03  0.00000000000E+00 0.  1.
<scales pt_clust_5="13000.00000" pt_clust_6="13000.00000" pt_clust_7="13000.00000" pt_clust_8="13000.00000" pt_clust_9="59.20294" pt_clust_10="208.03046"></scales>
<clustering>
<clus scale="   59.203">  1  9  2 -1</clus>
<clus scale="   81.536">  5  6 -1 -1</clus>
<clus scale="   91.001">  7  8 -1 -1</clus>
<clus scale="  162.400">  1  5  2 -1</clus>
<clus scale="  208.030">  2 10  1 -1</clus>
<clus scale="  208.030">  2  5  1 -1</clus>
</clustering>
</event>
<event>
10    4  0.2977685E-005  0.1352091E+03  0.7546771E-02  0.1222203E+00
         -1   -1    0    0    0  501 -0.00000000000E+00  0.00000000000E+00  0.27935594561E+03  0.27935594561E+03  0.00000000000E+00 0.  1.
         21   -1    0    0  503  502  0.00000000000E+00 -0.00000000000E+00 -0.31696907150E+03  0.31696907150E+03  0.00000000000E+00 0.  1.
         23    2    1    2    0    0 -0.48067033663E+02  0.41425579012E+02  0.29231961615E+02  0.11413202691E+03  0.90250172659E+02 0.  0.
         24    2    1    2    0    0  0.16573151668E+03 -0.23737194102E+01 -0.63048428010E+02  0.19475107697E+03  0.80500357396E+02 0.  0.
        -13    1    4    4    0    0  0.82500405905E+02  0.34013080153E+01  0.10872542913E+02  0.83283239971E+02  0.00000000000E+00 0.  1.
         14    1    4    4    0    0  0.83231110776E+02 -0.57750274255E+01 -0.73920970923E+02  0.11146783700E+03  0.00000000000E+00 0. -1.
        -11    1    3    3    0    0 -0.46590201695E+02  0.67009316008E+02  0.10280250857E+02  0.82259217620E+02  0.00000000000E+00 0.  1.
         11    1    3    3    0    0 -0.14768319678E+01 -0.25583736995E+02  0.18951710759E+02  0.31872809289E+02  0.00000000000E+00 0. -1.
         21    1    1    2  503  501 -0.42613049642E+02  0.23835677719E+02  0.12002906407E+03  0.12958004381E+03  0.00000000000E+00 0.  1.
         -2    1    1    2    0  502 -0.75051433376E+02 -0.62887537321E+02 -0.12382572356E+03  0.15786186942E+03  0.00000000000E+00 0.  1.
<scales pt_clust_5="13000.00000" pt_clust_6="13000.00000" pt_clust_7="13000.00000" pt_clust_8="13000.00000" pt_clust_9="48.82634" pt_clust_10="99.95336"></scales>
<clustering>
<clus scale="   48.826">  1  9  2 -1</clus>
<clus scale="   80.500">  5  6 -1 -1</clus>
<clus scale="   90.250">  7  8 -1 -1</clus>
<clus scale="   99.953">  2 10  1 -1</clus>
<clus scale="  128.906">  2  5  1 -1</clus>
<clus scale="   99.953">  2  5  1 -1</clus>
</clustering>
</event>
<event>
10    4  0.2977685E-005  0.2168035E+03  0.7546771E-02  0.1136978E+00
          2   -1    0    0  503    0 -0.00000000000E+00  0.00000000000E+00  0.36791217132E+03  0.36791217132E+03  0.00000000000E+00 0. -1.
         21   -1    0    0  501  502  0.00000000000E+00 -0.00000000000E+00 -0.50018224992E+03  0.50018224992E+03  0.00000000000E+00 0.  1.
         23    2    1    2    0    0 -0.88449488056E+01 -0.19455568368E+03  0.26284105442E+03  0.33907596709E+03  0.89201706215E+02 0.  0.
         24    2    1    2    0    0  0.88994895160E+02  0.16096311231E+03 -0.15803664097E+03  0.25537281828E+03  0.80065482802E+02 0.  0.
        -13    1    4    4    0    0  0.98774916544E+02  0.12474777746E+03 -0.14607043636E+03  0.21599783448E+03  0.00000000000E+00 0.  1.
         14    1    4    4    0    0 -0.97800213842E+01  0.36215334849E+02 -0.11966204607E+02  0.39374983800E+02  0.00000000000E+00 0. -1.
        -11    1    3    3    0    0 -0.29080048583E+02 -0.48977630114E+02  0.12591787119E+03  0.13820190940E+03  0.00000000000E+00 0. -1.
         11    1    3    3    0    0  0.20235099777E+02 -0.14557805357E+03  0.13692318324E+03  0.20087405769E+03  0.00000000000E+00 0.  1.
         21    1    1    2  503  502 -0.19469976468E+02 -0.91623171725E+01  0.35704586899E+01  0.21812295039E+02  0.00000000000E+00 0. -1.
          1    1    1    2  501    0 -0.60679969887E+02  0.42754888542E+02 -0.24064495075E+03  0.25183334084E+03  0.00000000000E+00 0. -1.
<scales pt_clust_5="13000.00000" pt_clust_6="13000.00000" pt_clust_7="13000.00000" pt_clust_8="13000.00000" pt_clust_9="21.51809" pt_clust_10="74.39776"></scales>
<clustering>
<clus scale="   21.518">  1  9  2 -1</clus>
<clus scale="   74.398">  2 10  1 -1</clus>
<clus scale="   80.065">  5  6 -1 -1</clus>
<clus scale="   89.202">  7  8 -1 -1</clus>
<clus scale="  213.207">  2  5  1 -1</clus>
<clus scale="   74.398">  2  5  1 -1</clus>
</clustering>
</event>
<event>
10    4  0.2977685E-005  0.1125461E+03  0.7546771E-02  0.1259251E+00
          2   -1    0    0  503    0 -0.00000000000E+00  0.00000000000E+00  0.14163514831E+04  0.14163514831E+04  0.00000000000E+00 0. -1.
         21   -1    0    0  501  502  0.00000000000E+00 -0.00000000000E+00 -0.82083250237E+02  0.82083250237E+02  0.00000000000E+00 0.  1.
         24    2    1    2    0    0  0.37190609818E+02  0.55598911746E+02  0.11683582883E+04  0.11730959315E+04  0.81354743130E+02 0.  0.
         23    2    1    2    0    0  0.53976299894E+02 -0.11421696982E+03  0.89199116420E+02  0.17914078819E+03  0.90421139544E+02 0.  0.
        -13    1    3    3    0    0  0.28818408576E+02  0.27441252065E+02  0.18196699692E+03  0.18626731049E+03  0.00000000000E+00 0.  1.
         14    1    3    3    0    0  0.83722012414E+01  0.28157659681E+02  0.98639129140E+03  0.98682862104E+03  0.00000000000E+00 0. -1.
        -11    1    4    4    0    0  0.60718513863E+02 -0.87571042092E+02  0.25217174876E+02  0.10950493709E+03  0.00000000000E+00 0.  1.
         11    1    4    4    0    0 -0.67422139689E+01 -0.26645927728E+02  0.63981941545E+02  0.69635851094E+02  0.00000000000E+00 0. -1.
         21    1    1    2  503  502 -0.53230575957E+00  0.22690498886E+02  0.31254371566E+02  0.38626128865E+02  0.00000000000E+00 0.  1.
          1    1    1    2  501    0 -0.90634603952E+02  0.35927559187E+02  0.45456456510E+02  0.10757188472E+03  0.00000000000E+00 0. -1.
<scales pt_clust_5="13000.00000" pt_clust_6="13000.00000" pt_clust_7="13000.00000" pt_clust_8="13000.00000" pt_clust_9="22.69674" pt_clust_10="101.34298"></scales>
<clustering>
<clus scale="   22.697">  2  9  1 -1</clus>
<clus scale="   81.355">  5  6 -1 -1</clus>
<clus scale="   90.421">  7  8 -1 -1</clus>
<clus scale="  101.343">  2 10  1 -1</clus>
<clus scale="  105.400">  1  5  2 -1</clus>
<clus scale="   22.697">  2  5  1 -1</clus>
</clustering>
</event>
<event>
10    4  0.2977685E-005  0.1053868E+03  0.7546771E-02  0.1275822E+00
         21   -1    0    0  503  502  0.00000000000E+00  0.00000000000E+00  0.21072338597E+03  0.21072338597E+03  0.00000000000E+00 0. -1.
         -3   -1    0    0    0  501 -0.00000000000E+00 -0.00000000000E+00 -0.25557152914E+03  0.25557152914E+03  0.00000000000E+00 0.  1.
         24    2    1    2    0    0 -0.26207614813E+02 -0.22388909620E+02 -0.40732786547E+02  0.95247007943E+02  0.78896959853E+02 0.  0.
         23    2    1    2    0    0  0.21707488135E+02  0.40500866410E+02  0.44205717065E+02  0.11286162451E+03  0.93123926269E+02 0.  0.
        -13    1    3    3    0    0 -0.32742566047E+02 -0.48155978825E+02 -0.35356242607E+02  0.68125896833E+02  0.00000000000E+00 0.  1.
         14    1    3    3    0    0  0.65349512349E+01  0.25767069206E+02 -0.53765439399E+01  0.27121111110E+02  0.00000000000E+00 0. -1.
        -11    1    4    4    0    0  0.55090351320E+02  0.42903000191E+02  0.24370356779E+02  0.73956260881E+02  0.00000000000E+00 0. -1.
         11    1    4    4    0    0 -0.33382863185E+02 -0.24021337812E+01  0.19835360286E+02  0.38905363625E+02  0.00000000000E+00 0.  1.
         21    1    1    2  503  501 -0.38417129745E+02 -0.15485658910E+02 -0.14584049991E+03  0.15160848559E+03  0.00000000000E+00 0.  1.
         -4    1    1    2    0  502  0.42917256422E+02 -0.26262978804E+01  0.97519426216E+02  0.10657779707E+03  0.00000000000E+00 0.  1.
<scales pt_clust_5="13000.00000" pt_clust_6="13000.00000" pt_clust_7="13000.00000" pt_clust_8="13000.00000" pt_clust_9="41.42079" pt_clust_10="41.41907"></scales>
<clustering>
<clus scale="   41.421">  2  9  1 -1</clus>
<clus scale="   41.419">  1 10  2 -1</clus>
<clus scale="   78.897">  5  6 -1 -1</clus>
<clus scale="   93.054">  2  5  1 -1</clus>
<clus scale="   93.124">  7  8 -1 -1</clus>
<clus scale="   41.419">  1  5  2 -1</clus>
</clustering>
</event>
<event>
10    4  0.2977685E-005  0.2735717E+03  0.7546771E-02  0.1099715E+00
          2   -1    0    0  503    0 -0.00000000000E+00  0.00000000000E+00  0.49925156254E+03  0.49925156254E+03  0.00000000000E+00 0. -1.
         21   -1    0    0  501  502  0.00000000000E+00 -0.00000000000E+00 -0.27985657412E+03  0.27985657412E+03  0.00000000000E+00 0. -1.
         24    2    1    2    0    0  0.80323282349E+02 -0.16626376362E+03  0.67399730338E+01  0.20202588800E+03  0.81691880896E+02 0.  0.
         23    2    1    2    0    0 -0.98866742869E+02  0.33083412360E+03  0.15302407718E+03  0.38870753486E+03  0.91931111556E+02 0.  0.
        -11    1    3    3    0    0  0.44558932645E+02 -0.14796380304E+03  0.27261152733E+02  0.15691384877E+03  0.00000000000E+00 0.  1.
         12    1    3    3    0    0  0.35764349704E+02 -0.18299960586E+02 -0.20521179699E+02  0.45112039230E+02  0.00000000000E+00 0. -1.
        -13    1    4    4    0    0  0.12419487841E+02  0.35711012955E+02 -0.73700034083E+00  0.37816177676E+02  0.00000000000E+00 0.  1.
         13    1    4    4    0    0 -0.11128623071E+03  0.29512311065E+03  0.15376107752E+03  0.35089135718E+03  0.00000000000E+00 0. -1.
         21    1    1    2  503  502 -0.48475922201E+00 -0.22424939708E+02  0.36883755201E+02  0.43168556962E+02  0.00000000000E+00 0. -1.
          1    1    1    2  501    0  0.19028219742E+02 -0.14214542027E+03  0.22747183000E+02  0.14520615684E+03  0.00000000000E+00 0. -1.
<scales pt_clust_5="13000.00000" pt_clust_6="13000.00000" pt_clust_7="13000.00000" pt_clust_8="13000.00000" pt_clust_9="22.43018" pt_clust_10="147.46746"></scales>
<clustering>
<clus scale="   22.430">  1  9  2 -1</clus>
<clus scale="   81.692">  5  6 -1 -1</clus>
<clus scale="   91.931">  7  8 -1 -1</clus>
<clus scale="  147.467">  2 10  1 -1</clus>
<clus scale="  270.303">  1  5  2 -1</clus>
<clus scale="  147.467">  2  5  1 -1</clus>
</clustering>
</event>
<event>
10    4  0.2977685E-005  0.1145110E+03  0.7546771E-02  0.1256203E+00
          2   -1    0    0  503    0 -0.00000000000E+00  0.00000000000E+00  0.54409571488E+03  0.54409571488E+03  0.00000000000E+00 0. -1.
         21   -1    0    0  501  502  0.00000000000E+00 -0.00000000000E+00 -0.78144936078E+02  0.78144936078E+02  0.00000000000E+00 0.  1.
         23    2    1    2    0    0  0.86981629123E+02  0.18194566345E+02  0.20982898903E+03  0.24564549113E+03  0.91742338248E+02 0.  0.
         24    2    1    2    0    0 -0.52038964292E+02 -0.12344920428E+02  0.27152345714E+02  0.10096705066E+03  0.81219730217E+02 0.  0.
        -11    1    4    4    0    0 -0.32884308830E+02  0.20364121698E+02 -0.17450425436E+02  0.42433389774E+02  0.00000000000E+00 0.  1.
         12    1    4    4    0    0 -0.19154655462E+02 -0.32709042126E+02  0.44602771150E+02  0.58533660888E+02  0.00000000000E+00 0. -1.
        -13    1    3    3    0    0  0.83673082895E+01  0.43699577220E+02  0.62532524824E+02  0.76746215269E+02  0.00000000000E+00 0.  1.
         13    1    3    3    0    0  0.78614320834E+02 -0.25505010875E+02  0.14729646420E+03  0.16889927586E+03  0.00000000000E+00 0. -1.
         21    1    1    2  503  502 -0.17449657151E+02 -0.27437343886E+02  0.24253705726E+03  0.24470701363E+03  0.00000000000E+00 0. -1.
          1    1    1    2  501    0 -0.17493007680E+02  0.21587697968E+02 -0.13567613199E+02  0.30921095537E+02  0.00000000000E+00 0. -1.
<scales pt_clust_5="13000.00000" pt_clust_6="13000.00000" pt_clust_7="13000.00000" pt_clust_8="13000.00000" pt_clust_9="32.34882" pt_clust_10="27.78550"></scales>
<clustering>
<clus scale="   27.786">  2 10  1 -1</clus>
<clus scale="   32.349">  1  9  2 -1</clus>
<clus scale="   81.220">  5  6 -1 -1</clus>
<clus scale="   91.742">  7  8 -1 -1</clus>
<clus scale="  106.267">  2  5  1 -1</clus>
<clus scale="   27.786">  2  5  1 -1</clus>
</clustering>
</event>
<event>
10    4  0.2977685E-005  0.9871296E+02  0.7546771E-02  0.1288586E+00
         -1   -1    0    0    0  501 -0.00000000000E+00  0.00000000000E+00  0.42128951187E+03  0.42128951187E+03  0.00000000000E+00 0.  1.
         21   -1    0    0  503  502  0.00000000000E+00 -0.00000000000E+00 -0.83822805643E+02  0.83822805643E+02  0.00000000000E+00 0. -1.
         24    2    1    2    0    0  0.45991428931E+02  0.27678607849E+02  0.14383779410E+03  0.17386014753E+03  0.81588743213E+02 0.  0.
         23    2    1    2    0    0  0.21922801074E+02 -0.32469012260E+01 -0.21729746761E+02  0.97278424768E+02  0.92194134610E+02 0.  0.
        -11    1    3    3    0    0  0.10841778178E+02  0.52320889187E+02  0.93624203457E+02  0.10779847435E+03  0.00000000000E+00 0.  1.
         12    1    3    3    0    0  0.35149650753E+02 -0.24642281338E+02  0.50213590645E+02  0.66061673178E+02  0.00000000000E+00 0. -1.
        -11    1    4    4    0    0 -0.31633648574E+02  0.14505712917E+02  0.44395058794E+01  0.35082939469E+02  0.00000000000E+00 0.  1.
         11    1    4    4    0    0  0.53556449648E+02 -0.17752614143E+02 -0.26169252641E+02  0.62195485299E+02  0.00000000000E+00 0. -1.
         21    1    1    2  503  501 -0.19746647705E+01 -0.20809886426E+02  0.88733630425E+02  0.91162535301E+02  0.00000000000E+00 0.  1.
         -2    1    1    2    0  502 -0.65939565235E+02 -0.36218201970E+01  0.12662502846E+03  0.14281120992E+03  0.00000000000E+00 0.  1.
<scales pt_clust_5="13000.00000" pt_clust_6="13000.00000" pt_clust_7="13000.00000" pt_clust_8="13000.00000" pt_clust_9="20.90337" pt_clust_10="67.82736"></scales>
<clustering>
<clus scale="   20.903">  1  9  2 -1</clus>
<clus scale="   67.827">  2 10  1 -1</clus>
<clus scale="   81.589">  5  6 -1 -1</clus>
<clus scale="   88.889">  1  5  2 -1</clus>
<clus scale="   92.194">  7  8 -1 -1</clus>
<clus scale="   67.827">  2  5  1 -1</clus>
</clustering>
</event>
<event>
10    4  0.2977685E-005  0.1266125E+03  0.7546771E-02  0.1237692E+00
          2   -1    0    0  503    0 -0.00000000000E+00  0.00000000000E+00  0.13128548166E+03  0.13128548166E+03  0.00000000000E+00 0. -1.
         21   -1    0    0  501  502  0.00000000000E+00 -0.00000000000E+00 -0.50872032773E+03  0.50872032773E+03  0.00000000000E+00 0. -1.
         24    2    1    2    0    0  0.88409481852E+01 -0.76533508405E+02  0.47240993382E+02  0.12083543684E+03  0.80211913501E+02 0.  0.
         23    2    1    2    0    0 -0.94299844361E+01  0.55229305374E+02 -0.16649137132E+03  0.20081143533E+03  0.97296737115E+02 0.  0.
        -13    1    3    3    0    0 -0.10229959448E+02 -0.57403245507E+02 -0.84714158920E+01  0.58919857029E+02  0.00000000000E+00 0.  1.
         14    1    3    3    0    0  0.19070907633E+02 -0.19130262898E+02  0.55712409274E+02  0.61915579814E+02  0.00000000000E+00 0. -1.
        -11    1    4    4    0    0 -0.25114883405E+02  0.75239250164E+02 -0.88810224689E+02  0.11907543048E+03  0.00000000000E+00 0. -1.
         11    1    4    4    0    0  0.15684898969E+02 -0.20009944790E+02 -0.77681146636E+02  0.81736004850E+02  0.00000000000E+00 0.  1.
         21    1    1    2  503  502  0.46868422135E+02 -0.29867105876E+01  0.75206863136E+01  0.47561856105E+02  0.00000000000E+00 0.  1.
          1    1    1    2  501    0 -0.46279385884E+02  0.24290913619E+02 -0.26570515444E+03  0.27079708112E+03  0.00000000000E+00 0. -1.
<scales pt_clust_5="13000.00000" pt_clust_6="13000.00000" pt_clust_7="13000.00000" pt_clust_8="13000.00000" pt_clust_9="46.96349" pt_clust_10="51.21657"></scales>
<clustering>
<clus scale="   46.963">  1  9  2 -1</clus>
<clus scale="   51.217">  2 10  1 -1</clus>
<clus scale="   80.212">  5  6 -1 -1</clus>
<clus scale="   97.297">  7  8 -1 -1</clus>
<clus scale="  114.009">  1  5  2 -1</clus>
<clus scale="   51.217">  2  5  1 -1</clus>
</clustering>
</event>
<event>
10    4  0.2977685E-005  0.2666356E+03  0.7546771E-02  0.1103724E+00
         21   -1    0    0  501  502  0.00000000000E+00  0.00000000000E+00  0.15170713961E+03  0.15170713961E+03  0.00000000000E+00 0. -1.
          2   -1    0    0  503    0 -0.00000000000E+00 -0.00000000000E+00 -0.93834909830E+03  0.93834909830E+03  0.00000000000E+00 0. -1.
         24    2    1    2    0    0 -0.26786886661E+03  0.86613368355E+02 -0.37720757036E+03  0.47775656674E+03  0.81915692350E+02 0.  0.
         23    2    1    2    0    0  0.21503137383E+03  0.32771732509E+02 -0.96621741008E+02  0.25530419258E+03  0.92368781140E+02 0.  0.
        -11    1    3    3    0    0 -0.93134624288E+02  0.39879249909E+02 -0.76933148610E+02  0.12721290096E+03  0.00000000000E+00 0.  1.
         12    1    3    3    0    0 -0.17473424232E+03  0.46734118446E+02 -0.30027442175E+03  0.35054366578E+03  0.00000000000E+00 0. -1.
        -11    1    4    4    0    0  0.18453005601E+03  0.33821925014E+02 -0.41260238884E+02  0.19208766618E+03  0.00000000000E+00 0. -1.
         11    1    4    4    0    0  0.30501317816E+02 -0.10501925055E+01 -0.55361502124E+02  0.63216526401E+02  0.00000000000E+00 0.  1.
         21    1    1    2  503  502  0.61447318182E+01  0.20332590478E+02 -0.68384866322E+02  0.71607694464E+02  0.00000000000E+00 0.  1.
          1    1    1    2  501    0  0.46692760957E+02 -0.13971769134E+03 -0.24442778100E+03  0.28538778412E+03  0.00000000000E+00 0. -1.
<scales pt_clust_5="13000.00000" pt_clust_6="13000.00000" pt_clust_7="13000.00000" pt_clust_8="13000.00000" pt_clust_9="21.24081" pt_clust_10="142.07399"></scales>
<clustering>
<clus scale="   21.241">  2  9  1 -1</clus>
<clus scale="   81.916">  5  6 -1 -1</clus>
<clus scale="   92.369">  7  8 -1 -1</clus>
<clus scale="  142.074">  1 10  2 -1</clus>
<clus scale="  263.197">  2  5  1 -1</clus>
<clus scale="  142.074">  1  5  2 -1</clus>
</clustering>
</event>
<event>
10    4  0.2977685E-005  0.2251781E+03  0.7546771E-02  0.1130947E+00
         21   -1    0    0  501  502  0.00000000000E+00  0.00000000000E+00  0.79465346677E+02  0.79465346677E+02  0.00000000000E+00 0. -1.
          2   -1    0    0  503    0 -0.00000000000E+00 -0.00000000000E+00 -0.28289700323E+04  0.28289700323E+04  0.00000000000E+00 0. -1.
         24    2    1    2    0    0 -0.38575375267E+02  0.20430141371E+03 -0.16055072638E+04  0.16209187413E+04  0.80603129523E+02 0.  0.
         23    2    1    2    0    0  0.73090680943E+02 -0.18905417172E+03 -0.94054787447E+03  0.96660292521E+03  0.92774906952E+02 0.  0.
        -11    1    3    3    0    0  0.94435116597E+01  0.81795938613E+02 -0.40956038100E+03  0.41775526468E+03  0.00000000000E+00 0.  1.
         12    1    3    3    0    0 -0.48018886927E+02  0.12250547510E+03 -0.11959468828E+04  0.12031634766E+04  0.00000000000E+00 0. -1.
        -13    1    4    4    0    0  0.36129833639E+02 -0.17619554365E+03 -0.83191720429E+03  0.85113833733E+03  0.00000000000E+00 0.  1.
         13    1    4    4    0    0  0.36960847304E+02 -0.12858628069E+02 -0.10863067019E+03  0.11546458788E+03  0.00000000000E+00 0. -1.
         21    1    1    2  503  502 -0.11063542259E+03 -0.37554490390E+02 -0.21104742469E+03  0.24122925186E+03  0.00000000000E+00 0. -1.
          1    1    1    2  501    0  0.76120116916E+02  0.22307248397E+02  0.75978773224E+01  0.79684460656E+02  0.00000000000E+00 0. -1.
<scales pt_clust_5="13000.00000" pt_clust_6="13000.00000" pt_clust_7="13000.00000" pt_clust_8="13000.00000" pt_clust_9="83.46301" pt_clust_10="79.32141"></scales>
<clustering>
<clus scale="   79.321">  1 10  2 -1</clus>
<clus scale="   80.603">  5  6 -1 -1</clus>
<clus scale="   83.463">  1  9  2 -1</clus>
<clus scale="   92.775">  7  8 -1 -1</clus>
<clus scale="  220.442">  2  5  1 -1</clus>
<clus scale="   79.321">  1  5  2 -1</clus>
</clustering>
</event>
<event>
10    4  0.2977685E-005  0.1807136E+03  0.7546771E-02  0.1168341E+00
          4   -1    0    0  503    0 -0.00000000000E+00  0.00000000000E+00  0.43096768801E+03  0.43096768801E+03  0.00000000000E+00 0. -1.
         21   -1    0    0  501  502  0.00000000000E+00 -0.00000000000E+00 -0.16301185827E+03  0.16301185827E+03  0.00000000000E+00 0. -1.
         24    2    1    2    0    0 -0.47185675611E+02 -0.16253099958E+03  0.20715943798E+03  0.27957760592E+03  0.81276018483E+02 0.  0.
         23    2    1    2    0    0  0.32157073505E+01  0.15608685982E+03  0.13594975772E+02  0.18152840414E+03  0.91620355608E+02 0.  0.
        -13    1    3    3    0    0  0.38220902255E+01 -0.11805674052E+03  0.11174637748E+03  0.16260152286E+03  0.00000000000E+00 0.  1.
         14    1    3    3    0    0 -0.51007765837E+02 -0.44474259058E+02  0.95413060492E+02  0.11697608306E+03  0.00000000000E+00 0. -1.
        -11    1    4    4    0    0  0.23249614790E+02  0.38979388967E+02  0.39223570114E+02  0.59986880271E+02  0.00000000000E+00 0.  1.
         11    1    4    4    0    0 -0.20033907440E+02  0.11710747085E+03 -0.25628594342E+02  0.12154152387E+03  0.00000000000E+00 0. -1.
         21    1    1    2  503  502 -0.30603542014E+02  0.31907767551E+02  0.25918796801E+02  0.51249062835E+02  0.00000000000E+00 0. -1.
          3    1    1    2  501    0  0.74573510275E+02 -0.25463627794E+02  0.21282619190E+02  0.81624473381E+02  0.00000000000E+00 0. -1.
<scales pt_clust_5="13000.00000" pt_clust_6="13000.00000" pt_clust_7="13000.00000" pt_clust_8="13000.00000" pt_clust_9="44.21179" pt_clust_10="73.69936"></scales>
<clustering>
<clus scale="   44.212">  1  9  2 -1</clus>
<clus scale="   73.699">  2 10  1 -1</clus>
<clus scale="   81.276">  5  6 -1 -1</clus>
<clus scale="   91.620">  7  8 -1 -1</clus>
<clus scale="  175.695">  1  5  2 -1</clus>
<clus scale="   73.699">  2  5  1 -1</clus>
</clustering>
</event>
<event>
10    4  0.2977685E-005  0.1941491E+03  0.7546771E-02  0.1155923E+00
         21   -1    0    0  501  502  0.00000000000E+00  0.00000000000E+00  0.88120264860E+03  0.88120264860E+03  0.00000000000E+00 0.  1.
          2   -1    0    0  503    0 -0.00000000000E+00 -0.00000000000E+00 -0.52208273535E+03  0.52208273535E+03  0.00000000000E+00 0. -1.
         23    2    1    2    0    0  0.12426232441E+03 -0.11790972841E+03 -0.45758454411E+03  0.49700300715E+03  0.91019474736E+02 0.  0.
         24    2    1    2    0    0 -0.82080210964E+02  0.17347588244E+03  0.79033028346E+03  0.81716272919E+03  0.79384672304E+02 0.  0.
        -13    1    4    4    0    0 -0.56900588774E+02  0.13511211619E+03  0.70692758182E+03  0.72196922849E+03  0.00000000000E+00 0.  1.
         14    1    4    4    0    0 -0.25179622190E+02  0.38363766250E+02  0.83402701639E+02  0.95193500699E+02  0.00000000000E+00 0. -1.
        -13    1    3    3    0    0  0.30351722222E+02 -0.37506782514E+01 -0.23887955417E+02  0.38806301591E+02  0.00000000000E+00 0.  1.
         13    1    3    3    0    0  0.93910602193E+02 -0.11415905016E+03 -0.43369658870E+03  0.45819670556E+03  0.00000000000E+00 0. -1.
         21    1    1    2  503  502 -0.17228406731E+02 -0.52946396681E+02  0.30817372253E+02  0.63638426698E+02  0.00000000000E+00 0. -1.
          1    1    1    2  501    0 -0.24953706720E+02 -0.26197573552E+01 -0.44431983522E+01  0.25481220913E+02  0.00000000000E+00 0. -1.
<scales pt_clust_5="13000.00000" pt_clust_6="13000.00000" pt_clust_7="13000.00000" pt_clust_8="13000.00000" pt_clust_9="56.24658" pt_clust_10="25.09086"></scales>
<clustering>
<clus scale="   25.091">  1 10  2 -1</clus>
<clus scale="   56.247">  1  9  2 -1</clus>
<clus scale="   79.385">  5  6 -1 -1</clus>
<clus scale="   91.019">  7  8 -1 -1</clus>
<clus scale="  188.974">  1  5  2 -1</clus>
<clus scale="   25.091">  1  5  2 -1</clus>
</clustering>
</event>
<event>
10    4  0.2977685E-005  0.1671910E+03  0.7546771E-02  0.1181091E+00
         21   -1    0    0  501  502  0.00000000000E+00  0.00000000000E+00  0.43510270159E+03  0.43510270159E+03  0.00000000000E+00 0.  1.
          2   -1    0    0  503    0 -0.00000000000E+00 -0.00000000000E+00 -0.21738488567E+03  0.21738488567E+03  0.00000000000E+00 0. -1.
         23    2    1    2    0    0  0.91726034786E+02  0.89664352929E+02 -0.99350264737E+02  0.18576191425E+03  0.90463539821E+02 0.  0.
         24    2    1    2    0    0 -0.85076401417E+02 -0.10562969955E+03  0.28549119433E+03  0.32822687754E+03  0.88498777357E+02 0.  0.
        -13    1    4    4    0    0 -0.65259169178E+02 -0.66941666964E+02  0.26333559352E+03  0.27943797300E+03  0.00000000000E+00 0.  1.
         14    1    4    4    0    0 -0.19817232239E+02 -0.38688032585E+02  0.22155600805E+02  0.48788904537E+02  0.00000000000E+00 0. -1.
        -13    1    3    3    0    0  0.41926325024E+02  0.95058518209E+02 -0.49466731733E+02  0.11506909299E+03  0.00000000000E+00 0.  1.
         13    1    3    3    0    0  0.49799709763E+02 -0.53941652801E+01 -0.49883533004E+02  0.70692821251E+02  0.00000000000E+00 0. -1.
         21    1    1    2  503  502  0.26620713932E+02 -0.52022574223E+01 -0.44898316458E+02  0.52455549881E+02  0.00000000000E+00 0.  1.
          1    1    1    2  501    0 -0.33270347301E+02  0.21167604043E+02  0.76475202794E+02  0.86043245597E+02  0.00000000000E+00 0. -1.
<scales pt_clust_5="13000.00000" pt_clust_6="13000.00000" pt_clust_7="13000.00000" pt_clust_8="13000.00000" pt_clust_9="27.12427" pt_clust_10="38.71821"></scales>
<clustering>
<clus scale="   27.124">  2  9  1 -1</clus>
<clus scale="   38.718">  1 10  2 -1</clus>
<clus scale="   88.499">  5  6 -1 -1</clus>
<clus scale="   90.464">  7  8 -1 -1</clus>
<clus scale="  166.136">  1  5  2 -1</clus>
<clus scale="   38.718">  1  5  2 -1</clus>
</clustering>
</event>
<event>
10    4  0.2977685E-005  0.2907706E+03  0.7546771E-02  0.1109730E+00
          2   -1    0    0  503    0 -0.00000000000E+00  0.00000000000E+00  0.15886693678E+04  0.15886693678E+04  0.00000000000E+00 0. -1.
         21   -1    0    0  501  502  0.00000000000E+00 -0.00000000000E+00 -0.20662873273E+03  0.20662873273E+03  0.00000000000E+00 0. -1.
         23    2    1    2    0    0  0.38698608634E+02  0.13928875697E+03  0.60351026484E+02  0.18037037444E+03  0.89399583042E+02 0.  0.
         24    2    1    2    0    0 -0.13438108237E+03 -0.41540863039E+03  0.86869457057E+03  0.97576742690E+03  0.82880691093E+02 0.  0.
        -11    1    4    4    0    0 -0.47131256367E+02 -0.25507969593E+03  0.45845055952E+03  0.52674844293E+03  0.00000000000E+00 0.  1.
         12    1    4    4    0    0 -0.87249826007E+02 -0.16032893445E+03  0.41024401105E+03  0.44901898397E+03  0.00000000000E+00 0. -1.
        -13    1    3    3    0    0  0.57942719816E+02  0.57552808027E+02  0.95405483165E+01  0.82223515819E+02  0.00000000000E+00 0. -1.
         13    1    3    3    0    0 -0.19244111182E+02  0.81735948944E+02  0.50810478167E+02  0.98146858618E+02  0.00000000000E+00 0.  1.
         21    1    1    2  503  502  0.76944577947E+02  0.26593532136E+02  0.36490893477E+03  0.37387994691E+03  0.00000000000E+00 0.  1.
          1    1    1    2  501    0  0.18737895793E+02  0.24952634128E+03  0.88086103267E+02  0.26528035231E+03  0.00000000000E+00 0. -1.
<scales pt_clust_5="13000.00000" pt_clust_6="13000.00000" pt_clust_7="13000.00000" pt_clust_8="13000.00000" pt_clust_9="81.41059" pt_clust_10="278.70829"></scales>
<clustering>
<clus scale="   81.411">  1  9  2 -1</clus>
<clus scale="   82.881">  5  6 -1 -1</clus>
<clus scale="   89.400">  7  8 -1 -1</clus>
<clus scale="  173.997">  1  7  2 -1</clus>
<clus scale="  278.708">  2 10  1 -1</clus>
<clus scale="  278.708">  2  5  1 -1</clus>
</clustering>
</event>
<event>
10    4  0.2977685E-005  0.1306217E+03  0.7546771E-02  0.1240733E+00
         21   -1    0    0  503  502  0.00000000000E+00  0.00000000000E+00  0.36523406264E+03  0.36523406264E+03  0.00000000000E+00 0.  1.
         -3   -1    0    0    0  501 -0.00000000000E+00 -0.00000000000E+00 -0.11477123214E+03  0.11477123214E+03  0.00000000000E+00 0.  1.
         23    2    1    2    0    0  0.42027880894E+02  0.61828410103E+01  0.16740440386E+03  0.19337606536E+03  0.86979870808E+02 0.  0.
         24    2    1    2    0    0 -0.13195879407E+02  0.81877389192E+02 -0.98592692133E+01  0.11569073909E+03  0.80056878706E+02 0.  0.
        -11    1    4    4    0    0 -0.30277660430E+02  0.82627647884E+02 -0.26426520203E+02  0.91882674569E+02  0.00000000000E+00 0.  1.
         12    1    4    4    0    0  0.17081781023E+02 -0.75025869113E+00  0.16567250990E+02  0.23808064524E+02  0.00000000000E+00 0. -1.
        -11    1    3    3    0    0  0.46149490375E+01  0.43287632759E+02  0.86293219253E+02  0.96652142209E+02  0.00000000000E+00 0.  1.
         11    1    3    3    0    0  0.37412931856E+02 -0.37104791749E+02  0.81111184606E+02  0.96723923147E+02  0.00000000000E+00 0. -1.
         21    1    1    2  503  501  0.11000446783E+02  0.20875109223E+02  0.22235471761E+01  0.23700721013E+02  0.00000000000E+00 0.  1.
         -4    1    1    2    0  502 -0.39832448269E+02 -0.10893533943E+03  0.90694148677E+02  0.14723776932E+03  0.00000000000E+00 0.  1.
<scales pt_clust_5="13000.00000" pt_clust_6="13000.00000" pt_clust_7="13000.00000" pt_clust_8="13000.00000" pt_clust_9="23.59619" pt_clust_10="103.21300"></scales>
<clustering>
<clus scale="   23.596">  2  9  1 -1</clus>
<clus scale="   80.057">  5  6 -1 -1</clus>
<clus scale="   86.980">  7  8 -1 -1</clus>
<clus scale="   97.603">  2  7  1 -1</clus>
<clus scale="  103.213">  1 10  2 -1</clus>
<clus scale="  103.213">  1  5  2 -1</clus>
</clustering>
</event>
<event>
10    4  0.2977685E-005  0.1028930E+03  0.7546771E-02  0.1279526E+00
          2   -1    0    0  503    0 -0.00000000000E+00  0.00000000000E+00  0.16036043019E+03  0.16036043019E+03  0.00000000000E+00 0. -1.
         21   -1    0    0  501  502  0.00000000000E+00 -0.00000000000E+00 -0.19104431891E+03  0.19104431891E+03  0.00000000000E+00 0.  1.
         23    2    1    2    0    0 -0.39445580832E+02 -0.87103625180E+01  0.28379471714E+02  0.10472374519E+03  0.92357155270E+02 0.  0.
         24    2    1    2    0    0 -0.23284643227E+02  0.50976242039E+02 -0.88990571223E+02  0.13296950722E+03  0.81368398167E+02 0.  0.
        -13    1    4    4    0    0  0.15546831288E+02  0.57236758930E+02 -0.57148553641E+02  0.82363266807E+02  0.00000000000E+00 0.  1.
         14    1    4    4    0    0 -0.38831474515E+02 -0.62605168907E+01 -0.31842017583E+02  0.50606240410E+02  0.00000000000E+00 0. -1.
        -13    1    3    3    0    0 -0.33932595909E+02 -0.43242594140E+02 -0.64796777684E+01  0.55347350768E+02  0.00000000000E+00 0.  1.
         13    1    3    3    0    0 -0.55129849236E+01  0.34532231622E+02  0.34859149482E+02  0.49376394423E+02  0.00000000000E+00 0. -1.
         21    1    1    2  503  502  0.44417065156E+02 -0.62832676910E+02  0.36851034569E+02  0.85315999166E+02  0.00000000000E+00 0. -1.
          1    1    1    2  501    0  0.18313158903E+02  0.20566797389E+02 -0.69238237774E+01  0.28395497523E+02  0.00000000000E+00 0. -1.
<scales pt_clust_5="13000.00000" pt_clust_6="13000.00000" pt_clust_7="13000.00000" pt_clust_8="13000.00000" pt_clust_9="76.16945" pt_clust_10="27.53843"></scales>
<clustering>
<clus scale="   27.538">  2 10  1 -1</clus>
<clus scale="   76.169">  1  9  2 -1</clus>
<clus scale="   81.368">  5  6 -1 -1</clus>
<clus scale="   92.357">  7  8 -1 -1</clus>
<clus scale="   93.155">  2  5  1 -1</clus>
<clus scale="   27.538">  2  5  1 -1</clus>
</clustering>
</event>
<event>
10    4  0.2977685E-005  0.3780103E+03  0.7546771E-02  0.1051931E+00
          2   -1    0    0  503    0 -0.00000000000E+00  0.00000000000E+00  0.17443003533E+04  0.17443003533E+04  0.00000000000E+00 0. -1.
         21   -1    0    0  501  502  0.00000000000E+00 -0.00000000000E+00 -0.23557461828E+03  0.23557461828E+03  0.00000000000E+00 0.  1.
         23    2    1    2    0    0 -0.12813923938E+03  0.28070515114E+03  0.12029584615E+04  0.12452926346E+04  0.91813066641E+02 0.  0.
         24    2    1    2    0    0  0.17883259511E+03 -0.37612934251E+03  0.18142673320E+03  0.46120524445E+03  0.79625615375E+02 0.  0.
        -11    1    4    4    0    0  0.17263531475E+03 -0.34147175278E+03  0.14145867537E+03  0.40794174422E+03  0.00000000000E+00 0.  1.
         12    1    4    4    0    0  0.61972803594E+01 -0.34657589729E+02  0.39968057836E+02  0.53263500231E+02  0.00000000000E+00 0. -1.
        -13    1    3    3    0    0  0.80989957564E+01  0.26991919894E+02  0.55445299528E+02  0.62195970220E+02  0.00000000000E+00 0.  1.
         13    1    3    3    0    0 -0.13623823514E+03  0.25371323124E+03  0.11475131620E+04  0.11830966644E+04  0.00000000000E+00 0. -1.
         21    1    1    2  503  502 -0.31395705121E+02  0.54049922993E+02  0.18624769749E+03  0.19645683826E+03  0.00000000000E+00 0.  1.
          1    1    1    2  501    0 -0.19297650604E+02  0.41374268376E+02 -0.61907157179E+02  0.76920254241E+02  0.00000000000E+00 0. -1.
<scales pt_clust_5="13000.00000" pt_clust_6="13000.00000" pt_clust_7="13000.00000" pt_clust_8="13000.00000" pt_clust_9="63.90365" pt_clust_10="45.65336"></scales>
<clustering>
<clus scale="   45.653">  2 10  1 -1</clus>
<clus scale="   63.904">  1  9  2 -1</clus>
<clus scale="   79.626">  5  6 -1 -1</clus>
<clus scale="   91.813">  7  8 -1 -1</clus>
<clus scale="  375.236">  2  5  1 -1</clus>
<clus scale="   45.653">  2  5  1 -1</clus>
</clustering>
</event>
<event>
10    4  0.2977685E-005  0.1396389E+03  0.7546771E-02  0.1228217E+00
         -1   -1    0    0    0  501 -0.00000000000E+00  0.00000000000E+00  0.53154253560E+03  0.53154253560E+03  0.00000000000E+00 0.  1.
         21   -1    0    0  503  502  0.00000000000E+00 -0.00000000000E+00 -0.17914981532E+03  0.17914981532E+03  0.00000000000E+00 0. -1.
         23    2    1    2    0    0  0.20508429426E+02 -0.49180560967E+02  0.15154561184E+03  0.18364477954E+03  0.88994434275E+02 0.  0.
         24    2    1    2    0    0  0.60924249465E+02  0.62440912511E+02 -0.12080867446E+03  0.16859307908E+03  0.78855936746E+02 0.  0.
        -11    1    4    4    0    0 -0.13198139083E+02  0.27977535852E+02 -0.13639701879E+02  0.33807911130E+02  0.00000000000E+00 0.  1.
         12    1    4    4    0    0  0.74122388548E+02  0.34463376659E+02 -0.10716897258E+03  0.13478516795E+03  0.00000000000E+00 0. -1.
        -13    1    3    3    0    0 -0.19439489920E+02 -0.15631494097E+02  0.12025136294E+03  0.12281134990E+03  0.00000000000E+00 0.  1.
         13    1    3    3    0    0  0.39947919346E+02 -0.33549066870E+02  0.31294248899E+02  0.60833429642E+02  0.00000000000E+00 0. -1.
         21    1    1    2  503  501 -0.10979662286E+03 -0.37119968502E+02  0.27795989915E+03  0.30115593302E+03  0.00000000000E+00 0.  1.
         -2    1    1    2    0  502  0.28363943972E+02  0.23859616958E+02  0.43695883746E+02  0.57298559278E+02  0.00000000000E+00 0.  1.
<scales pt_clust_5="13000.00000" pt_clust_6="13000.00000" pt_clust_7="13000.00000" pt_clust_8="13000.00000" pt_clust_9="115.24224" pt_clust_10="37.06475"></scales>
<clustering>
<clus scale="   37.065">  2 10  1 -1</clus>
<clus scale="   78.856">  5  6 -1 -1</clus>
<clus scale="   88.994">  7  8 -1 -1</clus>
<clus scale="  103.252">  1  7  2 -1</clus>
<clus scale="  115.242">  1  9  2 -1</clus>
<clus scale="   37.065">  2  5  1 -1</clus>
</clustering>
</event>
<event>
10    4  0.2977685E-005  0.3916193E+03  0.7546771E-02  0.1046898E+00
          2   -1    0    0  503    0 -0.00000000000E+00  0.00000000000E+00  0.23325874401E+03  0.23325874401E+03  0.00000000000E+00 0. -1.
         21   -1    0    0  501  502  0.00000000000E+00 -0.00000000000E+00 -0.10485492739E+04  0.10485492739E+04  0.00000000000E+00 0.  1.
         24    2    1    2    0    0  0.83101786701E+02  0.37344928371E+03 -0.26001245274E+03  0.46944007180E+03  0.79982691745E+02 0.  0.
         23    2    1    2    0    0 -0.86320487197E+02 -0.36641745261E+03 -0.57638312747E+03  0.69417734900E+03  0.89172339593E+02 0.  0.
        -13    1    3    3    0    0 -0.15052232484E+02  0.29392188097E+02 -0.24052928493E+02  0.40853565242E+02  0.00000000000E+00 0.  1.
         14    1    3    3    0    0  0.98154019185E+02  0.34405709561E+03 -0.23595952425E+03  0.42858650656E+03  0.00000000000E+00 0. -1.
        -13    1    4    4    0    0  0.13694493352E+02 -0.11464227178E+03 -0.15645991049E+03  0.19444817617E+03  0.00000000000E+00 0. -1.
         13    1    4    4    0    0 -0.10001498055E+03 -0.25177518083E+03 -0.41992321698E+03  0.49972917283E+03  0.00000000000E+00 0.  1.
         21    1    1    2  503  502 -0.21376413554E+02  0.86721378308E+01  0.63024933886E+02  0.67114076931E+02  0.00000000000E+00 0.  1.
          1    1    1    2  501    0  0.24595114051E+02 -0.15703968926E+02 -0.41919883542E+02  0.51076520157E+02  0.00000000000E+00 0. -1.
<scales pt_clust_5="13000.00000" pt_clust_6="13000.00000" pt_clust_7="13000.00000" pt_clust_8="13000.00000" pt_clust_9="23.06853" pt_clust_10="28.56380"></scales>
<clustering>
<clus scale="   23.069">  1  9  2 -1</clus>
<clus scale="   28.564">  2 10  1 -1</clus>
<clus scale="   79.983">  5  6 -1 -1</clus>
<clus scale="   89.172">  7  8 -1 -1</clus>
<clus scale="  389.630">  1  5  2 -1</clus>
<clus scale="   28.564">  2  5  1 -1</clus>
</clustering>
</event>
<event>
10    4  0.2977685E-005  0.1037686E+03  0.7546771E-02  0.1276718E+00
          2   -1    0    0  503    0 -0.00000000000E+00  0.00000000000E+00  0.43791886316E+03  0.43791886316E+03  0.00000000000E+00 0. -1.
         21   -1    0    0  501  502  0.00000000000E+00 -0.00000000000E+00 -0.66078214153E+02  0.66078214153E+02  0.00000000000E+00 0. -1.
         24    2    1    2    0    0  0.72266224469E+02  0.22783490774E+02  0.17566826338E+03  0.20773546378E+03  0.80951772683E+02 0.  0.
         23    2    1    2    0    0 -0.10860588111E+02  0.57114882027E+01  0.19988511938E+02  0.93222334107E+02  0.90223552885E+02 0.  0.
        -11    1    3    3    0    0 -0.12605990039E+02  0.22121342275E+02  0.49690206919E+02  0.55833515317E+02  0.00000000000E+00 0.  1.
         12    1    3    3    0    0  0.84872214508E+02  0.66214849883E+00  0.12597805646E+03  0.15190194846E+03  0.00000000000E+00 0. -1.
        -13    1    4    4    0    0  0.28370999558E+02 -0.13978146271E+02  0.34677642287E+02  0.46934433667E+02  0.00000000000E+00 0.  1.
         13    1    4    4    0    0 -0.39231587669E+02  0.19689634473E+02 -0.14689130349E+02  0.46287900440E+02  0.00000000000E+00 0. -1.
         21    1    1    2  503  502 -0.90289526481E+01 -0.20679075605E+02  0.13245045875E+03  0.13435873689E+03  0.00000000000E+00 0. -1.
          1    1    1    2  501    0 -0.52376683710E+02 -0.78159033717E+01  0.43733414935E+02  0.68680542542E+02  0.00000000000E+00 0. -1.
<scales pt_clust_5="13000.00000" pt_clust_6="13000.00000" pt_clust_7="13000.00000" pt_clust_8="13000.00000" pt_clust_9="22.56427" pt_clust_10="55.28105"></scales>
<clustering>
<clus scale="   22.564">  1  9  2 -1</clus>
<clus scale="   55.281">  2 10  1 -1</clus>
<clus scale="   80.952">  5  6 -1 -1</clus>
<clus scale="   90.224">  7  8 -1 -1</clus>
<clus scale="   95.817">  1  5  2 -1</clus>
<clus scale="   55.281">  2  5  1 -1</clus>
</clustering>
</event>
<event>
10    4  0.2977685E-005  0.1282368E+03  0.7546771E-02  0.1246452E+00
          2   -1    0    0  503    0 -0.00000000000E+00  0.00000000000E+00  0.98064769222E+03  0.98064769222E+03  0.00000000000E+00 0. -1.
         21   -1    0    0  501  502  0.00000000000E+00 -0.00000000000E+00 -0.95972299377E+02  0.95972299377E+02  0.00000000000E+00 0.  1.
         23    2    1    2    0    0  0.15255307200E+02  0.22496272644E+02  0.15528979201E+03  0.18044629623E+03  0.87790316327E+02 0.  0.
         24    2    1    2    0    0  0.14418985399E+02 -0.69764304343E+02 -0.13255439090E+02  0.10848444650E+03  0.80735389806E+02 0.  0.
        -11    1    4    4    0    0 -0.22401334365E+02 -0.31959610216E+02 -0.34019331088E+02  0.51774041316E+02  0.00000000000E+00 0.  1.
         12    1    4    4    0    0  0.36820319764E+02 -0.37804694128E+02  0.20763891999E+02  0.56710405188E+02  0.00000000000E+00 0. -1.
        -11    1    3    3    0    0  0.51397248126E+02  0.48465844213E+01  0.84168711489E+02  0.98739751312E+02  0.00000000000E+00 0.  1.
         11    1    3    3    0    0 -0.36141940927E+02  0.17649688222E+02  0.71121080523E+02  0.81706544922E+02  0.00000000000E+00 0. -1.
         21    1    1    2  503  502 -0.90440441669E+02 -0.79609884311E+02  0.38334880353E+03  0.40183766914E+03  0.00000000000E+00 0.  1.
          1    1    1    2  501    0  0.60766149070E+02  0.12687791601E+03  0.35929223640E+03  0.38585157973E+03  0.00000000000E+00 0. -1.
<scales pt_clust_5="13000.00000" pt_clust_6="13000.00000" pt_clust_7="13000.00000" pt_clust_8="13000.00000" pt_clust_9="128.23683" pt_clust_10="13000.00000"></scales>
<clustering>
<clus scale="   80.735">  5  6 -1 -1</clus>
<clus scale="   87.790">  7  8 -1 -1</clus>
<clus scale="   91.902">  1  7  2 -1</clus>
<clus scale="  106.947">  1  5  2 -1</clus>
<clus scale="  128.237">  1  9  2 -1</clus>
<clus scale="  128.237">  2  5  1 -1</clus>
</clustering>
</event>
<event>
10    4  0.2977685E-005  0.2066891E+03  0.7546771E-02  0.1182172E+00
         -1   -1    0    0    0  501 -0.00000000000E+00  0.00000000000E+00  0.30450482696E+03  0.30450482696E+03  0.00000000000E+00 0.  1.
         21   -1    0    0  503  502  0.00000000000E+00 -0.00000000000E+00 -0.33771822313E+03  0.33771822313E+03  0.00000000000E+00 0.  1.
         24    2    1    2    0    0 -0.26778654947E+02 -0.72234320528E+01  0.10219827536E+03  0.13571199973E+03  0.84876292644E+02 0.  0.
         23    2    1    2    0    0 -0.20599953384E+02  0.17060149159E+03 -0.22893227791E+02  0.20705420499E+03  0.11321712288E+03 0.  0.
        -11    1    3    3    0    0  0.20509863026E+02  0.12713085848E+02  0.72519584121E+02  0.76428836929E+02  0.00000000000E+00 0.  1.
         12    1    3    3    0    0 -0.47288517974E+02 -0.19936517901E+02  0.29678691236E+02  0.59283162801E+02  0.00000000000E+00 0. -1.
        -11    1    4    4    0    0  0.44580552031E+02  0.63384317694E+02  0.77883044803E+01  0.77882315295E+02  0.00000000000E+00 0. -1.
         11    1    4    4    0    0 -0.65180505416E+02  0.10721717389E+03 -0.30681532272E+02  0.12917188969E+03  0.00000000000E+00 0.  1.
         21    1    1    2  503  501  0.29954965998E+02  0.91142002394E+01  0.51839854241E+02  0.60561861940E+02  0.00000000000E+00 0. -1.
         -2    1    1    2    0  502  0.17423642334E+02 -0.17249225977E+03 -0.16435829798E+03  0.23889498343E+03  0.00000000000E+00 0.  1.
<scales pt_clust_5="13000.00000" pt_clust_6="13000.00000" pt_clust_7="13000.00000" pt_clust_8="13000.00000" pt_clust_9="31.31084" pt_clust_10="172.92267"></scales>
<clustering>
<clus scale="   31.311">  1  9  2 -1</clus>
<clus scale="   84.876">  5  6 -1 -1</clus>
<clus scale="   85.829">  1  5  2 -1</clus>
<clus scale="  113.217">  7  8 -1 -1</clus>
<clus scale="  172.923">  2 10  1 -1</clus>
<clus scale="  172.923">  2  5  1 -1</clus>
</clustering>
</event>
<event>
10    4  0.2977685E-005  0.9116879E+02  0.7546771E-02  0.1305170E+00
         21   -1    0    0  503  502  0.00000000000E+00  0.00000000000E+00  0.25916475357E+03  0.25916475357E+03  0.00000000000E+00 0. -1.
         -1   -1    0    0    0  501 -0.00000000000E+00 -0.00000000000E+00 -0.38376663399E+03  0.38376663399E+03  0.00000000000E+00 0.  1.
         23    2    1    2    0    0 -0.11945770373E+02 -0.31894146778E+02 -0.91916192168E+02  0.13195559568E+03  0.88338863594E+02 0.  0.
         24    2    1    2    0    0  0.68612142849E+01 -0.27300225469E+01  0.90457259738E+02  0.12089329626E+03  0.79863282902E+02 0.  0.
        -11    1    4    4    0    0  0.35892430199E+02  0.15613523211E+02  0.71888662094E+02  0.81853701140E+02  0.00000000000E+00 0.  1.
         12    1    4    4    0    0 -0.29031215914E+02 -0.18343545758E+02  0.18568597644E+02  0.39039595117E+02  0.00000000000E+00 0. -1.
        -11    1    3    3    0    0  0.23620525223E+02  0.19635084766E+02 -0.20245803547E+02  0.36788018794E+02  0.00000000000E+00 0.  1.
         11    1    3    3    0    0 -0.35566295596E+02 -0.51529231543E+02 -0.71670388621E+02  0.95167576889E+02  0.00000000000E+00 0. -1.
         21    1    1    2  503  501 -0.16526355458E+02  0.39331136739E+02 -0.25390445402E+03  0.25746364892E+03  0.00000000000E+00 0.  1.
         -2    1    1    2    0  502  0.21610911546E+02 -0.47069674138E+01  0.13076150603E+03  0.13261884670E+03  0.00000000000E+00 0.  1.
<scales pt_clust_5="13000.00000" pt_clust_6="13000.00000" pt_clust_7="13000.00000" pt_clust_8="13000.00000" pt_clust_9="42.48545" pt_clust_10="22.11757"></scales>
<clustering>
<clus scale="   22.118">  1 10  2 -1</clus>
<clus scale="   42.485">  2  9  1 -1</clus>
<clus scale="   79.863">  5  6 -1 -1</clus>
<clus scale="   82.983">  1  5  2 -1</clus>
<clus scale="   88.339">  7  8 -1 -1</clus>
<clus scale="   22.118">  1  5  2 -1</clus>
</clustering>
</event>
<event>
10    4  0.2977685E-005  0.1116902E+03  0.7546771E-02  0.1267471E+00
          2   -1    0    0  503    0 -0.00000000000E+00  0.00000000000E+00  0.12358822793E+03  0.12358822793E+03  0.00000000000E+00 0. -1.
         21   -1    0    0  501  502  0.00000000000E+00 -0.00000000000E+00 -0.28127489700E+03  0.28127489700E+03  0.00000000000E+00 0. -1.
         23    2    1    2    0    0  0.15849744070E+02  0.31834111643E+01  0.30693018096E+02  0.94963085271E+02  0.88400100173E+02 0.  0.
         24    2    1    2    0    0  0.56723562314E+02  0.32020965200E+02 -0.13304392234E+03  0.16856320033E+03  0.80436077113E+02 0.  0.
        -11    1    4    4    0    0 -0.79354978937E+01  0.37738769848E+02 -0.51472941726E+02  0.64316798788E+02  0.00000000000E+00 0.  1.
         12    1    4    4    0    0  0.64659060208E+02 -0.57178046481E+01 -0.81570980612E+02  0.10424640154E+03  0.00000000000E+00 0. -1.
        -11    1    3    3    0    0 -0.25642354167E+02  0.30753284674E+02  0.13031674010E+02  0.42108424015E+02  0.00000000000E+00 0.  1.
         11    1    3    3    0    0  0.41492098238E+02 -0.27569873510E+02  0.17661344086E+02  0.52854661256E+02  0.00000000000E+00 0. -1.
         21    1    1    2  503  502  0.24509344845E+01  0.24906345824E+02  0.79290107483E+01  0.26252663743E+02  0.00000000000E+00 0. -1.
          1    1    1    2  501    0 -0.75024240869E+02 -0.60110722188E+02 -0.63264775584E+02  0.11508417558E+03  0.00000000000E+00 0. -1.
<scales pt_clust_5="13000.00000" pt_clust_6="13000.00000" pt_clust_7="13000.00000" pt_clust_8="13000.00000" pt_clust_9="25.02665" pt_clust_10="77.49025"></scales>
<clustering>
<clus scale="   25.027">  1  9  2 -1</clus>
<clus scale="   80.436">  5  6 -1 -1</clus>
<clus scale="   88.400">  7  8 -1 -1</clus>
<clus scale="   91.833">  1  7  2 -1</clus>
<clus scale="   77.490">  2 10  1 -1</clus>
<clus scale="   77.490">  2  5  1 -1</clus>
</clustering>
</event>
<event>
10    4  0.2977685E-005  0.1662549E+03  0.7546771E-02  0.1183312E+00
          2   -1    0    0  502    0 -0.00000000000E+00  0.00000000000E+00  0.36587359730E+03  0.36587359730E+03  0.00000000000E+00 0. -1.
         21   -1    0    0  503  502  0.00000000000E+00 -0.00000000000E+00 -0.24266189636E+03  0.24266189636E+03  0.00000000000E+00 0. -1.
         23    2    1    2    0    0 -0.66668692230E+02 -0.11953803156E+03  0.18073484197E+03  0.24462129333E+03  0.91871859327E+02 0.  0.
         24    2    1    2    0    0  0.10110476776E+03  0.11263995699E+03 -0.14174261797E+03  0.22281167332E+03  0.81511582260E+02 0.  0.
        -13    1    4    4    0    0  0.68948650246E+02  0.21538756313E+02 -0.40258334348E+02  0.82695633977E+02  0.00000000000E+00 0.  1.
         14    1    4    4    0    0  0.32156117518E+02  0.91101200675E+02 -0.10148428362E+03  0.14011603934E+03  0.00000000000E+00 0. -1.
        -13    1    3    3    0    0 -0.42313259006E+02 -0.12705823028E+03  0.17131452568E+03  0.21744625193E+03  0.00000000000E+00 0. -1.
         13    1    3    3    0    0 -0.24355433224E+02  0.75201987138E+01  0.94203162865E+01  0.27175041401E+02  0.00000000000E+00 0.  1.
         21    1    1    2  503  501  0.32153829246E+02 -0.24962988671E+01 -0.13388585672E+01  0.32278364046E+02  0.00000000000E+00 0.  1.
          1    1    1    2  501    0 -0.66589904780E+02  0.93943734430E+01  0.85558335507E+02  0.10882416297E+03  0.00000000000E+00 0. -1.
<scales pt_clust_5="13000.00000" pt_clust_6="13000.00000" pt_clust_7="13000.00000" pt_clust_8="13000.00000" pt_clust_9="32.25059" pt_clust_10="65.59157"></scales>
<clustering>
<clus scale="   32.251">  2  9  1 -1</clus>
<clus scale="   65.592">  2 10  1 -1</clus>
<clus scale="   81.512">  5  6 -1 -1</clus>
<clus scale="   91.872">  7  8 -1 -1</clus>
<clus scale="  160.762">  2  5  1 -1</clus>
<clus scale="   32.251">  2  5  1 -1</clus>
</clustering>
</event>
<event>
10    4  0.3062400E-005  0.1750084E+03  0.7546771E-02  0.1199063E+00
         21   -1    0    0  503  502  0.00000000000E+00  0.00000000000E+00  0.86833644076E+02  0.86833644076E+02  0.00000000000E+00 0.  1.
         -1   -1    0    0    0  501 -0.00000000000E+00 -0.00000000000E+00 -0.12729933187E+04  0.12729933187E+04  0.00000000000E+00 0.  1.
         23    2    1    2    0    0  0.58301860360E+02 -0.13926119851E+02 -0.36101975909E+02  0.10853306609E+03  0.82964028562E+02 0.  0.
         24    2    1    2    0    0 -0.78244756405E+02 -0.15039082596E+03 -0.99817304803E+03  0.10156755633E+04  0.80670772719E+02 0.  0.
        -11    1    4    4    0    0 -0.75708063405E+02 -0.16007410340E+03 -0.92226027015E+03  0.93910565718E+03  0.00000000000E+00 0.  1.
         12    1    4    4    0    0 -0.25366929995E+01  0.96832774455E+01 -0.75912777872E+02  0.76569906084E+02  0.00000000000E+00 0. -1.
        -13    1    3    3    0    0  0.69124288610E+02 -0.32488214629E+02 -0.13893447152E+02  0.77631689660E+02  0.00000000000E+00 0.  1.
         13    1    3    3    0    0 -0.10822428251E+02  0.18562094779E+02 -0.22208528756E+02  0.30901376431E+02  0.00000000000E+00 0. -1.
         21    1    1    2  503  501 -0.16991634172E+02  0.23880571955E+02 -0.50931135181E+02  0.58762044549E+02  0.00000000000E+00 0. -1.
         -2    1    1    2    0  502  0.36934530218E+02  0.14043637385E+03 -0.10095351553E+03  0.17685628890E+03  0.00000000000E+00 0.  1.
<scales pt_clust_5="13000.00000" pt_clust_6="13000.00000" pt_clust_7="13000.00000" pt_clust_8="13000.00000" pt_clust_9="29.30866" pt_clust_10="155.30667"></scales>
<clustering>
<clus scale="   29.309">  1  9  2 -1</clus>
<clus scale="   80.671">  5  6 -1 -1</clus>
<clus scale="   82.964">  7  8 -1 -1</clus>
<clus scale="   97.386">  2  7  1 -1</clus>
<clus scale="  155.307">  1 10  2 -1</clus>
<clus scale="   29.309">  1  5  2 -1</clus>
</clustering>
</event>
<event>
10    4  0.2977685E-005  0.1117670E+03  0.7546771E-02  0.1260339E+00
         21   -1    0    0  501  502  0.00000000000E+00  0.00000000000E+00  0.32304127090E+02  0.32304127090E+02  0.00000000000E+00 0.  1.
          2   -1    0    0  503    0 -0.00000000000E+00 -0.00000000000E+00 -0.66833171255E+03  0.66833171255E+03  0.00000000000E+00 0. -1.
         24    2    1    2    0    0 -0.58755347169E+02  0.10729627549E+02 -0.32994553435E+03  0.34521385077E+03  0.82105002281E+02 0.  0.
         23    2    1    2    0    0  0.52929266455E+02 -0.30489078032E+02 -0.11244774287E+03  0.15656284065E+03  0.90201646711E+02 0.  0.
        -11    1    3    3    0    0 -0.50510938022E+02  0.44111254362E+02 -0.21131556298E+03  0.22170120609E+03  0.00000000000E+00 0.  1.
         12    1    3    3    0    0 -0.82444091464E+01 -0.33381626813E+02 -0.11862997137E+03  0.12351264469E+03  0.00000000000E+00 0. -1.
        -13    1    4    4    0    0  0.10338711328E+02 -0.24944468144E+02 -0.11030235269E+03  0.11355934331E+03  0.00000000000E+00 0. -1.
         13    1    4    4    0    0  0.42590555127E+02 -0.55446098881E+01 -0.21453901782E+01  0.43003497344E+02  0.00000000000E+00 0.  1.
         21    1    1    2  503  502 -0.17325130224E+02  0.10488762125E+02 -0.93177328190E+02  0.95352969313E+02  0.00000000000E+00 0.  1.
          1    1    1    2  501    0  0.23151210938E+02  0.92706883583E+01 -0.10045698005E+03  0.10350617890E+03  0.00000000000E+00 0. -1.
<scales pt_clust_5="13000.00000" pt_clust_6="13000.00000" pt_clust_7="13000.00000" pt_clust_8="13000.00000" pt_clust_9="20.25276" pt_clust_10="22.95451"></scales>
<clustering>
<clus scale="   20.253">  2  9  1 -1</clus>
<clus scale="   22.955">  1 10  2 -1</clus>
<clus scale="   82.105">  5  6 -1 -1</clus>
<clus scale="   90.202">  7  8 -1 -1</clus>
<clus scale="  105.341">  2  5  1 -1</clus>
<clus scale="   22.955">  1  5  2 -1</clus>
</clustering>
</event>
<event>
10    4  0.2977685E-005  0.2194229E+03  0.7546771E-02  0.1148847E+00
          2   -1    0    0  503    0 -0.00000000000E+00  0.00000000000E+00  0.83783269417E+03  0.83783269417E+03  0.00000000000E+00 0. -1.
         21   -1    0    0  501  502  0.00000000000E+00 -0.00000000000E+00 -0.16353249419E+03  0.16353249419E+03  0.00000000000E+00 0. -1.
         24    2    1    2    0    0 -0.57430612789E+02 -0.12047754638E+03  0.38729318335E+03  0.41735047739E+03  0.79826666230E+02 0.  0.
         23    2    1    2    0    0  0.18500547876E+03 -0.24367143300E+02  0.75635193911E+02  0.22119641837E+03  0.91577224777E+02 0.  0.
        -11    1    3    3    0    0 -0.22153113306E+02  0.54608481558E+01  0.84351875068E+02  0.87383179841E+02  0.00000000000E+00 0.  1.
         12    1    3    3    0    0 -0.35277499483E+02 -0.12593839453E+03  0.30294130828E+03  0.32996729755E+03  0.00000000000E+00 0. -1.
        -11    1    4    4    0    0  0.58388732956E+02 -0.50084632032E+02  0.14586482720E+02  0.78297381694E+02  0.00000000000E+00 0.  1.
         11    1    4    4    0    0  0.12661674581E+03  0.25717488733E+02  0.61048711191E+02  0.14289903668E+03  0.00000000000E+00 0. -1.
         21    1    1    2  503  502 -0.17096866409E+03  0.15351212363E+03  0.11537658739E+03  0.25711478589E+03  0.00000000000E+00 0. -1.
          1    1    1    2  501    0  0.43393798121E+02 -0.86674339500E+01  0.95995235325E+02  0.10570350671E+03  0.00000000000E+00 0. -1.
<scales pt_clust_5="13000.00000" pt_clust_6="13000.00000" pt_clust_7="13000.00000" pt_clust_8="13000.00000" pt_clust_9="199.39917" pt_clust_10="44.25097"></scales>
<clustering>
<clus scale="   44.251">  2 10  1 -1</clus>
<clus scale="   79.827">  5  6 -1 -1</clus>
<clus scale="   91.577">  7  8 -1 -1</clus>
<clus scale="  154.689">  1  5  2 -1</clus>
<clus scale="  199.399">  2  9  1 -1</clus>
<clus scale="   44.251">  2  5  1 -1</clus>
</clustering>
</event>
<event>
10    4  0.2977685E-005  0.9807048E+02  0.7546771E-02  0.1289779E+00
         21   -1    0    0  503  502  0.00000000000E+00  0.00000000000E+00  0.14931982850E+03  0.14931982850E+03  0.00000000000E+00 0.  1.
         -3   -1    0    0    0  501 -0.00000000000E+00 -0.00000000000E+00 -0.21723893674E+03  0.21723893674E+03  0.00000000000E+00 0.  1.
         23    2    1    2    0    0 -0.13877308957E+02 -0.16000302553E+02 -0.75674922946E+02  0.12089796354E+03  0.91875101299E+02 0.  0.
         24    2    1    2    0    0  0.13080658286E+02 -0.34281737699E+02  0.86089184238E+02  0.12425030113E+03  0.81734010832E+02 0.  0.
        -13    1    4    4    0    0  0.14715353068E+02 -0.60221221893E+02  0.70762232841E+02  0.94076728147E+02  0.00000000000E+00 0.  1.
         14    1    4    4    0    0 -0.16346947816E+01  0.25939484194E+02  0.15326951398E+02  0.30173572981E+02  0.00000000000E+00 0. -1.
        -11    1    3    3    0    0 -0.34652074443E+02  0.27808352114E+02 -0.25978541782E+02  0.51468003105E+02  0.00000000000E+00 0. -1.
         11    1    3    3    0    0  0.20774765485E+02 -0.43808654667E+02 -0.49696381165E+02  0.69429960432E+02  0.00000000000E+00 0.  1.
         21    1    1    2  503  501 -0.20086009266E+02  0.64067192787E+02 -0.50718141953E+02  0.84145011041E+02  0.00000000000E+00 0.  1.
         -4    1    1    2    0  502  0.20882659937E+02 -0.13785152535E+02 -0.27615227580E+02  0.37265489542E+02  0.00000000000E+00 0.  1.
<scales pt_clust_5="13000.00000" pt_clust_6="13000.00000" pt_clust_7="13000.00000" pt_clust_8="13000.00000" pt_clust_9="64.92369" pt_clust_10="25.02232"></scales>
<clustering>
<clus scale="   25.022">  1 10  2 -1</clus>
<clus scale="   64.924">  2  9  1 -1</clus>
<clus scale="   81.734">  5  6 -1 -1</clus>
<clus scale="   88.641">  1  5  2 -1</clus>
<clus scale="   91.875">  7  8 -1 -1</clus>
<clus scale="   25.022">  1  5  2 -1</clus>
</clustering>
</event>
<event>
10    4  0.2977685E-005  0.1151715E+03  0.7546771E-02  0.1255313E+00
          2   -1    0    0  503    0 -0.00000000000E+00  0.00000000000E+00  0.65073668899E+03  0.65073668899E+03  0.00000000000E+00 0. -1.
         21   -1    0    0  501  502  0.00000000000E+00 -0.00000000000E+00 -0.12987612292E+03  0.12987612292E+03  0.00000000000E+00 0. -1.
         24    2    1    2    0    0 -0.53312027696E+02 -0.69431221865E+02  0.49965381742E+03  0.51355995981E+03  0.80168748221E+02 0.  0.
         23    2    1    2    0    0  0.34887758418E+02  0.10310374981E+02  0.29674830325E+02  0.10293009260E+03  0.91599939350E+02 0.  0.
        -13    1    3    3    0    0  0.36195142487E+01 -0.52376342275E+02  0.15074956643E+03  0.15963024116E+03  0.00000000000E+00 0.  1.
         14    1    3    3    0    0 -0.56931541945E+02 -0.17054879591E+02  0.34890425099E+03  0.35392971865E+03  0.00000000000E+00 0. -1.
        -11    1    4    4    0    0  0.65536006686E+02  0.43600519051E+01  0.11130324362E+02  0.66617282633E+02  0.00000000000E+00 0.  1.
         11    1    4    4    0    0 -0.30648248268E+02  0.59503230757E+01  0.18544505963E+02  0.36312809971E+02  0.00000000000E+00 0. -1.
         21    1    1    2  503  502 -0.85728840089E+01  0.24250046316E+02  0.69743327228E+02  0.74334990277E+02  0.00000000000E+00 0.  1.
          1    1    1    2  501    0  0.26997153287E+02  0.34870800568E+02 -0.78211408902E+02  0.89787769213E+02  0.00000000000E+00 0. -1.
<scales pt_clust_5="13000.00000" pt_clust_6="13000.00000" pt_clust_7="13000.00000" pt_clust_8="13000.00000" pt_clust_9="25.72079" pt_clust_10="44.23993"></scales>
<clustering>
<clus scale="   25.721">  1  9  2 -1</clus>
<clus scale="   44.240">  2 10  1 -1</clus>
<clus scale="   80.169">  5  6 -1 -1</clus>
<clus scale="   91.600">  7  8 -1 -1</clus>
<clus scale="  106.306">  1  5  2 -1</clus>
<clus scale="   44.240">  2  5  1 -1</clus>
</clustering>
</event>
<event>
10    4  0.2977685E-005  0.1275855E+03  0.7546771E-02  0.1237915E+00
         -1   -1    0    0    0  501 -0.00000000000E+00  0.00000000000E+00  0.59834010537E+03  0.59834010537E+03  0.00000000000E+00 0.  1.
         21   -1    0    0  503  502  0.00000000000E+00 -0.00000000000E+00 -0.58726699971E+02  0.58726699971E+02  0.00000000000E+00 0. -1.
         23    2    1    2    0    0  0.28453913787E+02  0.69901712877E+02  0.38381709025E+03  0.40442631294E+03  0.10270934311E+03 0.  0.
         24    2    1    2    0    0 -0.64754380595E+02 -0.37727790573E+02  0.78826387796E+02  0.13565954712E+03  0.81076490575E+02 0.  0.
        -11    1    4    4    0    0 -0.89434888097E+01  0.24852990851E+02  0.15993690671E+02  0.30878071307E+02  0.00000000000E+00 0.  1.
         12    1    4    4    0    0 -0.55810891786E+02 -0.62580781424E+02  0.62832697125E+02  0.10478147581E+03  0.00000000000E+00 0. -1.
        -13    1    3    3    0    0 -0.18457063565E+02  0.52794488990E+02  0.31189762893E+03  0.31687229635E+03  0.00000000000E+00 0.  1.
         13    1    3    3    0    0  0.46910977352E+02  0.17107223886E+02  0.71919461318E+02  0.87554016592E+02  0.00000000000E+00 0. -1.
         21    1    1    2  503  501  0.28950959179E+02 -0.12971679340E+02  0.88074068149E+02  0.93613375020E+02  0.00000000000E+00 0.  1.
         -2    1    1    2    0  502  0.73495076292E+01 -0.19202242964E+02 -0.11104140789E+02  0.23367570261E+02  0.00000000000E+00 0.  1.
<scales pt_clust_5="13000.00000" pt_clust_6="13000.00000" pt_clust_7="13000.00000" pt_clust_8="13000.00000" pt_clust_9="32.71036" pt_clust_10="20.56068"></scales>
<clustering>
<clus scale="   20.561">  2 10  1 -1</clus>
<clus scale="   32.710">  1  9  2 -1</clus>
<clus scale="   81.076">  5  6 -1 -1</clus>
<clus scale="  102.709">  7  8 -1 -1</clus>
<clus scale="  110.916">  2  5  1 -1</clus>
<clus scale="   20.561">  2  5  1 -1</clus>
</clustering>
</event>
<event>
10    4  0.2977685E-005  0.3634826E+03  0.7546771E-02  0.1057213E+00
         21   -1    0    0  503  502  0.00000000000E+00  0.00000000000E+00  0.10359625924E+03  0.10359625924E+03  0.00000000000E+00 0. -1.
         -3   -1    0    0    0  501 -0.00000000000E+00 -0.00000000000E+00 -0.11672927991E+04  0.11672927991E+04  0.00000000000E+00 0.  1.
         24    2    1    2    0    0  0.12279546882E+03  0.54467994407E+01 -0.17938149353E+03  0.23166136877E+03  0.79880377921E+02 0.  0.
         23    2    1    2    0    0  0.13786891796E+03  0.12300958889E+03 -0.48473401583E+03  0.52654596548E+03  0.90246275062E+02 0.  0.
        -11    1    3    3    0    0  0.11829455456E+03 -0.19161408208E+02 -0.13344929952E+03  0.17935851456E+03  0.00000000000E+00 0.  1.
         12    1    3    3    0    0  0.45009142591E+01  0.24608207649E+02 -0.45932194010E+02  0.52302854218E+02  0.00000000000E+00 0. -1.
        -11    1    4    4    0    0 -0.49975659870E+01  0.40161545449E+02 -0.93558840410E+02  0.10193714739E+03  0.00000000000E+00 0.  1.
         11    1    4    4    0    0  0.14286648395E+03  0.82848043441E+02 -0.39117517542E+03  0.42460881809E+03  0.00000000000E+00 0. -1.
         21    1    1    2  503  501 -0.17900324402E+02  0.23832285591E+02 -0.69091646029E+02  0.75246627839E+02  0.00000000000E+00 0.  1.
         -4    1    1    2    0  502 -0.24276406237E+03 -0.15228867392E+03 -0.33048938449E+03  0.43743509627E+03  0.00000000000E+00 0.  1.
<scales pt_clust_5="13000.00000" pt_clust_6="13000.00000" pt_clust_7="13000.00000" pt_clust_8="13000.00000" pt_clust_9="29.80603" pt_clust_10="287.64150"></scales>
<clustering>
<clus scale="   29.806">  2  9  1 -1</clus>
<clus scale="   79.880">  5  6 -1 -1</clus>
<clus scale="   90.246">  7  8 -1 -1</clus>
<clus scale="  143.945">  5  7 -1 -1</clus>
<clus scale="  287.641">  1 10  2 -1</clus>
<clus scale="  287.641">  1  5  2 -1</clus>
</clustering>
</event>
<event>
10    4  0.2977685E-005  0.9570489E+02  0.7546771E-02  0.1293783E+00
          2   -1    0    0  503    0 -0.00000000000E+00  0.00000000000E+00  0.25123387867E+03  0.25123387867E+03  0.00000000000E+00 0. -1.
         21   -1    0    0  501  502  0.00000000000E+00 -0.00000000000E+00 -0.37272961646E+03  0.37272961646E+03  0.00000000000E+00 0. -1.
         24    2    1    2    0    0 -0.29638483596E+02  0.57518564149E+02  0.19718355360E+03  0.22278297533E+03  0.81018981463E+02 0.  0.
         23    2    1    2    0    0 -0.15541983068E+01 -0.85882340465E+01 -0.14012393332E+03  0.16613642147E+03  0.88828039224E+02 0.  0.
        -13    1    3    3    0    0 -0.53194969490E+02  0.50985164930E+02  0.11123606062E+03  0.13342658282E+03  0.00000000000E+00 0.  1.
         14    1    3    3    0    0  0.23556485894E+02  0.65333992187E+01  0.85947492975E+02  0.89356392507E+02  0.00000000000E+00 0. -1.
        -11    1    4    4    0    0  0.36242718822E+02 -0.64675850480E+01 -0.11488078318E+03  0.12063564427E+03  0.00000000000E+00 0.  1.
         11    1    4    4    0    0 -0.37796917129E+02 -0.21206489985E+01 -0.25243150139E+02  0.45500777198E+02  0.00000000000E+00 0. -1.
         21    1    1    2  503  502  0.16760624793E+02 -0.22964359496E+02  0.19691532037E+02  0.34583764753E+02  0.00000000000E+00 0. -1.
          1    1    1    2  501    0  0.14432057110E+02 -0.25965970606E+02 -0.19824689010E+03  0.20046033358E+03  0.00000000000E+00 0. -1.
<scales pt_clust_5="13000.00000" pt_clust_6="13000.00000" pt_clust_7="13000.00000" pt_clust_8="13000.00000" pt_clust_9="28.43027" pt_clust_10="29.84652"></scales>
<clustering>
<clus scale="   28.430">  1  9  2 -1</clus>
<clus scale="   29.847">  2 10  1 -1</clus>
<clus scale="   81.019">  5  6 -1 -1</clus>
<clus scale="   88.505">  1  5  2 -1</clus>
<clus scale="   88.828">  7  8 -1 -1</clus>
<clus scale="   29.847">  2  5  1 -1</clus>
</clustering>
</event>
<event>
10    4  0.2977685E-005  0.1259041E+03  0.7546771E-02  0.1233974E+00
         21   -1    0    0  501  502  0.00000000000E+00  0.00000000000E+00  0.16823456956E+03  0.16823456956E+03  0.00000000000E+00 0.  1.
          2   -1    0    0  503    0 -0.00000000000E+00 -0.00000000000E+00 -0.43057588725E+03  0.43057588725E+03  0.00000000000E+00 0. -1.
         24    2    1    2    0    0  0.22078203508E+02 -0.85894993210E+02 -0.29525420926E+03  0.31908016829E+03  0.82290393017E+02 0.  0.
         23    2    1    2    0    0 -0.51529682423E+02  0.12032517582E+03 -0.13080152030E+02  0.15581232963E+03  0.83504105181E+02 0.  0.
        -11    1    3    3    0    0 -0.26190282660E+02 -0.19616392211E+02 -0.13692110904E+03  0.14077685836E+03  0.00000000000E+00 0.  1.
         12    1    3    3    0    0  0.48268486168E+02 -0.66278600999E+02 -0.15833310022E+03  0.17830330993E+03  0.00000000000E+00 0. -1.
        -13    1    4    4    0    0 -0.52969557844E+02  0.79402117943E+02  0.26294571567E+02  0.99004418516E+02  0.00000000000E+00 0.  1.
         13    1    4    4    0    0  0.14398754201E+01  0.40923057877E+02 -0.39374723596E+02  0.56807911118E+02  0.00000000000E+00 0. -1.
         21    1    1    2  503  502  0.25690271567E+02  0.14899390839E+02 -0.24015387057E+02  0.38193202485E+02  0.00000000000E+00 0.  1.
          1    1    1    2  501    0  0.37612073488E+01 -0.49329573448E+02  0.70008430651E+02  0.85724756398E+02  0.00000000000E+00 0. -1.
<scales pt_clust_5="13000.00000" pt_clust_6="13000.00000" pt_clust_7="13000.00000" pt_clust_8="13000.00000" pt_clust_9="29.69818" pt_clust_10="49.22174"></scales>
<clustering>
<clus scale="   29.698">  2  9  1 -1</clus>
<clus scale="   49.222">  1 10  2 -1</clus>
<clus scale="   82.290">  5  6 -1 -1</clus>
<clus scale="   83.504">  7  8 -1 -1</clus>
<clus scale="  125.102">  2  5  1 -1</clus>
<clus scale="   49.222">  1  5  2 -1</clus>
</clustering>
</event>
<event>
10    4  0.2977685E-005  0.2371232E+03  0.7546771E-02  0.1122289E+00
         21   -1    0    0  501  502  0.00000000000E+00  0.00000000000E+00  0.12684152654E+03  0.12684152654E+03  0.00000000000E+00 0. -1.
          2   -1    0    0  503    0 -0.00000000000E+00 -0.00000000000E+00 -0.13528836422E+04  0.13528836422E+04  0.00000000000E+00 0. -1.
         23    2    1    2    0    0 -0.84613414235E+02  0.12269399629E+03 -0.49126166109E+03  0.52121392963E+03  0.90070495660E+02 0.  0.
         24    2    1    2    0    0  0.64652348292E+02 -0.21400333753E+03 -0.70279051036E+02  0.24793007338E+03  0.80949500670E+02 0.  0.
        -13    1    4    4    0    0  0.10992449087E+02 -0.93152481273E+02 -0.67696795749E+02  0.11567659599E+03  0.00000000000E+00 0.  1.
         14    1    4    4    0    0  0.53659899205E+02 -0.12085085626E+03 -0.25822552872E+01  0.13225347740E+03  0.00000000000E+00 0. -1.
        -13    1    3    3    0    0 -0.36018177142E+02  0.11483479172E+03 -0.39743672996E+03  0.41525930790E+03  0.00000000000E+00 0. -1.
         13    1    3    3    0    0 -0.48595237093E+02  0.78592045654E+01 -0.93824931130E+02  0.10595462173E+03  0.00000000000E+00 0.  1.
         21    1    1    2  503  502  0.33435474531E+01  0.12810353396E+03 -0.65717064438E+03  0.66954831831E+03  0.00000000000E+00 0. -1.
          1    1    1    2  501    0  0.16617518490E+02 -0.36794192714E+02 -0.73307591652E+01  0.41032847429E+02  0.00000000000E+00 0. -1.
<scales pt_clust_5="13000.00000" pt_clust_6="13000.00000" pt_clust_7="13000.00000" pt_clust_8="13000.00000" pt_clust_9="126.10584" pt_clust_10="40.37270"></scales>
<clustering>
<clus scale="   40.373">  1 10  2 -1</clus>
<clus scale="   80.950">  5  6 -1 -1</clus>
<clus scale="   90.070">  7  8 -1 -1</clus>
<clus scale="  126.106">  2  9  1 -1</clus>
<clus scale="  233.811">  1  5  2 -1</clus>
<clus scale="   40.373">  1  5  2 -1</clus>
</clustering>
</event>
<event>
10    4  0.2977685E-005  0.1677395E+03  0.7546771E-02  0.1181761E+00
          4   -1    0    0  503    0 -0.00000000000E+00  0.00000000000E+00  0.29005721354E+03  0.29005721354E+03  0.00000000000E+00 0. -1.
         21   -1    0    0  501  502  0.00000000000E+00 -0.00000000000E+00 -0.27739342178E+03  0.27739342178E+03  0.00000000000E+00 0. -1.
         24    2    1    2    0    0  0.11331110277E+03 -0.10352959037E+03  0.12378400286E+03  0.21277199545E+03  0.79947861686E+02 0.  0.
         23    2    1    2    0    0 -0.11449388870E+03  0.60458177477E+02 -0.67668328943E+02  0.17207031636E+03  0.90912866292E+02 0.  0.
        -11    1    3    3    0    0  0.51707828944E+02 -0.21372248558E+01  0.55499969589E+02  0.75884872857E+02  0.00000000000E+00 0.  1.
         12    1    3    3    0    0  0.61603273830E+02 -0.10139236551E+03  0.68284033272E+02  0.13688712259E+03  0.00000000000E+00 0. -1.
        -11    1    4    4    0    0 -0.29083451470E+02  0.64625864776E+02 -0.43714999284E+02  0.83266744322E+02  0.00000000000E+00 0.  1.
         11    1    4    4    0    0 -0.85410437232E+02 -0.41676872991E+01 -0.23953329658E+02  0.88803572042E+02  0.00000000000E+00 0. -1.
         21    1    1    2  503  502 -0.40418548748E+02 -0.27600928416E+02  0.41764854385E+02  0.64341070819E+02  0.00000000000E+00 0.  1.
          3    1    1    2  501    0  0.41601334676E+02  0.70672341306E+02 -0.85216736547E+02  0.11826725270E+03  0.00000000000E+00 0. -1.
<scales pt_clust_5="13000.00000" pt_clust_6="13000.00000" pt_clust_7="13000.00000" pt_clust_8="13000.00000" pt_clust_9="48.94354" pt_clust_10="78.93287"></scales>
<clustering>
<clus scale="   48.944">  1  9  2 -1</clus>
<clus scale="   78.933">  2 10  1 -1</clus>
<clus scale="   79.948">  5  6 -1 -1</clus>
<clus scale="   90.913">  7  8 -1 -1</clus>
<clus scale="  162.059">  1  5  2 -1</clus>
<clus scale="   78.933">  2  5  1 -1</clus>
</clustering>
</event>
<event>
10    4  0.2977685E-005  0.1464102E+03  0.7546771E-02  0.1219759E+00
          2   -1    0    0  503    0 -0.00000000000E+00  0.00000000000E+00  0.82991734504E+03  0.82991734504E+03  0.00000000000E+00 0. -1.
         21   -1    0    0  501  502  0.00000000000E+00 -0.00000000000E+00 -0.11576556275E+03  0.11576556275E+03  0.00000000000E+00 0. -1.
         23    2    1    2    0    0  0.29409459399E+02 -0.29546844620E+02  0.21701991846E+03  0.23887567597E+03  0.90697360688E+02 0.  0.
         24    2    1    2    0    0 -0.12535424371E+03  0.60623056547E+01  0.33733743181E+03  0.36885416566E+03  0.80662349686E+02 0.  0.
        -13    1    4    4    0    0 -0.68445489822E+02  0.42037270570E+02  0.15690431885E+03  0.17626934636E+03  0.00000000000E+00 0.  1.
         14    1    4    4    0    0 -0.56908753885E+02 -0.35974964915E+02  0.18043311296E+03  0.19258481930E+03  0.00000000000E+00 0. -1.
        -13    1    3    3    0    0 -0.15602012623E+02 -0.22573980935E+02  0.13994172414E+02  0.30803315969E+02  0.00000000000E+00 0. -1.
         13    1    3    3    0    0  0.45011472023E+02 -0.69728636845E+01  0.20302574604E+03  0.20807236000E+03  0.00000000000E+00 0.  1.
         21    1    1    2  503  502 -0.30528565390E+01 -0.53263249433E+02  0.19952965868E+03  0.20653904805E+03  0.00000000000E+00 0. -1.
          1    1    1    2  501    0  0.98997640847E+02  0.76747788398E+02 -0.39735226665E+02  0.13141401811E+03  0.00000000000E+00 0. -1.
<scales pt_clust_5="13000.00000" pt_clust_6="13000.00000" pt_clust_7="13000.00000" pt_clust_8="13000.00000" pt_clust_9="53.35067" pt_clust_10="122.18652"></scales>
<clustering>
<clus scale="   53.351">  1  9  2 -1</clus>
<clus scale="   80.662">  5  6 -1 -1</clus>
<clus scale="   90.697">  7  8 -1 -1</clus>
<clus scale="  106.862">  1  7  2 -1</clus>
<clus scale="  122.187">  2 10  1 -1</clus>
<clus scale="  122.187">  2  5  1 -1</clus>
</clustering>
</event>
<event>
10    4  0.2977685E-005  0.3591553E+03  0.7546771E-02  0.1109535E+00
          2   -1    0    0  503    0 -0.00000000000E+00  0.00000000000E+00  0.71222239911E+03  0.71222239911E+03  0.00000000000E+00 0. -1.
         21   -1    0    0  501  502  0.00000000000E+00 -0.00000000000E+00 -0.33323336892E+03  0.33323336892E+03  0.00000000000E+00 0. -1.
         23    2    1    2    0    0  0.61835190422E+01  0.14034361818E+02 -0.42585075519E+02  0.10199555395E+03  0.91402435139E+02 0.  0.
         24    2    1    2    0    0  0.12403707878E+03  0.30401578076E+03  0.27367014189E+03  0.43803515168E+03  0.95753097527E+02 0.  0.
        -11    1    4    4    0    0  0.22178583681E+02  0.10053510977E+03  0.36176064467E+02  0.10912334998E+03  0.00000000000E+00 0.  1.
         12    1    4    4    0    0  0.10185849510E+03  0.20348067099E+03  0.23749407742E+03  0.32891180170E+03  0.00000000000E+00 0. -1.
        -11    1    3    3    0    0  0.41494560745E+02  0.23425055532E+02 -0.44782463702E+02  0.65391137422E+02  0.00000000000E+00 0.  1.
         11    1    3    3    0    0 -0.35311041703E+02 -0.93906937140E+01  0.21973881826E+01  0.36604416529E+02  0.00000000000E+00 0. -1.
         21    1    1    2  503  502  0.28085607229E+02  0.11355853804E+00  0.14740119291E+03  0.15005307695E+03  0.00000000000E+00 0. -1.
          1    1    1    2  501    0 -0.15830620505E+03 -0.31816370112E+03  0.50277091217E+00  0.35537198545E+03  0.00000000000E+00 0. -1.
<scales pt_clust_5="13000.00000" pt_clust_6="13000.00000" pt_clust_7="13000.00000" pt_clust_8="13000.00000" pt_clust_9="28.08584" pt_clust_10="346.15586"></scales>
<clustering>
<clus scale="   28.086">  1  9  2 -1</clus>
<clus scale="   91.402">  7  8 -1 -1</clus>
<clus scale="   92.792">  1  7  2 -1</clus>
<clus scale="   95.753">  5  6 -1 -1</clus>
<clus scale="  346.156">  2 10  1 -1</clus>
<clus scale="  346.156">  2  5  1 -1</clus>
</clustering>
</event>
<event>
10    4  0.2977685E-005  0.1461660E+03  0.7546771E-02  0.1207091E+00
         21   -1    0    0  501  502  0.00000000000E+00  0.00000000000E+00  0.83362804147E+03  0.83362804147E+03  0.00000000000E+00 0.  1.
          2   -1    0    0  503    0 -0.00000000000E+00 -0.00000000000E+00 -0.12877322206E+03  0.12877322206E+03  0.00000000000E+00 0. -1.
         23    2    1    2    0    0  0.11865251878E+03  0.61707888726E+02  0.26979843430E+03  0.31435747678E+03  0.90239372296E+02 0.  0.
         24    2    1    2    0    0 -0.58251668092E+02 -0.92079114551E+02  0.49513997885E+03  0.51338676746E+03  0.80811844321E+02 0.  0.
        -11    1    4    4    0    0 -0.36714049832E+01 -0.78239494501E+02  0.25641399961E+03  0.26811012087E+03  0.00000000000E+00 0.  1.
         12    1    4    4    0    0 -0.54580263109E+02 -0.13839620050E+02  0.23872597923E+03  0.24527664660E+03  0.00000000000E+00 0. -1.
        -11    1    3    3    0    0  0.95326730133E+02  0.79119226773E+02  0.16966445267E+03  0.21007870911E+03  0.00000000000E+00 0.  1.
         11    1    3    3    0    0  0.23325788642E+02 -0.17411338047E+02  0.10013398163E+03  0.10427876766E+03  0.00000000000E+00 0. -1.
         21    1    1    2  503  502 -0.80036978496E+02  0.48125348412E+02 -0.52421989017E+02  0.10709823537E+03  0.00000000000E+00 0. -1.
          1    1    1    2  501    0  0.19636127812E+02 -0.17754122587E+02 -0.76616047156E+01  0.27558783920E+02  0.00000000000E+00 0. -1.
<scales pt_clust_5="13000.00000" pt_clust_6="13000.00000" pt_clust_7="13000.00000" pt_clust_8="13000.00000" pt_clust_9="92.52944" pt_clust_10="26.47238"></scales>
<clustering>
<clus scale="   26.472">  1 10  2 -1</clus>
<clus scale="   80.812">  5  6 -1 -1</clus>
<clus scale="   90.239">  7  8 -1 -1</clus>
<clus scale="   92.529">  2  9  1 -1</clus>
<clus scale="  140.542">  1  5  2 -1</clus>
<clus scale="   26.472">  1  5  2 -1</clus>
</clustering>
</event>
<event>
10    4  0.2977685E-005  0.2349889E+03  0.7546771E-02  0.1152026E+00
         21   -1    0    0  501  502  0.00000000000E+00  0.00000000000E+00  0.74082082293E+03  0.74082082293E+03  0.00000000000E+00 0. -1.
          2   -1    0    0  503    0 -0.00000000000E+00 -0.00000000000E+00 -0.82313719328E+03  0.82313719328E+03  0.00000000000E+00 0. -1.
         24    2    1    2    0    0 -0.74281706831E+02 -0.43960161740E+02  0.22621068153E+03  0.25458934867E+03  0.78703216128E+02 0.  0.
         23    2    1    2    0    0  0.30344060027E+03 -0.77296372350E+02 -0.55819436172E+03  0.64660015873E+03  0.91977675241E+02 0.  0.
        -11    1    3    3    0    0 -0.18142036061E+02  0.22565759172E+02  0.44281476561E+02  0.52907429780E+02  0.00000000000E+00 0.  1.
         12    1    3    3    0    0 -0.56139670770E+02 -0.66525920912E+02  0.18192920497E+03  0.20168191890E+03  0.00000000000E+00 0. -1.
        -13    1    4    4    0    0  0.27639720156E+03 -0.85443379705E+02 -0.54110571585E+03  0.61358893397E+03  0.00000000000E+00 0. -1.
         13    1    4    4    0    0  0.27043398706E+02  0.81470073556E+01 -0.17088645875E+02  0.33011224762E+02  0.00000000000E+00 0.  1.
         21    1    1    2  503  502 -0.47266749459E+02  0.21719713685E+03 -0.11034472751E+03  0.24816264979E+03  0.00000000000E+00 0. -1.
          1    1    1    2  501    0 -0.18189214398E+03 -0.95940602760E+02  0.36001203735E+03  0.41460585902E+03  0.00000000000E+00 0. -1.
<scales pt_clust_5="13000.00000" pt_clust_6="13000.00000" pt_clust_7="13000.00000" pt_clust_8="13000.00000" pt_clust_9="216.24033" pt_clust_10="208.55289"></scales>
<clustering>
<clus scale="   78.703">  5  6 -1 -1</clus>
<clus scale="   91.978">  7  8 -1 -1</clus>
<clus scale="  116.810">  2  5  1 -1</clus>
<clus scale="  208.553">  1 10  2 -1</clus>
<clus scale="  216.240">  1  9  2 -1</clus>
<clus scale="  208.553">  1  5  2 -1</clus>
</clustering>
</event>
<event>
10    4  0.2977685E-005  0.3274483E+03  0.7546771E-02  0.1072437E+00
          2   -1    0    0  503    0 -0.00000000000E+00  0.00000000000E+00  0.14467726425E+04  0.14467726425E+04  0.00000000000E+00 0. -1.
         21   -1    0    0  501  502  0.00000000000E+00 -0.00000000000E+00 -0.18511627716E+03  0.18511627716E+03  0.00000000000E+00 0. -1.
         23    2    1    2    0    0 -0.32368572129E+03  0.20933748717E+03  0.10120318141E+04  0.10863400649E+04  0.85625429273E+02 0.  0.
         24    2    1    2    0    0  0.17511636135E+03 -0.10584567264E+03  0.14239749004E+03  0.26174758444E+03  0.79785376864E+02 0.  0.
        -11    1    4    4    0    0  0.44698685454E+02 -0.58891728457E+02  0.19411188324E+02  0.76439534235E+02  0.00000000000E+00 0.  1.
         12    1    4    4    0    0  0.13041767590E+03 -0.46953944182E+02  0.12298630172E+03  0.18530805021E+03  0.00000000000E+00 0. -1.
        -11    1    3    3    0    0 -0.23614391984E+03  0.17192365437E+03  0.84526851910E+03  0.89431569549E+03  0.00000000000E+00 0. -1.
         11    1    3    3    0    0 -0.87541801453E+02  0.37413832799E+02  0.16676329496E+03  0.19202436937E+03  0.00000000000E+00 0.  1.
         21    1    1    2  503  502  0.17278051157E+03 -0.19679453810E+02  0.86075424706E+02  0.19403444235E+03  0.00000000000E+00 0. -1.
          1    1    1    2  501    0 -0.24211151638E+02 -0.83812360725E+02  0.21151636479E+02  0.89766827947E+02  0.00000000000E+00 0. -1.
<scales pt_clust_5="13000.00000" pt_clust_6="13000.00000" pt_clust_7="13000.00000" pt_clust_8="13000.00000" pt_clust_9="171.46881" pt_clust_10="87.23928"></scales>
<clustering>
<clus scale="   79.785">  5  6 -1 -1</clus>
<clus scale="   85.625">  7  8 -1 -1</clus>
<clus scale="   87.239">  2 10  1 -1</clus>
<clus scale="  171.469">  2  9  1 -1</clus>
<clus scale="  325.970">  2  5  1 -1</clus>
<clus scale="   87.239">  2  5  1 -1</clus>
</clustering>
</event>
<event>
10    4  0.2977685E-005  0.2195293E+03  0.7546771E-02  0.1134900E+00
         -3   -1    0    0    0  501 -0.00000000000E+00  0.00000000000E+00  0.44709629868E+03  0.44709629868E+03  0.00000000000E+00 0.  1.
         21   -1    0    0  503  502  0.00000000000E+00 -0.00000000000E+00 -0.26981092535E+03  0.26981092535E+03  0.00000000000E+00 0.  1.
         24    2    1    2    0    0 -0.50385183378E+02 -0.18836630142E+03  0.23811141042E+03  0.31883977470E+03  0.83314032121E+02 0.  0.
         23    2    1    2    0    0  0.61829785322E+02  0.12707106889E+03 -0.90124981681E+02  0.19123392058E+03  0.92075627374E+02 0.  0.
        -11    1    3    3    0    0 -0.20813676157E+02 -0.15237437340E+03  0.22093808615E+03  0.26919286152E+03  0.00000000000E+00 0.  1.
         12    1    3    3    0    0 -0.29571507222E+02 -0.35991928019E+02  0.17173324268E+02  0.49646913180E+02  0.00000000000E+00 0. -1.
        -11    1    4    4    0    0  0.84961363546E+01  0.77164027280E+02 -0.32021083917E+01  0.77696363732E+02  0.00000000000E+00 0. -1.
         11    1    4    4    0    0  0.53333648967E+02  0.49907041609E+02 -0.86922873289E+02  0.11353755685E+03  0.00000000000E+00 0.  1.
         21    1    1    2  503  501  0.27162913032E+02 -0.59288411131E+02  0.45024388376E+02  0.79247303345E+02  0.00000000000E+00 0. -1.
         -4    1    1    2    0  502 -0.38607514975E+02  0.12058364366E+03 -0.15725443790E+02  0.12758622540E+03  0.00000000000E+00 0.  1.
<scales pt_clust_5="13000.00000" pt_clust_6="13000.00000" pt_clust_7="13000.00000" pt_clust_8="13000.00000" pt_clust_9="65.21457" pt_clust_10="117.21179"></scales>
<clustering>
<clus scale="   65.215">  1  9  2 -1</clus>
<clus scale="   83.314">  5  6 -1 -1</clus>
<clus scale="   92.076">  7  8 -1 -1</clus>
<clus scale="  117.212">  2 10  1 -1</clus>
<clus scale="  216.001">  1  5  2 -1</clus>
<clus scale="  117.212">  2  5  1 -1</clus>
</clustering>
</event>
<event>
10    4  0.2977685E-005  0.3033211E+03  0.7546771E-02  0.1128753E+00
         21   -1    0    0  501  502  0.00000000000E+00  0.00000000000E+00  0.78201463842E+03  0.78201463842E+03  0.00000000000E+00 0. -1.
          2   -1    0    0  503    0 -0.00000000000E+00 -0.00000000000E+00 -0.20768232097E+03  0.20768232097E+03  0.00000000000E+00 0. -1.
         24    2    1    2    0    0  0.35416670075E+02 -0.28269829200E+02  0.39947815687E+02  0.10091106524E+03  0.80831252295E+02 0.  0.
         23    2    1    2    0    0  0.93861341835E+02 -0.23884795569E+03  0.30639859935E+03  0.41055794437E+03  0.93911802089E+02 0.  0.
        -11    1    3    3    0    0 -0.94462119350E+01 -0.33045156905E+02 -0.77758088966E+01  0.35237430650E+02  0.00000000000E+00 0.  1.
         12    1    3    3    0    0  0.44862882010E+02  0.47753277048E+01  0.47723624584E+02  0.65673634590E+02  0.00000000000E+00 0. -1.
        -11    1    4    4    0    0  0.17922126517E+02 -0.35246736142E+02  0.11277987046E+03  0.11951081210E+03  0.00000000000E+00 0.  1.
         11    1    4    4    0    0  0.75939215319E+02 -0.20360121955E+03  0.19361872889E+03  0.29104713227E+03  0.00000000000E+00 0. -1.
         21    1    1    2  503  502 -0.17802815914E+02 -0.58278355740E+02 -0.74743242414E+01  0.61393587003E+02  0.00000000000E+00 0. -1.
          1    1    1    2  501    0 -0.11147519600E+03  0.32539614063E+03  0.23546022665E+03  0.41683436278E+03  0.00000000000E+00 0. -1.
<scales pt_clust_5="13000.00000" pt_clust_6="13000.00000" pt_clust_7="13000.00000" pt_clust_8="13000.00000" pt_clust_9="60.93691" pt_clust_10="288.41695"></scales>
<clustering>
<clus scale="   60.937">  2  9  1 -1</clus>
<clus scale="   80.831">  5  6 -1 -1</clus>
<clus scale="   93.912">  7  8 -1 -1</clus>
<clus scale="   95.184">  2  5  1 -1</clus>
<clus scale="  288.417">  1 10  2 -1</clus>
<clus scale="  288.417">  1  5  2 -1</clus>
</clustering>
</event>
<event>
10    4  0.2977685E-005  0.1207772E+03  0.7546771E-02  0.1245731E+00
          2   -1    0    0  503    0 -0.00000000000E+00  0.00000000000E+00  0.69311324853E+03  0.69311324853E+03  0.00000000000E+00 0. -1.
         21   -1    0    0  501  502  0.00000000000E+00 -0.00000000000E+00 -0.78961210367E+02  0.78961210367E+02  0.00000000000E+00 0. -1.
         23    2    1    2    0    0  0.98148480793E+02 -0.52497728662E+02  0.75257325026E+02  0.16334193984E+03  0.92885889902E+02 0.  0.
         24    2    1    2    0    0 -0.53805745367E+02 -0.11435362755E+01  0.67827156035E+02  0.11829917297E+03  0.80608965502E+02 0.  0.
        -11    1    4    4    0    0 -0.13828008342E+02  0.37883241423E+02  0.21380234649E+02  0.45645024143E+02  0.00000000000E+00 0.  1.
         12    1    4    4    0    0 -0.39977737025E+02 -0.39026777698E+02  0.46446921386E+02  0.72654148824E+02  0.00000000000E+00 0. -1.
        -11    1    3    3    0    0  0.10715665950E+03 -0.20277079713E+02  0.69696202902E+02  0.12942669870E+03  0.00000000000E+00 0. -1.
         11    1    3    3    0    0 -0.90081787055E+01 -0.32220648949E+02  0.55611221236E+01  0.33915241140E+02  0.00000000000E+00 0.  1.
         21    1    1    2  503  502 -0.27795572916E+02  0.78914736323E+02  0.43684652901E+03  0.44478648742E+03  0.00000000000E+00 0. -1.
          1    1    1    2  501    0 -0.16547162510E+02 -0.25273471386E+02  0.34221028091E+02  0.45646858672E+02  0.00000000000E+00 0. -1.
<scales pt_clust_5="13000.00000" pt_clust_6="13000.00000" pt_clust_7="13000.00000" pt_clust_8="13000.00000" pt_clust_9="82.68296" pt_clust_10="30.20856"></scales>
<clustering>
<clus scale="   30.209">  2 10  1 -1</clus>
<clus scale="   80.609">  5  6 -1 -1</clus>
<clus scale="   82.683">  1  9  2 -1</clus>
<clus scale="   92.886">  7  8 -1 -1</clus>
<clus scale="  111.612">  2  5  1 -1</clus>
<clus scale="   30.209">  2  5  1 -1</clus>
</clustering>
</event>
<event>
10    4  0.2977685E-005  0.3693809E+03  0.7546771E-02  0.1081958E+00
         21   -1    0    0  501  502  0.00000000000E+00  0.00000000000E+00  0.57034256233E+03  0.57034256233E+03  0.00000000000E+00 0. -1.
          2   -1    0    0  503    0 -0.00000000000E+00 -0.00000000000E+00 -0.33240600245E+04  0.33240600245E+04  0.00000000000E+00 0. -1.
         23    2    1    2    0    0  0.78491698696E+02  0.13265511653E+03 -0.55335213618E+03  0.58090849810E+03  0.86589663588E+02 0.  0.
         24    2    1    2    0    0 -0.42666797653E+03 -0.37227091395E+02 -0.26118971137E+04  0.26480721440E+04  0.82753422441E+02 0.  0.
        -11    1    4    4    0    0 -0.21750152059E+03 -0.14283290372E+02 -0.10786082076E+04  0.11004120089E+04  0.00000000000E+00 0.  1.
         12    1    4    4    0    0 -0.20916645594E+03 -0.22943801023E+02 -0.15332889061E+04  0.15476601351E+04  0.00000000000E+00 0. -1.
        -13    1    3    3    0    0  0.10356872785E+02  0.87497500172E+02 -0.20569335571E+03  0.22376960011E+03  0.00000000000E+00 0. -1.
         13    1    3    3    0    0  0.68134825911E+02  0.45157616355E+02 -0.34765878046E+03  0.35713889798E+03  0.00000000000E+00 0.  1.
         21    1    1    2  503  502  0.33115848979E+03 -0.52279473083E+02  0.99147759495E+02  0.34961316749E+03  0.00000000000E+00 0.  1.
          1    1    1    2  501    0  0.17017788040E+02 -0.43148552048E+02  0.31238402824E+03  0.31580877719E+03  0.00000000000E+00 0. -1.
<scales pt_clust_5="13000.00000" pt_clust_6="13000.00000" pt_clust_7="13000.00000" pt_clust_8="13000.00000" pt_clust_9="359.99183" pt_clust_10="46.38322"></scales>
<clustering>
<clus scale="   46.383">  1 10  2 -1</clus>
<clus scale="   82.753">  5  6 -1 -1</clus>
<clus scale="   86.590">  7  8 -1 -1</clus>
<clus scale="  175.472">  2  7  1 -1</clus>
<clus scale="  359.992">  1  9  2 -1</clus>
<clus scale="   46.383">  1  5  2 -1</clus>
</clustering>
</event>
<event>
10    4  0.2977685E-005  0.1885915E+03  0.7546771E-02  0.1170954E+00
         21   -1    0    0  501  502  0.00000000000E+00  0.00000000000E+00  0.53850319560E+03  0.53850319560E+03  0.00000000000E+00 0. -1.
          2   -1    0    0  503    0 -0.00000000000E+00 -0.00000000000E+00 -0.22243890240E+03  0.22243890240E+03  0.00000000000E+00 0. -1.
         24    2    1    2    0    0  0.63045767409E+02 -0.10421374210E+03  0.27702701541E+02  0.15178193926E+03  0.86226704583E+02 0.  0.
         23    2    1    2    0    0 -0.10833517067E+03  0.22022869344E+03  0.84033124327E+02  0.27475451641E+03  0.90505754971E+02 0.  0.
        -13    1    3    3    0    0  0.53684219656E+02 -0.22951285324E+02 -0.13891296100E+02  0.60014373657E+02  0.00000000000E+00 0.  1.
         14    1    3    3    0    0  0.93615477528E+01 -0.81262456776E+02  0.41593997641E+02  0.91767565607E+02  0.00000000000E+00 0. -1.
        -11    1    4    4    0    0 -0.41512510046E+02  0.21968637823E+02  0.38281956905E+02  0.60592225265E+02  0.00000000000E+00 0. -1.
         11    1    4    4    0    0 -0.66822660626E+02  0.19826005562E+03  0.45751167422E+02  0.21416229114E+03  0.00000000000E+00 0.  1.
         21    1    1    2  503  502  0.23923626840E+02  0.31890178435E+02 -0.34469753681E+02  0.52701872079E+02  0.00000000000E+00 0. -1.
          1    1    1    2  501    0  0.21365776423E+02 -0.14790512978E+03  0.23879822101E+03  0.28170377026E+03  0.00000000000E+00 0. -1.
<scales pt_clust_5="13000.00000" pt_clust_6="13000.00000" pt_clust_7="13000.00000" pt_clust_8="13000.00000" pt_clust_9="39.86632" pt_clust_10="165.45532"></scales>
<clustering>
<clus scale="   39.866">  2  9  1 -1</clus>
<clus scale="   86.227">  5  6 -1 -1</clus>
<clus scale="   90.506">  7  8 -1 -1</clus>
<clus scale="  145.610">  2  5  1 -1</clus>
<clus scale="  165.455">  1 10  2 -1</clus>
<clus scale="  165.455">  1  5  2 -1</clus>
</clustering>
</event>
<event>
10    4  0.2977685E-005  0.1252763E+03  0.7546771E-02  0.1237312E+00
         21   -1    0    0  501  502  0.00000000000E+00  0.00000000000E+00  0.83654977369E+03  0.83654977369E+03  0.00000000000E+00 0.  1.
          2   -1    0    0  503    0 -0.00000000000E+00 -0.00000000000E+00 -0.22095997046E+03  0.22095997046E+03  0.00000000000E+00 0. -1.
         24    2    1    2    0    0  0.69261442847E+02 -0.76050544225E+00  0.24857832648E+03  0.27039087471E+03  0.80760850031E+02 0.  0.
         23    2    1    2    0    0 -0.94330313320E+02  0.11203979414E+03  0.54139212218E+03  0.56807077671E+03  0.90265463558E+02 0.  0.
        -11    1    3    3    0    0  0.74683296651E+02 -0.27037503615E+02  0.19164181437E+03  0.20744928637E+03  0.00000000000E+00 0.  1.
         12    1    3    3    0    0 -0.54218538047E+01  0.26276998173E+02  0.56936512112E+02  0.62941588343E+02  0.00000000000E+00 0. -1.
        -13    1    4    4    0    0 -0.46148703033E+02  0.40155532848E+02  0.92398170517E+02  0.11081331836E+03  0.00000000000E+00 0. -1.
         13    1    4    4    0    0 -0.48181610287E+02  0.71884261292E+02  0.44899395166E+03  0.45725745835E+03  0.00000000000E+00 0.  1.
         21    1    1    2  503  502  0.58953333206E+01 -0.38470296746E+02 -0.12004953781E+03  0.12620067439E+03  0.00000000000E+00 0.  1.
          1    1    1    2  501    0  0.19173537153E+02 -0.72808991952E+02 -0.54331107623E+02  0.92847418336E+02  0.00000000000E+00 0. -1.
<scales pt_clust_5="13000.00000" pt_clust_6="13000.00000" pt_clust_7="13000.00000" pt_clust_8="13000.00000" pt_clust_9="38.91939" pt_clust_10="104.44852"></scales>
<clustering>
<clus scale="   38.919">  2  9  1 -1</clus>
<clus scale="   80.761">  5  6 -1 -1</clus>
<clus scale="   90.265">  7  8 -1 -1</clus>
<clus scale="  104.449">  1 10  2 -1</clus>
<clus scale="  118.611">  2  5  1 -1</clus>
<clus scale="  104.449">  1  5  2 -1</clus>
</clustering>
</event>
<event>
10    4  0.2977685E-005  0.2863080E+03  0.7546771E-02  0.1092715E+00
          2   -1    0    0  503    0 -0.00000000000E+00  0.00000000000E+00  0.30495880193E+03  0.30495880193E+03  0.00000000000E+00 0. -1.
         21   -1    0    0  501  502  0.00000000000E+00 -0.00000000000E+00 -0.87242182555E+03  0.87242182555E+03  0.00000000000E+00 0. -1.
         23    2    1    2    0    0  0.32841504640E+03 -0.19335560590E+02 -0.45213974400E+02  0.34423906667E+03  0.90696884910E+02 0.  0.
         24    2    1    2    0    0 -0.21855560445E+03  0.99713584983E+02 -0.52803101036E+03  0.58562052256E+03  0.80157952086E+02 0.  0.
        -11    1    4    4    0    0 -0.46393753800E+02  0.11285328723E+02 -0.46496450881E+02  0.66645772413E+02  0.00000000000E+00 0.  1.
         12    1    4    4    0    0 -0.17216185065E+03  0.88428256260E+02 -0.48153455947E+03  0.51897475015E+03  0.00000000000E+00 0. -1.
        -13    1    3    3    0    0  0.29351745609E+03 -0.10749332907E+02 -0.68265654303E+02  0.30154310595E+03  0.00000000000E+00 0. -1.
         13    1    3    3    0    0  0.34897590317E+02 -0.85862276829E+01  0.23051679904E+02  0.42695960724E+02  0.00000000000E+00 0.  1.
         21    1    1    2  503  502 -0.63980478191E+02  0.65467594480E+01  0.95036820181E+02  0.11475346983E+03  0.00000000000E+00 0.  1.
          1    1    1    2  501    0 -0.45878963760E+02 -0.86924783841E+02 -0.89254859043E+02  0.13276756842E+03  0.00000000000E+00 0. -1.
<scales pt_clust_5="13000.00000" pt_clust_6="13000.00000" pt_clust_7="13000.00000" pt_clust_8="13000.00000" pt_clust_9="64.31455" pt_clust_10="101.11561"></scales>
<clustering>
<clus scale="   64.315">  1  9  2 -1</clus>
<clus scale="   80.158">  5  6 -1 -1</clus>
<clus scale="   90.697">  7  8 -1 -1</clus>
<clus scale="  101.116">  2 10  1 -1</clus>
<clus scale="  283.146">  2  5  1 -1</clus>
<clus scale="  101.116">  2  5  1 -1</clus>
</clustering>
</event>
<event>
10    4  0.2977685E-005  0.1357262E+03  0.7546771E-02  0.1219710E+00
         21   -1    0    0  501  502  0.00000000000E+00  0.00000000000E+00  0.67972126274E+03  0.67972126274E+03  0.00000000000E+00 0. -1.
          4   -1    0    0  503    0 -0.00000000000E+00 -0.00000000000E+00 -0.11098398959E+03  0.11098398959E+03  0.00000000000E+00 0. -1.
         24    2    1    2    0    0  0.36512889629E+02  0.86631794476E+02  0.61401942952E+02  0.14637291844E+03  0.93896611925E+02 0.  0.
         23    2    1    2    0    0 -0.47738558087E+02 -0.15299183354E+03  0.44755827724E+03  0.48416805792E+03  0.91786849441E+02 0.  0.
        -13    1    3    3    0    0  0.38414032879E+02  0.77499315401E+02  0.84832224281E+02  0.12115398502E+03  0.00000000000E+00 0.  1.
         14    1    3    3    0    0 -0.19011432504E+01  0.91324790759E+01 -0.23430281329E+02  0.25218933420E+02  0.00000000000E+00 0. -1.
        -11    1    4    4    0    0 -0.59819140987E+02 -0.85178985212E+02  0.18040693913E+03  0.20827974658E+03  0.00000000000E+00 0.  1.
         11    1    4    4    0    0  0.12080582900E+02 -0.67812848329E+02  0.26715133810E+03  0.27588831134E+03  0.00000000000E+00 0. -1.
         21    1    1    2  503  502  0.22730485593E+02 -0.37595926218E+02  0.15495124777E+02  0.46585700975E+02  0.00000000000E+00 0. -1.
          3    1    1    2  501    0 -0.11504817134E+02  0.10395596528E+03  0.44281928185E+02  0.11357857500E+03  0.00000000000E+00 0. -1.
<scales pt_clust_5="13000.00000" pt_clust_6="13000.00000" pt_clust_7="13000.00000" pt_clust_8="13000.00000" pt_clust_9="43.93323" pt_clust_10="90.36564"></scales>
<clustering>
<clus scale="   43.933">  2  9  1 -1</clus>
<clus scale="   90.366">  1 10  2 -1</clus>
<clus scale="   91.787">  7  8 -1 -1</clus>
<clus scale="   93.897">  5  6 -1 -1</clus>
<clus scale="  134.275">  1  7  2 -1</clus>
<clus scale="   90.366">  1  5  2 -1</clus>
</clustering>
</event>
<event>
10    4  0.2977685E-005  0.1424677E+03  0.7546771E-02  0.1211450E+00
          2   -1    0    0  503    0 -0.00000000000E+00  0.00000000000E+00  0.49195165353E+03  0.49195165353E+03  0.00000000000E+00 0. -1.
         21   -1    0    0  501  502  0.00000000000E+00 -0.00000000000E+00 -0.10185833962E+03  0.10185833962E+03  0.00000000000E+00 0.  1.
         24    2    1    2    0    0  0.10476027973E+03 -0.52356429100E+02  0.27948059131E+03  0.31419520234E+03  0.83025974115E+02 0.  0.
         23    2    1    2    0    0 -0.36073729569E+02  0.95132645503E+02  0.16597089229E+01  0.13574631742E+03  0.89848616323E+02 0.  0.
        -13    1    3    3    0    0  0.31272197374E+00 -0.26779204890E+02  0.20341037391E+02  0.33630067078E+02  0.00000000000E+00 0.  1.
         14    1    3    3    0    0  0.10444755775E+03 -0.25577224210E+02  0.25913955391E+03  0.28056513526E+03  0.00000000000E+00 0. -1.
        -13    1    4    4    0    0  0.20853719220E+02  0.27740605904E+02  0.26989102960E+02  0.43963968200E+02  0.00000000000E+00 0. -1.
         13    1    4    4    0    0 -0.56927448789E+02  0.67392039599E+02 -0.25329394038E+02  0.91782349225E+02  0.00000000000E+00 0.  1.
         21    1    1    2  503  502 -0.36740460283E+02 -0.48872990193E+02  0.65652339994E+02  0.89714326275E+02  0.00000000000E+00 0. -1.
          1    1    1    2  501    0 -0.31946089873E+02  0.60967737904E+01  0.43300673683E+02  0.54154147120E+02  0.00000000000E+00 0. -1.
<scales pt_clust_5="13000.00000" pt_clust_6="13000.00000" pt_clust_7="13000.00000" pt_clust_8="13000.00000" pt_clust_9="63.03502" pt_clust_10="32.52267"></scales>
<clustering>
<clus scale="   32.523">  2 10  1 -1</clus>
<clus scale="   63.035">  1  9  2 -1</clus>
<clus scale="   83.026">  5  6 -1 -1</clus>
<clus scale="   89.849">  7  8 -1 -1</clus>
<clus scale="  138.266">  1  5  2 -1</clus>
<clus scale="   32.523">  2  5  1 -1</clus>
</clustering>
</event>
<event>
10    4  0.2977685E-005  0.1081959E+03  0.7546771E-02  0.1264543E+00
          2   -1    0    0  503    0 -0.00000000000E+00  0.00000000000E+00  0.10045264128E+04  0.10045264128E+04  0.00000000000E+00 0. -1.
         21   -1    0    0  501  502  0.00000000000E+00 -0.00000000000E+00 -0.28965891105E+02  0.28965891105E+02  0.00000000000E+00 0. -1.
         24    2    1    2    0    0 -0.54549828151E+02  0.69837055671E+01  0.55294987241E+03  0.56362951821E+03  0.94340958746E+02 0.  0.
         23    2    1    2    0    0  0.20615869420E+02  0.62041098894E+02  0.22786842231E+03  0.25567059538E+03  0.95756584290E+02 0.  0.
        -13    1    3    3    0    0 -0.18382853520E+02  0.31891642928E+02  0.73794044828E+02  0.82465551864E+02  0.00000000000E+00 0.  1.
         14    1    3    3    0    0 -0.36166974631E+02 -0.24907937360E+02  0.47915582758E+03  0.48116396634E+03  0.00000000000E+00 0. -1.
        -11    1    4    4    0    0  0.30424600791E+02  0.81129691393E+02  0.21186826046E+03  0.22890138258E+03  0.00000000000E+00 0.  1.
         11    1    4    4    0    0 -0.98087313715E+01 -0.19088592499E+02  0.16000161847E+02  0.26769212798E+02  0.00000000000E+00 0. -1.
         21    1    1    2  503  502 -0.32453721080E+01 -0.23873309201E+02  0.99907143733E+02  0.10277112776E+03  0.00000000000E+00 0. -1.
          1    1    1    2  501    0  0.37179330839E+02 -0.45151495260E+02  0.94835083198E+02  0.11142106251E+03  0.00000000000E+00 0. -1.
<scales pt_clust_5="13000.00000" pt_clust_6="13000.00000" pt_clust_7="13000.00000" pt_clust_8="13000.00000" pt_clust_9="24.09289" pt_clust_10="60.39148"></scales>
<clustering>
<clus scale="   24.093">  1  9  2 -1</clus>
<clus scale="   60.391">  2 10  1 -1</clus>
<clus scale="   94.341">  5  6 -1 -1</clus>
<clus scale="   95.757">  7  8 -1 -1</clus>
<clus scale="  106.945">  1  5  2 -1</clus>
<clus scale="   60.391">  2  5  1 -1</clus>
</clustering>
</event>
<event>
10    4  0.2977685E-005  0.1425868E+03  0.7546771E-02  0.1223722E+00
         21   -1    0    0  501  502  0.00000000000E+00  0.00000000000E+00  0.14405916183E+04  0.14405916183E+04  0.00000000000E+00 0. -1.
          2   -1    0    0  503    0 -0.00000000000E+00 -0.00000000000E+00 -0.44791458447E+02  0.44791458447E+02  0.00000000000E+00 0. -1.
         24    2    1    2    0    0  0.21210728352E+02 -0.41260721795E+02  0.88356505592E+02  0.12950796631E+03  0.82541499245E+02 0.  0.
         23    2    1    2    0    0 -0.88257091072E+02 -0.30060643270E+02  0.54552318921E+03  0.56079242639E+03  0.90551858781E+02 0.  0.
        -13    1    3    3    0    0 -0.39592905678E+01  0.23450187354E+02  0.33167668476E+02  0.40812761495E+02  0.00000000000E+00 0.  1.
         14    1    3    3    0    0  0.25170018920E+02 -0.64710909149E+02  0.55188837116E+02  0.88695204817E+02  0.00000000000E+00 0. -1.
        -11    1    4    4    0    0 -0.47106675418E+02  0.30048560017E+02  0.19900286254E+03  0.20669807480E+03  0.00000000000E+00 0.  1.
         11    1    4    4    0    0 -0.41150415654E+02 -0.60109203287E+02  0.34652032667E+03  0.35409435159E+03  0.00000000000E+00 0. -1.
         21    1    1    2  503  502 -0.71128658846E+01 -0.39654516929E+02  0.27850362872E+02  0.48976691253E+02  0.00000000000E+00 0. -1.
          1    1    1    2  501    0  0.74159228605E+02  0.11097588199E+03  0.73407010215E+03  0.74610599276E+03  0.00000000000E+00 0. -1.
<scales pt_clust_5="13000.00000" pt_clust_6="13000.00000" pt_clust_7="13000.00000" pt_clust_8="13000.00000" pt_clust_9="40.28739" pt_clust_10="110.14245"></scales>
<clustering>
<clus scale="   40.287">  2  9  1 -1</clus>
<clus scale="   82.541">  5  6 -1 -1</clus>
<clus scale="   90.552">  7  8 -1 -1</clus>
<clus scale="  106.479">  2  5  1 -1</clus>
<clus scale="  110.142">  1 10  2 -1</clus>
<clus scale="  110.142">  1  5  2 -1</clus>
</clustering>
</event>
<event>
10    4  0.2977685E-005  0.2511401E+03  0.7546771E-02  0.1133798E+00
         -1   -1    0    0    0  501 -0.00000000000E+00  0.00000000000E+00  0.78688200388E+03  0.78688200388E+03  0.00000000000E+00 0.  1.
         21   -1    0    0  503  502  0.00000000000E+00 -0.00000000000E+00 -0.19673490229E+03  0.19673490229E+03  0.00000000000E+00 0.  1.
         24    2    1    2    0    0  0.95069831477E+02  0.89703015303E+02  0.17201287336E+03  0.23047553497E+03  0.80284742061E+02 0.  0.
         23    2    1    2    0    0 -0.12383205845E+03  0.17403368050E+03  0.33855478839E+03  0.41245281000E+03  0.99377437478E+02 0.  0.
        -13    1    3    3    0    0  0.10388351351E+03  0.54955895376E+02  0.13355437537E+03  0.17790083191E+03  0.00000000000E+00 0.  1.
         14    1    3    3    0    0 -0.88136820291E+01  0.34747119927E+02  0.38458497986E+02  0.52574703056E+02  0.00000000000E+00 0. -1.
        -13    1    4    4    0    0 -0.61741337597E+02  0.10613997577E+03  0.27341720150E+03  0.29972429548E+03  0.00000000000E+00 0. -1.
         13    1    4    4    0    0 -0.62090720855E+02  0.67893704730E+02  0.65137586891E+02  0.11272851451E+03  0.00000000000E+00 0.  1.
         21    1    1    2  503  501 -0.58716847958E+01 -0.24795580145E+02  0.95388620588E+02  0.98733410833E+02  0.00000000000E+00 0.  1.
         -2    1    1    2    0  502  0.34633911770E+02 -0.23894111566E+03 -0.15809180753E+02  0.24195515037E+03  0.00000000000E+00 0.  1.
<scales pt_clust_5="13000.00000" pt_clust_6="13000.00000" pt_clust_7="13000.00000" pt_clust_8="13000.00000" pt_clust_9="25.48132" pt_clust_10="230.64143"></scales>
<clustering>
<clus scale="   25.481">  1  9  2 -1</clus>
<clus scale="   80.285">  5  6 -1 -1</clus>
<clus scale="   99.377">  7  8 -1 -1</clus>
<clus scale="  148.197">  1  5  2 -1</clus>
<clus scale="  230.641">  2 10  1 -1</clus>
<clus scale="  230.641">  2  5  1 -1</clus>
</clustering>
</event>
<event>
10    4  0.2977685E-005  0.2255465E+03  0.7546771E-02  0.1129814E+00
          4   -1    0    0  503    0 -0.00000000000E+00  0.00000000000E+00  0.19002069069E+03  0.19002069069E+03  0.00000000000E+00 0. -1.
         21   -1    0    0  501  502  0.00000000000E+00 -0.00000000000E+00 -0.34475854321E+03  0.34475854321E+03  0.00000000000E+00 0. -1.
         24    2    1    2    0    0 -0.35754138822E+02 -0.77222764333E+02  0.22610256450E+00  0.11708126757E+03  0.80413048187E+02 0.  0.
         23    2    1    2    0    0 -0.77049979501E-01 -0.11880886453E+02 -0.18537988450E+02  0.96505020188E+02  0.93959568465E+02 0.  0.
        -13    1    3    3    0    0  0.24103817702E+02 -0.39531224364E+02 -0.14887427884E+01  0.46324163054E+02  0.00000000000E+00 0.  1.
         14    1    3    3    0    0 -0.59857956525E+02 -0.37691539969E+02  0.17148453529E+01  0.70757104513E+02  0.00000000000E+00 0. -1.
        -13    1    4    4    0    0 -0.12889466708E+02  0.23175071950E+02  0.26852484756E+02  0.37739611146E+02  0.00000000000E+00 0.  1.
         13    1    4    4    0    0  0.12812416728E+02 -0.35055958403E+02 -0.45390473206E+02  0.58765409042E+02  0.00000000000E+00 0. -1.
         21    1    1    2  503  502  0.18692872570E+02 -0.36650145041E+02  0.68642270223E+02  0.80027606973E+02  0.00000000000E+00 0. -1.
          3    1    1    2  501    0  0.17138316232E+02  0.12575379583E+03 -0.20506823686E+03  0.24116533917E+03  0.00000000000E+00 0. -1.
<scales pt_clust_5="13000.00000" pt_clust_6="13000.00000" pt_clust_7="13000.00000" pt_clust_8="13000.00000" pt_clust_9="41.14191" pt_clust_10="121.69963"></scales>
<clustering>
<clus scale="   41.142">  1  9  2 -1</clus>
<clus scale="   80.413">  5  6 -1 -1</clus>
<clus scale="   93.960">  7  8 -1 -1</clus>
<clus scale="   95.578">  5  7 -1 -1</clus>
<clus scale="  121.700">  2 10  1 -1</clus>
<clus scale="  121.700">  2  5  1 -1</clus>
</clustering>
</event>
<event>
10    4  0.2977685E-005  0.1190375E+03  0.7546771E-02  0.1248667E+00
         21   -1    0    0  501  502  0.00000000000E+00  0.00000000000E+00  0.12499580093E+03  0.12499580093E+03  0.00000000000E+00 0. -1.
          2   -1    0    0  503    0 -0.00000000000E+00 -0.00000000000E+00 -0.27367579235E+03  0.27367579235E+03  0.00000000000E+00 0. -1.
         23    2    1    2    0    0  0.10080991484E+02  0.47213566705E+02 -0.16295118036E+03  0.19316547147E+03  0.91809939101E+02 0.  0.
         24    2    1    2    0    0 -0.27309064177E+02 -0.88150664340E+02  0.31622648999E+02  0.12591474723E+03  0.79612857192E+02 0.  0.
        -13    1    4    4    0    0 -0.13129097546E+02 -0.47714123858E+02 -0.24567358056E+02  0.55250030768E+02  0.00000000000E+00 0.  1.
         14    1    4    4    0    0 -0.14179966631E+02 -0.40436540482E+02  0.56190007055E+02  0.70664716462E+02  0.00000000000E+00 0. -1.
        -13    1    3    3    0    0 -0.90532551524E+01  0.71202532590E+02 -0.12718184681E+03  0.14603761239E+03  0.00000000000E+00 0.  1.
         13    1    3    3    0    0  0.19134246637E+02 -0.23988965884E+02 -0.35769333550E+02  0.47127859077E+02  0.00000000000E+00 0. -1.
         21    1    1    2  503  502  0.34193227468E+02  0.20719941417E+02 -0.30327075749E+02  0.50181912084E+02  0.00000000000E+00 0. -1.
          1    1    1    2  501    0 -0.16965154775E+02  0.20217156218E+02  0.12975615679E+02  0.29409462496E+02  0.00000000000E+00 0. -1.
<scales pt_clust_5="13000.00000" pt_clust_6="13000.00000" pt_clust_7="13000.00000" pt_clust_8="13000.00000" pt_clust_9="39.67406" pt_clust_10="26.39223"></scales>
<clustering>
<clus scale="   26.392">  1 10  2 -1</clus>
<clus scale="   39.674">  2  9  1 -1</clus>
<clus scale="   79.613">  5  6 -1 -1</clus>
<clus scale="   91.810">  7  8 -1 -1</clus>
<clus scale="  109.905">  1  5  2 -1</clus>
<clus scale="   26.392">  1  5  2 -1</clus>
</clustering>
</event>
<event>
10    4  0.2977685E-005  0.1531952E+03  0.7546771E-02  0.1219870E+00
         -1   -1    0    0    0  501 -0.00000000000E+00  0.00000000000E+00  0.47120501273E+03  0.47120501273E+03  0.00000000000E+00 0.  1.
         21   -1    0    0  501  502  0.00000000000E+00 -0.00000000000E+00 -0.10460803187E+03  0.10460803187E+03  0.00000000000E+00 0. -1.
         23    2    1    2    0    0 -0.13411022155E+02 -0.19865216900E+02  0.20555734293E+03  0.22564350637E+03  0.89926016133E+02 0.  0.
         24    2    1    2    0    0 -0.87516372532E+02  0.95435251436E+02  0.16045529625E+02  0.15538972873E+03  0.84389016436E+02 0.  0.
        -13    1    4    4    0    0 -0.54464838268E+01  0.48942462175E+02  0.33372386023E+02  0.59487351082E+02  0.00000000000E+00 0.  1.
         14    1    4    4    0    0 -0.82069888706E+02  0.46492789260E+02 -0.17326856398E+02  0.95902377645E+02  0.00000000000E+00 0. -1.
        -11    1    3    3    0    0 -0.44193217460E+02  0.14624478943E+02  0.94284138283E+02  0.10514948685E+03  0.00000000000E+00 0. -1.
         11    1    3    3    0    0  0.30782195305E+02 -0.34489695843E+02  0.11127320464E+03  0.12049401952E+03  0.00000000000E+00 0.  1.
         21    1    1    2  503  502  0.24075741312E+02 -0.35456514480E+02  0.56292076655E+02  0.70750290691E+02  0.00000000000E+00 0.  1.
         -2    1    1    2    0  503  0.76851653375E+02 -0.40113520056E+02  0.88702031655E+02  0.12402951881E+03  0.00000000000E+00 0.  1.
<scales pt_clust_5="13000.00000" pt_clust_6="13000.00000" pt_clust_7="13000.00000" pt_clust_8="13000.00000" pt_clust_9="22.44170" pt_clust_10="131.78007"></scales>
<clustering>
<clus scale="   22.442">  9 10 -1 -1</clus>
<clus scale="   84.389">  5  6 -1 -1</clus>
<clus scale="   89.926">  7  8 -1 -1</clus>
<clus scale="   93.065">  1  7  2 -1</clus>
<clus scale="  131.780">  2  9  1 -1</clus>
<clus scale="  131.780">  2  5  1 -1</clus>
</clustering>
</event>
<event>
10    4  0.2977685E-005  0.1736244E+03  0.7546771E-02  0.1201634E+00
          2   -1    0    0  503    0 -0.00000000000E+00  0.00000000000E+00  0.23073547335E+04  0.23073547335E+04  0.00000000000E+00 0. -1.
         21   -1    0    0  501  502  0.00000000000E+00 -0.00000000000E+00 -0.32586869123E+02  0.32586869123E+02  0.00000000000E+00 0. -1.
         23    2    1    2    0    0  0.35347371356E+02 -0.15168230560E+02  0.27029789013E+03  0.28671360939E+03  0.87545602530E+02 0.  0.
         24    2    1    2    0    0  0.34230985240E+01 -0.14755391554E+03  0.15587769543E+04  0.15677998976E+04  0.80168884648E+02 0.  0.
        -13    1    4    4    0    0 -0.24386543416E+02 -0.26259345574E+02  0.18793358695E+03  0.19131986262E+03  0.00000000000E+00 0.  1.
         14    1    4    4    0    0  0.27809641940E+02 -0.12129456996E+03  0.13708433674E+04  0.13764800350E+04  0.00000000000E+00 0. -1.
        -11    1    3    3    0    0  0.39401959250E+02  0.27146271092E+02  0.18912643401E+03  0.19508521848E+03  0.00000000000E+00 0.  1.
         11    1    3    3    0    0 -0.40545878941E+01 -0.42314501652E+02  0.81171456112E+02  0.91628390908E+02  0.00000000000E+00 0. -1.
         21    1    1    2  503  502 -0.25061318277E+02  0.79381396776E+01  0.14066698930E+03  0.14310236061E+03  0.00000000000E+00 0. -1.
          1    1    1    2  501    0 -0.13709151603E+02  0.15478400642E+03  0.30502603066E+03  0.34232573502E+03  0.00000000000E+00 0. -1.
<scales pt_clust_5="13000.00000" pt_clust_6="13000.00000" pt_clust_7="13000.00000" pt_clust_8="13000.00000" pt_clust_9="26.28847" pt_clust_10="154.00772"></scales>
<clustering>
<clus scale="   26.288">  1  9  2 -1</clus>
<clus scale="   80.169">  5  6 -1 -1</clus>
<clus scale="   87.546">  7  8 -1 -1</clus>
<clus scale="   94.320">  1  7  2 -1</clus>
<clus scale="  154.008">  2 10  1 -1</clus>
<clus scale="  154.008">  2  5  1 -1</clus>
</clustering>
</event>
<event>
10    4  0.2977685E-005  0.2163517E+03  0.7546771E-02  0.1137399E+00
         21   -1    0    0  501  502  0.00000000000E+00  0.00000000000E+00  0.59715204762E+03  0.59715204762E+03  0.00000000000E+00 0.  1.
          2   -1    0    0  503    0 -0.00000000000E+00 -0.00000000000E+00 -0.12890774219E+03  0.12890774219E+03  0.00000000000E+00 0. -1.
         23    2    1    2    0    0 -0.16311511457E+03  0.35288636732E+02  0.15541104152E+03  0.24550661915E+03  0.90934480476E+02 0.  0.
         24    2    1    2    0    0  0.19952233878E+03 -0.12668467000E+03  0.21437768196E+03  0.32920593833E+03  0.80997469261E+02 0.  0.
        -11    1    4    4    0    0  0.28692692435E+02 -0.15111737565E+02  0.76114566454E+02  0.82734892506E+02  0.00000000000E+00 0.  1.
         12    1    4    4    0    0  0.17082964634E+03 -0.11157293243E+03  0.13826311550E+03  0.24647104583E+03  0.00000000000E+00 0. -1.
        -11    1    3    3    0    0 -0.10505000319E+03 -0.88041263242E+01  0.13200441977E+03  0.16893247956E+03  0.00000000000E+00 0.  1.
         11    1    3    3    0    0 -0.58065111372E+02  0.44092763057E+02  0.23406621748E+02  0.76574139592E+02  0.00000000000E+00 0. -1.
         21    1    1    2  503  502 -0.34560363342E+02  0.13642311124E+02  0.30712651923E+02  0.48205791720E+02  0.00000000000E+00 0.  1.
          1    1    1    2  501    0 -0.18468608706E+01  0.77753722143E+02  0.67742930027E+02  0.10314144061E+03  0.00000000000E+00 0. -1.
<scales pt_clust_5="13000.00000" pt_clust_6="13000.00000" pt_clust_7="13000.00000" pt_clust_8="13000.00000" pt_clust_9="37.15550" pt_clust_10="80.06431"></scales>
<clustering>
<clus scale="   37.156">  2  9  1 -1</clus>
<clus scale="   80.064">  1 10  2 -1</clus>
<clus scale="   80.997">  5  6 -1 -1</clus>
<clus scale="   90.934">  7  8 -1 -1</clus>
<clus scale="  212.367">  1  5  2 -1</clus>
<clus scale="   80.064">  1  5  2 -1</clus>
</clustering>
</event>
<event>
10    4  0.2977685E-005  0.1390460E+03  0.7546771E-02  0.1231391E+00
          2   -1    0    0  502    0 -0.00000000000E+00  0.00000000000E+00  0.13753722268E+03  0.13753722268E+03  0.00000000000E+00 0. -1.
         21   -1    0    0  503  502  0.00000000000E+00 -0.00000000000E+00 -0.37484813185E+03  0.37484813185E+03  0.00000000000E+00 0.  1.
         23    2    1    2    0    0 -0.75752455399E+00 -0.33225524637E+02 -0.95392250275E+02  0.13585529925E+03  0.90843115268E+02 0.  0.
         24    2    1    2    0    0 -0.72420896041E+02 -0.48609142212E+02  0.48617450297E+02  0.12838271647E+03  0.80689717587E+02 0.  0.
        -11    1    4    4    0    0 -0.85112056768E+01  0.21988474893E+02  0.88555066149E+01  0.25186378215E+02  0.00000000000E+00 0.  1.
         12    1    4    4    0    0 -0.63909690364E+02 -0.70597617105E+02  0.39761943682E+02  0.10319633825E+03  0.00000000000E+00 0. -1.
        -13    1    3    3    0    0 -0.28307442850E+02  0.20812327814E+02 -0.26117739614E+02  0.43778997616E+02  0.00000000000E+00 0. -1.
         13    1    3    3    0    0  0.27549918296E+02 -0.54037852451E+02 -0.69274510661E+02  0.92076301636E+02  0.00000000000E+00 0.  1.
         21    1    1    2  503  501 -0.23228832450E+02 -0.73994211260E+01 -0.14051541911E+02  0.28138513110E+02  0.00000000000E+00 0.  1.
          1    1    1    2  501    0  0.96407253045E+02  0.89234087975E+02 -0.17648456728E+03  0.22000882570E+03  0.00000000000E+00 0. -1.
<scales pt_clust_5="13000.00000" pt_clust_6="13000.00000" pt_clust_7="13000.00000" pt_clust_8="13000.00000" pt_clust_9="24.37889" pt_clust_10="113.23857"></scales>
<clustering>
<clus scale="   24.379">  2  9  1 -1</clus>
<clus scale="   80.690">  5  6 -1 -1</clus>
<clus scale="   90.843">  7  8 -1 -1</clus>
<clus scale="   97.942">  1  7  2 -1</clus>
<clus scale="  113.239">  2 10  1 -1</clus>
<clus scale="   24.379">  2  5  1 -1</clus>
</clustering>
</event>
<event>
10    4  0.2977685E-005  0.9509100E+02  0.7546771E-02  0.1304638E+00
          4   -1    0    0  503    0 -0.00000000000E+00  0.00000000000E+00  0.99109029605E+02  0.99109029605E+02  0.00000000000E+00 0. -1.
         21   -1    0    0  501  502  0.00000000000E+00 -0.00000000000E+00 -0.33876464362E+03  0.33876464362E+03  0.00000000000E+00 0. -1.
         24    2    1    2    0    0 -0.18814444425E+02  0.42022909778E+00  0.40138729096E+02  0.82639907460E+02  0.69742933836E+02 0.  0.
         23    2    1    2    0    0  0.40783548020E+02 -0.18644454388E+02 -0.16584418876E+03  0.19485446051E+03  0.91940482738E+02 0.  0.
        -13    1    3    3    0    0  0.22514090494E+02 -0.70458192133E+01 -0.13179851239E+01  0.23627630519E+02  0.00000000000E+00 0.  1.
         14    1    3    3    0    0 -0.41328534919E+02  0.74660483110E+01  0.41456714220E+02  0.59012276942E+02  0.00000000000E+00 0. -1.
        -13    1    4    4    0    0  0.24301458426E+01  0.35668608130E+02 -0.60992447148E+02  0.70698188264E+02  0.00000000000E+00 0.  1.
         13    1    4    4    0    0  0.38353402177E+02 -0.54313062517E+02 -0.10485174162E+03  0.12415627225E+03  0.00000000000E+00 0. -1.
         21    1    1    2  503  502  0.50778829277E+01  0.19811289332E+02  0.17037752442E+02  0.26618735663E+02  0.00000000000E+00 0. -1.
          3    1    1    2  501    0 -0.27046986522E+02 -0.15870640423E+01 -0.13098790679E+03  0.13376056959E+03  0.00000000000E+00 0. -1.
<scales pt_clust_5="13000.00000" pt_clust_6="13000.00000" pt_clust_7="13000.00000" pt_clust_8="13000.00000" pt_clust_9="20.45170" pt_clust_10="26.98402"></scales>
<clustering>
<clus scale="   20.452">  1  9  2 -1</clus>
<clus scale="   26.984">  2 10  1 -1</clus>
<clus scale="   69.743">  5  6 -1 -1</clus>
<clus scale="   73.847">  1  5  2 -1</clus>
<clus scale="   91.940">  7  8 -1 -1</clus>
<clus scale="   26.984">  2  5  1 -1</clus>
</clustering>
</event>
<event>
10    4  0.2977685E-005  0.1551231E+03  0.7546771E-02  0.1195995E+00
         -3   -1    0    0    0  501 -0.00000000000E+00  0.00000000000E+00  0.22436776197E+03  0.22436776197E+03  0.00000000000E+00 0.  1.
         21   -1    0    0  503  502  0.00000000000E+00 -0.00000000000E+00 -0.38128006791E+03  0.38128006791E+03  0.00000000000E+00 0.  1.
         23    2    1    2    0    0 -0.13327504826E+03 -0.15047320102E+02 -0.59634518115E+02  0.17251440994E+03  0.90643728728E+02 0.  0.
         24    2    1    2    0    0  0.98268384643E+02 -0.28168492513E+02 -0.21814384171E+03  0.25405941802E+03  0.80680312452E+02 0.  0.
        -11    1    4    4    0    0  0.98568912524E+02 -0.29876277534E+02 -0.12980626852E+03  0.16570482739E+03  0.00000000000E+00 0.  1.
         12    1    4    4    0    0 -0.30052788179E+00  0.17077850214E+01 -0.88337573195E+02  0.88354590626E+02  0.00000000000E+00 0. -1.
        -11    1    3    3    0    0 -0.83336774072E+02 -0.21194746172E+02 -0.80737929335E+02  0.11795273804E+03  0.00000000000E+00 0. -1.
         11    1    3    3    0    0 -0.49938274185E+02  0.61474260695E+01  0.21103411220E+02  0.54561671904E+02  0.00000000000E+00 0.  1.
         21    1    1    2  503  501 -0.35793628986E+02  0.33250125714E+02  0.14591342688E+02  0.50986880837E+02  0.00000000000E+00 0.  1.
         -4    1    1    2    0  502  0.70800292601E+02  0.99656869017E+01  0.10627471119E+03  0.12808712108E+03  0.00000000000E+00 0.  1.
<scales pt_clust_5="13000.00000" pt_clust_6="13000.00000" pt_clust_7="13000.00000" pt_clust_8="13000.00000" pt_clust_9="48.85442" pt_clust_10="57.53412"></scales>
<clustering>
<clus scale="   48.854">  1  9  2 -1</clus>
<clus scale="   57.534">  2 10  1 -1</clus>
<clus scale="   80.680">  5  6 -1 -1</clus>
<clus scale="   90.644">  7  8 -1 -1</clus>
<clus scale="  149.520">  2  5  1 -1</clus>
<clus scale="   57.534">  2  5  1 -1</clus>
</clustering>
</event>
<event>
10    4  0.2977685E-005  0.1986298E+03  0.7546771E-02  0.1151811E+00
         21   -1    0    0  503  502  0.00000000000E+00  0.00000000000E+00  0.99050117116E+02  0.99050117116E+02  0.00000000000E+00 0.  1.
         -1   -1    0    0    0  501 -0.00000000000E+00 -0.00000000000E+00 -0.12586202541E+04  0.12586202541E+04  0.00000000000E+00 0.  1.
         23    2    1    2    0    0  0.17146113123E+03  0.98037061513E+02 -0.37199034878E+03  0.42864785904E+03  0.79699325738E+02 0.  0.
         24    2    1    2    0    0 -0.15201568080E+03  0.21570868141E+02 -0.12814069787E+03  0.21910923848E+03  0.89525138236E+02 0.  0.
        -13    1    4    4    0    0 -0.15085585756E+03  0.11099866356E+01 -0.12914931917E+03  0.19859070591E+03  0.00000000000E+00 0.  1.
         14    1    4    4    0    0 -0.11598232325E+01  0.20460881506E+02  0.10086212990E+01  0.20518532570E+02  0.00000000000E+00 0. -1.
        -11    1    3    3    0    0  0.11581015754E+03  0.90611287406E+02 -0.31982780424E+03  0.35201167930E+03  0.00000000000E+00 0.  1.
         11    1    3    3    0    0  0.55650973683E+02  0.74257741070E+01 -0.52162544538E+02  0.76636179743E+02  0.00000000000E+00 0. -1.
         21    1    1    2  503  501  0.74276592624E+02  0.22668145574E+02 -0.33014957682E+03  0.33916013933E+03  0.00000000000E+00 0. -1.
         -2    1    1    2    0  502 -0.93722043054E+02 -0.14227607523E+03 -0.32928951356E+03  0.37075313441E+03  0.00000000000E+00 0.  1.
<scales pt_clust_5="13000.00000" pt_clust_6="13000.00000" pt_clust_7="13000.00000" pt_clust_8="13000.00000" pt_clust_9="77.65859" pt_clust_10="148.90940"></scales>
<clustering>
<clus scale="   77.659">  2  9  1 -1</clus>
<clus scale="   79.699">  7  8 -1 -1</clus>
<clus scale="   89.525">  5  6 -1 -1</clus>
<clus scale="  148.909">  1 10  2 -1</clus>
<clus scale="  194.399">  2  7  1 -1</clus>
<clus scale="  148.909">  1  5  2 -1</clus>
</clustering>
</event>
<event>
10    4  0.2977685E-005  0.1068499E+03  0.7546771E-02  0.1272869E+00
          2   -1    0    0  503    0 -0.00000000000E+00  0.00000000000E+00  0.55978751785E+03  0.55978751785E+03  0.00000000000E+00 0. -1.
         21   -1    0    0  501  502  0.00000000000E+00 -0.00000000000E+00 -0.59959606552E+02  0.59959606552E+02  0.00000000000E+00 0. -1.
         24    2    1    2    0    0 -0.36297973716E+02 -0.17224555872E+02  0.26951445425E+03  0.28400265972E+03  0.80032752429E+02 0.  0.
         23    2    1    2    0    0  0.84019647300E+02  0.46339528889E+01  0.87419779775E+02  0.15367543405E+03  0.94303480754E+02 0.  0.
        -13    1    3    3    0    0 -0.57674309289E+02 -0.28912432105E+02  0.21025651780E+03  0.21993193938E+03  0.00000000000E+00 0.  1.
         14    1    3    3    0    0  0.21376335573E+02  0.11687876233E+02  0.59257936445E+02  0.64070720341E+02  0.00000000000E+00 0. -1.
        -13    1    4    4    0    0 -0.15866370522E+02 -0.16138449984E+02  0.67623943683E+01  0.23620356877E+02  0.00000000000E+00 0.  1.
         13    1    4    4    0    0  0.99886017822E+02  0.20772402872E+02  0.80657385407E+02  0.13005507717E+03  0.00000000000E+00 0. -1.
         21    1    1    2  503  502 -0.56493034215E+01  0.43790902425E+02  0.11399416939E+03  0.12224658858E+03  0.00000000000E+00 0.  1.
          1    1    1    2  501    0 -0.42072370163E+02 -0.31200299442E+02  0.28899507881E+02  0.59822442045E+02  0.00000000000E+00 0. -1.
<scales pt_clust_5="13000.00000" pt_clust_6="13000.00000" pt_clust_7="13000.00000" pt_clust_8="13000.00000" pt_clust_9="44.15380" pt_clust_10="50.36363"></scales>
<clustering>
<clus scale="   44.154">  1  9  2 -1</clus>
<clus scale="   50.364">  2 10  1 -1</clus>
<clus scale="   80.033">  5  6 -1 -1</clus>
<clus scale="   94.303">  7  8 -1 -1</clus>
<clus scale="   94.493">  1  5  2 -1</clus>
<clus scale="   50.364">  2  5  1 -1</clus>
</clustering>
</event>
<event>
10    4  0.2977685E-005  0.1806565E+03  0.7546771E-02  0.1186667E+00
         21   -1    0    0  501  502  0.00000000000E+00  0.00000000000E+00  0.27904208609E+03  0.27904208609E+03  0.00000000000E+00 0.  1.
          4   -1    0    0  503    0 -0.00000000000E+00 -0.00000000000E+00 -0.24239205110E+03  0.24239205110E+03  0.00000000000E+00 0. -1.
         23    2    1    2    0    0  0.18364981458E+02 -0.60245316307E+02 -0.31366735130E+02  0.11451360891E+03  0.90347793959E+02 0.  0.
         24    2    1    2    0    0 -0.14901325803E+03 -0.40266697115E+02  0.56990449362E+02  0.18354052856E+03  0.81319470861E+02 0.  0.
        -13    1    4    4    0    0 -0.12407905565E+03 -0.53703862553E+02  0.70139241776E+02  0.15231293491E+03  0.00000000000E+00 0.  1.
         14    1    4    4    0    0 -0.24934202374E+02  0.13437165438E+02 -0.13148792414E+02  0.31227593647E+02  0.00000000000E+00 0. -1.
        -13    1    3    3    0    0  0.37705232559E+02 -0.18064790982E+02  0.19091790292E+02  0.45962133242E+02  0.00000000000E+00 0. -1.
         13    1    3    3    0    0 -0.19340251101E+02 -0.42180525324E+02 -0.50458525421E+02  0.68551475673E+02  0.00000000000E+00 0.  1.
         21    1    1    2  503  502  0.29156581499E+01 -0.30075951362E+02 -0.22479038386E+02  0.37661267631E+02  0.00000000000E+00 0.  1.
          3    1    1    2  501    0  0.12773261842E+03  0.13058796478E+03  0.33505359145E+02  0.18571873208E+03  0.00000000000E+00 0. -1.
<scales pt_clust_5="13000.00000" pt_clust_6="13000.00000" pt_clust_7="13000.00000" pt_clust_8="13000.00000" pt_clust_9="30.21695" pt_clust_10="161.31932"></scales>
<clustering>
<clus scale="   30.217">  2  9  1 -1</clus>
<clus scale="   81.319">  5  6 -1 -1</clus>
<clus scale="   90.348">  7  8 -1 -1</clus>
<clus scale="  116.271">  2  7  1 -1</clus>
<clus scale="  161.319">  1 10  2 -1</clus>
<clus scale="  161.319">  1  5  2 -1</clus>
</clustering>
</event>
<event>
10    4  0.1021213E-004  0.1403447E+03  0.7546771E-02  0.1215035E+00
         21   -1    0    0  503  502  0.00000000000E+00  0.00000000000E+00  0.81562837512E+03  0.81562837512E+03  0.00000000000E+00 0.  1.
         -1   -1    0    0    0  501 -0.00000000000E+00 -0.00000000000E+00 -0.26620996899E+03  0.26620996899E+03  0.00000000000E+00 0.  1.
         24    2    1    2    0    0 -0.27084802487E+02 -0.10088245186E+03 -0.21721931633E+03  0.25285497357E+03  0.76423495409E+02 0.  0.
         23    2    1    2    0    0  0.64469524375E+02  0.42756228762E+02  0.26222347500E+03  0.28691001672E+03  0.87016045545E+02 0.  0.
        -13    1    3    3    0    0 -0.47823881487E+02 -0.96726319185E+02 -0.18831234382E+03  0.21703604147E+03  0.00000000000E+00 0.  1.
         14    1    3    3    0    0  0.20739079000E+02 -0.41561326797E+01 -0.28906972517E+02  0.35818932099E+02  0.00000000000E+00 0. -1.
        -13    1    4    4    0    0 -0.10462238848E+02  0.35957364834E+02  0.12405216654E+03  0.12958136653E+03  0.00000000000E+00 0. -1.
         13    1    4    4    0    0  0.74931763223E+02  0.67988639283E+01  0.13817130846E+03  0.15732865019E+03  0.00000000000E+00 0.  1.
         21    1    1    2  503  501  0.21449744158E+02 -0.17781957922E+02 -0.73892000457E+00  0.27871769853E+02  0.00000000000E+00 0.  1.
         -2    1    1    2    0  502 -0.58834466046E+02  0.75908181024E+02  0.50515316748E+03  0.51420158397E+03  0.00000000000E+00 0.  1.
<scales pt_clust_5="13000.00000" pt_clust_6="13000.00000" pt_clust_7="13000.00000" pt_clust_8="13000.00000" pt_clust_9="27.86197" pt_clust_10="95.55094"></scales>
<clustering>
<clus scale="   27.862">  2  9  1 -1</clus>
<clus scale="   76.423">  5  6 -1 -1</clus>
<clus scale="   87.016">  7  8 -1 -1</clus>
<clus scale="   95.551">  1 10  2 -1</clus>
<clus scale="  134.035">  2  5  1 -1</clus>
<clus scale="   95.551">  1  5  2 -1</clus>
</clustering>
</event>
<event>
10    4  0.2977685E-005  0.9554643E+02  0.7546771E-02  0.1295924E+00
          2   -1    0    0  503    0 -0.00000000000E+00  0.00000000000E+00  0.21734329365E+03  0.21734329365E+03  0.00000000000E+00 0. -1.
         21   -1    0    0  501  502  0.00000000000E+00 -0.00000000000E+00 -0.12647556327E+03  0.12647556327E+03  0.00000000000E+00 0. -1.
         24    2    1    2    0    0  0.53503077584E+01 -0.19847905572E+02  0.84211756785E+01  0.83016416631E+02  0.79989024758E+02 0.  0.
         23    2    1    2    0    0  0.20500793685E+02  0.46827073031E+02  0.12594252323E+02  0.10484620455E+03  0.90670028715E+02 0.  0.
        -13    1    3    3    0    0 -0.37095959636E+02 -0.88337237407E+01  0.89156255541E+01  0.39161630143E+02  0.00000000000E+00 0.  1.
         14    1    3    3    0    0  0.42446267395E+02 -0.11014181831E+02 -0.49444987553E+00  0.43854786487E+02  0.00000000000E+00 0. -1.
        -13    1    4    4    0    0  0.23608454932E+02  0.71010343666E+02  0.23072113780E+02  0.78308048668E+02  0.00000000000E+00 0. -1.
         13    1    4    4    0    0 -0.31076612471E+01 -0.24183270635E+02 -0.10477861457E+02  0.26538155885E+02  0.00000000000E+00 0.  1.
         21    1    1    2  503  502  0.10925018308E+02  0.50216320824E+02  0.40899277094E+02  0.65679416630E+02  0.00000000000E+00 0.  1.
          1    1    1    2  501    0 -0.36776119752E+02 -0.77195488283E+02  0.28953025289E+02  0.90276819110E+02  0.00000000000E+00 0. -1.
<scales pt_clust_5="13000.00000" pt_clust_6="13000.00000" pt_clust_7="13000.00000" pt_clust_8="13000.00000" pt_clust_9="51.39100" pt_clust_10="67.46157"></scales>
<clustering>
<clus scale="   51.391">  1  9  2 -1</clus>
<clus scale="   67.462">  2 10  1 -1</clus>
<clus scale="   79.989">  5  6 -1 -1</clus>
<clus scale="   85.477">  1  5  2 -1</clus>
<clus scale="   90.670">  7  8 -1 -1</clus>
<clus scale="   67.462">  2  5  1 -1</clus>
</clustering>
</event>
<event>
10    4  0.2977685E-005  0.1555975E+03  0.7546771E-02  0.1210191E+00
          2   -1    0    0  503    0 -0.00000000000E+00  0.00000000000E+00  0.34952615276E+03  0.34952615276E+03  0.00000000000E+00 0. -1.
         21   -1    0    0  501  502  0.00000000000E+00 -0.00000000000E+00 -0.22001136620E+03  0.22001136620E+03  0.00000000000E+00 0. -1.
         24    2    1    2    0    0 -0.63200511532E+02 -0.42179638022E+02 -0.13582918295E+02  0.10587649736E+03  0.72470066246E+02 0.  0.
         23    2    1    2    0    0  0.12830000913E+03  0.15644578945E+03  0.10521679043E+03  0.24532426107E+03  0.90428107947E+02 0.  0.
        -11    1    3    3    0    0 -0.30843161257E+02 -0.43066126315E+02  0.22367769263E+02  0.57500512467E+02  0.00000000000E+00 0.  1.
         12    1    3    3    0    0 -0.32357350275E+02  0.88648829365E+00 -0.35950687557E+02  0.48375984891E+02  0.00000000000E+00 0. -1.
        -13    1    4    4    0    0  0.12912476330E+03  0.95392008770E+02  0.77575780228E+02  0.17829986403E+03  0.00000000000E+00 0. -1.
         13    1    4    4    0    0 -0.82475417715E+00  0.61053780677E+02  0.27641010197E+02  0.67024397044E+02  0.00000000000E+00 0.  1.
         21    1    1    2  503  502 -0.32632346178E+02 -0.58530955424E+01  0.88392731836E+02  0.94405528365E+02  0.00000000000E+00 0.  1.
          1    1    1    2  501    0 -0.32467151416E+02 -0.10841305588E+03 -0.50511817407E+02  0.12393123216E+03  0.00000000000E+00 0. -1.
<scales pt_clust_5="13000.00000" pt_clust_6="13000.00000" pt_clust_7="13000.00000" pt_clust_8="13000.00000" pt_clust_9="33.15311" pt_clust_10="126.62281"></scales>
<clustering>
<clus scale="   33.153">  1  9  2 -1</clus>
<clus scale="   72.470">  5  6 -1 -1</clus>
<clus scale="   90.428">  7  8 -1 -1</clus>
<clus scale="  109.024">  1  5  2 -1</clus>
<clus scale="  126.623">  2 10  1 -1</clus>
<clus scale="  126.623">  2  5  1 -1</clus>
</clustering>
</event>
<event>
10    4  0.2977685E-005  0.1762290E+03  0.7546771E-02  0.1173232E+00
         21   -1    0    0  501  502  0.00000000000E+00  0.00000000000E+00  0.14266921287E+03  0.14266921287E+03  0.00000000000E+00 0.  1.
          2   -1    0    0  503    0 -0.00000000000E+00 -0.00000000000E+00 -0.42311017781E+03  0.42311017781E+03  0.00000000000E+00 0. -1.
         24    2    1    2    0    0  0.13960336969E+03 -0.27828636894E+02 -0.88615788422E+02  0.18542549029E+03  0.79160094941E+02 0.  0.
         23    2    1    2    0    0 -0.15353715927E+03  0.11337009196E+02 -0.16280990326E+03  0.24254372147E+03  0.92834288771E+02 0.  0.
        -13    1    3    3    0    0  0.39922305392E+02 -0.11857684757E+02  0.11544181412E+02  0.43216470009E+02  0.00000000000E+00 0.  1.
         14    1    3    3    0    0  0.99681064296E+02 -0.15970952138E+02 -0.10015996983E+03  0.14220902028E+03  0.00000000000E+00 0. -1.
        -13    1    4    4    0    0 -0.13709968345E+03 -0.19258744698E+02 -0.10004663290E+03  0.17081144928E+03  0.00000000000E+00 0.  1.
         13    1    4    4    0    0 -0.16437475815E+02  0.30595753894E+02 -0.62763270359E+02  0.71732272191E+02  0.00000000000E+00 0. -1.
         21    1    1    2  503  502 -0.23168076401E+02  0.17157671727E+02 -0.74045688009E+02  0.79460111855E+02  0.00000000000E+00 0.  1.
          1    1    1    2  501    0  0.37101865978E+02 -0.66604402893E+00  0.45030414751E+02  0.58350067064E+02  0.00000000000E+00 0. -1.
<scales pt_clust_5="13000.00000" pt_clust_6="13000.00000" pt_clust_7="13000.00000" pt_clust_8="13000.00000" pt_clust_9="28.82959" pt_clust_10="36.65793"></scales>
<clustering>
<clus scale="   28.830">  2  9  1 -1</clus>
<clus scale="   36.658">  1 10  2 -1</clus>
<clus scale="   79.160">  5  6 -1 -1</clus>
<clus scale="   92.834">  7  8 -1 -1</clus>
<clus scale="  169.425">  2  5  1 -1</clus>
<clus scale="   36.658">  1  5  2 -1</clus>
</clustering>
</event>
<event>
10    4  0.2977685E-005  0.2213007E+03  0.7546771E-02  0.1148992E+00
          2   -1    0    0  503    0 -0.00000000000E+00  0.00000000000E+00  0.15303865693E+04  0.15303865693E+04  0.00000000000E+00 0. -1.
         21   -1    0    0  501  502  0.00000000000E+00 -0.00000000000E+00 -0.11793154950E+03  0.11793154950E+03  0.00000000000E+00 0. -1.
         23    2    1    2    0    0 -0.20635195464E+03 -0.23672265567E+02  0.83039714261E+03  0.86093667176E+03  0.92255259913E+02 0.  0.
         24    2    1    2    0    0 -0.16531082562E+02  0.13259081961E+03  0.92264445841E+02  0.18112392514E+03  0.80246782846E+02 0.  0.
        -13    1    4    4    0    0 -0.10806220044E+02  0.11275098208E+03  0.32418351749E+02  0.11781556723E+03  0.00000000000E+00 0.  1.
         14    1    4    4    0    0 -0.57248625178E+01  0.19839837538E+02  0.59846094091E+02  0.63308357919E+02  0.00000000000E+00 0. -1.
        -13    1    3    3    0    0 -0.27392277070E+02 -0.31746150614E+02  0.25097532768E+03  0.25445386620E+03  0.00000000000E+00 0.  1.
         13    1    3    3    0    0 -0.17895967757E+03  0.80738850468E+01  0.57942181493E+03  0.60648280556E+03  0.00000000000E+00 0. -1.
         21    1    1    2  503  502  0.18939023067E+03 -0.98809976298E+02  0.51864256311E+03  0.56091191747E+03  0.00000000000E+00 0.  1.
          1    1    1    2  501    0  0.33492806534E+02 -0.10108577748E+02 -0.28849131781E+02  0.45345604397E+02  0.00000000000E+00 0. -1.
<scales pt_clust_5="13000.00000" pt_clust_6="13000.00000" pt_clust_7="13000.00000" pt_clust_8="13000.00000" pt_clust_9="201.15411" pt_clust_10="34.98502"></scales>
<clustering>
<clus scale="   34.985">  2 10  1 -1</clus>
<clus scale="   80.247">  5  6 -1 -1</clus>
<clus scale="   92.255">  7  8 -1 -1</clus>
<clus scale="  150.269">  2  5  1 -1</clus>
<clus scale="  201.154">  2  9  1 -1</clus>
<clus scale="   34.985">  2  5  1 -1</clus>
</clustering>
</event>
<event>
10    4  0.2977685E-005  0.2588615E+03  0.7546771E-02  0.1151540E+00
          2   -1    0    0  503    0 -0.00000000000E+00  0.00000000000E+00  0.15106646659E+04  0.15106646659E+04  0.00000000000E+00 0. -1.
         21   -1    0    0  501  502  0.00000000000E+00 -0.00000000000E+00 -0.25015102753E+03  0.25015102753E+03  0.00000000000E+00 0. -1.
         24    2    1    2    0    0  0.64091542978E+02 -0.12593885152E+02  0.99138338940E+03  0.99677342963E+03  0.80311352980E+02 0.  0.
         23    2    1    2    0    0  0.43185424212E+02  0.22374682783E+03  0.25989737285E+02  0.24665384132E+03  0.90747050454E+02 0.  0.
        -11    1    3    3    0    0  0.17766961205E+02 -0.12869753022E+02  0.54562285909E+02  0.58807639784E+02  0.00000000000E+00 0.  1.
         12    1    3    3    0    0  0.46324581773E+02  0.27586786949E+00  0.93682110349E+03  0.93796578985E+03  0.00000000000E+00 0. -1.
        -11    1    4    4    0    0  0.43995482214E+02  0.14492621596E+03 -0.23952782564E+02  0.15333931760E+03  0.00000000000E+00 0. -1.
         11    1    4    4    0    0 -0.81005800262E+00  0.78820611869E+02  0.49942519849E+02  0.93314523726E+02  0.00000000000E+00 0.  1.
         21    1    1    2  503  502 -0.38442887805E+02  0.35213071840E+02  0.25600942229E+03  0.26126354578E+03  0.00000000000E+00 0.  1.
          1    1    1    2  501    0 -0.68834079385E+02 -0.24636601452E+03 -0.12868910622E+02  0.25612487668E+03  0.00000000000E+00 0. -1.
<scales pt_clust_5="13000.00000" pt_clust_6="13000.00000" pt_clust_7="13000.00000" pt_clust_8="13000.00000" pt_clust_9="52.13268" pt_clust_10="242.43403"></scales>
<clustering>
<clus scale="   52.133">  1  9  2 -1</clus>
<clus scale="   80.311">  5  6 -1 -1</clus>
<clus scale="   88.390">  1  5  2 -1</clus>
<clus scale="   90.747">  7  8 -1 -1</clus>
<clus scale="  242.434">  2 10  1 -1</clus>
<clus scale="  242.434">  2  5  1 -1</clus>
</clustering>
</event>
<event>
10    4  0.2977685E-005  0.1155944E+03  0.7546771E-02  0.1253626E+00
         21   -1    0    0  501  502  0.00000000000E+00  0.00000000000E+00  0.40507995850E+03  0.40507995850E+03  0.00000000000E+00 0. -1.
          2   -1    0    0  503    0 -0.00000000000E+00 -0.00000000000E+00 -0.40332367130E+03  0.40332367130E+03  0.00000000000E+00 0. -1.
         23    2    1    2    0    0  0.10178927776E+03 -0.17349317440E+02 -0.20378225833E+03  0.24443439711E+03  0.86941990995E+02 0.  0.
         24    2    1    2    0    0 -0.20991676798E+02 -0.25053890902E+02  0.24811931080E+03  0.26200905310E+03  0.77570636007E+02 0.  0.
        -11    1    4    4    0    0 -0.76731279970E+01  0.25766226229E+02  0.47047011920E+02  0.54186683216E+02  0.00000000000E+00 0.  1.
         12    1    4    4    0    0 -0.13318548801E+02 -0.50820117132E+02  0.20107229888E+03  0.20782236988E+03  0.00000000000E+00 0. -1.
        -11    1    3    3    0    0  0.96640752695E+02  0.18185789475E+02 -0.16010263298E+03  0.18789095536E+03  0.00000000000E+00 0. -1.
         11    1    3    3    0    0  0.51485250629E+01 -0.35535106915E+02 -0.43679625349E+02  0.56543441745E+02  0.00000000000E+00 0.  1.
         21    1    1    2  503  502 -0.23471022677E+02  0.13221267230E+02 -0.16312064306E+03  0.16533007895E+03  0.00000000000E+00 0. -1.
          1    1    1    2  501    0 -0.57326578283E+02  0.29181941112E+02  0.12053987779E+03  0.13663010065E+03  0.00000000000E+00 0. -1.
<scales pt_clust_5="13000.00000" pt_clust_6="13000.00000" pt_clust_7="13000.00000" pt_clust_8="13000.00000" pt_clust_9="26.93865" pt_clust_10="65.23231"></scales>
<clustering>
<clus scale="   26.939">  2  9  1 -1</clus>
<clus scale="   65.232">  1 10  2 -1</clus>
<clus scale="   77.571">  5  6 -1 -1</clus>
<clus scale="   86.942">  7  8 -1 -1</clus>
<clus scale="  108.721">  1  5  2 -1</clus>
<clus scale="   65.232">  1  5  2 -1</clus>
</clustering>
</event>
<event>
10    4  0.2977685E-005  0.1836033E+03  0.7546771E-02  0.1165439E+00
         21   -1    0    0  501  502  0.00000000000E+00  0.00000000000E+00  0.11316000139E+03  0.11316000139E+03  0.00000000000E+00 0. -1.
          2   -1    0    0  503    0 -0.00000000000E+00 -0.00000000000E+00 -0.10045559051E+04  0.10045559051E+04  0.00000000000E+00 0. -1.
         23    2    1    2    0    0  0.12804946271E+03  0.97355144906E+02 -0.44459787212E+03  0.48132040528E+03  0.90151957855E+02 0.  0.
         24    2    1    2    0    0 -0.71447746103E+02 -0.84071656149E+02  0.33996861604E+02  0.14077821827E+03  0.80559892929E+02 0.  0.
        -11    1    4    4    0    0  0.16350164701E+02 -0.27255505760E+02  0.11559979479E+02  0.33820461344E+02  0.00000000000E+00 0.  1.
         12    1    4    4    0    0 -0.87797910804E+02 -0.56816150390E+02  0.22436882126E+02  0.10695775692E+03  0.00000000000E+00 0. -1.
        -11    1    3    3    0    0  0.38378315455E+02  0.76188632535E+02 -0.27979391968E+03  0.29251023967E+03  0.00000000000E+00 0.  1.
         11    1    3    3    0    0  0.89671147255E+02  0.21166512371E+02 -0.16480395244E+03  0.18881016561E+03  0.00000000000E+00 0. -1.
         21    1    1    2  503  502 -0.92339205404E+01  0.39458072221E+02 -0.27465928815E+03  0.27763272379E+03  0.00000000000E+00 0. -1.
          1    1    1    2  501    0 -0.47367796067E+02 -0.52741560978E+02 -0.20613560501E+03  0.21798455911E+03  0.00000000000E+00 0. -1.
<scales pt_clust_5="13000.00000" pt_clust_6="13000.00000" pt_clust_7="13000.00000" pt_clust_8="13000.00000" pt_clust_9="40.52413" pt_clust_10="64.86543"></scales>
<clustering>
<clus scale="   40.524">  2  9  1 -1</clus>
<clus scale="   64.865">  1 10  2 -1</clus>
<clus scale="   80.560">  5  6 -1 -1</clus>
<clus scale="   90.152">  7  8 -1 -1</clus>
<clus scale="  179.089">  1  5  2 -1</clus>
<clus scale="   64.865">  1  5  2 -1</clus>
</clustering>
</event>
<event>
10    4  0.2977685E-005  0.9718078E+02  0.7546771E-02  0.1295782E+00
         21   -1    0    0  501  502  0.00000000000E+00  0.00000000000E+00  0.96005658782E+02  0.96005658782E+02  0.00000000000E+00 0.  1.
          2   -1    0    0  503    0 -0.00000000000E+00 -0.00000000000E+00 -0.33709064696E+03  0.33709064696E+03  0.00000000000E+00 0. -1.
         23    2    1    2    0    0  0.17909074638E+02 -0.13262670154E+02 -0.20114363711E+03  0.22314004705E+03  0.94000449308E+02 0.  0.
         24    2    1    2    0    0  0.54173993552E+01  0.11398588118E+02 -0.23774714345E+02  0.82162951750E+02  0.77628844969E+02 0.  0.
        -11    1    4    4    0    0  0.34236687884E+02 -0.16397442125E+02 -0.63166628594E+01  0.38482816102E+02  0.00000000000E+00 0.  1.
         12    1    4    4    0    0 -0.28819288528E+02  0.27796030243E+02 -0.17458051485E+02  0.43680135648E+02  0.00000000000E+00 0. -1.
        -13    1    3    3    0    0  0.39873615698E+02 -0.42447468700E+02 -0.14386765221E+03  0.15520822845E+03  0.00000000000E+00 0.  1.
         13    1    3    3    0    0 -0.21964541061E+02  0.29184798546E+02 -0.57275984906E+02  0.67931818591E+02  0.00000000000E+00 0. -1.
         21    1    1    2  503  502  0.20177030272E+02 -0.31442381795E+01 -0.61477175998E+02  0.64779950240E+02  0.00000000000E+00 0.  1.
          1    1    1    2  501    0 -0.43503504264E+02  0.50083202156E+01  0.45310539275E+02  0.63013356711E+02  0.00000000000E+00 0. -1.
<scales pt_clust_5="13000.00000" pt_clust_6="13000.00000" pt_clust_7="13000.00000" pt_clust_8="13000.00000" pt_clust_9="20.42055" pt_clust_10="43.13162"></scales>
<clustering>
<clus scale="   20.421">  2  9  1 -1</clus>
<clus scale="   43.132">  1 10  2 -1</clus>
<clus scale="   77.629">  5  6 -1 -1</clus>
<clus scale="   81.451">  1  5  2 -1</clus>
<clus scale="   94.000">  7  8 -1 -1</clus>
<clus scale="   43.132">  1  5  2 -1</clus>
</clustering>
</event>
<event>
10    4  0.2977685E-005  0.2211066E+03  0.7546771E-02  0.1164889E+00
          2   -1    0    0  503    0 -0.00000000000E+00  0.00000000000E+00  0.85330628430E+03  0.85330628430E+03  0.00000000000E+00 0. -1.
         21   -1    0    0  501  502  0.00000000000E+00 -0.00000000000E+00 -0.33430103210E+03  0.33430103210E+03  0.00000000000E+00 0.  1.
         24    2    1    2    0    0 -0.59054042250E+02 -0.27739645336E+02 -0.40054707948E+01  0.10632787042E+03  0.83861221090E+02 0.  0.
         23    2    1    2    0    0  0.34183754849E+02  0.19961931745E+03 -0.21165026336E+03  0.30699037775E+03  0.91819698630E+02 0.  0.
        -13    1    3    3    0    0 -0.51710665485E+02 -0.47037074631E+02 -0.27438949018E+02  0.75095773769E+02  0.00000000000E+00 0.  1.
         14    1    3    3    0    0 -0.73433767651E+01  0.19297429295E+02  0.23433478223E+02  0.31232096653E+02  0.00000000000E+00 0. -1.
        -13    1    4    4    0    0  0.54914870729E+02  0.19182168922E+03 -0.19726890615E+03  0.28058193958E+03  0.00000000000E+00 0.  1.
         13    1    4    4    0    0 -0.20731115879E+02  0.77976282305E+01 -0.14381357203E+02  0.26408438171E+02  0.00000000000E+00 0. -1.
         21    1    1    2  503  502  0.57859714191E+02  0.83548322961E+01  0.13144333330E+03  0.14385721956E+03  0.00000000000E+00 0.  1.
          1    1    1    2  501    0 -0.32989426790E+02 -0.18023450441E+03  0.60321765305E+03  0.63043184867E+03  0.00000000000E+00 0. -1.
<scales pt_clust_5="13000.00000" pt_clust_6="13000.00000" pt_clust_7="13000.00000" pt_clust_8="13000.00000" pt_clust_9="58.45981" pt_clust_10="201.14007"></scales>
<clustering>
<clus scale="   58.460">  1  9  2 -1</clus>
<clus scale="   83.861">  5  6 -1 -1</clus>
<clus scale="   91.820">  7  8 -1 -1</clus>
<clus scale="  103.853">  1  5  2 -1</clus>
<clus scale="  201.140">  2 10  1 -1</clus>
<clus scale="  201.140">  2  5  1 -1</clus>
</clustering>
</event>
<event>
10    4  0.2977685E-005  0.2254259E+03  0.7546771E-02  0.1131448E+00
         21   -1    0    0  503  502  0.00000000000E+00  0.00000000000E+00  0.45033453475E+02  0.45033453475E+02  0.00000000000E+00 0. -1.
          2   -1    0    0  502    0 -0.00000000000E+00 -0.00000000000E+00 -0.25370602690E+04  0.25370602690E+04  0.00000000000E+00 0. -1.
         23    2    1    2    0    0  0.85754947395E+02  0.15451901226E+03 -0.62435566836E+03  0.65668043609E+03  0.10089181522E+03 0.  0.
         24    2    1    2    0    0  0.21200716367E+02 -0.25538794238E+03 -0.80861610523E+03  0.85205540239E+03  0.80411016684E+02 0.  0.
        -11    1    4    4    0    0  0.32709923281E+02 -0.12425100832E+03 -0.29362663280E+03  0.32050717876E+03  0.00000000000E+00 0.  1.
         12    1    4    4    0    0 -0.11509206914E+02 -0.13113693406E+03 -0.51498947244E+03  0.53154822362E+03  0.00000000000E+00 0. -1.
        -11    1    3    3    0    0  0.18259115927E+02  0.61573642223E+02 -0.92807628743E+02  0.11286259205E+03  0.00000000000E+00 0.  1.
         11    1    3    3    0    0  0.67495831468E+02  0.92945370034E+02 -0.53154803962E+03  0.54381784404E+03  0.00000000000E+00 0. -1.
         21    1    1    2  503  501  0.13523569646E+02  0.23499660048E+02 -0.97454589727E+02  0.10115590945E+03  0.00000000000E+00 0. -1.
          1    1    1    2  501    0 -0.12047923341E+03  0.77369270072E+02 -0.96160045222E+03  0.97220197457E+03  0.00000000000E+00 0. -1.
<scales pt_clust_5="13000.00000" pt_clust_6="13000.00000" pt_clust_7="13000.00000" pt_clust_8="13000.00000" pt_clust_9="27.11311" pt_clust_10="143.38308"></scales>
<clustering>
<clus scale="   27.113">  1  9  2 -1</clus>
<clus scale="   80.411">  5  6 -1 -1</clus>
<clus scale="  100.892">  7  8 -1 -1</clus>
<clus scale="  143.383">  1 10  2 -1</clus>
<clus scale="  217.034">  1  5  2 -1</clus>
<clus scale="   27.113">  1  5  2 -1</clus>
</clustering>
</event>
<event>
10    4  0.2977685E-005  0.1018508E+03  0.7546771E-02  0.1279346E+00
          2   -1    0    0  503    0 -0.00000000000E+00  0.00000000000E+00  0.45361868567E+03  0.45361868567E+03  0.00000000000E+00 0. -1.
         21   -1    0    0  501  502  0.00000000000E+00 -0.00000000000E+00 -0.80531357899E+02  0.80531357899E+02  0.00000000000E+00 0. -1.
         23    2    1    2    0    0 -0.76147308656E+01  0.29273726359E+02  0.80852883868E+02  0.12352264336E+03  0.88349982516E+02 0.  0.
         24    2    1    2    0    0  0.94949182266E+02  0.30714558734E+01  0.12859850335E+03  0.17967340458E+03  0.81976680809E+02 0.  0.
        -11    1    4    4    0    0  0.62448742141E+02 -0.37555416942E+02  0.83441134932E+02  0.11078211830E+03  0.00000000000E+00 0.  1.
         12    1    4    4    0    0  0.32500440125E+02  0.40626872815E+02  0.45157368416E+02  0.68891286280E+02  0.00000000000E+00 0. -1.
        -11    1    3    3    0    0  0.27693918782E+02  0.29960913867E+02  0.78081895719E+02  0.88098762400E+02  0.00000000000E+00 0. -1.
         11    1    3    3    0    0 -0.35308649648E+02 -0.68718750888E+00  0.27709881492E+01  0.35423880956E+02  0.00000000000E+00 0.  1.
         21    1    1    2  503  502 -0.10634351926E+02  0.29299867888E+02  0.11879542887E+03  0.12281663413E+03  0.00000000000E+00 0. -1.
          1    1    1    2  501    0 -0.76700099475E+02 -0.61645050120E+02  0.44840511684E+02  0.10813736150E+03  0.00000000000E+00 0. -1.
<scales pt_clust_5="13000.00000" pt_clust_6="13000.00000" pt_clust_7="13000.00000" pt_clust_8="13000.00000" pt_clust_9="31.17004" pt_clust_10="96.32774"></scales>
<clustering>
<clus scale="   31.170">  1  9  2 -1</clus>
<clus scale="   81.977">  5  6 -1 -1</clus>
<clus scale="   88.350">  7  8 -1 -1</clus>
<clus scale="   96.328">  2 10  1 -1</clus>
<clus scale="   96.375">  2  5  1 -1</clus>
<clus scale="   96.328">  2  5  1 -1</clus>
</clustering>
</event>
<event>
10    4  0.2977685E-005  0.1244211E+03  0.7546771E-02  0.1243255E+00
         -1   -1    0    0    0  501 -0.00000000000E+00  0.00000000000E+00  0.15553558629E+03  0.15553558629E+03  0.00000000000E+00 0.  1.
         21   -1    0    0  503  502  0.00000000000E+00 -0.00000000000E+00 -0.42342857523E+03  0.42342857523E+03  0.00000000000E+00 0. -1.
         23    2    1    2    0    0  0.23038080831E+02 -0.32193099536E+02  0.43163533452E+02  0.11625261014E+03  0.10042126228E+03 0.  0.
         24    2    1    2    0    0  0.77827183464E+02  0.23107528398E+02 -0.23041750807E+03  0.25729466282E+03  0.80729716562E+02 0.  0.
        -11    1    4    4    0    0  0.17358047688E+02 -0.28866639812E+02 -0.53222215887E+02  0.62985625165E+02  0.00000000000E+00 0.  1.
         12    1    4    4    0    0  0.60469135776E+02  0.51974168210E+02 -0.17719529218E+03  0.19430903766E+03  0.00000000000E+00 0. -1.
        -11    1    3    3    0    0 -0.38546361439E+02 -0.24316426071E+02  0.14146858980E+02  0.47720479629E+02  0.00000000000E+00 0.  1.
         11    1    3    3    0    0  0.61584442270E+02 -0.78766734654E+01  0.29016674472E+02  0.68532130509E+02  0.00000000000E+00 0. -1.
         21    1    1    2  503  501  0.21721947904E+02  0.37712526678E+02  0.16361399577E+02  0.46494871602E+02  0.00000000000E+00 0. -1.
         -2    1    1    2    0  502 -0.12258721220E+03 -0.28626955539E+02 -0.97000413892E+02  0.15892201696E+03  0.00000000000E+00 0.  1.
<scales pt_clust_5="13000.00000" pt_clust_6="13000.00000" pt_clust_7="13000.00000" pt_clust_8="13000.00000" pt_clust_9="43.52100" pt_clust_10="94.67492"></scales>
<clustering>
<clus scale="   43.521">  1  9  2 -1</clus>
<clus scale="   80.730">  5  6 -1 -1</clus>
<clus scale="  100.421">  7  8 -1 -1</clus>
<clus scale="  107.313">  1  7  2 -1</clus>
<clus scale="   94.675">  2 10  1 -1</clus>
<clus scale="   94.675">  2  5  1 -1</clus>
</clustering>
</event>
<event>
10    4  0.2977685E-005  0.1624169E+03  0.7546771E-02  0.1187393E+00
         21   -1    0    0  501  502  0.00000000000E+00  0.00000000000E+00  0.37060707080E+03  0.37060707080E+03  0.00000000000E+00 0.  1.
          2   -1    0    0  503    0 -0.00000000000E+00 -0.00000000000E+00 -0.37820998594E+03  0.37820998594E+03  0.00000000000E+00 0. -1.
         23    2    1    2    0    0  0.43703920794E+02 -0.13410015239E+03 -0.28376894088E+03  0.32919146592E+03  0.89158992045E+02 0.  0.
         24    2    1    2    0    0 -0.22450240572E+02  0.70074725718E+02  0.25615225007E+03  0.27818869875E+03  0.79752720400E+02 0.  0.
        -13    1    4    4    0    0 -0.40143120331E+02  0.71767709253E+02  0.24162112832E+03  0.25523096178E+03  0.00000000000E+00 0.  1.
         14    1    4    4    0    0  0.17692879758E+02 -0.16929835353E+01  0.14531121743E+02  0.22957736964E+02  0.00000000000E+00 0. -1.
        -11    1    3    3    0    0  0.64759342800E+02 -0.12002253452E+03 -0.20310281981E+03  0.24464246705E+03  0.00000000000E+00 0. -1.
         11    1    3    3    0    0 -0.21055422006E+02 -0.14077617876E+02 -0.80666121066E+02  0.84548998863E+02  0.00000000000E+00 0.  1.
         21    1    1    2  503  502 -0.43754360659E+01  0.98195634644E+02 -0.20731484475E+00  0.98293286054E+02  0.00000000000E+00 0.  1.
          1    1    1    2  501    0 -0.16878244156E+02 -0.34170207969E+02  0.20221090522E+02  0.43143606020E+02  0.00000000000E+00 0. -1.
<scales pt_clust_5="13000.00000" pt_clust_6="13000.00000" pt_clust_7="13000.00000" pt_clust_8="13000.00000" pt_clust_9="93.50004" pt_clust_10="38.11139"></scales>
<clustering>
<clus scale="   38.111">  1 10  2 -1</clus>
<clus scale="   79.753">  5  6 -1 -1</clus>
<clus scale="   89.159">  7  8 -1 -1</clus>
<clus scale="   93.500">  1  9  2 -1</clus>
<clus scale="  157.450">  1  5  2 -1</clus>
<clus scale="   38.111">  1  5  2 -1</clus>
</clustering>
</event>
<event>
10    4  0.2977685E-005  0.1225476E+03  0.7546771E-02  0.1241239E+00
         -3   -1    0    0    0  501 -0.00000000000E+00  0.00000000000E+00  0.32262259595E+03  0.32262259595E+03  0.00000000000E+00 0.  1.
         21   -1    0    0  503  502  0.00000000000E+00 -0.00000000000E+00 -0.28241573270E+03  0.28241573270E+03  0.00000000000E+00 0.  1.
         24    2    1    2    0    0  0.54775348601E+02  0.38534438196E+02  0.20582034472E+03  0.23085922245E+03  0.80303951014E+02 0.  0.
         23    2    1    2    0    0 -0.40690925034E+02 -0.64176422020E+02  0.65918198441E+01  0.11661218982E+03  0.88207631199E+02 0.  0.
        -13    1    3    3    0    0  0.37692355135E+02  0.50446554156E+02  0.72966678709E+02  0.96383113997E+02  0.00000000000E+00 0.  1.
         14    1    3    3    0    0  0.17082993466E+02 -0.11912115960E+02  0.13285366601E+03  0.13447610845E+03  0.00000000000E+00 0. -1.
        -11    1    4    4    0    0 -0.62404143780E+02 -0.66890260993E+02 -0.54377154526E+01  0.91641436730E+02  0.00000000000E+00 0.  1.
         11    1    4    4    0    0  0.21713218746E+02  0.27138389731E+01  0.12029535297E+02  0.24970753087E+02  0.00000000000E+00 0. -1.
         21    1    1    2  503  501  0.27458179062E+02  0.22452399496E+02  0.32836188261E+02  0.48335050430E+02  0.00000000000E+00 0. -1.
         -4    1    1    2    0  502 -0.41542602629E+02  0.31895843284E+01 -0.20504148958E+03  0.20923186595E+03  0.00000000000E+00 0.  1.
<scales pt_clust_5="13000.00000" pt_clust_6="13000.00000" pt_clust_7="13000.00000" pt_clust_8="13000.00000" pt_clust_9="35.46917" pt_clust_10="41.47465"></scales>
<clustering>
<clus scale="   35.469">  1  9  2 -1</clus>
<clus scale="   41.475">  2 10  1 -1</clus>
<clus scale="   80.304">  5  6 -1 -1</clus>
<clus scale="   88.208">  7  8 -1 -1</clus>
<clus scale="  116.987">  1  5  2 -1</clus>
<clus scale="   41.475">  2  5  1 -1</clus>
</clustering>
</event>
<event>
10    4  0.2977685E-005  0.1564761E+03  0.7546771E-02  0.1196160E+00
          2   -1    0    0  503    0 -0.00000000000E+00  0.00000000000E+00  0.17638562952E+03  0.17638562952E+03  0.00000000000E+00 0. -1.
         21   -1    0    0  501  502  0.00000000000E+00 -0.00000000000E+00 -0.24154976667E+03  0.24154976667E+03  0.00000000000E+00 0.  1.
         23    2    1    2    0    0 -0.79449377931E+02  0.10010425440E+03 -0.23828706159E+02  0.16276983030E+03  0.97944601770E+02 0.  0.
         24    2    1    2    0    0  0.23511291919E+02 -0.12159567617E+03 -0.15177480500E+02  0.14746400427E+03  0.78593812302E+02 0.  0.
        -13    1    4    4    0    0 -0.18083583739E+02 -0.88157302117E+02 -0.24542525772E+02  0.93279480534E+02  0.00000000000E+00 0.  1.
         14    1    4    4    0    0  0.41594875658E+02 -0.33438374050E+02  0.93650452714E+01  0.54184523741E+02  0.00000000000E+00 0. -1.
        -13    1    3    3    0    0  0.29303178990E+01  0.41480930701E+02  0.27022640972E+02  0.49593119481E+02  0.00000000000E+00 0. -1.
         13    1    3    3    0    0 -0.82379695830E+02  0.58623323699E+02 -0.50851347130E+02  0.11317671082E+03  0.00000000000E+00 0.  1.
         21    1    1    2  503  502  0.31815747517E+02 -0.17894586658E+01  0.29044710131E+02  0.43116576151E+02  0.00000000000E+00 0. -1.
          1    1    1    2  501    0  0.24122338496E+02  0.23280880433E+02 -0.55202660616E+02  0.64584985464E+02  0.00000000000E+00 0. -1.
<scales pt_clust_5="13000.00000" pt_clust_6="13000.00000" pt_clust_7="13000.00000" pt_clust_8="13000.00000" pt_clust_9="31.86603" pt_clust_10="34.25722"></scales>
<clustering>
<clus scale="   31.866">  1  9  2 -1</clus>
<clus scale="   34.257">  2 10  1 -1</clus>
<clus scale="   78.594">  5  6 -1 -1</clus>
<clus scale="   97.945">  7  8 -1 -1</clus>
<clus scale="  145.150">  2  5  1 -1</clus>
<clus scale="   34.257">  2  5  1 -1</clus>
</clustering>
</event>
<event>
10    4  0.2977685E-005  0.9944284E+02  0.7546771E-02  0.1290332E+00
         21   -1    0    0  503  502  0.00000000000E+00  0.00000000000E+00  0.27790251423E+03  0.27790251423E+03  0.00000000000E+00 0.  1.
         -3   -1    0    0    0  501 -0.00000000000E+00 -0.00000000000E+00 -0.88533750463E+02  0.88533750463E+02  0.00000000000E+00 0.  1.
         23    2    1    2    0    0  0.36289938522E+02  0.18576535964E+02 -0.14857819049E+02  0.10250998290E+03  0.92873540260E+02 0.  0.
         24    2    1    2    0    0 -0.13051957669E+02  0.11390177266E+02  0.10143036466E+03  0.12808337897E+03  0.76270199661E+02 0.  0.
        -11    1    4    4    0    0  0.18661224333E+02 -0.19350211100E+02  0.14421608465E+02  0.30506634589E+02  0.00000000000E+00 0.  1.
         12    1    4    4    0    0 -0.31713182001E+02  0.30740388367E+02  0.87008756193E+02  0.97576744381E+02  0.00000000000E+00 0. -1.
        -13    1    3    3    0    0  0.76846618784E+01 -0.24213842153E+02 -0.38294114509E+02  0.45954361991E+02  0.00000000000E+00 0.  1.
         13    1    3    3    0    0  0.28605276644E+02  0.42790378116E+02  0.23436295461E+02  0.56555620907E+02  0.00000000000E+00 0. -1.
         21    1    1    2  503  501  0.17263192928E+02 -0.29585932658E+02  0.11782889741E+02  0.36224049083E+02  0.00000000000E+00 0.  1.
         -4    1    1    2    0  502 -0.40501173781E+02 -0.38078057228E+00  0.91013328413E+02  0.99618853739E+02  0.00000000000E+00 0.  1.
<scales pt_clust_5="13000.00000" pt_clust_6="13000.00000" pt_clust_7="13000.00000" pt_clust_8="13000.00000" pt_clust_9="34.25413" pt_clust_10="39.58089"></scales>
<clustering>
<clus scale="   34.254">  2  9  1 -1</clus>
<clus scale="   39.581">  1 10  2 -1</clus>
<clus scale="   76.270">  5  6 -1 -1</clus>
<clus scale="   84.146">  1  5  2 -1</clus>
<clus scale="   92.874">  7  8 -1 -1</clus>
<clus scale="   39.581">  1  5  2 -1</clus>
</clustering>
</event>
<event>
10    4  0.2977685E-005  0.1022486E+03  0.7546771E-02  0.1279600E+00
         21   -1    0    0  503  502  0.00000000000E+00  0.00000000000E+00  0.37383736574E+03  0.37383736574E+03  0.00000000000E+00 0. -1.
         -1   -1    0    0    0  501 -0.00000000000E+00 -0.00000000000E+00 -0.20961523235E+03  0.20961523235E+03  0.00000000000E+00 0.  1.
         23    2    1    2    0    0 -0.42633503326E+02 -0.13830881776E+02 -0.14823587118E+03  0.17927575730E+03  0.90316193198E+02 0.  0.
         24    2    1    2    0    0  0.84200312268E+01  0.55483059307E+02  0.13743517956E+03  0.16948661539E+03  0.81780299697E+02 0.  0.
        -13    1    4    4    0    0 -0.28697557204E+02  0.53915440263E+02  0.96521390137E+02  0.11422260390E+03  0.00000000000E+00 0.  1.
         14    1    4    4    0    0  0.37117588431E+02  0.15676190440E+01  0.40913789424E+02  0.55264011485E+02  0.00000000000E+00 0. -1.
        -13    1    3    3    0    0 -0.48020695953E+02  0.26697248196E+02 -0.11154139462E+03  0.12433910493E+03  0.00000000000E+00 0.  1.
         13    1    3    3    0    0  0.53871926271E+01 -0.40528129972E+02 -0.36694476561E+02  0.54936652369E+02  0.00000000000E+00 0. -1.
         21    1    1    2  503  501  0.15057745740E+02 -0.26607679932E+02 -0.21044528709E+02  0.37115718055E+02  0.00000000000E+00 0. -1.
         -2    1    1    2    0  502  0.19155726359E+02 -0.15044497599E+02  0.19606735372E+03  0.19757450735E+03  0.00000000000E+00 0.  1.
<scales pt_clust_5="13000.00000" pt_clust_6="13000.00000" pt_clust_7="13000.00000" pt_clust_8="13000.00000" pt_clust_9="31.59837" pt_clust_10="24.35731"></scales>
<clustering>
<clus scale="   24.357">  1 10  2 -1</clus>
<clus scale="   31.598">  2  9  1 -1</clus>
<clus scale="   81.780">  5  6 -1 -1</clus>
<clus scale="   90.316">  7  8 -1 -1</clus>
<clus scale="   94.793">  1  5  2 -1</clus>
<clus scale="   24.357">  1  5  2 -1</clus>
</clustering>
</event>
<event>
10    4  0.2977685E-005  0.1242773E+03  0.7546771E-02  0.1239707E+00
          4   -1    0    0  503    0 -0.00000000000E+00  0.00000000000E+00  0.64156078323E+02  0.64156078323E+02  0.00000000000E+00 0. -1.
         21   -1    0    0  501  502  0.00000000000E+00 -0.00000000000E+00 -0.83569826636E+03  0.83569826636E+03  0.00000000000E+00 0. -1.
         24    2    1    2    0    0 -0.26167298735E+02 -0.82057981357E+02 -0.16647218623E+03  0.20385527250E+03  0.80160735464E+02 0.  0.
         23    2    1    2    0    0  0.13201949134E+03 -0.13076760104E+02 -0.27047440252E+03  0.31501990337E+03  0.92092287149E+02 0.  0.
        -11    1    3    3    0    0 -0.33713578222E+02 -0.52689759344E+02 -0.41048771480E+02  0.74818565452E+02  0.00000000000E+00 0.  1.
         12    1    3    3    0    0  0.75462794864E+01 -0.29368222013E+02 -0.12542341475E+03  0.12903670704E+03  0.00000000000E+00 0. -1.
        -13    1    4    4    0    0 -0.72780532618E+01 -0.19871414156E+02 -0.47827955962E+02  0.52300636051E+02  0.00000000000E+00 0.  1.
         13    1    4    4    0    0  0.13929754460E+03  0.67946540520E+01 -0.22264644656E+03  0.26271926732E+03  0.00000000000E+00 0. -1.
         21    1    1    2  503  502 -0.49882731904E+02  0.47625421389E+02 -0.45300772442E+02  0.82514408975E+02  0.00000000000E+00 0. -1.
          3    1    1    2  501    0 -0.55969460703E+02  0.47509320072E+02 -0.28929482685E+03  0.29846475984E+03  0.00000000000E+00 0. -1.
<scales pt_clust_5="13000.00000" pt_clust_6="13000.00000" pt_clust_7="13000.00000" pt_clust_8="13000.00000" pt_clust_9="68.96715" pt_clust_10="80.34606"></scales>
<clustering>
<clus scale="   68.967">  1  9  2 -1</clus>
<clus scale="   80.161">  5  6 -1 -1</clus>
<clus scale="   80.346">  2 10  1 -1</clus>
<clus scale="   92.092">  7  8 -1 -1</clus>
<clus scale="  115.713">  1  5  2 -1</clus>
<clus scale="   80.346">  2  5  1 -1</clus>
</clustering>
</event>
<event>
10    4  0.2977685E-005  0.1510352E+03  0.7546771E-02  0.1200478E+00
         21   -1    0    0  501  502  0.00000000000E+00  0.00000000000E+00  0.11873566194E+03  0.11873566194E+03  0.00000000000E+00 0.  1.
          2   -1    0    0  503    0 -0.00000000000E+00 -0.00000000000E+00 -0.47003569995E+03  0.47003569995E+03  0.00000000000E+00 0. -1.
         24    2    1    2    0    0  0.11178521536E+03  0.10311930237E+03 -0.13045239435E+03  0.21666781113E+03  0.82447488094E+02 0.  0.
         23    2    1    2    0    0 -0.11899408442E+03  0.67232517927E+01 -0.54111361860E+02  0.15860842712E+03  0.89575663166E+02 0.  0.
        -13    1    3    3    0    0  0.12365698380E+03  0.99092291746E+02 -0.12842468934E+03  0.20396870534E+03  0.00000000000E+00 0.  1.
         14    1    3    3    0    0 -0.11871768434E+02  0.40270106277E+01 -0.20277050096E+01  0.12699105793E+02  0.00000000000E+00 0. -1.
        -13    1    4    4    0    0 -0.62495754336E+02  0.35472184639E+02  0.48637710247E+01  0.72025352909E+02  0.00000000000E+00 0. -1.
         13    1    4    4    0    0 -0.56498330080E+02 -0.28748932846E+02 -0.58975132885E+02  0.86583074214E+02  0.00000000000E+00 0.  1.
         21    1    1    2  503  502 -0.30794666403E+02 -0.40747937649E+02 -0.89891691275E+02  0.10338869407E+03  0.00000000000E+00 0.  1.
          1    1    1    2  501    0  0.38003535457E+02 -0.69094616517E+02 -0.76844590525E+02  0.11010642957E+03  0.00000000000E+00 0. -1.
<scales pt_clust_5="13000.00000" pt_clust_6="13000.00000" pt_clust_7="13000.00000" pt_clust_8="13000.00000" pt_clust_9="51.07549" pt_clust_10="84.88535"></scales>
<clustering>
<clus scale="   51.075">  2  9  1 -1</clus>
<clus scale="   82.447">  5  6 -1 -1</clus>
<clus scale="   84.885">  1 10  2 -1</clus>
<clus scale="   89.576">  7  8 -1 -1</clus>
<clus scale="  146.920">  2  5  1 -1</clus>
<clus scale="   84.885">  1  5  2 -1</clus>
</clustering>
</event>
<event>
10    4  0.2977685E-005  0.9804173E+02  0.7546771E-02  0.1289808E+00
         21   -1    0    0  503  502  0.00000000000E+00  0.00000000000E+00  0.11734784947E+03  0.11734784947E+03  0.00000000000E+00 0.  1.
         -1   -1    0    0    0  501 -0.00000000000E+00 -0.00000000000E+00 -0.57481915726E+03  0.57481915726E+03  0.00000000000E+00 0.  1.
         24    2    1    2    0    0  0.18141250181E+02  0.17738483379E+01 -0.95087630838E+02  0.12622250724E+03  0.80982790141E+02 0.  0.
         23    2    1    2    0    0 -0.17926217848E+02 -0.60170770968E+02 -0.25428662050E+02  0.11356187787E+03  0.91147201202E+02 0.  0.
        -11    1    3    3    0    0 -0.73740529343E+01  0.34220731475E+02 -0.19429459972E+02  0.40036721072E+02  0.00000000000E+00 0.  1.
         12    1    3    3    0    0  0.25515303116E+02 -0.32446883137E+02 -0.75658170866E+02  0.86185786167E+02  0.00000000000E+00 0. -1.
        -13    1    4    4    0    0 -0.42482112383E+02 -0.28245831486E+02 -0.45682553022E+02  0.68479577389E+02  0.00000000000E+00 0.  1.
         13    1    4    4    0    0  0.24555894534E+02 -0.31924939483E+02  0.20253890971E+02  0.45082300483E+02  0.00000000000E+00 0. -1.
         21    1    1    2  503  501 -0.21785882335E+02  0.46387480381E+02 -0.39027435280E+03  0.39362481306E+03  0.00000000000E+00 0.  1.
         -2    1    1    2    0  502  0.21570850002E+02  0.12009442249E+02  0.53319337893E+02  0.58757808556E+02  0.00000000000E+00 0.  1.
<scales pt_clust_5="13000.00000" pt_clust_6="13000.00000" pt_clust_7="13000.00000" pt_clust_8="13000.00000" pt_clust_9="51.29952" pt_clust_10="24.68863"></scales>
<clustering>
<clus scale="   24.689">  1 10  2 -1</clus>
<clus scale="   51.300">  2  9  1 -1</clus>
<clus scale="   80.983">  5  6 -1 -1</clus>
<clus scale="   88.671">  2  5  1 -1</clus>
<clus scale="   91.147">  7  8 -1 -1</clus>
<clus scale="   24.689">  1  5  2 -1</clus>
</clustering>
</event>
<event>
10    4  0.2977685E-005  0.2729012E+03  0.7546771E-02  0.1099631E+00
         21   -1    0    0  501  502  0.00000000000E+00  0.00000000000E+00  0.22029011910E+03  0.22029011910E+03  0.00000000000E+00 0. -1.
          2   -1    0    0  503    0 -0.00000000000E+00 -0.00000000000E+00 -0.34555315036E+03  0.34555315036E+03  0.00000000000E+00 0. -1.
         24    2    1    2    0    0 -0.12161249426E+03  0.29765493110E+01 -0.77503694588E+02  0.16580497193E+03  0.81768009866E+02 0.  0.
         23    2    1    2    0    0 -0.77943179271E+02  0.56208680134E+02 -0.45571783399E+02  0.14082229656E+03  0.92301553881E+02 0.  0.
        -11    1    3    3    0    0 -0.66440835488E+02  0.17368165687E+02  0.11203092563E+01  0.68682551587E+02  0.00000000000E+00 0.  1.
         12    1    3    3    0    0 -0.55171658771E+02 -0.14391616376E+02 -0.78624003844E+02  0.97122420346E+02  0.00000000000E+00 0. -1.
        -11    1    4    4    0    0 -0.78135865673E+02  0.18038100389E+01 -0.33831464607E+02  0.85164753464E+02  0.00000000000E+00 0.  1.
         11    1    4    4    0    0  0.19268640158E+00  0.54404870095E+02 -0.11740318791E+02  0.55657543096E+02  0.00000000000E+00 0. -1.
         21    1    1    2  503  502  0.94443296641E+01 -0.21701484330E+02 -0.53725745691E+02  0.58707797906E+02  0.00000000000E+00 0. -1.
          1    1    1    2  501    0  0.19011134387E+03 -0.37483745115E+02  0.51538192422E+02  0.20050820306E+03  0.00000000000E+00 0. -1.
<scales pt_clust_5="13000.00000" pt_clust_6="13000.00000" pt_clust_7="13000.00000" pt_clust_8="13000.00000" pt_clust_9="23.66748" pt_clust_10="197.30111"></scales>
<clustering>
<clus scale="   23.667">  2  9  1 -1</clus>
<clus scale="   81.768">  5  6 -1 -1</clus>
<clus scale="   92.302">  7  8 -1 -1</clus>
<clus scale="  108.610">  5  7 -1 -1</clus>
<clus scale="  197.301">  1 10  2 -1</clus>
<clus scale="  197.301">  1  5  2 -1</clus>
</clustering>
</event>
<event>
10    4  0.2977685E-005  0.9498372E+02  0.7546771E-02  0.1295758E+00
         21   -1    0    0  501  502  0.00000000000E+00  0.00000000000E+00  0.22149355119E+03  0.22149355119E+03  0.00000000000E+00 0.  1.
          2   -1    0    0  503    0 -0.00000000000E+00 -0.00000000000E+00 -0.97553012114E+02  0.97553012114E+02  0.00000000000E+00 0. -1.
         24    2    1    2    0    0  0.24500971604E+02 -0.17937180157E+01 -0.25962803830E+02  0.92855001726E+02  0.85699878232E+02 0.  0.
         23    2    1    2    0    0 -0.23965449357E+02 -0.30534103680E+01  0.88337936735E+02  0.13090800729E+03  0.93539559691E+02 0.  0.
        -13    1    3    3    0    0  0.12269870366E+01 -0.37154823922E+02  0.86555047182E+01  0.38169414454E+02  0.00000000000E+00 0.  1.
         14    1    3    3    0    0  0.23273984567E+02  0.35361105906E+02 -0.34618308548E+02  0.54685587272E+02  0.00000000000E+00 0. -1.
        -11    1    4    4    0    0  0.15717826196E+02  0.24117792131E+02 -0.16921833243E+01  0.28837153847E+02  0.00000000000E+00 0. -1.
         11    1    4    4    0    0 -0.39683275554E+02 -0.27171202499E+02  0.90030120059E+02  0.10207085344E+03  0.00000000000E+00 0.  1.
         21    1    1    2  503  502 -0.17945493776E+02 -0.89327103294E+01 -0.85079981296E+01  0.21776595071E+02  0.00000000000E+00 0. -1.
          1    1    1    2  501    0  0.17409971530E+02  0.13779838713E+02  0.70073404300E+02  0.73506959220E+02  0.00000000000E+00 0. -1.
<scales pt_clust_5="13000.00000" pt_clust_6="13000.00000" pt_clust_7="13000.00000" pt_clust_8="13000.00000" pt_clust_9="20.04580" pt_clust_10="21.79495"></scales>
<clustering>
<clus scale="   20.046">  2  9  1 -1</clus>
<clus scale="   21.795">  1 10  2 -1</clus>
<clus scale="   85.700">  5  6 -1 -1</clus>
<clus scale="   87.274">  2  5  1 -1</clus>
<clus scale="   93.540">  7  8 -1 -1</clus>
<clus scale="   21.795">  1  5  2 -1</clus>
</clustering>
</event>
<event>
10    4  0.2977685E-005  0.9567594E+02  0.7546771E-02  0.1297253E+00
          2   -1    0    0  503    0 -0.00000000000E+00  0.00000000000E+00  0.91125717934E+03  0.91125717934E+03  0.00000000000E+00 0. -1.
         21   -1    0    0  501  502  0.00000000000E+00 -0.00000000000E+00 -0.29913483212E+02  0.29913483212E+02  0.00000000000E+00 0.  1.
         23    2    1    2    0    0 -0.43294996268E+02  0.88201038153E+01  0.34477739042E+03  0.35960165851E+03  0.92139312573E+02 0.  0.
         24    2    1    2    0    0 -0.17759635491E+02  0.42685743487E+02  0.20973909236E+03  0.22882867846E+03  0.78959482468E+02 0.  0.
        -13    1    4    4    0    0 -0.21928323464E+02  0.42249027065E+02  0.50001450262E+02  0.69036053525E+02  0.00000000000E+00 0.  1.
         14    1    4    4    0    0  0.41686879730E+01  0.43671642212E+00  0.15973764209E+03  0.15979262493E+03  0.00000000000E+00 0. -1.
        -11    1    3    3    0    0 -0.56846212306E+02 -0.27311973887E+02  0.19572786094E+03  0.20563762136E+03  0.00000000000E+00 0.  1.
         11    1    3    3    0    0  0.13551216037E+02  0.36132077703E+02  0.14904952949E+03  0.15396403715E+03  0.00000000000E+00 0. -1.
         21    1    1    2  503  502  0.16809187111E+01 -0.56885513754E+02  0.24485347724E+03  0.25138021497E+03  0.00000000000E+00 0. -1.
          1    1    1    2  501    0  0.59373713049E+02  0.53796664513E+01  0.81973736107E+02  0.10136011061E+03  0.00000000000E+00 0. -1.
<scales pt_clust_5="13000.00000" pt_clust_6="13000.00000" pt_clust_7="13000.00000" pt_clust_8="13000.00000" pt_clust_9="56.91034" pt_clust_10="59.65779"></scales>
<clustering>
<clus scale="   56.910">  1  9  2 -1</clus>
<clus scale="   59.658">  2 10  1 -1</clus>
<clus scale="   78.959">  5  6 -1 -1</clus>
<clus scale="   83.059">  2  5  1 -1</clus>
<clus scale="   92.139">  7  8 -1 -1</clus>
<clus scale="   59.658">  2  5  1 -1</clus>
</clustering>
</event>
<event>
10    4  0.2977685E-005  0.3183624E+03  0.7546771E-02  0.1076743E+00
         21   -1    0    0  501  502  0.00000000000E+00  0.00000000000E+00  0.12634608771E+03  0.12634608771E+03  0.00000000000E+00 0. -1.
          2   -1    0    0  503    0 -0.00000000000E+00 -0.00000000000E+00 -0.22492805635E+04  0.22492805635E+04  0.00000000000E+00 0. -1.
         24    2    1    2    0    0  0.24043799601E+03  0.16474329800E+02 -0.11241237910E+04  0.11524207486E+04  0.79608107768E+02 0.  0.
         23    2    1    2    0    0 -0.31057189483E+03 -0.13761688976E+03 -0.25345662586E+03  0.43337138878E+03  0.90427812182E+02 0.  0.
        -13    1    3    3    0    0  0.18261977516E+02  0.89496879009E+01 -0.32104502247E+02  0.38003891917E+02  0.00000000000E+00 0.  1.
         14    1    3    3    0    0  0.22217601849E+03  0.75246418995E+01 -0.10920192888E+04  0.11144168567E+04  0.00000000000E+00 0. -1.
        -13    1    4    4    0    0 -0.30040397657E+03 -0.11036251781E+03 -0.24509119924E+03  0.40310312629E+03  0.00000000000E+00 0. -1.
         13    1    4    4    0    0 -0.10167918267E+02 -0.27254371948E+02 -0.83654266168E+01  0.30268262498E+02  0.00000000000E+00 0.  1.
         21    1    1    2  503  502  0.11468656084E+03 -0.90702535520E+01 -0.24116618202E+03  0.26720105555E+03  0.00000000000E+00 0. -1.
          1    1    1    2  501    0 -0.44552662015E+02  0.13021281351E+03 -0.50418787694E+03  0.52263345832E+03  0.00000000000E+00 0. -1.
<scales pt_clust_5="13000.00000" pt_clust_6="13000.00000" pt_clust_7="13000.00000" pt_clust_8="13000.00000" pt_clust_9="115.04467" pt_clust_10="128.76013"></scales>
<clustering>
<clus scale="   79.608">  5  6 -1 -1</clus>
<clus scale="   90.428">  7  8 -1 -1</clus>
<clus scale="  115.045">  2  9  1 -1</clus>
<clus scale="  128.760">  1 10  2 -1</clus>
<clus scale="  315.460">  2  5  1 -1</clus>
<clus scale="  128.760">  1  5  2 -1</clus>
</clustering>
</event>
<event>
10    4  0.2977685E-005  0.1097950E+03  0.7546771E-02  0.1264269E+00
         21   -1    0    0  501  502  0.00000000000E+00  0.00000000000E+00  0.10545255967E+03  0.10545255967E+03  0.00000000000E+00 0.  1.
          2   -1    0    0  503    0 -0.00000000000E+00 -0.00000000000E+00 -0.63370634838E+03  0.63370634838E+03  0.00000000000E+00 0. -1.
         24    2    1    2    0    0 -0.56315049263E+02 -0.30035083807E+02 -0.33352250400E+03  0.35352046367E+03  0.98315647440E+02 0.  0.
         23    2    1    2    0    0  0.49589907534E+02 -0.11032494679E+02  0.51724873604E+02  0.11599061821E+03  0.90539969600E+02 0.  0.
        -13    1    3    3    0    0  0.18760688147E+02  0.19665317091E+02 -0.76885687191E+02  0.81548126961E+02  0.00000000000E+00 0.  1.
         14    1    3    3    0    0 -0.75075737410E+02 -0.49700400897E+02 -0.25663681681E+03  0.27197233671E+03  0.00000000000E+00 0. -1.
        -11    1    4    4    0    0  0.72502710629E+02  0.62200995503E+01  0.25444185851E+02  0.77089164482E+02  0.00000000000E+00 0.  1.
         11    1    4    4    0    0 -0.22912803095E+02 -0.17252594229E+02  0.26280687754E+02  0.38901453727E+02  0.00000000000E+00 0. -1.
         21    1    1    2  503  502  0.28618899725E+02 -0.10445461653E+02 -0.18089919496E+03  0.18344663482E+03  0.00000000000E+00 0.  1.
          1    1    1    2  501    0 -0.21893757997E+02  0.51513040139E+02 -0.65556963357E+02  0.86201191338E+02  0.00000000000E+00 0. -1.
<scales pt_clust_5="13000.00000" pt_clust_6="13000.00000" pt_clust_7="13000.00000" pt_clust_8="13000.00000" pt_clust_9="30.46554" pt_clust_10="52.60903"></scales>
<clustering>
<clus scale="   30.466">  2  9  1 -1</clus>
<clus scale="   52.609">  1 10  2 -1</clus>
<clus scale="   90.540">  7  8 -1 -1</clus>
<clus scale="   98.316">  5  6 -1 -1</clus>
<clus scale="  102.891">  1  7  2 -1</clus>
<clus scale="   52.609">  1  5  2 -1</clus>
</clustering>
</event>
<event>
10    4  0.2977685E-005  0.9823671E+02  0.7546771E-02  0.1286088E+00
          2   -1    0    0  503    0 -0.00000000000E+00  0.00000000000E+00  0.23226525145E+03  0.23226525145E+03  0.00000000000E+00 0. -1.
         21   -1    0    0  501  502  0.00000000000E+00 -0.00000000000E+00 -0.45520936245E+03  0.45520936245E+03  0.00000000000E+00 0. -1.
         23    2    1    2    0    0  0.30917281305E+02  0.17516055284E+02  0.80012882654E+02  0.12293171369E+03  0.86298634769E+02 0.  0.
         24    2    1    2    0    0  0.18145222265E+02 -0.52067809159E+02 -0.31442449848E+03  0.32959852094E+03  0.82049460207E+02 0.  0.
        -13    1    4    4    0    0 -0.31270341722E+02 -0.33959177859E+02 -0.15280911545E+03  0.15962983993E+03  0.00000000000E+00 0.  1.
         14    1    4    4    0    0  0.49415563987E+02 -0.18108631300E+02 -0.16161538303E+03  0.16996868101E+03  0.00000000000E+00 0. -1.
        -13    1    3    3    0    0 -0.22351653877E+02  0.82602685036E+01 -0.28403778601E+01  0.23997837677E+02  0.00000000000E+00 0.  1.
         13    1    3    3    0    0  0.53268935182E+02  0.92557867808E+01  0.82853260514E+02  0.98933876009E+02  0.00000000000E+00 0. -1.
         21    1    1    2  503  502 -0.91078757195E+02 -0.35213088797E+01  0.96500700015E+02  0.13274081788E+03  0.00000000000E+00 0. -1.
          1    1    1    2  501    0  0.42016253625E+02  0.38073062754E+02 -0.85033195193E+02  0.10220356139E+03  0.00000000000E+00 0. -1.
<scales pt_clust_5="13000.00000" pt_clust_6="13000.00000" pt_clust_7="13000.00000" pt_clust_8="13000.00000" pt_clust_9="88.98786" pt_clust_10="56.70030"></scales>
<clustering>
<clus scale="   56.700">  2 10  1 -1</clus>
<clus scale="   82.049">  5  6 -1 -1</clus>
<clus scale="   86.299">  7  8 -1 -1</clus>
<clus scale="   88.988">  1  9  2 -1</clus>
<clus scale="   94.526">  2  5  1 -1</clus>
<clus scale="   56.700">  2  5  1 -1</clus>
</clustering>
</event>
<event>
10    4  0.2977685E-005  0.1011995E+03  0.7546771E-02  0.1282680E+00
         21   -1    0    0  501  502  0.00000000000E+00  0.00000000000E+00  0.11689112054E+03  0.11689112054E+03  0.00000000000E+00 0.  1.
          2   -1    0    0  503    0 -0.00000000000E+00 -0.00000000000E+00 -0.73324024444E+03  0.73324024444E+03  0.00000000000E+00 0. -1.
         24    2    1    2    0    0  0.50199799385E+02 -0.34451222401E+02 -0.52169172033E+03  0.53160887423E+03  0.82090422769E+02 0.  0.
         23    2    1    2    0    0 -0.35158018225E+02 -0.10124095277E+02  0.93804770858E+00  0.99075017971E+02  0.92067343297E+02 0.  0.
        -11    1    3    3    0    0  0.16525731847E+02  0.27114544522E+02 -0.14492109819E+03  0.14835910163E+03  0.00000000000E+00 0.  1.
         12    1    3    3    0    0  0.33674067538E+02 -0.61565766923E+02 -0.37677062214E+03  0.38324977259E+03  0.00000000000E+00 0. -1.
        -11    1    4    4    0    0 -0.27527661616E+02 -0.50749594660E+02  0.50714464144E+00  0.57736909407E+02  0.00000000000E+00 0. -1.
         11    1    4    4    0    0 -0.76303566095E+01  0.40625499383E+02  0.43090306714E+00  0.41338108563E+02  0.00000000000E+00 0.  1.
         21    1    1    2  503  502 -0.10156870357E+02  0.23207990652E+02 -0.15451763388E+03  0.15658056081E+03  0.00000000000E+00 0. -1.
          1    1    1    2  501    0 -0.48849108030E+01  0.21367327026E+02  0.58922182600E+02  0.62866911966E+02  0.00000000000E+00 0. -1.
<scales pt_clust_5="13000.00000" pt_clust_6="13000.00000" pt_clust_7="13000.00000" pt_clust_8="13000.00000" pt_clust_9="25.72999" pt_clust_10="21.91860"></scales>
<clustering>
<clus scale="   21.919">  1 10  2 -1</clus>
<clus scale="   25.730">  2  9  1 -1</clus>
<clus scale="   82.090">  5  6 -1 -1</clus>
<clus scale="   92.067">  7  8 -1 -1</clus>
<clus scale="   92.216">  2  5  1 -1</clus>
<clus scale="   21.919">  1  5  2 -1</clus>
</clustering>
</event>
<event>
10    4  0.2977685E-005  0.1149664E+03  0.7546771E-02  0.1255620E+00
         21   -1    0    0  503  502  0.00000000000E+00  0.00000000000E+00  0.22753686729E+02  0.22753686729E+02  0.00000000000E+00 0. -1.
         -3   -1    0    0    0  501 -0.00000000000E+00 -0.00000000000E+00 -0.10448252996E+04  0.10448252996E+04  0.00000000000E+00 0.  1.
         23    2    1    2    0    0  0.53298961531E+02  0.56369423105E+02 -0.50627974776E+03  0.52028990465E+03  0.91455512275E+02 0.  0.
         24    2    1    2    0    0 -0.29930139527E+02 -0.49564182036E+02 -0.20687285074E+03  0.22930347376E+03  0.80195294801E+02 0.  0.
        -11    1    4    4    0    0 -0.27241626255E+02 -0.57720110470E+02 -0.21051315160E+03  0.21997614496E+03  0.00000000000E+00 0.  1.
         12    1    4    4    0    0 -0.26885132719E+01  0.81559284340E+01  0.36403008540E+01  0.93273287999E+01  0.00000000000E+00 0. -1.
        -13    1    3    3    0    0  0.78670898384E+02  0.51639199376E+02 -0.40039701901E+03  0.41130705076E+03  0.00000000000E+00 0.  1.
         13    1    3    3    0    0 -0.25371936853E+02  0.47302237288E+01 -0.10588272875E+03  0.10898285390E+03  0.00000000000E+00 0. -1.
         21    1    1    2  503  501  0.11736656506E+02 -0.28184791578E+02 -0.84800726900E+02  0.90129323003E+02  0.00000000000E+00 0. -1.
         -4    1    1    2    0  502 -0.35105478510E+02  0.21379550509E+02 -0.22411828745E+03  0.22785628491E+03  0.00000000000E+00 0.  1.
<scales pt_clust_5="13000.00000" pt_clust_6="13000.00000" pt_clust_7="13000.00000" pt_clust_8="13000.00000" pt_clust_9="30.53083" pt_clust_10="38.84282"></scales>
<clustering>
<clus scale="   30.531">  1  9  2 -1</clus>
<clus scale="   38.843">  1 10  2 -1</clus>
<clus scale="   80.195">  5  6 -1 -1</clus>
<clus scale="   91.456">  7  8 -1 -1</clus>
<clus scale="  106.228">  1  5  2 -1</clus>
<clus scale="   30.531">  1  5  2 -1</clus>
</clustering>
</event>
<event>
10    4  0.2977685E-005  0.1944259E+03  0.7546771E-02  0.1155473E+00
          2   -1    0    0  503    0 -0.00000000000E+00  0.00000000000E+00  0.10340232803E+04  0.10340232803E+04  0.00000000000E+00 0. -1.
         21   -1    0    0  501  502  0.00000000000E+00 -0.00000000000E+00 -0.21423457681E+03  0.21423457681E+03  0.00000000000E+00 0. -1.
         24    2    1    2    0    0  0.19427716709E+03  0.49391594552E+02  0.75867149198E+03  0.78880441638E+03  0.80292137247E+02 0.  0.
         23    2    1    2    0    0 -0.17649770422E+03  0.19626782300E+02 -0.19196233566E+02  0.19997884780E+03  0.89924379394E+02 0.  0.
        -13    1    3    3    0    0  0.10858979794E+03  0.37290107067E+02  0.28437714811E+03  0.30668005914E+03  0.00000000000E+00 0.  1.
         14    1    3    3    0    0  0.85687369142E+02  0.12101487485E+02  0.47429434387E+03  0.48212435725E+03  0.00000000000E+00 0. -1.
        -11    1    4    4    0    0 -0.34970886399E+02 -0.15369303886E+02  0.27303032239E+02  0.46953529867E+02  0.00000000000E+00 0.  1.
         11    1    4    4    0    0 -0.14152681782E+03  0.34996086187E+02 -0.46499265805E+02  0.15302531794E+03  0.00000000000E+00 0. -1.
         21    1    1    2  503  502 -0.25939598136E+02 -0.40209723367E+02  0.16387096869E+03  0.17071431980E+03  0.00000000000E+00 0.  1.
          1    1    1    2  501    0  0.81601352659E+01 -0.28808653485E+02 -0.83557523637E+02  0.88760273093E+02  0.00000000000E+00 0. -1.
<scales pt_clust_5="13000.00000" pt_clust_6="13000.00000" pt_clust_7="13000.00000" pt_clust_8="13000.00000" pt_clust_9="48.38295" pt_clust_10="29.94205"></scales>
<clustering>
<clus scale="   29.942">  2 10  1 -1</clus>
<clus scale="   48.383">  1  9  2 -1</clus>
<clus scale="   80.292">  5  6 -1 -1</clus>
<clus scale="   89.924">  7  8 -1 -1</clus>
<clus scale="  190.163">  1  5  2 -1</clus>
<clus scale="   29.942">  2  5  1 -1</clus>
</clustering>
</event>
<event>
10    4  0.2977685E-005  0.8072938E+02  0.7546771E-02  0.1328145E+00
         -3   -1    0    0    0  501 -0.00000000000E+00  0.00000000000E+00  0.75882379633E+02  0.75882379633E+02  0.00000000000E+00 0.  1.
         21   -1    0    0  503  502  0.00000000000E+00 -0.00000000000E+00 -0.39878886657E+03  0.39878886657E+03  0.00000000000E+00 0. -1.
         24    2    1    2    0    0 -0.45495702907E+01  0.27783669952E+02  0.10682134541E+01  0.85408769836E+02  0.80628071905E+02 0.  0.
         23    2    1    2    0    0  0.12339250582E+02 -0.19169646861E+02 -0.27218250135E+03  0.28433131178E+03  0.79001571835E+02 0.  0.
        -13    1    3    3    0    0  0.12084314106E+02  0.47141989269E+02  0.21021021646E+02  0.53012084949E+02  0.00000000000E+00 0.  1.
         14    1    3    3    0    0 -0.16633884397E+02 -0.19358319317E+02 -0.19952808192E+02  0.32396684887E+02  0.00000000000E+00 0. -1.
        -11    1    4    4    0    0 -0.29836726719E+02  0.45379799642E+01 -0.66388093515E+02  0.72926006911E+02  0.00000000000E+00 0.  1.
         11    1    4    4    0    0  0.42175977301E+02 -0.23707626825E+02 -0.20579440783E+03  0.21140530487E+03  0.00000000000E+00 0. -1.
         21    1    1    2  503  501  0.35721421250E+01 -0.45563247332E+02 -0.77930207396E+01  0.46362710005E+02  0.00000000000E+00 0. -1.
         -4    1    1    2    0  502 -0.11361822416E+02  0.36949224241E+02 -0.43999178301E+02  0.58568454579E+02  0.00000000000E+00 0.  1.
<scales pt_clust_5="13000.00000" pt_clust_6="13000.00000" pt_clust_7="13000.00000" pt_clust_8="13000.00000" pt_clust_9="42.76861" pt_clust_10="38.65664"></scales>
<clustering>
<clus scale="   38.657">  2 10  1 -1</clus>
<clus scale="   42.769">  1  9  2 -1</clus>
<clus scale="   79.002">  7  8 -1 -1</clus>
<clus scale="   79.105">  2  7  1 -1</clus>
<clus scale="   80.628">  5  6 -1 -1</clus>
<clus scale="   38.657">  2  5  1 -1</clus>
</clustering>
</event>
<event>
10    4  0.2977685E-005  0.1427754E+03  0.7546771E-02  0.1227456E+00
         -1   -1    0    0    0  501 -0.00000000000E+00  0.00000000000E+00  0.92002469349E+03  0.92002469349E+03  0.00000000000E+00 0.  1.
         21   -1    0    0  503  502  0.00000000000E+00 -0.00000000000E+00 -0.66944538437E+02  0.66944538437E+02  0.00000000000E+00 0.  1.
         24    2    1    2    0    0 -0.58133659553E+02  0.54565904899E+02  0.19257055194E+03  0.22310812614E+03  0.79604385079E+02 0.  0.
         23    2    1    2    0    0  0.11973718873E+03  0.17601314251E+02  0.17040087605E+03  0.22740817776E+03  0.89617074982E+02 0.  0.
        -13    1    3    3    0    0 -0.35869600215E+02  0.45549109662E+02  0.44458736983E+02  0.73061131285E+02  0.00000000000E+00 0.  1.
         14    1    3    3    0    0 -0.22264059338E+02  0.90167952375E+01  0.14811181495E+03  0.15004699485E+03  0.00000000000E+00 0. -1.
        -11    1    4    4    0    0  0.97246555365E+02 -0.41755371595E+01  0.63986279344E+02  0.11648421174E+03  0.00000000000E+00 0.  1.
         11    1    4    4    0    0  0.22490633363E+02  0.21776851410E+02  0.10641459670E+03  0.11092396602E+03  0.00000000000E+00 0. -1.
         21    1    1    2  503  501  0.39256883231E+02 -0.42836778545E+02  0.37947759788E+03  0.38390016901E+03  0.00000000000E+00 0.  1.
         -2    1    1    2    0  502 -0.10086041241E+03 -0.29330440605E+02  0.11063112919E+03  0.15255275901E+03  0.00000000000E+00 0.  1.
<scales pt_clust_5="13000.00000" pt_clust_6="13000.00000" pt_clust_7="13000.00000" pt_clust_8="13000.00000" pt_clust_9="58.10415" pt_clust_10="111.14671"></scales>
<clustering>
<clus scale="   58.104">  1  9  2 -1</clus>
<clus scale="   79.604">  5  6 -1 -1</clus>
<clus scale="   89.617">  7  8 -1 -1</clus>
<clus scale="   98.133">  1  5  2 -1</clus>
<clus scale="  111.147">  2 10  1 -1</clus>
<clus scale="  111.147">  2  5  1 -1</clus>
</clustering>
</event>
<event>
10    4  0.2977685E-005  0.1441717E+03  0.7546771E-02  0.1209198E+00
         21   -1    0    0  501  502  0.00000000000E+00  0.00000000000E+00  0.61220952736E+03  0.61220952736E+03  0.00000000000E+00 0.  1.
          4   -1    0    0  503    0 -0.00000000000E+00 -0.00000000000E+00 -0.10698438943E+03  0.10698438943E+03  0.00000000000E+00 0. -1.
         23    2    1    2    0    0  0.38956693484E+02 -0.58091953114E+02 -0.28988050257E+02  0.11850515347E+03  0.91163947691E+02 0.  0.
         24    2    1    2    0    0 -0.74504450633E+02  0.41716552414E+02  0.41708404626E+03  0.43674864973E+03  0.97463313550E+02 0.  0.
        -13    1    4    4    0    0 -0.48697700393E+02  0.71978005522E+02  0.32550952369E+03  0.33691059543E+03  0.00000000000E+00 0.  1.
         14    1    4    4    0    0 -0.25806750240E+02 -0.30261453107E+02  0.91574522572E+02  0.99838054300E+02  0.00000000000E+00 0. -1.
        -13    1    3    3    0    0  0.63089148261E+02 -0.61396655469E+02 -0.32612029668E+02  0.93879360939E+02  0.00000000000E+00 0. -1.
         13    1    3    3    0    0 -0.24132454778E+02  0.33047023550E+01  0.36239794117E+01  0.24625792536E+02  0.00000000000E+00 0.  1.
         21    1    1    2  503  502  0.53412909600E+02 -0.25648586951E+02  0.32009315281E+02  0.67345268499E+02  0.00000000000E+00 0.  1.
          3    1    1    2  501    0 -0.17865152450E+02  0.42023987650E+02  0.85119826646E+02  0.96594845092E+02  0.00000000000E+00 0. -1.
<scales pt_clust_5="13000.00000" pt_clust_6="13000.00000" pt_clust_7="13000.00000" pt_clust_8="13000.00000" pt_clust_9="56.05769" pt_clust_10="45.66376"></scales>
<clustering>
<clus scale="   45.664">  1 10  2 -1</clus>
<clus scale="   56.058">  2  9  1 -1</clus>
<clus scale="   91.164">  7  8 -1 -1</clus>
<clus scale="   97.463">  5  6 -1 -1</clus>
<clus scale="  139.990">  2  7  1 -1</clus>
<clus scale="   45.664">  1  5  2 -1</clus>
</clustering>
</event>
<event>
10    4  0.2977685E-005  0.2648768E+03  0.7546771E-02  0.1104248E+00
         -1   -1    0    0    0  501 -0.00000000000E+00  0.00000000000E+00  0.70102553215E+03  0.70102553215E+03  0.00000000000E+00 0.  1.
         21   -1    0    0  503  502  0.00000000000E+00 -0.00000000000E+00 -0.22338920356E+03  0.22338920356E+03  0.00000000000E+00 0. -1.
         24    2    1    2    0    0  0.10822029693E+03  0.38813362345E+02 -0.22168568494E+02  0.14290865708E+03  0.81934907548E+02 0.  0.
         23    2    1    2    0    0  0.46202503908E+02  0.95150944059E+02 -0.10420275645E+02  0.13991594053E+03  0.90991838906E+02 0.  0.
        -13    1    3    3    0    0  0.79274882114E+02 -0.11847918641E+02  0.91644093737E+00  0.80160588660E+02  0.00000000000E+00 0.  1.
         14    1    3    3    0    0  0.28945414819E+02  0.50661280986E+02 -0.23085009431E+02  0.62748068422E+02  0.00000000000E+00 0. -1.
        -11    1    4    4    0    0 -0.16919234098E+02  0.46890541302E+02  0.21498076319E+02  0.54287665556E+02  0.00000000000E+00 0.  1.
         11    1    4    4    0    0  0.63121738005E+02  0.48260402757E+02 -0.31918351965E+02  0.85628274975E+02  0.00000000000E+00 0. -1.
         21    1    1    2  503  501 -0.41853677382E+01 -0.64505999506E+02  0.46573344405E+03  0.47019802444E+03  0.00000000000E+00 0.  1.
         -2    1    1    2    0  502 -0.15023743310E+03 -0.69458306899E+02  0.44491728681E+02  0.17139211366E+03  0.00000000000E+00 0.  1.
<scales pt_clust_5="13000.00000" pt_clust_6="13000.00000" pt_clust_7="13000.00000" pt_clust_8="13000.00000" pt_clust_9="64.64164" pt_clust_10="181.72739"></scales>
<clustering>
<clus scale="   64.642">  1  9  2 -1</clus>
<clus scale="   81.935">  5  6 -1 -1</clus>
<clus scale="   90.992">  7  8 -1 -1</clus>
<clus scale="  117.549">  5  7 -1 -1</clus>
<clus scale="  181.727">  2 10  1 -1</clus>
<clus scale="  181.727">  2  5  1 -1</clus>
</clustering>
</event>
<event>
10    4  0.2977685E-005  0.1205854E+03  0.7546771E-02  0.1244265E+00
         21   -1    0    0  501  502  0.00000000000E+00  0.00000000000E+00  0.70135271929E+02  0.70135271929E+02  0.00000000000E+00 0. -1.
          2   -1    0    0  503    0 -0.00000000000E+00 -0.00000000000E+00 -0.60199925809E+03  0.60199925809E+03  0.00000000000E+00 0. -1.
         23    2    1    2    0    0  0.58765314682E+01 -0.11358648327E+03 -0.20621151098E+03  0.25243611777E+03  0.90908654661E+02 0.  0.
         24    2    1    2    0    0  0.17342745221E+02  0.31668527587E+02 -0.92171274650E+02  0.13879015972E+03  0.97280512510E+02 0.  0.
        -11    1    4    4    0    0  0.18482936756E+02  0.49244434804E+02 -0.84950583011E+01  0.53280384062E+02  0.00000000000E+00 0.  1.
         12    1    4    4    0    0 -0.11401915348E+01 -0.17575907217E+02 -0.83676216349E+02  0.85509775662E+02  0.00000000000E+00 0. -1.
        -11    1    3    3    0    0  0.28197161879E+02 -0.52173463876E+02 -0.16462505660E+03  0.17498159769E+03  0.00000000000E+00 0.  1.
         11    1    3    3    0    0 -0.22320630410E+02 -0.61413019394E+02 -0.41586454380E+02  0.77454520080E+02  0.00000000000E+00 0. -1.
         21    1    1    2  503  502 -0.64144419282E+02  0.35982841714E+02 -0.19483726427E+03  0.20825664689E+03  0.00000000000E+00 0. -1.
          1    1    1    2  501    0  0.40925142593E+02  0.45935113969E+02 -0.38643936253E+02  0.72651605630E+02  0.00000000000E+00 0. -1.
<scales pt_clust_5="13000.00000" pt_clust_6="13000.00000" pt_clust_7="13000.00000" pt_clust_8="13000.00000" pt_clust_9="72.27775" pt_clust_10="61.52156"></scales>
<clustering>
<clus scale="   61.522">  1 10  2 -1</clus>
<clus scale="   72.278">  2  9  1 -1</clus>
<clus scale="   90.909">  7  8 -1 -1</clus>
<clus scale="   97.281">  5  6 -1 -1</clus>
<clus scale="  115.506">  2  7  1 -1</clus>
<clus scale="   61.522">  1  5  2 -1</clus>
</clustering>
</event>
<event>
10    4  0.2977685E-005  0.1714368E+03  0.7546771E-02  0.1178008E+00
         21   -1    0    0  503  502  0.00000000000E+00  0.00000000000E+00  0.54307633914E+03  0.54307633914E+03  0.00000000000E+00 0.  1.
         -1   -1    0    0    0  501 -0.00000000000E+00 -0.00000000000E+00 -0.16970424454E+03  0.16970424454E+03  0.00000000000E+00 0.  1.
         24    2    1    2    0    0  0.12311339297E+03 -0.12447538554E+03  0.16343327180E+03  0.25254721686E+03  0.80116373348E+02 0.  0.
         23    2    1    2    0    0 -0.11427202230E+03  0.26101380028E+02  0.23516066837E+03  0.27851414875E+03  0.92359157582E+02 0.  0.
        -13    1    3    3    0    0  0.11081464169E+03 -0.13280547059E+03  0.16302799519E+03  0.23768741037E+03  0.00000000000E+00 0.  1.
         14    1    3    3    0    0  0.12298751277E+02  0.83300850480E+01  0.40527661200E+00  0.14859806493E+02  0.00000000000E+00 0. -1.
        -13    1    4    4    0    0 -0.60948327615E+02 -0.18298492857E+02  0.17660530654E+03  0.18772045114E+03  0.00000000000E+00 0.  1.
         13    1    4    4    0    0 -0.53323694681E+02  0.44399872886E+02  0.58555361830E+02  0.90793697610E+02  0.00000000000E+00 0. -1.
         21    1    1    2  503  501  0.68613337623E+02  0.47296017576E+02  0.66929694897E+01  0.83603224931E+02  0.00000000000E+00 0.  1.
         -2    1    1    2    0  502 -0.77454708292E+02  0.51077987940E+02 -0.31914815062E+02  0.98115993136E+02  0.00000000000E+00 0.  1.
<scales pt_clust_5="13000.00000" pt_clust_6="13000.00000" pt_clust_7="13000.00000" pt_clust_8="13000.00000" pt_clust_9="83.33489" pt_clust_10="86.25868"></scales>
<clustering>
<clus scale="   80.116">  5  6 -1 -1</clus>
<clus scale="   83.335">  2  9  1 -1</clus>
<clus scale="   86.259">  1 10  2 -1</clus>
<clus scale="   92.359">  7  8 -1 -1</clus>
<clus scale="  165.164">  2  5  1 -1</clus>
<clus scale="   86.259">  1  5  2 -1</clus>
</clustering>
</event>
<event>
10    4  0.2977685E-005  0.1455452E+03  0.7546771E-02  0.1208793E+00
         -3   -1    0    0    0  501 -0.00000000000E+00  0.00000000000E+00  0.49161395245E+03  0.49161395245E+03  0.00000000000E+00 0.  1.
         21   -1    0    0  503  502  0.00000000000E+00 -0.00000000000E+00 -0.11631454285E+03  0.11631454285E+03  0.00000000000E+00 0. -1.
         24    2    1    2    0    0  0.46876156800E+02  0.91199063757E+02  0.20285290910E+03  0.24095116602E+03  0.79959479531E+02 0.  0.
         23    2    1    2    0    0 -0.89997189102E+02 -0.61973523535E+02  0.24048127637E+02  0.14580192684E+03  0.93486243699E+02 0.  0.
        -11    1    3    3    0    0  0.38053419738E+02  0.52676258384E+02  0.47086584196E+02  0.80249594157E+02  0.00000000000E+00 0.  1.
         12    1    3    3    0    0  0.88227370617E+01  0.38522805373E+02  0.15576632491E+03  0.16070157186E+03  0.00000000000E+00 0. -1.
        -11    1    4    4    0    0 -0.25002197088E+02 -0.23600825413E+02 -0.35680898973E+02  0.49550331693E+02  0.00000000000E+00 0. -1.
         11    1    4    4    0    0 -0.64994992014E+02 -0.38372698122E+02  0.59729026610E+02  0.96251595144E+02  0.00000000000E+00 0.  1.
         21    1    1    2  503  501  0.26694490983E+02  0.93081907449E+01  0.17117553866E+03  0.17349438982E+03  0.00000000000E+00 0.  1.
         -4    1    1    2    0  502  0.16426541319E+02 -0.38533730967E+02 -0.22777165808E+02  0.47681012617E+02  0.00000000000E+00 0.  1.
<scales pt_clust_5="13000.00000" pt_clust_6="13000.00000" pt_clust_7="13000.00000" pt_clust_8="13000.00000" pt_clust_9="28.27080" pt_clust_10="41.97763"></scales>
<clustering>
<clus scale="   28.271">  1  9  2 -1</clus>
<clus scale="   41.978">  2 10  1 -1</clus>
<clus scale="   79.959">  5  6 -1 -1</clus>
<clus scale="   93.486">  7  8 -1 -1</clus>
<clus scale="  137.249">  1  5  2 -1</clus>
<clus scale="   41.978">  2  5  1 -1</clus>
</clustering>
</event>
<event>
10    4  0.2977685E-005  0.1390541E+03  0.7546771E-02  0.1231205E+00
          2   -1    0    0  503    0 -0.00000000000E+00  0.00000000000E+00  0.54788708196E+03  0.54788708196E+03  0.00000000000E+00 0. -1.
         21   -1    0    0  501  502  0.00000000000E+00 -0.00000000000E+00 -0.20870414849E+03  0.20870414849E+03  0.00000000000E+00 0.  1.
         23    2    1    2    0    0  0.18338208070E+02 -0.15078478729E+02  0.42333819768E+03  0.43391432410E+03  0.92210415103E+02 0.  0.
         24    2    1    2    0    0  0.32016771380E+02 -0.93544023223E+02 -0.78705854928E+02  0.14972279721E+03  0.80291633905E+02 0.  0.
        -11    1    4    4    0    0  0.49604995121E+02 -0.96279671037E+02 -0.74431141269E+02  0.13141699048E+03  0.00000000000E+00 0.  1.
         12    1    4    4    0    0 -0.17588223741E+02  0.27356478138E+01 -0.42747136591E+01  0.18305806734E+02  0.00000000000E+00 0. -1.
        -11    1    3    3    0    0  0.50765799804E+02  0.10684409001E+02  0.27758593592E+03  0.28239205876E+03  0.00000000000E+00 0. -1.
         11    1    3    3    0    0 -0.32427591734E+02 -0.25762887731E+02  0.14575226175E+03  0.15152226535E+03  0.00000000000E+00 0.  1.
         21    1    1    2  503  502 -0.57140102936E+01 -0.19512277483E+02  0.26650402876E+02  0.33520484180E+02  0.00000000000E+00 0.  1.
          1    1    1    2  501    0 -0.44640969156E+02  0.12813477944E+03 -0.32099812150E+02  0.13943362496E+03  0.00000000000E+00 0. -1.
<scales pt_clust_5="13000.00000" pt_clust_6="13000.00000" pt_clust_7="13000.00000" pt_clust_8="13000.00000" pt_clust_9="20.33172" pt_clust_10="113.53109"></scales>
<clustering>
<clus scale="   20.332">  1  9  2 -1</clus>
<clus scale="   80.292">  5  6 -1 -1</clus>
<clus scale="   92.210">  7  8 -1 -1</clus>
<clus scale="   98.302">  1  7  2 -1</clus>
<clus scale="  113.531">  2 10  1 -1</clus>
<clus scale="  113.531">  2  5  1 -1</clus>
</clustering>
</event>
<event>
10    4  0.2977685E-005  0.1114673E+03  0.7546771E-02  0.1261817E+00
         21   -1    0    0  501  502  0.00000000000E+00  0.00000000000E+00  0.27001910716E+03  0.27001910716E+03  0.00000000000E+00 0.  1.
          2   -1    0    0  503    0 -0.00000000000E+00 -0.00000000000E+00 -0.38875305229E+03  0.38875305229E+03  0.00000000000E+00 0. -1.
         24    2    1    2    0    0 -0.58008532883E+02  0.60400312447E+02 -0.21187613415E+03  0.24135658032E+03  0.79676314000E+02 0.  0.
         23    2    1    2    0    0  0.13253020530E+02 -0.11168482852E+03  0.17389004620E+03  0.22587301293E+03  0.90176085144E+02 0.  0.
        -11    1    3    3    0    0 -0.22430918422E+02 -0.18477551767E+02 -0.53031083599E+02  0.60471992263E+02  0.00000000000E+00 0.  1.
         12    1    3    3    0    0 -0.35577614461E+02  0.78877864214E+02 -0.15884505055E+03  0.18088458806E+03  0.00000000000E+00 0. -1.
        -13    1    4    4    0    0 -0.11924235949E+02 -0.30966652660E+02  0.12252798001E+03  0.12694182472E+03  0.00000000000E+00 0.  1.
         13    1    4    4    0    0  0.25177256479E+02 -0.80718175857E+02  0.51362066192E+02  0.98931188212E+02  0.00000000000E+00 0. -1.
         21    1    1    2  503  502  0.21872219638E+02 -0.13606387274E+02 -0.11275143305E+03  0.11565644566E+03  0.00000000000E+00 0.  1.
          1    1    1    2  501    0  0.22883292715E+02  0.64890903344E+02  0.32003575872E+02  0.75886120542E+02  0.00000000000E+00 0. -1.
<scales pt_clust_5="13000.00000" pt_clust_6="13000.00000" pt_clust_7="13000.00000" pt_clust_8="13000.00000" pt_clust_9="25.75903" pt_clust_10="68.39289"></scales>
<clustering>
<clus scale="   25.759">  2  9  1 -1</clus>
<clus scale="   68.393">  1 10  2 -1</clus>
<clus scale="   79.676">  5  6 -1 -1</clus>
<clus scale="   90.176">  7  8 -1 -1</clus>
<clus scale="  103.158">  2  5  1 -1</clus>
<clus scale="   68.393">  1  5  2 -1</clus>
</clustering>
</event>
<event>
10    4  0.2977685E-005  0.2753239E+03  0.7546771E-02  0.1134064E+00
         21   -1    0    0  501  502  0.00000000000E+00  0.00000000000E+00  0.41563452778E+03  0.41563452778E+03  0.00000000000E+00 0. -1.
          2   -1    0    0  503    0 -0.00000000000E+00 -0.00000000000E+00 -0.16674318709E+04  0.16674318709E+04  0.00000000000E+00 0. -1.
         24    2    1    2    0    0  0.70969353352E+02 -0.27218402471E+02 -0.11245487693E+03  0.15853744255E+03  0.81917829540E+02 0.  0.
         23    2    1    2    0    0 -0.32890478382E+03  0.17532893057E+03  0.20757034409E+01  0.38388514497E+03  0.91896165708E+02 0.  0.
        -13    1    3    3    0    0  0.13553196606E+02 -0.15522367331E+02 -0.95271425935E+02  0.97474497308E+02  0.00000000000E+00 0.  1.
         14    1    3    3    0    0  0.57416156746E+02 -0.11696035140E+02 -0.17183450995E+02  0.61062945242E+02  0.00000000000E+00 0. -1.
        -11    1    4    4    0    0 -0.14008459026E+03  0.68986720039E+02  0.45973347800E+02  0.16277717493E+03  0.00000000000E+00 0. -1.
         11    1    4    4    0    0 -0.18882019356E+03  0.10634221053E+03 -0.43897644359E+02  0.22110797004E+03  0.00000000000E+00 0.  1.
         21    1    1    2  503  502  0.16933532931E+03  0.72435738732E+02 -0.12611388659E+04  0.12745166257E+04  0.00000000000E+00 0. -1.
          1    1    1    2  501    0  0.88600101162E+02 -0.22054626683E+03  0.11972069627E+03  0.26612718549E+03  0.00000000000E+00 0. -1.
<scales pt_clust_5="13000.00000" pt_clust_6="13000.00000" pt_clust_7="13000.00000" pt_clust_8="13000.00000" pt_clust_9="233.46664" pt_clust_10="259.53489"></scales>
<clustering>
<clus scale="   81.918">  5  6 -1 -1</clus>
<clus scale="   91.896">  7  8 -1 -1</clus>
<clus scale="  111.750">  2  5  1 -1</clus>
<clus scale="  233.467">  2  9  1 -1</clus>
<clus scale="  259.535">  1 10  2 -1</clus>
<clus scale="  259.535">  1  5  2 -1</clus>
</clustering>
</event>
<event>
10    4  0.2977685E-005  0.1063504E+03  0.7546771E-02  0.1272825E+00
          2   -1    0    0  503    0 -0.00000000000E+00  0.00000000000E+00  0.30067670338E+03  0.30067670338E+03  0.00000000000E+00 0. -1.
         21   -1    0    0  501  502  0.00000000000E+00 -0.00000000000E+00 -0.17213746211E+03  0.17213746211E+03  0.00000000000E+00 0. -1.
         23    2    1    2    0    0 -0.36538928370E+02  0.22837812636E+02  0.10470111178E+03  0.14565561331E+03  0.91632832038E+02 0.  0.
         24    2    1    2    0    0  0.36275663235E+02 -0.22684208521E+02 -0.71332914559E+02  0.11490937225E+03  0.79279770885E+02 0.  0.
        -13    1    4    4    0    0  0.55059719523E+02 -0.17727850034E+02 -0.21994113348E+02  0.61883684463E+02  0.00000000000E+00 0.  1.
         14    1    4    4    0    0 -0.18784056288E+02 -0.49563584875E+01 -0.49338801211E+02  0.53025687785E+02  0.00000000000E+00 0. -1.
        -11    1    3    3    0    0  0.86727903498E+01  0.25543571632E+02 -0.45786278435E+01  0.27361563864E+02  0.00000000000E+00 0.  1.
         11    1    3    3    0    0 -0.45211718720E+02 -0.27057589959E+01  0.10927973962E+03  0.11829404944E+03  0.00000000000E+00 0. -1.
         21    1    1    2  503  502 -0.20211094287E+02 -0.11127940014E+01  0.15122066021E+03  0.15256937673E+03  0.00000000000E+00 0. -1.
          1    1    1    2  501    0  0.20474359422E+02  0.95918988663E+00 -0.56049616153E+02  0.59679803199E+02  0.00000000000E+00 0. -1.
<scales pt_clust_5="13000.00000" pt_clust_6="13000.00000" pt_clust_7="13000.00000" pt_clust_8="13000.00000" pt_clust_9="20.24171" pt_clust_10="20.24988"></scales>
<clustering>
<clus scale="   20.242">  1  9  2 -1</clus>
<clus scale="   20.250">  2 10  1 -1</clus>
<clus scale="   79.280">  5  6 -1 -1</clus>
<clus scale="   91.633">  7  8 -1 -1</clus>
<clus scale="   95.912">  2  5  1 -1</clus>
<clus scale="   20.250">  2  5  1 -1</clus>
</clustering>
</event>
<event>
10    4  0.2977685E-005  0.1365563E+03  0.7546771E-02  0.1220113E+00
         21   -1    0    0  501  502  0.00000000000E+00  0.00000000000E+00  0.97064142718E+02  0.97064142718E+02  0.00000000000E+00 0. -1.
          2   -1    0    0  503    0 -0.00000000000E+00 -0.00000000000E+00 -0.54442424256E+03  0.54442424256E+03  0.00000000000E+00 0. -1.
         24    2    1    2    0    0 -0.39678286368E+02 -0.11556247231E+03 -0.27598023497E+03  0.31278085068E+03  0.82083610068E+02 0.  0.
         23    2    1    2    0    0  0.13296136816E+02  0.88297201206E+02 -0.28962743244E+01  0.12758006882E+03  0.91077453633E+02 0.  0.
        -11    1    3    3    0    0  0.95360114498E+01 -0.25676677314E+02 -0.12566038624E+02  0.30135238492E+02  0.00000000000E+00 0.  1.
         12    1    3    3    0    0 -0.49214297818E+02 -0.89885794993E+02 -0.26341419635E+03  0.28264561219E+03  0.00000000000E+00 0. -1.
        -13    1    4    4    0    0 -0.12013423250E+02  0.86847466703E+02  0.23716233375E+02  0.90825461939E+02  0.00000000000E+00 0. -1.
         13    1    4    4    0    0  0.25309560067E+02  0.14497345024E+01 -0.26612507700E+02  0.36754606881E+02  0.00000000000E+00 0.  1.
         21    1    1    2  503  502 -0.11190866458E+02  0.29162176327E+02 -0.15939182816E+03  0.16242359097E+03  0.00000000000E+00 0.  1.
          1    1    1    2  501    0  0.37573016010E+02 -0.18969052261E+01 -0.90917623817E+01  0.38703874802E+02  0.00000000000E+00 0. -1.
<scales pt_clust_5="13000.00000" pt_clust_6="13000.00000" pt_clust_7="13000.00000" pt_clust_8="13000.00000" pt_clust_9="31.23569" pt_clust_10="36.87577"></scales>
<clustering>
<clus scale="   31.236">  2  9  1 -1</clus>
<clus scale="   36.876">  1 10  2 -1</clus>
<clus scale="   82.084">  5  6 -1 -1</clus>
<clus scale="   91.077">  7  8 -1 -1</clus>
<clus scale="  130.730">  2  5  1 -1</clus>
<clus scale="   36.876">  1  5  2 -1</clus>
</clustering>
</event>
<event>
10    4  0.2977685E-005  0.1299369E+03  0.7546771E-02  0.1240447E+00
         -1   -1    0    0    0  501 -0.00000000000E+00  0.00000000000E+00  0.37146951646E+03  0.37146951646E+03  0.00000000000E+00 0.  1.
         21   -1    0    0  503  502  0.00000000000E+00 -0.00000000000E+00 -0.17657478966E+03  0.17657478966E+03  0.00000000000E+00 0.  1.
         24    2    1    2    0    0  0.64798110924E+02  0.16954715551E+02 -0.97480426109E+02  0.13882069877E+03  0.72680777191E+02 0.  0.
         23    2    1    2    0    0  0.14183000039E+02  0.20234646532E+02  0.24141791435E+03  0.25965862462E+03  0.92354715970E+02 0.  0.
        -13    1    3    3    0    0  0.72000210407E+02  0.29542289337E+02 -0.96931417439E+02  0.12430799188E+03  0.00000000000E+00 0.  1.
         14    1    3    3    0    0 -0.72020994823E+01 -0.12587573786E+02 -0.54900866993E+00  0.14512706890E+02  0.00000000000E+00 0. -1.
        -13    1    4    4    0    0 -0.32170239277E+02  0.31971610958E+02  0.14676789376E+03  0.15361615423E+03  0.00000000000E+00 0.  1.
         13    1    4    4    0    0  0.46353239316E+02 -0.11736964426E+02  0.94650020594E+02  0.10604247040E+03  0.00000000000E+00 0. -1.
         21    1    1    2  503  501  0.17159905844E+02  0.21628178524E+02  0.13993501880E+02  0.30952521217E+02  0.00000000000E+00 0.  1.
         -2    1    1    2    0  502 -0.96141016807E+02 -0.58817540607E+02  0.36963736687E+02  0.11861246151E+03  0.00000000000E+00 0.  1.
<scales pt_clust_5="13000.00000" pt_clust_6="13000.00000" pt_clust_7="13000.00000" pt_clust_8="13000.00000" pt_clust_9="27.60870" pt_clust_10="91.40132"></scales>
<clustering>
<clus scale="   27.609">  1  9  2 -1</clus>
<clus scale="   72.681">  5  6 -1 -1</clus>
<clus scale="   92.355">  7  8 -1 -1</clus>
<clus scale="   99.733">  1  5  2 -1</clus>
<clus scale="   91.401">  2 10  1 -1</clus>
<clus scale="   91.401">  2  5  1 -1</clus>
</clustering>
</event>
<event>
10    4  0.2977685E-005  0.2143954E+03  0.7546771E-02  0.1170664E+00
          2   -1    0    0  503    0 -0.00000000000E+00  0.00000000000E+00  0.11712518368E+03  0.11712518368E+03  0.00000000000E+00 0. -1.
         21   -1    0    0  501  502  0.00000000000E+00 -0.00000000000E+00 -0.98985395348E+03  0.98985395348E+03  0.00000000000E+00 0.  1.
         24    2    1    2    0    0 -0.89133567660E+02  0.15548383944E+02 -0.58181011431E+02  0.13221760177E+03  0.76875997557E+02 0.  0.
         23    2    1    2    0    0 -0.17725977521E+03 -0.36224621735E+02 -0.43153655788E+03  0.47623330845E+03  0.88550054551E+02 0.  0.
        -11    1    3    3    0    0 -0.99833491535E+02  0.53394847417E+01 -0.37467178553E+02  0.10676621937E+03  0.00000000000E+00 0.  1.
         12    1    3    3    0    0  0.10699923875E+02  0.10208899202E+02 -0.20713832878E+02  0.25451382405E+02  0.00000000000E+00 0. -1.
        -11    1    4    4    0    0 -0.28929848273E+02 -0.33583725892E+02 -0.49728569618E+02  0.66616314835E+02  0.00000000000E+00 0. -1.
         11    1    4    4    0    0 -0.14832992694E+03 -0.26408958428E+01 -0.38180798826E+03  0.40961699361E+03  0.00000000000E+00 0.  1.
         21    1    1    2  503  502  0.62553535339E+02 -0.50357515173E+02 -0.31982742884E+02  0.86439111287E+02  0.00000000000E+00 0.  1.
          1    1    1    2  501    0  0.20383980753E+03  0.71033752965E+02 -0.35102845760E+03  0.41208911565E+03  0.00000000000E+00 0. -1.
<scales pt_clust_5="13000.00000" pt_clust_6="13000.00000" pt_clust_7="13000.00000" pt_clust_8="13000.00000" pt_clust_9="80.30457" pt_clust_10="195.25445"></scales>
<clustering>
<clus scale="   76.876">  5  6 -1 -1</clus>
<clus scale="   80.305">  1  9  2 -1</clus>
<clus scale="   88.550">  7  8 -1 -1</clus>
<clus scale="   99.766">  1  5  2 -1</clus>
<clus scale="  195.254">  2 10  1 -1</clus>
<clus scale="  195.254">  2  5  1 -1</clus>
</clustering>
</event>
<event>
10    4  0.2977685E-005  0.2517323E+03  0.7546771E-02  0.1154584E+00
         21   -1    0    0  501  502  0.00000000000E+00  0.00000000000E+00  0.11918226730E+03  0.11918226730E+03  0.00000000000E+00 0. -1.
          2   -1    0    0  503    0 -0.00000000000E+00 -0.00000000000E+00 -0.11016723993E+04  0.11016723993E+04  0.00000000000E+00 0. -1.
         24    2    1    2    0    0 -0.26185789106E+02  0.31273359358E+02 -0.13102768311E+03  0.15870218002E+03  0.79714551025E+02 0.  0.
         23    2    1    2    0    0  0.15909213504E+03 -0.18566675396E+03 -0.11807259226E+03  0.28593514045E+03  0.89639927156E+02 0.  0.
        -11    1    3    3    0    0  0.15050744662E+02  0.31842350907E+02 -0.10295799120E+03  0.10881547765E+03  0.00000000000E+00 0.  1.
         12    1    3    3    0    0 -0.41236533769E+02 -0.56899154944E+00 -0.28069691913E+02  0.49886702364E+02  0.00000000000E+00 0. -1.
        -13    1    4    4    0    0  0.32158530352E+02 -0.48687442545E+02 -0.73671861416E+02  0.93979685574E+02  0.00000000000E+00 0.  1.
         13    1    4    4    0    0  0.12693360469E+03 -0.13697931142E+03 -0.44400730840E+02  0.19195545487E+03  0.00000000000E+00 0. -1.
         21    1    1    2  503  502 -0.27841693642E+02 -0.28827347256E+02 -0.16664973856E+03  0.17140102455E+03  0.00000000000E+00 0.  1.
          1    1    1    2  501    0 -0.10506465230E+03  0.18322074186E+03 -0.56674011811E+03  0.60481632161E+03  0.00000000000E+00 0. -1.
<scales pt_clust_5="13000.00000" pt_clust_6="13000.00000" pt_clust_7="13000.00000" pt_clust_8="13000.00000" pt_clust_9="40.07712" pt_clust_10="235.23152"></scales>
<clustering>
<clus scale="   40.077">  2  9  1 -1</clus>
<clus scale="   79.715">  5  6 -1 -1</clus>
<clus scale="   89.461">  2  5  1 -1</clus>
<clus scale="   89.640">  7  8 -1 -1</clus>
<clus scale="  235.232">  1 10  2 -1</clus>
<clus scale="  235.232">  1  5  2 -1</clus>
</clustering>
</event>
<event>
10    4  0.2977685E-005  0.4049289E+03  0.7546771E-02  0.1042086E+00
         21   -1    0    0  501  502  0.00000000000E+00  0.00000000000E+00  0.56244138719E+03  0.56244138719E+03  0.00000000000E+00 0. -1.
          2   -1    0    0  503    0 -0.00000000000E+00 -0.00000000000E+00 -0.38899265129E+03  0.38899265129E+03  0.00000000000E+00 0. -1.
         24    2    1    2    0    0 -0.70953720344E+02  0.12562572800E+03  0.12476176838E+03  0.20749388811E+03  0.81682071390E+02 0.  0.
         23    2    1    2    0    0 -0.15604172661E+03  0.13893309639E+03  0.31849099474E+02  0.23025377180E+03  0.91383852911E+02 0.  0.
        -13    1    3    3    0    0 -0.75285090452E+02  0.12654987543E+03  0.13281761918E+03  0.19830087186E+03  0.00000000000E+00 0.  1.
         14    1    3    3    0    0  0.43313701083E+01 -0.92414742756E+00 -0.80558508057E+01  0.91930162453E+01  0.00000000000E+00 0. -1.
        -13    1    4    4    0    0 -0.39035645827E+02 -0.67535640919E+01 -0.45824528664E+01  0.39879708466E+02  0.00000000000E+00 0.  1.
         13    1    4    4    0    0 -0.11700608078E+03  0.14568666048E+03  0.36431552340E+02  0.19037406333E+03  0.00000000000E+00 0. -1.
         21    1    1    2  503  502  0.55902257073E+02  0.32860106832E+02 -0.12624823313E+03  0.14192767643E+03  0.00000000000E+00 0. -1.
          1    1    1    2  501    0  0.17109318988E+03 -0.29741893123E+03  0.14308610117E+03  0.37175870215E+03  0.00000000000E+00 0. -1.
<scales pt_clust_5="13000.00000" pt_clust_6="13000.00000" pt_clust_7="13000.00000" pt_clust_8="13000.00000" pt_clust_9="64.84481" pt_clust_10="344.07796"></scales>
<clustering>
<clus scale="   64.845">  2  9  1 -1</clus>
<clus scale="   81.682">  5  6 -1 -1</clus>
<clus scale="   91.384">  7  8 -1 -1</clus>
<clus scale="  139.069">  5  7 -1 -1</clus>
<clus scale="  344.078">  1 10  2 -1</clus>
<clus scale="  344.078">  1  5  2 -1</clus>
</clustering>
</event>
<event>
10    4  0.2977685E-005  0.1716355E+03  0.7546771E-02  0.1177660E+00
         21   -1    0    0  503  502  0.00000000000E+00  0.00000000000E+00  0.13702696351E+03  0.13702696351E+03  0.00000000000E+00 0.  1.
         -1   -1    0    0    0  501 -0.00000000000E+00 -0.00000000000E+00 -0.49310991038E+03  0.49310991038E+03  0.00000000000E+00 0.  1.
         23    2    1    2    0    0 -0.68985666166E+02 -0.14887796861E+03 -0.16440742167E+03  0.24970120464E+03  0.91636344462E+02 0.  0.
         24    2    1    2    0    0  0.45941987452E+01  0.11694538254E+03  0.13139123714E+02  0.14257232447E+03  0.80354850349E+02 0.  0.
        -11    1    4    4    0    0  0.14861390953E+02  0.80399831398E+02 -0.28162222204E+02  0.86476034769E+02  0.00000000000E+00 0.  1.
         12    1    4    4    0    0 -0.10267192208E+02  0.36545551142E+02  0.41301345918E+02  0.56096289706E+02  0.00000000000E+00 0. -1.
        -11    1    3    3    0    0 -0.45222717946E+02 -0.13050676999E+03 -0.78889457909E+02  0.15906180497E+03  0.00000000000E+00 0.  1.
         11    1    3    3    0    0 -0.23762948220E+02 -0.18371198620E+02 -0.85517963760E+02  0.90639399670E+02  0.00000000000E+00 0. -1.
         21    1    1    2  503  501 -0.11337302248E+02 -0.19668986313E+02 -0.15361496262E+02  0.27411293516E+02  0.00000000000E+00 0.  1.
         -2    1    1    2    0  502  0.75728769669E+02  0.51601572387E+02 -0.18945315265E+03  0.21045205125E+03  0.00000000000E+00 0.  1.
<scales pt_clust_5="13000.00000" pt_clust_6="13000.00000" pt_clust_7="13000.00000" pt_clust_8="13000.00000" pt_clust_9="22.70250" pt_clust_10="90.00319"></scales>
<clustering>
<clus scale="   22.702">  1  9  2 -1</clus>
<clus scale="   80.355">  5  6 -1 -1</clus>
<clus scale="   90.003">  1 10  2 -1</clus>
<clus scale="   91.636">  7  8 -1 -1</clus>
<clus scale="  165.887">  1  5  2 -1</clus>
<clus scale="   22.702">  1  5  2 -1</clus>
</clustering>
</event>
<event>
10    4  0.2977685E-005  0.1776016E+03  0.7546771E-02  0.1196904E+00
          2   -1    0    0  503    0 -0.00000000000E+00  0.00000000000E+00  0.26810941652E+04  0.26810941652E+04  0.00000000000E+00 0. -1.
         21   -1    0    0  501  502  0.00000000000E+00 -0.00000000000E+00 -0.49777876770E+02  0.49777876770E+02  0.00000000000E+00 0. -1.
         23    2    1    2    0    0 -0.18625948581E+02 -0.26209569658E+02  0.66702426141E+02  0.11827440087E+03  0.92226637934E+02 0.  0.
         24    2    1    2    0    0  0.19846190551E+02  0.16359668608E+03  0.86910311373E+03  0.88821688736E+03  0.80195197559E+02 0.  0.
        -13    1    4    4    0    0 -0.70276548257E+01  0.15190202557E+03  0.76996239340E+03  0.78483482374E+03  0.00000000000E+00 0.  1.
         14    1    4    4    0    0  0.26873845377E+02  0.11694660511E+02  0.99140720336E+02  0.10338206362E+03  0.00000000000E+00 0. -1.
        -13    1    3    3    0    0 -0.85658754765E+01  0.22703860332E+02  0.63793112462E+02  0.68252477568E+02  0.00000000000E+00 0.  1.
         13    1    3    3    0    0 -0.10060073104E+02 -0.48913429990E+02  0.29093136794E+01  0.50021923297E+02  0.00000000000E+00 0. -1.
         21    1    1    2  503  502  0.12312240694E+03 -0.19999918368E+02  0.10184343031E+04  0.10260446158E+04  0.00000000000E+00 0. -1.
          1    1    1    2  501    0 -0.12434264891E+03 -0.11738719806E+03  0.67707644544E+03  0.69833613796E+03  0.00000000000E+00 0. -1.
<scales pt_clust_5="13000.00000" pt_clust_6="13000.00000" pt_clust_7="13000.00000" pt_clust_8="13000.00000" pt_clust_9="119.67928" pt_clust_10="158.46473"></scales>
<clustering>
<clus scale="   80.195">  5  6 -1 -1</clus>
<clus scale="   92.227">  7  8 -1 -1</clus>
<clus scale="   97.671">  1  7  2 -1</clus>
<clus scale="  119.679">  1  9  2 -1</clus>
<clus scale="  158.465">  2 10  1 -1</clus>
<clus scale="  158.465">  2  5  1 -1</clus>
</clustering>
</event>
<event>
10    4  0.2977685E-005  0.2563344E+03  0.7546771E-02  0.1109831E+00
          2   -1    0    0  503    0 -0.00000000000E+00  0.00000000000E+00  0.75876845467E+03  0.75876845467E+03  0.00000000000E+00 0. -1.
         21   -1    0    0  501  502  0.00000000000E+00 -0.00000000000E+00 -0.12076581425E+04  0.12076581425E+04  0.00000000000E+00 0. -1.
         24    2    1    2    0    0  0.20841592910E+03 -0.90285517666E+02  0.67972994290E+03  0.72134775582E+03  0.81982408774E+02 0.  0.
         23    2    1    2    0    0 -0.14478763132E+03 -0.20080926600E+02 -0.24672466348E+03  0.30083302292E+03  0.90888647893E+02 0.  0.
        -11    1    3    3    0    0  0.92136972500E+02 -0.42661312288E+01  0.19911747299E+03  0.21944290744E+03  0.00000000000E+00 0.  1.
         12    1    3    3    0    0  0.11627895660E+03 -0.86019386438E+02  0.48061246992E+03  0.50190484838E+03  0.00000000000E+00 0. -1.
        -11    1    4    4    0    0 -0.11211170813E+03  0.26386469583E+02 -0.17096964188E+03  0.20614533544E+03  0.00000000000E+00 0. -1.
         11    1    4    4    0    0 -0.32675923186E+02 -0.46467396183E+02 -0.75755021593E+02  0.94687687481E+02  0.00000000000E+00 0.  1.
         21    1    1    2  503  502  0.28763874362E+02 -0.17831411153E+01  0.17148789978E+02  0.33535370257E+02  0.00000000000E+00 0. -1.
          1    1    1    2  501    0 -0.92392172151E+02  0.11214958538E+03 -0.89904375720E+03  0.91071044813E+03  0.00000000000E+00 0. -1.
<scales pt_clust_5="13000.00000" pt_clust_6="13000.00000" pt_clust_7="13000.00000" pt_clust_8="13000.00000" pt_clust_9="28.81909" pt_clust_10="145.14972"></scales>
<clustering>
<clus scale="   28.819">  1  9  2 -1</clus>
<clus scale="   81.982">  5  6 -1 -1</clus>
<clus scale="   90.889">  7  8 -1 -1</clus>
<clus scale="  145.150">  2 10  1 -1</clus>
<clus scale="  253.313">  1  5  2 -1</clus>
<clus scale="  145.150">  2  5  1 -1</clus>
</clustering>
</event>
<event>
10    4  0.2977685E-005  0.1017294E+03  0.7546771E-02  0.1281708E+00
          2   -1    0    0  503    0 -0.00000000000E+00  0.00000000000E+00  0.40986356015E+03  0.40986356015E+03  0.00000000000E+00 0. -1.
         21   -1    0    0  501  502  0.00000000000E+00 -0.00000000000E+00 -0.47782998316E+03  0.47782998316E+03  0.00000000000E+00 0. -1.
         23    2    1    2    0    0 -0.35853672219E+02  0.72701155305E+01  0.27342709109E+03  0.29063215149E+03  0.91467660672E+02 0.  0.
         24    2    1    2    0    0  0.68868294355E+02 -0.88718962072E+01  0.79144390040E+02  0.13286754973E+03  0.81045658661E+02 0.  0.
        -13    1    4    4    0    0  0.30863453065E+02 -0.33686806029E+02  0.50361757129E+01  0.45964298116E+02  0.00000000000E+00 0.  1.
         14    1    4    4    0    0  0.38004841290E+02  0.24814909821E+02  0.74108214328E+02  0.86903251618E+02  0.00000000000E+00 0. -1.
        -13    1    3    3    0    0  0.25120032836E+02  0.12201551089E+02  0.15333591126E+03  0.15585825477E+03  0.00000000000E+00 0. -1.
         13    1    3    3    0    0 -0.60973705055E+02 -0.49314355590E+01  0.12009117983E+03  0.13477389672E+03  0.00000000000E+00 0.  1.
         21    1    1    2  503  502 -0.42591419428E+01  0.49694969314E+02 -0.11304706293E+02  0.51142219834E+02  0.00000000000E+00 0. -1.
          1    1    1    2  501    0 -0.28755480193E+02 -0.48093188637E+02 -0.40923319784E+03  0.41305162226E+03  0.00000000000E+00 0. -1.
<scales pt_clust_5="13000.00000" pt_clust_6="13000.00000" pt_clust_7="13000.00000" pt_clust_8="13000.00000" pt_clust_9="49.87715" pt_clust_10="32.76040"></scales>
<clustering>
<clus scale="   49.877">  2  9  1 -1</clus>
<clus scale="   32.760">  2 10  1 -1</clus>
<clus scale="   81.046">  5  6 -1 -1</clus>
<clus scale="   91.468">  7  8 -1 -1</clus>
<clus scale="   92.471">  2  5  1 -1</clus>
<clus scale="   49.877">  2  5  1 -1</clus>
</clustering>
</event>
<event>
10    4  0.2977685E-005  0.1092859E+03  0.7546771E-02  0.1266790E+00
         -3   -1    0    0    0  501 -0.00000000000E+00  0.00000000000E+00  0.32259563711E+03  0.32259563711E+03  0.00000000000E+00 0.  1.
         21   -1    0    0  503  502  0.00000000000E+00 -0.00000000000E+00 -0.15131977155E+03  0.15131977155E+03  0.00000000000E+00 0.  1.
         23    2    1    2    0    0 -0.33802290470E+02 -0.72639908565E+01  0.19698285249E+03  0.22030878156E+03  0.92403217768E+02 0.  0.
         24    2    1    2    0    0  0.28116226225E+02 -0.55757515816E+01 -0.44013226732E+02  0.96026724534E+02  0.80388783512E+02 0.  0.
        -13    1    4    4    0    0  0.38829315132E+02 -0.23268055910E+02 -0.56088626463E+02  0.72076710232E+02  0.00000000000E+00 0.  1.
         14    1    4    4    0    0 -0.10713088907E+02  0.17692304329E+02  0.12075399731E+02  0.23950014302E+02  0.00000000000E+00 0. -1.
        -11    1    3    3    0    0 -0.32202634828E+02  0.25285675960E+02  0.17788510016E+03  0.18253625382E+03  0.00000000000E+00 0.  1.
         11    1    3    3    0    0 -0.15996556425E+01 -0.32549666816E+02  0.19097752326E+02  0.37772527741E+02  0.00000000000E+00 0. -1.
         21    1    1    2  503  501 -0.38671769508E+02 -0.18816332049E+02  0.70201877280E+02  0.82327781959E+02  0.00000000000E+00 0.  1.
         -4    1    1    2    0  502  0.44357833754E+02  0.31656074487E+02 -0.51895637469E+02  0.75252120606E+02  0.00000000000E+00 0.  1.
<scales pt_clust_5="13000.00000" pt_clust_6="13000.00000" pt_clust_7="13000.00000" pt_clust_8="13000.00000" pt_clust_9="43.00651" pt_clust_10="52.48575"></scales>
<clustering>
<clus scale="   43.007">  1  9  2 -1</clus>
<clus scale="   52.486">  2 10  1 -1</clus>
<clus scale="   80.389">  5  6 -1 -1</clus>
<clus scale="   92.403">  7  8 -1 -1</clus>
<clus scale="   99.335">  2  5  1 -1</clus>
<clus scale="   52.486">  2  5  1 -1</clus>
</clustering>
</event>
<event>
10    4  0.2977685E-005  0.1578466E+03  0.7546771E-02  0.1192727E+00
         21   -1    0    0  501  502  0.00000000000E+00  0.00000000000E+00  0.37643912805E+03  0.37643912805E+03  0.00000000000E+00 0. -1.
          2   -1    0    0  503    0 -0.00000000000E+00 -0.00000000000E+00 -0.42908432516E+03  0.42908432516E+03  0.00000000000E+00 0. -1.
         24    2    1    2    0    0 -0.15456595180E+03  0.18642132882E+01 -0.27583341764E+03  0.32634629125E+03  0.80769541154E+02 0.  0.
         23    2    1    2    0    0  0.13546181102E+03 -0.25027473486E+01  0.19773944727E+03  0.25622874612E+03  0.90532399408E+02 0.  0.
        -11    1    3    3    0    0 -0.59003366909E+02 -0.38034597950E+02 -0.97824013653E+02  0.12040583705E+03  0.00000000000E+00 0.  1.
         12    1    3    3    0    0 -0.95562584894E+02  0.39898811238E+02 -0.17800940399E+03  0.20594045421E+03  0.00000000000E+00 0. -1.
        -11    1    4    4    0    0  0.31286704020E+02  0.39557462114E+02  0.66733094323E+02  0.83647812495E+02  0.00000000000E+00 0. -1.
         11    1    4    4    0    0  0.10417510699E+03 -0.42060209463E+02  0.13100635295E+03  0.17258093363E+03  0.00000000000E+00 0.  1.
         21    1    1    2  503  502  0.30621087398E+02  0.21735344559E+02 -0.93938436269E+02  0.10116573533E+03  0.00000000000E+00 0. -1.
          1    1    1    2  501    0 -0.11516946610E+02 -0.21096810498E+02  0.11938720953E+03  0.12178268051E+03  0.00000000000E+00 0. -1.
<scales pt_clust_5="13000.00000" pt_clust_6="13000.00000" pt_clust_7="13000.00000" pt_clust_8="13000.00000" pt_clust_9="37.24616" pt_clust_10="24.03571"></scales>
<clustering>
<clus scale="   24.036">  1 10  2 -1</clus>
<clus scale="   37.246">  2  9  1 -1</clus>
<clus scale="   80.770">  5  6 -1 -1</clus>
<clus scale="   90.532">  7  8 -1 -1</clus>
<clus scale="  152.457">  2  5  1 -1</clus>
<clus scale="   24.036">  1  5  2 -1</clus>
</clustering>
</event>
<event>
10    4  0.2977685E-005  0.1099131E+03  0.7546771E-02  0.1264521E+00
         21   -1    0    0  501  502  0.00000000000E+00  0.00000000000E+00  0.16460032508E+03  0.16460032508E+03  0.00000000000E+00 0. -1.
          4   -1    0    0  503    0 -0.00000000000E+00 -0.00000000000E+00 -0.26821948414E+03  0.26821948414E+03  0.00000000000E+00 0. -1.
         24    2    1    2    0    0 -0.37997997809E+02 -0.80913051613E+02 -0.13535909027E+03  0.18140521045E+03  0.81209588738E+02 0.  0.
         23    2    1    2    0    0  0.54008137001E+02  0.40762517674E+02  0.90854051898E+02  0.14523567818E+03  0.90887192506E+02 0.  0.
        -13    1    3    3    0    0 -0.41163566270E+02 -0.56770867761E+01 -0.71376619857E+02  0.82591103422E+02  0.00000000000E+00 0.  1.
         14    1    3    3    0    0  0.31655684610E+01 -0.75235964837E+02 -0.63982470411E+02  0.98814107032E+02  0.00000000000E+00 0. -1.
        -13    1    4    4    0    0  0.61974113951E+02  0.60182790930E+02  0.51337852841E+02  0.10049046850E+03  0.00000000000E+00 0.  1.
         13    1    4    4    0    0 -0.79659769501E+01 -0.19420273256E+02  0.39516199057E+02  0.44745209688E+02  0.00000000000E+00 0. -1.
         21    1    1    2  503  502  0.18643647275E+02  0.31056095638E+02 -0.60287516514E+02  0.70332434250E+02  0.00000000000E+00 0.  1.
          3    1    1    2  501    0 -0.34653786467E+02  0.90944383005E+01  0.11733958206E+01  0.35846486330E+02  0.00000000000E+00 0. -1.
<scales pt_clust_5="13000.00000" pt_clust_6="13000.00000" pt_clust_7="13000.00000" pt_clust_8="13000.00000" pt_clust_9="35.89681" pt_clust_10="35.82728"></scales>
<clustering>
<clus scale="   35.827">  1 10  2 -1</clus>
<clus scale="   35.897">  2  9  1 -1</clus>
<clus scale="   81.210">  5  6 -1 -1</clus>
<clus scale="   90.887">  7  8 -1 -1</clus>
<clus scale="  102.056">  2  5  1 -1</clus>
<clus scale="   35.827">  1  5  2 -1</clus>
</clustering>
</event>
<event>
10    4  0.2977685E-005  0.3531581E+03  0.7546771E-02  0.1061662E+00
         21   -1    0    0  501  502  0.00000000000E+00  0.00000000000E+00  0.66670027765E+03  0.66670027765E+03  0.00000000000E+00 0. -1.
          2   -1    0    0  503    0 -0.00000000000E+00 -0.00000000000E+00 -0.63102718367E+03  0.63102718367E+03  0.00000000000E+00 0. -1.
         23    2    1    2    0    0 -0.76583737606E+02 -0.31380525830E+03  0.20836652986E+03  0.39564697454E+03  0.93707570099E+02 0.  0.
         24    2    1    2    0    0  0.26093938729E+03  0.28011813953E+03  0.21388753837E+03  0.44583224356E+03  0.80392626494E+02 0.  0.
        -11    1    4    4    0    0  0.13881780327E+03  0.19477954562E+03  0.15825494553E+03  0.28679972400E+03  0.00000000000E+00 0.  1.
         12    1    4    4    0    0  0.12212158402E+03  0.85338593900E+02  0.55632592840E+02  0.15903251956E+03  0.00000000000E+00 0. -1.
        -13    1    3    3    0    0 -0.94639590160E+02 -0.29438749599E+03  0.19795662139E+03  0.36716137293E+03  0.00000000000E+00 0. -1.
         13    1    3    3    0    0  0.18055852554E+02 -0.19417762306E+02  0.10409908468E+02  0.28485601604E+02  0.00000000000E+00 0.  1.
         21    1    1    2  503  502  0.24697294459E+00 -0.24263152537E+02 -0.35378434870E+00  0.24266988483E+02  0.00000000000E+00 0. -1.
          1    1    1    2  501    0 -0.18460262263E+03  0.57950271312E+02 -0.38622718990E+03  0.43198125474E+03  0.00000000000E+00 0. -1.
<scales pt_clust_5="13000.00000" pt_clust_6="13000.00000" pt_clust_7="13000.00000" pt_clust_8="13000.00000" pt_clust_9="24.26441" pt_clust_10="189.14044"></scales>
<clustering>
<clus scale="   24.264">  2  9  1 -1</clus>
<clus scale="   80.393">  5  6 -1 -1</clus>
<clus scale="   93.708">  7  8 -1 -1</clus>
<clus scale="  189.140">  1 10  2 -1</clus>
<clus scale="  349.861">  1  5  2 -1</clus>
<clus scale="  189.140">  1  5  2 -1</clus>
</clustering>
</event>
<event>
10    4  0.2977685E-005  0.2112935E+03  0.7546771E-02  0.1168888E+00
         21   -1    0    0  501  502  0.00000000000E+00  0.00000000000E+00  0.95786603158E+02  0.95786603158E+02  0.00000000000E+00 0. -1.
          2   -1    0    0  503    0 -0.00000000000E+00 -0.00000000000E+00 -0.10643650603E+04  0.10643650603E+04  0.00000000000E+00 0. -1.
         24    2    1    2    0    0  0.58969329076E+02 -0.56690407884E+02 -0.12025252429E+03  0.16683365181E+03  0.81741138125E+02 0.  0.
         23    2    1    2    0    0 -0.19693628600E+03  0.44881879092E+02 -0.23226261494E+03  0.32077873309E+03  0.90303873039E+02 0.  0.
        -11    1    3    3    0    0  0.69923453169E+02 -0.20022365628E+02 -0.55002800905E+02  0.91189322488E+02  0.00000000000E+00 0.  1.
         12    1    3    3    0    0 -0.10954124093E+02 -0.36668042256E+02 -0.65249723383E+02  0.75644329325E+02  0.00000000000E+00 0. -1.
        -11    1    4    4    0    0 -0.96806305193E+02  0.67637614163E+02 -0.13468976493E+03  0.17913023294E+03  0.00000000000E+00 0. -1.
         11    1    4    4    0    0 -0.10012998081E+03 -0.22755735071E+02 -0.97572850013E+02  0.14164850015E+03  0.00000000000E+00 0.  1.
         21    1    1    2  503  502 -0.39945747460E+02  0.34319498053E+02 -0.33516526159E+03  0.33927753133E+03  0.00000000000E+00 0. -1.
          1    1    1    2  501    0  0.17791270439E+03 -0.22510969261E+02 -0.28089805631E+03  0.33326174722E+03  0.00000000000E+00 0. -1.
<scales pt_clust_5="13000.00000" pt_clust_6="13000.00000" pt_clust_7="13000.00000" pt_clust_8="13000.00000" pt_clust_9="52.66394" pt_clust_10="191.02406"></scales>
<clustering>
<clus scale="   52.664">  2  9  1 -1</clus>
<clus scale="   81.741">  5  6 -1 -1</clus>
<clus scale="   90.304">  7  8 -1 -1</clus>
<clus scale="  108.548">  2  5  1 -1</clus>
<clus scale="  191.024">  1 10  2 -1</clus>
<clus scale="  191.024">  1  5  2 -1</clus>
</clustering>
</event>
<event>
10    4  0.2977685E-005  0.9645568E+02  0.7546771E-02  0.1295660E+00
         -1   -1    0    0    0  501 -0.00000000000E+00  0.00000000000E+00  0.69391837210E+03  0.69391837210E+03  0.00000000000E+00 0.  1.
         21   -1    0    0  503  502  0.00000000000E+00 -0.00000000000E+00 -0.37252253173E+02  0.37252253173E+02  0.00000000000E+00 0. -1.
         23    2    1    2    0    0 -0.46833531348E+01 -0.28872379289E+02  0.29855046926E+03  0.31368113491E+03  0.91694730587E+02 0.  0.
         24    2    1    2    0    0 -0.78089645656E+00  0.48278566061E+02  0.54393967981E+02  0.10660626098E+03  0.77940755624E+02 0.  0.
        -13    1    4    4    0    0  0.26374147530E+02  0.20297313602E+02  0.58597455571E+02  0.67388711197E+02  0.00000000000E+00 0.  1.
         14    1    4    4    0    0 -0.27155043987E+02  0.27981252458E+02 -0.42034875896E+01  0.39217549783E+02  0.00000000000E+00 0. -1.
        -13    1    3    3    0    0 -0.44693125264E+02 -0.25723986390E+02  0.21346688319E+03  0.21960717005E+03  0.00000000000E+00 0.  1.
         13    1    3    3    0    0  0.40009772130E+02 -0.31483928995E+01  0.85083586075E+02  0.94073964853E+02  0.00000000000E+00 0. -1.
         21    1    1    2  503  501 -0.18746624570E+02  0.13741376138E+02  0.14932632642E+03  0.15112449541E+03  0.00000000000E+00 0.  1.
         -2    1    1    2    0  502  0.24210874161E+02 -0.33147562909E+02  0.15439535527E+03  0.15975873398E+03  0.00000000000E+00 0.  1.
<scales pt_clust_5="13000.00000" pt_clust_6="13000.00000" pt_clust_7="13000.00000" pt_clust_8="13000.00000" pt_clust_9="23.24352" pt_clust_10="34.70703"></scales>
<clustering>
<clus scale="   23.244">  1  9  2 -1</clus>
<clus scale="   34.707">  2 10  1 -1</clus>
<clus scale="   77.941">  5  6 -1 -1</clus>
<clus scale="   83.490">  2  5  1 -1</clus>
<clus scale="   91.695">  7  8 -1 -1</clus>
<clus scale="   34.707">  2  5  1 -1</clus>
</clustering>
</event>
<event>
10    4  0.2977685E-005  0.9461099E+02  0.7546771E-02  0.1300128E+00
         -3   -1    0    0    0  501 -0.00000000000E+00  0.00000000000E+00  0.31003921400E+03  0.31003921400E+03  0.00000000000E+00 0.  1.
         21   -1    0    0  503  502  0.00000000000E+00 -0.00000000000E+00 -0.92399934826E+02  0.92399934826E+02  0.00000000000E+00 0. -1.
         24    2    1    2    0    0 -0.20211425402E+02  0.15161035792E+02  0.78461311863E+02  0.11501696109E+03  0.80214494680E+02 0.  0.
         23    2    1    2    0    0 -0.51118627048E+02  0.35857972223E+02  0.69962799349E+01  0.11268961518E+03  0.93547278070E+02 0.  0.
        -11    1    3    3    0    0 -0.38938206194E+02  0.27884756338E+01  0.83356104408E+02  0.92044552474E+02  0.00000000000E+00 0.  1.
         12    1    3    3    0    0  0.18726780792E+02  0.12372560159E+02 -0.48947925457E+01  0.22972408619E+02  0.00000000000E+00 0. -1.
        -11    1    4    4    0    0 -0.73637011420E+02  0.42421731790E+02 -0.71761936535E+01  0.85284878696E+02  0.00000000000E+00 0. -1.
         11    1    4    4    0    0  0.22518384372E+02 -0.65637595664E+01  0.14172473588E+02  0.27404736488E+02  0.00000000000E+00 0.  1.
         21    1    1    2  503  501  0.17257405650E+02 -0.53625115599E+02  0.89684134719E+02  0.10590899439E+03  0.00000000000E+00 0.  1.
         -4    1    1    2    0  502  0.54072646800E+02  0.26061075828E+01  0.42497552661E+02  0.68823578160E+02  0.00000000000E+00 0.  1.
<scales pt_clust_5="13000.00000" pt_clust_6="13000.00000" pt_clust_7="13000.00000" pt_clust_8="13000.00000" pt_clust_9="58.02284" pt_clust_10="54.13544"></scales>
<clustering>
<clus scale="   54.135">  2 10  1 -1</clus>
<clus scale="   58.023">  1  9  2 -1</clus>
<clus scale="   80.214">  5  6 -1 -1</clus>
<clus scale="   81.453">  1  5  2 -1</clus>
<clus scale="   93.547">  7  8 -1 -1</clus>
<clus scale="   54.135">  2  5  1 -1</clus>
</clustering>
</event>
<event>
10    4  0.2977685E-005  0.9888831E+02  0.7546771E-02  0.1288360E+00
         21   -1    0    0  501  502  0.00000000000E+00  0.00000000000E+00  0.23464558706E+03  0.23464558706E+03  0.00000000000E+00 0. -1.
          2   -1    0    0  503    0 -0.00000000000E+00 -0.00000000000E+00 -0.75387300546E+03  0.75387300546E+03  0.00000000000E+00 0. -1.
         24    2    1    2    0    0 -0.27879346998E+02 -0.31569988715E+02 -0.62250268442E+03  0.62908900281E+03  0.80432948268E+02 0.  0.
         23    2    1    2    0    0  0.75684959462E+02  0.59372110307E+02  0.39395024442E+02  0.13845380943E+03  0.91456157932E+02 0.  0.
        -11    1    3    3    0    0 -0.31981652867E+02  0.83568163591E+01 -0.10612655403E+03  0.11115533262E+03  0.00000000000E+00 0.  1.
         12    1    3    3    0    0  0.41023058688E+01 -0.39926805075E+02 -0.51637613039E+03  0.51793367019E+03  0.00000000000E+00 0. -1.
        -13    1    4    4    0    0  0.54152620671E+02  0.73982200359E+02  0.53352483572E+00  0.91685096631E+02  0.00000000000E+00 0.  1.
         13    1    4    4    0    0  0.21532338791E+02 -0.14610090052E+02  0.38861499607E+02  0.46768712798E+02  0.00000000000E+00 0. -1.
         21    1    1    2  503  502  0.27752188012E+02 -0.42195272935E+01 -0.64393820905E+02  0.70246370161E+02  0.00000000000E+00 0. -1.
          1    1    1    2  501    0 -0.75557800476E+02 -0.23582594298E+02  0.12827406249E+03  0.15072941012E+03  0.00000000000E+00 0. -1.
<scales pt_clust_5="13000.00000" pt_clust_6="13000.00000" pt_clust_7="13000.00000" pt_clust_8="13000.00000" pt_clust_9="28.07113" pt_clust_10="78.74009"></scales>
<clustering>
<clus scale="   28.071">  2  9  1 -1</clus>
<clus scale="   78.740">  1 10  2 -1</clus>
<clus scale="   80.433">  5  6 -1 -1</clus>
<clus scale="   88.793">  2  5  1 -1</clus>
<clus scale="   91.456">  7  8 -1 -1</clus>
<clus scale="   78.740">  1  5  2 -1</clus>
</clustering>
</event>
<event>
10    4  0.2977685E-005  0.1321690E+03  0.7546771E-02  0.1226250E+00
         21   -1    0    0  503  502  0.00000000000E+00  0.00000000000E+00  0.59694782593E+02  0.59694782593E+02  0.00000000000E+00 0.  1.
          2   -1    0    0  502    0 -0.00000000000E+00 -0.00000000000E+00 -0.57371362947E+03  0.57371362947E+03  0.00000000000E+00 0. -1.
         24    2    1    2    0    0  0.74580499845E+02 -0.70976987991E+02 -0.37960896246E+03  0.40178645130E+03  0.82032946334E+02 0.  0.
         23    2    1    2    0    0 -0.22988324661E+02  0.81495176832E+02 -0.59590230810E+02  0.13722550478E+03  0.90055075575E+02 0.  0.
        -11    1    3    3    0    0  0.36075219588E+02  0.11051611822E+02 -0.74559275419E+02  0.83562223183E+02  0.00000000000E+00 0.  1.
         12    1    3    3    0    0  0.38505280257E+02 -0.82028599813E+02 -0.30504968704E+03  0.31822422811E+03  0.00000000000E+00 0. -1.
        -11    1    4    4    0    0 -0.18595439345E+02  0.20067831097E+02 -0.69644855190E+02  0.74825891667E+02  0.00000000000E+00 0. -1.
         11    1    4    4    0    0 -0.43928853162E+01  0.61427345735E+02  0.10054624379E+02  0.62399613115E+02  0.00000000000E+00 0.  1.
         21    1    1    2  503  501 -0.27633731282E+02 -0.17349963225E+02 -0.41398976465E+02  0.52711664561E+02  0.00000000000E+00 0. -1.
          1    1    1    2  501    0 -0.23958443902E+02  0.68317743841E+01 -0.33420677141E+02  0.41684791423E+02  0.00000000000E+00 0. -1.
<scales pt_clust_5="13000.00000" pt_clust_6="13000.00000" pt_clust_7="13000.00000" pt_clust_8="13000.00000" pt_clust_9="20.31157" pt_clust_10="57.55615"></scales>
<clustering>
<clus scale="   20.312">  9 10 -1 -1</clus>
<clus scale="   57.556">  1  9  2 -1</clus>
<clus scale="   82.033">  5  6 -1 -1</clus>
<clus scale="   90.055">  7  8 -1 -1</clus>
<clus scale="  126.839">  2  5  1 -1</clus>
<clus scale="   57.556">  1  5  2 -1</clus>
</clustering>
</event>
<event>
10    4  0.2977685E-005  0.1417771E+03  0.7546771E-02  0.1229883E+00
         21   -1    0    0  501  502  0.00000000000E+00  0.00000000000E+00  0.15555337373E+03  0.15555337373E+03  0.00000000000E+00 0.  1.
          2   -1    0    0  503    0 -0.00000000000E+00 -0.00000000000E+00 -0.76074271804E+03  0.76074271804E+03  0.00000000000E+00 0. -1.
         23    2    1    2    0    0 -0.11678908288E+02  0.10004507304E+02 -0.15475577016E+03  0.18211943938E+03  0.94771592464E+02 0.  0.
         24    2    1    2    0    0  0.43129923583E+02  0.13948891584E+03  0.49766338046E+02  0.17385735829E+03  0.80201899466E+02 0.  0.
        -11    1    4    4    0    0  0.60630121380E+02  0.12611426021E+03  0.56376062757E+02  0.15086112388E+03  0.00000000000E+00 0.  1.
         12    1    4    4    0    0 -0.17500197797E+02  0.13374655633E+02 -0.66097247110E+01  0.22996234409E+02  0.00000000000E+00 0. -1.
        -13    1    3    3    0    0  0.10903573110E+02 -0.31935802979E+02 -0.11570188984E+03  0.12052265651E+03  0.00000000000E+00 0. -1.
         13    1    3    3    0    0 -0.22582481398E+02  0.41940310283E+02 -0.39053880317E+02  0.61596782875E+02  0.00000000000E+00 0.  1.
         21    1    1    2  503  502 -0.62539817682E+02 -0.91580156716E+02 -0.84413115182E+02  0.13936903499E+03  0.00000000000E+00 0.  1.
          1    1    1    2  501    0  0.31088802387E+02 -0.57913266431E+02 -0.41578679702E+03  0.42095025910E+03  0.00000000000E+00 0. -1.
<scales pt_clust_5="13000.00000" pt_clust_6="13000.00000" pt_clust_7="13000.00000" pt_clust_8="13000.00000" pt_clust_9="116.91198" pt_clust_10="65.73024"></scales>
<clustering>
<clus scale="   65.730">  1 10  2 -1</clus>
<clus scale="   80.202">  5  6 -1 -1</clus>
<clus scale="   94.772">  7  8 -1 -1</clus>
<clus scale="   95.311">  2  7  1 -1</clus>
<clus scale="  116.912">  2  9  1 -1</clus>
<clus scale="   65.730">  1  5  2 -1</clus>
</clustering>
</event>
<event>
10    4  0.2977685E-005  0.9643623E+02  0.7546771E-02  0.1298506E+00
         -1   -1    0    0    0  501 -0.00000000000E+00  0.00000000000E+00  0.25780001276E+03  0.25780001276E+03  0.00000000000E+00 0.  1.
         21   -1    0    0  503  502  0.00000000000E+00 -0.00000000000E+00 -0.11769641998E+03  0.11769641998E+03  0.00000000000E+00 0.  1.
         24    2    1    2    0    0 -0.17318157124E+02 -0.32687966221E+02  0.13156181822E+03  0.15776722248E+03  0.78826155394E+02 0.  0.
         23    2    1    2    0    0 -0.24474519416E+02 -0.27472910555E+02 -0.50497544999E+02  0.11461475714E+03  0.96087343542E+02 0.  0.
        -13    1    3    3    0    0 -0.29512070053E+02 -0.34674828906E+02  0.13692585997E+03  0.14429829232E+03  0.00000000000E+00 0.  1.
         14    1    3    3    0    0  0.12193912929E+02  0.19868626846E+01 -0.53640417472E+01  0.13468930162E+02  0.00000000000E+00 0. -1.
        -13    1    4    4    0    0 -0.51475048205E+02 -0.46561255554E+02 -0.38942977931E+02  0.79587603536E+02  0.00000000000E+00 0.  1.
         13    1    4    4    0    0  0.27000528789E+02  0.19088344998E+02 -0.11554567068E+02  0.35027153607E+02  0.00000000000E+00 0. -1.
         21    1    1    2  503  501  0.22604864400E+02  0.25984462205E+02  0.53361720534E+02  0.63510986364E+02  0.00000000000E+00 0. -1.
         -2    1    1    2    0  502  0.19187812141E+02  0.34176414571E+02  0.56775990206E+01  0.39603466746E+02  0.00000000000E+00 0.  1.
<scales pt_clust_5="13000.00000" pt_clust_6="13000.00000" pt_clust_7="13000.00000" pt_clust_8="13000.00000" pt_clust_9="34.44085" pt_clust_10="43.03154"></scales>
<clustering>
<clus scale="   34.441">  1  9  2 -1</clus>
<clus scale="   43.032">  2 10  1 -1</clus>
<clus scale="   78.826">  5  6 -1 -1</clus>
<clus scale="   79.251">  1  5  2 -1</clus>
<clus scale="   96.087">  7  8 -1 -1</clus>
<clus scale="   43.032">  2  5  1 -1</clus>
</clustering>
</event>
<event>
10    4  0.2977685E-005  0.1053271E+03  0.7546771E-02  0.1274256E+00
          2   -1    0    0  503    0 -0.00000000000E+00  0.00000000000E+00  0.35538662354E+03  0.35538662354E+03  0.00000000000E+00 0. -1.
         21   -1    0    0  501  502  0.00000000000E+00 -0.00000000000E+00 -0.22895180958E+03  0.22895180958E+03  0.00000000000E+00 0. -1.
         23    2    1    2    0    0 -0.20226329235E+02  0.43225554513E+02  0.12109396958E+03  0.15921571208E+03  0.91697004024E+02 0.  0.
         24    2    1    2    0    0  0.23974881919E+02 -0.14028149901E+02 -0.24392463149E+02  0.88925095149E+02  0.80877044556E+02 0.  0.
        -13    1    4    4    0    0  0.18531250313E+02 -0.45162254067E+02  0.29907486362E+00  0.48817270267E+02  0.00000000000E+00 0.  1.
         14    1    4    4    0    0  0.54436316062E+01  0.31134104166E+02 -0.24691538013E+02  0.40107824882E+02  0.00000000000E+00 0. -1.
        -13    1    3    3    0    0 -0.37227516217E+02  0.16824561132E+02  0.12110955233E+03  0.12781423038E+03  0.00000000000E+00 0. -1.
         13    1    3    3    0    0  0.17001186982E+02  0.26400993381E+02 -0.15582750645E-01  0.31401481702E+02  0.00000000000E+00 0.  1.
         21    1    1    2  503  502 -0.11332571841E+02  0.19241149633E+02  0.17832938143E+03  0.17972205570E+03  0.00000000000E+00 0. -1.
          1    1    1    2  501    0  0.75840191573E+01 -0.48438554245E+02 -0.14859607391E+03  0.15647557019E+03  0.00000000000E+00 0. -1.
<scales pt_clust_5="13000.00000" pt_clust_6="13000.00000" pt_clust_7="13000.00000" pt_clust_8="13000.00000" pt_clust_9="22.33045" pt_clust_10="48.56520"></scales>
<clustering>
<clus scale="   22.330">  1  9  2 -1</clus>
<clus scale="   48.565">  2 10  1 -1</clus>
<clus scale="   80.877">  5  6 -1 -1</clus>
<clus scale="   91.697">  7  8 -1 -1</clus>
<clus scale="   96.055">  2  5  1 -1</clus>
<clus scale="   48.565">  2  5  1 -1</clus>
</clustering>
</event>
<event>
10    4  0.2977685E-005  0.1047566E+03  0.7546771E-02  0.1275674E+00
         21   -1    0    0  501  502  0.00000000000E+00  0.00000000000E+00  0.90283728370E+02  0.90283728370E+02  0.00000000000E+00 0.  1.
          2   -1    0    0  503    0 -0.00000000000E+00 -0.00000000000E+00 -0.64737394346E+03  0.64737394346E+03  0.00000000000E+00 0. -1.
         24    2    1    2    0    0  0.44098658239E+02  0.33913994286E+02 -0.26152485628E+03  0.27929920821E+03  0.80733800784E+02 0.  0.
         23    2    1    2    0    0 -0.31157765749E+02 -0.93353595997E+02  0.14638355479E+02  0.13551569460E+03  0.92002835709E+02 0.  0.
        -11    1    3    3    0    0  0.22819356927E+02  0.25690543286E+02 -0.27087595019E+02  0.43754598259E+02  0.00000000000E+00 0.  1.
         12    1    3    3    0    0  0.21279301312E+02  0.82234510001E+01 -0.23443726126E+03  0.23554460995E+03  0.00000000000E+00 0. -1.
        -13    1    4    4    0    0 -0.48954719752E+02 -0.11615821672E+02 -0.14270516644E+01  0.50334167079E+02  0.00000000000E+00 0. -1.
         13    1    4    4    0    0  0.17796954003E+02 -0.81737774325E+02  0.16065407143E+02  0.85181527516E+02  0.00000000000E+00 0.  1.
         21    1    1    2  503  502 -0.22900324727E+02 -0.50223099694E+01 -0.10206145386E+03  0.10471957235E+03  0.00000000000E+00 0. -1.
          1    1    1    2  501    0  0.99594322376E+01  0.64461911680E+02 -0.20814226043E+03  0.21812319667E+03  0.00000000000E+00 0. -1.
<scales pt_clust_5="13000.00000" pt_clust_6="13000.00000" pt_clust_7="13000.00000" pt_clust_8="13000.00000" pt_clust_9="23.44458" pt_clust_10="62.50200"></scales>
<clustering>
<clus scale="   23.445">  2  9  1 -1</clus>
<clus scale="   62.502">  1 10  2 -1</clus>
<clus scale="   80.734">  5  6 -1 -1</clus>
<clus scale="   92.003">  7  8 -1 -1</clus>
<clus scale="   95.012">  2  5  1 -1</clus>
<clus scale="   62.502">  1  5  2 -1</clus>
</clustering>
</event>
<event>
10    4  0.2977685E-005  0.1787146E+03  0.7546771E-02  0.1198135E+00
          2   -1    0    0  503    0 -0.00000000000E+00  0.00000000000E+00  0.35969205658E+03  0.35969205658E+03  0.00000000000E+00 0. -1.
         21   -1    0    0  501  502  0.00000000000E+00 -0.00000000000E+00 -0.61560314032E+03  0.61560314032E+03  0.00000000000E+00 0. -1.
         23    2    1    2    0    0  0.15023873733E+02 -0.55513702948E+01  0.75078430085E+02  0.11997455330E+03  0.92198634926E+02 0.  0.
         24    2    1    2    0    0  0.11703833354E+03  0.10550952521E+03 -0.53165702621E+03  0.56039792189E+03  0.80971636467E+02 0.  0.
        -11    1    4    4    0    0  0.27596231406E+02 -0.11047049318E+02 -0.74437425097E+02  0.80153100635E+02  0.00000000000E+00 0.  1.
         12    1    4    4    0    0  0.89442102139E+02  0.11655657452E+03 -0.45721960111E+03  0.48024482125E+03  0.00000000000E+00 0. -1.
        -13    1    3    3    0    0 -0.20810449765E+02  0.22494629945E+01 -0.12949000700E+02  0.24613238761E+02  0.00000000000E+00 0.  1.
         13    1    3    3    0    0  0.35834323498E+02 -0.78008332892E+01  0.88027430785E+02  0.95361314542E+02  0.00000000000E+00 0. -1.
         21    1    1    2  503  502 -0.97304101880E+02 -0.13092686810E+03  0.18294639438E+03  0.24511082443E+03  0.00000000000E+00 0.  1.
          1    1    1    2  501    0 -0.34758105398E+02  0.30968713189E+02  0.17721118006E+02  0.49811897282E+02  0.00000000000E+00 0. -1.
<scales pt_clust_5="13000.00000" pt_clust_6="13000.00000" pt_clust_7="13000.00000" pt_clust_8="13000.00000" pt_clust_9="159.31885" pt_clust_10="46.55308"></scales>
<clustering>
<clus scale="   46.553">  2 10  1 -1</clus>
<clus scale="   80.972">  5  6 -1 -1</clus>
<clus scale="   92.199">  7  8 -1 -1</clus>
<clus scale="   93.318">  1  7  2 -1</clus>
<clus scale="  159.319">  1  9  2 -1</clus>
<clus scale="   46.553">  2  5  1 -1</clus>
</clustering>
</event>
<event>
10    4  0.2977685E-005  0.5726006E+03  0.7546771E-02  0.1053126E+00
         21   -1    0    0  501  502  0.00000000000E+00  0.00000000000E+00  0.10245484900E+04  0.10245484900E+04  0.00000000000E+00 0. -1.
          2   -1    0    0  503    0 -0.00000000000E+00 -0.00000000000E+00 -0.10425947772E+04  0.10425947772E+04  0.00000000000E+00 0. -1.
         23    2    1    2    0    0  0.38540969434E+02 -0.37106650532E+02 -0.16034658679E+03  0.19131449014E+03  0.89598529011E+02 0.  0.
         24    2    1    2    0    0  0.23971655349E+03 -0.46811426127E+03 -0.53599427859E+03  0.75526626310E+03  0.80884324078E+02 0.  0.
        -13    1    4    4    0    0  0.44434043355E+02 -0.36291403861E+02 -0.71467688663E+02  0.91646498710E+02  0.00000000000E+00 0.  1.
         14    1    4    4    0    0  0.19528251014E+03 -0.43182285741E+03 -0.46452658992E+03  0.66361976439E+03  0.00000000000E+00 0. -1.
        -13    1    3    3    0    0  0.41573559043E+02  0.16463443222E+02 -0.10551137655E+03  0.11459518470E+03  0.00000000000E+00 0.  1.
         13    1    3    3    0    0 -0.30325896092E+01 -0.53570093754E+02 -0.54835210242E+02  0.76719305438E+02  0.00000000000E+00 0. -1.
         21    1    1    2  503  502  0.10860193200E+03  0.79380428099E+02 -0.89173297082E+02  0.16139240661E+03  0.00000000000E+00 0.  1.
          1    1    1    2  501    0 -0.38685945492E+03  0.42584048370E+03  0.76746787524E+03  0.95917010740E+03  0.00000000000E+00 0. -1.
<scales pt_clust_5="13000.00000" pt_clust_6="13000.00000" pt_clust_7="13000.00000" pt_clust_8="13000.00000" pt_clust_9="136.06585" pt_clust_10="566.85908"></scales>
<clustering>
<clus scale="   80.884">  5  6 -1 -1</clus>
<clus scale="   89.599">  7  8 -1 -1</clus>
<clus scale="  104.356">  2  7  1 -1</clus>
<clus scale="  136.066">  2  9  1 -1</clus>
<clus scale="  566.859">  1 10  2 -1</clus>
<clus scale="  566.859">  1  5  2 -1</clus>
</clustering>
</event>
<event>
10    4  0.2977685E-005  0.1212223E+03  0.7546771E-02  0.1244364E+00
         21   -1    0    0  501  502  0.00000000000E+00  0.00000000000E+00  0.24623116482E+03  0.24623116482E+03  0.00000000000E+00 0.  1.
          2   -1    0    0  503    0 -0.00000000000E+00 -0.00000000000E+00 -0.40098659040E+03  0.40098659040E+03  0.00000000000E+00 0. -1.
         24    2    1    2    0    0 -0.96127539655E+01 -0.59005680459E+02 -0.32153658385E+03  0.33686065661E+03  0.80717110061E+02 0.  0.
         23    2    1    2    0    0 -0.22885357106E+02  0.74373130522E+02  0.61602461021E+02  0.13485249251E+03  0.91297477617E+02 0.  0.
        -13    1    3    3    0    0 -0.27376832161E+02 -0.82793495894E+01 -0.34399249981E+02  0.44736416576E+02  0.00000000000E+00 0.  1.
         14    1    3    3    0    0  0.17764078196E+02 -0.50726330869E+02 -0.28713733387E+03  0.29212424004E+03  0.00000000000E+00 0. -1.
        -11    1    4    4    0    0  0.31151919306E+02  0.68841901978E+01  0.26753873305E+02  0.41636569119E+02  0.00000000000E+00 0. -1.
         11    1    4    4    0    0 -0.54037276413E+02  0.67488940324E+02  0.34848587716E+02  0.93215923392E+02  0.00000000000E+00 0.  1.
         21    1    1    2  503  502  0.13217647999E+02 -0.24293329805E+02 -0.28754880893E+02  0.39896306430E+02  0.00000000000E+00 0. -1.
          1    1    1    2  501    0  0.19280463073E+02  0.89258797420E+01  0.13393357813E+03  0.13560829966E+03  0.00000000000E+00 0. -1.
<scales pt_clust_5="13000.00000" pt_clust_6="13000.00000" pt_clust_7="13000.00000" pt_clust_8="13000.00000" pt_clust_9="27.74524" pt_clust_10="21.24635"></scales>
<clustering>
<clus scale="   21.246">  1 10  2 -1</clus>
<clus scale="   27.745">  2  9  1 -1</clus>
<clus scale="   80.717">  5  6 -1 -1</clus>
<clus scale="   91.297">  7  8 -1 -1</clus>
<clus scale="  113.467">  2  5  1 -1</clus>
<clus scale="   21.246">  1  5  2 -1</clus>
</clustering>
</event>
<event>
10    4  0.2977685E-005  0.1510503E+03  0.7546771E-02  0.1200525E+00
         21   -1    0    0  501  502  0.00000000000E+00  0.00000000000E+00  0.20577249285E+03  0.20577249285E+03  0.00000000000E+00 0. -1.
          4   -1    0    0  503    0 -0.00000000000E+00 -0.00000000000E+00 -0.43330257010E+03  0.43330257010E+03  0.00000000000E+00 0. -1.
         24    2    1    2    0    0 -0.45114321324E+02 -0.97451705125E+02  0.22608719802E+02  0.13606974064E+03  0.80446773007E+02 0.  0.
         23    2    1    2    0    0 -0.11546770659E+02  0.14056412017E+03 -0.37860027975E+02  0.17054097717E+03  0.88086567546E+02 0.  0.
        -13    1    3    3    0    0  0.18400418181E+02 -0.49202087812E+02 -0.20853577119E+01  0.52571565995E+02  0.00000000000E+00 0.  1.
         14    1    3    3    0    0 -0.63514739506E+02 -0.48249617313E+02  0.24694077514E+02  0.83498174648E+02  0.00000000000E+00 0. -1.
        -13    1    4    4    0    0  0.22160437669E+02  0.37635605583E+02  0.19672743474E+02  0.47901363666E+02  0.00000000000E+00 0.  1.
         13    1    4    4    0    0 -0.33707208328E+02  0.10292851459E+03 -0.57532771448E+02  0.12263961350E+03  0.00000000000E+00 0. -1.
         21    1    1    2  503  502  0.77738955873E+01  0.28793051709E+02 -0.23950217539E+03  0.24135195316E+03  0.00000000000E+00 0. -1.
          3    1    1    2  501    0  0.48887196396E+02 -0.71905466757E+02  0.27223406316E+02  0.91112391981E+02  0.00000000000E+00 0. -1.
<scales pt_clust_5="13000.00000" pt_clust_6="13000.00000" pt_clust_7="13000.00000" pt_clust_8="13000.00000" pt_clust_9="29.82404" pt_clust_10="83.81431"></scales>
<clustering>
<clus scale="   29.824">  2  9  1 -1</clus>
<clus scale="   80.447">  5  6 -1 -1</clus>
<clus scale="   83.814">  1 10  2 -1</clus>
<clus scale="   88.087">  7  8 -1 -1</clus>
<clus scale="  146.726">  2  5  1 -1</clus>
<clus scale="   83.814">  1  5  2 -1</clus>
</clustering>
</event>
<event>
10    4  0.2977685E-005  0.1437980E+03  0.7546771E-02  0.1222530E+00
         21   -1    0    0  503  502  0.00000000000E+00  0.00000000000E+00  0.75162836867E+02  0.75162836867E+02  0.00000000000E+00 0. -1.
         -1   -1    0    0    0  501 -0.00000000000E+00 -0.00000000000E+00 -0.74246665140E+03  0.74246665140E+03  0.00000000000E+00 0.  1.
         23    2    1    2    0    0  0.96638412493E+02  0.95316280676E+02 -0.16056506022E+03  0.22864972761E+03  0.89863136165E+02 0.  0.
         24    2    1    2    0    0 -0.13611950137E+02 -0.74851673995E+02 -0.11454589767E+03  0.15841923664E+03  0.78662783945E+02 0.  0.
        -11    1    4    4    0    0  0.77572192481E+01 -0.71778602883E+02 -0.11616213039E+03  0.13676981692E+03  0.00000000000E+00 0.  1.
         12    1    4    4    0    0 -0.21369169385E+02 -0.30730711125E+01  0.16162327175E+01  0.21649419726E+02  0.00000000000E+00 0. -1.
        -11    1    3    3    0    0  0.38881162617E+02  0.82017737686E+02 -0.51082707477E+02  0.10415419869E+03  0.00000000000E+00 0. -1.
         11    1    3    3    0    0  0.57757249876E+02  0.13298542989E+02 -0.10948235274E+03  0.12449552892E+03  0.00000000000E+00 0.  1.
         21    1    1    2  503  501 -0.10569170510E+03 -0.30314757092E+02 -0.39061701247E+03  0.40579720484E+03  0.00000000000E+00 0. -1.
         -2    1    1    2    0  502  0.22665242744E+02  0.98501504116E+01 -0.15758441706E+01  0.24763319177E+02  0.00000000000E+00 0.  1.
<scales pt_clust_5="13000.00000" pt_clust_6="13000.00000" pt_clust_7="13000.00000" pt_clust_8="13000.00000" pt_clust_9="112.26077" pt_clust_10="24.71313"></scales>
<clustering>
<clus scale="   24.713">  1 10  2 -1</clus>
<clus scale="   78.663">  5  6 -1 -1</clus>
<clus scale="   89.863">  7  8 -1 -1</clus>
<clus scale="  106.428">  1  5  2 -1</clus>
<clus scale="  112.261">  2  9  1 -1</clus>
<clus scale="   24.713">  1  5  2 -1</clus>
</clustering>
</event>
<event>
10    4  0.2977685E-005  0.1638029E+03  0.7546771E-02  0.1213065E+00
         21   -1    0    0  501  502  0.00000000000E+00  0.00000000000E+00  0.59473926921E+02  0.59473926921E+02  0.00000000000E+00 0. -1.
          2   -1    0    0  503    0 -0.00000000000E+00 -0.00000000000E+00 -0.12542992671E+04  0.12542992671E+04  0.00000000000E+00 0. -1.
         24    2    1    2    0    0 -0.23326721140E+02 -0.19779440103E+02 -0.50751571356E+03  0.51439022139E+03  0.78036774549E+02 0.  0.
         23    2    1    2    0    0 -0.11810308308E+03 -0.48658205076E+02 -0.12485601588E+03  0.20038236415E+03  0.90819094941E+02 0.  0.
        -13    1    3    3    0    0 -0.13191372320E+02 -0.49960453878E+02 -0.29226195770E+03  0.29679472902E+03  0.00000000000E+00 0.  1.
         14    1    3    3    0    0 -0.10135348820E+02  0.30181013775E+02 -0.21525375585E+03  0.21759549237E+03  0.00000000000E+00 0. -1.
        -11    1    4    4    0    0 -0.62273302085E+02  0.96647419575E+01 -0.95611476348E+02  0.11451168412E+03  0.00000000000E+00 0.  1.
         11    1    4    4    0    0 -0.55829780997E+02 -0.58322947033E+02 -0.29244539530E+02  0.85870680032E+02  0.00000000000E+00 0. -1.
         21    1    1    2  503  502  0.14486959832E+02 -0.37519264254E+02 -0.12664072004E+03  0.13287377155E+03  0.00000000000E+00 0. -1.
          1    1    1    2  501    0  0.12694284439E+03  0.10595690943E+03 -0.43581289066E+03  0.46612683688E+03  0.00000000000E+00 0. -1.
<scales pt_clust_5="13000.00000" pt_clust_6="13000.00000" pt_clust_7="13000.00000" pt_clust_8="13000.00000" pt_clust_9="40.21899" pt_clust_10="136.32055"></scales>
<clustering>
<clus scale="   40.219">  2  9  1 -1</clus>
<clus scale="   78.037">  5  6 -1 -1</clus>
<clus scale="   87.900">  2  5  1 -1</clus>
<clus scale="   90.819">  7  8 -1 -1</clus>
<clus scale="  136.321">  1 10  2 -1</clus>
<clus scale="  136.321">  1  5  2 -1</clus>
</clustering>
</event>
<event>
10    4  0.2977685E-005  0.1290668E+03  0.7546771E-02  0.1228899E+00
         21   -1    0    0  501  502  0.00000000000E+00  0.00000000000E+00  0.48807957135E+03  0.48807957135E+03  0.00000000000E+00 0. -1.
          2   -1    0    0  503    0 -0.00000000000E+00 -0.00000000000E+00 -0.44663047801E+03  0.44663047801E+03  0.00000000000E+00 0. -1.
         23    2    1    2    0    0 -0.17784149874E+02  0.81370083110E+02 -0.33893547332E+03  0.35899646650E+03  0.84046662475E+02 0.  0.
         24    2    1    2    0    0  0.99077276448E+01 -0.32588460198E+02  0.98153978613E+02  0.13350178526E+03  0.83835269097E+02 0.  0.
        -11    1    4    4    0    0 -0.24969316153E+02 -0.43296963047E+02  0.36603702006E+02  0.61950986746E+02  0.00000000000E+00 0.  1.
         12    1    4    4    0    0  0.34877043798E+02  0.10708502849E+02  0.61550276608E+02  0.71550798513E+02  0.00000000000E+00 0. -1.
        -11    1    3    3    0    0 -0.50554981157E+02  0.35961284386E+02 -0.16561610535E+03  0.17685506621E+03  0.00000000000E+00 0.  1.
         11    1    3    3    0    0  0.32770831283E+02  0.45408798724E+02 -0.17331936797E+03  0.18214140029E+03  0.00000000000E+00 0. -1.
         21    1    1    2  503  502  0.50889503246E+02  0.30592152533E+02 -0.62291718198E+02  0.86057419746E+02  0.00000000000E+00 0. -1.
          1    1    1    2  501    0 -0.43013081017E+02 -0.79373775445E+02  0.34452230625E+03  0.35615437786E+03  0.00000000000E+00 0. -1.
<scales pt_clust_5="13000.00000" pt_clust_6="13000.00000" pt_clust_7="13000.00000" pt_clust_8="13000.00000" pt_clust_9="59.37694" pt_clust_10="89.48176"></scales>
<clustering>
<clus scale="   59.377">  2  9  1 -1</clus>
<clus scale="   83.835">  5  6 -1 -1</clus>
<clus scale="   84.047">  7  8 -1 -1</clus>
<clus scale="   89.482">  1 10  2 -1</clus>
<clus scale="  128.929">  1  5  2 -1</clus>
<clus scale="   89.482">  1  5  2 -1</clus>
</clustering>
</event>
<event>
10    4  0.2977685E-005  0.1616791E+03  0.7546771E-02  0.1207969E+00
          2   -1    0    0  503    0 -0.00000000000E+00  0.00000000000E+00  0.18605647453E+04  0.18605647453E+04  0.00000000000E+00 0. -1.
         21   -1    0    0  501  502  0.00000000000E+00 -0.00000000000E+00 -0.75594521372E+02  0.75594521372E+02  0.00000000000E+00 0. -1.
         23    2    1    2    0    0 -0.54053505440E+01 -0.38364859081E+02  0.53342355570E+03  0.54246472843E+03  0.90698465217E+02 0.  0.
         24    2    1    2    0    0 -0.92187276125E+02 -0.99186540806E+02  0.39449878315E+02  0.16259460914E+03  0.80896540506E+02 0.  0.
        -13    1    4    4    0    0 -0.29960131306E+02 -0.62726691693E+02  0.55209365254E+02  0.88771173983E+02  0.00000000000E+00 0.  1.
         14    1    4    4    0    0 -0.62227144819E+02 -0.36459849113E+02 -0.15759486939E+02  0.73823435156E+02  0.00000000000E+00 0. -1.
        -13    1    3    3    0    0 -0.70737860349E+01 -0.68208094960E+02  0.38550029216E+03  0.39155185854E+03  0.00000000000E+00 0. -1.
         13    1    3    3    0    0  0.16684354909E+01  0.29843235880E+02  0.14792326353E+03  0.15091286989E+03  0.00000000000E+00 0.  1.
         21    1    1    2  503  502 -0.35655549390E+01 -0.23994809425E+02  0.16890600656E+03  0.17063910195E+03  0.00000000000E+00 0.  1.
          1    1    1    2  501    0  0.10115818161E+03  0.16154620931E+03  0.10431907833E+04  0.10604608271E+04  0.00000000000E+00 0. -1.
<scales pt_clust_5="13000.00000" pt_clust_6="13000.00000" pt_clust_7="13000.00000" pt_clust_8="13000.00000" pt_clust_9="24.25828" pt_clust_10="139.98538"></scales>
<clustering>
<clus scale="   24.258">  1  9  2 -1</clus>
<clus scale="   80.897">  5  6 -1 -1</clus>
<clus scale="   90.698">  7  8 -1 -1</clus>
<clus scale="  101.906">  1  7  2 -1</clus>
<clus scale="  139.985">  2 10  1 -1</clus>
<clus scale="  139.985">  2  5  1 -1</clus>
</clustering>
</event>
<event>
10    4  0.2977685E-005  0.1494450E+03  0.7546771E-02  0.1221087E+00
         21   -1    0    0  501  502  0.00000000000E+00  0.00000000000E+00  0.15069989773E+03  0.15069989773E+03  0.00000000000E+00 0. -1.
          2   -1    0    0  503    0 -0.00000000000E+00 -0.00000000000E+00 -0.35654657181E+03  0.35654657181E+03  0.00000000000E+00 0. -1.
         23    2    1    2    0    0 -0.43978844055E+02  0.50629269075E+01 -0.10042905284E+03  0.14130411977E+03  0.89000492455E+02 0.  0.
         24    2    1    2    0    0  0.17563860402E+02 -0.10984806348E+03 -0.63546854603E+02  0.15168405953E+03  0.81208158108E+02 0.  0.
        -11    1    4    4    0    0  0.35263982058E+02 -0.18768868631E+02 -0.13264381271E+01  0.39969717267E+02  0.00000000000E+00 0.  1.
         12    1    4    4    0    0 -0.17700121657E+02 -0.91079194848E+02 -0.62220416476E+02  0.11171434226E+03  0.00000000000E+00 0. -1.
        -13    1    3    3    0    0 -0.20369922928E+02  0.10634730506E+02 -0.11206750103E+03  0.11439910856E+03  0.00000000000E+00 0. -1.
         13    1    3    3    0    0 -0.23608921126E+02 -0.55718035986E+01  0.11638448187E+02  0.26905011212E+02  0.00000000000E+00 0.  1.
         21    1    1    2  503  502  0.99393304417E+01 -0.28365327153E+02 -0.70882379570E+02  0.76991517764E+02  0.00000000000E+00 0.  1.
          1    1    1    2  501    0  0.16475653211E+02  0.13315046372E+03  0.29011612932E+02  0.13726677247E+03  0.00000000000E+00 0. -1.
<scales pt_clust_5="13000.00000" pt_clust_6="13000.00000" pt_clust_7="13000.00000" pt_clust_8="13000.00000" pt_clust_9="30.05632" pt_clust_10="125.45534"></scales>
<clustering>
<clus scale="   30.056">  2  9  1 -1</clus>
<clus scale="   81.208">  5  6 -1 -1</clus>
<clus scale="   89.000">  7  8 -1 -1</clus>
<clus scale="   97.721">  2  7  1 -1</clus>
<clus scale="  125.455">  1 10  2 -1</clus>
<clus scale="  125.455">  1  5  2 -1</clus>
</clustering>
</event>
<event>
10    4  0.2977685E-005  0.1843774E+03  0.7546771E-02  0.1164052E+00
         -3   -1    0    0    0  501 -0.00000000000E+00  0.00000000000E+00  0.11907817982E+04  0.11907817982E+04  0.00000000000E+00 0.  1.
         21   -1    0    0  503  502  0.00000000000E+00 -0.00000000000E+00 -0.47009132792E+02  0.47009132792E+02  0.00000000000E+00 0. -1.
         23    2    1    2    0    0 -0.72517614228E+02 -0.13704101192E+03  0.63474659045E+03  0.65962123102E+03  0.90321044088E+02 0.  0.
         24    2    1    2    0    0  0.32232333154E+02  0.18014164475E+03  0.34853612736E+03  0.40307893820E+03  0.86632920265E+02 0.  0.
        -11    1    4    4    0    0 -0.15683787762E+02  0.75607067566E+02  0.20564032071E+03  0.21965962616E+03  0.00000000000E+00 0.  1.
         12    1    4    4    0    0  0.47916120916E+02  0.10453457718E+03  0.14289580665E+03  0.18341931204E+03  0.00000000000E+00 0. -1.
        -13    1    3    3    0    0 -0.21475310627E+02  0.80522430546E+01  0.12828602568E+03  0.13032011345E+03  0.00000000000E+00 0.  1.
         13    1    3    3    0    0 -0.51042303601E+02 -0.14509325497E+03  0.50646056477E+03  0.52930111757E+03  0.00000000000E+00 0. -1.
         21    1    1    2  503  501  0.22568339099E+02 -0.32182524099E+01  0.83882552271E+02  0.86925080695E+02  0.00000000000E+00 0. -1.
         -4    1    1    2    0  502  0.17716941975E+02 -0.39882380422E+02  0.76607395357E+02  0.88165681104E+02  0.00000000000E+00 0.  1.
<scales pt_clust_5="13000.00000" pt_clust_6="13000.00000" pt_clust_7="13000.00000" pt_clust_8="13000.00000" pt_clust_9="22.79665" pt_clust_10="44.56587"></scales>
<clustering>
<clus scale="   22.797">  1  9  2 -1</clus>
<clus scale="   44.566">  2 10  1 -1</clus>
<clus scale="   86.633">  5  6 -1 -1</clus>
<clus scale="   90.321">  7  8 -1 -1</clus>
<clus scale="  182.599">  2  5  1 -1</clus>
<clus scale="   44.566">  2  5  1 -1</clus>
</clustering>
</event>
<event>
10    4  0.2977685E-005  0.1259092E+03  0.7546771E-02  0.1236419E+00
         -1   -1    0    0    0  501 -0.00000000000E+00  0.00000000000E+00  0.35978111661E+03  0.35978111661E+03  0.00000000000E+00 0.  1.
         21   -1    0    0  503  502  0.00000000000E+00 -0.00000000000E+00 -0.15935052726E+03  0.15935052726E+03  0.00000000000E+00 0. -1.
         24    2    1    2    0    0 -0.71379545473E+02 -0.75738446580E+02  0.14484379451E+03  0.19532877375E+03  0.79638264939E+02 0.  0.
         23    2    1    2    0    0  0.57183166668E+02  0.63584196499E+02 -0.30856271126E+02  0.12768680281E+03  0.89660167017E+02 0.  0.
        -11    1    3    3    0    0 -0.69844477198E+02 -0.87620302133E+02  0.14512000146E+03  0.18334498402E+03  0.00000000000E+00 0.  1.
         12    1    3    3    0    0 -0.15350682755E+01  0.11881855552E+02 -0.27620694848E+00  0.11983789729E+02  0.00000000000E+00 0. -1.
        -11    1    4    4    0    0  0.78176974138E+02  0.66210648123E+02 -0.28862640912E+02  0.10643562022E+03  0.00000000000E+00 0. -1.
         11    1    4    4    0    0 -0.20993807471E+02 -0.26264516234E+01 -0.19936302145E+01  0.21251182595E+02  0.00000000000E+00 0.  1.
         21    1    1    2  503  501  0.37515145709E+02 -0.25333704594E+01  0.13507912862E+03  0.14021474641E+03  0.00000000000E+00 0.  1.
         -2    1    1    2    0  502 -0.23318766903E+02  0.14687620540E+02 -0.48636062660E+02  0.55901320897E+02  0.00000000000E+00 0.  1.
<scales pt_clust_5="13000.00000" pt_clust_6="13000.00000" pt_clust_7="13000.00000" pt_clust_8="13000.00000" pt_clust_9="37.02028" pt_clust_10="27.55887"></scales>
<clustering>
<clus scale="   27.559">  2 10  1 -1</clus>
<clus scale="   37.020">  1  9  2 -1</clus>
<clus scale="   79.638">  5  6 -1 -1</clus>
<clus scale="   89.660">  7  8 -1 -1</clus>
<clus scale="  118.981">  1  5  2 -1</clus>
<clus scale="   27.559">  2  5  1 -1</clus>
</clustering>
</event>
<event>
10    4  0.2977685E-005  0.1642549E+03  0.7546771E-02  0.1192540E+00
          2   -1    0    0  503    0 -0.00000000000E+00  0.00000000000E+00  0.59310313890E+03  0.59310313890E+03  0.00000000000E+00 0. -1.
         21   -1    0    0  501  502  0.00000000000E+00 -0.00000000000E+00 -0.65286374558E+02  0.65286374558E+02  0.00000000000E+00 0. -1.
         24    2    1    2    0    0 -0.10744883238E+03  0.25033095355E+02  0.16018097100E+03  0.21000258625E+03  0.79191131548E+02 0.  0.
         23    2    1    2    0    0  0.11494055525E+03  0.79835479251E+01  0.20253613018E+03  0.26284849261E+03  0.12162803032E+03 0.  0.
        -13    1    3    3    0    0 -0.83266299899E+02  0.11167410738E+02  0.16155466935E+03  0.18209310517E+03  0.00000000000E+00 0.  1.
         14    1    3    3    0    0 -0.24182532480E+02  0.13865684617E+02 -0.13736983422E+01  0.27909481080E+02  0.00000000000E+00 0. -1.
        -11    1    4    4    0    0  0.30792377355E+02 -0.24511875849E+02 -0.18925572266E+01  0.39402846771E+02  0.00000000000E+00 0.  1.
         11    1    4    4    0    0  0.84148177896E+02  0.32495423774E+02  0.20442868741E+03  0.22344564584E+03  0.00000000000E+00 0. -1.
         21    1    1    2  503  502  0.18315664543E+02 -0.37516907230E+02  0.14911676699E+03  0.15485087049E+03  0.00000000000E+00 0. -1.
          1    1    1    2  501    0 -0.25807387415E+02  0.45002639496E+01  0.15982896169E+02  0.30687564106E+02  0.00000000000E+00 0. -1.
<scales pt_clust_5="13000.00000" pt_clust_6="13000.00000" pt_clust_7="13000.00000" pt_clust_8="13000.00000" pt_clust_9="41.00205" pt_clust_10="26.19682"></scales>
<clustering>
<clus scale="   26.197">  2 10  1 -1</clus>
<clus scale="   41.002">  1  9  2 -1</clus>
<clus scale="   79.191">  5  6 -1 -1</clus>
<clus scale="  121.628">  7  8 -1 -1</clus>
<clus scale="  135.858">  1  5  2 -1</clus>
<clus scale="   26.197">  2  5  1 -1</clus>
</clustering>
</event>
<event>
10    4  0.2977685E-005  0.1205358E+03  0.7546771E-02  0.1242994E+00
          2   -1    0    0  503    0 -0.00000000000E+00  0.00000000000E+00  0.52463197396E+03  0.52463197396E+03  0.00000000000E+00 0. -1.
         21   -1    0    0  501  502  0.00000000000E+00 -0.00000000000E+00 -0.93730020140E+02  0.93730020140E+02  0.00000000000E+00 0. -1.
         24    2    1    2    0    0  0.42942124149E+02 -0.60481681918E+02  0.19938074154E+03  0.22724673911E+03  0.79914582315E+02 0.  0.
         23    2    1    2    0    0 -0.64984662587E+02  0.79910682379E+02  0.26039498057E+03  0.29197697742E+03  0.82681835409E+02 0.  0.
        -11    1    3    3    0    0 -0.22998264117E+02 -0.10884071245E+02  0.34441332926E+02  0.42820422382E+02  0.00000000000E+00 0.  1.
         12    1    3    3    0    0  0.65940388266E+02 -0.49597610673E+02  0.16493940861E+03  0.18442631673E+03  0.00000000000E+00 0. -1.
        -13    1    4    4    0    0 -0.49616351481E+02  0.25504097124E+02  0.52766214409E+02  0.76788766675E+02  0.00000000000E+00 0.  1.
         13    1    4    4    0    0 -0.15368311106E+02  0.54406585255E+02  0.20762876617E+03  0.21518821075E+03  0.00000000000E+00 0. -1.
         21    1    1    2  503  502  0.15738388901E+02  0.15099545273E+02  0.26038935917E+02  0.33966444270E+02  0.00000000000E+00 0. -1.
          1    1    1    2  501    0  0.63041495365E+01 -0.34528545735E+02 -0.54912704208E+02  0.65171833297E+02  0.00000000000E+00 0. -1.
<scales pt_clust_5="13000.00000" pt_clust_6="13000.00000" pt_clust_7="13000.00000" pt_clust_8="13000.00000" pt_clust_9="21.81039" pt_clust_10="34.97511"></scales>
<clustering>
<clus scale="   21.810">  1  9  2 -1</clus>
<clus scale="   34.975">  2 10  1 -1</clus>
<clus scale="   79.915">  5  6 -1 -1</clus>
<clus scale="   82.682">  7  8 -1 -1</clus>
<clus scale="  118.655">  1  5  2 -1</clus>
<clus scale="   34.975">  2  5  1 -1</clus>
</clustering>
</event>
<event>
10    4  0.2977685E-005  0.2261066E+03  0.7546771E-02  0.1130245E+00
         -3   -1    0    0    0  501 -0.00000000000E+00  0.00000000000E+00  0.12701465596E+04  0.12701465596E+04  0.00000000000E+00 0.  1.
         21   -1    0    0  503  502  0.00000000000E+00 -0.00000000000E+00 -0.16204582119E+03  0.16204582119E+03  0.00000000000E+00 0.  1.
         24    2    1    2    0    0  0.84123157463E+02  0.11343306289E+03  0.45397168734E+03  0.48202809171E+03  0.79479701229E+02 0.  0.
         23    2    1    2    0    0 -0.25185083925E+03 -0.14758192378E+03  0.18836967118E+03  0.35925217657E+03  0.91486195088E+02 0.  0.
        -13    1    3    3    0    0  0.87089738441E+02  0.12245450895E+03  0.40137506114E+03  0.42858099469E+03  0.00000000000E+00 0.  1.
         14    1    3    3    0    0 -0.29665809784E+01 -0.90214460580E+01  0.52596626203E+02  0.53447097018E+02  0.00000000000E+00 0. -1.
        -11    1    4    4    0    0 -0.48850721105E+02 -0.70121690576E+02  0.30745760091E+02  0.90822608448E+02  0.00000000000E+00 0. -1.
         11    1    4    4    0    0 -0.20300011814E+03 -0.77460233206E+02  0.15762391109E+03  0.26842956812E+03  0.00000000000E+00 0.  1.
         21    1    1    2  503  501  0.85848069283E+02  0.25735004025E+02  0.49538910332E+03  0.50343077490E+03  0.00000000000E+00 0. -1.
         -4    1    1    2    0  502  0.81879612503E+02  0.84138568636E+01 -0.29629723384E+02  0.87481337660E+02  0.00000000000E+00 0.  1.
<scales pt_clust_5="13000.00000" pt_clust_6="13000.00000" pt_clust_7="13000.00000" pt_clust_8="13000.00000" pt_clust_9="92.76549" pt_clust_10="82.31078"></scales>
<clustering>
<clus scale="   79.480">  5  6 -1 -1</clus>
<clus scale="   82.311">  2 10  1 -1</clus>
<clus scale="   91.486">  7  8 -1 -1</clus>
<clus scale="   92.765">  1  9  2 -1</clus>
<clus scale="  221.521">  1  5  2 -1</clus>
<clus scale="   82.311">  2  5  1 -1</clus>
</clustering>
</event>
<event>
10    4  0.2977685E-005  0.2094322E+03  0.7546771E-02  0.1157724E+00
         21   -1    0    0  501  502  0.00000000000E+00  0.00000000000E+00  0.13209039790E+04  0.13209039790E+04  0.00000000000E+00 0. -1.
          4   -1    0    0  503    0 -0.00000000000E+00 -0.00000000000E+00 -0.24267171521E+03  0.24267171521E+03  0.00000000000E+00 0. -1.
         23    2    1    2    0    0 -0.27764343719E+02  0.12163636299E+03  0.10838814743E+03  0.18862012733E+03  0.90902686127E+02 0.  0.
         24    2    1    2    0    0 -0.14754466670E+03  0.28461138014E+02  0.25693204248E+03  0.30831410265E+03  0.80399293467E+02 0.  0.
        -11    1    4    4    0    0 -0.97031897725E+02  0.39106727732E+02  0.22360690962E+03  0.24686955130E+03  0.00000000000E+00 0.  1.
         12    1    4    4    0    0 -0.50512768978E+02 -0.10645589718E+02  0.33325132863E+02  0.61444551350E+02  0.00000000000E+00 0. -1.
        -11    1    3    3    0    0 -0.40353251056E+02  0.89056816113E+02  0.29149816478E+02  0.10202555154E+03  0.00000000000E+00 0.  1.
         11    1    3    3    0    0  0.12588907337E+02  0.32579546880E+02  0.79238330956E+02  0.86594575786E+02  0.00000000000E+00 0. -1.
         21    1    1    2  503  502 -0.91011894086E+01 -0.28351999904E+02 -0.16176534930E+03  0.16448311701E+03  0.00000000000E+00 0. -1.
          3    1    1    2  501    0  0.18441019983E+03 -0.12174550110E+03  0.87467742319E+03  0.90215834723E+03  0.00000000000E+00 0. -1.
<scales pt_clust_5="13000.00000" pt_clust_6="13000.00000" pt_clust_7="13000.00000" pt_clust_8="13000.00000" pt_clust_9="29.77696" pt_clust_10="193.38513"></scales>
<clustering>
<clus scale="   29.777">  2  9  1 -1</clus>
<clus scale="   80.399">  5  6 -1 -1</clus>
<clus scale="   90.903">  7  8 -1 -1</clus>
<clus scale="  144.332">  2  7  1 -1</clus>
<clus scale="  193.385">  1 10  2 -1</clus>
<clus scale="  193.385">  1  5  2 -1</clus>
</clustering>
</event>
<event>
10    4  0.2977685E-005  0.1433765E+03  0.7546771E-02  0.1211060E+00
         21   -1    0    0  503  502  0.00000000000E+00  0.00000000000E+00  0.55024902012E+03  0.55024902012E+03  0.00000000000E+00 0.  1.
         -1   -1    0    0    0  501 -0.00000000000E+00 -0.00000000000E+00 -0.87284893542E+02  0.87284893542E+02  0.00000000000E+00 0.  1.
         23    2    1    2    0    0 -0.12223382073E+03 -0.18080438123E+02  0.11623206376E+03  0.19221749600E+03  0.90386193344E+02 0.  0.
         24    2    1    2    0    0  0.78456428197E+02  0.32948423134E+02  0.35284710606E+03  0.37157111208E+03  0.79517302270E+02 0.  0.
        -13    1    4    4    0    0  0.58955899940E+02  0.57345365910E+02  0.21413641210E+03  0.22938764596E+03  0.00000000000E+00 0.  1.
         14    1    4    4    0    0  0.19500528257E+02 -0.24396942775E+02  0.13871069396E+03  0.14218346612E+03  0.00000000000E+00 0. -1.
        -13    1    3    3    0    0 -0.95247984849E+02  0.27364621246E+02  0.64385170717E+02  0.11817974159E+03  0.00000000000E+00 0.  1.
         13    1    3    3    0    0 -0.26985835883E+02 -0.45445059369E+02  0.51846893043E+02  0.74037754406E+02  0.00000000000E+00 0. -1.
         21    1    1    2  503  501  0.74067506818E+01 -0.30527681850E+02 -0.12166189078E+02  0.33687022301E+02  0.00000000000E+00 0.  1.
         -2    1    1    2    0  502  0.36370641853E+02  0.15659696839E+02  0.60511458279E+01  0.40058283285E+02  0.00000000000E+00 0.  1.
<scales pt_clust_5="13000.00000" pt_clust_6="13000.00000" pt_clust_7="13000.00000" pt_clust_8="13000.00000" pt_clust_9="31.41336" pt_clust_10="39.07266"></scales>
<clustering>
<clus scale="   31.413">  2  9  1 -1</clus>
<clus scale="   39.073">  1 10  2 -1</clus>
<clus scale="   79.517">  5  6 -1 -1</clus>
<clus scale="   90.386">  7  8 -1 -1</clus>
<clus scale="  136.785">  1  5  2 -1</clus>
<clus scale="   39.073">  1  5  2 -1</clus>
</clustering>
</event>
<event>
10    4  0.2977685E-005  0.1476849E+03  0.7546771E-02  0.1228917E+00
         21   -1    0    0  501  502  0.00000000000E+00  0.00000000000E+00  0.23116554936E+03  0.23116554936E+03  0.00000000000E+00 0. -1.
          4   -1    0    0  503    0 -0.00000000000E+00 -0.00000000000E+00 -0.41789703705E+03  0.41789703705E+03  0.00000000000E+00 0. -1.
         24    2    1    2    0    0 -0.31594756958E+02  0.57133493834E+02 -0.20615306145E+03  0.23106559969E+03  0.81423349418E+02 0.  0.
         23    2    1    2    0    0  0.11842721450E+03  0.26775978060E+02  0.80169295869E+02  0.17176305149E+03  0.91287850889E+02 0.  0.
        -11    1    3    3    0    0 -0.18501379944E+02  0.26864433252E+02 -0.12994863519E+02  0.35112181813E+02  0.00000000000E+00 0.  1.
         12    1    3    3    0    0 -0.13093377013E+02  0.30269060582E+02 -0.19315819793E+03  0.19595341788E+03  0.00000000000E+00 0. -1.
        -13    1    4    4    0    0  0.17064725150E+02  0.13931956525E+02  0.64797850853E+02  0.68440234747E+02  0.00000000000E+00 0.  1.
         13    1    4    4    0    0  0.10136248935E+03  0.12844021535E+02  0.15371445016E+02  0.10332281674E+03  0.00000000000E+00 0. -1.
         21    1    1    2  503  502  0.19633034899E+02 -0.48730373863E+02 -0.11142281873E+03  0.12318745849E+03  0.00000000000E+00 0. -1.
          3    1    1    2  501    0 -0.10646549245E+03 -0.35179098031E+02  0.50675096619E+02  0.12304647674E+03  0.00000000000E+00 0. -1.
<scales pt_clust_5="13000.00000" pt_clust_6="13000.00000" pt_clust_7="13000.00000" pt_clust_8="13000.00000" pt_clust_9="52.53671" pt_clust_10="116.09207"></scales>
<clustering>
<clus scale="   52.537">  2  9  1 -1</clus>
<clus scale="   81.423">  5  6 -1 -1</clus>
<clus scale="   86.025">  2  5  1 -1</clus>
<clus scale="   91.288">  7  8 -1 -1</clus>
<clus scale="  116.092">  1 10  2 -1</clus>
<clus scale="  116.092">  1  5  2 -1</clus>
</clustering>
</event>
<event>
10    4  0.2977685E-005  0.1015268E+03  0.7546771E-02  0.1281141E+00
          2   -1    0    0  503    0 -0.00000000000E+00  0.00000000000E+00  0.15988543019E+04  0.15988543019E+04  0.00000000000E+00 0. -1.
         21   -1    0    0  501  502  0.00000000000E+00 -0.00000000000E+00 -0.17396499166E+02  0.17396499166E+02  0.00000000000E+00 0.  1.
         24    2    1    2    0    0 -0.12796472707E+02  0.47802970759E+02  0.54785697503E+03  0.55642469712E+03  0.83739505292E+02 0.  0.
         23    2    1    2    0    0 -0.49385300964E+02 -0.22955763433E+02  0.33624986295E+03  0.35285651191E+03  0.92075363928E+02 0.  0.
        -11    1    3    3    0    0 -0.19344989875E+02  0.60013979113E+02  0.23655700792E+03  0.24481651153E+03  0.00000000000E+00 0.  1.
         12    1    3    3    0    0  0.65485171677E+01 -0.12211008353E+02  0.31129996710E+03  0.31160818558E+03  0.00000000000E+00 0. -1.
        -13    1    4    4    0    0 -0.72546626476E+02  0.22934529405E+01  0.22017848226E+03  0.23183364077E+03  0.00000000000E+00 0.  1.
         13    1    4    4    0    0  0.23161325512E+02 -0.25249216373E+02  0.11607138068E+03  0.12102287115E+03  0.00000000000E+00 0. -1.
         21    1    1    2  503  502 -0.13659237751E+02  0.22854403522E+02  0.15802465794E+03  0.16025196116E+03  0.00000000000E+00 0.  1.
          1    1    1    2  501    0  0.75841011423E+02 -0.47701610849E+02  0.53932630684E+03  0.54671763091E+03  0.00000000000E+00 0. -1.
<scales pt_clust_5="13000.00000" pt_clust_6="13000.00000" pt_clust_7="13000.00000" pt_clust_8="13000.00000" pt_clust_9="26.62515" pt_clust_10="80.77329"></scales>
<clustering>
<clus scale="   26.625">  1  9  2 -1</clus>
<clus scale="   80.773">  2 10  1 -1</clus>
<clus scale="   83.740">  5  6 -1 -1</clus>
<clus scale="   92.075">  7  8 -1 -1</clus>
<clus scale="   94.033">  1  5  2 -1</clus>
<clus scale="   80.773">  2  5  1 -1</clus>
</clustering>
</event>
<event>
10    4  0.2977685E-005  0.9312575E+02  0.7546771E-02  0.1301311E+00
         21   -1    0    0  503  502  0.00000000000E+00  0.00000000000E+00  0.17772286877E+03  0.17772286877E+03  0.00000000000E+00 0.  1.
         -1   -1    0    0    0  501 -0.00000000000E+00 -0.00000000000E+00 -0.16143179381E+03  0.16143179381E+03  0.00000000000E+00 0.  1.
         23    2    1    2    0    0 -0.39081024568E+01 -0.43784413437E+01 -0.10290626647E+03  0.13787693915E+03  0.91574596132E+02 0.  0.
         24    2    1    2    0    0  0.63722080838E+01  0.28537503635E+02  0.86705851508E+02  0.12276220519E+03  0.81839233786E+02 0.  0.
        -11    1    4    4    0    0  0.41517019301E+02  0.44512448633E+01  0.28196624661E+02  0.50383788214E+02  0.00000000000E+00 0.  1.
         12    1    4    4    0    0 -0.35144811217E+02  0.24086258772E+02  0.58509226846E+02  0.72378416971E+02  0.00000000000E+00 0. -1.
        -13    1    3    3    0    0  0.16257914440E+02  0.22544260001E+02 -0.10036570883E+03  0.10414335769E+03  0.00000000000E+00 0.  1.
         13    1    3    3    0    0 -0.20166016897E+02 -0.26922701345E+02 -0.25405576393E+01  0.33733581463E+02  0.00000000000E+00 0. -1.
         21    1    1    2  503  501  0.24615880709E+02 -0.51348224380E+01 -0.78440441599E+01  0.26340786118E+02  0.00000000000E+00 0.  1.
         -2    1    1    2    0  502 -0.27079986336E+02 -0.19024239853E+02  0.40335534088E+02  0.52174732123E+02  0.00000000000E+00 0.  1.
<scales pt_clust_5="13000.00000" pt_clust_6="13000.00000" pt_clust_7="13000.00000" pt_clust_8="13000.00000" pt_clust_9="25.14573" pt_clust_10="32.39825"></scales>
<clustering>
<clus scale="   25.146">  2  9  1 -1</clus>
<clus scale="   32.398">  1 10  2 -1</clus>
<clus scale="   81.839">  5  6 -1 -1</clus>
<clus scale="   83.571">  1  5  2 -1</clus>
<clus scale="   91.575">  7  8 -1 -1</clus>
<clus scale="   32.398">  1  5  2 -1</clus>
</clustering>
</event>
<event>
10    4  0.2977685E-005  0.3171697E+03  0.7546771E-02  0.1098445E+00
          2   -1    0    0  503    0 -0.00000000000E+00  0.00000000000E+00  0.21327255927E+03  0.21327255927E+03  0.00000000000E+00 0. -1.
         21   -1    0    0  501  502  0.00000000000E+00 -0.00000000000E+00 -0.12249609002E+04  0.12249609002E+04  0.00000000000E+00 0.  1.
         23    2    1    2    0    0  0.54136459396E+01 -0.14857473796E+03 -0.22704837106E+03  0.28629015122E+03  0.91144542137E+02 0.  0.
         24    2    1    2    0    0 -0.29803623148E+02  0.35768003192E+03 -0.83781626125E+03  0.91489952865E+03  0.79257799191E+02 0.  0.
        -11    1    4    4    0    0 -0.56863182940E+02  0.25833713312E+03 -0.59426786490E+03  0.65048119971E+03  0.00000000000E+00 0.  1.
         12    1    4    4    0    0  0.27059559792E+02  0.99342898798E+02 -0.24354839635E+03  0.26441832894E+03  0.00000000000E+00 0. -1.
        -13    1    3    3    0    0 -0.40028837477E+02 -0.98247810664E+02 -0.12790034890E+03  0.16617292011E+03  0.00000000000E+00 0. -1.
         13    1    3    3    0    0  0.45442483417E+02 -0.50326927296E+02 -0.99148022162E+02  0.12011723111E+03  0.00000000000E+00 0.  1.
         21    1    1    2  503  502 -0.10613674267E+02 -0.31685498087E+02  0.44959146465E+02  0.56017369818E+02  0.00000000000E+00 0. -1.
          1    1    1    2  501    0  0.35003651475E+02 -0.17741979587E+03  0.82171448801E+01  0.18102640982E+03  0.00000000000E+00 0. -1.
<scales pt_clust_5="13000.00000" pt_clust_6="13000.00000" pt_clust_7="13000.00000" pt_clust_8="13000.00000" pt_clust_9="33.41588" pt_clust_10="307.10735"></scales>
<clustering>
<clus scale="   33.416">  1  9  2 -1</clus>
<clus scale="   79.258">  5  6 -1 -1</clus>
<clus scale="   91.145">  7  8 -1 -1</clus>
<clus scale="  179.278">  1  7  2 -1</clus>
<clus scale="  307.107">  2 10  1 -1</clus>
<clus scale="  307.107">  2  5  1 -1</clus>
</clustering>
</event>
<event>
10    4  0.2977685E-005  0.2581613E+03  0.7546771E-02  0.1136672E+00
         21   -1    0    0  501  502  0.00000000000E+00  0.00000000000E+00  0.27815879993E+03  0.27815879993E+03  0.00000000000E+00 0. -1.
          2   -1    0    0  503    0 -0.00000000000E+00 -0.00000000000E+00 -0.82758181803E+03  0.82758181803E+03  0.00000000000E+00 0. -1.
         24    2    1    2    0    0 -0.91783334438E+02  0.32408179670E+02 -0.13131794707E+03  0.17869038548E+03  0.72189888844E+02 0.  0.
         23    2    1    2    0    0 -0.12080018415E+03 -0.98323690834E+02 -0.38733121960E+03  0.42710958791E+03  0.90204732368E+02 0.  0.
        -11    1    3    3    0    0 -0.56672702340E+02  0.20285716185E+02 -0.23440019395E+02  0.64596748996E+02  0.00000000000E+00 0.  1.
         12    1    3    3    0    0 -0.35110632098E+02  0.12122463485E+02 -0.10787792768E+03  0.11409363649E+03  0.00000000000E+00 0. -1.
        -11    1    4    4    0    0 -0.11326406103E+03 -0.56714870266E+02 -0.34392865279E+03  0.36651363173E+03  0.00000000000E+00 0.  1.
         11    1    4    4    0    0 -0.75361231199E+01 -0.41608820568E+02 -0.43402566810E+02  0.60595956189E+02  0.00000000000E+00 0. -1.
         21    1    1    2  503  502 -0.35078778349E+02 -0.97413068760E+01 -0.19164998085E+03  0.19507723832E+03  0.00000000000E+00 0. -1.
          1    1    1    2  501    0  0.24766229694E+03  0.75656818039E+02  0.16087612942E+03  0.30486340623E+03  0.00000000000E+00 0. -1.
<scales pt_clust_5="13000.00000" pt_clust_6="13000.00000" pt_clust_7="13000.00000" pt_clust_8="13000.00000" pt_clust_9="36.40623" pt_clust_10="241.88915"></scales>
<clustering>
<clus scale="   36.406">  2  9  1 -1</clus>
<clus scale="   72.190">  5  6 -1 -1</clus>
<clus scale="   90.205">  7  8 -1 -1</clus>
<clus scale="  127.218">  2  5  1 -1</clus>
<clus scale="  241.889">  1 10  2 -1</clus>
<clus scale="  241.889">  1  5  2 -1</clus>
</clustering>
</event>
<event>
10    4  0.2977685E-005  0.3023623E+03  0.7546771E-02  0.1114798E+00
         21   -1    0    0  503  502  0.00000000000E+00  0.00000000000E+00  0.21067271845E+03  0.21067271845E+03  0.00000000000E+00 0.  1.
         -3   -1    0    0    0  501 -0.00000000000E+00 -0.00000000000E+00 -0.77521511773E+03  0.77521511773E+03  0.00000000000E+00 0.  1.
         23    2    1    2    0    0 -0.10157723075E+03  0.34747424280E+02 -0.25735149005E+02  0.14013695345E+03  0.86317730082E+02 0.  0.
         24    2    1    2    0    0 -0.89079404884E+02  0.24379178476E+03 -0.32555724645E+03  0.42409307758E+03  0.80609199516E+02 0.  0.
        -11    1    4    4    0    0 -0.60870686448E+02  0.17558145770E+03 -0.16977966212E+03  0.25171257900E+03  0.00000000000E+00 0.  1.
         12    1    4    4    0    0 -0.28208718435E+02  0.68210327069E+02 -0.15577758432E+03  0.17238049858E+03  0.00000000000E+00 0. -1.
        -11    1    3    3    0    0 -0.53306944966E+02 -0.27826747505E+00  0.27687779899E+02  0.60069301395E+02  0.00000000000E+00 0. -1.
         11    1    3    3    0    0 -0.48270285781E+02  0.35025691755E+02 -0.53422928904E+02  0.80067652051E+02  0.00000000000E+00 0.  1.
         21    1    1    2  503  501  0.13306560645E+02 -0.17771867041E+02 -0.73389811097E+02  0.76674429814E+02  0.00000000000E+00 0. -1.
         -4    1    1    2    0  502  0.17735007499E+03 -0.26076734200E+03 -0.13986019273E+03  0.34498337534E+03  0.00000000000E+00 0.  1.
<scales pt_clust_5="13000.00000" pt_clust_6="13000.00000" pt_clust_7="13000.00000" pt_clust_8="13000.00000" pt_clust_9="22.20144" pt_clust_10="291.41912"></scales>
<clustering>
<clus scale="   22.201">  2  9  1 -1</clus>
<clus scale="   80.609">  5  6 -1 -1</clus>
<clus scale="   86.318">  7  8 -1 -1</clus>
<clus scale="  136.075">  2  7  1 -1</clus>
<clus scale="  291.419">  1 10  2 -1</clus>
<clus scale="  291.419">  1  5  2 -1</clus>
</clustering>
</event>
<event>
10    4  0.5488810E-005  0.3878064E+03  0.7546771E-02  0.1048302E+00
         21   -1    0    0  503  502  0.00000000000E+00  0.00000000000E+00  0.88965068218E+03  0.88965068218E+03  0.00000000000E+00 0.  1.
         -1   -1    0    0    0  501 -0.00000000000E+00 -0.00000000000E+00 -0.36621520636E+03  0.36621520636E+03  0.00000000000E+00 0.  1.
         23    2    1    2    0    0  0.14756125348E+03  0.29442072297E+03  0.88952827551E+02  0.35315239600E+03  0.91357121385E+02 0.  0.
         24    2    1    2    0    0 -0.31863753993E+03 -0.39424162125E+03  0.45464542590E+03  0.68567436662E+03  0.80563862694E+02 0.  0.
        -13    1    4    4    0    0 -0.27104906651E+03 -0.28279426592E+03  0.35817056367E+03  0.53077899918E+03  0.00000000000E+00 0.  1.
         14    1    4    4    0    0 -0.47588473426E+02 -0.11144735533E+03  0.96474862225E+02  0.15489536744E+03  0.00000000000E+00 0. -1.
        -11    1    3    3    0    0  0.66350495468E+02  0.47546705745E+02  0.15534139727E+02  0.83092640908E+02  0.00000000000E+00 0.  1.
         11    1    3    3    0    0  0.81210758011E+02  0.24687401723E+03  0.73418687824E+02  0.27005975509E+03  0.00000000000E+00 0. -1.
         21    1    1    2  503  501  0.26843565967E+02 -0.68673112323E+01  0.18761043610E+02  0.33462124181E+02  0.00000000000E+00 0. -1.
         -2    1    1    2    0  502  0.14423272049E+03  0.10668820951E+03 -0.38923821240E+02  0.18357700174E+03  0.00000000000E+00 0.  1.
<scales pt_clust_5="13000.00000" pt_clust_6="13000.00000" pt_clust_7="13000.00000" pt_clust_8="13000.00000" pt_clust_9="27.70807" pt_clust_10="180.87758"></scales>
<clustering>
<clus scale="   27.708">  1  9  2 -1</clus>
<clus scale="   80.564">  5  6 -1 -1</clus>
<clus scale="   91.357">  7  8 -1 -1</clus>
<clus scale="  180.878">  1 10  2 -1</clus>
<clus scale="  385.407">  1  5  2 -1</clus>
<clus scale="   27.708">  1  5  2 -1</clus>
</clustering>
</event>
<event>
10    4  0.2977685E-005  0.2077805E+03  0.7546771E-02  0.1144169E+00
         21   -1    0    0  501  502  0.00000000000E+00  0.00000000000E+00  0.85635005708E+02  0.85635005708E+02  0.00000000000E+00 0. -1.
          2   -1    0    0  503    0 -0.00000000000E+00 -0.00000000000E+00 -0.10940934148E+04  0.10940934148E+04  0.00000000000E+00 0. -1.
         24    2    1    2    0    0  0.13695980060E+03  0.89287379194E+02 -0.38913769058E+03  0.42962850691E+03  0.80139183027E+02 0.  0.
         23    2    1    2    0    0 -0.18389166212E+03 -0.16273980800E+03 -0.22863091599E+03  0.34739823191E+03  0.90072455752E+02 0.  0.
        -11    1    3    3    0    0  0.60549984587E+01  0.42697634188E+02 -0.90816503579E+02  0.10053550763E+03  0.00000000000E+00 0.  1.
         12    1    3    3    0    0  0.13090480214E+03  0.46589745006E+02 -0.29832118700E+03  0.32909299928E+03  0.00000000000E+00 0. -1.
        -13    1    4    4    0    0 -0.14858426341E+03 -0.77153431987E+02 -0.16495122838E+03  0.23502945166E+03  0.00000000000E+00 0. -1.
         13    1    4    4    0    0 -0.35307398707E+02 -0.85586376015E+02 -0.63679687607E+02  0.11236878026E+03  0.00000000000E+00 0.  1.
         21    1    1    2  503  502 -0.47510278434E+01  0.21492817402E+02 -0.13234961114E+03  0.13416755582E+03  0.00000000000E+00 0. -1.
          1    1    1    2  501    0  0.51682889362E+02  0.51959611405E+02 -0.25834019134E+03  0.26853412583E+03  0.00000000000E+00 0. -1.
<scales pt_clust_5="13000.00000" pt_clust_6="13000.00000" pt_clust_7="13000.00000" pt_clust_8="13000.00000" pt_clust_9="22.01167" pt_clust_10="76.71427"></scales>
<clustering>
<clus scale="   22.012">  2  9  1 -1</clus>
<clus scale="   76.714">  1 10  2 -1</clus>
<clus scale="   80.139">  5  6 -1 -1</clus>
<clus scale="   90.072">  7  8 -1 -1</clus>
<clus scale="  203.671">  2  5  1 -1</clus>
<clus scale="   76.714">  1  5  2 -1</clus>
</clustering>
</event>
<event>
10    4  0.2977685E-005  0.2733463E+03  0.7546771E-02  0.1099839E+00
          2   -1    0    0  503    0 -0.00000000000E+00  0.00000000000E+00  0.11856437173E+04  0.11856437173E+04  0.00000000000E+00 0. -1.
         21   -1    0    0  501  502  0.00000000000E+00 -0.00000000000E+00 -0.96518974984E+02  0.96518974984E+02  0.00000000000E+00 0. -1.
         23    2    1    2    0    0  0.12882723408E+03  0.23529002880E+03  0.55711551659E+03  0.62504155477E+03  0.91331223978E+02 0.  0.
         24    2    1    2    0    0 -0.18054369048E+03 -0.17490969237E+03  0.39300593470E+03  0.47352288788E+03  0.81122351903E+02 0.  0.
        -11    1    4    4    0    0 -0.34046957981E+02 -0.22650142747E+02  0.21663934121E+02  0.46276887923E+02  0.00000000000E+00 0.  1.
         12    1    4    4    0    0 -0.14649673250E+03 -0.15225954963E+03  0.37134200057E+03  0.42724599995E+03  0.00000000000E+00 0. -1.
        -11    1    3    3    0    0  0.47959552879E+02  0.33473540839E+02  0.18546333796E+03  0.19446656878E+03  0.00000000000E+00 0.  1.
         11    1    3    3    0    0  0.80867681200E+02  0.20181648796E+03  0.37165217863E+03  0.43057498599E+03  0.00000000000E+00 0. -1.
         21    1    1    2  503  502 -0.25015066783E+02 -0.20390254403E+02  0.49642695725E+02  0.59210753074E+02  0.00000000000E+00 0.  1.
          1    1    1    2  501    0  0.76731523182E+02 -0.39990082023E+02  0.89360595342E+02  0.12438749660E+03  0.00000000000E+00 0. -1.
<scales pt_clust_5="13000.00000" pt_clust_6="13000.00000" pt_clust_7="13000.00000" pt_clust_8="13000.00000" pt_clust_9="32.27253" pt_clust_10="84.28133"></scales>
<clustering>
<clus scale="   32.273">  2  9  1 -1</clus>
<clus scale="   81.122">  5  6 -1 -1</clus>
<clus scale="   84.281">  2 10  1 -1</clus>
<clus scale="   91.331">  7  8 -1 -1</clus>
<clus scale="  270.107">  2  5  1 -1</clus>
<clus scale="   32.273">  2  5  1 -1</clus>
</clustering>
</event>
<event>
10    4  0.2977685E-005  0.1318949E+03  0.7546771E-02  0.1227153E+00
          4   -1    0    0  503    0 -0.00000000000E+00  0.00000000000E+00  0.34997644904E+03  0.34997644904E+03  0.00000000000E+00 0. -1.
         21   -1    0    0  501  502  0.00000000000E+00 -0.00000000000E+00 -0.88372222126E+02  0.88372222126E+02  0.00000000000E+00 0.  1.
         23    2    1    2    0    0 -0.59045434388E+02  0.59043670469E+02  0.19698134068E+03  0.23271832210E+03  0.91562276747E+02 0.  0.
         24    2    1    2    0    0  0.48175880410E+02 -0.87406061143E+02  0.24038478324E+02  0.13121077588E+03  0.81717099119E+02 0.  0.
        -11    1    4    4    0    0  0.20632030464E+02 -0.89744459295E+02 -0.35530839789E+01  0.92154072406E+02  0.00000000000E+00 0.  1.
         12    1    4    4    0    0  0.27543849946E+02  0.23383981518E+01  0.27591562302E+02  0.39056703472E+02  0.00000000000E+00 0. -1.
        -13    1    3    3    0    0 -0.80523822663E+02  0.33866879292E+02  0.11582618439E+03  0.14507500309E+03  0.00000000000E+00 0. -1.
         13    1    3    3    0    0  0.21478388276E+02  0.25176791178E+02  0.81155156286E+02  0.87643319019E+02  0.00000000000E+00 0.  1.
         21    1    1    2  503  502 -0.21335764188E+02  0.63200230356E+01  0.21635417608E+02  0.31036250091E+02  0.00000000000E+00 0. -1.
          3    1    1    2  501    0  0.32205318165E+02  0.22042367638E+02  0.18948990308E+02  0.43383323097E+02  0.00000000000E+00 0. -1.
<scales pt_clust_5="13000.00000" pt_clust_6="13000.00000" pt_clust_7="13000.00000" pt_clust_8="13000.00000" pt_clust_9="22.25214" pt_clust_10="37.71117"></scales>
<clustering>
<clus scale="   22.252">  1  9  2 -1</clus>
<clus scale="   37.711">  2 10  1 -1</clus>
<clus scale="   81.717">  5  6 -1 -1</clus>
<clus scale="   91.562">  7  8 -1 -1</clus>
<clus scale="  125.261">  2  5  1 -1</clus>
<clus scale="   37.711">  2  5  1 -1</clus>
</clustering>
</event>
<event>
10    4  0.2977685E-005  0.2432103E+03  0.7546771E-02  0.1118033E+00
          2   -1    0    0  503    0 -0.00000000000E+00  0.00000000000E+00  0.29132923422E+04  0.29132923422E+04  0.00000000000E+00 0. -1.
         21   -1    0    0  501  502  0.00000000000E+00 -0.00000000000E+00 -0.28161677768E+02  0.28161677768E+02  0.00000000000E+00 0.  1.
         24    2    1    2    0    0 -0.89942435736E+01 -0.21204228625E+03  0.13703634432E+04  0.13892848031E+04  0.84696340092E+02 0.  0.
         23    2    1    2    0    0  0.92875225658E+01  0.23843340967E+03  0.12763279159E+04  0.13016088155E+04  0.90751368145E+02 0.  0.
        -11    1    3    3    0    0  0.21633475298E+02 -0.13545462281E+03  0.65689229410E+03  0.67106143396E+03  0.00000000000E+00 0.  1.
         12    1    3    3    0    0 -0.30627718871E+02 -0.76587663443E+02  0.71347114907E+03  0.71822336910E+03  0.00000000000E+00 0. -1.
        -11    1    4    4    0    0  0.44556581646E+02  0.12413212929E+03  0.55687268213E+03  0.57227725675E+03  0.00000000000E+00 0.  1.
         11    1    4    4    0    0 -0.35269059080E+02  0.11430128038E+03  0.71945523373E+03  0.72933155874E+03  0.00000000000E+00 0. -1.
         21    1    1    2  503  502  0.19302378792E+02 -0.22302173017E+02  0.22386361485E+03  0.22579833215E+03  0.00000000000E+00 0.  1.
          1    1    1    2  501    0 -0.19595657784E+02 -0.40889503999E+01  0.14575690511E+02  0.24762069244E+02  0.00000000000E+00 0. -1.
<scales pt_clust_5="13000.00000" pt_clust_6="13000.00000" pt_clust_7="13000.00000" pt_clust_8="13000.00000" pt_clust_9="29.09637" pt_clust_10="20.01773"></scales>
<clustering>
<clus scale="   20.018">  2 10  1 -1</clus>
<clus scale="   29.096">  1  9  2 -1</clus>
<clus scale="   84.696">  5  6 -1 -1</clus>
<clus scale="   90.751">  7  8 -1 -1</clus>
<clus scale="  241.016">  1  5  2 -1</clus>
<clus scale="   20.018">  2  5  1 -1</clus>
</clustering>
</event>
<event>
10    4  0.2977685E-005  0.1155334E+03  0.7546771E-02  0.1254145E+00
          2   -1    0    0  503    0 -0.00000000000E+00  0.00000000000E+00  0.11568783129E+04  0.11568783129E+04  0.00000000000E+00 0. -1.
         21   -1    0    0  501  502  0.00000000000E+00 -0.00000000000E+00 -0.39343809978E+02  0.39343809978E+02  0.00000000000E+00 0.  1.
         23    2    1    2    0    0  0.55715943940E+02 -0.45303231891E+02  0.42248823477E+03  0.43799855936E+03  0.90497404655E+02 0.  0.
         24    2    1    2    0    0  0.55216174614E+02  0.91562975985E+02  0.19201190296E+03  0.23400612022E+03  0.80359746844E+02 0.  0.
        -13    1    4    4    0    0  0.73535652841E+02  0.85276188018E+02  0.17568835267E+03  0.20867658648E+03  0.00000000000E+00 0.  1.
         14    1    4    4    0    0 -0.18319478227E+02  0.62867879667E+01  0.16323550288E+02  0.25329533739E+02  0.00000000000E+00 0. -1.
        -13    1    3    3    0    0 -0.15998497318E+02 -0.32803608838E+02  0.81078173942E+02  0.88913997542E+02  0.00000000000E+00 0.  1.
         13    1    3    3    0    0  0.71714441257E+02 -0.12499623053E+02  0.34141006083E+03  0.34908456181E+03  0.00000000000E+00 0. -1.
         21    1    1    2  503  502 -0.78274698313E+01 -0.40229218163E+02  0.19723076544E+03  0.20144387336E+03  0.00000000000E+00 0. -1.
          1    1    1    2  501    0 -0.10310464872E+03 -0.60305259297E+01  0.30580359976E+03  0.32277356995E+03  0.00000000000E+00 0. -1.
<scales pt_clust_5="13000.00000" pt_clust_6="13000.00000" pt_clust_7="13000.00000" pt_clust_8="13000.00000" pt_clust_9="40.98365" pt_clust_10="107.41016"></scales>
<clustering>
<clus scale="   40.984">  1  9  2 -1</clus>
<clus scale="   80.360">  5  6 -1 -1</clus>
<clus scale="   90.497">  7  8 -1 -1</clus>
<clus scale="  107.410">  2 10  1 -1</clus>
<clus scale="  107.777">  2  5  1 -1</clus>
<clus scale="  107.410">  2  5  1 -1</clus>
</clustering>
</event>
<event>
10    4  0.2977685E-005  0.2690924E+03  0.7546771E-02  0.1138201E+00
         21   -1    0    0  501  502  0.00000000000E+00  0.00000000000E+00  0.53973714892E+03  0.53973714892E+03  0.00000000000E+00 0. -1.
          2   -1    0    0  503    0 -0.00000000000E+00 -0.00000000000E+00 -0.15361546417E+04  0.15361546417E+04  0.00000000000E+00 0. -1.
         23    2    1    2    0    0  0.53352157842E+02  0.16877133198E+01 -0.28364343228E+03  0.30359780322E+03  0.94173925939E+02 0.  0.
         24    2    1    2    0    0  0.24060517385E+02  0.35324422259E+03 -0.16700288178E+03  0.39954708081E+03  0.79921949251E+02 0.  0.
        -11    1    4    4    0    0  0.36825411453E+02  0.71136297217E+02 -0.45475278345E+02  0.92111262346E+02  0.00000000000E+00 0.  1.
         12    1    4    4    0    0 -0.12764894068E+02  0.28210792537E+03 -0.12152760343E+03  0.30743581846E+03  0.00000000000E+00 0. -1.
        -13    1    3    3    0    0  0.80687459997E+02 -0.16845856732E+01 -0.21061377184E+03  0.22554703482E+03  0.00000000000E+00 0. -1.
         13    1    3    3    0    0 -0.27335302155E+02  0.33722989930E+01 -0.73029660436E+02  0.78050768400E+02  0.00000000000E+00 0.  1.
         21    1    1    2  503  502 -0.52871553609E+02 -0.23825614657E+03 -0.93465696620E+03  0.96599432556E+03  0.00000000000E+00 0.  1.
          1    1    1    2  501    0 -0.24541121618E+02 -0.11667578933E+03  0.38888578748E+03  0.40675258102E+03  0.00000000000E+00 0. -1.
<scales pt_clust_5="13000.00000" pt_clust_6="13000.00000" pt_clust_7="13000.00000" pt_clust_8="13000.00000" pt_clust_9="256.94978" pt_clust_10="119.13855"></scales>
<clustering>
<clus scale="   79.922">  5  6 -1 -1</clus>
<clus scale="   94.174">  7  8 -1 -1</clus>
<clus scale="  108.250">  2  7  1 -1</clus>
<clus scale="  119.139">  1 10  2 -1</clus>
<clus scale="  256.950">  2  9  1 -1</clus>
<clus scale="  119.139">  1  5  2 -1</clus>
</clustering>
</event>
<event>
10    4  0.2977685E-005  0.1453118E+03  0.7546771E-02  0.1220060E+00
         21   -1    0    0  501  502  0.00000000000E+00  0.00000000000E+00  0.13059605459E+03  0.13059605459E+03  0.00000000000E+00 0.  1.
         -3   -1    0    0    0  501 -0.00000000000E+00 -0.00000000000E+00 -0.45125398376E+03  0.45125398376E+03  0.00000000000E+00 0.  1.
         23    2    1    2    0    0 -0.27544764157E+02 -0.44694825662E+02  0.26519349057E+01  0.10746350972E+03  0.93728499882E+02 0.  0.
         24    2    1    2    0    0 -0.86903488832E+02  0.31721246703E+02 -0.24928674118E+03  0.27790138265E+03  0.80788893330E+02 0.  0.
        -13    1    4    4    0    0 -0.55422185094E+02  0.53063283599E+02 -0.20831984377E+03  0.22200109904E+03  0.00000000000E+00 0.  1.
         14    1    4    4    0    0 -0.31481303737E+02 -0.21342036895E+02 -0.40966897408E+02  0.55900283605E+02  0.00000000000E+00 0. -1.
        -13    1    3    3    0    0 -0.60441897690E-01 -0.69938457496E+02  0.46434742595E+01  0.70092462814E+02  0.00000000000E+00 0. -1.
         13    1    3    3    0    0 -0.27484322260E+02  0.25243631834E+02 -0.19915393538E+01  0.37371046911E+02  0.00000000000E+00 0.  1.
         21    1    1    2  503  502 -0.28431494208E+02  0.17926293627E+02  0.36046763711E+01  0.33803780230E+02  0.00000000000E+00 0.  1.
         -4    1    1    2    0  503  0.14287974720E+03 -0.49527146681E+01 -0.77627799265E+02  0.16268136574E+03  0.00000000000E+00 0.  1.
<scales pt_clust_5="13000.00000" pt_clust_6="13000.00000" pt_clust_7="13000.00000" pt_clust_8="13000.00000" pt_clust_9="33.61104" pt_clust_10="120.78360"></scales>
<clustering>
<clus scale="   33.611">  1  9  2 -1</clus>
<clus scale="   80.789">  5  6 -1 -1</clus>
<clus scale="   93.728">  7  8 -1 -1</clus>
<clus scale="  108.615">  2  7  1 -1</clus>
<clus scale="  120.784">  1 10  2 -1</clus>
<clus scale="   33.611">  1  5  2 -1</clus>
</clustering>
</event>
<event>
10    4  0.2977685E-005  0.2175087E+03  0.7546771E-02  0.1163332E+00
          2   -1    0    0  503    0 -0.00000000000E+00  0.00000000000E+00  0.71838435421E+03  0.71838435421E+03  0.00000000000E+00 0. -1.
         21   -1    0    0  501  502  0.00000000000E+00 -0.00000000000E+00 -0.18536221022E+03  0.18536221022E+03  0.00000000000E+00 0.  1.
         24    2    1    2    0    0  0.66027314443E+02  0.47765185931E+02  0.34264581508E+03  0.36245900499E+03  0.85611076795E+02 0.  0.
         23    2    1    2    0    0  0.16577008194E+03  0.44274249899E+02  0.71069710593E+02  0.20426429801E+03  0.85047459733E+02 0.  0.
        -13    1    3    3    0    0  0.20330934781E+02 -0.24358148995E+02  0.11612154386E+03  0.12037806810E+03  0.00000000000E+00 0.  1.
         14    1    3    3    0    0  0.45696379662E+02  0.72123334925E+02  0.22652427122E+03  0.24208093689E+03  0.00000000000E+00 0. -1.
        -13    1    4    4    0    0  0.71914120170E+02 -0.19064219325E+02  0.84575467663E+01  0.74877334592E+02  0.00000000000E+00 0.  1.
         13    1    4    4    0    0  0.93855961774E+02  0.63338469224E+02  0.62612163827E+02  0.12938696342E+03  0.00000000000E+00 0. -1.
         21    1    1    2  503  502 -0.29932324538E+02  0.13420881254E+02  0.10366790125E+03  0.10873406943E+03  0.00000000000E+00 0.  1.
          1    1    1    2  501    0 -0.20186507185E+03 -0.10546031708E+03  0.15638717075E+02  0.22828919200E+03  0.00000000000E+00 0. -1.
<scales pt_clust_5="13000.00000" pt_clust_6="13000.00000" pt_clust_7="13000.00000" pt_clust_8="13000.00000" pt_clust_9="32.80342" pt_clust_10="200.19235"></scales>
<clustering>
<clus scale="   32.803">  1  9  2 -1</clus>
<clus scale="   85.047">  7  8 -1 -1</clus>
<clus scale="   85.611">  5  6 -1 -1</clus>
<clus scale="  113.090">  1  5  2 -1</clus>
<clus scale="  200.192">  2 10  1 -1</clus>
<clus scale="  200.192">  2  5  1 -1</clus>
</clustering>
</event>
<event>
10    4  0.2977685E-005  0.1177762E+03  0.7546771E-02  0.1248214E+00
          2   -1    0    0  502    0 -0.00000000000E+00  0.00000000000E+00  0.27769209878E+03  0.27769209878E+03  0.00000000000E+00 0. -1.
         21   -1    0    0  503  502  0.00000000000E+00 -0.00000000000E+00 -0.14106632459E+03  0.14106632459E+03  0.00000000000E+00 0. -1.
         24    2    1    2    0    0 -0.86139827966E+02 -0.22431002595E+01  0.13188015126E+03  0.18419539900E+03  0.95448778181E+02 0.  0.
         23    2    1    2    0    0  0.71777988741E+01  0.54749483416E+02 -0.50281897208E+02  0.11802053605E+03  0.91386820773E+02 0.  0.
        -11    1    3    3    0    0  0.16435834548E+02 -0.16561272510E+02  0.36957685270E+02  0.43706783283E+02  0.00000000000E+00 0.  1.
         12    1    3    3    0    0 -0.10257566251E+03  0.14318172251E+02  0.94922465986E+02  0.14048861572E+03  0.00000000000E+00 0. -1.
        -11    1    4    4    0    0 -0.66288690899E+01 -0.24945926024E+02 -0.14131878992E+02  0.29427047668E+02  0.00000000000E+00 0.  1.
         11    1    4    4    0    0  0.13806667964E+02  0.79695409440E+02 -0.36150018217E+02  0.88593488379E+02  0.00000000000E+00 0. -1.
         21    1    1    2  503  501  0.38020301006E+02 -0.76265603152E+01  0.35924345063E+02  0.52860819886E+02  0.00000000000E+00 0.  1.
          1    1    1    2  501    0  0.40941728086E+02 -0.44879822842E+02  0.19103175084E+02  0.63681668439E+02  0.00000000000E+00 0. -1.
<scales pt_clust_5="13000.00000" pt_clust_6="13000.00000" pt_clust_7="13000.00000" pt_clust_8="13000.00000" pt_clust_9="31.57841" pt_clust_10="102.73332"></scales>
<clustering>
<clus scale="   31.578">  9 10 -1 -1</clus>
<clus scale="   91.387">  7  8 -1 -1</clus>
<clus scale="   95.449">  5  6 -1 -1</clus>
<clus scale="  102.733">  2  9  1 -1</clus>
<clus scale="  114.509">  2  7  1 -1</clus>
<clus scale="  102.733">  2  5  1 -1</clus>
</clustering>
</event>
<event>
10    4  0.2977685E-005  0.2183538E+03  0.7546771E-02  0.1135567E+00
         21   -1    0    0  503  502  0.00000000000E+00  0.00000000000E+00  0.52226857030E+03  0.52226857030E+03  0.00000000000E+00 0. -1.
         -1   -1    0    0    0  501 -0.00000000000E+00 -0.00000000000E+00 -0.31823211827E+03  0.31823211827E+03  0.00000000000E+00 0.  1.
         23    2    1    2    0    0 -0.19452177769E+03  0.86637713278E+02 -0.61215690561E+01  0.22945792740E+03  0.85256386740E+02 0.  0.
         24    2    1    2    0    0  0.13963878146E+03 -0.19487737058E+03  0.31817378923E+03  0.40613564547E+03  0.78964697896E+02 0.  0.
        -11    1    4    4    0    0  0.40475323521E+02 -0.30362139140E+02  0.27118212054E+02  0.57406521689E+02  0.00000000000E+00 0.  1.
         12    1    4    4    0    0  0.99163457940E+02 -0.16451523144E+03  0.29105557718E+03  0.34872912378E+03  0.00000000000E+00 0. -1.
        -13    1    3    3    0    0 -0.25232930617E+02  0.50232311925E+02 -0.20395524835E+01  0.56250739756E+02  0.00000000000E+00 0.  1.
         13    1    3    3    0    0 -0.16928884708E+03  0.36405401353E+02 -0.40820165726E+01  0.17320718764E+03  0.00000000000E+00 0. -1.
         21    1    1    2  503  501  0.92596389179E+02  0.67712773898E+02 -0.92646370192E+02  0.14745325004E+03  0.00000000000E+00 0.  1.
         -2    1    1    2    0  502 -0.37713392947E+02  0.40526883401E+02 -0.15369397948E+02  0.57453865659E+02  0.00000000000E+00 0.  1.
<scales pt_clust_5="13000.00000" pt_clust_6="13000.00000" pt_clust_7="13000.00000" pt_clust_8="13000.00000" pt_clust_9="114.39619" pt_clust_10="55.36002"></scales>
<clustering>
<clus scale="   55.360">  1 10  2 -1</clus>
<clus scale="   78.965">  5  6 -1 -1</clus>
<clus scale="   85.256">  7  8 -1 -1</clus>
<clus scale="  114.396">  2  9  1 -1</clus>
<clus scale="  215.975">  1  5  2 -1</clus>
<clus scale="   55.360">  1  5  2 -1</clus>
</clustering>
</event>
<event>
10    4  0.2977685E-005  0.1306662E+03  0.7546771E-02  0.1240928E+00
          2   -1    0    0  502    0 -0.00000000000E+00  0.00000000000E+00  0.10269179608E+04  0.10269179608E+04  0.00000000000E+00 0. -1.
         21   -1    0    0  503  502  0.00000000000E+00 -0.00000000000E+00 -0.39410098732E+02  0.39410098732E+02  0.00000000000E+00 0.  1.
         24    2    1    2    0    0 -0.10902106528E+02  0.31203723038E+02  0.10187677416E+03  0.14075131190E+03  0.91321007609E+02 0.  0.
         23    2    1    2    0    0 -0.68284585374E+02  0.39321965707E+02  0.24728423367E+03  0.27746908959E+03  0.98135629971E+02 0.  0.
        -11    1    3    3    0    0 -0.96401025051E+01 -0.18919724410E+02 -0.57668277605E+01  0.22003269086E+02  0.00000000000E+00 0.  1.
         12    1    3    3    0    0 -0.12620040231E+01  0.50123447448E+02  0.10764360192E+03  0.11874804282E+03  0.00000000000E+00 0. -1.
        -13    1    4    4    0    0 -0.36051490885E+01 -0.27250926971E+02  0.97108708563E+02  0.10092428548E+03  0.00000000000E+00 0. -1.
         13    1    4    4    0    0 -0.64679436285E+02  0.66572892677E+02  0.15017552511E+03  0.17654480411E+03  0.00000000000E+00 0.  1.
         21    1    1    2  503  501  0.21232412365E+02 -0.15261588996E+02  0.83129213951E+02  0.87144693732E+02  0.00000000000E+00 0. -1.
          1    1    1    2  501    0  0.57954279537E+02 -0.55264099749E+02  0.55521764024E+03  0.56096296426E+03  0.00000000000E+00 0. -1.
<scales pt_clust_5="13000.00000" pt_clust_6="13000.00000" pt_clust_7="13000.00000" pt_clust_8="13000.00000" pt_clust_9="20.70124" pt_clust_10="93.57080"></scales>
<clustering>
<clus scale="   20.701">  9 10 -1 -1</clus>
<clus scale="   91.321">  5  6 -1 -1</clus>
<clus scale="   97.119">  1  5  2 -1</clus>
<clus scale="   93.571">  2  9  1 -1</clus>
<clus scale="   98.136">  7  8 -1 -1</clus>
<clus scale="   93.571">  2  5  1 -1</clus>
</clustering>
</event>
<event>
10    4  0.2977685E-005  0.9387337E+02  0.7546771E-02  0.1301447E+00
         21   -1    0    0  501  502  0.00000000000E+00  0.00000000000E+00  0.32749414270E+02  0.32749414270E+02  0.00000000000E+00 0. -1.
          2   -1    0    0  503    0 -0.00000000000E+00 -0.00000000000E+00 -0.71562583791E+03  0.71562583791E+03  0.00000000000E+00 0. -1.
         24    2    1    2    0    0 -0.50662732645E+01  0.11501052700E+02 -0.28631668865E+03  0.29755700990E+03  0.80031160217E+02 0.  0.
         23    2    1    2    0    0 -0.39001604587E+02  0.38316534828E+02 -0.17936000537E+03  0.20917185112E+03  0.92701509015E+02 0.  0.
        -11    1    3    3    0    0  0.25345566348E+02 -0.23539401293E+02 -0.11871182171E+03  0.12364868686E+03  0.00000000000E+00 0.  1.
         12    1    3    3    0    0 -0.30411839612E+02  0.35040453993E+02 -0.16760486694E+03  0.17390832305E+03  0.00000000000E+00 0. -1.
        -13    1    4    4    0    0  0.18926717673E+02 -0.17948493547E+02 -0.33599498485E+02  0.42535812686E+02  0.00000000000E+00 0.  1.
         13    1    4    4    0    0 -0.57928322259E+02  0.56265028376E+02 -0.14576050688E+03  0.16663603843E+03  0.00000000000E+00 0. -1.
         21    1    1    2  503  502  0.25552045883E+02  0.11547860730E+02 -0.13245737385E+03  0.13539282117E+03  0.00000000000E+00 0.  1.
          1    1    1    2  501    0  0.18515831968E+02 -0.61365448258E+02 -0.84742355772E+02  0.10625356999E+03  0.00000000000E+00 0. -1.
<scales pt_clust_5="13000.00000" pt_clust_6="13000.00000" pt_clust_7="13000.00000" pt_clust_8="13000.00000" pt_clust_9="28.04033" pt_clust_10="63.65857"></scales>
<clustering>
<clus scale="   28.040">  2  9  1 -1</clus>
<clus scale="   63.659">  1 10  2 -1</clus>
<clus scale="   80.031">  5  6 -1 -1</clus>
<clus scale="   81.386">  2  5  1 -1</clus>
<clus scale="   92.702">  7  8 -1 -1</clus>
<clus scale="   63.659">  1  5  2 -1</clus>
</clustering>
</event>
<event>
10    4  0.2977685E-005  0.3412016E+03  0.7546771E-02  0.1081657E+00
         21   -1    0    0  501  502  0.00000000000E+00  0.00000000000E+00  0.71081889491E+03  0.71081889491E+03  0.00000000000E+00 0. -1.
          2   -1    0    0  503    0 -0.00000000000E+00 -0.00000000000E+00 -0.97731816044E+03  0.97731816044E+03  0.00000000000E+00 0. -1.
         24    2    1    2    0    0 -0.33000691558E+02  0.20965140977E+03  0.19584970889E+03  0.30039018895E+03  0.82670417215E+02 0.  0.
         23    2    1    2    0    0  0.32800037786E+03 -0.19984500902E+03 -0.68998380661E+03  0.79502327884E+03  0.91989591819E+02 0.  0.
        -11    1    3    3    0    0 -0.28704996274E+02  0.11508302264E+03  0.15998902605E+03  0.19915965296E+03  0.00000000000E+00 0.  1.
         12    1    3    3    0    0 -0.42956952845E+01  0.94568387135E+02  0.35860682839E+02  0.10123053599E+03  0.00000000000E+00 0. -1.
        -13    1    4    4    0    0  0.44291540948E+02 -0.47940661662E+02 -0.18536527566E+03  0.19652056651E+03  0.00000000000E+00 0.  1.
         13    1    4    4    0    0  0.28370883691E+03 -0.15190434735E+03 -0.50461853096E+03  0.59850271233E+03  0.00000000000E+00 0. -1.
         21    1    1    2  503  502  0.27995554188E+02 -0.55183095637E+02 -0.10815172825E+03  0.12460225288E+03  0.00000000000E+00 0. -1.
          1    1    1    2  501    0 -0.32299524049E+03  0.45376694879E+02  0.33578656044E+03  0.46812133468E+03  0.00000000000E+00 0. -1.
<scales pt_clust_5="13000.00000" pt_clust_6="13000.00000" pt_clust_7="13000.00000" pt_clust_8="13000.00000" pt_clust_9="61.87831" pt_clust_10="328.56729"></scales>
<clustering>
<clus scale="   61.878">  2  9  1 -1</clus>
<clus scale="   82.670">  5  6 -1 -1</clus>
<clus scale="   91.990">  7  8 -1 -1</clus>
<clus scale="  224.442">  2  5  1 -1</clus>
<clus scale="  328.567">  1 10  2 -1</clus>
<clus scale="  328.567">  1  5  2 -1</clus>
</clustering>
</event>
<event>
10    4  0.2977685E-005  0.1688714E+03  0.7546771E-02  0.1180948E+00
          2   -1    0    0  503    0 -0.00000000000E+00  0.00000000000E+00  0.10309194009E+04  0.10309194009E+04  0.00000000000E+00 0. -1.
         21   -1    0    0  501  502  0.00000000000E+00 -0.00000000000E+00 -0.78232348983E+02  0.78232348983E+02  0.00000000000E+00 0.  1.
         24    2    1    2    0    0  0.10306537815E+03 -0.65905400457E+01  0.53114800944E+03  0.54665759119E+03  0.77784360128E+02 0.  0.
         23    2    1    2    0    0 -0.16722626518E+03 -0.54385231570E+02  0.30091118721E+03  0.36038338758E+03  0.91685692887E+02 0.  0.
        -13    1    3    3    0    0  0.23176943073E+02 -0.83128884496E+01  0.28351507326E+02  0.37551068856E+02  0.00000000000E+00 0.  1.
         14    1    3    3    0    0  0.79888435076E+02  0.17223484039E+01  0.50279650212E+03  0.50910652233E+03  0.00000000000E+00 0. -1.
        -11    1    4    4    0    0 -0.14457907500E+03 -0.63693559927E+02  0.19146365578E+03  0.24823035671E+03  0.00000000000E+00 0.  1.
         11    1    4    4    0    0 -0.22647190174E+02  0.93083283569E+01  0.10944753142E+03  0.11215303087E+03  0.00000000000E+00 0. -1.
         21    1    1    2  503  502  0.59967523605E+02 -0.13782242734E+02  0.11060384741E+03  0.12656723575E+03  0.00000000000E+00 0. -1.
          1    1    1    2  501    0  0.41933634236E+01  0.74758014350E+02  0.10024007890E+02  0.75543535399E+02  0.00000000000E+00 0. -1.
<scales pt_clust_5="13000.00000" pt_clust_6="13000.00000" pt_clust_7="13000.00000" pt_clust_8="13000.00000" pt_clust_9="61.53092" pt_clust_10="74.44207"></scales>
<clustering>
<clus scale="   61.531">  1  9  2 -1</clus>
<clus scale="   74.442">  2 10  1 -1</clus>
<clus scale="   77.784">  5  6 -1 -1</clus>
<clus scale="   91.686">  7  8 -1 -1</clus>
<clus scale="  161.746">  1  5  2 -1</clus>
<clus scale="   74.442">  2  5  1 -1</clus>
</clustering>
</event>
<event>
10    4  0.2977685E-005  0.1156718E+03  0.7546771E-02  0.1251998E+00
         21   -1    0    0  501  502  0.00000000000E+00  0.00000000000E+00  0.73200335926E+02  0.73200335926E+02  0.00000000000E+00 0. -1.
          2   -1    0    0  503    0 -0.00000000000E+00 -0.00000000000E+00 -0.10298218653E+04  0.10298218653E+04  0.00000000000E+00 0. -1.
         23    2    1    2    0    0 -0.70096098955E+02 -0.73779832614E+02 -0.70642351577E+03  0.71948663747E+03  0.90939051433E+02 0.  0.
         24    2    1    2    0    0  0.44435603599E+02  0.25730231414E+02 -0.19618889196E+03  0.22040224436E+03  0.86316280716E+02 0.  0.
        -13    1    4    4    0    0  0.87359382883E+01  0.30294653149E+02 -0.13663460466E+02  0.34362374468E+02  0.00000000000E+00 0.  1.
         14    1    4    4    0    0  0.35699665310E+02 -0.45644217350E+01 -0.18252543149E+03  0.18603986989E+03  0.00000000000E+00 0. -1.
        -11    1    3    3    0    0 -0.72593580579E+02 -0.11129309696E+02 -0.35571235693E+03  0.36321477166E+03  0.00000000000E+00 0. -1.
         11    1    3    3    0    0  0.24974816247E+01 -0.62650522918E+02 -0.35071115884E+03  0.35627186582E+03  0.00000000000E+00 0.  1.
         21    1    1    2  503  502  0.22093521300E+02  0.19521311463E+02 -0.10255721755E+03  0.10671076870E+03  0.00000000000E+00 0. -1.
          1    1    1    2  501    0  0.35669740562E+01  0.28528289737E+02  0.48548095865E+02  0.56422550734E+02  0.00000000000E+00 0. -1.
<scales pt_clust_5="13000.00000" pt_clust_6="13000.00000" pt_clust_7="13000.00000" pt_clust_8="13000.00000" pt_clust_9="31.70143" pt_clust_10="28.75042"></scales>
<clustering>
<clus scale="   28.750">  1 10  2 -1</clus>
<clus scale="   31.701">  2  9  1 -1</clus>
<clus scale="   86.316">  5  6 -1 -1</clus>
<clus scale="   90.939">  7  8 -1 -1</clus>
<clus scale="  112.074">  1  5  2 -1</clus>
<clus scale="   28.750">  1  5  2 -1</clus>
</clustering>
</event>
<event>
10    4  0.2977685E-005  0.2126179E+03  0.7546771E-02  0.1157508E+00
          2   -1    0    0  503    0 -0.00000000000E+00  0.00000000000E+00  0.16740711701E+03  0.16740711701E+03  0.00000000000E+00 0. -1.
         21   -1    0    0  501  502  0.00000000000E+00 -0.00000000000E+00 -0.84972777433E+03  0.84972777433E+03  0.00000000000E+00 0.  1.
         23    2    1    2    0    0 -0.78352270177E+01  0.10556490257E+03 -0.14178998058E+03  0.19829429060E+03  0.89503562242E+02 0.  0.
         24    2    1    2    0    0  0.91163630852E+02 -0.27609816768E+03 -0.11518374347E+03  0.32312062652E+03  0.81232005616E+02 0.  0.
        -11    1    4    4    0    0  0.10562807090E+03 -0.25756262679E+03 -0.10647239665E+03  0.29804725688E+03  0.00000000000E+00 0.  1.
         12    1    4    4    0    0 -0.14464440049E+02 -0.18535540890E+02 -0.87113468137E+01  0.25073369644E+02  0.00000000000E+00 0. -1.
        -11    1    3    3    0    0  0.30031436046E+02  0.94451555831E+02 -0.99038065394E+02  0.14011253315E+03  0.00000000000E+00 0.  1.
         11    1    3    3    0    0 -0.37866663063E+02  0.11113346740E+02 -0.42751915185E+02  0.58181757445E+02  0.00000000000E+00 0. -1.
         21    1    1    2  503  502 -0.50812735843E+02 -0.59707464250E+01 -0.24913407751E+02  0.56905727501E+02  0.00000000000E+00 0.  1.
          1    1    1    2  501    0 -0.32515667991E+02  0.17650401154E+03 -0.40043352553E+03  0.43881424671E+03  0.00000000000E+00 0. -1.
<scales pt_clust_5="13000.00000" pt_clust_6="13000.00000" pt_clust_7="13000.00000" pt_clust_8="13000.00000" pt_clust_9="51.16233" pt_clust_10="196.48850"></scales>
<clustering>
<clus scale="   51.162">  1  9  2 -1</clus>
<clus scale="   81.232">  5  6 -1 -1</clus>
<clus scale="   89.504">  7  8 -1 -1</clus>
<clus scale="  138.639">  1  7  2 -1</clus>
<clus scale="  196.489">  2 10  1 -1</clus>
<clus scale="  196.489">  2  5  1 -1</clus>
</clustering>
</event>
<event>
10    4  0.2977685E-005  0.1202230E+03  0.7546771E-02  0.1254040E+00
         -1   -1    0    0    0  501 -0.00000000000E+00  0.00000000000E+00  0.91498962372E+03  0.91498962372E+03  0.00000000000E+00 0.  1.
         21   -1    0    0  503  502  0.00000000000E+00 -0.00000000000E+00 -0.10036592058E+03  0.10036592058E+03  0.00000000000E+00 0.  1.
         24    2    1    2    0    0 -0.13949800965E+01  0.42598259767E+02 -0.25910727689E+01  0.95884084255E+02  0.85851536099E+02 0.  0.
         23    2    1    2    0    0  0.25687615403E+01 -0.65443766718E+02  0.64557230604E+02  0.12646013175E+03  0.86804629832E+02 0.  0.
        -13    1    3    3    0    0  0.95204473488E+01 -0.25168050030E+02  0.26830632985E+01  0.27041976420E+02  0.00000000000E+00 0.  1.
         14    1    3    3    0    0 -0.10915427445E+02  0.67766309797E+02 -0.52741360673E+01  0.68842107835E+02  0.00000000000E+00 0. -1.
        -11    1    4    4    0    0  0.41871124913E+02 -0.17750637412E+02  0.17282893918E+02  0.48651563718E+02  0.00000000000E+00 0.  1.
         11    1    4    4    0    0 -0.39302363373E+02 -0.47693129305E+02  0.47274336685E+02  0.77808568029E+02  0.00000000000E+00 0. -1.
         21    1    1    2  503  501  0.10543410949E+03  0.70743721068E+02  0.47681995761E+03  0.49343520090E+03  0.00000000000E+00 0.  1.
         -2    1    1    2    0  502 -0.10660789093E+03 -0.47898214117E+02  0.27583758770E+03  0.29957612741E+03  0.00000000000E+00 0.  1.
<scales pt_clust_5="13000.00000" pt_clust_6="13000.00000" pt_clust_7="13000.00000" pt_clust_8="13000.00000" pt_clust_9="13000.00000" pt_clust_10="120.22298"></scales>
<clustering>
<clus scale="   85.852">  5  6 -1 -1</clus>
<clus scale="   86.805">  7  8 -1 -1</clus>
<clus scale="   95.849">  1  5  2 -1</clus>
<clus scale="  105.983">  1  7  2 -1</clus>
<clus scale="  120.223">  2 10  1 -1</clus>
<clus scale="  120.223">  2  5  1 -1</clus>
</clustering>
</event>
<event>
10    4  0.2977685E-005  0.1046828E+03  0.7546771E-02  0.1274817E+00
         -1   -1    0    0    0  501 -0.00000000000E+00  0.00000000000E+00  0.92195990063E+02  0.92195990063E+02  0.00000000000E+00 0.  1.
         21   -1    0    0  503  502  0.00000000000E+00 -0.00000000000E+00 -0.33689674480E+03  0.33689674480E+03  0.00000000000E+00 0. -1.
         24    2    1    2    0    0 -0.19949212254E+01  0.61821948784E+02 -0.48493785030E+01  0.10132442081E+03  0.80107357452E+02 0.  0.
         23    2    1    2    0    0  0.29401542668E+02 -0.37301616790E+02 -0.67817590413E+02  0.12191038334E+03  0.89482147219E+02 0.  0.
        -11    1    3    3    0    0  0.39161012779E+01  0.28797404652E+02  0.37406558952E+02  0.47369579020E+02  0.00000000000E+00 0.  1.
         12    1    3    3    0    0 -0.59110225033E+01  0.33024544131E+02 -0.42255937455E+02  0.53954841787E+02  0.00000000000E+00 0. -1.
        -13    1    4    4    0    0  0.46168502573E+02 -0.17551926508E+02 -0.85187453926E-01  0.49392388188E+02  0.00000000000E+00 0.  1.
         13    1    4    4    0    0 -0.16766959905E+02 -0.19749690281E+02 -0.67732402959E+02  0.72517995155E+02  0.00000000000E+00 0. -1.
         21    1    1    2  503  501 -0.50222700378E+02 -0.15706380098E+02 -0.27700900033E+02  0.59467216780E+02  0.00000000000E+00 0. -1.
         -2    1    1    2    0  502  0.22816078935E+02 -0.88139518960E+01 -0.14433288579E+03  0.14639071394E+03  0.00000000000E+00 0.  1.
<scales pt_clust_5="13000.00000" pt_clust_6="13000.00000" pt_clust_7="13000.00000" pt_clust_8="13000.00000" pt_clust_9="48.38899" pt_clust_10="24.45934"></scales>
<clustering>
<clus scale="   24.459">  2 10  1 -1</clus>
<clus scale="   48.389">  2  9  1 -1</clus>
<clus scale="   80.107">  5  6 -1 -1</clus>
<clus scale="   89.482">  7  8 -1 -1</clus>
<clus scale="   96.792">  1  5  2 -1</clus>
<clus scale="   24.459">  2  5  1 -1</clus>
</clustering>
</event>
<event>
10    4  0.2977685E-005  0.3439707E+03  0.7546771E-02  0.1065234E+00
          2   -1    0    0  503    0 -0.00000000000E+00  0.00000000000E+00  0.45045883555E+03  0.45045883555E+03  0.00000000000E+00 0. -1.
         21   -1    0    0  501  502  0.00000000000E+00 -0.00000000000E+00 -0.10344706071E+04  0.10344706071E+04  0.00000000000E+00 0.  1.
         23    2    1    2    0    0 -0.14853782876E+03 -0.27849392332E+03 -0.37962334593E+02  0.33035023459E+03  0.89820859173E+02 0.  0.
         24    2    1    2    0    0 -0.20260023979E+02  0.47889574855E+03 -0.66270822181E+03  0.82233828696E+03  0.85477859118E+02 0.  0.
        -13    1    4    4    0    0  0.25863272879E+02  0.19860362071E+03 -0.31598387101E+03  0.37410976168E+03  0.00000000000E+00 0.  1.
         14    1    4    4    0    0 -0.46123296859E+02  0.28029212784E+03 -0.34672435080E+03  0.44822852528E+03  0.00000000000E+00 0. -1.
        -11    1    3    3    0    0 -0.15830321482E+03 -0.25419333128E+03 -0.45969273956E+02  0.30296424152E+03  0.00000000000E+00 0. -1.
         11    1    3    3    0    0  0.97653860577E+01 -0.24300592043E+02  0.80069393626E+01  0.27385993070E+02  0.00000000000E+00 0.  1.
         21    1    1    2  503  502 -0.19249329889E+01  0.24105816236E+02  0.27092184226E+02  0.36315040818E+02  0.00000000000E+00 0.  1.
          1    1    1    2  501    0  0.17072278573E+03 -0.22450764146E+03  0.89566600667E+02  0.29592588024E+03  0.00000000000E+00 0. -1.
<scales pt_clust_5="13000.00000" pt_clust_6="13000.00000" pt_clust_7="13000.00000" pt_clust_8="13000.00000" pt_clust_9="24.18255" pt_clust_10="272.74409"></scales>
<clustering>
<clus scale="   24.183">  1  9  2 -1</clus>
<clus scale="   85.478">  5  6 -1 -1</clus>
<clus scale="   89.821">  7  8 -1 -1</clus>
<clus scale="  272.744">  2 10  1 -1</clus>
<clus scale="  342.862">  2  5  1 -1</clus>
<clus scale="  272.744">  2  5  1 -1</clus>
</clustering>
</event>
<event>
10    4  0.2977685E-005  0.9525848E+02  0.7546771E-02  0.1297062E+00
         21   -1    0    0  501  502  0.00000000000E+00  0.00000000000E+00  0.12608479625E+03  0.12608479625E+03  0.00000000000E+00 0.  1.
          2   -1    0    0  503    0 -0.00000000000E+00 -0.00000000000E+00 -0.41417807591E+03  0.41417807591E+03  0.00000000000E+00 0. -1.
         23    2    1    2    0    0 -0.15143135241E+02 -0.10690513926E+02 -0.14808400757E+03  0.17507241623E+03  0.91530737969E+02 0.  0.
         24    2    1    2    0    0  0.21567149607E+02 -0.18189893500E+02  0.77556111888E+02  0.11509615962E+03  0.80225689773E+02 0.  0.
        -11    1    4    4    0    0  0.42261214287E+02 -0.74319637774E+01  0.80859926268E+02  0.91540002155E+02  0.00000000000E+00 0.  1.
         12    1    4    4    0    0 -0.20694064679E+02 -0.10757929723E+02 -0.33038143799E+01  0.23556157461E+02  0.00000000000E+00 0. -1.
        -13    1    3    3    0    0  0.36530857423E+02 -0.96205590616E+01 -0.38640296993E+02  0.54038238798E+02  0.00000000000E+00 0. -1.
         13    1    3    3    0    0 -0.51673992664E+02 -0.10699548639E+01 -0.10944371058E+03  0.12103417743E+03  0.00000000000E+00 0.  1.
         21    1    1    2  503  502  0.11508979116E+02 -0.33664385462E+02 -0.15775161828E+03  0.16171369923E+03  0.00000000000E+00 0. -1.
          1    1    1    2  501    0 -0.17932993482E+02  0.62544792888E+02 -0.59813765700E+02  0.88380597078E+02  0.00000000000E+00 0. -1.
<scales pt_clust_5="13000.00000" pt_clust_6="13000.00000" pt_clust_7="13000.00000" pt_clust_8="13000.00000" pt_clust_9="35.57734" pt_clust_10="54.71996"></scales>
<clustering>
<clus scale="   35.577">  2  9  1 -1</clus>
<clus scale="   54.720">  1 10  2 -1</clus>
<clus scale="   80.226">  5  6 -1 -1</clus>
<clus scale="   84.454">  1  5  2 -1</clus>
<clus scale="   91.531">  7  8 -1 -1</clus>
<clus scale="   54.720">  1  5  2 -1</clus>
</clustering>
</event>
<event>
10    4  0.2977685E-005  0.2459241E+03  0.7546771E-02  0.1116568E+00
         -1   -1    0    0    0  501 -0.00000000000E+00  0.00000000000E+00  0.43181887438E+03  0.43181887438E+03  0.00000000000E+00 0.  1.
         21   -1    0    0  503  502  0.00000000000E+00 -0.00000000000E+00 -0.36612096938E+03  0.36612096938E+03  0.00000000000E+00 0. -1.
         24    2    1    2    0    0  0.22778087953E+03 -0.82981649218E+02  0.25968645061E+03  0.36393798146E+03  0.79017204002E+02 0.  0.
         23    2    1    2    0    0 -0.22517731156E+03  0.52253939721E+02 -0.10779902615E+03  0.27069606741E+03  0.90666614680E+02 0.  0.
        -13    1    3    3    0    0  0.91718799080E+02 -0.24616463912E+02  0.15795090040E+03  0.18430082837E+03  0.00000000000E+00 0.  1.
         14    1    3    3    0    0  0.13606208045E+03 -0.58365185305E+02  0.10173555021E+03  0.17963715309E+03  0.00000000000E+00 0. -1.
        -13    1    4    4    0    0 -0.20338225668E+02  0.13504712091E+01 -0.46710933537E+02  0.50964482806E+02  0.00000000000E+00 0.  1.
         13    1    4    4    0    0 -0.20483908589E+03  0.50903468512E+02 -0.61088092608E+02  0.21973158461E+03  0.00000000000E+00 0. -1.
         21    1    1    2  503  501 -0.16103799133E+02  0.12183744906E+02  0.34760297398E+02  0.40200177383E+02  0.00000000000E+00 0. -1.
         -2    1    1    2    0  502  0.13500231160E+02  0.18543964591E+02 -0.12094981686E+03  0.12310561751E+03  0.00000000000E+00 0.  1.
<scales pt_clust_5="13000.00000" pt_clust_6="13000.00000" pt_clust_7="13000.00000" pt_clust_8="13000.00000" pt_clust_9="20.19346" pt_clust_10="22.93871"></scales>
<clustering>
<clus scale="   20.193">  1  9  2 -1</clus>
<clus scale="   22.939">  2 10  1 -1</clus>
<clus scale="   79.017">  5  6 -1 -1</clus>
<clus scale="   90.667">  7  8 -1 -1</clus>
<clus scale="  241.872">  1  5  2 -1</clus>
<clus scale="   22.939">  2  5  1 -1</clus>
</clustering>
</event>
<event>
10    4  0.2977685E-005  0.9496583E+02  0.7546771E-02  0.1291857E+00
         21   -1    0    0  501  502  0.00000000000E+00  0.00000000000E+00  0.45567874833E+02  0.45567874833E+02  0.00000000000E+00 0. -1.
          2   -1    0    0  503    0 -0.00000000000E+00 -0.00000000000E+00 -0.95010298537E+03  0.95010298537E+03  0.00000000000E+00 0. -1.
         23    2    1    2    0    0  0.16258851112E+01 -0.74935092927E+02 -0.58665110996E+03  0.59812529308E+03  0.89310860204E+02 0.  0.
         24    2    1    2    0    0 -0.37061439659E+02  0.35158843448E+02 -0.63795764601E+02  0.12022790031E+03  0.88176832844E+02 0.  0.
        -11    1    4    4    0    0  0.28683289824E+02  0.17642839970E+02 -0.24644179401E+02  0.41729324170E+02  0.00000000000E+00 0.  1.
         12    1    4    4    0    0 -0.65744729484E+02  0.17516003478E+02 -0.39151585200E+02  0.78498576143E+02  0.00000000000E+00 0. -1.
        -13    1    3    3    0    0  0.17531122461E+02 -0.91589672541E+02 -0.45203430091E+03  0.46155283291E+03  0.00000000000E+00 0. -1.
         13    1    3    3    0    0 -0.15905237349E+02  0.16654579614E+02 -0.13461680905E+03  0.13657246016E+03  0.00000000000E+00 0.  1.
         21    1    1    2  503  502 -0.33567185757E+01  0.58332520693E+02 -0.19918849330E+03  0.20758132477E+03  0.00000000000E+00 0.  1.
          1    1    1    2  501    0  0.38792273124E+02 -0.18556271214E+02 -0.54899742676E+02  0.69736342042E+02  0.00000000000E+00 0. -1.
<scales pt_clust_5="13000.00000" pt_clust_6="13000.00000" pt_clust_7="13000.00000" pt_clust_8="13000.00000" pt_clust_9="56.29871" pt_clust_10="43.00204"></scales>
<clustering>
<clus scale="   43.002">  1 10  2 -1</clus>
<clus scale="   56.299">  2  9  1 -1</clus>
<clus scale="   88.177">  5  6 -1 -1</clus>
<clus scale="   89.311">  7  8 -1 -1</clus>
<clus scale="   93.900">  1  5  2 -1</clus>
<clus scale="   43.002">  1  5  2 -1</clus>
</clustering>
</event>
<event>
10    4  0.2977685E-005  0.1805166E+03  0.7546771E-02  0.1172138E+00
          2   -1    0    0  503    0 -0.00000000000E+00  0.00000000000E+00  0.76379785238E+03  0.76379785238E+03  0.00000000000E+00 0. -1.
         21   -1    0    0  501  502  0.00000000000E+00 -0.00000000000E+00 -0.12061115782E+03  0.12061115782E+03  0.00000000000E+00 0. -1.
         23    2    1    2    0    0 -0.12048302814E+03  0.17824050690E+02  0.34781673857E+03  0.37926966355E+03  0.89638926890E+02 0.  0.
         24    2    1    2    0    0  0.79101516929E+02  0.13843857658E+03  0.11058496721E+03  0.21187829408E+03  0.85094577156E+02 0.  0.
        -11    1    4    4    0    0  0.32649608751E+02 -0.13532456539E+01  0.12938812235E+02  0.35145996748E+02  0.00000000000E+00 0.  1.
         12    1    4    4    0    0  0.46451908179E+02  0.13979182224E+03  0.97646154977E+02  0.17673229733E+03  0.00000000000E+00 0. -1.
        -13    1    3    3    0    0 -0.29257393463E+02  0.30570487135E+02  0.40982733101E+02  0.58907844710E+02  0.00000000000E+00 0. -1.
         13    1    3    3    0    0 -0.91225634675E+02 -0.12746436445E+02  0.30683400546E+03  0.32036181884E+03  0.00000000000E+00 0.  1.
         21    1    1    2  503  502 -0.20379149094E+02  0.26023591517E+02  0.42867376867E+02  0.54130851025E+02  0.00000000000E+00 0. -1.
          1    1    1    2  501    0  0.61760660303E+02 -0.18228621879E+03  0.14191761191E+03  0.23913020155E+03  0.00000000000E+00 0. -1.
<scales pt_clust_5="13000.00000" pt_clust_6="13000.00000" pt_clust_7="13000.00000" pt_clust_8="13000.00000" pt_clust_9="33.05355" pt_clust_10="159.20174"></scales>
<clustering>
<clus scale="   33.054">  1  9  2 -1</clus>
<clus scale="   85.095">  5  6 -1 -1</clus>
<clus scale="   89.639">  7  8 -1 -1</clus>
<clus scale="  161.612">  1  7  2 -1</clus>
<clus scale="  159.202">  2 10  1 -1</clus>
<clus scale="  159.202">  2  5  1 -1</clus>
</clustering>
</event>
<event>
10    4  0.2977685E-005  0.1037653E+03  0.7546771E-02  0.1275625E+00
          2   -1    0    0  503    0 -0.00000000000E+00  0.00000000000E+00  0.45453741102E+03  0.45453741102E+03  0.00000000000E+00 0. -1.
         21   -1    0    0  501  502  0.00000000000E+00 -0.00000000000E+00 -0.12222151609E+03  0.12222151609E+03  0.00000000000E+00 0. -1.
         24    2    1    2    0    0 -0.44388700184E+02  0.36962453344E+02  0.15999720439E+03  0.19293455741E+03  0.91038774001E+02 0.  0.
         23    2    1    2    0    0  0.22895221868E+02  0.24855660719E+02 -0.69957376575E+02  0.11459534506E+03  0.84238135776E+02 0.  0.
        -11    1    3    3    0    0  0.20932673885E+02  0.36891643570E+02  0.66637265251E+02  0.78991742109E+02  0.00000000000E+00 0.  1.
         12    1    3    3    0    0 -0.65321374069E+02  0.70809774554E-01  0.93359939134E+02  0.11394281530E+03  0.00000000000E+00 0. -1.
        -11    1    4    4    0    0  0.52364888153E+02  0.19617129828E+02 -0.26633871740E+02  0.61937681728E+02  0.00000000000E+00 0.  1.
         11    1    4    4    0    0 -0.29469666285E+02  0.52385308916E+01 -0.43323504835E+02  0.52657663336E+02  0.00000000000E+00 0. -1.
         21    1    1    2  503  502  0.15115993822E+02  0.20563334368E+02  0.11267055196E+03  0.11552487727E+03  0.00000000000E+00 0.  1.
          1    1    1    2  501    0  0.63774844937E+01 -0.82381448432E+02  0.12960551517E+03  0.15370414736E+03  0.00000000000E+00 0. -1.
<scales pt_clust_5="13000.00000" pt_clust_6="13000.00000" pt_clust_7="13000.00000" pt_clust_8="13000.00000" pt_clust_9="25.52144" pt_clust_10="74.90406"></scales>
<clustering>
<clus scale="   25.521">  1  9  2 -1</clus>
<clus scale="   74.904">  2 10  1 -1</clus>
<clus scale="   84.238">  7  8 -1 -1</clus>
<clus scale="   91.039">  5  6 -1 -1</clus>
<clus scale="   97.853">  2  7  1 -1</clus>
<clus scale="   74.904">  2  5  1 -1</clus>
</clustering>
</event>
<event>
10    4  0.2977685E-005  0.1085090E+03  0.7546771E-02  0.1270586E+00
         -1   -1    0    0    0  501 -0.00000000000E+00  0.00000000000E+00  0.15557635693E+03  0.15557635693E+03  0.00000000000E+00 0.  1.
         21   -1    0    0  503  502  0.00000000000E+00 -0.00000000000E+00 -0.36916432736E+03  0.36916432736E+03  0.00000000000E+00 0. -1.
         23    2    1    2    0    0 -0.22746578633E+02 -0.46169821049E+02  0.84846494028E+02  0.13909816911E+03  0.97469553638E+02 0.  0.
         24    2    1    2    0    0  0.39506287574E+02  0.59138587479E+00 -0.19171454315E+03  0.21197005132E+03  0.81337200015E+02 0.  0.
        -13    1    4    4    0    0  0.19934629319E+01 -0.29937501342E+02 -0.27215309716E+02  0.40508035795E+02  0.00000000000E+00 0.  1.
         14    1    4    4    0    0  0.37512824642E+02  0.30528887217E+02 -0.16449923343E+03  0.17146201553E+03  0.00000000000E+00 0. -1.
        -13    1    3    3    0    0  0.24041723318E+02  0.10719562455E+02 -0.54303732408E+00  0.26328850504E+02  0.00000000000E+00 0. -1.
         13    1    3    3    0    0 -0.46788301951E+02 -0.56889383504E+02  0.85389531352E+02  0.11276931861E+03  0.00000000000E+00 0.  1.
         21    1    1    2  503  501 -0.68635850975E+01  0.90571486231E+02 -0.67418451879E+02  0.11311741940E+03  0.00000000000E+00 0. -1.
         -2    1    1    2    0  502 -0.98961238437E+01 -0.44993051057E+02 -0.39301469424E+02  0.60555044459E+02  0.00000000000E+00 0.  1.
<scales pt_clust_5="13000.00000" pt_clust_6="13000.00000" pt_clust_7="13000.00000" pt_clust_8="13000.00000" pt_clust_9="78.44642" pt_clust_10="46.06851"></scales>
<clustering>
<clus scale="   46.069">  2 10  1 -1</clus>
<clus scale="   78.446">  2  9  1 -1</clus>
<clus scale="   81.337">  5  6 -1 -1</clus>
<clus scale="   94.285">  2  5  1 -1</clus>
<clus scale="   97.470">  7  8 -1 -1</clus>
<clus scale="   46.069">  2  5  1 -1</clus>
</clustering>
</event>
<event>
10    4  0.2977685E-005  0.9731272E+02  0.7546771E-02  0.1291126E+00
         21   -1    0    0  501  502  0.00000000000E+00  0.00000000000E+00  0.58509198165E+02  0.58509198165E+02  0.00000000000E+00 0.  1.
          2   -1    0    0  503    0 -0.00000000000E+00 -0.00000000000E+00 -0.67275419577E+03  0.67275419577E+03  0.00000000000E+00 0. -1.
         24    2    1    2    0    0  0.22033599795E+01 -0.89683738802E+01 -0.22595848245E+03  0.24021252674E+03  0.80990960524E+02 0.  0.
         23    2    1    2    0    0 -0.76661664506E+01 -0.33552280424E+02 -0.13275300341E+02  0.97791993171E+02  0.90567735422E+02 0.  0.
        -11    1    3    3    0    0 -0.23427682341E+02  0.25698080898E+02 -0.66686094936E+02  0.75208263639E+02  0.00000000000E+00 0.  1.
         12    1    3    3    0    0  0.25631042320E+02 -0.34666454779E+02 -0.15927238751E+03  0.16500426310E+03  0.00000000000E+00 0. -1.
        -13    1    4    4    0    0 -0.40270764140E+02 -0.48535582444E+00  0.15509001253E+02  0.43156681227E+02  0.00000000000E+00 0.  1.
         13    1    4    4    0    0  0.32604597689E+02 -0.33066924600E+02 -0.28784301594E+02  0.54635311944E+02  0.00000000000E+00 0. -1.
         21    1    1    2  503  502  0.25089380367E+02  0.74894949599E+02 -0.28159047028E+03  0.29245841317E+03  0.00000000000E+00 0.  1.
          1    1    1    2  501    0 -0.19626573896E+02 -0.32374295295E+02 -0.93420744533E+02  0.10080046085E+03  0.00000000000E+00 0. -1.
<scales pt_clust_5="13000.00000" pt_clust_6="13000.00000" pt_clust_7="13000.00000" pt_clust_8="13000.00000" pt_clust_9="75.32928" pt_clust_10="37.85893"></scales>
<clustering>
<clus scale="   37.859">  1 10  2 -1</clus>
<clus scale="   75.329">  2  9  1 -1</clus>
<clus scale="   80.991">  5  6 -1 -1</clus>
<clus scale="   88.469">  2  5  1 -1</clus>
<clus scale="   90.568">  7  8 -1 -1</clus>
<clus scale="   37.859">  1  5  2 -1</clus>
</clustering>
</event>
<event>
10    4  0.2977685E-005  0.1416643E+03  0.7546771E-02  0.1213283E+00
          2   -1    0    0  503    0 -0.00000000000E+00  0.00000000000E+00  0.97671339333E+03  0.97671339333E+03  0.00000000000E+00 0. -1.
         21   -1    0    0  501  502  0.00000000000E+00 -0.00000000000E+00 -0.18161637056E+03  0.18161637056E+03  0.00000000000E+00 0.  1.
         24    2    1    2    0    0 -0.50890616660E+02 -0.36727184080E+02  0.44710958923E+03  0.45868402926E+03  0.80903108725E+02 0.  0.
         23    2    1    2    0    0  0.16741553178E+03 -0.23951579278E+02 -0.76148993059E+02  0.20668979980E+03  0.91216038976E+02 0.  0.
        -11    1    3    3    0    0  0.17274583855E+01 -0.47280734706E+02  0.17197258698E+03  0.17836205499E+03  0.00000000000E+00 0.  1.
         12    1    3    3    0    0 -0.52618075046E+02  0.10553550626E+02  0.27513700225E+03  0.28032197427E+03  0.00000000000E+00 0. -1.
        -11    1    4    4    0    0  0.14514513668E+03 -0.45809527987E+02 -0.37017081637E+02  0.15663935613E+03  0.00000000000E+00 0.  1.
         11    1    4    4    0    0  0.22270395094E+02  0.21857948709E+02 -0.39131911422E+02  0.50050443664E+02  0.00000000000E+00 0. -1.
         21    1    1    2  503  502 -0.60787942443E+02  0.59106225251E+01  0.40878261430E+03  0.41331989447E+03  0.00000000000E+00 0.  1.
          1    1    1    2  501    0 -0.55736972673E+02  0.54768140833E+02  0.15353812297E+02  0.79636040365E+02  0.00000000000E+00 0. -1.
<scales pt_clust_5="13000.00000" pt_clust_6="13000.00000" pt_clust_7="13000.00000" pt_clust_8="13000.00000" pt_clust_9="61.07462" pt_clust_10="82.19352"></scales>
<clustering>
<clus scale="   61.075">  1  9  2 -1</clus>
<clus scale="   80.903">  5  6 -1 -1</clus>
<clus scale="   82.194">  2 10  1 -1</clus>
<clus scale="   91.216">  7  8 -1 -1</clus>
<clus scale="  135.254">  1  5  2 -1</clus>
<clus scale="   82.194">  2  5  1 -1</clus>
</clustering>
</event>
<event>
10    4  0.2977685E-005  0.1645867E+03  0.7546771E-02  0.1206865E+00
         21   -1    0    0  503  502  0.00000000000E+00  0.00000000000E+00  0.25576087267E+03  0.25576087267E+03  0.00000000000E+00 0.  1.
         -1   -1    0    0    0  501 -0.00000000000E+00 -0.00000000000E+00 -0.10525056042E+04  0.10525056042E+04  0.00000000000E+00 0.  1.
         24    2    1    2    0    0 -0.57048091849E+02  0.65834193495E+01 -0.24632533377E+03  0.26544371673E+03  0.80538006579E+02 0.  0.
         23    2    1    2    0    0 -0.15315199631E+03  0.14755394025E+03 -0.48253861940E+03  0.53472803801E+03  0.88672747585E+02 0.  0.
        -13    1    3    3    0    0 -0.64938311760E+02  0.18413835857E+02 -0.11496122510E+03  0.13331217860E+03  0.00000000000E+00 0.  1.
         14    1    3    3    0    0  0.78902199110E+01 -0.11830416507E+02 -0.13136410866E+03  0.13213153814E+03  0.00000000000E+00 0. -1.
        -13    1    4    4    0    0 -0.11437446791E+03  0.57947858705E+02 -0.32511905589E+03  0.34948801660E+03  0.00000000000E+00 0.  1.
         13    1    4    4    0    0 -0.38777528394E+02  0.89606081550E+02 -0.15741956351E+03  0.18524002141E+03  0.00000000000E+00 0. -1.
         21    1    1    2  503  501  0.15020496899E+03 -0.32300694864E+02 -0.24238233937E+03  0.28697398146E+03  0.00000000000E+00 0.  1.
         -2    1    1    2    0  502  0.59995119165E+02 -0.12183666474E+03  0.17450156096E+03  0.22112074072E+03  0.00000000000E+00 0.  1.
<scales pt_clust_5="13000.00000" pt_clust_6="13000.00000" pt_clust_7="13000.00000" pt_clust_8="13000.00000" pt_clust_9="134.66089" pt_clust_10="138.65762"></scales>
<clustering>
<clus scale="   80.538">  5  6 -1 -1</clus>
<clus scale="   88.673">  7  8 -1 -1</clus>
<clus scale="   98.915">  2  5  1 -1</clus>
<clus scale="  134.661">  2  9  1 -1</clus>
<clus scale="  138.658">  1 10  2 -1</clus>
<clus scale="  138.658">  1  5  2 -1</clus>
</clustering>
</event>
<event>
10    4  0.2977685E-005  0.9255086E+02  0.7546771E-02  0.1299483E+00
         21   -1    0    0  501  502  0.00000000000E+00  0.00000000000E+00  0.14095630365E+03  0.14095630365E+03  0.00000000000E+00 0. -1.
          2   -1    0    0  503    0 -0.00000000000E+00 -0.00000000000E+00 -0.67688705781E+03  0.67688705781E+03  0.00000000000E+00 0. -1.
         24    2    1    2    0    0 -0.15274163635E+02 -0.46179955248E+02 -0.47467309373E+03  0.48499295712E+03  0.86820125572E+02 0.  0.
         23    2    1    2    0    0  0.38750655733E+02  0.32746703767E+01 -0.51068891951E+02  0.11166998680E+03  0.91377335492E+02 0.  0.
        -13    1    3    3    0    0 -0.46786875672E+02 -0.39636833622E+02 -0.22324690179E+03  0.23151516036E+03  0.00000000000E+00 0.  1.
         14    1    3    3    0    0  0.31512712037E+02 -0.65431216252E+01 -0.25142619194E+03  0.25347779677E+03  0.00000000000E+00 0. -1.
        -11    1    4    4    0    0  0.29777444992E+02 -0.40808050810E+02 -0.11619383084E+02  0.51836312604E+02  0.00000000000E+00 0. -1.
         11    1    4    4    0    0  0.89732107411E+01  0.44082721187E+02 -0.39449508867E+02  0.59833674198E+02  0.00000000000E+00 0.  1.
         21    1    1    2  503  502  0.15158615955E+02  0.42112333264E+02 -0.10751724657E+03  0.11646111180E+03  0.00000000000E+00 0. -1.
          1    1    1    2  501    0 -0.38635108054E+02  0.79295160645E+00  0.97328478093E+02  0.10471930574E+03  0.00000000000E+00 0. -1.
<scales pt_clust_5="13000.00000" pt_clust_6="13000.00000" pt_clust_7="13000.00000" pt_clust_8="13000.00000" pt_clust_9="43.56911" pt_clust_10="38.64324"></scales>
<clustering>
<clus scale="   38.643">  1 10  2 -1</clus>
<clus scale="   43.569">  2  9  1 -1</clus>
<clus scale="   86.820">  5  6 -1 -1</clus>
<clus scale="   88.054">  2  5  1 -1</clus>
<clus scale="   91.377">  7  8 -1 -1</clus>
<clus scale="   38.643">  1  5  2 -1</clus>
</clustering>
</event>
<event>
10    4  0.2977685E-005  0.1212455E+03  0.7546771E-02  0.1244680E+00
         21   -1    0    0  501  502  0.00000000000E+00  0.00000000000E+00  0.32478729093E+03  0.32478729093E+03  0.00000000000E+00 0.  1.
          4   -1    0    0  503    0 -0.00000000000E+00 -0.00000000000E+00 -0.13350260350E+03  0.13350260350E+03  0.00000000000E+00 0. -1.
         23    2    1    2    0    0  0.18068030333E+02 -0.58657800653E+02  0.66046386824E+01  0.11013021360E+03  0.91202255439E+02 0.  0.
         24    2    1    2    0    0 -0.66703465912E+02  0.76803325633E+02  0.43800057769E+02  0.13631245534E+03  0.79464062493E+02 0.  0.
        -11    1    4    4    0    0 -0.56984788586E+02  0.17417783851E+02  0.47236290278E+02  0.76038887707E+02  0.00000000000E+00 0.  1.
         12    1    4    4    0    0 -0.97186773268E+01  0.59385541781E+02 -0.34362325091E+01  0.60273567636E+02  0.00000000000E+00 0. -1.
        -11    1    3    3    0    0 -0.36328960580E+02 -0.30870114764E+02  0.10873578301E+02  0.48897771599E+02  0.00000000000E+00 0.  1.
         11    1    3    3    0    0  0.54396990913E+02 -0.27787685889E+02 -0.42689396181E+01  0.61232441997E+02  0.00000000000E+00 0. -1.
         21    1    1    2  503  502  0.30258194216E+02 -0.86100216473E+01 -0.27750967631E+02  0.41950053569E+02  0.00000000000E+00 0.  1.
          3    1    1    2  501    0  0.18377241362E+02 -0.95355033325E+01  0.16863095861E+03  0.16989717192E+03  0.00000000000E+00 0. -1.
<scales pt_clust_5="13000.00000" pt_clust_6="13000.00000" pt_clust_7="13000.00000" pt_clust_8="13000.00000" pt_clust_9="32.38592" pt_clust_10="20.70384"></scales>
<clustering>
<clus scale="   20.704">  1 10  2 -1</clus>
<clus scale="   32.386">  2  9  1 -1</clus>
<clus scale="   79.464">  5  6 -1 -1</clus>
<clus scale="   91.202">  7  8 -1 -1</clus>
<clus scale="  112.682">  1  5  2 -1</clus>
<clus scale="   20.704">  1  5  2 -1</clus>
</clustering>
</event>
<event>
10    4  0.2977685E-005  0.2297148E+03  0.7546771E-02  0.1143069E+00
          2   -1    0    0  503    0 -0.00000000000E+00  0.00000000000E+00  0.53538273605E+03  0.53538273605E+03  0.00000000000E+00 0. -1.
         21   -1    0    0  501  502  0.00000000000E+00 -0.00000000000E+00 -0.59571039017E+03  0.59571039017E+03  0.00000000000E+00 0.  1.
         24    2    1    2    0    0 -0.12438728272E+03  0.37441517405E+02 -0.78546269402E+02  0.17052150532E+03  0.77678851758E+02 0.  0.
         23    2    1    2    0    0  0.81313935170E+02  0.21555980765E+03 -0.26659815801E+03  0.36370741253E+03  0.90169381430E+02 0.  0.
        -11    1    3    3    0    0 -0.12607408508E+03  0.18998454156E+02 -0.82126260287E+02  0.15165862592E+03  0.00000000000E+00 0.  1.
         12    1    3    3    0    0  0.16868023588E+01  0.18443063249E+02  0.35799908844E+01  0.18862879392E+02  0.00000000000E+00 0. -1.
        -13    1    4    4    0    0  0.60961570165E+02  0.19703883515E+03 -0.26545565846E+03  0.33616561722E+03  0.00000000000E+00 0.  1.
         13    1    4    4    0    0  0.20352365005E+02  0.18520972499E+02 -0.11424995536E+01  0.27541795309E+02  0.00000000000E+00 0. -1.
         21    1    1    2  503  502 -0.27051328099E+02 -0.51044807621E+02  0.36424757584E+03  0.36880027554E+03  0.00000000000E+00 0. -1.
          1    1    1    2  501    0  0.70124675648E+02 -0.20195651743E+03 -0.79430802536E+02  0.22806393283E+03  0.00000000000E+00 0. -1.
<scales pt_clust_5="13000.00000" pt_clust_6="13000.00000" pt_clust_7="13000.00000" pt_clust_8="13000.00000" pt_clust_9="57.76977" pt_clust_10="211.27810"></scales>
<clustering>
<clus scale="   57.770">  1  9  2 -1</clus>
<clus scale="   77.679">  5  6 -1 -1</clus>
<clus scale="   90.169">  7  8 -1 -1</clus>
<clus scale="  154.749">  1  5  2 -1</clus>
<clus scale="  211.278">  2 10  1 -1</clus>
<clus scale="  211.278">  2  5  1 -1</clus>
</clustering>
</event>
<event>
10    4  0.2977685E-005  0.9320056E+02  0.7546771E-02  0.1301650E+00
          4   -1    0    0  503    0 -0.00000000000E+00  0.00000000000E+00  0.22750177227E+03  0.22750177227E+03  0.00000000000E+00 0. -1.
         21   -1    0    0  501  502  0.00000000000E+00 -0.00000000000E+00 -0.40810489590E+03  0.40810489590E+03  0.00000000000E+00 0. -1.
         24    2    1    2    0    0 -0.23829572999E+02 -0.67589970973E+00  0.16958934834E+03  0.18927891706E+03  0.80608039205E+02 0.  0.
         23    2    1    2    0    0 -0.10988183571E+02  0.12265650212E+02 -0.24237045252E+03  0.25948813117E+03  0.91211115599E+02 0.  0.
        -13    1    3    3    0    0  0.12775449811E+02 -0.26211114135E+02  0.26539311985E+02  0.39428031941E+02  0.00000000000E+00 0.  1.
         14    1    3    3    0    0 -0.36605022810E+02  0.25535214425E+02  0.14305003636E+03  0.14985088512E+03  0.00000000000E+00 0. -1.
        -13    1    4    4    0    0  0.11581323528E+02 -0.32888823402E+02 -0.52519613340E+02  0.63040554763E+02  0.00000000000E+00 0.  1.
         13    1    4    4    0    0 -0.22569507099E+02  0.45154473614E+02 -0.18985083918E+03  0.19644757641E+03  0.00000000000E+00 0. -1.
         21    1    1    2  503  502  0.13134883492E+02  0.19566064222E+02  0.33247606786E+02  0.40752415763E+02  0.00000000000E+00 0. -1.
          3    1    1    2  501    0  0.21682873078E+02 -0.31155814725E+02 -0.14106962623E+03  0.14608720417E+03  0.00000000000E+00 0. -1.
<scales pt_clust_5="13000.00000" pt_clust_6="13000.00000" pt_clust_7="13000.00000" pt_clust_8="13000.00000" pt_clust_9="23.56599" pt_clust_10="37.84671"></scales>
<clustering>
<clus scale="   23.566">  1  9  2 -1</clus>
<clus scale="   37.847">  2 10  1 -1</clus>
<clus scale="   80.608">  5  6 -1 -1</clus>
<clus scale="   82.852">  1  5  2 -1</clus>
<clus scale="   91.211">  7  8 -1 -1</clus>
<clus scale="   37.847">  2  5  1 -1</clus>
</clustering>
</event>
<event>
10    4  0.2977685E-005  0.1162480E+03  0.7546771E-02  0.1251676E+00
         21   -1    0    0  501  502  0.00000000000E+00  0.00000000000E+00  0.10226611750E+03  0.10226611750E+03  0.00000000000E+00 0.  1.
          4   -1    0    0  503    0 -0.00000000000E+00 -0.00000000000E+00 -0.28568404612E+03  0.28568404612E+03  0.00000000000E+00 0. -1.
         23    2    1    2    0    0 -0.46196790571E+02 -0.62292557026E+02 -0.96603839341E+02  0.15361418121E+03  0.90832311282E+02 0.  0.
         24    2    1    2    0    0  0.56768014318E+02  0.48385941828E+02  0.74798409007E+01  0.11271852756E+03  0.84176669094E+02 0.  0.
        -13    1    4    4    0    0  0.43704224335E+02 -0.96336355493E+01  0.24284745961E+02  0.50917728200E+02  0.00000000000E+00 0.  1.
         14    1    4    4    0    0  0.13063789983E+02  0.58019577378E+02 -0.16804905061E+02  0.61800799363E+02  0.00000000000E+00 0. -1.
        -11    1    3    3    0    0 -0.29632547112E+02 -0.81798366471E+02 -0.49731194173E+02  0.10021103871E+03  0.00000000000E+00 0. -1.
         11    1    3    3    0    0 -0.16564243459E+02  0.19505809445E+02 -0.46872645168E+02  0.53403142497E+02  0.00000000000E+00 0.  1.
         21    1    1    2  503  502 -0.19556217315E+02  0.38511561024E+02 -0.31141897310E+02  0.53248509240E+02  0.00000000000E+00 0. -1.
          3    1    1    2  501    0  0.89849935680E+01 -0.24604945827E+02 -0.63152032870E+02  0.68368945613E+02  0.00000000000E+00 0. -1.
<scales pt_clust_5="13000.00000" pt_clust_6="13000.00000" pt_clust_7="13000.00000" pt_clust_8="13000.00000" pt_clust_9="40.30946" pt_clust_10="26.19416"></scales>
<clustering>
<clus scale="   26.194">  1 10  2 -1</clus>
<clus scale="   40.309">  2  9  1 -1</clus>
<clus scale="   84.177">  5  6 -1 -1</clus>
<clus scale="   90.832">  7  8 -1 -1</clus>
<clus scale="  111.125">  1  5  2 -1</clus>
<clus scale="   26.194">  1  5  2 -1</clus>
</clustering>
</event>
<event>
10    4  0.2977685E-005  0.2919276E+03  0.7546771E-02  0.1132367E+00
         21   -1    0    0  503  502  0.00000000000E+00  0.00000000000E+00  0.77363591300E+03  0.77363591300E+03  0.00000000000E+00 0. -1.
         -1   -1    0    0    0  501 -0.00000000000E+00 -0.00000000000E+00 -0.34292983905E+03  0.34292983905E+03  0.00000000000E+00 0.  1.
         24    2    1    2    0    0 -0.31104281075E+02  0.52067509951E+02  0.89171103154E+02  0.13369890463E+03  0.79027903733E+02 0.  0.
         23    2    1    2    0    0  0.26004945514E+03 -0.16695283489E+03  0.62443283367E+02  0.32797080247E+03  0.90369881247E+02 0.  0.
        -13    1    3    3    0    0 -0.52753470112E+02  0.14055711157E+02  0.59998949974E+02  0.81119452803E+02  0.00000000000E+00 0.  1.
         14    1    3    3    0    0  0.21649189037E+02  0.38011798794E+02  0.29172153180E+02  0.52579451829E+02  0.00000000000E+00 0. -1.
        -13    1    4    4    0    0  0.70495380289E+01 -0.31444353761E+02 -0.63319898722E+01  0.32841094160E+02  0.00000000000E+00 0.  1.
         13    1    4    4    0    0  0.25299991711E+03 -0.13550848113E+03  0.68775273239E+02  0.29512970831E+03  0.00000000000E+00 0. -1.
         21    1    1    2  503  501 -0.84319598930E+01 -0.38205646059E+02 -0.14654440722E+03  0.15167739656E+03  0.00000000000E+00 0.  1.
         -2    1    1    2    0  502 -0.22051321417E+03  0.15309097099E+03  0.42563609465E+03  0.50321864840E+03  0.00000000000E+00 0.  1.
<scales pt_clust_5="13000.00000" pt_clust_6="13000.00000" pt_clust_7="13000.00000" pt_clust_8="13000.00000" pt_clust_9="39.12505" pt_clust_10="277.58788"></scales>
<clustering>
<clus scale="   39.125">  2  9  1 -1</clus>
<clus scale="   79.028">  5  6 -1 -1</clus>
<clus scale="   90.370">  7  8 -1 -1</clus>
<clus scale="   97.711">  2  5  1 -1</clus>
<clus scale="  277.588">  1 10  2 -1</clus>
<clus scale="  277.588">  1  5  2 -1</clus>
</clustering>
</event>
<event>
10    4  0.2977685E-005  0.1038898E+03  0.7546771E-02  0.1277532E+00
         21   -1    0    0  503  502  0.00000000000E+00  0.00000000000E+00  0.29673416871E+03  0.29673416871E+03  0.00000000000E+00 0.  1.
         -1   -1    0    0    0  501 -0.00000000000E+00 -0.00000000000E+00 -0.22076401429E+03  0.22076401429E+03  0.00000000000E+00 0.  1.
         24    2    1    2    0    0  0.64594882129E+01 -0.11898899328E+02 -0.92974642548E+02  0.12387946967E+03  0.80737414223E+02 0.  0.
         23    2    1    2    0    0 -0.10893369129E+03  0.27190201196E+02  0.20894830006E+03  0.25443952338E+03  0.92055542038E+02 0.  0.
        -11    1    3    3    0    0 -0.74349989369E+01  0.28676302247E+02 -0.68184602882E+02  0.74342111821E+02  0.00000000000E+00 0.  1.
         12    1    3    3    0    0  0.13894487150E+02 -0.40575201575E+02 -0.24790039665E+02  0.49537357848E+02  0.00000000000E+00 0. -1.
        -13    1    4    4    0    0 -0.55801789648E+02  0.19185192688E+01  0.24752842262E+02  0.61075556847E+02  0.00000000000E+00 0. -1.
         13    1    4    4    0    0 -0.53131901645E+02  0.25271681927E+02  0.18419545780E+03  0.19336396653E+03  0.00000000000E+00 0.  1.
         21    1    1    2  503  501  0.53198303341E+02  0.34366685329E+02 -0.20066969287E+02  0.66436524557E+02  0.00000000000E+00 0. -1.
         -2    1    1    2    0  502  0.49275899739E+02 -0.49657987196E+02 -0.19936533804E+02  0.72742665387E+02  0.00000000000E+00 0.  1.
<scales pt_clust_5="13000.00000" pt_clust_6="13000.00000" pt_clust_7="13000.00000" pt_clust_8="13000.00000" pt_clust_9="63.33347" pt_clust_10="75.13326"></scales>
<clustering>
<clus scale="   63.333">  2  9  1 -1</clus>
<clus scale="   75.133">  1 10  2 -1</clus>
<clus scale="   80.737">  5  6 -1 -1</clus>
<clus scale="   92.056">  7  8 -1 -1</clus>
<clus scale="   94.007">  2  5  1 -1</clus>
<clus scale="   75.133">  1  5  2 -1</clus>
</clustering>
</event>
<event>
10    4  0.2977685E-005  0.1441729E+03  0.7546771E-02  0.1209933E+00
         21   -1    0    0  503  502  0.00000000000E+00  0.00000000000E+00  0.19945617199E+03  0.19945617199E+03  0.00000000000E+00 0.  1.
         -1   -1    0    0    0  501 -0.00000000000E+00 -0.00000000000E+00 -0.24559569282E+03  0.24559569282E+03  0.00000000000E+00 0.  1.
         23    2    1    2    0    0  0.10228273656E+03  0.34638100234E+02 -0.74596810792E+02  0.15922359406E+03  0.90143843595E+02 0.  0.
         24    2    1    2    0    0 -0.11200411854E+03 -0.43804575652E+02 -0.81763931967E+00  0.14420472988E+03  0.79564892813E+02 0.  0.
        -11    1    4    4    0    0 -0.71802482909E+02 -0.61466311293E+02  0.18367310191E+02  0.96286354482E+02  0.00000000000E+00 0.  1.
         12    1    4    4    0    0 -0.40201635628E+02  0.17661735641E+02 -0.19184949511E+02  0.47918375397E+02  0.00000000000E+00 0. -1.
        -11    1    3    3    0    0  0.67730636106E+02  0.65423975907E+02 -0.54177504478E+02  0.10864132585E+03  0.00000000000E+00 0.  1.
         11    1    3    3    0    0  0.34552100458E+02 -0.30785875673E+02 -0.20419306314E+02  0.50582268211E+02  0.00000000000E+00 0. -1.
         21    1    1    2  503  501  0.63963005043E+02 -0.30939579829E+02  0.13053008229E+02  0.72241986670E+02  0.00000000000E+00 0.  1.
         -2    1    1    2    0  502 -0.54241623071E+02  0.40106055247E+02  0.16221921046E+02  0.69381554200E+02  0.00000000000E+00 0.  1.
<scales pt_clust_5="13000.00000" pt_clust_6="13000.00000" pt_clust_7="13000.00000" pt_clust_8="13000.00000" pt_clust_9="53.11424" pt_clust_10="67.45850"></scales>
<clustering>
<clus scale="   67.459">  1 10  2 -1</clus>
<clus scale="   53.114">  1  9  2 -1</clus>
<clus scale="   79.565">  5  6 -1 -1</clus>
<clus scale="   90.144">  7  8 -1 -1</clus>
<clus scale="  137.806">  1  5  2 -1</clus>
<clus scale="   67.459">  1  5  2 -1</clus>
</clustering>
</event>
<event>
10    4  0.2977685E-005  0.2416488E+03  0.7546771E-02  0.1144881E+00
         21   -1    0    0  501  502  0.00000000000E+00  0.00000000000E+00  0.94483850725E+02  0.94483850725E+02  0.00000000000E+00 0. -1.
          2   -1    0    0  503    0 -0.00000000000E+00 -0.00000000000E+00 -0.14065818748E+04  0.14065818748E+04  0.00000000000E+00 0. -1.
         24    2    1    2    0    0  0.82792706676E+01  0.82292542588E+02 -0.50556765074E+03  0.51866140257E+03  0.81057955523E+02 0.  0.
         23    2    1    2    0    0  0.23250042247E+03 -0.56463306950E+01 -0.34585221571E+03  0.42620882064E+03  0.89173292967E+02 0.  0.
        -11    1    3    3    0    0 -0.15336873668E+02  0.87898648869E+02 -0.34910385785E+03  0.36032609638E+03  0.00000000000E+00 0.  1.
         12    1    3    3    0    0  0.23616144336E+02 -0.56061062808E+01 -0.15646379289E+03  0.15833530619E+03  0.00000000000E+00 0. -1.
        -13    1    4    4    0    0  0.69680717074E+02 -0.18970836008E+02 -0.17747529403E+03  0.19160578003E+03  0.00000000000E+00 0.  1.
         13    1    4    4    0    0  0.16281970540E+03  0.13324505313E+02 -0.16837692168E+03  0.23460304061E+03  0.00000000000E+00 0. -1.
         21    1    1    2  503  502 -0.37413712493E+02  0.36540225251E+02 -0.20005207271E+03  0.20677477056E+03  0.00000000000E+00 0.  1.
          1    1    1    2  501    0 -0.20336598064E+03 -0.11318643714E+03 -0.26062608487E+03  0.34942073171E+03  0.00000000000E+00 0. -1.
<scales pt_clust_5="13000.00000" pt_clust_6="13000.00000" pt_clust_7="13000.00000" pt_clust_8="13000.00000" pt_clust_9="52.29698" pt_clust_10="224.59352"></scales>
<clustering>
<clus scale="   52.297">  2  9  1 -1</clus>
<clus scale="   81.058">  5  6 -1 -1</clus>
<clus scale="   89.173">  7  8 -1 -1</clus>
<clus scale="  127.289">  2  5  1 -1</clus>
<clus scale="  224.594">  1 10  2 -1</clus>
<clus scale="  224.594">  1  5  2 -1</clus>
</clustering>
</event>
<event>
10    4  0.2977685E-005  0.9522216E+02  0.7546771E-02  0.1295964E+00
         21   -1    0    0  501  502  0.00000000000E+00  0.00000000000E+00  0.10648569301E+03  0.10648569301E+03  0.00000000000E+00 0. -1.
          4   -1    0    0  503    0 -0.00000000000E+00 -0.00000000000E+00 -0.52911301972E+03  0.52911301972E+03  0.00000000000E+00 0. -1.
         23    2    1    2    0    0 -0.16744683089E+01 -0.53954877089E+02 -0.42208979913E+03  0.43512818445E+03  0.90899976758E+02 0.  0.
         24    2    1    2    0    0  0.70464485760E+01 -0.43520733733E+01  0.59883756903E+02  0.10146904593E+03  0.81494232690E+02 0.  0.
        -11    1    4    4    0    0 -0.11917446921E+02 -0.25159503692E+02 -0.71676356714E+01  0.28747194094E+02  0.00000000000E+00 0.  1.
         12    1    4    4    0    0  0.18963895497E+02  0.20807430319E+02  0.67051392575E+02  0.72721851840E+02  0.00000000000E+00 0. -1.
        -11    1    3    3    0    0  0.98239379977E+01  0.23541514326E+02 -0.72181227226E+02  0.76556137692E+02  0.00000000000E+00 0.  1.
         11    1    3    3    0    0 -0.11498406307E+02 -0.77496391415E+02 -0.34990857190E+03  0.35857204676E+03  0.00000000000E+00 0. -1.
         21    1    1    2  503  502  0.28032386966E+01  0.24522252430E+02 -0.59291163374E+02  0.64223368533E+02  0.00000000000E+00 0. -1.
          3    1    1    2  501    0 -0.81752189637E+01  0.33784698033E+02 -0.11301211166E+01  0.34778113808E+02  0.00000000000E+00 0. -1.
<scales pt_clust_5="13000.00000" pt_clust_6="13000.00000" pt_clust_7="13000.00000" pt_clust_8="13000.00000" pt_clust_9="24.68196" pt_clust_10="35.65154"></scales>
<clustering>
<clus scale="   24.682">  2  9  1 -1</clus>
<clus scale="   35.652">  1 10  2 -1</clus>
<clus scale="   81.494">  5  6 -1 -1</clus>
<clus scale="   86.289">  1  5  2 -1</clus>
<clus scale="   90.900">  7  8 -1 -1</clus>
<clus scale="   35.652">  1  5  2 -1</clus>
</clustering>
</event>
<event>
10    4  0.2977685E-005  0.2162344E+03  0.7546771E-02  0.1150669E+00
         21   -1    0    0  501  502  0.00000000000E+00  0.00000000000E+00  0.53865013581E+03  0.53865013581E+03  0.00000000000E+00 0. -1.
          2   -1    0    0  503    0 -0.00000000000E+00 -0.00000000000E+00 -0.47107487875E+03  0.47107487875E+03  0.00000000000E+00 0. -1.
         24    2    1    2    0    0 -0.11821493784E+03 -0.70592110711E+02 -0.20534218386E+02  0.15997678289E+03  0.78821946924E+02 0.  0.
         23    2    1    2    0    0 -0.17772502742E+03  0.85500158009E+02  0.35543633592E+03  0.41577058473E+03  0.87371207146E+02 0.  0.
        -13    1    3    3    0    0 -0.53282121897E+02 -0.65096499898E+02  0.15461211854E+02  0.85531210004E+02  0.00000000000E+00 0.  1.
         14    1    3    3    0    0 -0.64932815941E+02 -0.54956108129E+01 -0.35995430241E+02  0.74445572887E+02  0.00000000000E+00 0. -1.
        -11    1    4    4    0    0 -0.17114169885E+03  0.50779648628E+02  0.27432782079E+03  0.32729773458E+03  0.00000000000E+00 0. -1.
         11    1    4    4    0    0 -0.65833285753E+01  0.34720509381E+02  0.81108515131E+02  0.88472850149E+02  0.00000000000E+00 0.  1.
         21    1    1    2  503  502  0.58238078946E+02 -0.48109542169E+02 -0.11173130400E+01  0.75547668895E+02  0.00000000000E+00 0.  1.
          1    1    1    2  501    0  0.23770188632E+03  0.33201494871E+02 -0.26620954743E+03  0.35842997805E+03  0.00000000000E+00 0. -1.
<scales pt_clust_5="13000.00000" pt_clust_6="13000.00000" pt_clust_7="13000.00000" pt_clust_8="13000.00000" pt_clust_9="75.53941" pt_clust_10="197.79697"></scales>
<clustering>
<clus scale="   75.539">  2  9  1 -1</clus>
<clus scale="   78.822">  5  6 -1 -1</clus>
<clus scale="   87.371">  7  8 -1 -1</clus>
<clus scale="  154.803">  2  5  1 -1</clus>
<clus scale="  197.797">  1 10  2 -1</clus>
<clus scale="  197.797">  1  5  2 -1</clus>
</clustering>
</event>
<event>
10    4  0.2977685E-005  0.1145433E+03  0.7546771E-02  0.1257844E+00
         21   -1    0    0  501  502  0.00000000000E+00  0.00000000000E+00  0.76836413334E+02  0.76836413334E+02  0.00000000000E+00 0.  1.
          2   -1    0    0  503    0 -0.00000000000E+00 -0.00000000000E+00 -0.58853045758E+03  0.58853045758E+03  0.00000000000E+00 0. -1.
         24    2    1    2    0    0  0.57390238775E+02  0.57746544487E+02 -0.35609955791E+03  0.37301348170E+03  0.75523900084E+02 0.  0.
         23    2    1    2    0    0 -0.77764163842E+01 -0.49256716765E+02 -0.38060014015E+02  0.11042233913E+03  0.90872611458E+02 0.  0.
        -11    1    3    3    0    0  0.66463676544E+02  0.24834595780E+02 -0.29076886911E+03  0.29930037202E+03  0.00000000000E+00 0.  1.
         12    1    3    3    0    0 -0.90734377694E+01  0.32911948706E+02 -0.65330688800E+02  0.73713109686E+02  0.00000000000E+00 0. -1.
        -11    1    4    4    0    0 -0.15576276060E+01 -0.30153411828E+02  0.28120102421E+02  0.41260084935E+02  0.00000000000E+00 0.  1.
         11    1    4    4    0    0 -0.62187887783E+01 -0.19103304936E+02 -0.66180116437E+02  0.69162254192E+02  0.00000000000E+00 0. -1.
         21    1    1    2  503  502 -0.44152974926E+02  0.19557032458E+02 -0.13837861320E+03  0.14656262588E+03  0.00000000000E+00 0. -1.
          1    1    1    2  501    0 -0.54608474650E+01 -0.28046860181E+02  0.20844140885E+02  0.35368424198E+02  0.00000000000E+00 0. -1.
<scales pt_clust_5="13000.00000" pt_clust_6="13000.00000" pt_clust_7="13000.00000" pt_clust_8="13000.00000" pt_clust_9="47.81311" pt_clust_10="28.57354"></scales>
<clustering>
<clus scale="   28.574">  1 10  2 -1</clus>
<clus scale="   47.813">  2  9  1 -1</clus>
<clus scale="   75.524">  5  6 -1 -1</clus>
<clus scale="   90.873">  7  8 -1 -1</clus>
<clus scale="  102.792">  2  5  1 -1</clus>
<clus scale="   28.574">  1  5  2 -1</clus>
</clustering>
</event>
<event>
10    4  0.2977685E-005  0.1072577E+03  0.7546771E-02  0.1270096E+00
         21   -1    0    0  501  502  0.00000000000E+00  0.00000000000E+00  0.14392501644E+03  0.14392501644E+03  0.00000000000E+00 0.  1.
          2   -1    0    0  503    0 -0.00000000000E+00 -0.00000000000E+00 -0.26185364851E+03  0.26185364851E+03  0.00000000000E+00 0. -1.
         24    2    1    2    0    0  0.44478603668E+02  0.55717500162E+02 -0.15563273723E+03  0.18953790346E+03  0.81365115018E+02 0.  0.
         23    2    1    2    0    0  0.45708801620E+01 -0.61778275933E+02  0.20618566264E+02  0.11258024094E+03  0.91715522413E+02 0.  0.
        -11    1    3    3    0    0 -0.12419884046E+01  0.27528150671E+02 -0.29866793939E+01  0.27717537198E+02  0.00000000000E+00 0.  1.
         12    1    3    3    0    0  0.45720592072E+02  0.28189349491E+02 -0.15264605784E+03  0.16182036626E+03  0.00000000000E+00 0. -1.
        -11    1    4    4    0    0  0.46647808730E+02 -0.45658227076E+02  0.16539841561E+02  0.67336900121E+02  0.00000000000E+00 0.  1.
         11    1    4    4    0    0 -0.42076928568E+02 -0.16120048857E+02  0.40787247034E+01  0.45243340815E+02  0.00000000000E+00 0. -1.
         21    1    1    2  503  502 -0.15820173227E+02 -0.13196068951E+02 -0.33996424814E+02  0.39751364969E+02  0.00000000000E+00 0.  1.
          1    1    1    2  501    0 -0.33229310602E+02  0.19256844722E+02  0.51081963712E+02  0.63909155591E+02  0.00000000000E+00 0. -1.
<scales pt_clust_5="13000.00000" pt_clust_6="13000.00000" pt_clust_7="13000.00000" pt_clust_8="13000.00000" pt_clust_9="20.60131" pt_clust_10="38.61142"></scales>
<clustering>
<clus scale="   20.601">  2  9  1 -1</clus>
<clus scale="   38.611">  1 10  2 -1</clus>
<clus scale="   81.365">  5  6 -1 -1</clus>
<clus scale="   91.716">  7  8 -1 -1</clus>
<clus scale="   98.553">  2  5  1 -1</clus>
<clus scale="   38.611">  1  5  2 -1</clus>
</clustering>
</event>
<event>
10    4  0.2977685E-005  0.1551513E+03  0.7546771E-02  0.1196626E+00
         21   -1    0    0  503  502  0.00000000000E+00  0.00000000000E+00  0.99063630671E+03  0.99063630671E+03  0.00000000000E+00 0. -1.
         -3   -1    0    0    0  501 -0.00000000000E+00 -0.00000000000E+00 -0.10268394403E+03  0.10268394403E+03  0.00000000000E+00 0.  1.
         23    2    1    2    0    0 -0.84937985359E+02  0.13317889792E+03  0.22116687752E+03  0.28752246312E+03  0.93825896632E+02 0.  0.
         24    2    1    2    0    0  0.81761711226E+02 -0.74117919681E+02  0.62504932379E+03  0.63978181115E+03  0.80347154700E+02 0.  0.
        -13    1    4    4    0    0  0.37336988992E+02 -0.44651667502E+02  0.13729858034E+03  0.14912653124E+03  0.00000000000E+00 0.  1.
         14    1    4    4    0    0  0.44424722233E+02 -0.29466252178E+02  0.48775074345E+03  0.49065527990E+03  0.00000000000E+00 0. -1.
        -13    1    3    3    0    0 -0.99837640383E+02  0.82801862257E+02  0.17320248493E+03  0.21638577499E+03  0.00000000000E+00 0.  1.
         13    1    3    3    0    0  0.14899655024E+02  0.50377035662E+02  0.47964392581E+02  0.71136688127E+02  0.00000000000E+00 0. -1.
         21    1    1    2  503  501  0.63406806201E+02 -0.51075160189E+02  0.61597110185E+02  0.10209455933E+03  0.00000000000E+00 0. -1.
         -4    1    1    2    0  502 -0.60230532067E+02 -0.79858180495E+01 -0.19860948807E+02  0.63921417150E+02  0.00000000000E+00 0.  1.
<scales pt_clust_5="13000.00000" pt_clust_6="13000.00000" pt_clust_7="13000.00000" pt_clust_8="13000.00000" pt_clust_9="77.96780" pt_clust_10="60.75767"></scales>
<clustering>
<clus scale="   60.758">  1 10  2 -1</clus>
<clus scale="   77.968">  2  9  1 -1</clus>
<clus scale="   80.347">  5  6 -1 -1</clus>
<clus scale="   93.826">  7  8 -1 -1</clus>
<clus scale="  147.392">  1  5  2 -1</clus>
<clus scale="   60.758">  1  5  2 -1</clus>
</clustering>
</event>
<event>
10    4  0.2977685E-005  0.1545741E+03  0.7546771E-02  0.1197845E+00
         21   -1    0    0  503  502  0.00000000000E+00  0.00000000000E+00  0.17168724733E+03  0.17168724733E+03  0.00000000000E+00 0.  1.
         -3   -1    0    0    0  501 -0.00000000000E+00 -0.00000000000E+00 -0.34115437861E+03  0.34115437861E+03  0.00000000000E+00 0.  1.
         23    2    1    2    0    0 -0.68463129358E+02  0.86843324690E+02 -0.16595843173E+03  0.22078861123E+03  0.94744111491E+02 0.  0.
         24    2    1    2    0    0  0.97990780687E+02 -0.47783904705E+02  0.66762754873E+02  0.14996960456E+03  0.78409962415E+02 0.  0.
        -11    1    4    4    0    0  0.10148140646E+03 -0.56492625723E+02  0.74348574346E+02  0.13790432599E+03  0.00000000000E+00 0.  1.
         12    1    4    4    0    0 -0.34906257744E+01  0.87087210175E+01 -0.75858194727E+01  0.12065278577E+02  0.00000000000E+00 0. -1.
        -11    1    3    3    0    0 -0.60573569849E+02  0.31435790474E+02 -0.31532442419E+02  0.75177531297E+02  0.00000000000E+00 0. -1.
         11    1    3    3    0    0 -0.78895595086E+01  0.55407534216E+02 -0.13442598931E+03  0.14561107993E+03  0.00000000000E+00 0.  1.
         21    1    1    2  503  501 -0.21169242877E+02  0.17569065380E+02 -0.79479164198E+02  0.84105567258E+02  0.00000000000E+00 0.  1.
         -4    1    1    2    0  502 -0.83584084523E+01 -0.56628485364E+02  0.92077097678E+01  0.57977842885E+02  0.00000000000E+00 0.  1.
<scales pt_clust_5="13000.00000" pt_clust_6="13000.00000" pt_clust_7="13000.00000" pt_clust_8="13000.00000" pt_clust_9="27.51016" pt_clust_10="55.94219"></scales>
<clustering>
<clus scale="   27.510">  2  9  1 -1</clus>
<clus scale="   55.942">  1 10  2 -1</clus>
<clus scale="   78.410">  5  6 -1 -1</clus>
<clus scale="   94.744">  7  8 -1 -1</clus>
<clus scale="  145.137">  1  5  2 -1</clus>
<clus scale="   55.942">  1  5  2 -1</clus>
</clustering>
</event>
<event>
10    4  0.2977685E-005  0.9518732E+02  0.7546771E-02  0.1294435E+00
         21   -1    0    0  501  502  0.00000000000E+00  0.00000000000E+00  0.77352524431E+02  0.77352524431E+02  0.00000000000E+00 0. -1.
          4   -1    0    0  503    0 -0.00000000000E+00 -0.00000000000E+00 -0.38607086209E+03  0.38607086209E+03  0.00000000000E+00 0. -1.
         24    2    1    2    0    0 -0.12098422897E+02 -0.26683823703E+02 -0.16483351493E+03  0.18537697868E+03  0.79599863657E+02 0.  0.
         23    2    1    2    0    0  0.41424592114E+02  0.56322714695E+01 -0.10717149190E+02  0.96753130647E+02  0.86594409113E+02 0.  0.
        -11    1    3    3    0    0  0.31248776111E+02  0.39360989785E+01 -0.68442555472E+02  0.75341637115E+02  0.00000000000E+00 0.  1.
         12    1    3    3    0    0 -0.43347199008E+02 -0.30619922681E+02 -0.96390959459E+02  0.11003534156E+03  0.00000000000E+00 0. -1.
        -13    1    4    4    0    0  0.55965988315E+02 -0.25718389504E+02 -0.63280486632E+01  0.61916650480E+02  0.00000000000E+00 0. -1.
         13    1    4    4    0    0 -0.14541396202E+02  0.31350660974E+02 -0.43891005264E+01  0.34836480167E+02  0.00000000000E+00 0.  1.
         21    1    1    2  503  502 -0.69028499365E+01 -0.22968390273E+02 -0.12955844530E+03  0.13175958044E+03  0.00000000000E+00 0.  1.
          3    1    1    2  501    0 -0.22423319280E+02  0.44019942506E+02 -0.36092282337E+01  0.49533696755E+02  0.00000000000E+00 0. -1.
<scales pt_clust_5="13000.00000" pt_clust_6="13000.00000" pt_clust_7="13000.00000" pt_clust_8="13000.00000" pt_clust_9="23.98325" pt_clust_10="47.63005"></scales>
<clustering>
<clus scale="   23.983">  2  9  1 -1</clus>
<clus scale="   47.630">  1 10  2 -1</clus>
<clus scale="   79.600">  5  6 -1 -1</clus>
<clus scale="   86.594">  7  8 -1 -1</clus>
<clus scale="   88.872">  2  5  1 -1</clus>
<clus scale="   47.630">  1  5  2 -1</clus>
</clustering>
</event>
<event>
10    4  0.2977685E-005  0.1352658E+03  0.7546771E-02  0.1223810E+00
          2   -1    0    0  503    0 -0.00000000000E+00  0.00000000000E+00  0.10005571216E+03  0.10005571216E+03  0.00000000000E+00 0. -1.
         21   -1    0    0  501  502  0.00000000000E+00 -0.00000000000E+00 -0.55892234972E+03  0.55892234972E+03  0.00000000000E+00 0. -1.
         23    2    1    2    0    0 -0.34112409636E+02 -0.77141700624E+02 -0.25761999020E+02  0.12505323900E+03  0.88657394076E+02 0.  0.
         24    2    1    2    0    0  0.11409969121E+03 -0.19183713348E+02 -0.25936663017E+03  0.29504841992E+03  0.79973538475E+02 0.  0.
        -11    1    4    4    0    0  0.72590199689E+01  0.19979493945E+02 -0.16721553739E+02  0.27045959193E+02  0.00000000000E+00 0.  1.
         12    1    4    4    0    0  0.10684067124E+03 -0.39163207293E+02 -0.24264507643E+03  0.26800246072E+03  0.00000000000E+00 0. -1.
        -13    1    3    3    0    0 -0.19423721846E+02  0.15201327936E+02 -0.19314056270E+02  0.31327210392E+02  0.00000000000E+00 0.  1.
         13    1    3    3    0    0 -0.14688687790E+02 -0.92343028561E+02 -0.64479427499E+01  0.93726028607E+02  0.00000000000E+00 0. -1.
         21    1    1    2  503  502 -0.61772340566E+02  0.11231543387E+03 -0.17209068901E+03  0.21458281382E+03  0.00000000000E+00 0. -1.
          1    1    1    2  501    0 -0.18214941009E+02 -0.15990019901E+02 -0.16473193688E+01  0.24293589144E+02  0.00000000000E+00 0. -1.
<scales pt_clust_5="13000.00000" pt_clust_6="13000.00000" pt_clust_7="13000.00000" pt_clust_8="13000.00000" pt_clust_9="109.09204" pt_clust_10="24.23769"></scales>
<clustering>
<clus scale="   24.238">  2 10  1 -1</clus>
<clus scale="   79.974">  5  6 -1 -1</clus>
<clus scale="   88.657">  7  8 -1 -1</clus>
<clus scale="  124.492">  1  7  2 -1</clus>
<clus scale="  109.092">  1  9  2 -1</clus>
<clus scale="   24.238">  2  5  1 -1</clus>
</clustering>
</event>
<event>
10    4  0.2977685E-005  0.2135928E+03  0.7546771E-02  0.1144422E+00
          2   -1    0    0  503    0 -0.00000000000E+00  0.00000000000E+00  0.17783356825E+04  0.17783356825E+04  0.00000000000E+00 0. -1.
         21   -1    0    0  501  502  0.00000000000E+00 -0.00000000000E+00 -0.59200294365E+03  0.59200294365E+03  0.00000000000E+00 0.  1.
         24    2    1    2    0    0 -0.12741791502E+03  0.40888101547E+02  0.25117173183E+03  0.29537151752E+03  0.79056515085E+02 0.  0.
         23    2    1    2    0    0 -0.17963779071E+03 -0.49963354968E+02 -0.47775517242E+03  0.52097063308E+03  0.91620538475E+02 0.  0.
        -13    1    3    3    0    0 -0.26725884985E+02 -0.23565294711E+02  0.64789562186E+02  0.73941080674E+02  0.00000000000E+00 0.  1.
         14    1    3    3    0    0 -0.10069203004E+03  0.64453396258E+02  0.18638216964E+03  0.22143043685E+03  0.00000000000E+00 0. -1.
        -11    1    4    4    0    0 -0.15059204147E+03 -0.22855530844E+02 -0.27505116007E+03  0.31440973092E+03  0.00000000000E+00 0.  1.
         11    1    4    4    0    0 -0.29045749239E+02 -0.27107824124E+02 -0.20270401235E+03  0.20656090216E+03  0.00000000000E+00 0. -1.
         21    1    1    2  503  502 -0.11982446887E+03  0.43710498997E+02  0.77640145427E+03  0.78680857218E+03  0.00000000000E+00 0. -1.
          1    1    1    2  501    0  0.42688017460E+03 -0.34635245576E+02  0.63651472518E+03  0.76718790337E+03  0.00000000000E+00 0. -1.
<scales pt_clust_5="13000.00000" pt_clust_6="13000.00000" pt_clust_7="13000.00000" pt_clust_8="13000.00000" pt_clust_9="127.54807" pt_clust_10="192.94452"></scales>
<clustering>
<clus scale="   79.057">  5  6 -1 -1</clus>
<clus scale="   91.621">  7  8 -1 -1</clus>
<clus scale="  127.548">  1  9  2 -1</clus>
<clus scale="  186.365">  1  5  2 -1</clus>
<clus scale="  192.945">  2 10  1 -1</clus>
<clus scale="  192.945">  2  5  1 -1</clus>
</clustering>
</event>
<event>
10    4  0.2977685E-005  0.4460828E+03  0.7546771E-02  0.1083522E+00
         21   -1    0    0  501  502  0.00000000000E+00  0.00000000000E+00  0.48690755782E+03  0.48690755782E+03  0.00000000000E+00 0. -1.
          2   -1    0    0  503    0 -0.00000000000E+00 -0.00000000000E+00 -0.10858747473E+04  0.10858747473E+04  0.00000000000E+00 0. -1.
         24    2    1    2    0    0 -0.44592503277E+02  0.17118441697E+02 -0.46909005947E+02  0.10464473929E+03  0.80427198303E+02 0.  0.
         23    2    1    2    0    0 -0.35963704214E+03 -0.82558007027E+02 -0.75294666492E+03  0.84313669574E+03  0.88295984511E+02 0.  0.
        -11    1    3    3    0    0 -0.58425490673E+02  0.10267027769E+02 -0.44740206595E+01  0.59489214825E+02  0.00000000000E+00 0.  1.
         12    1    3    3    0    0  0.13832987396E+02  0.68514139273E+01 -0.42434985287E+02  0.45155524462E+02  0.00000000000E+00 0. -1.
        -13    1    4    4    0    0 -0.32206330638E+03 -0.10010881485E+03 -0.65372031613E+03  0.73559282205E+03  0.00000000000E+00 0. -1.
         13    1    4    4    0    0 -0.37573735763E+02  0.17550807820E+02 -0.99226348786E+02  0.10754387369E+03  0.00000000000E+00 0.  1.
         21    1    1    2  503  502 -0.42608121881E+02  0.28324748047E+02 -0.80687891829E+02  0.95542028919E+02  0.00000000000E+00 0. -1.
          1    1    1    2  501    0  0.44683766730E+03  0.37114817283E+02  0.28157637320E+03  0.52945884120E+03  0.00000000000E+00 0. -1.
<scales pt_clust_5="13000.00000" pt_clust_6="13000.00000" pt_clust_7="13000.00000" pt_clust_8="13000.00000" pt_clust_9="51.16389" pt_clust_10="437.25699"></scales>
<clustering>
<clus scale="   51.164">  2  9  1 -1</clus>
<clus scale="   80.427">  5  6 -1 -1</clus>
<clus scale="   88.296">  7  8 -1 -1</clus>
<clus scale="   95.538">  2  5  1 -1</clus>
<clus scale="  437.257">  1 10  2 -1</clus>
<clus scale="  437.257">  1  5  2 -1</clus>
</clustering>
</event>
<event>
10    4  0.2977685E-005  0.1359058E+03  0.7546771E-02  0.1223687E+00
         21   -1    0    0  503  502  0.00000000000E+00  0.00000000000E+00  0.38680005583E+03  0.38680005583E+03  0.00000000000E+00 0.  1.
         -3   -1    0    0    0  501 -0.00000000000E+00 -0.00000000000E+00 -0.13604050825E+03  0.13604050825E+03  0.00000000000E+00 0.  1.
         24    2    1    2    0    0 -0.37582267472E+02 -0.10132941705E+03 -0.45533572845E+02  0.14207042488E+03  0.80191157753E+02 0.  0.
         23    2    1    2    0    0  0.28757954009E+02  0.11228773320E+03  0.26673177550E+03  0.29611605229E+03  0.55707462835E+02 0.  0.
        -11    1    3    3    0    0  0.65531946115E+01 -0.78178755578E+02 -0.48344883401E+02  0.92152536234E+02  0.00000000000E+00 0.  1.
         12    1    3    3    0    0 -0.44135462084E+02 -0.23150661473E+02  0.28113105560E+01  0.49917888647E+02  0.00000000000E+00 0. -1.
        -13    1    4    4    0    0 -0.16404017545E+02  0.20285758963E+02  0.51743180255E+02  0.57947912052E+02  0.00000000000E+00 0. -1.
         13    1    4    4    0    0  0.45161971554E+02  0.92001974241E+02  0.21498859524E+03  0.23816814023E+03  0.00000000000E+00 0.  1.
         21    1    1    2  503  501 -0.20798905304E+02  0.81558259728E+01 -0.15683131219E+02  0.27296017365E+02  0.00000000000E+00 0. -1.
         -4    1    1    2    0  502  0.29623218768E+02 -0.19114142127E+02  0.45244476157E+02  0.57358069547E+02  0.00000000000E+00 0.  1.
<scales pt_clust_5="13000.00000" pt_clust_6="13000.00000" pt_clust_7="13000.00000" pt_clust_8="13000.00000" pt_clust_9="22.34081" pt_clust_10="34.09752"></scales>
<clustering>
<clus scale="   22.341">  2  9  1 -1</clus>
<clus scale="   34.098">  1 10  2 -1</clus>
<clus scale="   55.707">  7  8 -1 -1</clus>
<clus scale="   80.191">  5  6 -1 -1</clus>
<clus scale="  123.057">  1  7  2 -1</clus>
<clus scale="   34.098">  1  5  2 -1</clus>
</clustering>
</event>
<event>
10    4  0.2977685E-005  0.3739145E+03  0.7546771E-02  0.1097403E+00
         21   -1    0    0  501  502  0.00000000000E+00  0.00000000000E+00  0.86188686020E+03  0.86188686020E+03  0.00000000000E+00 0. -1.
          2   -1    0    0  503    0 -0.00000000000E+00 -0.00000000000E+00 -0.65391648793E+03  0.65391648793E+03  0.00000000000E+00 0. -1.
         24    2    1    2    0    0 -0.83067277854E+02  0.48020049165E+02  0.10764583959E+03  0.15565330378E+03  0.58602273212E+02 0.  0.
         23    2    1    2    0    0  0.15654066639E+03 -0.23326594085E+03  0.16097207716E+03  0.33618448200E+03  0.90498712261E+02 0.  0.
        -13    1    3    3    0    0 -0.29297887091E+02  0.35680919998E+02  0.83542086443E+02  0.95450376883E+02  0.00000000000E+00 0.  1.
         14    1    3    3    0    0 -0.53769390763E+02  0.12339129167E+02  0.24103753150E+02  0.60202926902E+02  0.00000000000E+00 0. -1.
        -11    1    4    4    0    0  0.88863644054E+02 -0.77936681429E+02  0.10397511061E+03  0.15742203522E+03  0.00000000000E+00 0.  1.
         11    1    4    4    0    0  0.67677022337E+02 -0.15532925942E+03  0.56996966553E+02  0.17876244678E+03  0.00000000000E+00 0. -1.
         21    1    1    2  503  502 -0.21623486249E+03  0.28308677291E+03 -0.46404585102E+03  0.58500785345E+03  0.00000000000E+00 0. -1.
          1    1    1    2  501    0  0.14276147395E+03 -0.97840881221E+02  0.40339830653E+03  0.43895770889E+03  0.00000000000E+00 0. -1.
<scales pt_clust_5="13000.00000" pt_clust_6="13000.00000" pt_clust_7="13000.00000" pt_clust_8="13000.00000" pt_clust_9="362.79754" pt_clust_10="170.37118"></scales>
<clustering>
<clus scale="   58.602">  5  6 -1 -1</clus>
<clus scale="   90.499">  7  8 -1 -1</clus>
<clus scale="  112.429">  2  5  1 -1</clus>
<clus scale="  170.371">  1 10  2 -1</clus>
<clus scale="  362.798">  2  9  1 -1</clus>
<clus scale="  170.371">  1  5  2 -1</clus>
</clustering>
</event>
<event>
10    4  0.2977685E-005  0.9042147E+02  0.7546771E-02  0.1307955E+00
          2   -1    0    0  503    0 -0.00000000000E+00  0.00000000000E+00  0.32335791820E+03  0.32335791820E+03  0.00000000000E+00 0. -1.
         21   -1    0    0  501  502  0.00000000000E+00 -0.00000000000E+00 -0.17798405630E+03  0.17798405630E+03  0.00000000000E+00 0.  1.
         23    2    1    2    0    0 -0.16382987966E+02 -0.31063159009E+00  0.23327428079E+03  0.25061661404E+03  0.90129342429E+02 0.  0.
         24    2    1    2    0    0 -0.71529912222E+02 -0.63492942671E+01 -0.35926264009E+02  0.11371169017E+03  0.80515900015E+02 0.  0.
        -13    1    4    4    0    0 -0.74306932472E+02 -0.31871970743E+02 -0.34768037520E+02  0.88012267130E+02  0.00000000000E+00 0.  1.
         14    1    4    4    0    0  0.27770202495E+01  0.25522676476E+02 -0.11582264890E+01  0.25699423039E+02  0.00000000000E+00 0. -1.
        -13    1    3    3    0    0 -0.25622948838E+02  0.32177792483E+02  0.52402681106E+02  0.66618216903E+02  0.00000000000E+00 0.  1.
         13    1    3    3    0    0  0.92399608725E+01 -0.32488424073E+02  0.18087159969E+03  0.18399839714E+03  0.00000000000E+00 0. -1.
         21    1    1    2  503  502 -0.29782281596E+01 -0.26305575857E+02  0.15193052600E+01  0.26517191642E+02  0.00000000000E+00 0. -1.
          1    1    1    2  501    0  0.90891128348E+02  0.32965501714E+02 -0.53493460140E+02  0.11049647865E+03  0.00000000000E+00 0. -1.
<scales pt_clust_5="13000.00000" pt_clust_6="13000.00000" pt_clust_7="13000.00000" pt_clust_8="13000.00000" pt_clust_9="26.47363" pt_clust_10="91.61000"></scales>
<clustering>
<clus scale="   26.474">  2  9  1 -1</clus>
<clus scale="   80.516">  5  6 -1 -1</clus>
<clus scale="   90.129">  7  8 -1 -1</clus>
<clus scale="   91.610">  2 10  1 -1</clus>
<clus scale="   80.843">  2  5  1 -1</clus>
<clus scale="   26.474">  2  5  1 -1</clus>
</clustering>
</event>
<event>
10    4  0.2977685E-005  0.1033306E+03  0.7546771E-02  0.1279978E+00
         -1   -1    0    0    0  501 -0.00000000000E+00  0.00000000000E+00  0.38762203688E+03  0.38762203688E+03  0.00000000000E+00 0.  1.
         21   -1    0    0  503  502  0.00000000000E+00 -0.00000000000E+00 -0.13979303433E+03  0.13979303433E+03  0.00000000000E+00 0. -1.
         24    2    1    2    0    0  0.44018583184E+02  0.14237840924E+02  0.13751943160E+03  0.16494768467E+03  0.78458860762E+02 0.  0.
         23    2    1    2    0    0 -0.74116049471E+01  0.36792452024E+02 -0.94361726626E+02  0.13722374830E+03  0.92290872961E+02 0.  0.
        -13    1    3    3    0    0  0.57026933296E+02  0.22905969890E+02  0.13600197065E+03  0.14924238874E+03  0.00000000000E+00 0.  1.
         14    1    3    3    0    0 -0.13008350113E+02 -0.86681289659E+01  0.15174609480E+01  0.15705295927E+02  0.00000000000E+00 0. -1.
        -13    1    4    4    0    0 -0.42639717710E+01 -0.31103711272E+02 -0.25240256832E+02  0.40282662215E+02  0.00000000000E+00 0.  1.
         13    1    4    4    0    0 -0.31476331761E+01  0.67896163296E+02 -0.69121469794E+02  0.96941086085E+02  0.00000000000E+00 0. -1.
         21    1    1    2  503  501  0.13404580384E+02 -0.28461338996E+02  0.12222417588E+03  0.12620808121E+03  0.00000000000E+00 0.  1.
         -2    1    1    2    0  502 -0.50011558621E+02 -0.22568953952E+02  0.82447121700E+02  0.99035557023E+02  0.00000000000E+00 0.  1.
<scales pt_clust_5="13000.00000" pt_clust_6="13000.00000" pt_clust_7="13000.00000" pt_clust_8="13000.00000" pt_clust_9="31.45998" pt_clust_10="55.75530"></scales>
<clustering>
<clus scale="   31.460">  1  9  2 -1</clus>
<clus scale="   55.755">  2 10  1 -1</clus>
<clus scale="   78.459">  5  6 -1 -1</clus>
<clus scale="   91.189">  1  5  2 -1</clus>
<clus scale="   92.291">  7  8 -1 -1</clus>
<clus scale="   55.755">  2  5  1 -1</clus>
</clustering>
</event>
<event>
10    4  0.2977685E-005  0.1829792E+03  0.7546771E-02  0.1180644E+00
          2   -1    0    0  503    0 -0.00000000000E+00  0.00000000000E+00  0.23136711970E+03  0.23136711970E+03  0.00000000000E+00 0. -1.
         21   -1    0    0  501  502  0.00000000000E+00 -0.00000000000E+00 -0.53689611561E+03  0.53689611561E+03  0.00000000000E+00 0.  1.
         24    2    1    2    0    0  0.92787388370E+02 -0.28488130575E+02  0.10894105137E+03  0.16674767420E+03  0.80719025973E+02 0.  0.
         23    2    1    2    0    0  0.24776739458E+02 -0.10349999312E+03 -0.27628590064E+02  0.14292295504E+03  0.91309893740E+02 0.  0.
        -13    1    3    3    0    0  0.77595948202E+02 -0.27366049702E+02  0.31952481776E+02  0.88266601528E+02  0.00000000000E+00 0.  1.
         14    1    3    3    0    0  0.15191440168E+02 -0.11220808730E+01  0.76988569595E+02  0.78481072675E+02  0.00000000000E+00 0. -1.
        -11    1    4    4    0    0  0.58299259178E+02 -0.49466596228E+02 -0.11455129456E+02  0.77310851463E+02  0.00000000000E+00 0. -1.
         11    1    4    4    0    0 -0.33522519720E+02 -0.54033396890E+02 -0.16173460608E+02  0.65612103577E+02  0.00000000000E+00 0.  1.
         21    1    1    2  503  502 -0.15360832578E+03  0.14162618977E+03 -0.32487548450E+03  0.38626102030E+03  0.00000000000E+00 0.  1.
          1    1    1    2  501    0  0.36044197947E+02 -0.96380660758E+01 -0.61965972721E+02  0.72331585760E+02  0.00000000000E+00 0. -1.
<scales pt_clust_5="13000.00000" pt_clust_6="13000.00000" pt_clust_7="13000.00000" pt_clust_8="13000.00000" pt_clust_9="158.56821" pt_clust_10="37.31054"></scales>
<clustering>
<clus scale="   37.311">  2 10  1 -1</clus>
<clus scale="   80.719">  5  6 -1 -1</clus>
<clus scale="   91.310">  7  8 -1 -1</clus>
<clus scale="  128.013">  1  5  2 -1</clus>
<clus scale="  158.568">  2  9  1 -1</clus>
<clus scale="   37.311">  2  5  1 -1</clus>
</clustering>
</event>
<event>
10    4  0.2977685E-005  0.1641142E+03  0.7546771E-02  0.1185178E+00
         -1   -1    0    0    0  501 -0.00000000000E+00  0.00000000000E+00  0.17639853018E+03  0.17639853018E+03  0.00000000000E+00 0.  1.
         21   -1    0    0  503  502  0.00000000000E+00 -0.00000000000E+00 -0.31458621882E+03  0.31458621882E+03  0.00000000000E+00 0.  1.
         23    2    1    2    0    0 -0.83264657756E+02 -0.13688036643E+03  0.34559344922E+02  0.18553256721E+03  0.86941056067E+02 0.  0.
         24    2    1    2    0    0  0.32558453429E+02  0.10247733821E+03 -0.13044037496E+03  0.18682569847E+03  0.79545536977E+02 0.  0.
        -11    1    4    4    0    0  0.14738248698E+02  0.23950210390E+02 -0.94590296517E+02  0.98682079162E+02  0.00000000000E+00 0.  1.
         12    1    4    4    0    0  0.17820204731E+02  0.78527127824E+02 -0.35850078444E+02  0.88143619312E+02  0.00000000000E+00 0. -1.
        -13    1    3    3    0    0 -0.23830435988E+02 -0.11197654669E+03  0.38984906396E+02  0.12093990084E+03  0.00000000000E+00 0.  1.
         13    1    3    3    0    0 -0.59434221768E+02 -0.24903819736E+02 -0.44255614746E+01  0.64592666372E+02  0.00000000000E+00 0. -1.
         21    1    1    2  503  501  0.44697988919E+02 -0.14365499551E+02  0.87583622447E+01  0.47759676506E+02  0.00000000000E+00 0.  1.
         -2    1    1    2    0  502  0.60082154084E+01  0.48768527765E+02 -0.51065020849E+02  0.70866806807E+02  0.00000000000E+00 0.  1.
<scales pt_clust_5="13000.00000" pt_clust_6="13000.00000" pt_clust_7="13000.00000" pt_clust_8="13000.00000" pt_clust_9="46.94974" pt_clust_10="48.64735"></scales>
<clustering>
<clus scale="   46.950">  1  9  2 -1</clus>
<clus scale="   48.647">  2 10  1 -1</clus>
<clus scale="   79.546">  5  6 -1 -1</clus>
<clus scale="   86.941">  7  8 -1 -1</clus>
<clus scale="  160.319">  2  5  1 -1</clus>
<clus scale="   48.647">  2  5  1 -1</clus>
</clustering>
</event>
<event>
10    4  0.2977685E-005  0.9004943E+02  0.7546771E-02  0.1307324E+00
         21   -1    0    0  501  502  0.00000000000E+00  0.00000000000E+00  0.14044136322E+03  0.14044136322E+03  0.00000000000E+00 0. -1.
          2   -1    0    0  503    0 -0.00000000000E+00 -0.00000000000E+00 -0.29097184623E+03  0.29097184623E+03  0.00000000000E+00 0. -1.
         23    2    1    2    0    0  0.17857426607E+02 -0.14162539760E+01 -0.17143779453E+03  0.19446189318E+03  0.90020092453E+02 0.  0.
         24    2    1    2    0    0  0.17789431154E+01 -0.48153385208E+02  0.18321291698E+02  0.97506192309E+02  0.82763969598E+02 0.  0.
        -11    1    4    4    0    0 -0.26662777963E+02 -0.68953785952E+01 -0.20321325441E+02  0.34225812516E+02  0.00000000000E+00 0.  1.
         12    1    4    4    0    0  0.28441721078E+02 -0.41258006613E+02  0.38642617139E+02  0.63280379794E+02  0.00000000000E+00 0. -1.
        -11    1    3    3    0    0  0.51392977501E+02 -0.17893612683E+02 -0.10215323815E+03  0.11574412977E+03  0.00000000000E+00 0.  1.
         11    1    3    3    0    0 -0.33535550894E+02  0.16477358707E+02 -0.69284556382E+02  0.78717763413E+02  0.00000000000E+00 0. -1.
         21    1    1    2  503  502 -0.28020433321E+02 -0.14998691581E+02 -0.47602011732E+02  0.57236849613E+02  0.00000000000E+00 0. -1.
          1    1    1    2  501    0  0.83840635982E+01  0.64568330764E+02  0.50188031551E+02  0.82208274347E+02  0.00000000000E+00 0. -1.
<scales pt_clust_5="13000.00000" pt_clust_6="13000.00000" pt_clust_7="13000.00000" pt_clust_8="13000.00000" pt_clust_9="31.78216" pt_clust_10="63.89356"></scales>
<clustering>
<clus scale="   31.782">  2  9  1 -1</clus>
<clus scale="   63.894">  1 10  2 -1</clus>
<clus scale="   82.764">  5  6 -1 -1</clus>
<clus scale="   82.796">  1  5  2 -1</clus>
<clus scale="   90.020">  7  8 -1 -1</clus>
<clus scale="   63.894">  1  5  2 -1</clus>
</clustering>
</event>
<event>
10    4  0.2977685E-005  0.2220217E+03  0.7546771E-02  0.1162662E+00
          2   -1    0    0  503    0 -0.00000000000E+00  0.00000000000E+00  0.69794014385E+03  0.69794014385E+03  0.00000000000E+00 0. -1.
         21   -1    0    0  501  502  0.00000000000E+00 -0.00000000000E+00 -0.17465236804E+04  0.17465236804E+04  0.00000000000E+00 0. -1.
         23    2    1    2    0    0 -0.27395676952E+02 -0.29496710399E+02  0.39680944831E+03  0.40899623498E+03  0.90551658854E+02 0.  0.
         24    2    1    2    0    0 -0.18873316852E+03 -0.46723717195E+02 -0.56234441136E+03  0.60186676962E+03  0.90603845056E+02 0.  0.
        -11    1    4    4    0    0 -0.11604973785E+03 -0.44814633077E+02 -0.45864739220E+03  0.47521923716E+03  0.00000000000E+00 0.  1.
         12    1    4    4    0    0 -0.72683430674E+02 -0.19090841182E+01 -0.10369701916E+03  0.12664753246E+03  0.00000000000E+00 0. -1.
        -11    1    3    3    0    0 -0.57232428085E+02 -0.34476798355E+02  0.30841018545E+03  0.31556464146E+03  0.00000000000E+00 0. -1.
         11    1    3    3    0    0  0.29836751132E+02  0.49800879560E+01  0.88399262852E+02  0.93431593516E+02  0.00000000000E+00 0.  1.
         21    1    1    2  503  502  0.36248035310E+02 -0.31109464440E+02  0.26364248060E+03  0.26793483614E+03  0.00000000000E+00 0. -1.
          1    1    1    2  501    0  0.17988081016E+03  0.10732989203E+03 -0.11466910541E+04  0.11656659835E+04  0.00000000000E+00 0. -1.
<scales pt_clust_5="13000.00000" pt_clust_6="13000.00000" pt_clust_7="13000.00000" pt_clust_8="13000.00000" pt_clust_9="47.76734" pt_clust_10="202.69332"></scales>
<clustering>
<clus scale="   47.767">  1  9  2 -1</clus>
<clus scale="   90.552">  7  8 -1 -1</clus>
<clus scale="   90.604">  5  6 -1 -1</clus>
<clus scale="  107.995">  1  7  2 -1</clus>
<clus scale="  202.693">  2 10  1 -1</clus>
<clus scale="  202.693">  2  5  1 -1</clus>
</clustering>
</event>
<event>
10    4  0.2977685E-005  0.1719105E+03  0.7546771E-02  0.1176146E+00
          2   -1    0    0  503    0 -0.00000000000E+00  0.00000000000E+00  0.14879314110E+04  0.14879314110E+04  0.00000000000E+00 0. -1.
         21   -1    0    0  501  502  0.00000000000E+00 -0.00000000000E+00 -0.85677627006E+02  0.85677627006E+02  0.00000000000E+00 0. -1.
         24    2    1    2    0    0 -0.69059624171E+02 -0.53221456636E+02  0.79060703993E+03  0.80070016025E+03  0.91975539665E+02 0.  0.
         23    2    1    2    0    0  0.61310432206E+02  0.13216232395E+03  0.18233579155E+03  0.25012911106E+03  0.89957669770E+02 0.  0.
        -11    1    3    3    0    0  0.11056820800E+02 -0.27890208963E+02  0.85639220237E+02  0.90742454700E+02  0.00000000000E+00 0.  1.
         12    1    3    3    0    0 -0.80116444971E+02 -0.25331247672E+02  0.70496781970E+03  0.70995770555E+03  0.00000000000E+00 0. -1.
        -13    1    4    4    0    0  0.81771541861E+02  0.86700584142E+02  0.14584972435E+03  0.18834998923E+03  0.00000000000E+00 0. -1.
         13    1    4    4    0    0 -0.20461109655E+02  0.45461739808E+02  0.36486067199E+02  0.61779121832E+02  0.00000000000E+00 0.  1.
         21    1    1    2  503  502  0.20032645527E+02 -0.12626700334E+03  0.45137977367E+03  0.46913576190E+03  0.00000000000E+00 0. -1.
          1    1    1    2  501    0 -0.12283453561E+02  0.47326136022E+02 -0.22068821162E+02  0.53644004787E+02  0.00000000000E+00 0. -1.
<scales pt_clust_5="13000.00000" pt_clust_6="13000.00000" pt_clust_7="13000.00000" pt_clust_8="13000.00000" pt_clust_9="118.81460" pt_clust_10="48.89424"></scales>
<clustering>
<clus scale="   48.894">  2 10  1 -1</clus>
<clus scale="   89.958">  7  8 -1 -1</clus>
<clus scale="   91.976">  5  6 -1 -1</clus>
<clus scale="  118.815">  1  9  2 -1</clus>
<clus scale="  170.839">  2  7  1 -1</clus>
<clus scale="   48.894">  2  5  1 -1</clus>
</clustering>
</event>
<event>
10    4  0.2977685E-005  0.1718960E+03  0.7546771E-02  0.1195514E+00
          2   -1    0    0  503    0 -0.00000000000E+00  0.00000000000E+00  0.28375086540E+03  0.28375086540E+03  0.00000000000E+00 0. -1.
         21   -1    0    0  501  502  0.00000000000E+00 -0.00000000000E+00 -0.59885625042E+03  0.59885625042E+03  0.00000000000E+00 0. -1.
         24    2    1    2    0    0  0.12788641359E+02 -0.91181465255E+02  0.13522220250E+03  0.18168160546E+03  0.79028809688E+02 0.  0.
         23    2    1    2    0    0 -0.13567524161E+03  0.14405808721E+03 -0.39810406122E+02  0.21887547849E+03  0.84623300422E+02 0.  0.
        -13    1    3    3    0    0  0.20873548679E+02 -0.38904483713E+02  0.93276009398E+01  0.45125026612E+02  0.00000000000E+00 0.  1.
         14    1    3    3    0    0 -0.80849073202E+01 -0.52276981542E+02  0.12589460156E+03  0.13655657885E+03  0.00000000000E+00 0. -1.
        -11    1    4    4    0    0 -0.13891951943E+03  0.10785236625E+03 -0.18759073072E+02  0.17686907194E+03  0.00000000000E+00 0. -1.
         11    1    4    4    0    0  0.32442778237E+01  0.36205720956E+02 -0.21051333050E+02  0.42006406555E+02  0.00000000000E+00 0.  1.
         21    1    1    2  503  502  0.77637954258E+00  0.23450960065E+02  0.18263634932E+02  0.29733998286E+02  0.00000000000E+00 0.  1.
          1    1    1    2  501    0  0.12211022071E+03 -0.76327582019E+02 -0.42878081633E+03  0.45231603357E+03  0.00000000000E+00 0. -1.
<scales pt_clust_5="13000.00000" pt_clust_6="13000.00000" pt_clust_7="13000.00000" pt_clust_8="13000.00000" pt_clust_9="23.46381" pt_clust_10="149.62326"></scales>
<clustering>
<clus scale="   23.464">  1  9  2 -1</clus>
<clus scale="   79.029">  5  6 -1 -1</clus>
<clus scale="   84.623">  7  8 -1 -1</clus>
<clus scale="  111.047">  1  5  2 -1</clus>
<clus scale="  149.623">  2 10  1 -1</clus>
<clus scale="  149.623">  2  5  1 -1</clus>
</clustering>
</event>
<event>
10    4  0.2977685E-005  0.4774588E+03  0.7546771E-02  0.1051538E+00
          2   -1    0    0  503    0 -0.00000000000E+00  0.00000000000E+00  0.71895778699E+03  0.71895778699E+03  0.00000000000E+00 0. -1.
         21   -1    0    0  501  502  0.00000000000E+00 -0.00000000000E+00 -0.12080348901E+04  0.12080348901E+04  0.00000000000E+00 0. -1.
         24    2    1    2    0    0 -0.17229083881E+03  0.67950565258E+02  0.18143521238E+03  0.27221059598E+03  0.82936480600E+02 0.  0.
         23    2    1    2    0    0 -0.39207561718E+03 -0.31716741782E+02 -0.22820262421E+03  0.46366148061E+03  0.90422837895E+02 0.  0.
        -13    1    3    3    0    0 -0.13113903443E+03  0.72142303527E+02  0.97478521544E+02  0.17861696580E+03  0.00000000000E+00 0.  1.
         14    1    3    3    0    0 -0.41151804383E+02 -0.41917382693E+01  0.83956690840E+02  0.93593630181E+02  0.00000000000E+00 0. -1.
        -11    1    4    4    0    0 -0.20055609804E+03 -0.47463952695E+02 -0.15559910407E+03  0.25823759691E+03  0.00000000000E+00 0. -1.
         11    1    4    4    0    0 -0.19151951913E+03  0.15747210913E+02 -0.72603520142E+02  0.20542388371E+03  0.00000000000E+00 0.  1.
         21    1    1    2  503  502  0.40710014162E+02  0.16044476870E+02  0.28780442891E+03  0.29111186817E+03  0.00000000000E+00 0.  1.
          1    1    1    2  501    0  0.52365644183E+03 -0.52278300346E+02 -0.73011412016E+03  0.90000873229E+03  0.00000000000E+00 0. -1.
<scales pt_clust_5="13000.00000" pt_clust_6="13000.00000" pt_clust_7="13000.00000" pt_clust_8="13000.00000" pt_clust_9="43.75763" pt_clust_10="468.81836"></scales>
<clustering>
<clus scale="   43.758">  1  9  2 -1</clus>
<clus scale="   82.936">  5  6 -1 -1</clus>
<clus scale="   90.423">  7  8 -1 -1</clus>
<clus scale="  188.301">  1  5  2 -1</clus>
<clus scale="  468.818">  2 10  1 -1</clus>
<clus scale="  468.818">  2  5  1 -1</clus>
</clustering>
</event>
<event>
10    4  0.2977685E-005  0.9882947E+02  0.7546771E-02  0.1289578E+00
         21   -1    0    0  501  502  0.00000000000E+00  0.00000000000E+00  0.12628023255E+03  0.12628023255E+03  0.00000000000E+00 0. -1.
          2   -1    0    0  503    0 -0.00000000000E+00 -0.00000000000E+00 -0.32631427665E+03  0.32631427665E+03  0.00000000000E+00 0. -1.
         23    2    1    2    0    0 -0.60679358460E+01  0.52271303826E+01 -0.15679883858E+03  0.18499150207E+03  0.97835767072E+02 0.  0.
         24    2    1    2    0    0 -0.64072446175E+02  0.26341294561E+02 -0.47132611880E+02  0.11993367239E+03  0.85810608393E+02 0.  0.
        -11    1    4    4    0    0 -0.37413850575E+02 -0.47534210655E+00 -0.67357104669E+02  0.77051941665E+02  0.00000000000E+00 0.  1.
         12    1    4    4    0    0 -0.26658595600E+02  0.26816636668E+02  0.20224492789E+02  0.42881730727E+02  0.00000000000E+00 0. -1.
        -11    1    3    3    0    0 -0.41477889125E+02 -0.27161602487E+02 -0.69498628188E+02  0.85371114880E+02  0.00000000000E+00 0.  1.
         11    1    3    3    0    0  0.35409953279E+02  0.32388732870E+02 -0.87300210393E+02  0.99620387185E+02  0.00000000000E+00 0. -1.
         21    1    1    2  503  502 -0.29812786095E+02 -0.27484654676E+02 -0.19407605556E+02  0.44954016626E+02  0.00000000000E+00 0. -1.
          1    1    1    2  501    0  0.99953168116E+02 -0.40837702676E+01  0.23305011909E+02  0.10271531812E+03  0.00000000000E+00 0. -1.
<scales pt_clust_5="13000.00000" pt_clust_6="13000.00000" pt_clust_7="13000.00000" pt_clust_8="13000.00000" pt_clust_9="40.54884" pt_clust_10="85.61667"></scales>
<clustering>
<clus scale="   40.549">  1  9  2 -1</clus>
<clus scale="   85.617">  1 10  2 -1</clus>
<clus scale="   85.811">  5  6 -1 -1</clus>
<clus scale="   86.942">  1  5  2 -1</clus>
<clus scale="   97.836">  7  8 -1 -1</clus>
<clus scale="   40.549">  1  5  2 -1</clus>
</clustering>
</event>
<event>
10    4  0.2977685E-005  0.3235250E+03  0.7546771E-02  0.1108394E+00
         21   -1    0    0  503  502  0.00000000000E+00  0.00000000000E+00  0.98546260811E+03  0.98546260811E+03  0.00000000000E+00 0.  1.
         -1   -1    0    0    0  501 -0.00000000000E+00 -0.00000000000E+00 -0.20300312375E+03  0.20300312375E+03  0.00000000000E+00 0.  1.
         23    2    1    2    0    0  0.65902053311E+02  0.23371144854E+03  0.28867499320E+03  0.39496495409E+03  0.11704674899E+03 0.  0.
         24    2    1    2    0    0  0.84083221902E+02  0.51902396797E+02  0.39510823152E+03  0.41520092785E+03  0.80730718251E+02 0.  0.
        -11    1    4    4    0    0  0.45486380268E+02  0.52693529796E+02  0.34496537011E+03  0.35191863470E+03  0.00000000000E+00 0.  1.
         12    1    4    4    0    0  0.38596841634E+02 -0.79113299919E+00  0.50142861410E+02  0.63282293147E+02  0.00000000000E+00 0. -1.
        -13    1    3    3    0    0  0.77640885301E+02  0.11075923334E+03  0.95116681385E+02  0.16535688047E+03  0.00000000000E+00 0.  1.
         13    1    3    3    0    0 -0.11738831990E+02  0.12295221520E+03  0.19355831182E+03  0.22960807362E+03  0.00000000000E+00 0. -1.
         21    1    1    2  503  501 -0.14562337717E+03 -0.30890110719E+03  0.92803322275E+02  0.35389054611E+03  0.00000000000E+00 0.  1.
         -2    1    1    2    0  502 -0.43618980441E+01  0.23287261858E+02  0.58729373652E+01  0.24409303814E+02  0.00000000000E+00 0.  1.
<scales pt_clust_5="13000.00000" pt_clust_6="13000.00000" pt_clust_7="13000.00000" pt_clust_8="13000.00000" pt_clust_9="301.60979" pt_clust_10="23.69226"></scales>
<clustering>
<clus scale="   23.692">  1 10  2 -1</clus>
<clus scale="   80.731">  5  6 -1 -1</clus>
<clus scale="  117.047">  7  8 -1 -1</clus>
<clus scale="  130.699">  1  5  2 -1</clus>
<clus scale="  301.610">  2  9  1 -1</clus>
<clus scale="   23.692">  1  5  2 -1</clus>
</clustering>
</event>
<event>
10    4  0.2977685E-005  0.9388163E+02  0.7546771E-02  0.1299773E+00
         21   -1    0    0  503  502  0.00000000000E+00  0.00000000000E+00  0.22006963516E+03  0.22006963516E+03  0.00000000000E+00 0. -1.
         -1   -1    0    0    0  501 -0.00000000000E+00 -0.00000000000E+00 -0.21064224924E+03  0.21064224924E+03  0.00000000000E+00 0.  1.
         24    2    1    2    0    0  0.33457962005E+02 -0.39737034333E+01  0.76545743965E+02  0.11669509365E+03  0.81383465286E+02 0.  0.
         23    2    1    2    0    0 -0.49821883189E+01 -0.28047770583E+01  0.10211714919E+03  0.13731870731E+03  0.91628741356E+02 0.  0.
        -13    1    3    3    0    0 -0.21864240746E+02  0.17360744318E+02  0.17128828756E+02  0.32754194254E+02  0.00000000000E+00 0.  1.
         14    1    3    3    0    0  0.55322202751E+02 -0.21334447752E+02  0.59416915209E+02  0.83940899394E+02  0.00000000000E+00 0. -1.
        -11    1    4    4    0    0 -0.30834164015E+02 -0.30773238312E+02  0.22431576237E+02  0.48999117127E+02  0.00000000000E+00 0. -1.
         11    1    4    4    0    0  0.25851975696E+02  0.27968461254E+02  0.79685572957E+02  0.88319590181E+02  0.00000000000E+00 0.  1.
         21    1    1    2  503  501 -0.16073856571E+02 -0.15859442342E+02 -0.10635559179E+03  0.10872627410E+03  0.00000000000E+00 0. -1.
         -2    1    1    2    0  502 -0.12401917115E+02  0.22637922833E+02 -0.62879915450E+02  0.67971809343E+02  0.00000000000E+00 0.  1.
<scales pt_clust_5="13000.00000" pt_clust_6="13000.00000" pt_clust_7="13000.00000" pt_clust_8="13000.00000" pt_clust_9="22.58076" pt_clust_10="25.86416"></scales>
<clustering>
<clus scale="   22.581">  2  9  1 -1</clus>
<clus scale="   25.864">  1 10  2 -1</clus>
<clus scale="   81.383">  5  6 -1 -1</clus>
<clus scale="   83.912">  2  5  1 -1</clus>
<clus scale="   91.629">  7  8 -1 -1</clus>
<clus scale="   25.864">  1  5  2 -1</clus>
</clustering>
</event>
<event>
10    4  0.2977685E-005  0.1579110E+03  0.7546771E-02  0.1207590E+00
         21   -1    0    0  503  502  0.00000000000E+00  0.00000000000E+00  0.28278297798E+03  0.28278297798E+03  0.00000000000E+00 0. -1.
          2   -1    0    0  502    0 -0.00000000000E+00 -0.00000000000E+00 -0.16039321308E+03  0.16039321308E+03  0.00000000000E+00 0. -1.
         24    2    1    2    0    0 -0.74019576902E+02  0.12881905277E+02  0.14536151059E+02  0.11122461735E+03  0.80714153457E+02 0.  0.
         23    2    1    2    0    0  0.10333171368E+03 -0.11243284695E+03  0.12025987178E+03  0.21461073161E+03  0.90976597168E+02 0.  0.
        -11    1    3    3    0    0 -0.16992637284E+02 -0.30997976415E+02 -0.71641057704E+01  0.36068666113E+02  0.00000000000E+00 0.  1.
         12    1    3    3    0    0 -0.57026939618E+02  0.43879881692E+02  0.21700256830E+02  0.75155951234E+02  0.00000000000E+00 0. -1.
        -11    1    4    4    0    0  0.46264018132E+02 -0.97435761516E+02  0.11119303689E+03  0.15491280918E+03  0.00000000000E+00 0. -1.
         11    1    4    4    0    0  0.57067695550E+02 -0.14997085438E+02  0.90668348990E+01  0.59697922427E+02  0.00000000000E+00 0.  1.
         21    1    1    2  503  501 -0.30288850578E+02  0.18431673972E+02 -0.60323724353E+01  0.35965686312E+02  0.00000000000E+00 0.  1.
          1    1    1    2  501    0  0.97671379697E+00  0.81119267705E+02 -0.63738855110E+01  0.81375155787E+02  0.00000000000E+00 0. -1.
<scales pt_clust_5="13000.00000" pt_clust_6="13000.00000" pt_clust_7="13000.00000" pt_clust_8="13000.00000" pt_clust_9="35.26447" pt_clust_10="139.65862"></scales>
<clustering>
<clus scale="   35.264">  9 10 -1 -1</clus>
<clus scale="   80.714">  5  6 -1 -1</clus>
<clus scale="   90.977">  7  8 -1 -1</clus>
<clus scale="  110.271">  2  5  1 -1</clus>
<clus scale="  139.659">  1  9  2 -1</clus>
<clus scale="  139.659">  1  5  2 -1</clus>
</clustering>
</event>
<event>
10    4  0.2977685E-005  0.1003199E+03  0.7546771E-02  0.1287264E+00
          2   -1    0    0  503    0 -0.00000000000E+00  0.00000000000E+00  0.47823007512E+03  0.47823007512E+03  0.00000000000E+00 0. -1.
         21   -1    0    0  501  502  0.00000000000E+00 -0.00000000000E+00 -0.92183994063E+02  0.92183994063E+02  0.00000000000E+00 0. -1.
         23    2    1    2    0    0  0.55472498787E+01 -0.24263063073E+02  0.37726161778E+03  0.39001392540E+03  0.95734348822E+02 0.  0.
         24    2    1    2    0    0  0.13804454857E+02 -0.15488470238E+02 -0.27850764763E+02  0.88566021350E+02  0.81472813599E+02 0.  0.
        -11    1    4    4    0    0  0.27388009473E+02  0.32366185225E+01  0.20901202999E+02  0.34604032267E+02  0.00000000000E+00 0.  1.
         12    1    4    4    0    0 -0.13583554616E+02 -0.18725088761E+02 -0.48751967762E+02  0.53961989083E+02  0.00000000000E+00 0. -1.
        -11    1    3    3    0    0  0.41173181865E+01 -0.60212861699E+02  0.27682371009E+03  0.28332650333E+03  0.00000000000E+00 0. -1.
         11    1    3    3    0    0  0.14299316922E+01  0.35949798627E+02  0.10043790770E+03  0.10668742207E+03  0.00000000000E+00 0.  1.
         21    1    1    2  503  502 -0.16559953859E+02 -0.13637108122E+02  0.31521082636E+02  0.38128485943E+02  0.00000000000E+00 0. -1.
          1    1    1    2  501    0 -0.27917508763E+01  0.53388641433E+02  0.51141453966E+01  0.53705636484E+02  0.00000000000E+00 0. -1.
<scales pt_clust_5="13000.00000" pt_clust_6="13000.00000" pt_clust_7="13000.00000" pt_clust_8="13000.00000" pt_clust_9="21.45234" pt_clust_10="52.62810"></scales>
<clustering>
<clus scale="   21.452">  1  9  2 -1</clus>
<clus scale="   52.628">  2 10  1 -1</clus>
<clus scale="   81.473">  5  6 -1 -1</clus>
<clus scale="   86.815">  2  5  1 -1</clus>
<clus scale="   95.734">  7  8 -1 -1</clus>
<clus scale="   52.628">  2  5  1 -1</clus>
</clustering>
</event>
<event>
10    4  0.3810967E-005  0.9593508E+02  0.7546771E-02  0.1295666E+00
         21   -1    0    0  501  502  0.00000000000E+00  0.00000000000E+00  0.13490161369E+03  0.13490161369E+03  0.00000000000E+00 0. -1.
          2   -1    0    0  503    0 -0.00000000000E+00 -0.00000000000E+00 -0.13875568046E+04  0.13875568046E+04  0.00000000000E+00 0. -1.
         24    2    1    2    0    0 -0.29588716807E+02  0.24007474019E+01 -0.12801178419E+04  0.12829564505E+04  0.79964422978E+02 0.  0.
         23    2    1    2    0    0 -0.24979675138E+02 -0.16946302307E+02  0.14114389525E+02  0.97514343397E+02  0.91644257020E+02 0.  0.
        -11    1    3    3    0    0 -0.35620301368E+01 -0.22757600013E+02 -0.11541358112E+03  0.11768980892E+03  0.00000000000E+00 0.  1.
         12    1    3    3    0    0 -0.26026686670E+02  0.25158347415E+02 -0.11647042608E+04  0.11652666415E+04  0.00000000000E+00 0. -1.
        -11    1    4    4    0    0  0.27636311592E+02 -0.29617890742E+02  0.15507989171E+02  0.43376063659E+02  0.00000000000E+00 0.  1.
         11    1    4    4    0    0 -0.52615986730E+02  0.12671588435E+02 -0.13935996457E+01  0.54138279738E+02  0.00000000000E+00 0. -1.
         21    1    1    2  503  502  0.34745177726E+02  0.85209203820E+01 -0.57749495728E+02  0.67932596861E+02  0.00000000000E+00 0. -1.
          1    1    1    2  501    0  0.19823214218E+02  0.60246345230E+01  0.71097757133E+02  0.74055027597E+02  0.00000000000E+00 0. -1.
<scales pt_clust_5="13000.00000" pt_clust_6="13000.00000" pt_clust_7="13000.00000" pt_clust_8="13000.00000" pt_clust_9="37.46492" pt_clust_10="20.71850"></scales>
<clustering>
<clus scale="   20.718">  1 10  2 -1</clus>
<clus scale="   37.465">  1  9  2 -1</clus>
<clus scale="   79.964">  5  6 -1 -1</clus>
<clus scale="   84.848">  2  5  1 -1</clus>
<clus scale="   91.644">  7  8 -1 -1</clus>
<clus scale="   20.718">  1  5  2 -1</clus>
</clustering>
</event>
<event>
10    4  0.2977685E-005  0.1709969E+03  0.7546771E-02  0.1178127E+00
         -3   -1    0    0    0  501 -0.00000000000E+00  0.00000000000E+00  0.36742483473E+02  0.36742483473E+02  0.00000000000E+00 0.  1.
         21   -1    0    0  503  502  0.00000000000E+00 -0.00000000000E+00 -0.17305447483E+04  0.17305447483E+04  0.00000000000E+00 0.  1.
         24    2    1    2    0    0 -0.25101190323E+02 -0.12946936438E+03 -0.76803009976E+03  0.78341042350E+03  0.80431781280E+02 0.  0.
         23    2    1    2    0    0 -0.20760029923E+02  0.15525686314E+03 -0.60859574253E+03  0.63488491183E+03  0.90301722329E+02 0.  0.
        -13    1    3    3    0    0 -0.51988270695E+02 -0.61076181329E+02 -0.36142258415E+03  0.37021529486E+03  0.00000000000E+00 0.  1.
         14    1    3    3    0    0  0.26887080372E+02 -0.68393183049E+02 -0.40660751562E+03  0.41319512864E+03  0.00000000000E+00 0. -1.
        -11    1    4    4    0    0 -0.54248425620E+02  0.95213646286E+02 -0.32114248003E+03  0.33932436193E+03  0.00000000000E+00 0.  1.
         11    1    4    4    0    0  0.33488395697E+02  0.60043216852E+02 -0.28745326250E+03  0.29556054990E+03  0.00000000000E+00 0. -1.
         21    1    1    2  503  501  0.26849118540E+02  0.41096084368E+02 -0.40284396696E+02  0.63502723831E+02  0.00000000000E+00 0.  1.
         -4    1    1    2    0  502  0.19012101706E+02 -0.66883583128E+02 -0.27689202585E+03  0.28548917262E+03  0.00000000000E+00 0.  1.
<scales pt_clust_5="13000.00000" pt_clust_6="13000.00000" pt_clust_7="13000.00000" pt_clust_8="13000.00000" pt_clust_9="49.08934" pt_clust_10="64.34102"></scales>
<clustering>
<clus scale="   49.089">  1  9  2 -1</clus>
<clus scale="   64.341">  2 10  1 -1</clus>
<clus scale="   80.432">  5  6 -1 -1</clus>
<clus scale="   90.302">  7  8 -1 -1</clus>
<clus scale="  165.996">  1  5  2 -1</clus>
<clus scale="   64.341">  2  5  1 -1</clus>
</clustering>
</event>
<event>
10    4  0.2977685E-005  0.1087868E+03  0.7546771E-02  0.1271394E+00
          2   -1    0    0  503    0 -0.00000000000E+00  0.00000000000E+00  0.87621753718E+03  0.87621753718E+03  0.00000000000E+00 0. -1.
         21   -1    0    0  501  502  0.00000000000E+00 -0.00000000000E+00 -0.29962359912E+02  0.29962359912E+02  0.00000000000E+00 0. -1.
         23    2    1    2    0    0  0.35079664651E+02  0.22268023664E+01  0.32511160228E+03  0.33999933606E+03  0.93093786387E+02 0.  0.
         24    2    1    2    0    0 -0.49782037875E+02  0.49896946127E+02  0.17087906279E+03  0.19870854337E+03  0.72921016032E+02 0.  0.
        -13    1    4    4    0    0  0.11681894391E+02  0.18815124706E+02  0.88993987215E+02  0.91708262085E+02  0.00000000000E+00 0.  1.
         14    1    4    4    0    0 -0.61463932267E+02  0.31081821421E+02  0.81885075579E+02  0.10700028129E+03  0.00000000000E+00 0. -1.
        -11    1    3    3    0    0  0.42493710407E+01  0.40704254443E+02  0.22156706836E+03  0.22531502228E+03  0.00000000000E+00 0.  1.
         11    1    3    3    0    0  0.30830293610E+02 -0.38477452076E+02  0.10354453392E+03  0.11468431378E+03  0.00000000000E+00 0. -1.
         21    1    1    2  503  502  0.55195958419E+02 -0.34885392296E+02  0.24068437552E+03  0.24938434802E+03  0.00000000000E+00 0. -1.
          1    1    1    2  501    0 -0.40493585194E+02 -0.17238356198E+02  0.10958013667E+03  0.11808766964E+03  0.00000000000E+00 0. -1.
<scales pt_clust_5="13000.00000" pt_clust_6="13000.00000" pt_clust_7="13000.00000" pt_clust_8="13000.00000" pt_clust_9="61.36918" pt_clust_10="44.01013"></scales>
<clustering>
<clus scale="   44.010">  2 10  1 -1</clus>
<clus scale="   61.369">  1  9  2 -1</clus>
<clus scale="   72.921">  5  6 -1 -1</clus>
<clus scale="   92.117">  2  5  1 -1</clus>
<clus scale="   93.094">  7  8 -1 -1</clus>
<clus scale="   44.010">  2  5  1 -1</clus>
</clustering>
</event>
<event>
10    4  0.2977685E-005  0.3342009E+03  0.7546771E-02  0.1086987E+00
          2   -1    0    0  503    0 -0.00000000000E+00  0.00000000000E+00  0.13464989851E+04  0.13464989851E+04  0.00000000000E+00 0. -1.
         21   -1    0    0  501  502  0.00000000000E+00 -0.00000000000E+00 -0.24787909361E+03  0.24787909361E+03  0.00000000000E+00 0.  1.
         23    2    1    2    0    0 -0.31392740881E+03  0.16425663113E+02  0.11180965477E+03  0.34579885034E+03  0.90858271961E+02 0.  0.
         24    2    1    2    0    0 -0.90616198578E+02 -0.18785551501E+03  0.11677098957E+03  0.25181792147E+03  0.79220020226E+02 0.  0.
        -11    1    4    4    0    0 -0.33342666059E+02 -0.11785357095E+03  0.29173566241E+02  0.12590589554E+03  0.00000000000E+00 0.  1.
         12    1    4    4    0    0 -0.57273532519E+02 -0.70001944064E+02  0.87597423331E+02  0.12591202593E+03  0.00000000000E+00 0. -1.
        -13    1    3    3    0    0 -0.25073573683E+03  0.32334306918E+02  0.12049553335E+03  0.28005908428E+03  0.00000000000E+00 0. -1.
         13    1    3    3    0    0 -0.63191671979E+02 -0.15908643804E+02 -0.86858785785E+01  0.65739766062E+02  0.00000000000E+00 0.  1.
         21    1    1    2  503  502  0.30505299149E+03  0.14610717537E+03  0.44192113506E+03  0.55650599631E+03  0.00000000000E+00 0. -1.
          1    1    1    2  501    0  0.99490615900E+02  0.25322676523E+02  0.42811811205E+03  0.44025531055E+03  0.00000000000E+00 0. -1.
<scales pt_clust_5="13000.00000" pt_clust_6="13000.00000" pt_clust_7="13000.00000" pt_clust_8="13000.00000" pt_clust_9="321.61311" pt_clust_10="102.66271"></scales>
<clustering>
<clus scale="   79.220">  5  6 -1 -1</clus>
<clus scale="   90.858">  7  8 -1 -1</clus>
<clus scale="  102.663">  2 10  1 -1</clus>
<clus scale="  207.140">  2  5  1 -1</clus>
<clus scale="  321.613">  1  9  2 -1</clus>
<clus scale="  102.663">  2  5  1 -1</clus>
</clustering>
</event>
<event>
10    4  0.2977685E-005  0.1510040E+03  0.7546771E-02  0.1223623E+00
          2   -1    0    0  503    0 -0.00000000000E+00  0.00000000000E+00  0.46647116574E+03  0.46647116574E+03  0.00000000000E+00 0. -1.
         21   -1    0    0  501  502  0.00000000000E+00 -0.00000000000E+00 -0.13108892767E+03  0.13108892767E+03  0.00000000000E+00 0. -1.
         24    2    1    2    0    0 -0.71096459608E+02  0.91060424550E+02  0.23842374887E+02  0.14331738218E+03  0.81392295123E+02 0.  0.
         23    2    1    2    0    0  0.21863804230E+02 -0.12090364606E+02 -0.51796871281E+01  0.92957628333E+02  0.89387295825E+02 0.  0.
        -11    1    3    3    0    0 -0.61229004690E+02  0.18498328242E+02 -0.59939046997E+01  0.64242556430E+02  0.00000000000E+00 0.  1.
         12    1    3    3    0    0 -0.98674549178E+01  0.72562096308E+02  0.29836279587E+02  0.79074825746E+02  0.00000000000E+00 0. -1.
        -11    1    4    4    0    0  0.43346982183E+02  0.24933557437E+02 -0.25335997312E+01  0.50070572979E+02  0.00000000000E+00 0.  1.
         11    1    4    4    0    0 -0.21483177953E+02 -0.37023922044E+02 -0.26460873969E+01  0.42887055354E+02  0.00000000000E+00 0. -1.
         21    1    1    2  503  502  0.84375399439E+02 -0.99071421112E+02  0.26812244091E+03  0.29803355152E+03  0.00000000000E+00 0. -1.
          1    1    1    2  501    0 -0.35142744062E+02  0.20101361168E+02  0.48597109391E+02  0.63251531381E+02  0.00000000000E+00 0. -1.
<scales pt_clust_5="13000.00000" pt_clust_6="13000.00000" pt_clust_7="13000.00000" pt_clust_8="13000.00000" pt_clust_9="127.19079" pt_clust_10="40.48554"></scales>
<clustering>
<clus scale="   40.486">  2 10  1 -1</clus>
<clus scale="   81.392">  5  6 -1 -1</clus>
<clus scale="   89.387">  7  8 -1 -1</clus>
<clus scale="   89.833">  2  7  1 -1</clus>
<clus scale="  127.191">  1  9  2 -1</clus>
<clus scale="   40.486">  2  5  1 -1</clus>
</clustering>
</event>
<event>
10    4  0.2977685E-005  0.1225615E+03  0.7546771E-02  0.1243763E+00
         -1   -1    0    0    0  501 -0.00000000000E+00  0.00000000000E+00  0.11495075062E+04  0.11495075062E+04  0.00000000000E+00 0.  1.
         21   -1    0    0  503  502  0.00000000000E+00 -0.00000000000E+00 -0.58421055316E+02  0.58421055316E+02  0.00000000000E+00 0. -1.
         24    2    1    2    0    0 -0.41450191369E+02  0.37996986235E+02  0.70273038930E+03  0.70956067624E+03  0.80526169069E+02 0.  0.
         23    2    1    2    0    0  0.85825324824E+02  0.12216512225E+02  0.51285588951E+02  0.13893103247E+03  0.95689030705E+02 0.  0.
        -11    1    3    3    0    0 -0.35635379139E+02  0.55796792495E+02  0.34227290805E+03  0.34861713366E+03  0.00000000000E+00 0.  1.
         12    1    3    3    0    0 -0.58148122299E+01 -0.17799806260E+02  0.36045748125E+03  0.36094354258E+03  0.00000000000E+00 0. -1.
        -13    1    4    4    0    0  0.72251594462E+02 -0.15457452714E+02  0.70895527800E+02  0.10239825003E+03  0.00000000000E+00 0.  1.
         13    1    4    4    0    0  0.13573730362E+02  0.27673964939E+02 -0.19609938849E+02  0.36532782443E+02  0.00000000000E+00 0. -1.
         21    1    1    2  503  501 -0.18623727501E+02  0.28513739762E+02  0.16486203218E+03  0.16834300174E+03  0.00000000000E+00 0.  1.
         -2    1    1    2    0  502 -0.25751405954E+02 -0.78727238223E+02  0.17220844045E+03  0.19109385105E+03  0.00000000000E+00 0.  1.
<scales pt_clust_5="13000.00000" pt_clust_6="13000.00000" pt_clust_7="13000.00000" pt_clust_8="13000.00000" pt_clust_9="34.05696" pt_clust_10="79.04601"></scales>
<clustering>
<clus scale="   34.057">  1  9  2 -1</clus>
<clus scale="   79.046">  2 10  1 -1</clus>
<clus scale="   80.526">  5  6 -1 -1</clus>
<clus scale="   95.689">  7  8 -1 -1</clus>
<clus scale="  111.128">  1  5  2 -1</clus>
<clus scale="   79.046">  2  5  1 -1</clus>
</clustering>
</event>
<event>
10    4  0.2977685E-005  0.1423717E+03  0.7546771E-02  0.1225223E+00
         21   -1    0    0  503  502  0.00000000000E+00  0.00000000000E+00  0.50165026393E+03  0.50165026393E+03  0.00000000000E+00 0. -1.
         -1   -1    0    0    0  501 -0.00000000000E+00 -0.00000000000E+00 -0.24984734021E+03  0.24984734021E+03  0.00000000000E+00 0.  1.
         23    2    1    2    0    0 -0.44222065854E+02  0.20563408554E+02  0.16483979956E+03  0.19403186500E+03  0.89987555999E+02 0.  0.
         24    2    1    2    0    0  0.31088629729E+01  0.50307711978E+02  0.24968816946E+03  0.26712904784E+03  0.80456294472E+02 0.  0.
        -13    1    4    4    0    0 -0.24566878450E+02  0.47784111583E+02  0.88273797403E+02  0.10333980910E+03  0.00000000000E+00 0.  1.
         14    1    4    4    0    0  0.27675741422E+02  0.25236003955E+01  0.16141437206E+03  0.16378923875E+03  0.00000000000E+00 0. -1.
        -13    1    3    3    0    0 -0.24230399291E+02 -0.28553875536E+02  0.26501594416E+02  0.45877778548E+02  0.00000000000E+00 0.  1.
         13    1    3    3    0    0 -0.19991666563E+02  0.49117284090E+02  0.13833820514E+03  0.14815408645E+03  0.00000000000E+00 0. -1.
         21    1    1    2  503  501  0.65854462343E+02 -0.95661578276E+02 -0.20489395594E+03  0.23551959781E+03  0.00000000000E+00 0.  1.
         -2    1    1    2    0  502 -0.24741259462E+02  0.24790457744E+02  0.42168910637E+02  0.54817093495E+02  0.00000000000E+00 0.  1.
<scales pt_clust_5="13000.00000" pt_clust_6="13000.00000" pt_clust_7="13000.00000" pt_clust_8="13000.00000" pt_clust_9="110.32653" pt_clust_10="35.02423"></scales>
<clustering>
<clus scale="   35.024">  1 10  2 -1</clus>
<clus scale="   80.456">  5  6 -1 -1</clus>
<clus scale="   89.988">  7  8 -1 -1</clus>
<clus scale="  103.669">  1  5  2 -1</clus>
<clus scale="  110.327">  2  9  1 -1</clus>
<clus scale="   35.024">  1  5  2 -1</clus>
</clustering>
</event>
<event>
10    4  0.2977685E-005  0.1217160E+03  0.7546771E-02  0.1255761E+00
          2   -1    0    0  503    0 -0.00000000000E+00  0.00000000000E+00  0.50183594858E+03  0.50183594858E+03  0.00000000000E+00 0. -1.
         21   -1    0    0  501  502  0.00000000000E+00 -0.00000000000E+00 -0.59439822310E+02  0.59439822310E+02  0.00000000000E+00 0.  1.
         24    2    1    2    0    0 -0.16598253642E+02  0.39038603347E+02  0.69843664374E+02  0.11509617851E+03  0.81052318157E+02 0.  0.
         23    2    1    2    0    0 -0.64565952563E+02  0.64540972088E+01  0.14787682594E+03  0.18552535595E+03  0.91332822410E+02 0.  0.
        -13    1    3    3    0    0 -0.33624497828E+02 -0.13428926119E+02  0.24882457071E+02  0.43932670995E+02  0.00000000000E+00 0.  1.
         14    1    3    3    0    0  0.17026244186E+02  0.52467529466E+02  0.44961207303E+02  0.71163507513E+02  0.00000000000E+00 0. -1.
        -13    1    4    4    0    0 -0.81363624829E+02  0.26685939351E+02  0.11657053644E+03  0.14464048109E+03  0.00000000000E+00 0.  1.
         13    1    4    4    0    0  0.16797672265E+02 -0.20231842142E+02  0.31306289492E+02  0.40884874853E+02  0.00000000000E+00 0. -1.
         21    1    1    2  503  502 -0.11681399478E+02 -0.30490193234E+02  0.95064179288E+02  0.10051519866E+03  0.00000000000E+00 0. -1.
          1    1    1    2  501    0  0.92845605683E+02 -0.15002507322E+02  0.12961145668E+03  0.16013903778E+03  0.00000000000E+00 0. -1.
<scales pt_clust_5="13000.00000" pt_clust_6="13000.00000" pt_clust_7="13000.00000" pt_clust_8="13000.00000" pt_clust_9="32.65129" pt_clust_10="80.45565"></scales>
<clustering>
<clus scale="   32.651">  1  9  2 -1</clus>
<clus scale="   81.052">  5  6 -1 -1</clus>
<clus scale="   89.268">  1  5  2 -1</clus>
<clus scale="   80.456">  2 10  1 -1</clus>
<clus scale="   91.333">  7  8 -1 -1</clus>
<clus scale="   80.456">  2  5  1 -1</clus>
</clustering>
</event>
<event>
10    4  0.2977685E-005  0.1294926E+03  0.7546771E-02  0.1231077E+00
         21   -1    0    0  503  502  0.00000000000E+00  0.00000000000E+00  0.47896185177E+03  0.47896185177E+03  0.00000000000E+00 0. -1.
         -1   -1    0    0    0  501 -0.00000000000E+00 -0.00000000000E+00 -0.16354980907E+03  0.16354980907E+03  0.00000000000E+00 0.  1.
         24    2    1    2    0    0 -0.87626160366E+02 -0.22157077335E+02 -0.74802190324E+02  0.14271759119E+03  0.81262925745E+02 0.  0.
         23    2    1    2    0    0  0.80153338483E+02  0.62327777132E+02  0.35214577920E+03  0.37787886337E+03  0.92067779947E+02 0.  0.
        -13    1    3    3    0    0 -0.23672184648E+02 -0.24051181128E+01 -0.71883641755E+02  0.75719316367E+02  0.00000000000E+00 0.  1.
         14    1    3    3    0    0 -0.63953975717E+02 -0.19751959222E+02 -0.29185485696E+01  0.66998274820E+02  0.00000000000E+00 0. -1.
        -13    1    4    4    0    0  0.59559687480E+02  0.77013770934E+02  0.33064867909E+03  0.34468395128E+03  0.00000000000E+00 0. -1.
         13    1    4    4    0    0  0.20593651004E+02 -0.14685993802E+02  0.21497100102E+02  0.33194912086E+02  0.00000000000E+00 0.  1.
         21    1    1    2  503  501  0.69638609323E+01 -0.18825055221E+02 -0.37962979434E+02  0.42942588076E+02  0.00000000000E+00 0.  1.
         -2    1    1    2    0  502  0.50896095014E+00 -0.21345644576E+02  0.76031433256E+02  0.78972618207E+02  0.00000000000E+00 0.  1.
<scales pt_clust_5="13000.00000" pt_clust_6="13000.00000" pt_clust_7="13000.00000" pt_clust_8="13000.00000" pt_clust_9="20.07182" pt_clust_10="21.57867"></scales>
<clustering>
<clus scale="   20.072">  2  9  1 -1</clus>
<clus scale="   21.579">  1 10  2 -1</clus>
<clus scale="   81.263">  5  6 -1 -1</clus>
<clus scale="   92.068">  7  8 -1 -1</clus>
<clus scale="  122.047">  2  5  1 -1</clus>
<clus scale="   21.579">  1  5  2 -1</clus>
</clustering>
</event>
<event>
10    4  0.2977685E-005  0.8329971E+03  0.7546771E-02  0.1011314E+00
         21   -1    0    0  501  502  0.00000000000E+00  0.00000000000E+00  0.67011612486E+03  0.67011612486E+03  0.00000000000E+00 0.  1.
          2   -1    0    0  503    0 -0.00000000000E+00 -0.00000000000E+00 -0.21840349949E+04  0.21840349949E+04  0.00000000000E+00 0. -1.
         23    2    1    2    0    0  0.37134194321E+02 -0.62234857541E+02 -0.15024196714E+02  0.11841942403E+03  0.92440833071E+02 0.  0.
         24    2    1    2    0    0  0.42717340248E+03  0.69579004753E+03 -0.13877617213E+04  0.16132060842E+04  0.99751536788E+02 0.  0.
        -11    1    4    4    0    0  0.34506965288E+03  0.54114909410E+03 -0.11625238832E+04  0.13279221312E+04  0.00000000000E+00 0.  1.
         12    1    4    4    0    0  0.82103749602E+02  0.15464095343E+03 -0.22523783803E+03  0.28528395303E+03  0.00000000000E+00 0. -1.
        -11    1    3    3    0    0  0.61258189696E+02 -0.60337829213E+02  0.62340169699E+01  0.86209526194E+02  0.00000000000E+00 0.  1.
         11    1    3    3    0    0 -0.24123995375E+02 -0.18970283275E+01 -0.21258213684E+02  0.32209897832E+02  0.00000000000E+00 0. -1.
         21    1    1    2  503  502  0.69790299994E+01  0.49206327789E+02 -0.27280625763E+03  0.27729627433E+03  0.00000000000E+00 0.  1.
          1    1    1    2  501    0 -0.47128662681E+03 -0.68276151778E+03  0.16167330554E+03  0.84522933722E+03  0.00000000000E+00 0. -1.
<scales pt_clust_5="13000.00000" pt_clust_6="13000.00000" pt_clust_7="13000.00000" pt_clust_8="13000.00000" pt_clust_9="49.69879" pt_clust_10="827.00290"></scales>
<clustering>
<clus scale="   49.699">  2  9  1 -1</clus>
<clus scale="   92.441">  7  8 -1 -1</clus>
<clus scale="   99.752">  5  6 -1 -1</clus>
<clus scale="  116.638">  2  7  1 -1</clus>
<clus scale="  827.003">  1 10  2 -1</clus>
<clus scale="  827.003">  1  5  2 -1</clus>
</clustering>
</event>
<event>
10    4  0.2977685E-005  0.2633424E+03  0.7546771E-02  0.1139402E+00
          2   -1    0    0  503    0 -0.00000000000E+00  0.00000000000E+00  0.77310069896E+03  0.77310069896E+03  0.00000000000E+00 0. -1.
         21   -1    0    0  501  502  0.00000000000E+00 -0.00000000000E+00 -0.27807433657E+03  0.27807433657E+03  0.00000000000E+00 0. -1.
         23    2    1    2    0    0  0.60007012341E+02  0.57491547011E+02 -0.10053163877E+01  0.12063502942E+03  0.87439580024E+02 0.  0.
         24    2    1    2    0    0 -0.92067280441E+02 -0.22615782011E+03  0.16004703531E+03  0.30249612357E+03  0.79152432259E+02 0.  0.
        -13    1    4    4    0    0  0.38406704215E+01 -0.36385122063E+02  0.37713783429E+00  0.36589207285E+02  0.00000000000E+00 0.  1.
         14    1    4    4    0    0 -0.95907950862E+02 -0.18977269805E+03  0.15966989748E+03  0.26590691628E+03  0.00000000000E+00 0. -1.
        -11    1    3    3    0    0  0.54305886453E+02 -0.77421949631E+01 -0.46467882403E+01  0.55051462535E+02  0.00000000000E+00 0.  1.
         11    1    3    3    0    0  0.57011258879E+01  0.65233741974E+02  0.36414718526E+01  0.65583566887E+02  0.00000000000E+00 0. -1.
         21    1    1    2  503  502 -0.52104153316E+02 -0.71781138414E+02  0.36130820913E+03  0.37203628399E+03  0.00000000000E+00 0. -1.
          1    1    1    2  501    0  0.84164421416E+02  0.24044741152E+03 -0.25323565666E+02  0.25600759855E+03  0.00000000000E+00 0. -1.
<scales pt_clust_5="13000.00000" pt_clust_6="13000.00000" pt_clust_7="13000.00000" pt_clust_8="13000.00000" pt_clust_9="88.69822" pt_clust_10="251.16547"></scales>
<clustering>
<clus scale="   79.152">  5  6 -1 -1</clus>
<clus scale="   87.440">  7  8 -1 -1</clus>
<clus scale="   88.698">  1  9  2 -1</clus>
<clus scale="  112.193">  1  7  2 -1</clus>
<clus scale="  251.165">  2 10  1 -1</clus>
<clus scale="  251.165">  2  5  1 -1</clus>
</clustering>
</event>
<event>
10    4  0.2977685E-005  0.9314040E+02  0.7546771E-02  0.1300342E+00
         21   -1    0    0  503  502  0.00000000000E+00  0.00000000000E+00  0.46643626092E+03  0.46643626092E+03  0.00000000000E+00 0.  1.
         -1   -1    0    0    0  501 -0.00000000000E+00 -0.00000000000E+00 -0.21044058414E+03  0.21044058414E+03  0.00000000000E+00 0.  1.
         24    2    1    2    0    0 -0.31053896391E+02  0.22743386179E+02 -0.35487774764E+02  0.98506105510E+02  0.83441384032E+02 0.  0.
         23    2    1    2    0    0  0.43207249962E+02  0.12283728581E+02  0.14808287622E+03  0.17986879801E+03  0.91686911994E+02 0.  0.
        -13    1    3    3    0    0  0.21419064907E+02  0.31529107451E+02 -0.20260443628E+02  0.43166497821E+02  0.00000000000E+00 0.  1.
         14    1    3    3    0    0 -0.52472961298E+02 -0.87857212728E+01 -0.15227331136E+02  0.55339607689E+02  0.00000000000E+00 0. -1.
        -13    1    4    4    0    0 -0.21168150340E+02  0.88386373122E+00  0.38811956700E+01  0.21539161631E+02  0.00000000000E+00 0.  1.
         13    1    4    4    0    0  0.64375400302E+02  0.11399864850E+02  0.14420168055E+03  0.15832963638E+03  0.00000000000E+00 0. -1.
         21    1    1    2  503  501  0.36203698016E+02 -0.69881015174E+01 -0.12191141883E+03  0.12736536167E+03  0.00000000000E+00 0.  1.
         -2    1    1    2    0  502 -0.48357051587E+02 -0.28039013242E+02  0.26531199415E+03  0.27113657987E+03  0.00000000000E+00 0.  1.
<scales pt_clust_5="13000.00000" pt_clust_6="13000.00000" pt_clust_7="13000.00000" pt_clust_8="13000.00000" pt_clust_9="36.87196" pt_clust_10="54.96011"></scales>
<clustering>
<clus scale="   36.872">  2  9  1 -1</clus>
<clus scale="   54.960">  1 10  2 -1</clus>
<clus scale="   83.441">  5  6 -1 -1</clus>
<clus scale="   85.036">  2  5  1 -1</clus>
<clus scale="   91.687">  7  8 -1 -1</clus>
<clus scale="   54.960">  1  5  2 -1</clus>
</clustering>
</event>
<event>
10    4  0.2977685E-005  0.2590395E+03  0.7546771E-02  0.1146579E+00
          2   -1    0    0  503    0 -0.00000000000E+00  0.00000000000E+00  0.77947092497E+03  0.77947092497E+03  0.00000000000E+00 0. -1.
         21   -1    0    0  501  502  0.00000000000E+00 -0.00000000000E+00 -0.17637546896E+03  0.17637546896E+03  0.00000000000E+00 0. -1.
         24    2    1    2    0    0 -0.48086476984E+02  0.24096386332E+02 -0.16947910154E+02  0.98477724181E+02  0.80732183163E+02 0.  0.
         23    2    1    2    0    0 -0.14709441187E+03 -0.18666596723E+03  0.22606391648E+03  0.33962459129E+03  0.88085295868E+02 0.  0.
        -13    1    3    3    0    0 -0.11092785251E+02 -0.25921641642E+02  0.11014485688E+02  0.30270452342E+02  0.00000000000E+00 0.  1.
         14    1    3    3    0    0 -0.36993691733E+02  0.50018027974E+02 -0.27962395842E+02  0.68207271838E+02  0.00000000000E+00 0. -1.
        -11    1    4    4    0    0 -0.10820631945E+03 -0.16778209505E+03  0.21807466231E+03  0.29566196464E+03  0.00000000000E+00 0. -1.
         11    1    4    4    0    0 -0.38888092412E+02 -0.18883872182E+02  0.79892541671E+01  0.43962626652E+02  0.00000000000E+00 0.  1.
         21    1    1    2  503  502 -0.46662823374E+02  0.50798626935E+02  0.92970908391E+02  0.11576488842E+03  0.00000000000E+00 0. -1.
          1    1    1    2  501    0  0.24184371222E+03  0.11177095396E+03  0.30100854130E+03  0.40197919004E+03  0.00000000000E+00 0. -1.
<scales pt_clust_5="13000.00000" pt_clust_6="13000.00000" pt_clust_7="13000.00000" pt_clust_8="13000.00000" pt_clust_9="68.97767" pt_clust_10="243.60319"></scales>
<clustering>
<clus scale="   68.978">  1  9  2 -1</clus>
<clus scale="   80.732">  5  6 -1 -1</clus>
<clus scale="   88.085">  7  8 -1 -1</clus>
<clus scale="   99.231">  1  5  2 -1</clus>
<clus scale="  243.603">  2 10  1 -1</clus>
<clus scale="  243.603">  2  5  1 -1</clus>
</clustering>
</event>
<event>
10    4  0.2977685E-005  0.1304904E+03  0.7546771E-02  0.1229680E+00
         21   -1    0    0  501  502  0.00000000000E+00  0.00000000000E+00  0.11512047407E+03  0.11512047407E+03  0.00000000000E+00 0. -1.
          4   -1    0    0  503    0 -0.00000000000E+00 -0.00000000000E+00 -0.47712572853E+03  0.47712572853E+03  0.00000000000E+00 0. -1.
         24    2    1    2    0    0  0.30832182848E+02  0.59409888381E+02 -0.18446094112E+03  0.21173675151E+03  0.79539014343E+02 0.  0.
         23    2    1    2    0    0 -0.29261566358E+02 -0.12980541328E+03 -0.83604665368E+02  0.18160550958E+03  0.91022724941E+02 0.  0.
        -11    1    3    3    0    0  0.26097527374E+02 -0.84300641360E+01 -0.97834822846E+02  0.10160609961E+03  0.00000000000E+00 0.  1.
         12    1    3    3    0    0  0.47346554735E+01  0.67839952517E+02 -0.86626118274E+02  0.11013065190E+03  0.00000000000E+00 0. -1.
        -11    1    4    4    0    0  0.11342078866E+02 -0.10691169643E+03 -0.32236052019E+02  0.11224044118E+03  0.00000000000E+00 0. -1.
         11    1    4    4    0    0 -0.40603645224E+02 -0.22893716852E+02 -0.51368613349E+02  0.69365068400E+02  0.00000000000E+00 0.  1.
         21    1    1    2  503  502  0.38645639180E+02  0.12745721728E+02 -0.11783386119E+03  0.12466257535E+03  0.00000000000E+00 0. -1.
          3    1    1    2  501    0 -0.40216255670E+02  0.57649803172E+02  0.23894213217E+02  0.74241366172E+02  0.00000000000E+00 0. -1.
<scales pt_clust_5="13000.00000" pt_clust_6="13000.00000" pt_clust_7="13000.00000" pt_clust_8="13000.00000" pt_clust_9="40.69323" pt_clust_10="69.52129"></scales>
<clustering>
<clus scale="   40.693">  2  9  1 -1</clus>
<clus scale="   69.521">  1 10  2 -1</clus>
<clus scale="   79.539">  5  6 -1 -1</clus>
<clus scale="   91.023">  7  8 -1 -1</clus>
<clus scale="  122.756">  2  5  1 -1</clus>
<clus scale="   69.521">  1  5  2 -1</clus>
</clustering>
</event>
<event>
10    4  0.2977685E-005  0.2072123E+03  0.7546771E-02  0.1181173E+00
          2   -1    0    0  503    0 -0.00000000000E+00  0.00000000000E+00  0.26447316485E+03  0.26447316485E+03  0.00000000000E+00 0. -1.
         21   -1    0    0  501  502  0.00000000000E+00 -0.00000000000E+00 -0.39647412170E+03  0.39647412170E+03  0.00000000000E+00 0. -1.
         24    2    1    2    0    0  0.21523977732E+02  0.13397441784E+02 -0.83316172843E+02  0.11970147618E+03  0.82122382331E+02 0.  0.
         23    2    1    2    0    0  0.13456127554E+03 -0.14669202332E+02  0.76966467119E+02  0.18057906945E+03  0.91449663159E+02 0.  0.
        -13    1    3    3    0    0  0.24926074164E+02 -0.30339101100E+02 -0.54664551160E+02  0.67305151232E+02  0.00000000000E+00 0.  1.
         14    1    3    3    0    0 -0.34020964323E+01  0.43736542883E+02 -0.28651621682E+02  0.52396324953E+02  0.00000000000E+00 0. -1.
        -13    1    4    4    0    0  0.13434281506E+02 -0.19531444383E+02 -0.15318661907E+02  0.28224433420E+02  0.00000000000E+00 0.  1.
         13    1    4    4    0    0  0.12112699403E+03  0.48622420503E+01  0.92285129026E+02  0.15235463603E+03  0.00000000000E+00 0. -1.
         21    1    1    2  503  502  0.47101299484E+02 -0.49779557800E+01  0.66032741435E+02  0.81262755295E+02  0.00000000000E+00 0. -1.
          1    1    1    2  501    0 -0.20318655275E+03  0.62497163288E+01 -0.19168399256E+03  0.27940398561E+03  0.00000000000E+00 0. -1.
<scales pt_clust_5="13000.00000" pt_clust_6="13000.00000" pt_clust_7="13000.00000" pt_clust_8="13000.00000" pt_clust_9="47.36362" pt_clust_10="185.94058"></scales>
<clustering>
<clus scale="   47.364">  1  9  2 -1</clus>
<clus scale="   82.122">  5  6 -1 -1</clus>
<clus scale="   87.108">  1  5  2 -1</clus>
<clus scale="   91.450">  7  8 -1 -1</clus>
<clus scale="  185.941">  2 10  1 -1</clus>
<clus scale="  185.941">  2  5  1 -1</clus>
</clustering>
</event>
<event>
10    4  0.2977685E-005  0.2429727E+03  0.7546771E-02  0.1162469E+00
         21   -1    0    0  501  502  0.00000000000E+00  0.00000000000E+00  0.25506401077E+03  0.25506401077E+03  0.00000000000E+00 0. -1.
          2   -1    0    0  503    0 -0.00000000000E+00 -0.00000000000E+00 -0.45042805837E+03  0.45042805837E+03  0.00000000000E+00 0. -1.
         24    2    1    2    0    0  0.57676206141E+01  0.14144989302E+02 -0.17143583487E+02  0.83899577537E+02  0.80696285455E+02 0.  0.
         23    2    1    2    0    0  0.33774322536E+02 -0.24235327181E+03  0.70392717858E+02  0.26996051039E+03  0.89709136788E+02 0.  0.
        -13    1    3    3    0    0 -0.29591306882E+02 -0.10650464125E+02  0.98680226853E+01  0.32961427469E+02  0.00000000000E+00 0.  1.
         14    1    3    3    0    0  0.35358927496E+02  0.24795453428E+02 -0.27011606172E+02  0.50938150068E+02  0.00000000000E+00 0. -1.
        -13    1    4    4    0    0 -0.23129538171E+02 -0.67131525042E+02 -0.43696546789E+01  0.71138674942E+02  0.00000000000E+00 0.  1.
         13    1    4    4    0    0  0.56903860708E+02 -0.17522174677E+03  0.74762372537E+02  0.19882183545E+03  0.00000000000E+00 0. -1.
         21    1    1    2  503  502  0.49350439390E+01  0.22347555761E+02  0.34687612003E+01  0.23147358628E+02  0.00000000000E+00 0. -1.
          1    1    1    2  501    0 -0.44476987089E+02  0.20586072675E+03 -0.25208194317E+03  0.32848462258E+03  0.00000000000E+00 0. -1.
<scales pt_clust_5="13000.00000" pt_clust_6="13000.00000" pt_clust_7="13000.00000" pt_clust_8="13000.00000" pt_clust_9="22.88598" pt_clust_10="225.80538"></scales>
<clustering>
<clus scale="   22.886">  1  9  2 -1</clus>
<clus scale="   80.696">  5  6 -1 -1</clus>
<clus scale="   82.767">  2  5  1 -1</clus>
<clus scale="   89.709">  7  8 -1 -1</clus>
<clus scale="  225.805">  1 10  2 -1</clus>
<clus scale="   22.886">  1  5  2 -1</clus>
</clustering>
</event>
<event>
10    4  0.2977685E-005  0.1115109E+03  0.7546771E-02  0.1259763E+00
         21   -1    0    0  501  502  0.00000000000E+00  0.00000000000E+00  0.75173244097E+02  0.75173244097E+02  0.00000000000E+00 0. -1.
          2   -1    0    0  503    0 -0.00000000000E+00 -0.00000000000E+00 -0.45097074935E+03  0.45097074935E+03  0.00000000000E+00 0. -1.
         24    2    1    2    0    0  0.19975238312E+02  0.49178189045E+02 -0.14021005367E+03  0.17022035430E+03  0.80613928346E+02 0.  0.
         23    2    1    2    0    0 -0.11645595440E+03 -0.37933724267E+02 -0.11247562384E+03  0.18728760156E+03  0.86167992822E+02 0.  0.
        -13    1    3    3    0    0  0.67053783802E+01  0.56301047859E+02 -0.41239367312E+02  0.70110309553E+02  0.00000000000E+00 0.  1.
         14    1    3    3    0    0  0.13269859932E+02 -0.71228588145E+01 -0.98970686363E+02  0.10011004475E+03  0.00000000000E+00 0. -1.
        -13    1    4    4    0    0  0.11100288945E+02 -0.17216201674E+02 -0.16908875813E+02  0.26561703560E+02  0.00000000000E+00 0.  1.
         13    1    4    4    0    0 -0.12755624335E+03 -0.20717522593E+02 -0.95566748026E+02  0.16072589800E+03  0.00000000000E+00 0. -1.
         21    1    1    2  503  502  0.22065830634E+02 -0.23474524896E+01 -0.78148478316E+02  0.81237898039E+02  0.00000000000E+00 0.  1.
          1    1    1    2  501    0  0.74414885455E+02 -0.88970122883E+01 -0.44963349419E+02  0.87398139545E+02  0.00000000000E+00 0. -1.
<scales pt_clust_5="13000.00000" pt_clust_6="13000.00000" pt_clust_7="13000.00000" pt_clust_8="13000.00000" pt_clust_9="22.19035" pt_clust_10="78.90000"></scales>
<clustering>
<clus scale="   22.190">  2  9  1 -1</clus>
<clus scale="   78.900">  1 10  2 -1</clus>
<clus scale="   80.614">  5  6 -1 -1</clus>
<clus scale="   86.168">  7  8 -1 -1</clus>
<clus scale="  107.277">  2  5  1 -1</clus>
<clus scale="   78.900">  1  5  2 -1</clus>
</clustering>
</event>
<event>
10    4  0.2977685E-005  0.9890865E+02  0.7546771E-02  0.1289214E+00
          2   -1    0    0  503    0 -0.00000000000E+00  0.00000000000E+00  0.10958552074E+03  0.10958552074E+03  0.00000000000E+00 0. -1.
         21   -1    0    0  501  502  0.00000000000E+00 -0.00000000000E+00 -0.33295623547E+03  0.33295623547E+03  0.00000000000E+00 0.  1.
         24    2    1    2    0    0 -0.59062988890E+00 -0.22972570747E+02  0.36366991003E+02  0.90459491606E+02  0.79575585054E+02 0.  0.
         23    2    1    2    0    0  0.26841712147E+02  0.34623327838E+02 -0.18972138096E+03  0.21541285155E+03  0.92137081975E+02 0.  0.
        -11    1    3    3    0    0  0.27459795081E+02  0.17829696256E+02  0.19726045387E+02  0.38223752839E+02  0.00000000000E+00 0.  1.
         12    1    3    3    0    0 -0.28050424970E+02 -0.40802267003E+02  0.16640945616E+02  0.52235738768E+02  0.00000000000E+00 0. -1.
        -11    1    4    4    0    0  0.21293840477E+02 -0.24834615464E+02 -0.28145778644E+02  0.43155192306E+02  0.00000000000E+00 0. -1.
         11    1    4    4    0    0  0.55478716697E+01  0.59457943302E+02 -0.16157560232E+03  0.17225765924E+03  0.00000000000E+00 0.  1.
         21    1    1    2  503  502 -0.37938361842E+02  0.72457389877E+01  0.20318385568E+02  0.43642374189E+02  0.00000000000E+00 0.  1.
          1    1    1    2  501    0  0.11687279584E+02 -0.18896496079E+02 -0.90334710336E+02  0.93027038863E+02  0.00000000000E+00 0. -1.
<scales pt_clust_5="13000.00000" pt_clust_6="13000.00000" pt_clust_7="13000.00000" pt_clust_8="13000.00000" pt_clust_9="37.90613" pt_clust_10="22.21869"></scales>
<clustering>
<clus scale="   22.219">  2 10  1 -1</clus>
<clus scale="   37.906">  1  9  2 -1</clus>
<clus scale="   79.576">  5  6 -1 -1</clus>
<clus scale="   87.327">  1  5  2 -1</clus>
<clus scale="   92.137">  7  8 -1 -1</clus>
<clus scale="   22.219">  2  5  1 -1</clus>
</clustering>
</event>
<event>
10    4  0.2977685E-005  0.1518726E+03  0.7546771E-02  0.1218385E+00
          2   -1    0    0  503    0 -0.00000000000E+00  0.00000000000E+00  0.59585327630E+03  0.59585327630E+03  0.00000000000E+00 0. -1.
         21   -1    0    0  501  502  0.00000000000E+00 -0.00000000000E+00 -0.81567316614E+02  0.81567316614E+02  0.00000000000E+00 0. -1.
         24    2    1    2    0    0  0.46500879569E+02  0.11801358933E+02  0.22211237674E+03  0.24104448136E+03  0.80417225886E+02 0.  0.
         23    2    1    2    0    0  0.57793883579E+02 -0.99297324336E+02  0.90311116373E+02  0.17087647878E+03  0.88558351731E+02 0.  0.
        -11    1    3    3    0    0 -0.97102641674E+01 -0.20361809343E+02  0.25527603602E+02  0.34066861546E+02  0.00000000000E+00 0.  1.
         12    1    3    3    0    0  0.56211143736E+02  0.32163168276E+02  0.19658477314E+03  0.20697761981E+03  0.00000000000E+00 0. -1.
        -13    1    4    4    0    0 -0.22101734189E+02 -0.38789007054E+02  0.23792531849E+02  0.50588124043E+02  0.00000000000E+00 0.  1.
         13    1    4    4    0    0  0.79895617769E+02 -0.60508317282E+02  0.66518584524E+02  0.12028835474E+03  0.00000000000E+00 0. -1.
         21    1    1    2  503  502  0.18025492299E+02  0.12432023250E+02  0.59286523920E+02  0.63200992818E+02  0.00000000000E+00 0. -1.
          1    1    1    2  501    0 -0.12232025545E+03  0.75063942153E+02  0.14257594266E+03  0.20229863996E+03  0.00000000000E+00 0. -1.
<scales pt_clust_5="13000.00000" pt_clust_6="13000.00000" pt_clust_7="13000.00000" pt_clust_8="13000.00000" pt_clust_9="21.89689" pt_clust_10="123.38037"></scales>
<clustering>
<clus scale="   21.897">  1  9  2 -1</clus>
<clus scale="   80.417">  5  6 -1 -1</clus>
<clus scale="   88.558">  7  8 -1 -1</clus>
<clus scale="   98.548">  1  5  2 -1</clus>
<clus scale="  123.380">  2 10  1 -1</clus>
<clus scale="  123.380">  2  5  1 -1</clus>
</clustering>
</event>
<event>
10    4  0.2977685E-005  0.2302599E+03  0.7546771E-02  0.1127247E+00
         21   -1    0    0  501  502  0.00000000000E+00  0.00000000000E+00  0.12118620299E+03  0.12118620299E+03  0.00000000000E+00 0. -1.
          2   -1    0    0  503    0 -0.00000000000E+00 -0.00000000000E+00 -0.98127663080E+03  0.98127663080E+03  0.00000000000E+00 0. -1.
         24    2    1    2    0    0 -0.15399125760E+02 -0.19863562532E+03 -0.18772510877E+03  0.28521167921E+03  0.80073346202E+02 0.  0.
         23    2    1    2    0    0  0.51054177088E+02  0.22237779651E+03 -0.18386522340E+03  0.30709275712E+03  0.91875610050E+02 0.  0.
        -11    1    3    3    0    0 -0.47267996191E+02 -0.12098712796E+03 -0.12656689641E+03  0.18135966438E+03  0.00000000000E+00 0.  1.
         12    1    3    3    0    0  0.31868870432E+02 -0.77648497366E+02 -0.61158212362E+02  0.10385201483E+03  0.00000000000E+00 0. -1.
        -13    1    4    4    0    0  0.64354287800E+02  0.14244127237E+03 -0.80702980930E+02  0.17590895817E+03  0.00000000000E+00 0. -1.
         13    1    4    4    0    0 -0.13300110712E+02  0.79936524136E+02 -0.10316224247E+03  0.13118379895E+03  0.00000000000E+00 0.  1.
         21    1    1    2  503  502  0.47896128011E+02 -0.10313788849E+00 -0.86379207315E+02  0.98769515399E+02  0.00000000000E+00 0. -1.
          1    1    1    2  501    0 -0.83551179339E+02 -0.23639033298E+02 -0.40212088832E+03  0.41138888207E+03  0.00000000000E+00 0. -1.
<scales pt_clust_5="13000.00000" pt_clust_6="13000.00000" pt_clust_7="13000.00000" pt_clust_8="13000.00000" pt_clust_9="47.89624" pt_clust_10="66.02438"></scales>
<clustering>
<clus scale="   47.896">  2  9  1 -1</clus>
<clus scale="   66.024">  1 10  2 -1</clus>
<clus scale="   80.073">  5  6 -1 -1</clus>
<clus scale="   91.876">  7  8 -1 -1</clus>
<clus scale="  225.810">  2  5  1 -1</clus>
<clus scale="   66.024">  1  5  2 -1</clus>
</clustering>
</event>
<event>
10    4  0.2977685E-005  0.2284870E+03  0.7546771E-02  0.1127709E+00
         21   -1    0    0  503  502  0.00000000000E+00  0.00000000000E+00  0.52042877832E+02  0.52042877832E+02  0.00000000000E+00 0. -1.
          2   -1    0    0  502    0 -0.00000000000E+00 -0.00000000000E+00 -0.11779351289E+04  0.11779351289E+04  0.00000000000E+00 0. -1.
         24    2    1    2    0    0 -0.26814866723E+02  0.67462129872E+02 -0.93872561390E+02  0.14617119156E+03  0.85345084306E+02 0.  0.
         23    2    1    2    0    0 -0.13743760600E+02 -0.51831136274E+01 -0.14660165523E+03  0.17440828830E+03  0.93329792077E+02 0.  0.
        -11    1    3    3    0    0  0.30059642120E+02  0.36215778658E+02 -0.36641786180E+02  0.59647172630E+02  0.00000000000E+00 0.  1.
         12    1    3    3    0    0 -0.56874508843E+02  0.31246351213E+02 -0.57230775210E+02  0.86524018928E+02  0.00000000000E+00 0. -1.
        -11    1    4    4    0    0  0.15031792674E+02 -0.42594592073E+02 -0.90090715161E+02  0.10077991379E+03  0.00000000000E+00 0. -1.
         11    1    4    4    0    0 -0.28775553274E+02  0.37411478446E+02 -0.56510940067E+02  0.73628374510E+02  0.00000000000E+00 0.  1.
         21    1    1    2  503  501  0.23507451945E+02  0.54605678639E+02 -0.11002171399E+03  0.12505661912E+03  0.00000000000E+00 0. -1.
          1    1    1    2  501    0  0.17051175377E+02 -0.11688469488E+03 -0.77539632046E+03  0.78434190775E+03  0.00000000000E+00 0. -1.
<scales pt_clust_5="13000.00000" pt_clust_6="13000.00000" pt_clust_7="13000.00000" pt_clust_8="13000.00000" pt_clust_9="59.45066" pt_clust_10="113.07813"></scales>
<clustering>
<clus scale="   59.451">  1  9  2 -1</clus>
<clus scale="   85.345">  5  6 -1 -1</clus>
<clus scale="   93.330">  7  8 -1 -1</clus>
<clus scale="   94.178">  5  7 -1 -1</clus>
<clus scale="  113.078">  1 10  2 -1</clus>
<clus scale="   59.451">  1  5  2 -1</clus>
</clustering>
</event>
<event>
10    4  0.2977685E-005  0.9793240E+02  0.7546771E-02  0.1286577E+00
          2   -1    0    0  503    0 -0.00000000000E+00  0.00000000000E+00  0.34727720181E+03  0.34727720181E+03  0.00000000000E+00 0. -1.
         21   -1    0    0  501  502  0.00000000000E+00 -0.00000000000E+00 -0.16542830934E+03  0.16542830934E+03  0.00000000000E+00 0. -1.
         23    2    1    2    0    0  0.43701758132E+02  0.31035758611E+02  0.16457017574E+03  0.19571012268E+03  0.91356704197E+02 0.  0.
         24    2    1    2    0    0 -0.15071776600E+01  0.16866444664E+02  0.18236664485E+02  0.91167134251E+02  0.87704742722E+02 0.  0.
        -13    1    4    4    0    0  0.33006065496E+02  0.30394992120E+02 -0.82309636867E+01  0.45618030084E+02  0.00000000000E+00 0.  1.
         14    1    4    4    0    0 -0.34513243156E+02 -0.13528547456E+02  0.26467628172E+02  0.45549104167E+02  0.00000000000E+00 0. -1.
        -13    1    3    3    0    0  0.16685967606E+02  0.53484662378E+02  0.14511818101E+03  0.15555808267E+03  0.00000000000E+00 0.  1.
         13    1    3    3    0    0  0.27015790526E+02 -0.22448903767E+02  0.19451994725E+02  0.40152040009E+02  0.00000000000E+00 0. -1.
         21    1    1    2  503  502 -0.73925618768E+02 -0.79633593121E+02  0.78861248381E+02  0.13425946060E+03  0.00000000000E+00 0. -1.
          1    1    1    2  501    0  0.31731038295E+02  0.31731389846E+02 -0.79819196137E+02  0.91568793619E+02  0.00000000000E+00 0. -1.
<scales pt_clust_5="13000.00000" pt_clust_6="13000.00000" pt_clust_7="13000.00000" pt_clust_8="13000.00000" pt_clust_9="93.08116" pt_clust_10="44.87471"></scales>
<clustering>
<clus scale="   44.875">  2 10  1 -1</clus>
<clus scale="   87.705">  5  6 -1 -1</clus>
<clus scale="   91.357">  7  8 -1 -1</clus>
<clus scale="   93.081">  2  9  1 -1</clus>
<clus scale="   94.535">  2  5  1 -1</clus>
<clus scale="   44.875">  2  5  1 -1</clus>
</clustering>
</event>
<event>
10    4  0.2977685E-005  0.1140023E+03  0.7546771E-02  0.1257270E+00
         21   -1    0    0  501  502  0.00000000000E+00  0.00000000000E+00  0.52742813200E+03  0.52742813200E+03  0.00000000000E+00 0. -1.
          2   -1    0    0  503    0 -0.00000000000E+00 -0.00000000000E+00 -0.90714339786E+02  0.90714339786E+02  0.00000000000E+00 0. -1.
         23    2    1    2    0    0  0.59650137727E+02 -0.51613204478E+02  0.21945884365E+03  0.25061485707E+03  0.91779958184E+02 0.  0.
         24    2    1    2    0    0 -0.54743834664E+01  0.68890268023E+02  0.25835889710E+03  0.27941339333E+03  0.80911598406E+02 0.  0.
        -11    1    4    4    0    0  0.28755896029E+02  0.60037496206E+02  0.12711998290E+03  0.14349527016E+03  0.00000000000E+00 0.  1.
         12    1    4    4    0    0 -0.34230279495E+02  0.88527718164E+01  0.13123891421E+03  0.13591812317E+03  0.00000000000E+00 0. -1.
        -13    1    3    3    0    0 -0.10502124198E+02 -0.25566007605E+02  0.12109485910E+02  0.30175404000E+02  0.00000000000E+00 0.  1.
         13    1    3    3    0    0  0.70152261925E+02 -0.26047196872E+02  0.20734935774E+03  0.22043945307E+03  0.00000000000E+00 0. -1.
         21    1    1    2  503  502 -0.18023526305E+02  0.13624102732E+02 -0.32811069775E+02  0.39837544798E+02  0.00000000000E+00 0. -1.
          1    1    1    2  501    0 -0.36152227956E+02 -0.30901166277E+02 -0.82928787658E+01  0.48276676581E+02  0.00000000000E+00 0. -1.
<scales pt_clust_5="13000.00000" pt_clust_6="13000.00000" pt_clust_7="13000.00000" pt_clust_8="13000.00000" pt_clust_9="22.59344" pt_clust_10="51.37847"></scales>
<clustering>
<clus scale="   22.593">  2  9  1 -1</clus>
<clus scale="   51.378">  1 10  2 -1</clus>
<clus scale="   80.912">  5  6 -1 -1</clus>
<clus scale="   91.780">  7  8 -1 -1</clus>
<clus scale="  105.450">  1  5  2 -1</clus>
<clus scale="   51.378">  1  5  2 -1</clus>
</clustering>
</event>
<event>
10    4  0.2977685E-005  0.1489761E+03  0.7546771E-02  0.1220904E+00
         21   -1    0    0  503  502  0.00000000000E+00  0.00000000000E+00  0.24766728526E+03  0.24766728526E+03  0.00000000000E+00 0. -1.
         -3   -1    0    0    0  501 -0.00000000000E+00 -0.00000000000E+00 -0.52544653305E+03  0.52544653305E+03  0.00000000000E+00 0.  1.
         24    2    1    2    0    0 -0.23068974374E+02 -0.31758791837E+02 -0.11922400994E+03  0.15253731197E+03  0.86674497738E+02 0.  0.
         23    2    1    2    0    0  0.35033617520E+02 -0.11876841175E+03  0.11808884720E+03  0.19395670591E+03  0.91328735607E+02 0.  0.
        -11    1    3    3    0    0 -0.55278391396E+02 -0.13139211001E+02 -0.60306764477E+02  0.82856775599E+02  0.00000000000E+00 0.  1.
         12    1    3    3    0    0  0.32209417022E+02 -0.18619580835E+02 -0.58917245468E+02  0.69680536371E+02  0.00000000000E+00 0. -1.
        -13    1    4    4    0    0  0.36681973264E+02 -0.61974612125E+01  0.50222969632E+02  0.62500578931E+02  0.00000000000E+00 0.  1.
         13    1    4    4    0    0 -0.16483557436E+01 -0.11257095054E+03  0.67865877566E+02  0.13145612698E+03  0.00000000000E+00 0. -1.
         21    1    1    2  503  501 -0.38710209752E+02  0.34802610859E+02 -0.30092013114E+03  0.30538930464E+03  0.00000000000E+00 0. -1.
         -4    1    1    2    0  502  0.26745566607E+02  0.11572459273E+03  0.24276046103E+02  0.12123049579E+03  0.00000000000E+00 0.  1.
<scales pt_clust_5="13000.00000" pt_clust_6="13000.00000" pt_clust_7="13000.00000" pt_clust_8="13000.00000" pt_clust_9="52.05480" pt_clust_10="117.69855"></scales>
<clustering>
<clus scale="   52.055">  2  9  1 -1</clus>
<clus scale="   86.674">  5  6 -1 -1</clus>
<clus scale="   91.329">  7  8 -1 -1</clus>
<clus scale="   99.026">  2  5  1 -1</clus>
<clus scale="  117.699">  1 10  2 -1</clus>
<clus scale="  117.699">  1  5  2 -1</clus>
</clustering>
</event>
<event>
10    4  0.2977685E-005  0.3905571E+03  0.7546771E-02  0.1047099E+00
         21   -1    0    0  501  502  0.00000000000E+00  0.00000000000E+00  0.23149732612E+03  0.23149732612E+03  0.00000000000E+00 0.  1.
          2   -1    0    0  503    0 -0.00000000000E+00 -0.00000000000E+00 -0.17231252126E+04  0.17231252126E+04  0.00000000000E+00 0. -1.
         24    2    1    2    0    0 -0.82462646118E+02 -0.10953478266E+03 -0.71933750779E+02  0.17382126257E+03  0.79002596165E+02 0.  0.
         23    2    1    2    0    0 -0.18021947705E+03 -0.78338123522E+02  0.46326336755E+02  0.22235840639E+03  0.93173010631E+02 0.  0.
        -11    1    3    3    0    0 -0.29798773275E+02 -0.10779660666E+02 -0.50875769487E+02  0.59937566631E+02  0.00000000000E+00 0.  1.
         12    1    3    3    0    0 -0.52663872842E+02 -0.98755121998E+02 -0.21057981291E+02  0.11388369593E+03  0.00000000000E+00 0. -1.
        -11    1    4    4    0    0 -0.35298904572E+02 -0.51743071424E+02  0.41115609248E+02  0.74925639324E+02  0.00000000000E+00 0.  1.
         11    1    4    4    0    0 -0.14492057248E+03 -0.26595052098E+02  0.52107275073E+01  0.14743276706E+03  0.00000000000E+00 0. -1.
         21    1    1    2  503  502 -0.73149092829E+02  0.17714290213E+03 -0.48605848850E+03  0.52247799169E+03  0.00000000000E+00 0. -1.
          1    1    1    2  501    0  0.33583121599E+03  0.10730004059E+02 -0.97996198391E+03  0.10359648780E+04  0.00000000000E+00 0. -1.
<scales pt_clust_5="13000.00000" pt_clust_6="13000.00000" pt_clust_7="13000.00000" pt_clust_8="13000.00000" pt_clust_9="191.65176" pt_clust_10="317.06547"></scales>
<clustering>
<clus scale="   79.003">  5  6 -1 -1</clus>
<clus scale="   93.173">  7  8 -1 -1</clus>
<clus scale="  148.583">  5  7 -1 -1</clus>
<clus scale="  191.652">  2  9  1 -1</clus>
<clus scale="  317.065">  1 10  2 -1</clus>
<clus scale="  317.065">  1  5  2 -1</clus>
</clustering>
</event>
<event>
10    4  0.2977685E-005  0.1557468E+03  0.7546771E-02  0.1206891E+00
         21   -1    0    0  501  502  0.00000000000E+00  0.00000000000E+00  0.14669744026E+03  0.14669744026E+03  0.00000000000E+00 0.  1.
         -1   -1    0    0    0  501 -0.00000000000E+00 -0.00000000000E+00 -0.10998073687E+04  0.10998073687E+04  0.00000000000E+00 0.  1.
         24    2    1    2    0    0 -0.71852558217E+02 -0.44557699533E+02 -0.43221300590E+03  0.44768201933E+03  0.80392345706E+02 0.  0.
         23    2    1    2    0    0  0.95003657011E+00 -0.12252861901E+03  0.76021006072E+02  0.17094932798E+03  0.91816743171E+02 0.  0.
        -11    1    3    3    0    0 -0.78561925778E+02 -0.59891621077E+02 -0.34439759319E+03  0.35828575837E+03  0.00000000000E+00 0.  1.
         12    1    3    3    0    0  0.67093675606E+01  0.15333921544E+02 -0.87815412718E+02  0.89396260961E+02  0.00000000000E+00 0. -1.
        -13    1    4    4    0    0  0.30138876569E+02 -0.11334765382E+03  0.77054326777E+02  0.14033321696E+03  0.00000000000E+00 0.  1.
         13    1    4    4    0    0 -0.29188839999E+02 -0.91809651896E+01 -0.10333207047E+01  0.30616111019E+02  0.00000000000E+00 0. -1.
         21    1    1    2  503  502  0.81927092364E+02  0.12423947622E+03 -0.49182338954E+03  0.51384602987E+03  0.00000000000E+00 0.  1.
         -2    1    1    2    0  503 -0.11024570716E+02  0.42846842323E+02 -0.10509453905E+03  0.11402743176E+03  0.00000000000E+00 0.  1.
<scales pt_clust_5="13000.00000" pt_clust_6="13000.00000" pt_clust_7="13000.00000" pt_clust_8="13000.00000" pt_clust_9="38.43489" pt_clust_10="144.20763"></scales>
<clustering>
<clus scale="   38.435">  9 10 -1 -1</clus>
<clus scale="   80.392">  5  6 -1 -1</clus>
<clus scale="   91.817">  7  8 -1 -1</clus>
<clus scale="  116.667">  2  5  1 -1</clus>
<clus scale="  144.208">  1  9  2 -1</clus>
<clus scale="  144.208">  1  5  2 -1</clus>
</clustering>
</event>
<event>
10    4  0.2977685E-005  0.1425370E+03  0.7546771E-02  0.1230434E+00
         21   -1    0    0  501  502  0.00000000000E+00  0.00000000000E+00  0.82842038902E+02  0.82842038902E+02  0.00000000000E+00 0.  1.
          2   -1    0    0  503    0 -0.00000000000E+00 -0.00000000000E+00 -0.19578171962E+04  0.19578171962E+04  0.00000000000E+00 0. -1.
         24    2    1    2    0    0  0.76517201759E+02  0.89316660503E+02 -0.14403839796E+04  0.14474400094E+04  0.80896378514E+02 0.  0.
         23    2    1    2    0    0  0.13207212195E+02 -0.38141468789E+02 -0.16798121935E+02  0.10111130122E+03  0.91170808037E+02 0.  0.
        -13    1    3    3    0    0  0.24732489380E+02  0.49987542472E+02 -0.29588979917E+03  0.30110002272E+03  0.00000000000E+00 0.  1.
         14    1    3    3    0    0  0.51784712380E+02  0.39329118032E+02 -0.11444941804E+04  0.11463399866E+04  0.00000000000E+00 0. -1.
        -11    1    4    4    0    0  0.35925553117E+02  0.16713022996E+02 -0.84223485120E+00  0.39631803693E+02  0.00000000000E+00 0. -1.
         11    1    4    4    0    0 -0.22718340922E+02 -0.54854491785E+02 -0.15955887083E+02  0.61479497525E+02  0.00000000000E+00 0.  1.
         21    1    1    2  503  502 -0.84406375912E+02 -0.81271166046E+02 -0.43935110080E+03  0.45470740977E+03  0.00000000000E+00 0.  1.
          1    1    1    2  501    0 -0.53180380425E+01  0.30095974332E+02  0.21558045011E+02  0.37400514760E+02  0.00000000000E+00 0. -1.
<scales pt_clust_5="13000.00000" pt_clust_6="13000.00000" pt_clust_7="13000.00000" pt_clust_8="13000.00000" pt_clust_9="117.35655" pt_clust_10="30.56222"></scales>
<clustering>
<clus scale="   30.562">  1 10  2 -1</clus>
<clus scale="   80.896">  5  6 -1 -1</clus>
<clus scale="   91.171">  7  8 -1 -1</clus>
<clus scale="   92.734">  1  7  2 -1</clus>
<clus scale="  117.357">  1  9  2 -1</clus>
<clus scale="   30.562">  1  5  2 -1</clus>
</clustering>
</event>
<event>
10    4  0.2977685E-005  0.1035240E+03  0.7546771E-02  0.1278937E+00
         -1   -1    0    0    0  501 -0.00000000000E+00  0.00000000000E+00  0.11560893089E+03  0.11560893089E+03  0.00000000000E+00 0.  1.
         21   -1    0    0  503  502  0.00000000000E+00 -0.00000000000E+00 -0.16931130697E+03  0.16931130697E+03  0.00000000000E+00 0.  1.
         23    2    1    2    0    0 -0.45160570746E+02  0.56269386050E+01 -0.98845711295E+01  0.10347606863E+03  0.92403746922E+02 0.  0.
         24    2    1    2    0    0  0.50125796884E+02 -0.10178099410E+02 -0.65742643839E+02  0.11539016765E+03  0.79853655832E+02 0.  0.
        -13    1    4    4    0    0  0.69929673409E+02 -0.19928520845E+02 -0.48957818853E+02  0.87659415883E+02  0.00000000000E+00 0.  1.
         14    1    4    4    0    0 -0.19803876524E+02  0.97504214349E+01 -0.16784824986E+02  0.27730751763E+02  0.00000000000E+00 0. -1.
        -11    1    3    3    0    0 -0.22432863001E+02 -0.41155169047E+02  0.97631645658E+01  0.47877976816E+02  0.00000000000E+00 0.  1.
         11    1    3    3    0    0 -0.22727707745E+02  0.46782107652E+02 -0.19647735695E+02  0.55598091817E+02  0.00000000000E+00 0. -1.
         21    1    1    2  503  501  0.19132683100E+01 -0.21429172569E+02  0.30959186631E+02  0.37700679960E+02  0.00000000000E+00 0. -1.
         -2    1    1    2    0  502 -0.68784944487E+01  0.25980333374E+02 -0.90343477430E+01  0.28353321626E+02  0.00000000000E+00 0.  1.
<scales pt_clust_5="13000.00000" pt_clust_6="13000.00000" pt_clust_7="13000.00000" pt_clust_8="13000.00000" pt_clust_9="21.51441" pt_clust_10="24.35923"></scales>
<clustering>
<clus scale="   21.514">  1  9  2 -1</clus>
<clus scale="   24.359">  2 10  1 -1</clus>
<clus scale="   79.854">  5  6 -1 -1</clus>
<clus scale="   92.404">  7  8 -1 -1</clus>
<clus scale="   92.495">  2  5  1 -1</clus>
<clus scale="   24.359">  2  5  1 -1</clus>
</clustering>
</event>
<event>
10    4  0.2977685E-005  0.4671553E+03  0.7546771E-02  0.1051706E+00
         21   -1    0    0  503  502  0.00000000000E+00  0.00000000000E+00  0.14730375060E+03  0.14730375060E+03  0.00000000000E+00 0. -1.
          2   -1    0    0  502    0 -0.00000000000E+00 -0.00000000000E+00 -0.23099985864E+04  0.23099985864E+04  0.00000000000E+00 0. -1.
         24    2    1    2    0    0 -0.17216546694E+03 -0.61455669641E+02 -0.38274775642E+03  0.43188792225E+03  0.81323950969E+02 0.  0.
         23    2    1    2    0    0  0.47013283186E+03  0.22993586306E+03 -0.65373963465E+03  0.84243276569E+03  0.91771858923E+02 0.  0.
        -11    1    3    3    0    0 -0.75694937094E+02  0.14616340829E+02 -0.15519164178E+03  0.17328533291E+03  0.00000000000E+00 0.  1.
         12    1    3    3    0    0 -0.96470529844E+02 -0.76072010470E+02 -0.22755611464E+03  0.25860258934E+03  0.00000000000E+00 0. -1.
        -11    1    4    4    0    0  0.45720813871E+02  0.48971078045E+02 -0.11533377361E+03  0.13338080312E+03  0.00000000000E+00 0. -1.
         11    1    4    4    0    0  0.42441201799E+03  0.18096478502E+03 -0.53840586104E+03  0.70905196258E+03  0.00000000000E+00 0.  1.
         21    1    1    2  503  501 -0.99639129869E+02 -0.53741010880E+02 -0.21013853425E+03  0.23869280682E+03  0.00000000000E+00 0. -1.
          1    1    1    2  501    0 -0.19832823505E+03 -0.11473918254E+03 -0.91606891045E+03  0.94428884221E+03  0.00000000000E+00 0. -1.
<scales pt_clust_5="13000.00000" pt_clust_6="13000.00000" pt_clust_7="13000.00000" pt_clust_8="13000.00000" pt_clust_9="82.96808" pt_clust_10="82.96808"></scales>
<clustering>
<clus scale="   81.324">  5  6 -1 -1</clus>
<clus scale="   82.968">  9 10 -1 -1</clus>
<clus scale="   91.772">  7  8 -1 -1</clus>
<clus scale="  200.078">  2  5  1 -1</clus>
<clus scale="  461.220">  2  7  1 -1</clus>
<clus scale="  467.155">  1  5  2 -1</clus>
</clustering>
</event>
<event>
10    4  0.2977685E-005  0.9527536E+02  0.7546771E-02  0.1296323E+00
          2   -1    0    0  503    0 -0.00000000000E+00  0.00000000000E+00  0.35782979040E+03  0.35782979040E+03  0.00000000000E+00 0. -1.
         21   -1    0    0  501  502  0.00000000000E+00 -0.00000000000E+00 -0.20258391998E+03  0.20258391998E+03  0.00000000000E+00 0. -1.
         23    2    1    2    0    0  0.36933277195E+02  0.16590729450E+02  0.24451053730E+03  0.26425233771E+03  0.91676473917E+02 0.  0.
         24    2    1    2    0    0  0.11329440993E+02 -0.61401121742E+00  0.39612299709E+02  0.91365101009E+02  0.81545779481E+02 0.  0.
        -13    1    4    4    0    0  0.41749153036E+02 -0.15321945401E+02  0.81824993922E+01  0.45218437461E+02  0.00000000000E+00 0.  1.
         14    1    4    4    0    0 -0.30419712043E+02  0.14707934184E+02  0.31429800317E+02  0.46146663549E+02  0.00000000000E+00 0. -1.
        -11    1    3    3    0    0  0.31995976350E+02 -0.23520933612E+02  0.20093070034E+03  0.20481729214E+03  0.00000000000E+00 0. -1.
         11    1    3    3    0    0  0.49373008452E+01  0.40111663061E+02  0.43579836959E+02  0.59435045575E+02  0.00000000000E+00 0.  1.
         21    1    1    2  503  502 -0.10108588508E+02  0.17573971009E+02  0.30999725357E+02  0.37040666717E+02  0.00000000000E+00 0.  1.
          1    1    1    2  501    0 -0.38154129680E+02 -0.33550689241E+02 -0.15987669195E+03  0.16775560494E+03  0.00000000000E+00 0. -1.
<scales pt_clust_5="13000.00000" pt_clust_6="13000.00000" pt_clust_7="13000.00000" pt_clust_8="13000.00000" pt_clust_9="20.27383" pt_clust_10="50.75909"></scales>
<clustering>
<clus scale="   20.274">  1  9  2 -1</clus>
<clus scale="   50.759">  2 10  1 -1</clus>
<clus scale="   81.546">  5  6 -1 -1</clus>
<clus scale="   85.572">  2  5  1 -1</clus>
<clus scale="   91.676">  7  8 -1 -1</clus>
<clus scale="   50.759">  2  5  1 -1</clus>
</clustering>
</event>
<event>
10    4  0.2977685E-005  0.3762838E+03  0.7546771E-02  0.1086134E+00
         21   -1    0    0  501  502  0.00000000000E+00  0.00000000000E+00  0.61898209053E+03  0.61898209053E+03  0.00000000000E+00 0.  1.
         -1   -1    0    0    0  501 -0.00000000000E+00 -0.00000000000E+00 -0.35894629604E+03  0.35894629604E+03  0.00000000000E+00 0.  1.
         23    2    1    2    0    0  0.11636207808E+03  0.10256208269E+02 -0.66012507331E+02  0.16247276987E+03  0.91621104568E+02 0.  0.
         24    2    1    2    0    0 -0.26474831571E+03 -0.29158404465E+03  0.21007606793E+03  0.45311325929E+03  0.77889316725E+02 0.  0.
        -11    1    4    4    0    0 -0.26369574731E+03 -0.28034936538E+03  0.18804325988E+03  0.42835905664E+03  0.00000000000E+00 0.  1.
         12    1    4    4    0    0 -0.10525684059E+01 -0.11234679275E+02  0.22032808045E+02  0.24754202653E+02  0.00000000000E+00 0. -1.
        -13    1    3    3    0    0  0.65323037743E+02  0.30212744539E+02  0.57240498296E+01  0.72198849984E+02  0.00000000000E+00 0.  1.
         13    1    3    3    0    0  0.51039040335E+02 -0.19956536270E+02 -0.71736557161E+02  0.90273919886E+02  0.00000000000E+00 0. -1.
         21    1    1    2  503  502  0.75089574617E+02  0.30427668823E+02  0.16601988121E+02  0.82703768086E+02  0.00000000000E+00 0.  1.
         -2    1    1    2    0  503  0.73296663020E+02  0.25090016756E+03  0.99370245778E+02  0.27963858932E+03  0.00000000000E+00 0.  1.
<scales pt_clust_5="13000.00000" pt_clust_6="13000.00000" pt_clust_7="13000.00000" pt_clust_8="13000.00000" pt_clust_9="71.90092" pt_clust_10="71.90092"></scales>
<clustering>
<clus scale="   71.901">  9 10 -1 -1</clus>
<clus scale="   77.889">  5  6 -1 -1</clus>
<clus scale="   91.621">  7  8 -1 -1</clus>
<clus scale="  148.458">  2  7  1 -1</clus>
<clus scale="  361.908">  2  5  1 -1</clus>
<clus scale="  376.284">  1  5  2 -1</clus>
</clustering>
</event>
<event>
10    4  0.2977685E-005  0.9563016E+02  0.7546771E-02  0.1292004E+00
         21   -1    0    0  501  502  0.00000000000E+00  0.00000000000E+00  0.78143470863E+02  0.78143470863E+02  0.00000000000E+00 0.  1.
          2   -1    0    0  503    0 -0.00000000000E+00 -0.00000000000E+00 -0.40759840266E+03  0.40759840266E+03  0.00000000000E+00 0. -1.
         24    2    1    2    0    0  0.27654497141E+02  0.39432971336E+02 -0.14633600878E+03  0.17326809204E+03  0.79296114735E+02 0.  0.
         23    2    1    2    0    0 -0.35272970037E+02 -0.16158290800E+02  0.10696174890E+02  0.84689196481E+02  0.74515629680E+02 0.  0.
        -11    1    3    3    0    0 -0.21887170715E+02  0.36053154766E+02 -0.79613316648E+02  0.90095274006E+02  0.00000000000E+00 0.  1.
         12    1    3    3    0    0  0.49541667856E+02  0.33798165704E+01 -0.66722692136E+02  0.83172818035E+02  0.00000000000E+00 0. -1.
        -13    1    4    4    0    0 -0.40849628662E+02 -0.40154757196E+02 -0.12829816007E+01  0.57295224313E+02  0.00000000000E+00 0.  1.
         13    1    4    4    0    0  0.55766586259E+01  0.23996466396E+02  0.11979156491E+02  0.27393972168E+02  0.00000000000E+00 0. -1.
         21    1    1    2  503  502 -0.33648259590E+01  0.44268362699E+02 -0.41362604350E+02  0.60678456048E+02  0.00000000000E+00 0. -1.
          1    1    1    2  501    0  0.10983298855E+02 -0.67543043235E+02 -0.15245249355E+03  0.16710612895E+03  0.00000000000E+00 0. -1.
<scales pt_clust_5="13000.00000" pt_clust_6="13000.00000" pt_clust_7="13000.00000" pt_clust_8="13000.00000" pt_clust_9="44.39606" pt_clust_10="48.63873"></scales>
<clustering>
<clus scale="   44.396">  2  9  1 -1</clus>
<clus scale="   48.639">  1 10  2 -1</clus>
<clus scale="   74.516">  7  8 -1 -1</clus>
<clus scale="   79.296">  5  6 -1 -1</clus>
<clus scale="   91.705">  1  7  2 -1</clus>
<clus scale="   48.639">  1  5  2 -1</clus>
</clustering>
</event>
<event>
10    4  0.2977685E-005  0.2363425E+03  0.7546771E-02  0.1123069E+00
         21   -1    0    0  501  502  0.00000000000E+00  0.00000000000E+00  0.11434289946E+03  0.11434289946E+03  0.00000000000E+00 0.  1.
          2   -1    0    0  503    0 -0.00000000000E+00 -0.00000000000E+00 -0.10310004109E+04  0.10310004109E+04  0.00000000000E+00 0. -1.
         24    2    1    2    0    0  0.21811264896E+03 -0.81167862249E+02 -0.67292138356E+03  0.71640997075E+03  0.79111998118E+02 0.  0.
         23    2    1    2    0    0 -0.21895251166E+03  0.48859577906E+02 -0.17505760834E+03  0.29908496573E+03  0.92082516104E+02 0.  0.
        -13    1    3    3    0    0  0.86929203997E+02 -0.56343263516E+02 -0.20319312342E+03  0.22807607340E+03  0.00000000000E+00 0.  1.
         14    1    3    3    0    0  0.13118344497E+03 -0.24824598734E+02 -0.46972826014E+03  0.48833389736E+03  0.00000000000E+00 0. -1.
        -13    1    4    4    0    0 -0.10239328828E+03  0.70007744045E+02 -0.89822170215E+02  0.15314532958E+03  0.00000000000E+00 0.  1.
         13    1    4    4    0    0 -0.11655922338E+03 -0.21148166139E+02 -0.85235438123E+02  0.14593963614E+03  0.00000000000E+00 0. -1.
         21    1    1    2  503  502 -0.20349922184E+02  0.18774901157E+02 -0.91681144488E+02  0.95770812364E+02  0.00000000000E+00 0.  1.
          1    1    1    2  501    0  0.21189784878E+02  0.13533383187E+02  0.23002624954E+02  0.34077561509E+02  0.00000000000E+00 0. -1.
<scales pt_clust_5="13000.00000" pt_clust_6="13000.00000" pt_clust_7="13000.00000" pt_clust_8="13000.00000" pt_clust_9="27.54148" pt_clust_10="25.14278"></scales>
<clustering>
<clus scale="   25.143">  1 10  2 -1</clus>
<clus scale="   27.541">  2  9  1 -1</clus>
<clus scale="   79.112">  5  6 -1 -1</clus>
<clus scale="   92.083">  7  8 -1 -1</clus>
<clus scale="  231.597">  2  5  1 -1</clus>
<clus scale="   25.143">  1  5  2 -1</clus>
</clustering>
</event>
<event>
10    4  0.2977685E-005  0.1036878E+03  0.7546771E-02  0.1279264E+00
         21   -1    0    0  501  502  0.00000000000E+00  0.00000000000E+00  0.39194156327E+03  0.39194156327E+03  0.00000000000E+00 0. -1.
          4   -1    0    0  503    0 -0.00000000000E+00 -0.00000000000E+00 -0.18922840436E+03  0.18922840436E+03  0.00000000000E+00 0. -1.
         23    2    1    2    0    0 -0.46649571124E+02 -0.11320997980E+02  0.21004129612E+02  0.10773332664E+03  0.94132612449E+02 0.  0.
         24    2    1    2    0    0  0.23528227167E+02 -0.57993576980E+02  0.30255317780E+03  0.31927182848E+03  0.80493742742E+02 0.  0.
        -13    1    4    4    0    0  0.45089416049E+02 -0.80123897091E+01  0.10948630801E+03  0.11867815919E+03  0.00000000000E+00 0.  1.
         14    1    4    4    0    0 -0.21561188882E+02 -0.49981187271E+02  0.19306686979E+03  0.20059366929E+03  0.00000000000E+00 0. -1.
        -11    1    3    3    0    0  0.21692371828E+02  0.13572289163E+02 -0.11515421203E+02  0.28060131043E+02  0.00000000000E+00 0. -1.
         11    1    3    3    0    0 -0.68341942952E+02 -0.24893287144E+02  0.32519550815E+02  0.79673195596E+02  0.00000000000E+00 0.  1.
         21    1    1    2  503  502 -0.32042416032E+01  0.22872359094E+02 -0.11720861948E+01  0.23125435365E+02  0.00000000000E+00 0. -1.
          3    1    1    2  501    0  0.26325585560E+02  0.46442215866E+02 -0.11967206230E+03  0.13103937715E+03  0.00000000000E+00 0. -1.
<scales pt_clust_5="13000.00000" pt_clust_6="13000.00000" pt_clust_7="13000.00000" pt_clust_8="13000.00000" pt_clust_9="23.09571" pt_clust_10="67.09498"></scales>
<clustering>
<clus scale="   23.096">  2  9  1 -1</clus>
<clus scale="   67.095">  1 10  2 -1</clus>
<clus scale="   80.494">  5  6 -1 -1</clus>
<clus scale="   91.485">  1  5  2 -1</clus>
<clus scale="   94.133">  7  8 -1 -1</clus>
<clus scale="   67.095">  1  5  2 -1</clus>
</clustering>
</event>
<event>
10    4  0.2977685E-005  0.1377105E+03  0.7546771E-02  0.1218508E+00
         21   -1    0    0  501  502  0.00000000000E+00  0.00000000000E+00  0.14625699757E+03  0.14625699757E+03  0.00000000000E+00 0. -1.
          2   -1    0    0  503    0 -0.00000000000E+00 -0.00000000000E+00 -0.47451204035E+03  0.47451204035E+03  0.00000000000E+00 0. -1.
         24    2    1    2    0    0 -0.78710414381E+02 -0.64808936131E+02 -0.65872621246E+02  0.14562458227E+03  0.80447431256E+02 0.  0.
         23    2    1    2    0    0  0.13514225617E+03  0.88845790630E+01  0.28590694477E+02  0.16496436819E+03  0.89741015217E+02 0.  0.
        -11    1    3    3    0    0 -0.37193181121E+02  0.10362906039E+02 -0.21129213140E+01  0.38667647717E+02  0.00000000000E+00 0.  1.
         12    1    3    3    0    0 -0.41517233260E+02 -0.75171842169E+02 -0.63759699932E+02  0.10695693455E+03  0.00000000000E+00 0. -1.
        -13    1    4    4    0    0  0.44201115531E+02 -0.38647521310E+02  0.19850042151E+02  0.61978977815E+02  0.00000000000E+00 0.  1.
         13    1    4    4    0    0  0.90941140640E+02  0.47532100373E+02  0.87406523252E+01  0.10298539037E+03  0.00000000000E+00 0. -1.
         21    1    1    2  503  502 -0.14242851669E+02  0.61253516032E+02 -0.20207969339E+03  0.21163897215E+03  0.00000000000E+00 0. -1.
          1    1    1    2  501    0 -0.42188990120E+02 -0.53291589646E+01 -0.88893422617E+02  0.98541115313E+02  0.00000000000E+00 0. -1.
<scales pt_clust_5="13000.00000" pt_clust_6="13000.00000" pt_clust_7="13000.00000" pt_clust_8="13000.00000" pt_clust_9="63.05131" pt_clust_10="42.52426"></scales>
<clustering>
<clus scale="   42.524">  1 10  2 -1</clus>
<clus scale="   63.051">  2  9  1 -1</clus>
<clus scale="   80.447">  5  6 -1 -1</clus>
<clus scale="   89.741">  7  8 -1 -1</clus>
<clus scale="  131.843">  2  5  1 -1</clus>
<clus scale="   42.524">  1  5  2 -1</clus>
</clustering>
</event>
<event>
10    4  0.2977685E-005  0.1532328E+03  0.7546771E-02  0.1200324E+00
          2   -1    0    0  503    0 -0.00000000000E+00  0.00000000000E+00  0.84024605126E+03  0.84024605126E+03  0.00000000000E+00 0. -1.
         21   -1    0    0  501  502  0.00000000000E+00 -0.00000000000E+00 -0.55969111930E+02  0.55969111930E+02  0.00000000000E+00 0. -1.
         23    2    1    2    0    0  0.53414853479E+02  0.10454060985E+03  0.37717087061E+03  0.40778989177E+03  0.10125633072E+03 0.  0.
         24    2    1    2    0    0 -0.52476179665E+02 -0.74611318128E+02  0.10912416148E+03  0.16409710851E+03  0.81848519705E+02 0.  0.
        -13    1    4    4    0    0  0.60942862655E+01 -0.34590768301E+02  0.80079742808E+02  0.87443849326E+02  0.00000000000E+00 0.  1.
         14    1    4    4    0    0 -0.58570465930E+02 -0.40020549827E+02  0.29044418673E+02  0.76653259186E+02  0.00000000000E+00 0. -1.
        -11    1    3    3    0    0  0.40277687930E+02  0.11183960815E+02  0.22448242516E+03  0.22834126288E+03  0.00000000000E+00 0. -1.
         11    1    3    3    0    0  0.13137165548E+02  0.93356649038E+02  0.15268844545E+03  0.17944862889E+03  0.00000000000E+00 0.  1.
         21    1    1    2  503  502  0.84516219479E+01  0.48384544702E+02  0.11892260040E+03  0.12866654175E+03  0.00000000000E+00 0.  1.
          1    1    1    2  501    0 -0.93902957616E+01 -0.78313836427E+02  0.17905930684E+03  0.19566162116E+03  0.00000000000E+00 0. -1.
<scales pt_clust_5="13000.00000" pt_clust_6="13000.00000" pt_clust_7="13000.00000" pt_clust_8="13000.00000" pt_clust_9="49.11715" pt_clust_10="66.05215"></scales>
<clustering>
<clus scale="   49.117">  1  9  2 -1</clus>
<clus scale="   66.052">  2 10  1 -1</clus>
<clus scale="   81.849">  5  6 -1 -1</clus>
<clus scale="  101.256">  7  8 -1 -1</clus>
<clus scale="  141.162">  2  5  1 -1</clus>
<clus scale="   66.052">  2  5  1 -1</clus>
</clustering>
</event>
<event>
10    4  0.2977685E-005  0.8983065E+02  0.7546771E-02  0.1304769E+00
         21   -1    0    0  501  502  0.00000000000E+00  0.00000000000E+00  0.11545361118E+03  0.11545361118E+03  0.00000000000E+00 0. -1.
          2   -1    0    0  503    0 -0.00000000000E+00 -0.00000000000E+00 -0.26041300900E+03  0.26041300900E+03  0.00000000000E+00 0. -1.
         24    2    1    2    0    0  0.21528809226E+02 -0.11219118012E+02 -0.13254684945E+03  0.16046116140E+03  0.87119221661E+02 0.  0.
         23    2    1    2    0    0 -0.20340538057E+00 -0.17187905056E+02  0.60187432622E+01  0.91405433341E+02  0.89572666142E+02 0.  0.
        -11    1    3    3    0    0  0.42837612981E+02  0.23092316714E+02 -0.58324948507E+02  0.75961278263E+02  0.00000000000E+00 0.  1.
         12    1    3    3    0    0 -0.21308803755E+02 -0.34311434726E+02 -0.74221900939E+02  0.84499883133E+02  0.00000000000E+00 0. -1.
        -11    1    4    4    0    0  0.20071096430E+02 -0.41807083166E+02  0.26586275788E+02  0.53455693570E+02  0.00000000000E+00 0. -1.
         11    1    4    4    0    0 -0.20274501810E+02  0.24619178110E+02 -0.20567532526E+02  0.37949739771E+02  0.00000000000E+00 0.  1.
         21    1    1    2  503  502 -0.23716790294E+02 -0.18783292219E+01 -0.64538595267E+02  0.68784042783E+02  0.00000000000E+00 0. -1.
          1    1    1    2  501    0  0.23913864491E+01  0.30285352290E+02  0.46107303631E+02  0.55215982655E+02  0.00000000000E+00 0. -1.
<scales pt_clust_5="13000.00000" pt_clust_6="13000.00000" pt_clust_7="13000.00000" pt_clust_8="13000.00000" pt_clust_9="23.79105" pt_clust_10="30.29676"></scales>
<clustering>
<clus scale="   23.791">  2  9  1 -1</clus>
<clus scale="   30.297">  1 10  2 -1</clus>
<clus scale="   87.119">  5  6 -1 -1</clus>
<clus scale="   87.384">  2  5  1 -1</clus>
<clus scale="   89.573">  7  8 -1 -1</clus>
<clus scale="   30.297">  1  5  2 -1</clus>
</clustering>
</event>
<event>
10    4  0.2977685E-005  0.1091416E+03  0.7546771E-02  0.1266537E+00
          2   -1    0    0  503    0 -0.00000000000E+00  0.00000000000E+00  0.60308537183E+03  0.60308537183E+03  0.00000000000E+00 0. -1.
         21   -1    0    0  501  502  0.00000000000E+00 -0.00000000000E+00 -0.24512990455E+03  0.24512990455E+03  0.00000000000E+00 0. -1.
         24    2    1    2    0    0 -0.20644698308E+02 -0.34411544053E+02  0.93836043360E+02  0.13039771697E+03  0.81166517879E+02 0.  0.
         23    2    1    2    0    0  0.51351566305E+02 -0.22384684194E+02 -0.14361534152E+03  0.17949725451E+03  0.91955644797E+02 0.  0.
        -13    1    3    3    0    0 -0.28577965353E+02  0.10271921752E+02  0.75631145265E+02  0.81500200087E+02  0.00000000000E+00 0.  1.
         14    1    3    3    0    0  0.79332670459E+01 -0.44683465805E+02  0.18204898095E+02  0.48897516880E+02  0.00000000000E+00 0. -1.
        -13    1    4    4    0    0  0.31022735339E+02 -0.37392123926E+02 -0.14623367941E+03  0.15409370537E+03  0.00000000000E+00 0. -1.
         13    1    4    4    0    0  0.20328830966E+02  0.15007439732E+02  0.26183378956E+01  0.25403549144E+02  0.00000000000E+00 0.  1.
         21    1    1    2  503  502 -0.48587142609E+02  0.36103956173E+02  0.46812716742E+03  0.47202462961E+03  0.00000000000E+00 0. -1.
          1    1    1    2  501    0  0.17880274611E+02  0.20692272074E+02 -0.60392401989E+02  0.66295675287E+02  0.00000000000E+00 0. -1.
<scales pt_clust_5="13000.00000" pt_clust_6="13000.00000" pt_clust_7="13000.00000" pt_clust_8="13000.00000" pt_clust_9="60.51184" pt_clust_10="27.34729"></scales>
<clustering>
<clus scale="   27.347">  2 10  1 -1</clus>
<clus scale="   60.512">  1  9  2 -1</clus>
<clus scale="   81.167">  5  6 -1 -1</clus>
<clus scale="   91.956">  7  8 -1 -1</clus>
<clus scale="  100.220">  1  5  2 -1</clus>
<clus scale="   27.347">  2  5  1 -1</clus>
</clustering>
</event>
<event>
10    4  0.2977685E-005  0.2087678E+03  0.7546771E-02  0.1143683E+00
          2   -1    0    0  503    0 -0.00000000000E+00  0.00000000000E+00  0.18483357488E+03  0.18483357488E+03  0.00000000000E+00 0. -1.
         21   -1    0    0  501  502  0.00000000000E+00 -0.00000000000E+00 -0.43449122288E+03  0.43449122288E+03  0.00000000000E+00 0. -1.
         23    2    1    2    0    0 -0.18931689724E+03 -0.22798003371E+02 -0.38746192529E+02  0.21657921810E+03  0.95103384472E+02 0.  0.
         24    2    1    2    0    0  0.17058027711E+03 -0.64066937766E+02 -0.13532529854E+03  0.24133958144E+03  0.82034466489E+02 0.  0.
        -11    1    4    4    0    0  0.15914193884E+03 -0.27504896952E+02 -0.10807042170E+03  0.19432419330E+03  0.00000000000E+00 0.  1.
         12    1    4    4    0    0  0.11438338269E+02 -0.36562040814E+02 -0.27254876834E+02  0.47015388141E+02  0.00000000000E+00 0. -1.
        -11    1    3    3    0    0 -0.52879896927E+02  0.27449597017E+02 -0.38952852374E+02  0.71183485328E+02  0.00000000000E+00 0.  1.
         11    1    3    3    0    0 -0.13643700032E+03 -0.50247600388E+02  0.20665984483E+00  0.14539573277E+03  0.00000000000E+00 0. -1.
         21    1    1    2  503  502 -0.25719502010E+02  0.31717556050E+02  0.17505405550E+02  0.44428992436E+02  0.00000000000E+00 0. -1.
          1    1    1    2  501    0  0.44456122146E+02  0.55147385086E+02 -0.93091562482E+02  0.11697700579E+03  0.00000000000E+00 0. -1.
<scales pt_clust_5="13000.00000" pt_clust_6="13000.00000" pt_clust_7="13000.00000" pt_clust_8="13000.00000" pt_clust_9="40.83499" pt_clust_10="71.56578"></scales>
<clustering>
<clus scale="   40.835">  1  9  2 -1</clus>
<clus scale="   71.566">  2 10  1 -1</clus>
<clus scale="   82.034">  5  6 -1 -1</clus>
<clus scale="   95.103">  7  8 -1 -1</clus>
<clus scale="  203.148">  2  5  1 -1</clus>
<clus scale="   71.566">  2  5  1 -1</clus>
</clustering>
</event>
<event>
10    4  0.2977685E-005  0.1390273E+03  0.7546771E-02  0.1230815E+00
          2   -1    0    0  503    0 -0.00000000000E+00  0.00000000000E+00  0.57859308544E+03  0.57859308544E+03  0.00000000000E+00 0. -1.
         21   -1    0    0  501  502  0.00000000000E+00 -0.00000000000E+00 -0.29254973539E+03  0.29254973539E+03  0.00000000000E+00 0. -1.
         23    2    1    2    0    0  0.37681268964E+02  0.11927800267E+02 -0.94936287028E+02  0.13751138374E+03  0.91292560558E+02 0.  0.
         24    2    1    2    0    0  0.74197463726E+02  0.68911048787E+02  0.50869376829E+03  0.52483641423E+03  0.80186754154E+02 0.  0.
        -11    1    4    4    0    0 -0.32300745321E+01  0.39988451666E+02  0.97741005518E+02  0.10565421813E+03  0.00000000000E+00 0.  1.
         12    1    4    4    0    0  0.77427538258E+02  0.28922597121E+02  0.41095276277E+03  0.41918219611E+03  0.00000000000E+00 0. -1.
        -13    1    3    3    0    0  0.79894530521E+01  0.32118545881E+02 -0.96045097869E+02  0.10158785938E+03  0.00000000000E+00 0. -1.
         13    1    3    3    0    0  0.29691815911E+02 -0.20190745614E+02  0.11088108419E+01  0.35923524354E+02  0.00000000000E+00 0.  1.
         21    1    1    2  503  502 -0.17854212931E+02 -0.16209695476E+02  0.13192846903E+02  0.27487785582E+02  0.00000000000E+00 0.  1.
          1    1    1    2  501    0 -0.94024519758E+02 -0.64629153578E+02 -0.14090697811E+03  0.18130723727E+03  0.00000000000E+00 0. -1.
<scales pt_clust_5="13000.00000" pt_clust_6="13000.00000" pt_clust_7="13000.00000" pt_clust_8="13000.00000" pt_clust_9="24.11487" pt_clust_10="113.57236"></scales>
<clustering>
<clus scale="   24.115">  1  9  2 -1</clus>
<clus scale="   80.187">  5  6 -1 -1</clus>
<clus scale="   91.293">  7  8 -1 -1</clus>
<clus scale="   99.153">  1  7  2 -1</clus>
<clus scale="  113.572">  2 10  1 -1</clus>
<clus scale="  113.572">  2  5  1 -1</clus>
</clustering>
</event>
<event>
10    4  0.2977685E-005  0.1812636E+03  0.7546771E-02  0.1172052E+00
         21   -1    0    0  501  502  0.00000000000E+00  0.00000000000E+00  0.34964734044E+03  0.34964734044E+03  0.00000000000E+00 0.  1.
          2   -1    0    0  503    0 -0.00000000000E+00 -0.00000000000E+00 -0.38551080330E+03  0.38551080330E+03  0.00000000000E+00 0. -1.
         24    2    1    2    0    0 -0.35770229258E+02 -0.25881692689E+03 -0.15847764127E+03  0.31600311194E+03  0.80480389088E+02 0.  0.
         23    2    1    2    0    0  0.39371349983E+02  0.10754687390E+03  0.16822300756E+03  0.23488325336E+03  0.11728055743E+03 0.  0.
        -13    1    3    3    0    0 -0.38453093687E+01 -0.98370687644E+02 -0.17378366222E+02  0.99967925878E+02  0.00000000000E+00 0.  1.
         14    1    3    3    0    0 -0.31924919890E+02 -0.16044623924E+03 -0.14109927505E+03  0.21603518606E+03  0.00000000000E+00 0. -1.
        -11    1    4    4    0    0  0.68946059823E+02  0.98026987598E+02  0.16459435758E+03  0.20360292731E+03  0.00000000000E+00 0.  1.
         11    1    4    4    0    0 -0.29574709839E+02  0.95198863053E+01  0.36286499840E+01  0.31280326054E+02  0.00000000000E+00 0. -1.
         21    1    1    2  503  502  0.15727017069E+02  0.13896657465E+03 -0.65032624333E+02  0.15423452974E+03  0.00000000000E+00 0. -1.
          1    1    1    2  501    0 -0.19328137794E+02  0.12303478331E+02  0.19423795187E+02  0.30037248694E+02  0.00000000000E+00 0. -1.
<scales pt_clust_5="13000.00000" pt_clust_6="13000.00000" pt_clust_7="13000.00000" pt_clust_8="13000.00000" pt_clust_9="141.26176" pt_clust_10="22.91184"></scales>
<clustering>
<clus scale="   22.912">  1 10  2 -1</clus>
<clus scale="   80.480">  5  6 -1 -1</clus>
<clus scale="  117.281">  7  8 -1 -1</clus>
<clus scale="  141.262">  2  9  1 -1</clus>
<clus scale="  159.934">  2  5  1 -1</clus>
<clus scale="   22.912">  1  5  2 -1</clus>
</clustering>
</event>
<event>
10    4  0.2977685E-005  0.9831527E+02  0.7546771E-02  0.1286678E+00
          4   -1    0    0  503    0 -0.00000000000E+00  0.00000000000E+00  0.25185542212E+03  0.25185542212E+03  0.00000000000E+00 0. -1.
         21   -1    0    0  501  502  0.00000000000E+00 -0.00000000000E+00 -0.41384602755E+03  0.41384602755E+03  0.00000000000E+00 0.  1.
         23    2    1    2    0    0 -0.31491220790E+02 -0.40058521210E+02  0.22686104058E+03  0.24740953495E+03  0.84552729941E+02 0.  0.
         24    2    1    2    0    0  0.33369115271E+02  0.16754743860E+02 -0.20310350562E+03  0.22096456375E+03  0.78613517553E+02 0.  0.
        -11    1    4    4    0    0 -0.10163931253E+02  0.28090429830E+02 -0.30886246528E+02  0.42969035027E+02  0.00000000000E+00 0.  1.
         12    1    4    4    0    0  0.43533046524E+02 -0.11335685970E+02 -0.17221725909E+03  0.17799552872E+03  0.00000000000E+00 0. -1.
        -13    1    3    3    0    0 -0.24694612172E+02 -0.63066443252E+02  0.20113896778E+03  0.21223591707E+03  0.00000000000E+00 0.  1.
         13    1    3    3    0    0 -0.67966086178E+01  0.23007922042E+02  0.25722072805E+02  0.35173617880E+02  0.00000000000E+00 0. -1.
         21    1    1    2  503  502  0.16408041991E+02  0.13366040401E+02 -0.16581532180E+02  0.26885350796E+02  0.00000000000E+00 0.  1.
          3    1    1    2  501    0 -0.18285936472E+02  0.99377369481E+01 -0.16916660822E+03  0.17044200018E+03  0.00000000000E+00 0. -1.
<scales pt_clust_5="13000.00000" pt_clust_6="13000.00000" pt_clust_7="13000.00000" pt_clust_8="13000.00000" pt_clust_9="20.53115" pt_clust_10="20.81187"></scales>
<clustering>
<clus scale="   20.812">  2 10  1 -1</clus>
<clus scale="   20.531">  2  9  1 -1</clus>
<clus scale="   78.614">  5  6 -1 -1</clus>
<clus scale="   84.553">  7  8 -1 -1</clus>
<clus scale="   93.257">  2  5  1 -1</clus>
<clus scale="   20.812">  2  5  1 -1</clus>
</clustering>
</event>
<event>
10    4  0.2977685E-005  0.1787925E+03  0.7546771E-02  0.1170562E+00
         21   -1    0    0  501  502  0.00000000000E+00  0.00000000000E+00  0.11009310894E+03  0.11009310894E+03  0.00000000000E+00 0. -1.
          2   -1    0    0  503    0 -0.00000000000E+00 -0.00000000000E+00 -0.88900550714E+03  0.88900550714E+03  0.00000000000E+00 0. -1.
         23    2    1    2    0    0 -0.61084775960E+02 -0.17350323932E+03 -0.38675705484E+03  0.43765317615E+03  0.90136336852E+02 0.  0.
         24    2    1    2    0    0 -0.71634760856E+02  0.15017780713E+03 -0.13656736674E+03  0.22852289787E+03  0.76727807704E+02 0.  0.
        -13    1    4    4    0    0  0.16573208211E+02  0.20415918842E+02 -0.18240507250E+02  0.32003079185E+02  0.00000000000E+00 0.  1.
         14    1    4    4    0    0 -0.88207969067E+02  0.12976188829E+03 -0.11832685949E+03  0.19651981869E+03  0.00000000000E+00 0. -1.
        -13    1    3    3    0    0 -0.59054284524E+02 -0.55516424303E+02 -0.21026152158E+03  0.22534282625E+03  0.00000000000E+00 0.  1.
         13    1    3    3    0    0 -0.20304914354E+01 -0.11798681501E+03 -0.17649553326E+03  0.21231034989E+03  0.00000000000E+00 0. -1.
         21    1    1    2  503  502 -0.74721211338E+01  0.43600581141E+02 -0.14961738834E+03  0.15601989028E+03  0.00000000000E+00 0.  1.
          1    1    1    2  501    0  0.14019165795E+03 -0.20275148950E+02 -0.10597058828E+03  0.17690265177E+03  0.00000000000E+00 0. -1.
<scales pt_clust_5="13000.00000" pt_clust_6="13000.00000" pt_clust_7="13000.00000" pt_clust_8="13000.00000" pt_clust_9="44.23622" pt_clust_10="139.26534"></scales>
<clustering>
<clus scale="   44.236">  2  9  1 -1</clus>
<clus scale="   76.728">  5  6 -1 -1</clus>
<clus scale="   90.136">  7  8 -1 -1</clus>
<clus scale="  139.265">  1 10  2 -1</clus>
<clus scale="  172.422">  1  5  2 -1</clus>
<clus scale="  139.265">  1  5  2 -1</clus>
</clustering>
</event>
<event>
10    4  0.2977685E-005  0.1064505E+03  0.7546771E-02  0.1274977E+00
         -3   -1    0    0    0  501 -0.00000000000E+00  0.00000000000E+00  0.39781194819E+02  0.39781194819E+02  0.00000000000E+00 0.  1.
         21   -1    0    0  503  502  0.00000000000E+00 -0.00000000000E+00 -0.81476901502E+03  0.81476901502E+03  0.00000000000E+00 0.  1.
         24    2    1    2    0    0 -0.10607980653E+02  0.70647991409E+02 -0.14833870781E+03  0.18384478883E+03  0.81797715129E+02 0.  0.
         23    2    1    2    0    0 -0.97550809871E+01 -0.35672331858E+02 -0.41232039705E+03  0.42541407388E+03  0.97986466251E+02 0.  0.
        -11    1    3    3    0    0  0.11721648446E+02  0.26025639553E+02 -0.12596892885E+03  0.12916230871E+03  0.00000000000E+00 0.  1.
         12    1    3    3    0    0 -0.22329629099E+02  0.44622351856E+02 -0.22369778964E+02  0.54682480117E+02  0.00000000000E+00 0. -1.
        -11    1    4    4    0    0  0.11828555567E+02  0.30279750748E+02 -0.89541582634E+02  0.95260028620E+02  0.00000000000E+00 0. -1.
         11    1    4    4    0    0 -0.21583636554E+02 -0.65952082607E+02 -0.32277881441E+03  0.33015404526E+03  0.00000000000E+00 0.  1.
         21    1    1    2  503  501 -0.17902104812E+02 -0.51672975419E+02 -0.44789183131E+02  0.70687004965E+02  0.00000000000E+00 0.  1.
         -4    1    1    2    0  502  0.38265166453E+02  0.16697315868E+02 -0.16953953222E+03  0.17460434217E+03  0.00000000000E+00 0.  1.
<scales pt_clust_5="13000.00000" pt_clust_6="13000.00000" pt_clust_7="13000.00000" pt_clust_8="13000.00000" pt_clust_9="52.21632" pt_clust_10="41.74953"></scales>
<clustering>
<clus scale="   41.750">  2 10  1 -1</clus>
<clus scale="   52.216">  1  9  2 -1</clus>
<clus scale="   81.798">  5  6 -1 -1</clus>
<clus scale="   91.767">  1  5  2 -1</clus>
<clus scale="   97.986">  7  8 -1 -1</clus>
<clus scale="   41.750">  2  5  1 -1</clus>
</clustering>
</event>
<event>
10    4  0.2977685E-005  0.1128907E+03  0.7546771E-02  0.1260536E+00
         -1   -1    0    0    0  501 -0.00000000000E+00  0.00000000000E+00  0.80794859281E+03  0.80794859281E+03  0.00000000000E+00 0.  1.
         21   -1    0    0  503  502  0.00000000000E+00 -0.00000000000E+00 -0.10334987392E+03  0.10334987392E+03  0.00000000000E+00 0.  1.
         24    2    1    2    0    0  0.28432220697E+02  0.59382331657E+02  0.62595158626E+03  0.63441182673E+03  0.79550770386E+02 0.  0.
         23    2    1    2    0    0 -0.84093190794E+02  0.40856353411E+01  0.26346659860E+02  0.12839450779E+03  0.93287973454E+02 0.  0.
        -13    1    3    3    0    0  0.41144985333E+02  0.58929227465E+02  0.31073072214E+03  0.31893439035E+03  0.00000000000E+00 0.  1.
         14    1    3    3    0    0 -0.12712764636E+02  0.45310419234E+00  0.31522086412E+03  0.31547743638E+03  0.00000000000E+00 0. -1.
        -13    1    4    4    0    0 -0.80587328102E+02  0.39727949737E+02  0.18752805598E+02  0.91783959158E+02  0.00000000000E+00 0.  1.
         13    1    4    4    0    0 -0.35058626927E+01 -0.35642314396E+02  0.75938542611E+01  0.36610548634E+02  0.00000000000E+00 0. -1.
         21    1    1    2  503  501  0.37168174374E+02 -0.71513981586E+02  0.80441479263E+02  0.11387077911E+03  0.00000000000E+00 0.  1.
         -2    1    1    2    0  502  0.18492795724E+02  0.80460145880E+01 -0.28141006491E+02  0.34621353104E+02  0.00000000000E+00 0.  1.
<scales pt_clust_5="13000.00000" pt_clust_6="13000.00000" pt_clust_7="13000.00000" pt_clust_8="13000.00000" pt_clust_9="81.05342" pt_clust_10="20.16735"></scales>
<clustering>
<clus scale="   20.167">  2 10  1 -1</clus>
<clus scale="   79.551">  5  6 -1 -1</clus>
<clus scale="   81.053">  2  9  1 -1</clus>
<clus scale="   93.288">  7  8 -1 -1</clus>
<clus scale="  101.833">  1  5  2 -1</clus>
<clus scale="   20.167">  2  5  1 -1</clus>
</clustering>
</event>
<event>
10    4  0.2977685E-005  0.9497723E+02  0.7546771E-02  0.1296640E+00
         -3   -1    0    0    0  501 -0.00000000000E+00  0.00000000000E+00  0.73581354046E+02  0.73581354046E+02  0.00000000000E+00 0.  1.
         21   -1    0    0  503  502  0.00000000000E+00 -0.00000000000E+00 -0.36507386858E+03  0.36507386858E+03  0.00000000000E+00 0. -1.
         24    2    1    2    0    0  0.20483637933E+01 -0.24351666017E+02  0.16522551145E+02  0.86076899276E+02  0.80864321308E+02 0.  0.
         23    2    1    2    0    0 -0.85790866791E+01  0.10742820072E+02 -0.11519157100E+03  0.14711671691E+03  0.90472213699E+02 0.  0.
        -13    1    3    3    0    0 -0.17754801559E+02 -0.21764615155E+02  0.43943916045E+02  0.52153611654E+02  0.00000000000E+00 0.  1.
         14    1    3    3    0    0  0.19803165352E+02 -0.25870508626E+01 -0.27421364899E+02  0.33923287622E+02  0.00000000000E+00 0. -1.
        -11    1    4    4    0    0 -0.36568403265E+02  0.19410256620E+02 -0.17187828089E+02  0.44826639555E+02  0.00000000000E+00 0.  1.
         11    1    4    4    0    0  0.27989316586E+02 -0.86674365471E+01 -0.98003742914E+02  0.10229007735E+03  0.00000000000E+00 0. -1.
         21    1    1    2  503  501  0.16395989603E+02 -0.12956673644E+02 -0.15836229696E+02  0.26220031235E+02  0.00000000000E+00 0. -1.
         -4    1    1    2    0  502 -0.98652667170E+01  0.26565519589E+02 -0.17698726498E+03  0.17924157521E+03  0.00000000000E+00 0.  1.
<scales pt_clust_5="13000.00000" pt_clust_6="13000.00000" pt_clust_7="13000.00000" pt_clust_8="13000.00000" pt_clust_9="20.89746" pt_clust_10="28.04445"></scales>
<clustering>
<clus scale="   20.897">  1  9  2 -1</clus>
<clus scale="   28.044">  2 10  1 -1</clus>
<clus scale="   80.864">  5  6 -1 -1</clus>
<clus scale="   85.875">  1  5  2 -1</clus>
<clus scale="   90.472">  7  8 -1 -1</clus>
<clus scale="   28.044">  2  5  1 -1</clus>
</clustering>
</event>
<event>
10    4  0.2977685E-005  0.3046287E+03  0.7546771E-02  0.1120445E+00
          2   -1    0    0  503    0 -0.00000000000E+00  0.00000000000E+00  0.63910147279E+03  0.63910147279E+03  0.00000000000E+00 0. -1.
         21   -1    0    0  501  502  0.00000000000E+00 -0.00000000000E+00 -0.13055212025E+04  0.13055212025E+04  0.00000000000E+00 0. -1.
         24    2    1    2    0    0 -0.48015891307E+02  0.69103736153E+02  0.32304164151E+03  0.34345872876E+03  0.80790742316E+02 0.  0.
         23    2    1    2    0    0 -0.18085219563E+02  0.21229528634E+03  0.64458043772E+02  0.24189658433E+03  0.94671824394E+02 0.  0.
        -11    1    3    3    0    0  0.18107957517E+02  0.39352650666E+02  0.14113944436E+03  0.14763763745E+03  0.00000000000E+00 0.  1.
         12    1    3    3    0    0 -0.66123848824E+02  0.29751085487E+02  0.18190219716E+03  0.19582109131E+03  0.00000000000E+00 0. -1.
        -13    1    4    4    0    0  0.22610891696E+02  0.17693296772E+03  0.40567549739E+02  0.18292690776E+03  0.00000000000E+00 0. -1.
         13    1    4    4    0    0 -0.40696111259E+02  0.35362318619E+02  0.23890494033E+02  0.58969676571E+02  0.00000000000E+00 0.  1.
         21    1    1    2  503  502  0.10788702784E+03  0.15288571448E+02  0.11152835409E+03  0.15592281731E+03  0.00000000000E+00 0. -1.
          1    1    1    2  501    0 -0.41785916967E+02 -0.29668759394E+03 -0.11654477691E+04  0.12033445449E+04  0.00000000000E+00 0. -1.
<scales pt_clust_5="13000.00000" pt_clust_6="13000.00000" pt_clust_7="13000.00000" pt_clust_8="13000.00000" pt_clust_9="108.96491" pt_clust_10="289.54429"></scales>
<clustering>
<clus scale="   80.791">  5  6 -1 -1</clus>
<clus scale="   94.672">  7  8 -1 -1</clus>
<clus scale="  108.965">  1  9  2 -1</clus>
<clus scale="  115.465">  1  5  2 -1</clus>
<clus scale="  289.544">  2 10  1 -1</clus>
<clus scale="  289.544">  2  5  1 -1</clus>
</clustering>
</event>
<event>
10    4  0.2977685E-005  0.1317608E+03  0.7546771E-02  0.1246627E+00
          2   -1    0    0  503    0 -0.00000000000E+00  0.00000000000E+00  0.29382496580E+03  0.29382496580E+03  0.00000000000E+00 0. -1.
         21   -1    0    0  501  502  0.00000000000E+00 -0.00000000000E+00 -0.19994456683E+03  0.19994456683E+03  0.00000000000E+00 0. -1.
         23    2    1    2    0    0  0.41379796362E+02 -0.71176827138E+02  0.28290457750E+02  0.12612471601E+03  0.91261523768E+02 0.  0.
         24    2    1    2    0    0  0.39880748737E+02  0.36106612997E+02 -0.43413580893E+02  0.10653765241E+03  0.81063991718E+02 0.  0.
        -11    1    4    4    0    0 -0.19631179503E+02  0.30300103984E+02 -0.25207378243E+02  0.44032844878E+02  0.00000000000E+00 0.  1.
         12    1    4    4    0    0  0.59511928240E+02  0.58065090127E+01 -0.18206202650E+02  0.62504807533E+02  0.00000000000E+00 0. -1.
        -11    1    3    3    0    0  0.63561136094E+02 -0.21298083855E+02  0.24621112767E+02  0.71413063170E+02  0.00000000000E+00 0.  1.
         11    1    3    3    0    0 -0.22181339732E+02 -0.49878743283E+02  0.36693449835E+01  0.54711652840E+02  0.00000000000E+00 0. -1.
         21    1    1    2  503  502 -0.37405391255E+02  0.10600181540E+03 -0.13178769178E+02  0.11317786055E+03  0.00000000000E+00 0. -1.
          1    1    1    2  501    0 -0.43855153845E+02 -0.70931601256E+02  0.12218229129E+03  0.14792930366E+03  0.00000000000E+00 0. -1.
<scales pt_clust_5="13000.00000" pt_clust_6="13000.00000" pt_clust_7="13000.00000" pt_clust_8="13000.00000" pt_clust_9="95.03806" pt_clust_10="83.39409"></scales>
<clustering>
<clus scale="   81.064">  5  6 -1 -1</clus>
<clus scale="   83.394">  2 10  1 -1</clus>
<clus scale="   84.426">  2  5  1 -1</clus>
<clus scale="   91.262">  7  8 -1 -1</clus>
<clus scale="   95.038">  2  9  1 -1</clus>
<clus scale="   83.394">  2  5  1 -1</clus>
</clustering>
</event>
<event>
10    4  0.2977685E-005  0.2039923E+03  0.7546771E-02  0.1147383E+00
          2   -1    0    0  503    0 -0.00000000000E+00  0.00000000000E+00  0.73454522940E+03  0.73454522940E+03  0.00000000000E+00 0. -1.
         21   -1    0    0  501  502  0.00000000000E+00 -0.00000000000E+00 -0.25703441879E+03  0.25703441879E+03  0.00000000000E+00 0. -1.
         23    2    1    2    0    0  0.13482728776E+03 -0.14918641672E+03  0.35155506927E+03  0.41516586585E+03  0.91305777366E+02 0.  0.
         24    2    1    2    0    0 -0.80361605133E+02  0.15231824198E+03  0.14552003336E+03  0.24708216470E+03  0.10106770793E+03 0.  0.
        -11    1    4    4    0    0 -0.74793491846E+02  0.56071107046E+02  0.10996395086E+03  0.14432638691E+03  0.00000000000E+00 0.  1.
         12    1    4    4    0    0 -0.55681132875E+01  0.96247134931E+02  0.35556082499E+02  0.10275577780E+03  0.00000000000E+00 0. -1.
        -11    1    3    3    0    0  0.95887525787E+02 -0.53464522869E+02  0.12635193999E+03  0.16738484264E+03  0.00000000000E+00 0.  1.
         11    1    3    3    0    0  0.38939761971E+02 -0.95721893850E+02  0.22520312928E+03  0.24778102321E+03  0.00000000000E+00 0. -1.
         21    1    1    2  503  502 -0.28693511567E+02  0.27872795194E+02  0.14989564827E+03  0.15514159883E+03  0.00000000000E+00 0. -1.
          1    1    1    2  501    0 -0.25772171059E+02 -0.31004620452E+02 -0.16945994029E+03  0.17419001881E+03  0.00000000000E+00 0. -1.
<scales pt_clust_5="13000.00000" pt_clust_6="13000.00000" pt_clust_7="13000.00000" pt_clust_8="13000.00000" pt_clust_9="40.00263" pt_clust_10="40.30514"></scales>
<clustering>
<clus scale="   40.003">  1  9  2 -1</clus>
<clus scale="   40.305">  2 10  1 -1</clus>
<clus scale="   91.306">  7  8 -1 -1</clus>
<clus scale="  101.068">  5  6 -1 -1</clus>
<clus scale="  199.336">  1  7  2 -1</clus>
<clus scale="   40.305">  2  5  1 -1</clus>
</clustering>
</event>
<event>
10    4  0.2977685E-005  0.2367396E+03  0.7546771E-02  0.1121984E+00
         -1   -1    0    0    0  501 -0.00000000000E+00  0.00000000000E+00  0.17132582284E+04  0.17132582284E+04  0.00000000000E+00 0.  1.
         21   -1    0    0  503  502  0.00000000000E+00 -0.00000000000E+00 -0.29504830415E+02  0.29504830415E+02  0.00000000000E+00 0.  1.
         24    2    1    2    0    0  0.99807156928E+02 -0.69400143383E+02  0.72170290700E+03  0.73507270874E+03  0.68548907166E+02 0.  0.
         23    2    1    2    0    0  0.26850128163E+02 -0.49125928370E+02  0.39160862863E+03  0.40661211554E+03  0.94030889966E+02 0.  0.
        -11    1    3    3    0    0  0.86198371043E+02 -0.78433085154E+02  0.52932518570E+03  0.54200282308E+03  0.00000000000E+00 0.  1.
         12    1    3    3    0    0  0.13608785885E+02  0.90329417708E+01  0.19237772131E+03  0.19306988565E+03  0.00000000000E+00 0. -1.
        -13    1    4    4    0    0  0.16741751577E+02  0.16082549748E+02  0.25017188840E+02  0.34129084221E+02  0.00000000000E+00 0.  1.
         13    1    4    4    0    0  0.10108376586E+02 -0.65208478118E+02  0.36659143979E+03  0.37248303132E+03  0.00000000000E+00 0. -1.
         21    1    1    2  503  501 -0.19677847151E+02  0.26383530577E+02  0.23263978979E+03  0.23495654949E+03  0.00000000000E+00 0.  1.
         -2    1    1    2    0  502 -0.10697943794E+03  0.92142541175E+02  0.33780207255E+03  0.36612168504E+03  0.00000000000E+00 0.  1.
<scales pt_clust_5="13000.00000" pt_clust_6="13000.00000" pt_clust_7="13000.00000" pt_clust_8="13000.00000" pt_clust_9="32.91365" pt_clust_10="148.84374"></scales>
<clustering>
<clus scale="   32.914">  1  9  2 -1</clus>
<clus scale="   68.549">  5  6 -1 -1</clus>
<clus scale="   94.031">  7  8 -1 -1</clus>
<clus scale="   99.566">  5  7 -1 -1</clus>
<clus scale="  148.844">  2 10  1 -1</clus>
<clus scale="  148.844">  2  5  1 -1</clus>
</clustering>
</event>
<event>
10    4  0.2977685E-005  0.9917319E+02  0.7546771E-02  0.1286278E+00
          2   -1    0    0  503    0 -0.00000000000E+00  0.00000000000E+00  0.35221223872E+03  0.35221223872E+03  0.00000000000E+00 0. -1.
         21   -1    0    0  501  502  0.00000000000E+00 -0.00000000000E+00 -0.61848207544E+02  0.61848207544E+02  0.00000000000E+00 0. -1.
         24    2    1    2    0    0 -0.52637297531E+02 -0.23474699810E+02  0.11946461713E+03  0.15574279676E+03  0.81622774842E+02 0.  0.
         23    2    1    2    0    0  0.25776105702E+02  0.22165263476E+01  0.97060018487E+02  0.13493326504E+03  0.90094496017E+02 0.  0.
        -13    1    3    3    0    0 -0.78450995212E+01  0.25085407851E+02  0.10474668163E+02  0.28293849979E+02  0.00000000000E+00 0.  1.
         14    1    3    3    0    0 -0.44792198010E+02 -0.48560107661E+02  0.10898994897E+03  0.12744894678E+03  0.00000000000E+00 0. -1.
        -13    1    4    4    0    0  0.49873098889E+02  0.46223404911E+01  0.98678685099E+02  0.11066243679E+03  0.00000000000E+00 0.  1.
         13    1    4    4    0    0 -0.24096993186E+02 -0.24058141435E+01 -0.16186666121E+01  0.24270828250E+02  0.00000000000E+00 0. -1.
         21    1    1    2  503  502 -0.34878613411E+00  0.39213807408E+02  0.81011875423E+02  0.90004268247E+02  0.00000000000E+00 0.  1.
          1    1    1    2  501    0  0.27209977963E+02 -0.17955633945E+02 -0.71724798658E+01  0.33380116215E+02  0.00000000000E+00 0. -1.
<scales pt_clust_5="13000.00000" pt_clust_6="13000.00000" pt_clust_7="13000.00000" pt_clust_8="13000.00000" pt_clust_9="37.36199" pt_clust_10="32.60042"></scales>
<clustering>
<clus scale="   32.600">  2 10  1 -1</clus>
<clus scale="   37.362">  1  9  2 -1</clus>
<clus scale="   81.623">  5  6 -1 -1</clus>
<clus scale="   90.094">  7  8 -1 -1</clus>
<clus scale="   91.546">  1  5  2 -1</clus>
<clus scale="   32.600">  2  5  1 -1</clus>
</clustering>
</event>
<event>
10    4  0.2977685E-005  0.1370407E+03  0.7546771E-02  0.1219808E+00
         -1   -1    0    0    0  501 -0.00000000000E+00  0.00000000000E+00  0.65220301810E+03  0.65220301810E+03  0.00000000000E+00 0.  1.
         21   -1    0    0  503  502  0.00000000000E+00 -0.00000000000E+00 -0.49876709806E+02  0.49876709806E+02  0.00000000000E+00 0.  1.
         24    2    1    2    0    0  0.88199872431E+02 -0.60640180565E+02  0.27054280288E+03  0.30166663902E+03  0.79705105923E+02 0.  0.
         23    2    1    2    0    0 -0.90595831151E+02  0.21083448736E+02  0.10448623505E+03  0.16660147629E+03  0.90479622878E+02 0.  0.
        -11    1    3    3    0    0  0.97060123565E+02 -0.31266046028E+02  0.19317268443E+03  0.21843516025E+03  0.00000000000E+00 0.  1.
         12    1    3    3    0    0 -0.88602511344E+01 -0.29374134537E+02  0.77370118447E+02  0.83231478772E+02  0.00000000000E+00 0. -1.
        -11    1    4    4    0    0 -0.64296476943E+02  0.40701386669E+02  0.24170938200E+02  0.79842808552E+02  0.00000000000E+00 0.  1.
         11    1    4    4    0    0 -0.26299354208E+02 -0.19617937933E+02  0.80315296846E+02  0.86758667740E+02  0.00000000000E+00 0. -1.
         21    1    1    2  503  501  0.16987039590E+02  0.13054809111E+02  0.13481906204E+03  0.13651068473E+03  0.00000000000E+00 0.  1.
         -2    1    1    2    0  502 -0.14591080869E+02  0.26501922718E+02  0.92478208322E+02  0.97300927864E+02  0.00000000000E+00 0.  1.
<scales pt_clust_5="13000.00000" pt_clust_6="13000.00000" pt_clust_7="13000.00000" pt_clust_8="13000.00000" pt_clust_9="21.42399" pt_clust_10="31.09326"></scales>
<clustering>
<clus scale="   21.424">  1  9  2 -1</clus>
<clus scale="   31.093">  2 10  1 -1</clus>
<clus scale="   79.705">  5  6 -1 -1</clus>
<clus scale="   90.480">  7  8 -1 -1</clus>
<clus scale="  130.179">  1  5  2 -1</clus>
<clus scale="   31.093">  2  5  1 -1</clus>
</clustering>
</event>
<event>
10    4  0.2977685E-005  0.1439349E+03  0.7546771E-02  0.1224854E+00
         21   -1    0    0  501  502  0.00000000000E+00  0.00000000000E+00  0.30177417068E+03  0.30177417068E+03  0.00000000000E+00 0. -1.
          4   -1    0    0  503    0 -0.00000000000E+00 -0.00000000000E+00 -0.17337994706E+03  0.17337994706E+03  0.00000000000E+00 0. -1.
         24    2    1    2    0    0  0.79078972834E+00  0.64646826103E+02  0.13219689588E+03  0.16819791330E+03  0.81453552920E+02 0.  0.
         23    2    1    2    0    0  0.94515028117E+02  0.38371219935E+02  0.22905843070E+02  0.13924845767E+03  0.91978335802E+02 0.  0.
        -11    1    3    3    0    0  0.25710783580E+02  0.46803670346E+00  0.73012250704E+02  0.77408347118E+02  0.00000000000E+00 0.  1.
         12    1    3    3    0    0 -0.24919993851E+02  0.64178789400E+02  0.59184645181E+02  0.90789566182E+02  0.00000000000E+00 0. -1.
        -11    1    4    4    0    0  0.20022901585E+02 -0.29495885632E+02 -0.10598100184E+01  0.35665768664E+02  0.00000000000E+00 0.  1.
         11    1    4    4    0    0  0.74492126532E+02  0.67867105567E+02  0.23965653089E+02  0.10358268900E+03  0.00000000000E+00 0. -1.
         21    1    1    2  503  502  0.48798905086E+01 -0.35769218916E+02 -0.30091376038E+02  0.46997247421E+02  0.00000000000E+00 0. -1.
          3    1    1    2  501    0 -0.10018570835E+03 -0.67248827122E+02  0.33828607024E+01  0.12071049935E+03  0.00000000000E+00 0. -1.
<scales pt_clust_5="13000.00000" pt_clust_6="13000.00000" pt_clust_7="13000.00000" pt_clust_8="13000.00000" pt_clust_9="36.10056" pt_clust_10="110.71248"></scales>
<clustering>
<clus scale="   36.101">  2  9  1 -1</clus>
<clus scale="   81.454">  5  6 -1 -1</clus>
<clus scale="   91.978">  7  8 -1 -1</clus>
<clus scale="  101.101">  2  5  1 -1</clus>
<clus scale="  110.712">  1 10  2 -1</clus>
<clus scale="  110.712">  1  5  2 -1</clus>
</clustering>
</event>
<event>
10    4  0.2977685E-005  0.2298684E+03  0.7546771E-02  0.1156818E+00
          2   -1    0    0  503    0 -0.00000000000E+00  0.00000000000E+00  0.14760410653E+04  0.14760410653E+04  0.00000000000E+00 0. -1.
         21   -1    0    0  501  502  0.00000000000E+00 -0.00000000000E+00 -0.97532651965E+02  0.97532651965E+02  0.00000000000E+00 0.  1.
         23    2    1    2    0    0  0.81726013508E+02 -0.20009829077E+02  0.22303911687E+03  0.25527562767E+03  0.91321760180E+02 0.  0.
         24    2    1    2    0    0  0.14899061335E+03  0.13838662567E+03  0.19836891208E+03  0.29549988981E+03  0.81368904200E+02 0.  0.
        -13    1    4    4    0    0  0.13632028038E+03  0.82647022577E+02  0.12551817831E+03  0.20290037523E+03  0.00000000000E+00 0.  1.
         14    1    4    4    0    0  0.12670332974E+02  0.55739603098E+02  0.72850733762E+02  0.92599514582E+02  0.00000000000E+00 0. -1.
        -13    1    3    3    0    0  0.76988856537E+02 -0.51288742578E+02  0.16373104148E+03  0.18805763236E+03  0.00000000000E+00 0. -1.
         13    1    3    3    0    0  0.47371569711E+01  0.31278913501E+02  0.59308075395E+02  0.67217995307E+02  0.00000000000E+00 0.  1.
         21    1    1    2  503  502 -0.77738937501E+02  0.69970018267E+02  0.42988223363E+03  0.44242273976E+03  0.00000000000E+00 0.  1.
          1    1    1    2  501    0 -0.15297768936E+03 -0.18834681486E+03  0.52721815070E+03  0.58037545998E+03  0.00000000000E+00 0. -1.
<scales pt_clust_5="13000.00000" pt_clust_6="13000.00000" pt_clust_7="13000.00000" pt_clust_8="13000.00000" pt_clust_9="104.59037" pt_clust_10="214.98520"></scales>
<clustering>
<clus scale="   81.369">  5  6 -1 -1</clus>
<clus scale="   91.322">  7  8 -1 -1</clus>
<clus scale="  104.590">  1  9  2 -1</clus>
<clus scale="  111.497">  1  7  2 -1</clus>
<clus scale="  214.985">  2 10  1 -1</clus>
<clus scale="  214.985">  2  5  1 -1</clus>
</clustering>
</event>
<event>
10    4  0.2977685E-005  0.1464555E+03  0.7546771E-02  0.1205975E+00
         21   -1    0    0  501  502  0.00000000000E+00  0.00000000000E+00  0.45044048786E+03  0.45044048786E+03  0.00000000000E+00 0. -1.
          4   -1    0    0  503    0 -0.00000000000E+00 -0.00000000000E+00 -0.14330447682E+03  0.14330447682E+03  0.00000000000E+00 0. -1.
         23    2    1    2    0    0  0.96529253893E+02  0.11755663011E+02 -0.50242142079E+02  0.13888808751E+03  0.85495821779E+02 0.  0.
         24    2    1    2    0    0 -0.88926945764E+02  0.20321509800E+02  0.22546075067E+03  0.25591219468E+03  0.79608641816E+02 0.  0.
        -13    1    4    4    0    0 -0.39848210441E+02  0.29657082610E+02  0.18521195986E+03  0.19175737926E+03  0.00000000000E+00 0.  1.
         14    1    4    4    0    0 -0.49078735322E+02 -0.93355728093E+01  0.40248790803E+02  0.64154815420E+02  0.00000000000E+00 0. -1.
        -13    1    3    3    0    0  0.33579515781E+01 -0.23414451585E+02  0.61521295066E+01  0.24440971324E+02  0.00000000000E+00 0.  1.
         13    1    3    3    0    0  0.93171302315E+02  0.35170114596E+02 -0.56394271585E+02  0.11444711619E+03  0.00000000000E+00 0. -1.
         21    1    1    2  503  502  0.42446830809E+02 -0.52769845467E+01 -0.11840683311E+02  0.44382223839E+02  0.00000000000E+00 0.  1.
          3    1    1    2  501    0 -0.50049138938E+02 -0.26800188265E+02  0.14375808576E+03  0.15456245864E+03  0.00000000000E+00 0. -1.
<scales pt_clust_5="13000.00000" pt_clust_6="13000.00000" pt_clust_7="13000.00000" pt_clust_8="13000.00000" pt_clust_9="42.77359" pt_clust_10="55.14705"></scales>
<clustering>
<clus scale="   42.774">  2  9  1 -1</clus>
<clus scale="   55.147">  1 10  2 -1</clus>
<clus scale="   79.609">  5  6 -1 -1</clus>
<clus scale="   85.496">  7  8 -1 -1</clus>
<clus scale="  143.099">  1  5  2 -1</clus>
<clus scale="   55.147">  1  5  2 -1</clus>
</clustering>
</event>
<event>
10    4  0.2977685E-005  0.1015659E+03  0.7546771E-02  0.1282697E+00
          2   -1    0    0  503    0 -0.00000000000E+00  0.00000000000E+00  0.24684388573E+03  0.24684388573E+03  0.00000000000E+00 0. -1.
         21   -1    0    0  501  502  0.00000000000E+00 -0.00000000000E+00 -0.14134039100E+03  0.14134039100E+03  0.00000000000E+00 0.  1.
         23    2    1    2    0    0  0.40944090686E+02  0.20068323363E+02 -0.19927168942E+01  0.10208618228E+03  0.91315176878E+02 0.  0.
         24    2    1    2    0    0 -0.19152086286E+02 -0.43927829910E+02 -0.25363979467E+02  0.96326040357E+02  0.79617321901E+02 0.  0.
        -13    1    4    4    0    0 -0.21319078170E+02 -0.60372340870E+02 -0.38900249330E+02  0.74916967598E+02  0.00000000000E+00 0.  1.
         14    1    4    4    0    0  0.21669918841E+01  0.16444510961E+02  0.13536269863E+02  0.21409072758E+02  0.00000000000E+00 0. -1.
        -11    1    3    3    0    0 -0.18924958373E+02  0.29929792306E+02  0.15914755876E+02  0.38823008274E+02  0.00000000000E+00 0. -1.
         11    1    3    3    0    0  0.59869049059E+02 -0.98614689428E+01 -0.17907472770E+02  0.63263174011E+02  0.00000000000E+00 0.  1.
         21    1    1    2  503  502  0.43695987286E+02 -0.24449861913E+02  0.29125436510E+02  0.57926039951E+02  0.00000000000E+00 0. -1.
          1    1    1    2  501    0 -0.65487991687E+02  0.48309368460E+02  0.10373475458E+03  0.13184601414E+03  0.00000000000E+00 0. -1.
<scales pt_clust_5="13000.00000" pt_clust_6="13000.00000" pt_clust_7="13000.00000" pt_clust_8="13000.00000" pt_clust_9="50.07130" pt_clust_10="52.72321"></scales>
<clustering>
<clus scale="   50.071">  1  9  2 -1</clus>
<clus scale="   52.723">  2 10  1 -1</clus>
<clus scale="   79.617">  5  6 -1 -1</clus>
<clus scale="   91.193">  2  5  1 -1</clus>
<clus scale="   91.315">  7  8 -1 -1</clus>
<clus scale="   52.723">  2  5  1 -1</clus>
</clustering>
</event>
<event>
10    4  0.2977685E-005  0.2893135E+03  0.7546771E-02  0.1127981E+00
          2   -1    0    0  503    0 -0.00000000000E+00  0.00000000000E+00  0.21356170488E+04  0.21356170488E+04  0.00000000000E+00 0. -1.
         21   -1    0    0  501  502  0.00000000000E+00 -0.00000000000E+00 -0.78430221849E+02  0.78430221849E+02  0.00000000000E+00 0.  1.
         24    2    1    2    0    0  0.78004838362E+02  0.40395298838E+02  0.60361924853E+03  0.61503876621E+03  0.78739772519E+02 0.  0.
         23    2    1    2    0    0 -0.16680227902E+03  0.21716898090E+03  0.10276993692E+04  0.10674364776E+04  0.90935546478E+02 0.  0.
        -11    1    3    3    0    0  0.33283263350E+01  0.27475306911E+02  0.58964069860E+02  0.65136255500E+02  0.00000000000E+00 0.  1.
         12    1    3    3    0    0  0.74676512027E+02  0.12919991927E+02  0.54465517867E+03  0.54990251071E+03  0.00000000000E+00 0. -1.
        -13    1    4    4    0    0 -0.11367994758E+03  0.13763788682E+03  0.49468046968E+03  0.52590501562E+03  0.00000000000E+00 0.  1.
         13    1    4    4    0    0 -0.53122331441E+02  0.79531094078E+02  0.53301889952E+03  0.54153146194E+03  0.00000000000E+00 0. -1.
         21    1    1    2  503  502 -0.28378360651E+02 -0.69410863806E+01  0.99593957875E+02  0.10379049320E+03  0.00000000000E+00 0.  1.
          1    1    1    2  501    0  0.11717580131E+03 -0.25062319335E+03  0.32627425133E+03  0.42778153366E+03  0.00000000000E+00 0. -1.
<scales pt_clust_5="13000.00000" pt_clust_6="13000.00000" pt_clust_7="13000.00000" pt_clust_8="13000.00000" pt_clust_9="29.21489" pt_clust_10="274.65076"></scales>
<clustering>
<clus scale="   29.215">  1  9  2 -1</clus>
<clus scale="   78.740">  5  6 -1 -1</clus>
<clus scale="   90.936">  7  8 -1 -1</clus>
<clus scale="  111.798">  1  5  2 -1</clus>
<clus scale="  274.651">  2 10  1 -1</clus>
<clus scale="  274.651">  2  5  1 -1</clus>
</clustering>
</event>
<event>
10    4  0.2977685E-005  0.1800553E+03  0.7546771E-02  0.1168851E+00
         21   -1    0    0  503  502  0.00000000000E+00  0.00000000000E+00  0.81569099249E+02  0.81569099249E+02  0.00000000000E+00 0.  1.
         -3   -1    0    0    0  501 -0.00000000000E+00 -0.00000000000E+00 -0.67288525152E+03  0.67288525152E+03  0.00000000000E+00 0.  1.
         24    2    1    2    0    0  0.46926731929E+02 -0.12556144987E+03 -0.23694384369E+03  0.28417376267E+03  0.81514087528E+02 0.  0.
         23    2    1    2    0    0 -0.81441805142E+02  0.16980916082E+03 -0.27019806152E+03  0.34163814446E+03  0.90783867370E+02 0.  0.
        -11    1    3    3    0    0  0.19999245526E+02 -0.70278184318E+01 -0.94812633267E+02  0.97153463554E+02  0.00000000000E+00 0.  1.
         12    1    3    3    0    0  0.26927486403E+02 -0.11853363144E+03 -0.14213121043E+03  0.18702029912E+03  0.00000000000E+00 0. -1.
        -11    1    4    4    0    0 -0.17591586341E+02  0.71966345132E+02 -0.17801816377E+03  0.19281878895E+03  0.00000000000E+00 0. -1.
         11    1    4    4    0    0 -0.63850218801E+02  0.97842815689E+02 -0.92179897751E+02  0.14881935550E+03  0.00000000000E+00 0.  1.
         21    1    1    2  503  501 -0.50322409450E+01  0.20382897160E+02 -0.23982372531E+02  0.31873815865E+02  0.00000000000E+00 0.  1.
         -4    1    1    2    0  502  0.39547314158E+02 -0.64630608112E+02 -0.60191874525E+02  0.96768627772E+02  0.00000000000E+00 0.  1.
<scales pt_clust_5="13000.00000" pt_clust_6="13000.00000" pt_clust_7="13000.00000" pt_clust_8="13000.00000" pt_clust_9="20.99490" pt_clust_10="71.07072"></scales>
<clustering>
<clus scale="   20.995">  1  9  2 -1</clus>
<clus scale="   71.071">  1 10  2 -1</clus>
<clus scale="   81.514">  5  6 -1 -1</clus>
<clus scale="   90.784">  7  8 -1 -1</clus>
<clus scale="  175.564">  2  5  1 -1</clus>
<clus scale="   20.995">  1  5  2 -1</clus>
</clustering>
</event>
<event>
10    4  0.2977685E-005  0.1976374E+03  0.7546771E-02  0.1166301E+00
         21   -1    0    0  501  502  0.00000000000E+00  0.00000000000E+00  0.20138844718E+03  0.20138844718E+03  0.00000000000E+00 0. -1.
          2   -1    0    0  503    0 -0.00000000000E+00 -0.00000000000E+00 -0.10504785485E+04  0.10504785485E+04  0.00000000000E+00 0. -1.
         23    2    1    2    0    0  0.93449021020E+02 -0.43025274211E+02  0.57127573528E+02  0.14889571317E+03  0.91227627356E+02 0.  0.
         24    2    1    2    0    0 -0.10110847560E+03 -0.16152267659E+03 -0.84412459891E+02  0.22523499513E+03  0.85398130861E+02 0.  0.
        -11    1    4    4    0    0  0.36654645689E+01 -0.67335237599E+02 -0.20119257989E+02  0.70372255862E+02  0.00000000000E+00 0.  1.
         12    1    4    4    0    0 -0.10477394017E+03 -0.94187438995E+02 -0.64293201903E+02  0.15486273927E+03  0.00000000000E+00 0. -1.
        -13    1    3    3    0    0  0.16341138858E+02 -0.56657814055E+02  0.28810007209E+02  0.65628935905E+02  0.00000000000E+00 0. -1.
         13    1    3    3    0    0  0.77107882162E+02  0.13632539844E+02  0.28317566319E+02  0.83266777266E+02  0.00000000000E+00 0.  1.
         21    1    1    2  503  502  0.67285463115E+02  0.15225639989E+02 -0.45925332553E+03  0.46440582541E+03  0.00000000000E+00 0. -1.
          1    1    1    2  501    0 -0.59626008532E+02  0.18932231082E+03 -0.36255188942E+03  0.41333046197E+03  0.00000000000E+00 0. -1.
<scales pt_clust_5="13000.00000" pt_clust_6="13000.00000" pt_clust_7="13000.00000" pt_clust_8="13000.00000" pt_clust_9="68.98662" pt_clust_10="178.23507"></scales>
<clustering>
<clus scale="   68.987">  2  9  1 -1</clus>
<clus scale="   85.398">  5  6 -1 -1</clus>
<clus scale="   91.228">  7  8 -1 -1</clus>
<clus scale="  140.760">  2  7  1 -1</clus>
<clus scale="  178.235">  1 10  2 -1</clus>
<clus scale="  178.235">  1  5  2 -1</clus>
</clustering>
</event>
<event>
10    4  0.2977685E-005  0.1664912E+03  0.7546771E-02  0.1201594E+00
         21   -1    0    0  501  502  0.00000000000E+00  0.00000000000E+00  0.63661659809E+02  0.63661659809E+02  0.00000000000E+00 0.  1.
          2   -1    0    0  503    0 -0.00000000000E+00 -0.00000000000E+00 -0.16611816281E+04  0.16611816281E+04  0.00000000000E+00 0. -1.
         23    2    1    2    0    0 -0.61135133108E+02  0.54810040825E+02 -0.60224084317E+02  0.12322415157E+03  0.69394568396E+02 0.  0.
         24    2    1    2    0    0 -0.13041899694E+03  0.14519302330E+02 -0.56405980519E+03  0.58485920505E+03  0.81712306306E+02 0.  0.
        -13    1    4    4    0    0 -0.56999580787E+02  0.31299076780E+02 -0.14264908266E+03  0.15677163392E+03  0.00000000000E+00 0.  1.
         14    1    4    4    0    0 -0.73419416153E+02 -0.16779774450E+02 -0.42141072252E+03  0.42808757113E+03  0.00000000000E+00 0. -1.
        -13    1    3    3    0    0 -0.88297779178E+01  0.51901455096E+02 -0.43318143148E+02  0.68177617625E+02  0.00000000000E+00 0.  1.
         13    1    3    3    0    0 -0.52305355190E+02  0.29085857281E+01 -0.16905941169E+02  0.55046533944E+02  0.00000000000E+00 0. -1.
         21    1    1    2  503  502  0.38536204351E+02 -0.99887059508E+02 -0.63883885336E+03  0.64774805616E+03  0.00000000000E+00 0. -1.
          1    1    1    2  501    0  0.15301792570E+03  0.30557716353E+02 -0.33439722547E+03  0.36901187517E+03  0.00000000000E+00 0. -1.
<scales pt_clust_5="13000.00000" pt_clust_6="13000.00000" pt_clust_7="13000.00000" pt_clust_8="13000.00000" pt_clust_9="107.06290" pt_clust_10="145.06010"></scales>
<clustering>
<clus scale="   69.395">  7  8 -1 -1</clus>
<clus scale="   81.712">  5  6 -1 -1</clus>
<clus scale="  107.063">  2  9  1 -1</clus>
<clus scale="  107.063">  2  7  1 -1</clus>
<clus scale="  145.060">  1 10  2 -1</clus>
<clus scale="  145.060">  1  5  2 -1</clus>
</clustering>
</event>
<event>
10    4  0.2977685E-005  0.2612838E+03  0.7546771E-02  0.1117224E+00
         -1   -1    0    0    0  501 -0.00000000000E+00  0.00000000000E+00  0.77051831071E+03  0.77051831071E+03  0.00000000000E+00 0.  1.
         21   -1    0    0  503  502  0.00000000000E+00 -0.00000000000E+00 -0.30121741716E+03  0.30121741716E+03  0.00000000000E+00 0. -1.
         23    2    1    2    0    0 -0.26309964955E+02 -0.24412723895E+03  0.16053088150E+03  0.30778619134E+03  0.93122782459E+02 0.  0.
         24    2    1    2    0    0 -0.18214008087E+03  0.87098898039E+02 -0.70452636416E+02  0.22702978366E+03  0.76273990262E+02 0.  0.
        -11    1    4    4    0    0 -0.57688578100E+02  0.40588428477E+01  0.75204253514E+01  0.58318119362E+02  0.00000000000E+00 0.  1.
         12    1    4    4    0    0 -0.12445150277E+03  0.83040055191E+02 -0.77973061768E+02  0.16871166430E+03  0.00000000000E+00 0. -1.
        -11    1    3    3    0    0 -0.61414224788E+02 -0.14635747845E+03  0.96091976813E+02  0.18554214214E+03  0.00000000000E+00 0.  1.
         11    1    3    3    0    0  0.35104259833E+02 -0.97769760506E+02  0.64438904688E+02  0.12224404920E+03  0.00000000000E+00 0. -1.
         21    1    1    2  503  501  0.18545834341E+03  0.18621094295E+03  0.41112668958E+03  0.48794924664E+03  0.00000000000E+00 0.  1.
         -2    1    1    2    0  502  0.22991702417E+02 -0.29182602037E+02 -0.31904041112E+02  0.48970506236E+02  0.00000000000E+00 0.  1.
<scales pt_clust_5="13000.00000" pt_clust_6="13000.00000" pt_clust_7="13000.00000" pt_clust_8="13000.00000" pt_clust_9="244.12570" pt_clust_10="37.15162"></scales>
<clustering>
<clus scale="   37.152">  2 10  1 -1</clus>
<clus scale="   76.274">  5  6 -1 -1</clus>
<clus scale="   93.123">  7  8 -1 -1</clus>
<clus scale="  198.372">  2  5  1 -1</clus>
<clus scale="  244.126">  1  9  2 -1</clus>
<clus scale="   37.152">  2  5  1 -1</clus>
</clustering>
</event>
<event>
10    4  0.2977685E-005  0.2028463E+03  0.7546771E-02  0.1148085E+00
         -3   -1    0    0    0  501 -0.00000000000E+00  0.00000000000E+00  0.27696889936E+03  0.27696889936E+03  0.00000000000E+00 0.  1.
         21   -1    0    0  503  502  0.00000000000E+00 -0.00000000000E+00 -0.54002671091E+03  0.54002671091E+03  0.00000000000E+00 0.  1.
         23    2    1    2    0    0 -0.20492049287E+02 -0.15970801020E+03  0.10108275832E+03  0.21131124510E+03  0.92239610101E+02 0.  0.
         24    2    1    2    0    0 -0.50736249898E+02  0.16417216556E+03 -0.43185886832E+03  0.47237820473E+03  0.84335159706E+02 0.  0.
        -11    1    4    4    0    0 -0.64846433720E+02  0.70125975296E+02 -0.23798875426E+03  0.25643977759E+03  0.00000000000E+00 0.  1.
         12    1    4    4    0    0  0.14110183821E+02  0.94046190267E+02 -0.19387011406E+03  0.21593842714E+03  0.00000000000E+00 0. -1.
        -13    1    3    3    0    0 -0.20233968653E+02 -0.25114169401E+01  0.35590600453E+02  0.41017210328E+02  0.00000000000E+00 0. -1.
         13    1    3    3    0    0 -0.25808063415E+00 -0.15719659326E+03  0.65492157870E+02  0.17029403478E+03  0.00000000000E+00 0.  1.
         21    1    1    2  503  501  0.59879258972E+02 -0.34630676633E+02  0.13870240230E+02  0.70549223830E+02  0.00000000000E+00 0. -1.
         -4    1    1    2    0  502  0.11349040214E+02  0.30166521268E+02  0.53848058213E+02  0.62756936608E+02  0.00000000000E+00 0.  1.
<scales pt_clust_5="13000.00000" pt_clust_6="13000.00000" pt_clust_7="13000.00000" pt_clust_8="13000.00000" pt_clust_9="68.91356" pt_clust_10="32.23074"></scales>
<clustering>
<clus scale="   32.231">  2 10  1 -1</clus>
<clus scale="   68.914">  1  9  2 -1</clus>
<clus scale="   84.335">  5  6 -1 -1</clus>
<clus scale="   92.240">  7  8 -1 -1</clus>
<clus scale="  199.376">  2  5  1 -1</clus>
<clus scale="   32.231">  2  5  1 -1</clus>
</clustering>
</event>
<event>
10    4  0.2977685E-005  0.1138429E+03  0.7546771E-02  0.1257132E+00
         21   -1    0    0  501  502  0.00000000000E+00  0.00000000000E+00  0.48771801758E+02  0.48771801758E+02  0.00000000000E+00 0. -1.
          2   -1    0    0  503    0 -0.00000000000E+00 -0.00000000000E+00 -0.68553217728E+03  0.68553217728E+03  0.00000000000E+00 0. -1.
         24    2    1    2    0    0 -0.58620305040E+02  0.93529326763E+02 -0.21851727215E+03  0.25758263016E+03  0.80093308118E+02 0.  0.
         23    2    1    2    0    0  0.36579082317E+02 -0.50781053275E+01 -0.92950487667E+02  0.13455191379E+03  0.90003377328E+02 0.  0.
        -11    1    3    3    0    0 -0.13049025159E+02  0.89118514916E+02 -0.15528015311E+03  0.17951131638E+03  0.00000000000E+00 0.  1.
         12    1    3    3    0    0 -0.45571279881E+02  0.44108118473E+01 -0.63237119033E+02  0.78071313776E+02  0.00000000000E+00 0. -1.
        -11    1    4    4    0    0  0.53573349617E+02  0.86263641672E+01 -0.98112289525E+02  0.11211841643E+03  0.00000000000E+00 0. -1.
         11    1    4    4    0    0 -0.16994267301E+02 -0.13704469495E+02  0.51618018584E+01  0.22433497356E+02  0.00000000000E+00 0.  1.
         21    1    1    2  503  502 -0.14227814211E+02 -0.20531765993E+02 -0.44720741303E+02  0.51224299065E+02  0.00000000000E+00 0.  1.
          1    1    1    2  501    0  0.36269036934E+02 -0.67919455442E+02 -0.28057187440E+03  0.29094513602E+03  0.00000000000E+00 0. -1.
<scales pt_clust_5="13000.00000" pt_clust_6="13000.00000" pt_clust_7="13000.00000" pt_clust_8="13000.00000" pt_clust_9="24.97967" pt_clust_10="82.71235"></scales>
<clustering>
<clus scale="   24.980">  2  9  1 -1</clus>
<clus scale="   80.093">  5  6 -1 -1</clus>
<clus scale="   82.712">  1 10  2 -1</clus>
<clus scale="   90.003">  7  8 -1 -1</clus>
<clus scale="  106.182">  2  5  1 -1</clus>
<clus scale="   82.712">  1  5  2 -1</clus>
</clustering>
</event>
<event>
10    4  0.2977685E-005  0.2027462E+03  0.7546771E-02  0.1148420E+00
          2   -1    0    0  503    0 -0.00000000000E+00  0.00000000000E+00  0.64526358069E+03  0.64526358069E+03  0.00000000000E+00 0. -1.
         21   -1    0    0  501  502  0.00000000000E+00 -0.00000000000E+00 -0.22019927336E+03  0.22019927336E+03  0.00000000000E+00 0.  1.
         24    2    1    2    0    0 -0.14126765996E+03  0.15749344512E+03  0.48556826705E+03  0.53562761999E+03  0.79747528605E+02 0.  0.
         23    2    1    2    0    0  0.62955261557E+02 -0.12187092589E+03 -0.10268380807E+03  0.19387239911E+03  0.90700910472E+02 0.  0.
        -11    1    3    3    0    0 -0.22141121795E+02  0.81080859007E+02  0.16363002132E+03  0.18395412158E+03  0.00000000000E+00 0.  1.
         12    1    3    3    0    0 -0.11912653817E+03  0.76412586118E+02  0.32193824574E+03  0.35167349841E+03  0.00000000000E+00 0. -1.
        -11    1    4    4    0    0  0.42268478359E+02 -0.10382637666E+03 -0.11773411048E+03  0.16256648339E+03  0.00000000000E+00 0.  1.
         11    1    4    4    0    0  0.20686783198E+02 -0.18044549228E+02  0.15050302408E+02  0.31305915711E+02  0.00000000000E+00 0. -1.
         21    1    1    2  503  502  0.13835780640E+01 -0.34292623799E+02  0.47768913931E+02  0.58819788111E+02  0.00000000000E+00 0.  1.
          1    1    1    2  501    0  0.76928820343E+02 -0.13298954387E+01 -0.55890655867E+01  0.77143046838E+02  0.00000000000E+00 0. -1.
<scales pt_clust_5="13000.00000" pt_clust_6="13000.00000" pt_clust_7="13000.00000" pt_clust_8="13000.00000" pt_clust_9="34.32052" pt_clust_10="77.08756"></scales>
<clustering>
<clus scale="   34.321">  1  9  2 -1</clus>
<clus scale="   77.088">  2 10  1 -1</clus>
<clus scale="   79.748">  5  6 -1 -1</clus>
<clus scale="   90.701">  7  8 -1 -1</clus>
<clus scale="  198.088">  1  5  2 -1</clus>
<clus scale="   77.088">  2  5  1 -1</clus>
</clustering>
</event>
<event>
10    4  0.2977685E-005  0.2154767E+03  0.7546771E-02  0.1156849E+00
         21   -1    0    0  501  502  0.00000000000E+00  0.00000000000E+00  0.10568016402E+03  0.10568016402E+03  0.00000000000E+00 0. -1.
          2   -1    0    0  503    0 -0.00000000000E+00 -0.00000000000E+00 -0.16666360736E+04  0.16666360736E+04  0.00000000000E+00 0. -1.
         23    2    1    2    0    0  0.64244688895E+02 -0.78822318023E+02 -0.20995960679E+03  0.25125885381E+03  0.93314721587E+02 0.  0.
         24    2    1    2    0    0 -0.17285640514E+03 -0.12926473657E+03 -0.10876801102E+04  0.11120088129E+04  0.83227814255E+02 0.  0.
        -11    1    4    4    0    0 -0.30854165219E+02 -0.42975844478E+02 -0.13592975418E+03  0.14586226651E+03  0.00000000000E+00 0.  1.
         12    1    4    4    0    0 -0.14200223992E+03 -0.86288892096E+02 -0.95175035598E+03  0.96614654642E+03  0.00000000000E+00 0. -1.
        -13    1    3    3    0    0  0.69943364486E+02 -0.57354867725E+02 -0.84279676459E+02  0.12363138336E+03  0.00000000000E+00 0.  1.
         13    1    3    3    0    0 -0.56986755904E+01 -0.21467450298E+02 -0.12567993033E+03  0.12762747045E+03  0.00000000000E+00 0. -1.
         21    1    1    2  503  502  0.70822044303E+01  0.37612315074E+02 -0.19572739699E+03  0.19943434458E+03  0.00000000000E+00 0.  1.
          1    1    1    2  501    0  0.10152951182E+03  0.17047473952E+03 -0.67588795670E+02  0.20961422634E+03  0.00000000000E+00 0. -1.
<scales pt_clust_5="13000.00000" pt_clust_6="13000.00000" pt_clust_7="13000.00000" pt_clust_8="13000.00000" pt_clust_9="38.27328" pt_clust_10="198.75446"></scales>
<clustering>
<clus scale="   38.273">  2  9  1 -1</clus>
<clus scale="   83.228">  5  6 -1 -1</clus>
<clus scale="   93.315">  7  8 -1 -1</clus>
<clus scale="  135.263">  2  7  1 -1</clus>
<clus scale="  198.754">  1 10  2 -1</clus>
<clus scale="  198.754">  1  5  2 -1</clus>
</clustering>
</event>
<event>
10    4  0.2977685E-005  0.1695513E+03  0.7546771E-02  0.1209699E+00
          2   -1    0    0  503    0 -0.00000000000E+00  0.00000000000E+00  0.94379578739E+02  0.94379578739E+02  0.00000000000E+00 0. -1.
         21   -1    0    0  501  502  0.00000000000E+00 -0.00000000000E+00 -0.10359431328E+04  0.10359431328E+04  0.00000000000E+00 0. -1.
         24    2    1    2    0    0  0.21454492221E+02  0.15618408515E+02 -0.62127145128E+03  0.62704526138E+03  0.80643125705E+02 0.  0.
         23    2    1    2    0    0 -0.71616377891E+02  0.83182740201E+02 -0.40073578673E+02  0.14769015693E+03  0.90322848141E+02 0.  0.
        -11    1    3    3    0    0  0.14575587060E+02 -0.28234550441E+02 -0.13226257735E+03  0.13602583190E+03  0.00000000000E+00 0.  1.
         12    1    3    3    0    0  0.68789051616E+01  0.43852958956E+02 -0.48900887393E+03  0.49101942948E+03  0.00000000000E+00 0. -1.
        -11    1    4    4    0    0  0.85996514703E+01  0.57181438708E+02 -0.16426204525E+02  0.60112320977E+02  0.00000000000E+00 0. -1.
         11    1    4    4    0    0 -0.80216029361E+02  0.26001301493E+02 -0.23647374148E+02  0.87577835951E+02  0.00000000000E+00 0.  1.
         21    1    1    2  503  502 -0.11322007427E+02  0.53319823062E+02 -0.78418286308E+02  0.95501931975E+02  0.00000000000E+00 0. -1.
          1    1    1    2  501    0  0.61483893096E+02 -0.15212097178E+03 -0.20180023782E+03  0.26008536127E+03  0.00000000000E+00 0. -1.
<scales pt_clust_5="13000.00000" pt_clust_6="13000.00000" pt_clust_7="13000.00000" pt_clust_8="13000.00000" pt_clust_9="54.50864" pt_clust_10="143.49021"></scales>
<clustering>
<clus scale="   54.509">  1  9  2 -1</clus>
<clus scale="   80.643">  5  6 -1 -1</clus>
<clus scale="   85.150">  1  5  2 -1</clus>
<clus scale="   90.323">  7  8 -1 -1</clus>
<clus scale="  143.490">  2 10  1 -1</clus>
<clus scale="  143.490">  2  5  1 -1</clus>
</clustering>
</event>
<event>
10    4  0.2977685E-005  0.9593623E+02  0.7546771E-02  0.1297147E+00
          2   -1    0    0  503    0 -0.00000000000E+00  0.00000000000E+00  0.19263791343E+03  0.19263791343E+03  0.00000000000E+00 0. -1.
         21   -1    0    0  501  502  0.00000000000E+00 -0.00000000000E+00 -0.25885540927E+03  0.25885540927E+03  0.00000000000E+00 0.  1.
         23    2    1    2    0    0 -0.32949762720E+02 -0.74685670741E+01 -0.11723194702E+02  0.99678884996E+02  0.93042895820E+02 0.  0.
         24    2    1    2    0    0 -0.47680743421E+02  0.38271803796E+02 -0.16296113567E+03  0.19121059930E+03  0.79164242479E+02 0.  0.
        -11    1    4    4    0    0 -0.14095072323E+02 -0.22991195333E+02 -0.69298599440E+02  0.74361024811E+02  0.00000000000E+00 0.  1.
         12    1    4    4    0    0 -0.33585671098E+02  0.61262999129E+02 -0.93662536230E+02  0.11684957449E+03  0.00000000000E+00 0. -1.
        -13    1    3    3    0    0  0.26603902319E+02 -0.35301275465E+01 -0.27002358005E+02  0.38070418397E+02  0.00000000000E+00 0.  1.
         13    1    3    3    0    0 -0.59553665039E+02 -0.39384395277E+01  0.15279163303E+02  0.61608466599E+02  0.00000000000E+00 0. -1.
         21    1    1    2  503  502  0.33589622378E+01 -0.29333498940E+02  0.27552036777E+01  0.29653464126E+02  0.00000000000E+00 0. -1.
          1    1    1    2  501    0  0.77271543903E+02 -0.14697377820E+01  0.10571163086E+03  0.13095037428E+03  0.00000000000E+00 0. -1.
<scales pt_clust_5="13000.00000" pt_clust_6="13000.00000" pt_clust_7="13000.00000" pt_clust_8="13000.00000" pt_clust_9="29.52519" pt_clust_10="82.28708"></scales>
<clustering>
<clus scale="   29.525">  1  9  2 -1</clus>
<clus scale="   79.164">  5  6 -1 -1</clus>
<clus scale="   82.287">  2 10  1 -1</clus>
<clus scale="   82.545">  2  5  1 -1</clus>
<clus scale="   93.043">  7  8 -1 -1</clus>
<clus scale="   82.287">  2  5  1 -1</clus>
</clustering>
</event>
<event>
10    4  0.2977685E-005  0.3043910E+03  0.7546771E-02  0.1102426E+00
          2   -1    0    0  503    0 -0.00000000000E+00  0.00000000000E+00  0.68884288543E+03  0.68884288543E+03  0.00000000000E+00 0. -1.
         21   -1    0    0  501  502  0.00000000000E+00 -0.00000000000E+00 -0.58865487606E+03  0.58865487606E+03  0.00000000000E+00 0. -1.
         24    2    1    2    0    0  0.13917165592E+02 -0.15723668031E+03  0.23008390344E+03  0.29041002577E+03  0.80512851833E+02 0.  0.
         23    2    1    2    0    0  0.15893027417E+03 -0.61539178132E+02  0.33099930182E+03  0.38588764504E+03  0.10150287829E+03 0.  0.
        -13    1    3    3    0    0 -0.13638377574E+02 -0.34582098409E+02  0.11172684561E+03  0.11774894863E+03  0.00000000000E+00 0.  1.
         14    1    3    3    0    0  0.27555543166E+02 -0.12265458190E+03  0.11835705783E+03  0.17266107714E+03  0.00000000000E+00 0. -1.
        -13    1    4    4    0    0  0.84224253771E+02 -0.46782468012E+02  0.85372320054E+02  0.12872745344E+03  0.00000000000E+00 0.  1.
         13    1    4    4    0    0  0.74706020400E+02 -0.14756710119E+02  0.24562698176E+03  0.25716019161E+03  0.00000000000E+00 0. -1.
         21    1    1    2  503  502  0.22360852813E+02 -0.13874396705E+02  0.19573342343E+02  0.32796682041E+02  0.00000000000E+00 0.  1.
          1    1    1    2  501    0 -0.19520829258E+03  0.23265025514E+03 -0.48046853824E+03  0.56840340863E+03  0.00000000000E+00 0. -1.
<scales pt_clust_5="13000.00000" pt_clust_6="13000.00000" pt_clust_7="13000.00000" pt_clust_8="13000.00000" pt_clust_9="26.31552" pt_clust_10="286.96877"></scales>
<clustering>
<clus scale="   26.316">  1  9  2 -1</clus>
<clus scale="   80.513">  5  6 -1 -1</clus>
<clus scale="  101.503">  7  8 -1 -1</clus>
<clus scale="  182.932">  1  5  2 -1</clus>
<clus scale="  286.969">  2 10  1 -1</clus>
<clus scale="  286.969">  2  5  1 -1</clus>
</clustering>
</event>
<event>
10    4  0.2977685E-005  0.2700801E+03  0.7546771E-02  0.1101526E+00
          2   -1    0    0  503    0 -0.00000000000E+00  0.00000000000E+00  0.26454424358E+03  0.26454424358E+03  0.00000000000E+00 0. -1.
         21   -1    0    0  501  502  0.00000000000E+00 -0.00000000000E+00 -0.49521691557E+03  0.49521691557E+03  0.00000000000E+00 0. -1.
         24    2    1    2    0    0 -0.85904962074E+02  0.27650681432E+03 -0.77123846178E+02  0.31077965854E+03  0.82463492757E+02 0.  0.
         23    2    1    2    0    0  0.11629645513E+03 -0.19778341956E+03 -0.95345111194E+02  0.26387365397E+03  0.88856448861E+02 0.  0.
        -13    1    3    3    0    0 -0.63998142611E+02  0.77326352482E+02 -0.19207296276E+02  0.10219612163E+03  0.00000000000E+00 0.  1.
         14    1    3    3    0    0 -0.21906819463E+02  0.19918046183E+03 -0.57916549902E+02  0.20858353691E+03  0.00000000000E+00 0. -1.
        -11    1    4    4    0    0  0.56465757285E+02 -0.15921565637E+03 -0.39733400947E+02  0.17354178209E+03  0.00000000000E+00 0. -1.
         11    1    4    4    0    0  0.59830697840E+02 -0.38567763189E+02 -0.55611710247E+02  0.90331871884E+02  0.00000000000E+00 0.  1.
         21    1    1    2  503  502 -0.76006081897E+01 -0.52291350414E+02  0.49185400318E+02  0.72189737341E+02  0.00000000000E+00 0.  1.
          1    1    1    2  501    0 -0.22790884862E+02 -0.26432044345E+02 -0.10738911494E+03  0.11291810930E+03  0.00000000000E+00 0. -1.
<scales pt_clust_5="13000.00000" pt_clust_6="13000.00000" pt_clust_7="13000.00000" pt_clust_8="13000.00000" pt_clust_9="53.72302" pt_clust_10="34.90097"></scales>
<clustering>
<clus scale="   34.901">  2 10  1 -1</clus>
<clus scale="   53.723">  1  9  2 -1</clus>
<clus scale="   82.463">  5  6 -1 -1</clus>
<clus scale="   88.856">  7  8 -1 -1</clus>
<clus scale="  268.045">  1  5  2 -1</clus>
<clus scale="   34.901">  2  5  1 -1</clus>
</clustering>
</event>
<event>
10    4  0.2977685E-005  0.1160185E+03  0.7546771E-02  0.1253966E+00
          2   -1    0    0  503    0 -0.00000000000E+00  0.00000000000E+00  0.61441885025E+02  0.61441885025E+02  0.00000000000E+00 0. -1.
         21   -1    0    0  501  502  0.00000000000E+00 -0.00000000000E+00 -0.60225162876E+03  0.60225162876E+03  0.00000000000E+00 0. -1.
         23    2    1    2    0    0  0.94821052617E+02 -0.56827776386E+02 -0.28082882292E+03  0.31565689421E+03  0.92487939172E+02 0.  0.
         24    2    1    2    0    0  0.23804872993E+01  0.57410594269E+02 -0.19653978105E+03  0.22007197286E+03  0.80635876926E+02 0.  0.
        -13    1    4    4    0    0  0.38692774527E+02  0.11888721595E+02 -0.89198710979E+02  0.97953471312E+02  0.00000000000E+00 0.  1.
         14    1    4    4    0    0 -0.36312287228E+02  0.45521872674E+02 -0.10734107007E+03  0.12211850155E+03  0.00000000000E+00 0. -1.
        -11    1    3    3    0    0  0.48867077775E+02 -0.35338263154E+02 -0.24800931567E+03  0.25523597864E+03  0.00000000000E+00 0. -1.
         11    1    3    3    0    0  0.45953974842E+02 -0.21489513231E+02 -0.32819507256E+02  0.60420915577E+02  0.00000000000E+00 0.  1.
         21    1    1    2  503  502 -0.55448293224E+02  0.48447980463E+01 -0.49279211775E+01  0.55877273526E+02  0.00000000000E+00 0. -1.
          1    1    1    2  501    0 -0.41753246693E+02 -0.54276159297E+01 -0.58513218583E+02  0.72087373187E+02  0.00000000000E+00 0. -1.
<scales pt_clust_5="13000.00000" pt_clust_6="13000.00000" pt_clust_7="13000.00000" pt_clust_8="13000.00000" pt_clust_9="57.99019" pt_clust_10="42.10457"></scales>
<clustering>
<clus scale="   42.105">  2 10  1 -1</clus>
<clus scale="   57.990">  1  9  2 -1</clus>
<clus scale="   80.636">  5  6 -1 -1</clus>
<clus scale="   92.488">  7  8 -1 -1</clus>
<clus scale="  106.810">  2  5  1 -1</clus>
<clus scale="   42.105">  2  5  1 -1</clus>
</clustering>
</event>
<event>
10    4  0.3192017E-005  0.1240233E+03  0.7546771E-02  0.1239831E+00
         -3   -1    0    0    0  501 -0.00000000000E+00  0.00000000000E+00  0.31899618119E+03  0.31899618119E+03  0.00000000000E+00 0.  1.
         21   -1    0    0  503  502  0.00000000000E+00 -0.00000000000E+00 -0.16303027689E+03  0.16303027689E+03  0.00000000000E+00 0.  1.
         24    2    1    2    0    0  0.52729532036E+02  0.46871915366E+02  0.21721992499E+03  0.24256456669E+03  0.81704915405E+02 0.  0.
         23    2    1    2    0    0 -0.79965658709E+02 -0.42844127845E+02 -0.49740974563E+01  0.12971334810E+03  0.92577995042E+02 0.  0.
        -13    1    3    3    0    0  0.17019051466E+02  0.36070993944E+02  0.19522069190E+03  0.19925331431E+03  0.00000000000E+00 0.  1.
         14    1    3    3    0    0  0.35710480571E+02  0.10800921422E+02  0.21999233089E+02  0.43311252379E+02  0.00000000000E+00 0. -1.
        -11    1    4    4    0    0 -0.39801676387E+02  0.20677487591E+02  0.21881269602E+02  0.49905128952E+02  0.00000000000E+00 0.  1.
         11    1    4    4    0    0 -0.40163982322E+02 -0.63521615437E+02 -0.26855367058E+02  0.79808219148E+02  0.00000000000E+00 0. -1.
         21    1    1    2  503  501  0.10980587950E+01  0.20374994061E+02  0.18064072610E+02  0.27251730869E+02  0.00000000000E+00 0. -1.
         -4    1    1    2    0  502  0.26138067878E+02 -0.24402781582E+02 -0.74343995843E+02  0.82496812419E+02  0.00000000000E+00 0.  1.
<scales pt_clust_5="13000.00000" pt_clust_6="13000.00000" pt_clust_7="13000.00000" pt_clust_8="13000.00000" pt_clust_9="20.40456" pt_clust_10="35.57926"></scales>
<clustering>
<clus scale="   20.405">  1  9  2 -1</clus>
<clus scale="   35.579">  2 10  1 -1</clus>
<clus scale="   81.705">  5  6 -1 -1</clus>
<clus scale="   92.578">  7  8 -1 -1</clus>
<clus scale="  116.133">  1  5  2 -1</clus>
<clus scale="   35.579">  2  5  1 -1</clus>
</clustering>
</event>
<event>
10    4  0.2977685E-005  0.1030875E+03  0.7546771E-02  0.1278804E+00
         21   -1    0    0  501  502  0.00000000000E+00  0.00000000000E+00  0.16542547428E+03  0.16542547428E+03  0.00000000000E+00 0. -1.
          2   -1    0    0  503    0 -0.00000000000E+00 -0.00000000000E+00 -0.65625573115E+03  0.65625573115E+03  0.00000000000E+00 0. -1.
         23    2    1    2    0    0 -0.78525335900E+01  0.65275219005E+02 -0.50409308128E+03  0.51650161683E+03  0.91332190901E+02 0.  0.
         24    2    1    2    0    0  0.58295844763E+01 -0.24574611205E+02  0.38545717227E+02  0.93045900581E+02  0.80832368067E+02 0.  0.
        -11    1    4    4    0    0 -0.20296656524E+02 -0.34822684656E+02 -0.56424254583E+01  0.40699024531E+02  0.00000000000E+00 0.  1.
         12    1    4    4    0    0  0.26126241000E+02  0.10248073451E+02  0.44188142685E+02  0.52346876050E+02  0.00000000000E+00 0. -1.
        -11    1    3    3    0    0 -0.49284179951E+02  0.35568335194E+02 -0.24369644747E+03  0.25116129354E+03  0.00000000000E+00 0.  1.
         11    1    3    3    0    0  0.41431646361E+02  0.29706883812E+02 -0.26039663381E+03  0.26534032329E+03  0.00000000000E+00 0. -1.
         21    1    1    2  503  502  0.14826997420E+02 -0.16456886687E+02 -0.11562252538E+03  0.11772526214E+03  0.00000000000E+00 0.  1.
          1    1    1    2  501    0 -0.12804048307E+02 -0.24243721113E+02  0.90339632557E+02  0.94408425879E+02  0.00000000000E+00 0. -1.
<scales pt_clust_5="13000.00000" pt_clust_6="13000.00000" pt_clust_7="13000.00000" pt_clust_8="13000.00000" pt_clust_9="22.15105" pt_clust_10="27.44605"></scales>
<clustering>
<clus scale="   22.151">  2  9  1 -1</clus>
<clus scale="   27.446">  1 10  2 -1</clus>
<clus scale="   80.832">  5  6 -1 -1</clus>
<clus scale="   91.332">  7  8 -1 -1</clus>
<clus scale="   93.911">  1  5  2 -1</clus>
<clus scale="   27.446">  1  5  2 -1</clus>
</clustering>
</event>
<event>
10    4  0.2977685E-005  0.4614405E+03  0.7546771E-02  0.1040385E+00
          2   -1    0    0  503    0 -0.00000000000E+00  0.00000000000E+00  0.75853857891E+03  0.75853857891E+03  0.00000000000E+00 0. -1.
         21   -1    0    0  501  502  0.00000000000E+00 -0.00000000000E+00 -0.57042672951E+03  0.57042672951E+03  0.00000000000E+00 0.  1.
         23    2    1    2    0    0 -0.23903927719E+02  0.27921274442E+03  0.42923679420E+02  0.29812247226E+03  0.92213945831E+02 0.  0.
         24    2    1    2    0    0 -0.43820619625E+03 -0.13070616618E+03 -0.50620319569E+02  0.46703039716E+03  0.80288248297E+02 0.  0.
        -11    1    4    4    0    0 -0.14493554487E+03 -0.55921968021E+01 -0.24740735745E+02  0.14713833232E+03  0.00000000000E+00 0.  1.
         12    1    4    4    0    0 -0.29327065138E+03 -0.12511396938E+03 -0.25879583824E+02  0.31989206485E+03  0.00000000000E+00 0. -1.
        -13    1    3    3    0    0  0.20467536314E+01  0.16834719066E+03  0.67928743183E+02  0.18154690841E+03  0.00000000000E+00 0.  1.
         13    1    3    3    0    0 -0.25950681350E+02  0.11086555376E+03 -0.25005063763E+02  0.11657556385E+03  0.00000000000E+00 0. -1.
         21    1    1    2  503  502 -0.14864357121E+02 -0.35533397443E+02  0.15851701885E+02  0.41651505364E+02  0.00000000000E+00 0.  1.
          1    1    1    2  501    0  0.47697448109E+03 -0.11297318079E+03  0.17995678766E+03  0.52216093363E+03  0.00000000000E+00 0. -1.
<scales pt_clust_5="13000.00000" pt_clust_6="13000.00000" pt_clust_7="13000.00000" pt_clust_8="13000.00000" pt_clust_9="38.51716" pt_clust_10="454.40218"></scales>
<clustering>
<clus scale="   38.517">  1  9  2 -1</clus>
<clus scale="   80.288">  5  6 -1 -1</clus>
<clus scale="   92.214">  7  8 -1 -1</clus>
<clus scale="  287.481">  1  7  2 -1</clus>
<clus scale="  454.402">  2 10  1 -1</clus>
<clus scale="  454.402">  2  5  1 -1</clus>
</clustering>
</event>
<event>
10    4  0.2977685E-005  0.1431248E+03  0.7546771E-02  0.1220073E+00
         21   -1    0    0  501  502  0.00000000000E+00  0.00000000000E+00  0.23666384365E+03  0.23666384365E+03  0.00000000000E+00 0. -1.
          2   -1    0    0  503    0 -0.00000000000E+00 -0.00000000000E+00 -0.87127613972E+03  0.87127613972E+03  0.00000000000E+00 0. -1.
         24    2    1    2    0    0  0.71544034200E+01  0.90218864946E+02 -0.31327590447E+03  0.33607915899E+03  0.81343590421E+02 0.  0.
         23    2    1    2    0    0 -0.95826316857E+02  0.13018990656E+03  0.12523034361E+03  0.22261379758E+03  0.87989596772E+02 0.  0.
        -13    1    3    3    0    0  0.33150756490E+02  0.44638035935E+02 -0.23741378890E+03  0.24383772077E+03  0.00000000000E+00 0.  1.
         14    1    3    3    0    0 -0.25996353070E+02  0.45580829011E+02 -0.75862115569E+02  0.92241438220E+02  0.00000000000E+00 0. -1.
        -13    1    4    4    0    0 -0.89428326730E+02  0.60938110034E+02  0.47123885439E+02  0.11803194252E+03  0.00000000000E+00 0.  1.
         13    1    4    4    0    0 -0.63979901263E+01  0.69251796528E+02  0.78106458170E+02  0.10458185506E+03  0.00000000000E+00 0. -1.
         21    1    1    2  503  502  0.81204005527E+00 -0.15077780605E+03 -0.40068373713E+03  0.42811454473E+03  0.00000000000E+00 0. -1.
          1    1    1    2  501    0  0.87859873381E+02 -0.69630965456E+02 -0.45882998072E+02  0.12113248207E+03  0.00000000000E+00 0. -1.
<scales pt_clust_5="13000.00000" pt_clust_6="13000.00000" pt_clust_7="13000.00000" pt_clust_8="13000.00000" pt_clust_9="117.76216" pt_clust_10="112.10633"></scales>
<clustering>
<clus scale="   81.344">  5  6 -1 -1</clus>
<clus scale="   87.990">  7  8 -1 -1</clus>
<clus scale="  112.106">  1 10  2 -1</clus>
<clus scale="  113.640">  1  7  2 -1</clus>
<clus scale="  117.762">  1  9  2 -1</clus>
<clus scale="  112.106">  1  5  2 -1</clus>
</clustering>
</event>
<event>
10    4  0.2977685E-005  0.3043518E+03  0.7546771E-02  0.1111683E+00
         21   -1    0    0  501  502  0.00000000000E+00  0.00000000000E+00  0.35524378149E+03  0.35524378149E+03  0.00000000000E+00 0. -1.
          2   -1    0    0  503    0 -0.00000000000E+00 -0.00000000000E+00 -0.89683218652E+03  0.89683218652E+03  0.00000000000E+00 0. -1.
         24    2    1    2    0    0  0.28148408323E+02 -0.12348319450E+03 -0.42831017682E+03  0.45703650229E+03  0.96914006446E+02 0.  0.
         23    2    1    2    0    0 -0.51913395714E+02 -0.22364131110E+03 -0.20120702314E+03  0.31861469701E+03  0.91217445174E+02 0.  0.
        -11    1    3    3    0    0  0.22483082105E+02 -0.11512884270E+03 -0.43092803124E+03  0.44660844989E+03  0.00000000000E+00 0.  1.
         12    1    3    3    0    0  0.56653262182E+01 -0.83543517911E+01  0.26178544260E+01  0.10428052397E+02  0.00000000000E+00 0. -1.
        -13    1    4    4    0    0 -0.14507442879E+02 -0.90125424493E+02 -0.13980994658E+03  0.16697268998E+03  0.00000000000E+00 0.  1.
         13    1    4    4    0    0 -0.37405952835E+02 -0.13351588661E+03 -0.61397076564E+02  0.15164200702E+03  0.00000000000E+00 0. -1.
         21    1    1    2  503  502  0.14550940574E+01  0.36495940795E+02 -0.10425678481E+03  0.11046967082E+03  0.00000000000E+00 0. -1.
          1    1    1    2  501    0  0.22309893334E+02  0.31062856480E+03  0.19218557974E+03  0.36595509788E+03  0.00000000000E+00 0. -1.
<scales pt_clust_5="13000.00000" pt_clust_6="13000.00000" pt_clust_7="13000.00000" pt_clust_8="13000.00000" pt_clust_9="36.52494" pt_clust_10="290.36082"></scales>
<clustering>
<clus scale="   36.525">  2  9  1 -1</clus>
<clus scale="   91.217">  7  8 -1 -1</clus>
<clus scale="   96.914">  5  6 -1 -1</clus>
<clus scale="  144.375">  2  5  1 -1</clus>
<clus scale="  290.361">  1 10  2 -1</clus>
<clus scale="  290.361">  1  5  2 -1</clus>
</clustering>
</event>
<event>
10    4  0.2977685E-005  0.9158218E+02  0.7546771E-02  0.1309020E+00
          2   -1    0    0  503    0 -0.00000000000E+00  0.00000000000E+00  0.33922829169E+03  0.33922829169E+03  0.00000000000E+00 0. -1.
         21   -1    0    0  501  502  0.00000000000E+00 -0.00000000000E+00 -0.33316076405E+03  0.33316076405E+03  0.00000000000E+00 0. -1.
         23    2    1    2    0    0 -0.42400061665E+01  0.15237337644E+02  0.16893084706E+03  0.19180159701E+03  0.89443095977E+02 0.  0.
         24    2    1    2    0    0  0.47611825524E+01 -0.27393394096E+01 -0.13329081089E+03  0.15242464492E+03  0.73733705136E+02 0.  0.
        -11    1    4    4    0    0  0.84611100791E+00 -0.33756601536E+02 -0.10487499249E+03  0.11017707612E+03  0.00000000000E+00 0.  1.
         12    1    4    4    0    0  0.39150715444E+01  0.31017262126E+02 -0.28415818392E+02  0.42247568804E+02  0.00000000000E+00 0. -1.
        -13    1    3    3    0    0  0.34545673139E+02 -0.80540736718E+01  0.12012168763E+03  0.12524971647E+03  0.00000000000E+00 0. -1.
         13    1    3    3    0    0 -0.38785679305E+02  0.23291411316E+02  0.48809159424E+02  0.66551880544E+02  0.00000000000E+00 0.  1.
         21    1    1    2  503  502  0.28163759810E+02 -0.16736546402E+02  0.14629626941E+03  0.14991967114E+03  0.00000000000E+00 0. -1.
          1    1    1    2  501    0 -0.28684936196E+02  0.42385481672E+01 -0.17586877794E+03  0.17824314267E+03  0.00000000000E+00 0. -1.
<scales pt_clust_5="13000.00000" pt_clust_6="13000.00000" pt_clust_7="13000.00000" pt_clust_8="13000.00000" pt_clust_9="32.45033" pt_clust_10="28.99639"></scales>
<clustering>
<clus scale="   28.996">  2 10  1 -1</clus>
<clus scale="   32.450">  1  9  2 -1</clus>
<clus scale="   73.734">  5  6 -1 -1</clus>
<clus scale="   76.314">  2  5  1 -1</clus>
<clus scale="   89.443">  7  8 -1 -1</clus>
<clus scale="   28.996">  2  5  1 -1</clus>
</clustering>
</event>
<event>
10    4  0.2977685E-005  0.2211009E+03  0.7546771E-02  0.1154945E+00
         21   -1    0    0  501  502  0.00000000000E+00  0.00000000000E+00  0.94137852626E+03  0.94137852626E+03  0.00000000000E+00 0. -1.
          2   -1    0    0  503    0 -0.00000000000E+00 -0.00000000000E+00 -0.26488884661E+03  0.26488884661E+03  0.00000000000E+00 0. -1.
         23    2    1    2    0    0 -0.79349382682E+02 -0.54455466071E+02  0.24428356644E+03  0.27819475905E+03  0.91957277089E+02 0.  0.
         24    2    1    2    0    0  0.24314150357E+03  0.24165102876E+02  0.45369067583E+02  0.26152724818E+03  0.81464141158E+02 0.  0.
        -13    1    4    4    0    0  0.46094643459E+02  0.37978407490E+02  0.15949726751E+02  0.61818034380E+02  0.00000000000E+00 0.  1.
         14    1    4    4    0    0  0.19704686011E+03 -0.13813304614E+02  0.29419340832E+02  0.19970921380E+03  0.00000000000E+00 0. -1.
        -13    1    3    3    0    0 -0.14126509138E+02 -0.65361402703E+02  0.11718072023E+03  0.13491846581E+03  0.00000000000E+00 0. -1.
         13    1    3    3    0    0 -0.65222873544E+02  0.10905936632E+02  0.12710284621E+03  0.14327629323E+03  0.00000000000E+00 0.  1.
         21    1    1    2  503  502  0.33445540669E+02 -0.24179562106E+01 -0.11846937861E+03  0.12312369541E+03  0.00000000000E+00 0. -1.
          1    1    1    2  501    0 -0.19723766155E+03  0.32708319405E+02  0.50530642424E+03  0.54342167023E+03  0.00000000000E+00 0. -1.
<scales pt_clust_5="13000.00000" pt_clust_6="13000.00000" pt_clust_7="13000.00000" pt_clust_8="13000.00000" pt_clust_9="33.53283" pt_clust_10="205.54615"></scales>
<clustering>
<clus scale="   33.533">  2  9  1 -1</clus>
<clus scale="   81.464">  5  6 -1 -1</clus>
<clus scale="   91.957">  7  8 -1 -1</clus>
<clus scale="  130.919">  2  7  1 -1</clus>
<clus scale="  205.546">  1 10  2 -1</clus>
<clus scale="  205.546">  1  5  2 -1</clus>
</clustering>
</event>
<event>
10    4  0.2977685E-005  0.3862084E+03  0.7546771E-02  0.1048765E+00
         21   -1    0    0  503  502  0.00000000000E+00  0.00000000000E+00  0.14358357239E+04  0.14358357239E+04  0.00000000000E+00 0.  1.
         -3   -1    0    0    0  501 -0.00000000000E+00 -0.00000000000E+00 -0.28787763147E+03  0.28787763147E+03  0.00000000000E+00 0.  1.
         23    2    1    2    0    0 -0.14560688802E+03  0.28550932497E+03  0.44517247825E+03  0.55599337370E+03  0.90736738531E+02 0.  0.
         24    2    1    2    0    0  0.19058877714E+03 -0.42730136836E+03  0.77044745411E+03  0.90546441797E+03  0.85825353370E+02 0.  0.
        -13    1    4    4    0    0  0.17722202291E+03 -0.32040350706E+03  0.62678380923E+03  0.72589530667E+03  0.00000000000E+00 0.  1.
         14    1    4    4    0    0  0.13366754236E+02 -0.10689786130E+03  0.14366364488E+03  0.17956911129E+03  0.00000000000E+00 0. -1.
        -11    1    3    3    0    0 -0.41836270286E+02  0.64693103473E+02  0.50909015366E+02  0.92342834015E+02  0.00000000000E+00 0. -1.
         11    1    3    3    0    0 -0.10377061773E+03  0.22081622150E+03  0.39426346288E+03  0.46365053968E+03  0.00000000000E+00 0.  1.
         21    1    1    2  503  501  0.25873429582E+02  0.11402663530E+02 -0.10540658230E+03  0.10913295875E+03  0.00000000000E+00 0. -1.
         -4    1    1    2    0  502 -0.70855318706E+02  0.13038937986E+03  0.37744742350E+02  0.15312260494E+03  0.00000000000E+00 0.  1.
<scales pt_clust_5="13000.00000" pt_clust_6="13000.00000" pt_clust_7="13000.00000" pt_clust_8="13000.00000" pt_clust_9="28.27464" pt_clust_10="147.92603"></scales>
<clustering>
<clus scale="   28.275">  2  9  1 -1</clus>
<clus scale="   85.825">  5  6 -1 -1</clus>
<clus scale="   90.737">  7  8 -1 -1</clus>
<clus scale="  147.926">  1 10  2 -1</clus>
<clus scale="  385.084">  1  5  2 -1</clus>
<clus scale="  147.926">  1  5  2 -1</clus>
</clustering>
</event>
<event>
10    4  0.2977685E-005  0.1627712E+03  0.7546771E-02  0.1205216E+00
         21   -1    0    0  501  502  0.00000000000E+00  0.00000000000E+00  0.90519262575E+02  0.90519262575E+02  0.00000000000E+00 0. -1.
          2   -1    0    0  503    0 -0.00000000000E+00 -0.00000000000E+00 -0.12048757461E+04  0.12048757461E+04  0.00000000000E+00 0. -1.
         24    2    1    2    0    0  0.41073586735E+02  0.67370521858E+02 -0.28196684777E+03  0.30317121888E+03  0.78623520466E+02 0.  0.
         23    2    1    2    0    0 -0.29947120670E+02  0.10528990733E+03 -0.69085157939E+03  0.70562789315E+03  0.93016257866E+02 0.  0.
        -13    1    3    3    0    0  0.59907899568E+02  0.68899890925E+02 -0.21485468485E+03  0.23344953845E+03  0.00000000000E+00 0.  1.
         14    1    3    3    0    0 -0.18834312834E+02 -0.15293690679E+01 -0.67112162916E+02  0.69721680423E+02  0.00000000000E+00 0. -1.
        -11    1    4    4    0    0 -0.56670931415E+02  0.36268261517E+02 -0.26600468812E+03  0.27438198804E+03  0.00000000000E+00 0.  1.
         11    1    4    4    0    0  0.26723810745E+02  0.69021645813E+02 -0.42484689127E+03  0.43124590511E+03  0.00000000000E+00 0. -1.
         21    1    1    2  503  502  0.39155503730E+01 -0.36902179201E+02 -0.14529106240E+03  0.14995531060E+03  0.00000000000E+00 0. -1.
          1    1    1    2  501    0 -0.15042016437E+02 -0.13575824999E+03  0.37530060425E+01  0.13664058604E+03  0.00000000000E+00 0. -1.
<scales pt_clust_5="13000.00000" pt_clust_6="13000.00000" pt_clust_7="13000.00000" pt_clust_8="13000.00000" pt_clust_9="37.10933" pt_clust_10="133.57558"></scales>
<clustering>
<clus scale="   37.109">  2  9  1 -1</clus>
<clus scale="   78.624">  5  6 -1 -1</clus>
<clus scale="   93.016">  7  8 -1 -1</clus>
<clus scale="  105.953">  2  5  1 -1</clus>
<clus scale="  133.576">  1 10  2 -1</clus>
<clus scale="  133.576">  1  5  2 -1</clus>
</clustering>
</event>
<event>
10    4  0.2977685E-005  0.4577842E+03  0.7546771E-02  0.1025426E+00
          2   -1    0    0  502    0 -0.00000000000E+00  0.00000000000E+00  0.10090522068E+04  0.10090522068E+04  0.00000000000E+00 0. -1.
         21   -1    0    0  503  502  0.00000000000E+00 -0.00000000000E+00 -0.19940447749E+03  0.19940447749E+03  0.00000000000E+00 0.  1.
         24    2    1    2    0    0 -0.29128641636E+03  0.62073382308E+02  0.21236417492E+03  0.37431001121E+03  0.79426447457E+02 0.  0.
         23    2    1    2    0    0 -0.11212054789E+03 -0.27040351990E+01  0.74483767642E+02  0.16591969875E+03  0.96970024888E+02 0.  0.
        -11    1    3    3    0    0 -0.25142558224E+03  0.34647642799E+02  0.14804568210E+03  0.29382444852E+03  0.00000000000E+00 0.  1.
         12    1    3    3    0    0 -0.39860834124E+02  0.27425739509E+02  0.64318492812E+02  0.80485562695E+02  0.00000000000E+00 0. -1.
        -13    1    4    4    0    0 -0.39494593033E+02  0.46020910763E+02  0.26716942504E+02  0.66268711494E+02  0.00000000000E+00 0. -1.
         13    1    4    4    0    0 -0.72625954855E+02 -0.48724945962E+02  0.47766825138E+02  0.99650987258E+02  0.00000000000E+00 0.  1.
         21    1    1    2  503  501  0.86087508857E+02  0.21055251487E+02  0.12011301394E+03  0.14926995316E+03  0.00000000000E+00 0.  1.
          1    1    1    2  501    0  0.31731945540E+03 -0.80424598596E+02  0.40268677278E+03  0.51895702115E+03  0.00000000000E+00 0. -1.
<scales pt_clust_5="13000.00000" pt_clust_6="13000.00000" pt_clust_7="13000.00000" pt_clust_8="13000.00000" pt_clust_9="43.36411" pt_clust_10="416.18247"></scales>
<clustering>
<clus scale="   43.364">  9 10 -1 -1</clus>
<clus scale="   79.426">  5  6 -1 -1</clus>
<clus scale="   96.970">  7  8 -1 -1</clus>
<clus scale="  104.444">  5  7 -1 -1</clus>
<clus scale="  416.182">  2  9  1 -1</clus>
<clus scale="  416.182">  2  5  1 -1</clus>
</clustering>
</event>
<event>
10    4  0.2977685E-005  0.1068032E+03  0.7546771E-02  0.1269356E+00
         21   -1    0    0  501  502  0.00000000000E+00  0.00000000000E+00  0.22891777149E+03  0.22891777149E+03  0.00000000000E+00 0.  1.
          2   -1    0    0  503    0 -0.00000000000E+00 -0.00000000000E+00 -0.16807450098E+03  0.16807450098E+03  0.00000000000E+00 0. -1.
         24    2    1    2    0    0 -0.12142242597E+02  0.26215056521E+02  0.80267804910E+01  0.88547317006E+02  0.83315874239E+02 0.  0.
         23    2    1    2    0    0 -0.84062671665E+02 -0.80195143367E+02 -0.50127078634E+01  0.14703223383E+03  0.89975311930E+02 0.  0.
        -13    1    3    3    0    0  0.12646202994E+01  0.44623278074E+02  0.32423527803E+02  0.55173556762E+02  0.00000000000E+00 0.  1.
         14    1    3    3    0    0 -0.13406862897E+02 -0.18408221553E+02 -0.24396747312E+02  0.33373760245E+02  0.00000000000E+00 0. -1.
        -11    1    4    4    0    0  0.53333370875E+01 -0.49923833599E+02 -0.14271918792E+02  0.52196947341E+02  0.00000000000E+00 0.  1.
         11    1    4    4    0    0 -0.89396008753E+02 -0.30271309768E+02  0.92592109282E+01  0.94835286487E+02  0.00000000000E+00 0. -1.
         21    1    1    2  503  502  0.59461096832E+02 -0.16064744154E+02 -0.29453339244E+01  0.61663384866E+02  0.00000000000E+00 0. -1.
          1    1    1    2  501    0  0.36743817431E+02  0.70044831000E+02  0.60774531807E+02  0.99749336768E+02  0.00000000000E+00 0. -1.
<scales pt_clust_5="13000.00000" pt_clust_6="13000.00000" pt_clust_7="13000.00000" pt_clust_8="13000.00000" pt_clust_9="61.59300" pt_clust_10="81.47827"></scales>
<clustering>
<clus scale="   61.593">  2  9  1 -1</clus>
<clus scale="   81.478">  1 10  2 -1</clus>
<clus scale="   83.316">  5  6 -1 -1</clus>
<clus scale="   89.975">  7  8 -1 -1</clus>
<clus scale="  101.257">  2  5  1 -1</clus>
<clus scale="   81.478">  1  5  2 -1</clus>
</clustering>
</event>
<event>
10    4  0.2977685E-005  0.1228583E+03  0.7546771E-02  0.1243245E+00
         21   -1    0    0  501  502  0.00000000000E+00  0.00000000000E+00  0.41053227177E+02  0.41053227177E+02  0.00000000000E+00 0.  1.
          2   -1    0    0  503    0 -0.00000000000E+00 -0.00000000000E+00 -0.66125335765E+03  0.66125335765E+03  0.00000000000E+00 0. -1.
         24    2    1    2    0    0  0.88733685295E+02  0.20810408313E+02 -0.36550668757E+03  0.38526320107E+03  0.80782766957E+02 0.  0.
         23    2    1    2    0    0 -0.49243755854E+02 -0.21104655639E+02 -0.16668184305E+03  0.19961135094E+03  0.95872314264E+02 0.  0.
        -11    1    3    3    0    0  0.62215984938E+02  0.23579461038E+02 -0.11136332751E+03  0.12972513434E+03  0.00000000000E+00 0.  1.
         12    1    3    3    0    0  0.26517700356E+02 -0.27690527248E+01 -0.25414336006E+03  0.25553806673E+03  0.00000000000E+00 0. -1.
        -13    1    4    4    0    0  0.19711654986E+02 -0.24380492634E+02 -0.19177920363E+02  0.36752556277E+02  0.00000000000E+00 0. -1.
         13    1    4    4    0    0 -0.68955410840E+02  0.32758369958E+01 -0.14750392269E+03  0.16285879467E+03  0.00000000000E+00 0.  1.
         21    1    1    2  503  502 -0.34762065079E+02  0.25905211049E+02 -0.78556418077E+02  0.89725090967E+02  0.00000000000E+00 0.  1.
          1    1    1    2  501    0 -0.47278643609E+01 -0.25610963723E+02 -0.94551817740E+01  0.27706941849E+02  0.00000000000E+00 0. -1.
<scales pt_clust_5="13000.00000" pt_clust_6="13000.00000" pt_clust_7="13000.00000" pt_clust_8="13000.00000" pt_clust_9="41.54078" pt_clust_10="26.04370"></scales>
<clustering>
<clus scale="   26.044">  1 10  2 -1</clus>
<clus scale="   41.541">  1  9  2 -1</clus>
<clus scale="   80.783">  5  6 -1 -1</clus>
<clus scale="   95.872">  7  8 -1 -1</clus>
<clus scale="  111.483">  2  5  1 -1</clus>
<clus scale="   26.044">  1  5  2 -1</clus>
</clustering>
</event>
<event>
10    4  0.2977685E-005  0.1114749E+03  0.7546771E-02  0.1261809E+00
          2   -1    0    0  503    0 -0.00000000000E+00  0.00000000000E+00  0.16742219845E+03  0.16742219845E+03  0.00000000000E+00 0. -1.
         21   -1    0    0  501  502  0.00000000000E+00 -0.00000000000E+00 -0.16561961268E+03  0.16561961268E+03  0.00000000000E+00 0.  1.
         24    2    1    2    0    0  0.63260460786E+02 -0.35994455238E+02  0.10507577313E+03  0.15115781871E+03  0.80686314527E+02 0.  0.
         23    2    1    2    0    0 -0.25855952172E+02  0.93331355575E+01 -0.77961255633E+02  0.12300453081E+03  0.91085232265E+02 0.  0.
        -11    1    3    3    0    0  0.17827174729E+02  0.25043894960E+02  0.43537815354E+02  0.53296774756E+02  0.00000000000E+00 0.  1.
         12    1    3    3    0    0  0.45433286057E+02 -0.61038350198E+02  0.61537957778E+02  0.97861043957E+02  0.00000000000E+00 0. -1.
        -11    1    4    4    0    0 -0.31822621778E+01  0.33610822365E+02 -0.82815455715E+02  0.89432733816E+02  0.00000000000E+00 0.  1.
         11    1    4    4    0    0 -0.22673689994E+02 -0.24277686807E+02  0.48542000814E+01  0.33571796989E+02  0.00000000000E+00 0. -1.
         21    1    1    2  503  502 -0.24381210054E+02  0.84337135584E+01 -0.99704840582E+00  0.25817920784E+02  0.00000000000E+00 0. -1.
          1    1    1    2  501    0 -0.13023298560E+02  0.18227606122E+02 -0.24314883328E+02  0.33061540823E+02  0.00000000000E+00 0. -1.
<scales pt_clust_5="13000.00000" pt_clust_6="13000.00000" pt_clust_7="13000.00000" pt_clust_8="13000.00000" pt_clust_9="27.61641" pt_clust_10="22.40205"></scales>
<clustering>
<clus scale="   22.402">  2 10  1 -1</clus>
<clus scale="   27.616">  2  9  1 -1</clus>
<clus scale="   80.686">  5  6 -1 -1</clus>
<clus scale="   91.085">  7  8 -1 -1</clus>
<clus scale="  103.152">  1  5  2 -1</clus>
<clus scale="   22.402">  2  5  1 -1</clus>
</clustering>
</event>
<event>
10    4  0.2977685E-005  0.9906218E+02  0.7546771E-02  0.1282285E+00
          2   -1    0    0  503    0 -0.00000000000E+00  0.00000000000E+00  0.22225799579E+03  0.22225799579E+03  0.00000000000E+00 0. -1.
         21   -1    0    0  501  502  0.00000000000E+00 -0.00000000000E+00 -0.12717725809E+03  0.12717725809E+03  0.00000000000E+00 0. -1.
         24    2    1    2    0    0  0.61859454069E+02 -0.39689452006E+02  0.91904416710E+02  0.14187034321E+03  0.79239685855E+02 0.  0.
         23    2    1    2    0    0 -0.34109561063E+02 -0.24104721751E+01 -0.61825527839E+01  0.86533796730E+02  0.79250245965E+02 0.  0.
        -13    1    3    3    0    0  0.26733952018E+01  0.21844398817E+02  0.25674168335E+02  0.33815495283E+02  0.00000000000E+00 0.  1.
         14    1    3    3    0    0  0.59186058868E+02 -0.61533850823E+02  0.66230248376E+02  0.10805484793E+03  0.00000000000E+00 0. -1.
        -13    1    4    4    0    0 -0.37315482898E+02  0.19428632897E+02  0.24539555547E+02  0.48704279346E+02  0.00000000000E+00 0.  1.
         13    1    4    4    0    0  0.32059218353E+01 -0.21839105072E+02 -0.30722108331E+02  0.37829517384E+02  0.00000000000E+00 0. -1.
         21    1    1    2  503  502  0.26359073672E+02  0.33491200557E+02  0.39833486215E+02  0.58336677174E+02  0.00000000000E+00 0. -1.
          1    1    1    2  501    0 -0.54108966679E+02  0.86087236237E+01 -0.30474612447E+02  0.62694436765E+02  0.00000000000E+00 0. -1.
<scales pt_clust_5="13000.00000" pt_clust_6="13000.00000" pt_clust_7="13000.00000" pt_clust_8="13000.00000" pt_clust_9="42.61996" pt_clust_10="52.97064"></scales>
<clustering>
<clus scale="   42.620">  1  9  2 -1</clus>
<clus scale="   52.971">  2 10  1 -1</clus>
<clus scale="   79.240">  5  6 -1 -1</clus>
<clus scale="   79.250">  7  8 -1 -1</clus>
<clus scale="   99.054">  1  5  2 -1</clus>
<clus scale="   52.971">  2  5  1 -1</clus>
</clustering>
</event>
<event>
10    4  0.2977685E-005  0.3455068E+03  0.7546771E-02  0.1064474E+00
         -3   -1    0    0    0  501 -0.00000000000E+00  0.00000000000E+00  0.26785570011E+03  0.26785570011E+03  0.00000000000E+00 0.  1.
         21   -1    0    0  503  502  0.00000000000E+00 -0.00000000000E+00 -0.47212312649E+03  0.47212312649E+03  0.00000000000E+00 0.  1.
         24    2    1    2    0    0 -0.15604726998E+03 -0.38452219253E+02 -0.14443248108E+03  0.23166253575E+03  0.83531223171E+02 0.  0.
         23    2    1    2    0    0 -0.86019185824E+02  0.39167622887E+02 -0.23373682426E+02  0.13248113782E+03  0.89841637539E+02 0.  0.
        -11    1    3    3    0    0 -0.14683612649E+03 -0.26905679700E+02 -0.87910878406E+02  0.17324285320E+03  0.00000000000E+00 0.  1.
         12    1    3    3    0    0 -0.92111434890E+01 -0.11546539553E+02 -0.56521602675E+02  0.58419682548E+02  0.00000000000E+00 0. -1.
        -11    1    4    4    0    0 -0.16114584880E+02  0.20630950997E+02  0.32037695460E+02  0.41373057843E+02  0.00000000000E+00 0. -1.
         11    1    4    4    0    0 -0.69904600944E+02  0.18536671890E+02 -0.55411377887E+02  0.91108079978E+02  0.00000000000E+00 0.  1.
         21    1    1    2  503  501  0.28978317818E+03  0.42302670002E+02 -0.73149807958E+02  0.30185211718E+03  0.00000000000E+00 0.  1.
         -4    1    1    2    0  502 -0.47716722372E+02 -0.43018073636E+02  0.36688545083E+02  0.73983035850E+02  0.00000000000E+00 0.  1.
<scales pt_clust_5="13000.00000" pt_clust_6="13000.00000" pt_clust_7="13000.00000" pt_clust_8="13000.00000" pt_clust_9="271.16401" pt_clust_10="64.24519"></scales>
<clustering>
<clus scale="   64.245">  2 10  1 -1</clus>
<clus scale="   83.531">  5  6 -1 -1</clus>
<clus scale="   89.842">  7  8 -1 -1</clus>
<clus scale="  123.334">  5  7 -1 -1</clus>
<clus scale="  271.164">  1  9  2 -1</clus>
<clus scale="   64.245">  2  5  1 -1</clus>
</clustering>
</event>
<event>
10    4  0.2977685E-005  0.1136686E+03  0.7546771E-02  0.1257252E+00
         21   -1    0    0  503  502  0.00000000000E+00  0.00000000000E+00  0.34990452687E+03  0.34990452687E+03  0.00000000000E+00 0. -1.
         -3   -1    0    0    0  501 -0.00000000000E+00 -0.00000000000E+00 -0.22027907840E+03  0.22027907840E+03  0.00000000000E+00 0.  1.
         24    2    1    2    0    0  0.73333687480E+02 -0.15745469929E+02 -0.59020328656E+02  0.12546056077E+03  0.81432202300E+02 0.  0.
         23    2    1    2    0    0 -0.38544263022E+02  0.23895990265E+02  0.27998165722E+03  0.29778061072E+03  0.90702178443E+02 0.  0.
        -13    1    3    3    0    0  0.87863942984E+02 -0.24676073771E+02 -0.58488616083E+02  0.10839695247E+03  0.00000000000E+00 0.  1.
         14    1    3    3    0    0 -0.14530255503E+02  0.89306038419E+01 -0.53171257279E+00  0.17063608301E+02  0.00000000000E+00 0. -1.
        -13    1    4    4    0    0 -0.42528762610E+02 -0.22107481311E+02  0.86777726496E+02  0.99135312553E+02  0.00000000000E+00 0.  1.
         13    1    4    4    0    0  0.39844995884E+01  0.46003471576E+02  0.19320393073E+03  0.19864529816E+03  0.00000000000E+00 0. -1.
         21    1    1    2  503  501 -0.11100625080E+02 -0.18462989563E+02 -0.11187912523E+03  0.11393438692E+03  0.00000000000E+00 0. -1.
         -4    1    1    2    0  502 -0.23688799379E+02  0.10312469227E+02  0.20543245134E+02  0.33008046870E+02  0.00000000000E+00 0.  1.
<scales pt_clust_5="13000.00000" pt_clust_6="13000.00000" pt_clust_7="13000.00000" pt_clust_8="13000.00000" pt_clust_9="21.54312" pt_clust_10="26.02871"></scales>
<clustering>
<clus scale="   21.543">  2  9  1 -1</clus>
<clus scale="   26.029">  1 10  2 -1</clus>
<clus scale="   81.432">  5  6 -1 -1</clus>
<clus scale="   90.702">  7  8 -1 -1</clus>
<clus scale="  106.418">  2  5  1 -1</clus>
<clus scale="   26.029">  1  5  2 -1</clus>
</clustering>
</event>
<event>
10    4  0.2977685E-005  0.1147761E+03  0.7546771E-02  0.1259165E+00
         21   -1    0    0  501  502  0.00000000000E+00  0.00000000000E+00  0.66087087015E+02  0.66087087015E+02  0.00000000000E+00 0.  1.
          2   -1    0    0  503    0 -0.00000000000E+00 -0.00000000000E+00 -0.46587026131E+03  0.46587026131E+03  0.00000000000E+00 0. -1.
         23    2    1    2    0    0  0.15380333019E+02 -0.38602662231E+02 -0.22776075375E+03  0.25252161486E+03  0.10082402912E+03 0.  0.
         24    2    1    2    0    0 -0.36968147430E+01  0.46218282450E+02 -0.46175804074E+02  0.10574840101E+03  0.83070592644E+02 0.  0.
        -13    1    4    4    0    0 -0.35374998679E+02  0.47533281709E+02 -0.14648508413E+02  0.61035909105E+02  0.00000000000E+00 0.  1.
         14    1    4    4    0    0  0.31678183936E+02 -0.13149992591E+01 -0.31527295661E+02  0.44712491904E+02  0.00000000000E+00 0. -1.
        -11    1    3    3    0    0  0.40487958564E+01 -0.61583521600E+02 -0.21541151556E+03  0.22407820937E+03  0.00000000000E+00 0. -1.
         11    1    3    3    0    0  0.11331537163E+02  0.22980859369E+02 -0.12349238189E+02  0.28443405486E+02  0.00000000000E+00 0.  1.
         21    1    1    2  503  502  0.31414891031E+02 -0.25301107240E+02 -0.12016723498E+03  0.12675648216E+03  0.00000000000E+00 0.  1.
          1    1    1    2  501    0 -0.43098409308E+02  0.17685487021E+02 -0.56793814971E+01  0.46930850303E+02  0.00000000000E+00 0. -1.
<scales pt_clust_5="13000.00000" pt_clust_6="13000.00000" pt_clust_7="13000.00000" pt_clust_8="13000.00000" pt_clust_9="40.33660" pt_clust_10="43.62421"></scales>
<clustering>
<clus scale="   40.337">  2  9  1 -1</clus>
<clus scale="   43.624">  1 10  2 -1</clus>
<clus scale="   83.071">  5  6 -1 -1</clus>
<clus scale="   99.543">  1  5  2 -1</clus>
<clus scale="  100.824">  7  8 -1 -1</clus>
<clus scale="   43.624">  1  5  2 -1</clus>
</clustering>
</event>
<event>
10    4  0.2977685E-005  0.1498860E+03  0.7546771E-02  0.1226480E+00
          2   -1    0    0  503    0 -0.00000000000E+00  0.00000000000E+00  0.20351400103E+03  0.20351400103E+03  0.00000000000E+00 0. -1.
         21   -1    0    0  501  502  0.00000000000E+00 -0.00000000000E+00 -0.30880114316E+03  0.30880114316E+03  0.00000000000E+00 0.  1.
         23    2    1    2    0    0 -0.10987891960E+03  0.65347265325E+02  0.15854345069E+02  0.15887496854E+03  0.92985231691E+02 0.  0.
         24    2    1    2    0    0  0.24729318699E+02  0.28848599596E+02 -0.14103536022E+02  0.90317227526E+02  0.80712520452E+02 0.  0.
        -13    1    4    4    0    0  0.17724235046E+02  0.48183090221E+02  0.16075696969E+02  0.53797646085E+02  0.00000000000E+00 0.  1.
         14    1    4    4    0    0  0.70050836533E+01 -0.19334490625E+02 -0.30179232991E+02  0.36519581441E+02  0.00000000000E+00 0. -1.
        -13    1    3    3    0    0 -0.81616986941E+02  0.61399948354E+02 -0.28588530062E+02  0.10605937142E+03  0.00000000000E+00 0.  1.
         13    1    3    3    0    0 -0.28261932660E+02  0.39473169705E+01  0.44442875131E+02  0.52815597118E+02  0.00000000000E+00 0. -1.
         21    1    1    2  503  502  0.88906721852E+02 -0.68098163832E+02  0.36031887190E+02  0.11764379288E+03  0.00000000000E+00 0. -1.
          1    1    1    2  501    0 -0.37571209497E+01 -0.26097701088E+02 -0.14306983837E+03  0.14547915525E+03  0.00000000000E+00 0. -1.
<scales pt_clust_5="13000.00000" pt_clust_6="13000.00000" pt_clust_7="13000.00000" pt_clust_8="13000.00000" pt_clust_9="117.55656" pt_clust_10="26.36676"></scales>
<clustering>
<clus scale="   26.367">  2 10  1 -1</clus>
<clus scale="   80.713">  5  6 -1 -1</clus>
<clus scale="   86.553">  2  5  1 -1</clus>
<clus scale="   92.985">  7  8 -1 -1</clus>
<clus scale="  117.557">  1  9  2 -1</clus>
<clus scale="   26.367">  2  5  1 -1</clus>
</clustering>
</event>
<event>
10    4  0.2977685E-005  0.1103387E+03  0.7546771E-02  0.1264522E+00
          2   -1    0    0  503    0 -0.00000000000E+00  0.00000000000E+00  0.18413163800E+03  0.18413163800E+03  0.00000000000E+00 0. -1.
         21   -1    0    0  501  502  0.00000000000E+00 -0.00000000000E+00 -0.26944069319E+03  0.26944069319E+03  0.00000000000E+00 0. -1.
         24    2    1    2    0    0 -0.51997007018E+02 -0.55437307807E+02  0.10195359091E+03  0.15038241808E+03  0.80270499750E+02 0.  0.
         23    2    1    2    0    0  0.32495706337E+02  0.48369074063E+02 -0.20194325836E+03  0.22938684378E+03  0.91878758416E+02 0.  0.
        -11    1    3    3    0    0 -0.30005423281E+02  0.69341808966E+01  0.70940985793E+02  0.77337130515E+02  0.00000000000E+00 0.  1.
         12    1    3    3    0    0 -0.21991583737E+02 -0.62371488704E+02  0.31012605121E+02  0.73045287561E+02  0.00000000000E+00 0. -1.
        -11    1    4    4    0    0  0.64100574775E+02  0.27295080868E+02 -0.14592633666E+03  0.16170467172E+03  0.00000000000E+00 0. -1.
         11    1    4    4    0    0 -0.31604868438E+02  0.21073993195E+02 -0.56016921703E+02  0.67682172064E+02  0.00000000000E+00 0.  1.
         21    1    1    2  503  502 -0.45884652758E+01  0.35079685122E+02  0.67749846335E+01  0.36021365030E+02  0.00000000000E+00 0. -1.
          1    1    1    2  501    0  0.24089765957E+02 -0.28011451377E+02  0.79056276158E+01  0.37781704304E+02  0.00000000000E+00 0. -1.
<scales pt_clust_5="13000.00000" pt_clust_6="13000.00000" pt_clust_7="13000.00000" pt_clust_8="13000.00000" pt_clust_9="35.37850" pt_clust_10="32.90466"></scales>
<clustering>
<clus scale="   35.379">  1  9  2 -1</clus>
<clus scale="   32.905">  2 10  1 -1</clus>
<clus scale="   80.270">  5  6 -1 -1</clus>
<clus scale="   91.879">  7  8 -1 -1</clus>
<clus scale="  100.878">  1  5  2 -1</clus>
<clus scale="   32.905">  2  5  1 -1</clus>
</clustering>
</event>
<event>
10    4  0.2977685E-005  0.1131890E+03  0.7546771E-02  0.1262481E+00
         21   -1    0    0  501  502  0.00000000000E+00  0.00000000000E+00  0.83139195455E+02  0.83139195455E+02  0.00000000000E+00 0.  1.
          2   -1    0    0  503    0 -0.00000000000E+00 -0.00000000000E+00 -0.10116967779E+04  0.10116967779E+04  0.00000000000E+00 0. -1.
         24    2    1    2    0    0 -0.36102070045E+02 -0.14361366462E+02 -0.40914223237E+03  0.41867917396E+03  0.79907922586E+02 0.  0.
         23    2    1    2    0    0 -0.28056820988E+02 -0.57302721404E+02  0.19905734469E+02  0.11339176574E+03  0.91600585088E+02 0.  0.
        -11    1    3    3    0    0 -0.90179878951E+01  0.32869865025E+02 -0.17522049426E+03  0.17850482834E+03  0.00000000000E+00 0.  1.
         12    1    3    3    0    0 -0.27084082150E+02 -0.47231231486E+02 -0.23392173811E+03  0.24017434562E+03  0.00000000000E+00 0. -1.
        -13    1    4    4    0    0 -0.57023951844E+02 -0.59701160523E+02  0.15229371429E+02  0.83951732596E+02  0.00000000000E+00 0.  1.
         13    1    4    4    0    0  0.28967130856E+02  0.23984391191E+01  0.46763630407E+01  0.29440033144E+02  0.00000000000E+00 0. -1.
         21    1    1    2  503  502 -0.35834746330E+02  0.32524823341E+02 -0.23831303381E+03  0.24317708622E+03  0.00000000000E+00 0. -1.
          1    1    1    2  501    0  0.99993637363E+02  0.39139264525E+02 -0.30100805077E+03  0.31958794747E+03  0.00000000000E+00 0. -1.
<scales pt_clust_5="13000.00000" pt_clust_6="13000.00000" pt_clust_7="13000.00000" pt_clust_8="13000.00000" pt_clust_9="48.39414" pt_clust_10="66.49125"></scales>
<clustering>
<clus scale="   48.394">  2  9  1 -1</clus>
<clus scale="   79.908">  5  6 -1 -1</clus>
<clus scale="   91.601">  7  8 -1 -1</clus>
<clus scale="   97.250">  2  5  1 -1</clus>
<clus scale="   66.491">  1 10  2 -1</clus>
<clus scale="   66.491">  1  5  2 -1</clus>
</clustering>
</event>
<event>
10    4  0.2977685E-005  0.1855355E+03  0.7546771E-02  0.1163641E+00
         -3   -1    0    0    0  501 -0.00000000000E+00  0.00000000000E+00  0.10029900135E+04  0.10029900135E+04  0.00000000000E+00 0.  1.
         21   -1    0    0  503  502  0.00000000000E+00 -0.00000000000E+00 -0.10705988438E+03  0.10705988438E+03  0.00000000000E+00 0.  1.
         23    2    1    2    0    0 -0.15498278623E+03  0.63324018975E+02  0.46459859128E+03  0.50207743476E+03  0.90555530317E+02 0.  0.
         24    2    1    2    0    0  0.16787143020E+03  0.34581979739E+02  0.30516494323E+03  0.35917650790E+03  0.80656003203E+02 0.  0.
        -11    1    4    4    0    0  0.13733606412E+03  0.59795298996E+02  0.24422936391E+03  0.28650419628E+03  0.00000000000E+00 0.  1.
         12    1    4    4    0    0  0.30535366081E+02 -0.25213319257E+02  0.60935579315E+02  0.72672311620E+02  0.00000000000E+00 0. -1.
        -13    1    3    3    0    0 -0.87924694115E+02 -0.55046934270E+01  0.28609623496E+03  0.29935281716E+03  0.00000000000E+00 0.  1.
         13    1    3    3    0    0 -0.67058092116E+02  0.68828712402E+02  0.17850235632E+03  0.20272461760E+03  0.00000000000E+00 0. -1.
         21    1    1    2  503  501  0.22066099651E+02 -0.13331398148E+03  0.26930441230E+02  0.13778526437E+03  0.00000000000E+00 0.  1.
         -4    1    1    2    0  502 -0.34954743617E+02  0.35407982766E+02  0.99236153438E+02  0.11101069090E+03  0.00000000000E+00 0.  1.
<scales pt_clust_5="13000.00000" pt_clust_6="13000.00000" pt_clust_7="13000.00000" pt_clust_8="13000.00000" pt_clust_9="113.95304" pt_clust_10="49.75502"></scales>
<clustering>
<clus scale="   49.755">  2 10  1 -1</clus>
<clus scale="   80.656">  5  6 -1 -1</clus>
<clus scale="   90.556">  7  8 -1 -1</clus>
<clus scale="  113.953">  2  9  1 -1</clus>
<clus scale="  180.910">  2  5  1 -1</clus>
<clus scale="   49.755">  2  5  1 -1</clus>
</clustering>
</event>
<event>
10    4  0.2977685E-005  0.1037636E+03  0.7546771E-02  0.1274856E+00
         21   -1    0    0  501  502  0.00000000000E+00  0.00000000000E+00  0.59411565491E+02  0.59411565491E+02  0.00000000000E+00 0. -1.
          2   -1    0    0  503    0 -0.00000000000E+00 -0.00000000000E+00 -0.56485406816E+03  0.56485406816E+03  0.00000000000E+00 0. -1.
         23    2    1    2    0    0 -0.40069677404E+02  0.50475814885E+02 -0.22101927453E+03  0.24520975082E+03  0.84409213062E+02 0.  0.
         24    2    1    2    0    0  0.23702248451E+02 -0.89849955291E+02 -0.60373738726E+02  0.13601706608E+03  0.78872320180E+02 0.  0.
        -13    1    4    4    0    0  0.17628919068E+02  0.10923326312E+02 -0.13199469996E+02  0.24582999276E+02  0.00000000000E+00 0.  1.
         14    1    4    4    0    0  0.60733293827E+01 -0.10077328160E+03 -0.47174268730E+02  0.11143406681E+03  0.00000000000E+00 0. -1.
        -11    1    3    3    0    0 -0.66642552337E+02  0.32950367184E+02 -0.15234242210E+03  0.16951451281E+03  0.00000000000E+00 0.  1.
         11    1    3    3    0    0  0.26572874933E+02  0.17525447701E+02 -0.68676852422E+02  0.75695238014E+02  0.00000000000E+00 0. -1.
         21    1    1    2  503  502  0.21979372436E+02 -0.15167970637E+02 -0.14110502541E+03  0.14360984765E+03  0.00000000000E+00 0. -1.
          1    1    1    2  501    0 -0.56119434841E+01  0.54542111043E+02 -0.82944464014E+02  0.99428969105E+02  0.00000000000E+00 0. -1.
<scales pt_clust_5="13000.00000" pt_clust_6="13000.00000" pt_clust_7="13000.00000" pt_clust_8="13000.00000" pt_clust_9="26.70506" pt_clust_10="51.27581"></scales>
<clustering>
<clus scale="   26.705">  2  9  1 -1</clus>
<clus scale="   51.276">  1 10  2 -1</clus>
<clus scale="   78.872">  5  6 -1 -1</clus>
<clus scale="   84.409">  7  8 -1 -1</clus>
<clus scale="   99.312">  1  5  2 -1</clus>
<clus scale="   51.276">  1  5  2 -1</clus>
</clustering>
</event>
<event>
10    4  0.2977685E-005  0.1628466E+03  0.7546771E-02  0.1214640E+00
         21   -1    0    0  501  502  0.00000000000E+00  0.00000000000E+00  0.56513421207E+02  0.56513421207E+02  0.00000000000E+00 0. -1.
          2   -1    0    0  503    0 -0.00000000000E+00 -0.00000000000E+00 -0.15027357675E+04  0.15027357675E+04  0.00000000000E+00 0. -1.
         23    2    1    2    0    0 -0.17174477490E+03 -0.88848248614E+00 -0.49475335625E+03  0.53152984339E+03  0.90807674723E+02 0.  0.
         24    2    1    2    0    0  0.10946035404E+02  0.42383649922E+01 -0.40398847043E+02  0.91513049324E+02  0.81269870956E+02 0.  0.
        -13    1    4    4    0    0  0.82172066069E+01 -0.32716318558E+02 -0.42664228247E+02  0.54388568251E+02  0.00000000000E+00 0.  1.
         14    1    4    4    0    0  0.27288287976E+01  0.36954683551E+02  0.22653812038E+01  0.37124481073E+02  0.00000000000E+00 0. -1.
        -13    1    3    3    0    0 -0.12342489433E+03 -0.19402609524E+02 -0.43449981999E+03  0.45210646906E+03  0.00000000000E+00 0. -1.
         13    1    3    3    0    0 -0.48319880567E+02  0.18514127038E+02 -0.60253536266E+02  0.79423374334E+02  0.00000000000E+00 0.  1.
         21    1    1    2  503  502  0.12572372468E+03  0.11775546687E+02 -0.87366877140E+03  0.88274698559E+03  0.00000000000E+00 0. -1.
          1    1    1    2  501    0  0.35075014817E+02 -0.15125429193E+02 -0.37401371643E+02  0.53459310447E+02  0.00000000000E+00 0. -1.
<scales pt_clust_5="13000.00000" pt_clust_6="13000.00000" pt_clust_7="13000.00000" pt_clust_8="13000.00000" pt_clust_9="135.17762" pt_clust_10="38.19732"></scales>
<clustering>
<clus scale="   38.197">  1 10  2 -1</clus>
<clus scale="   81.270">  5  6 -1 -1</clus>
<clus scale="   86.517">  1  5  2 -1</clus>
<clus scale="   90.808">  7  8 -1 -1</clus>
<clus scale="  135.178">  2  9  1 -1</clus>
<clus scale="   38.197">  1  5  2 -1</clus>
</clustering>
</event>
<event>
10    4  0.2977685E-005  0.2254371E+03  0.7546771E-02  0.1130209E+00
          2   -1    0    0  502    0 -0.00000000000E+00  0.00000000000E+00  0.81024628601E+03  0.81024628601E+03  0.00000000000E+00 0. -1.
         21   -1    0    0  503  502  0.00000000000E+00 -0.00000000000E+00 -0.91897265875E+02  0.91897265875E+02  0.00000000000E+00 0.  1.
         23    2    1    2    0    0  0.50646265386E+02  0.21366423936E+03  0.36811470972E+03  0.43823662493E+03  0.91243895920E+02 0.  0.
         24    2    1    2    0    0 -0.25572488233E+02 -0.19134383744E+03  0.27978760703E+03  0.35084323940E+03  0.86853078845E+02 0.  0.
        -13    1    4    4    0    0  0.14177609089E+02 -0.29007017182E+02  0.10582962240E+02  0.33976620418E+02  0.00000000000E+00 0.  1.
         14    1    4    4    0    0 -0.39750097322E+02 -0.16233682026E+03  0.26920464479E+03  0.31686661898E+03  0.00000000000E+00 0. -1.
        -13    1    3    3    0    0  0.82272149762E+01  0.86832445027E+02  0.71198487655E+02  0.11259123065E+03  0.00000000000E+00 0.  1.
         13    1    3    3    0    0  0.42419050410E+02  0.12683179433E+03  0.29691622206E+03  0.32564539428E+03  0.00000000000E+00 0. -1.
         21    1    1    2  503  501  0.27821157263E+02  0.59548439335E+01  0.23237458375E+02  0.36734948339E+02  0.00000000000E+00 0.  1.
          1    1    1    2  501    0 -0.52894934416E+02 -0.28275245856E+02  0.47209245010E+02  0.76328739211E+02  0.00000000000E+00 0. -1.
<scales pt_clust_5="13000.00000" pt_clust_6="13000.00000" pt_clust_7="13000.00000" pt_clust_8="13000.00000" pt_clust_9="28.45131" pt_clust_10="55.31895"></scales>
<clustering>
<clus scale="   28.451">  2  9  1 -1</clus>
<clus scale="   55.319">  2 10  1 -1</clus>
<clus scale="   86.853">  5  6 -1 -1</clus>
<clus scale="   91.244">  7  8 -1 -1</clus>
<clus scale="  223.696">  2  5  1 -1</clus>
<clus scale="   28.451">  2  5  1 -1</clus>
</clustering>
</event>
<event>
10    4  0.2977685E-005  0.1077076E+03  0.7546771E-02  0.1269256E+00
         -1   -1    0    0    0  501 -0.00000000000E+00  0.00000000000E+00  0.11517684687E+03  0.11517684687E+03  0.00000000000E+00 0.  1.
         21   -1    0    0  503  502  0.00000000000E+00 -0.00000000000E+00 -0.30065345010E+03  0.30065345010E+03  0.00000000000E+00 0.  1.
         23    2    1    2    0    0 -0.66350120710E+02 -0.54773631012E+02 -0.21120729755E+02  0.12710680647E+03  0.91145849347E+02 0.  0.
         24    2    1    2    0    0 -0.14373632829E+02  0.46723553228E+02 -0.10023146424E+03  0.13757750147E+03  0.80570036233E+02 0.  0.
        -13    1    4    4    0    0 -0.18468801446E+01  0.37913807543E+02 -0.11200378714E+03  0.11826121978E+03  0.00000000000E+00 0.  1.
         14    1    4    4    0    0 -0.12526752684E+02  0.88097456848E+01  0.11772322901E+02  0.19316281690E+02  0.00000000000E+00 0. -1.
        -13    1    3    3    0    0 -0.23201541298E+02 -0.11119948479E+02  0.35336633875E+02  0.43710896426E+02  0.00000000000E+00 0.  1.
         13    1    3    3    0    0 -0.43148579412E+02 -0.43653682533E+02 -0.56457363631E+02  0.83395910044E+02  0.00000000000E+00 0. -1.
         21    1    1    2  503  501  0.71846358014E+00  0.26811383398E+02  0.20067812610E+02  0.33497515916E+02  0.00000000000E+00 0.  1.
         -2    1    1    2    0  502  0.80005289958E+02 -0.18761305614E+02 -0.84192221836E+02  0.11764847312E+03  0.00000000000E+00 0.  1.
<scales pt_clust_5="13000.00000" pt_clust_6="13000.00000" pt_clust_7="13000.00000" pt_clust_8="13000.00000" pt_clust_9="26.82101" pt_clust_10="81.30169"></scales>
<clustering>
<clus scale="   26.821">  1  9  2 -1</clus>
<clus scale="   80.570">  5  6 -1 -1</clus>
<clus scale="   81.302">  2 10  1 -1</clus>
<clus scale="   91.146">  7  8 -1 -1</clus>
<clus scale="   98.919">  2  5  1 -1</clus>
<clus scale="   81.302">  2  5  1 -1</clus>
</clustering>
</event>
<event>
10    4  0.2977685E-005  0.1910576E+03  0.7546771E-02  0.1182134E+00
          2   -1    0    0  503    0 -0.00000000000E+00  0.00000000000E+00  0.25750735408E+03  0.25750735408E+03  0.00000000000E+00 0. -1.
         21   -1    0    0  501  502  0.00000000000E+00 -0.00000000000E+00 -0.71803852358E+03  0.71803852358E+03  0.00000000000E+00 0. -1.
         23    2    1    2    0    0 -0.64095563115E+01  0.15435611214E+03  0.10446045354E+03  0.20780716787E+03  0.91678464748E+02 0.  0.
         24    2    1    2    0    0 -0.34188538976E+02  0.27768998234E+02 -0.12939221134E+03  0.15937758204E+03  0.81968871189E+02 0.  0.
        -11    1    4    4    0    0  0.20565439239E+02 -0.13084251298E+02 -0.40462194981E+02  0.47236893905E+02  0.00000000000E+00 0.  1.
         12    1    4    4    0    0 -0.54753978215E+02  0.40853249533E+02 -0.88930016354E+02  0.11214068814E+03  0.00000000000E+00 0. -1.
        -13    1    3    3    0    0 -0.39016722665E+02  0.34040103882E+02  0.13550549739E+02  0.53522431915E+02  0.00000000000E+00 0.  1.
         13    1    3    3    0    0  0.32607166353E+02  0.12031600826E+03  0.90909903803E+02  0.15428473596E+03  0.00000000000E+00 0. -1.
         21    1    1    2  503  502  0.11141068271E+03 -0.19300451434E+03 -0.66772808514E+02  0.23264069019E+03  0.00000000000E+00 0. -1.
          1    1    1    2  501    0 -0.70812587422E+02  0.10879403966E+02 -0.36882660319E+03  0.37572043755E+03  0.00000000000E+00 0. -1.
<scales pt_clust_5="13000.00000" pt_clust_6="13000.00000" pt_clust_7="13000.00000" pt_clust_8="13000.00000" pt_clust_9="167.62473" pt_clust_10="71.64345"></scales>
<clustering>
<clus scale="   71.643">  2 10  1 -1</clus>
<clus scale="   81.969">  5  6 -1 -1</clus>
<clus scale="   91.678">  7  8 -1 -1</clus>
<clus scale="  108.757">  2  5  1 -1</clus>
<clus scale="  167.625">  2  9  1 -1</clus>
<clus scale="   71.643">  2  5  1 -1</clus>
</clustering>
</event>
<event>
10    4  0.2977685E-005  0.1684069E+03  0.7546771E-02  0.1204204E+00
         21   -1    0    0  503  502  0.00000000000E+00  0.00000000000E+00  0.16040591439E+03  0.16040591439E+03  0.00000000000E+00 0.  1.
         -1   -1    0    0    0  501 -0.00000000000E+00 -0.00000000000E+00 -0.35171018486E+03  0.35171018486E+03  0.00000000000E+00 0.  1.
         23    2    1    2    0    0 -0.20367293979E+02  0.16703495040E+02 -0.11242583757E+03  0.14736019721E+03  0.91551217130E+02 0.  0.
         24    2    1    2    0    0  0.11452156716E+03  0.10452441737E+03  0.13376138838E+01  0.17471385172E+03  0.80514580051E+02 0.  0.
        -11    1    4    4    0    0  0.10735581062E+03  0.56661035701E+02 -0.17764157045E+02  0.12268377365E+03  0.00000000000E+00 0.  1.
         12    1    4    4    0    0  0.71657565391E+01  0.47863381674E+02  0.19101770929E+02  0.52030078076E+02  0.00000000000E+00 0. -1.
        -11    1    3    3    0    0  0.33308049210E+02  0.22480014817E+02 -0.59187887448E+02  0.71540081276E+02  0.00000000000E+00 0. -1.
         11    1    3    3    0    0 -0.53675343189E+02 -0.57765197770E+01 -0.53237950120E+02  0.75820115933E+02  0.00000000000E+00 0.  1.
         21    1    1    2  503  501 -0.21937593878E+02  0.25878136719E+01 -0.31858206024E+02  0.38767255459E+02  0.00000000000E+00 0.  1.
         -2    1    1    2    0  502 -0.72216679303E+02 -0.12381572609E+03 -0.48357840770E+02  0.15127479486E+03  0.00000000000E+00 0.  1.
<scales pt_clust_5="13000.00000" pt_clust_6="13000.00000" pt_clust_7="13000.00000" pt_clust_8="13000.00000" pt_clust_9="22.08970" pt_clust_10="147.91317"></scales>
<clustering>
<clus scale="   22.090">  2  9  1 -1</clus>
<clus scale="   80.515">  5  6 -1 -1</clus>
<clus scale="   91.551">  7  8 -1 -1</clus>
<clus scale="   97.776">  2  7  1 -1</clus>
<clus scale="  147.913">  1 10  2 -1</clus>
<clus scale="  147.913">  1  5  2 -1</clus>
</clustering>
</event>
<event>
10    4  0.2977685E-005  0.1539289E+03  0.7546771E-02  0.1197792E+00
          2   -1    0    0  503    0 -0.00000000000E+00  0.00000000000E+00  0.11156081330E+03  0.11156081330E+03  0.00000000000E+00 0. -1.
         21   -1    0    0  501  502  0.00000000000E+00 -0.00000000000E+00 -0.54925898288E+03  0.54925898288E+03  0.00000000000E+00 0. -1.
         24    2    1    2    0    0  0.65918469958E+02  0.95626671235E+02  0.15662876654E+02  0.14188463004E+03  0.79976356520E+02 0.  0.
         23    2    1    2    0    0 -0.49889777812E+02 -0.90866820205E+02 -0.18283217279E+03  0.22937601989E+03  0.91869397222E+02 0.  0.
        -11    1    3    3    0    0  0.25414198383E+02  0.44930494409E+02 -0.32566366768E+02  0.61034408752E+02  0.00000000000E+00 0.  1.
         12    1    3    3    0    0  0.40504271575E+02  0.50696176825E+02  0.48229243421E+02  0.80850221283E+02  0.00000000000E+00 0. -1.
        -13    1    4    4    0    0 -0.50304277773E+02 -0.42035247581E+02 -0.16473111940E+03  0.17729586600E+03  0.00000000000E+00 0.  1.
         13    1    4    4    0    0  0.41449996113E+00 -0.48831572624E+02 -0.18101053397E+02  0.52080153890E+02  0.00000000000E+00 0. -1.
         21    1    1    2  503  502  0.57005254587E+01  0.27262568937E+02 -0.16031788177E+02  0.32136612885E+02  0.00000000000E+00 0. -1.
          1    1    1    2  501    0 -0.21729217605E+02 -0.32022419967E+02 -0.25449708526E+03  0.25742253337E+03  0.00000000000E+00 0. -1.
<scales pt_clust_5="13000.00000" pt_clust_6="13000.00000" pt_clust_7="13000.00000" pt_clust_8="13000.00000" pt_clust_9="27.85218" pt_clust_10="38.33503"></scales>
<clustering>
<clus scale="   27.852">  1  9  2 -1</clus>
<clus scale="   38.335">  2 10  1 -1</clus>
<clus scale="   79.976">  5  6 -1 -1</clus>
<clus scale="   91.869">  7  8 -1 -1</clus>
<clus scale="  147.141">  1  5  2 -1</clus>
<clus scale="   38.335">  2  5  1 -1</clus>
</clustering>
</event>
<event>
10    4  0.2977685E-005  0.1202628E+03  0.7546771E-02  0.1245441E+00
         -1   -1    0    0    0  501 -0.00000000000E+00  0.00000000000E+00  0.23613038203E+03  0.23613038203E+03  0.00000000000E+00 0.  1.
         21   -1    0    0  503  502  0.00000000000E+00 -0.00000000000E+00 -0.32280118130E+03  0.32280118130E+03  0.00000000000E+00 0. -1.
         24    2    1    2    0    0  0.10980347097E+03 -0.15755919162E+02  0.11663694001E+03  0.18017676600E+03  0.80959496078E+02 0.  0.
         23    2    1    2    0    0 -0.34985142329E+02 -0.89183479759E+02 -0.19005623486E+03  0.23105524099E+03  0.89930521709E+02 0.  0.
        -11    1    3    3    0    0  0.42874585588E+02 -0.42956737198E+02  0.76092312724E+02  0.97332170508E+02  0.00000000000E+00 0.  1.
         12    1    3    3    0    0  0.66928885382E+02  0.27200818036E+02  0.40544627287E+02  0.82844595491E+02  0.00000000000E+00 0. -1.
        -13    1    4    4    0    0  0.18914832829E+02 -0.49255327176E+02 -0.13267924234E+03  0.14278529162E+03  0.00000000000E+00 0.  1.
         13    1    4    4    0    0 -0.53899975158E+02 -0.39928152583E+02 -0.57376992518E+02  0.88269949366E+02  0.00000000000E+00 0. -1.
         21    1    1    2  503  501 -0.67388758511E+02  0.84105937344E+02  0.18149305220E+02  0.10929067092E+03  0.00000000000E+00 0. -1.
         -2    1    1    2    0  502 -0.74295701303E+01  0.20833461577E+02 -0.31400809641E+02  0.38408885427E+02  0.00000000000E+00 0.  1.
<scales pt_clust_5="13000.00000" pt_clust_6="13000.00000" pt_clust_7="13000.00000" pt_clust_8="13000.00000" pt_clust_9="111.08791" pt_clust_10="22.11858"></scales>
<clustering>
<clus scale="   22.119">  2 10  1 -1</clus>
<clus scale="   80.959">  5  6 -1 -1</clus>
<clus scale="   89.931">  7  8 -1 -1</clus>
<clus scale="  111.088">  1  9  2 -1</clus>
<clus scale="  113.711">  1  5  2 -1</clus>
<clus scale="   22.119">  2  5  1 -1</clus>
</clustering>
</event>
<event>
10    4  0.2977685E-005  0.1663065E+03  0.7546771E-02  0.1183420E+00
          2   -1    0    0  503    0 -0.00000000000E+00  0.00000000000E+00  0.54647785590E+03  0.54647785590E+03  0.00000000000E+00 0. -1.
         21   -1    0    0  501  502  0.00000000000E+00 -0.00000000000E+00 -0.25294609989E+03  0.25294609989E+03  0.00000000000E+00 0. -1.
         24    2    1    2    0    0  0.79236490006E+02 -0.10925035085E+03  0.22149125336E+03  0.27055999508E+03  0.77008279531E+02 0.  0.
         23    2    1    2    0    0 -0.15816948625E+03 -0.14227271683E+02 -0.78609976010E+02  0.19828134227E+03  0.88971684947E+02 0.  0.
        -11    1    3    3    0    0  0.48637399232E+02 -0.12063491994E+02  0.10111661624E+03  0.11285253441E+03  0.00000000000E+00 0.  1.
         12    1    3    3    0    0  0.30599090774E+02 -0.97186858855E+02  0.12037463711E+03  0.15770746067E+03  0.00000000000E+00 0. -1.
        -13    1    4    4    0    0 -0.91928515600E+02  0.52259620239E+01  0.20632645652E+01  0.92100052769E+02  0.00000000000E+00 0.  1.
         13    1    4    4    0    0 -0.66240970652E+02 -0.19453233707E+02 -0.80673240575E+02  0.10618128950E+03  0.00000000000E+00 0. -1.
         21    1    1    2  503  502  0.24601851393E+02 -0.94275497438E+01  0.18176829949E+03  0.18366775571E+03  0.00000000000E+00 0.  1.
          1    1    1    2  501    0  0.54331144854E+02  0.13290517228E+03 -0.31117820827E+02  0.14691486273E+03  0.00000000000E+00 0. -1.
<scales pt_clust_5="13000.00000" pt_clust_6="13000.00000" pt_clust_7="13000.00000" pt_clust_8="13000.00000" pt_clust_9="26.34634" pt_clust_10="143.73545"></scales>
<clustering>
<clus scale="   26.346">  1  9  2 -1</clus>
<clus scale="   77.008">  5  6 -1 -1</clus>
<clus scale="   88.972">  7  8 -1 -1</clus>
<clus scale="  143.735">  2 10  1 -1</clus>
<clus scale="  160.225">  1  5  2 -1</clus>
<clus scale="  143.735">  2  5  1 -1</clus>
</clustering>
</event>
<event>
10    4  0.2977685E-005  0.1242471E+03  0.7546771E-02  0.1239459E+00
         21   -1    0    0  501  502  0.00000000000E+00  0.00000000000E+00  0.88343537381E+02  0.88343537381E+02  0.00000000000E+00 0.  1.
          2   -1    0    0  503    0 -0.00000000000E+00 -0.00000000000E+00 -0.56579914409E+03  0.56579914409E+03  0.00000000000E+00 0. -1.
         23    2    1    2    0    0 -0.19711724372E+02  0.37293802076E+02 -0.28508330488E+03  0.30207920212E+03  0.90553707185E+02 0.  0.
         24    2    1    2    0    0  0.24987299584E+01 -0.12832670081E+03 -0.26115068392E+02  0.15317802420E+03  0.79419925120E+02 0.  0.
        -11    1    4    4    0    0 -0.32672634463E+02 -0.95289004930E+02 -0.60450562501E+01  0.10091599580E+03  0.00000000000E+00 0.  1.
         12    1    4    4    0    0  0.35171364422E+02 -0.33037695884E+02 -0.20070012142E+02  0.52262028395E+02  0.00000000000E+00 0. -1.
        -11    1    3    3    0    0  0.14063533906E+02  0.58120084280E+02 -0.18466788364E+03  0.19410809986E+03  0.00000000000E+00 0.  1.
         11    1    3    3    0    0 -0.33775258278E+02 -0.20826282203E+02 -0.10041542124E+03  0.10797110227E+03  0.00000000000E+00 0. -1.
         21    1    1    2  503  502  0.19871978048E+02  0.53505967216E+02 -0.14464364491E+03  0.15549780723E+03  0.00000000000E+00 0. -1.
          1    1    1    2  501    0 -0.26589836345E+01  0.37526931521E+02 -0.21613588530E+02  0.43387647926E+02  0.00000000000E+00 0. -1.
<scales pt_clust_5="13000.00000" pt_clust_6="13000.00000" pt_clust_7="13000.00000" pt_clust_8="13000.00000" pt_clust_9="59.48699" pt_clust_10="37.62102"></scales>
<clustering>
<clus scale="   37.621">  1 10  2 -1</clus>
<clus scale="   59.487">  2  9  1 -1</clus>
<clus scale="   79.420">  5  6 -1 -1</clus>
<clus scale="   90.554">  7  8 -1 -1</clus>
<clus scale="  116.383">  1  5  2 -1</clus>
<clus scale="   37.621">  1  5  2 -1</clus>
</clustering>
</event>
<event>
10    4  0.2977685E-005  0.1390408E+03  0.7546771E-02  0.1215921E+00
          2   -1    0    0  502    0 -0.00000000000E+00  0.00000000000E+00  0.14557501803E+03  0.14557501803E+03  0.00000000000E+00 0. -1.
         21   -1    0    0  503  502  0.00000000000E+00 -0.00000000000E+00 -0.44175576934E+03  0.44175576934E+03  0.00000000000E+00 0.  1.
         24    2    1    2    0    0 -0.79852298141E+02  0.76249847332E+02 -0.81101914599E+02  0.16129664122E+03  0.85139046167E+02 0.  0.
         23    2    1    2    0    0 -0.12911255277E+02 -0.12659795757E+03 -0.26017408246E+03  0.30358676864E+03  0.90997964467E+02 0.  0.
        -11    1    3    3    0    0 -0.48013376495E+02  0.48086145471E+02 -0.94797772247E+02  0.11663695526E+03  0.00000000000E+00 0.  1.
         12    1    3    3    0    0 -0.31838921646E+02  0.28163701861E+02  0.13695857647E+02  0.44659685968E+02  0.00000000000E+00 0. -1.
        -13    1    4    4    0    0 -0.34699470848E+02 -0.12946640380E+03 -0.21515600694E+03  0.25349104582E+03  0.00000000000E+00 0.  1.
         13    1    4    4    0    0  0.21788215571E+02  0.28684462250E+01 -0.45018075524E+02  0.50095722825E+02  0.00000000000E+00 0. -1.
         21    1    1    2  503  501  0.41842178940E+02  0.12964500002E+01  0.25737671699E+02  0.49141392589E+02  0.00000000000E+00 0. -1.
          1    1    1    2  501    0  0.50921374477E+02  0.49051660239E+02  0.19357574060E+02  0.73305984915E+02  0.00000000000E+00 0. -1.
<scales pt_clust_5="13000.00000" pt_clust_6="13000.00000" pt_clust_7="13000.00000" pt_clust_8="13000.00000" pt_clust_9="32.82447" pt_clust_10="113.84108"></scales>
<clustering>
<clus scale="   32.824">  9 10 -1 -1</clus>
<clus scale="   85.139">  5  6 -1 -1</clus>
<clus scale="   90.998">  7  8 -1 -1</clus>
<clus scale="  113.841">  2  9  1 -1</clus>
<clus scale="  135.279">  1  5  2 -1</clus>
<clus scale="  113.841">  2  5  1 -1</clus>
</clustering>
</event>
<event>
10    4  0.2977685E-005  0.2002509E+03  0.7546771E-02  0.1149953E+00
         21   -1    0    0  501  502  0.00000000000E+00  0.00000000000E+00  0.22964383312E+03  0.22964383312E+03  0.00000000000E+00 0.  1.
          2   -1    0    0  503    0 -0.00000000000E+00 -0.00000000000E+00 -0.47756759085E+03  0.47756759085E+03  0.00000000000E+00 0. -1.
         24    2    1    2    0    0 -0.59071380840E+02  0.19288624384E+03 -0.13511088702E+03  0.25716580010E+03  0.84762998128E+02 0.  0.
         23    2    1    2    0    0 -0.84440976261E+01 -0.18654774037E+03  0.77908849270E+02  0.22119392260E+03  0.89362186522E+02 0.  0.
        -11    1    3    3    0    0  0.16482426359E+02  0.32490782252E+02 -0.46156506964E+02  0.58802588762E+02  0.00000000000E+00 0.  1.
         12    1    3    3    0    0 -0.75553807199E+02  0.16039546159E+03 -0.88954380061E+02  0.19836321134E+03  0.00000000000E+00 0. -1.
        -13    1    4    4    0    0 -0.48635751340E+02 -0.10319555755E+03  0.36159968834E+02  0.11967582359E+03  0.00000000000E+00 0.  1.
         13    1    4    4    0    0  0.40191653714E+02 -0.83352182818E+02  0.41748880436E+02  0.10151809901E+03  0.00000000000E+00 0. -1.
         21    1    1    2  503  502  0.78338770961E+02 -0.36653636177E+02 -0.98030985776E+02  0.13073073951E+03  0.00000000000E+00 0.  1.
          1    1    1    2  501    0 -0.10823292494E+02  0.30315132705E+02 -0.92690734198E+02  0.98120961764E+02  0.00000000000E+00 0. -1.
<scales pt_clust_5="13000.00000" pt_clust_6="13000.00000" pt_clust_7="13000.00000" pt_clust_8="13000.00000" pt_clust_9="84.87366" pt_clust_10="32.18931"></scales>
<clustering>
<clus scale="   32.189">  1 10  2 -1</clus>
<clus scale="   84.763">  5  6 -1 -1</clus>
<clus scale="   84.874">  2  9  1 -1</clus>
<clus scale="   89.362">  7  8 -1 -1</clus>
<clus scale="  198.241">  2  5  1 -1</clus>
<clus scale="   32.189">  1  5  2 -1</clus>
</clustering>
</event>
<event>
10    4  0.2977685E-005  0.1564285E+03  0.7546771E-02  0.1201805E+00
         21   -1    0    0  501  502  0.00000000000E+00  0.00000000000E+00  0.19326168277E+03  0.19326168277E+03  0.00000000000E+00 0. -1.
          2   -1    0    0  503    0 -0.00000000000E+00 -0.00000000000E+00 -0.49212520099E+03  0.49212520099E+03  0.00000000000E+00 0. -1.
         24    2    1    2    0    0  0.34080018307E+02  0.10117198858E+03 -0.19902504533E+03  0.24021414512E+03  0.81820828164E+02 0.  0.
         23    2    1    2    0    0  0.11763058982E+03  0.46211771217E+02 -0.11346504957E+03  0.19233002468E+03  0.90244320925E+02 0.  0.
        -11    1    3    3    0    0 -0.96351918025E+01  0.48124809362E+02 -0.29451876491E+02  0.57238511739E+02  0.00000000000E+00 0.  1.
         12    1    3    3    0    0  0.43715210109E+02  0.53047179223E+02 -0.16957316884E+03  0.18297563338E+03  0.00000000000E+00 0. -1.
        -11    1    4    4    0    0  0.30336986829E+01  0.32894924562E+02 -0.52010991588E+02  0.61615116940E+02  0.00000000000E+00 0.  1.
         11    1    4    4    0    0  0.11459689114E+03  0.13316846655E+02 -0.61454057982E+02  0.13071490774E+03  0.00000000000E+00 0. -1.
         21    1    1    2  503  502 -0.66602850968E+02 -0.12615617535E+03 -0.42321888030E+02  0.14880343592E+03  0.00000000000E+00 0. -1.
          1    1    1    2  501    0 -0.85107757158E+02 -0.21227584452E+02  0.55948464719E+02  0.10403927804E+03  0.00000000000E+00 0. -1.
<scales pt_clust_5="13000.00000" pt_clust_6="13000.00000" pt_clust_7="13000.00000" pt_clust_8="13000.00000" pt_clust_9="127.77261" pt_clust_10="87.71511"></scales>
<clustering>
<clus scale="   81.821">  5  6 -1 -1</clus>
<clus scale="   87.715">  1 10  2 -1</clus>
<clus scale="   90.244">  7  8 -1 -1</clus>
<clus scale="  128.493">  2  5  1 -1</clus>
<clus scale="  127.773">  2  9  1 -1</clus>
<clus scale="   87.715">  1  5  2 -1</clus>
</clustering>
</event>
<event>
10    4  0.2977685E-005  0.1176847E+03  0.7546771E-02  0.1249642E+00
         21   -1    0    0  501  502  0.00000000000E+00  0.00000000000E+00  0.20806140226E+03  0.20806140226E+03  0.00000000000E+00 0.  1.
          2   -1    0    0  503    0 -0.00000000000E+00 -0.00000000000E+00 -0.23704686274E+03  0.23704686274E+03  0.00000000000E+00 0. -1.
         23    2    1    2    0    0 -0.40398956197E+02 -0.67716546573E+02 -0.64893834465E+02  0.13590346804E+03  0.89671269274E+02 0.  0.
         24    2    1    2    0    0 -0.53433163669E+02  0.88850576358E+02 -0.28052808042E+02  0.13479391781E+03  0.81442693597E+02 0.  0.
        -13    1    4    4    0    0  0.87784520543E+01  0.62813838300E+02 -0.21791905036E+02  0.67063601362E+02  0.00000000000E+00 0.  1.
         14    1    4    4    0    0 -0.62211615724E+02  0.26036738058E+02 -0.62609030058E+01  0.67730316448E+02  0.00000000000E+00 0. -1.
        -11    1    3    3    0    0 -0.26193465739E+02  0.28203019079E+01  0.13409563277E+02  0.29561260757E+02  0.00000000000E+00 0.  1.
         11    1    3    3    0    0 -0.14205490458E+02 -0.70536848481E+02 -0.78303397742E+02  0.10634220729E+03  0.00000000000E+00 0. -1.
         21    1    1    2  503  502  0.77465106464E+02 -0.34023798200E+02 -0.20800023251E+02  0.87126933440E+02  0.00000000000E+00 0.  1.
          1    1    1    2  501    0  0.16367013402E+02  0.12889768414E+02  0.84761205282E+02  0.87283945708E+02  0.00000000000E+00 0. -1.
<scales pt_clust_5="13000.00000" pt_clust_6="13000.00000" pt_clust_7="13000.00000" pt_clust_8="13000.00000" pt_clust_9="87.41416" pt_clust_10="20.83327"></scales>
<clustering>
<clus scale="   20.833">  1 10  2 -1</clus>
<clus scale="   81.443">  5  6 -1 -1</clus>
<clus scale="   87.414">  1  9  2 -1</clus>
<clus scale="   89.671">  7  8 -1 -1</clus>
<clus scale="  111.542">  1  5  2 -1</clus>
<clus scale="   20.833">  1  5  2 -1</clus>
</clustering>
</event>
<event>
10    4  0.2977685E-005  0.1178177E+03  0.7546771E-02  0.1252968E+00
         21   -1    0    0  503  502  0.00000000000E+00  0.00000000000E+00  0.39388260513E+02  0.39388260513E+02  0.00000000000E+00 0.  1.
          2   -1    0    0  502    0 -0.00000000000E+00 -0.00000000000E+00 -0.89168606964E+03  0.89168606964E+03  0.00000000000E+00 0. -1.
         24    2    1    2    0    0  0.23553960236E+02  0.61921471869E+02 -0.20080000084E+03  0.22614935687E+03  0.80211180962E+02 0.  0.
         23    2    1    2    0    0  0.61659857540E+02  0.17584441921E+02 -0.14627702855E+03  0.18379699262E+03  0.90957214028E+02 0.  0.
        -11    1    3    3    0    0 -0.28601651683E+02  0.35380866933E+02 -0.85790874531E+02  0.97107849202E+02  0.00000000000E+00 0.  1.
         12    1    3    3    0    0  0.52155611920E+02  0.26540604936E+02 -0.11500912631E+03  0.12904150766E+03  0.00000000000E+00 0. -1.
        -11    1    4    4    0    0  0.25750276393E+02 -0.84298181827E+01  0.37508487436E+01  0.27353380691E+02  0.00000000000E+00 0.  1.
         11    1    4    4    0    0  0.35909581147E+02  0.26014260104E+02 -0.15002787730E+03  0.15644361193E+03  0.00000000000E+00 0. -1.
         21    1    1    2  503  501 -0.44872676324E+02 -0.28174673357E+02 -0.13194662402E+03  0.14218748499E+03  0.00000000000E+00 0. -1.
          1    1    1    2  501    0 -0.40341141453E+02 -0.51331240433E+02 -0.37327415571E+03  0.37894049567E+03  0.00000000000E+00 0. -1.
<scales pt_clust_5="13000.00000" pt_clust_6="13000.00000" pt_clust_7="13000.00000" pt_clust_8="13000.00000" pt_clust_9="47.18849" pt_clust_10="91.38688"></scales>
<clustering>
<clus scale="   47.188">  9 10 -1 -1</clus>
<clus scale="   80.211">  5  6 -1 -1</clus>
<clus scale="   90.957">  7  8 -1 -1</clus>
<clus scale="  104.033">  2  5  1 -1</clus>
<clus scale="   91.387">  1  9  2 -1</clus>
<clus scale="   91.387">  1  5  2 -1</clus>
</clustering>
</event>
<event>
10    4  0.2977685E-005  0.1241947E+03  0.7546771E-02  0.1239875E+00
          4   -1    0    0  503    0 -0.00000000000E+00  0.00000000000E+00  0.37304327537E+03  0.37304327537E+03  0.00000000000E+00 0. -1.
         21   -1    0    0  501  502  0.00000000000E+00 -0.00000000000E+00 -0.47470562420E+03  0.47470562420E+03  0.00000000000E+00 0. -1.
         24    2    1    2    0    0  0.34685651239E+02  0.52270216695E+02  0.29271425529E+03  0.30977727614E+03  0.79655857324E+02 0.  0.
         23    2    1    2    0    0 -0.26332964489E+02 -0.12405065756E+03 -0.18275998021E+03  0.24062667816E+03  0.91749644239E+02 0.  0.
        -13    1    3    3    0    0  0.51062447345E+02  0.19118533717E+02  0.23493706569E+03  0.24118108694E+03  0.00000000000E+00 0.  1.
         14    1    3    3    0    0 -0.16376796106E+02  0.33151682978E+02  0.57777189599E+02  0.68596189201E+02  0.00000000000E+00 0. -1.
        -13    1    4    4    0    0  0.21467035989E+02 -0.33591754779E+02 -0.12123011800E+02  0.41667817778E+02  0.00000000000E+00 0.  1.
         13    1    4    4    0    0 -0.47800000478E+02 -0.90458902779E+02 -0.17063696841E+03  0.19895886038E+03  0.00000000000E+00 0. -1.
         21    1    1    2  503  502  0.20661641975E+02  0.10921429453E+02  0.34773276007E+02  0.41897038018E+02  0.00000000000E+00 0.  1.
          3    1    1    2  501    0 -0.29014328725E+02  0.60859011409E+02 -0.24638989992E+03  0.25544790726E+03  0.00000000000E+00 0. -1.
<scales pt_clust_5="13000.00000" pt_clust_6="13000.00000" pt_clust_7="13000.00000" pt_clust_8="13000.00000" pt_clust_9="23.37052" pt_clust_10="67.43526"></scales>
<clustering>
<clus scale="   23.371">  1  9  2 -1</clus>
<clus scale="   67.435">  2 10  1 -1</clus>
<clus scale="   79.656">  5  6 -1 -1</clus>
<clus scale="   91.750">  7  8 -1 -1</clus>
<clus scale="  115.548">  1  5  2 -1</clus>
<clus scale="   67.435">  2  5  1 -1</clus>
</clustering>
</event>
<event>
10    4  0.2977685E-005  0.1307095E+03  0.7546771E-02  0.1237883E+00
          2   -1    0    0  503    0 -0.00000000000E+00  0.00000000000E+00  0.93979023263E+03  0.93979023263E+03  0.00000000000E+00 0. -1.
         21   -1    0    0  501  502  0.00000000000E+00 -0.00000000000E+00 -0.59105057438E+02  0.59105057438E+02  0.00000000000E+00 0.  1.
         23    2    1    2    0    0  0.25693973381E+02  0.39975595714E+02  0.25278830394E+03  0.27391809964E+03  0.94185827929E+02 0.  0.
         24    2    1    2    0    0 -0.60875435221E+01  0.10281514509E+03  0.10849485615E+03  0.16127881285E+03  0.60263665819E+02 0.  0.
        -11    1    4    4    0    0  0.13370159419E+01  0.10549672228E+03  0.81973673472E+02  0.13360774366E+03  0.00000000000E+00 0.  1.
         12    1    4    4    0    0 -0.74245594640E+01 -0.26815771915E+01  0.26521182682E+02  0.27671069194E+02  0.00000000000E+00 0. -1.
        -13    1    3    3    0    0  0.28620991268E+02 -0.12147780299E+02  0.24078227169E+02  0.39325446354E+02  0.00000000000E+00 0.  1.
         13    1    3    3    0    0 -0.29270178875E+01  0.52123376013E+02  0.22871007677E+03  0.23459265329E+03  0.00000000000E+00 0. -1.
         21    1    1    2  503  502 -0.48470851698E+02 -0.20956148497E+01  0.38885619223E+02  0.62176413922E+02  0.00000000000E+00 0.  1.
          1    1    1    2  501    0  0.28864421839E+02 -0.14069512595E+03  0.48051639588E+03  0.50152196365E+03  0.00000000000E+00 0. -1.
<scales pt_clust_5="13000.00000" pt_clust_6="13000.00000" pt_clust_7="13000.00000" pt_clust_8="13000.00000" pt_clust_9="48.51613" pt_clust_10="115.98829"></scales>
<clustering>
<clus scale="   48.516">  2  9  1 -1</clus>
<clus scale="   60.264">  5  6 -1 -1</clus>
<clus scale="   94.186">  7  8 -1 -1</clus>
<clus scale="  103.219">  1  7  2 -1</clus>
<clus scale="  115.988">  2 10  1 -1</clus>
<clus scale="   48.516">  2  5  1 -1</clus>
</clustering>
</event>
<event>
10    4  0.2977685E-005  0.1631719E+03  0.7546771E-02  0.1186248E+00
         21   -1    0    0  503  502  0.00000000000E+00  0.00000000000E+00  0.19765109579E+03  0.19765109579E+03  0.00000000000E+00 0. -1.
         -1   -1    0    0    0  501 -0.00000000000E+00 -0.00000000000E+00 -0.78298432961E+03  0.78298432961E+03  0.00000000000E+00 0.  1.
         23    2    1    2    0    0 -0.36627758585E+02  0.15574211039E+03 -0.59435106089E+03  0.62234740176E+03  0.92010364908E+02 0.  0.
         24    2    1    2    0    0 -0.37860946735E+02 -0.95113118000E+02  0.13454572975E+03  0.18918673037E+03  0.84906472388E+02 0.  0.
        -11    1    4    4    0    0 -0.31425416120E+02 -0.99553450912E+01  0.40250236358E+01  0.33209433742E+02  0.00000000000E+00 0.  1.
         12    1    4    4    0    0 -0.64355306146E+01 -0.85157772909E+02  0.13052070611E+03  0.15597729663E+03  0.00000000000E+00 0. -1.
        -13    1    3    3    0    0  0.79464006387E+01  0.70367129804E+02 -0.39076516523E+03  0.39712981832E+03  0.00000000000E+00 0.  1.
         13    1    3    3    0    0 -0.44574159223E+02  0.85374980587E+02 -0.20358589566E+03  0.22521758345E+03  0.00000000000E+00 0. -1.
         21    1    1    2  503  501  0.50444319306E+02 -0.19033058981E+02 -0.10251616430E+03  0.11582940312E+03  0.00000000000E+00 0. -1.
         -2    1    1    2    0  502  0.24044386013E+02 -0.41595933411E+02 -0.23011738369E+02  0.53271890128E+02  0.00000000000E+00 0.  1.
<scales pt_clust_5="13000.00000" pt_clust_6="13000.00000" pt_clust_7="13000.00000" pt_clust_8="13000.00000" pt_clust_9="55.28268" pt_clust_10="48.04533"></scales>
<clustering>
<clus scale="   48.045">  1 10  2 -1</clus>
<clus scale="   55.283">  2  9  1 -1</clus>
<clus scale="   84.906">  5  6 -1 -1</clus>
<clus scale="   92.010">  7  8 -1 -1</clus>
<clus scale="  159.274">  1  5  2 -1</clus>
<clus scale="   48.045">  1  5  2 -1</clus>
</clustering>
</event>
<event>
10    4  0.2977685E-005  0.4095424E+03  0.7546771E-02  0.1040525E+00
         21   -1    0    0  503  502  0.00000000000E+00  0.00000000000E+00  0.47811167614E+02  0.47811167614E+02  0.00000000000E+00 0.  1.
          2   -1    0    0  502    0 -0.00000000000E+00 -0.00000000000E+00 -0.30087060123E+04  0.30087060123E+04  0.00000000000E+00 0. -1.
         24    2    1    2    0    0 -0.39052968217E+02  0.16826171886E+03 -0.10086101117E+04  0.10263199490E+04  0.78747315881E+02 0.  0.
         23    2    1    2    0    0 -0.15501444671E+03  0.10153390230E+03 -0.65624590006E+03  0.68816846160E+03  0.92620398325E+02 0.  0.
        -13    1    3    3    0    0  0.20239535351E+02  0.82162648231E+02 -0.49468193747E+03  0.50186707285E+03  0.00000000000E+00 0.  1.
         14    1    3    3    0    0 -0.59292503568E+02  0.86099070633E+02 -0.51392817427E+03  0.52445287610E+03  0.00000000000E+00 0. -1.
        -11    1    4    4    0    0 -0.14087065892E+03  0.11610413105E+03 -0.62315962559E+03  0.64934785035E+03  0.00000000000E+00 0.  1.
         11    1    4    4    0    0 -0.14143787783E+02 -0.14570228758E+02 -0.33086274473E+02  0.38820611244E+02  0.00000000000E+00 0. -1.
         21    1    1    2  503  501 -0.22308754220E+01 -0.57754323975E+02 -0.26743208203E+03  0.27360639109E+03  0.00000000000E+00 0. -1.
          1    1    1    2  501    0  0.19629829035E+03 -0.21204129719E+03 -0.10286067509E+04  0.10684223783E+04  0.00000000000E+00 0. -1.
<scales pt_clust_5="13000.00000" pt_clust_6="13000.00000" pt_clust_7="13000.00000" pt_clust_8="13000.00000" pt_clust_9="46.63466" pt_clust_10="348.31675"></scales>
<clustering>
<clus scale="   46.635">  9 10 -1 -1</clus>
<clus scale="   78.747">  5  6 -1 -1</clus>
<clus scale="   92.620">  7  8 -1 -1</clus>
<clus scale="  185.768">  5  7 -1 -1</clus>
<clus scale="  348.317">  1  9  2 -1</clus>
<clus scale="  348.317">  1  5  2 -1</clus>
</clustering>
</event>
<event>
10    4  0.3342719E-005  0.3144956E+03  0.7546771E-02  0.1078372E+00
         21   -1    0    0  503  502  0.00000000000E+00  0.00000000000E+00  0.41310046209E+03  0.41310046209E+03  0.00000000000E+00 0. -1.
         -3   -1    0    0    0  501 -0.00000000000E+00 -0.00000000000E+00 -0.37777363076E+03  0.37777363076E+03  0.00000000000E+00 0.  1.
         24    2    1    2    0    0  0.18882793107E+03 -0.26163927869E+03  0.25786749714E+02  0.33352383596E+03  0.80387144402E+02 0.  0.
         23    2    1    2    0    0 -0.20981381440E+03  0.19481747524E+03  0.96773739818E+02  0.31410213402E+03  0.85552957336E+02 0.  0.
        -13    1    3    3    0    0  0.10241434966E+03 -0.16163843774E+03 -0.22812052655E+02  0.19270722175E+03  0.00000000000E+00 0.  1.
         14    1    3    3    0    0  0.86413581414E+02 -0.10000084095E+03  0.48598802368E+02  0.14081661420E+03  0.00000000000E+00 0. -1.
        -11    1    4    4    0    0 -0.11108297042E+02  0.54279021478E+02  0.16047763036E+02  0.57681341301E+02  0.00000000000E+00 0.  1.
         11    1    4    4    0    0 -0.19870551735E+03  0.14053845376E+03  0.80725976782E+02  0.25642079272E+03  0.00000000000E+00 0. -1.
         21    1    1    2  503  501 -0.27690616240E+02  0.77008604496E+01 -0.22189492304E+01  0.28827022307E+02  0.00000000000E+00 0. -1.
         -4    1    1    2    0  502  0.48676499565E+02  0.59120943001E+02 -0.85014708973E+02  0.11442110056E+03  0.00000000000E+00 0.  1.
<scales pt_clust_5="13000.00000" pt_clust_6="13000.00000" pt_clust_7="13000.00000" pt_clust_8="13000.00000" pt_clust_9="28.74149" pt_clust_10="73.72836"></scales>
<clustering>
<clus scale="   28.741">  2  9  1 -1</clus>
<clus scale="   73.728">  1 10  2 -1</clus>
<clus scale="   80.387">  5  6 -1 -1</clus>
<clus scale="   85.553">  7  8 -1 -1</clus>
<clus scale="  313.130">  2  5  1 -1</clus>
<clus scale="   73.728">  1  5  2 -1</clus>
</clustering>
</event>
<event>
10    4  0.2977685E-005  0.1184307E+03  0.7546771E-02  0.1249669E+00
         21   -1    0    0  501  502  0.00000000000E+00  0.00000000000E+00  0.43321685206E+03  0.43321685206E+03  0.00000000000E+00 0. -1.
          2   -1    0    0  503    0 -0.00000000000E+00 -0.00000000000E+00 -0.11647811807E+03  0.11647811807E+03  0.00000000000E+00 0. -1.
         23    2    1    2    0    0 -0.10718487654E+02  0.74254012032E+02  0.10661532394E+03  0.15963167994E+03  0.92124381481E+02 0.  0.
         24    2    1    2    0    0  0.77668948025E+02 -0.46438439438E+02  0.17402721378E+03  0.21189901452E+03  0.80166870163E+02 0.  0.
        -13    1    4    4    0    0 -0.71465063065E+01 -0.24305822953E+02  0.77381916086E+02  0.81423623839E+02  0.00000000000E+00 0.  1.
         14    1    4    4    0    0  0.84815454332E+02 -0.22132616485E+02  0.96645297696E+02  0.13047539068E+03  0.00000000000E+00 0. -1.
        -11    1    3    3    0    0 -0.23161141045E+02 -0.14020778377E+02  0.11938907654E+02  0.29589832659E+02  0.00000000000E+00 0.  1.
         11    1    3    3    0    0  0.12442653391E+02  0.88274790409E+02  0.94676416281E+02  0.13004184728E+03  0.00000000000E+00 0. -1.
         21    1    1    2  503  502  0.38713710857E+02  0.34082278257E+02  0.16455774267E+02  0.54140055469E+02  0.00000000000E+00 0. -1.
          1    1    1    2  501    0 -0.10566417123E+03 -0.61897850851E+02  0.19640422003E+02  0.12402422021E+03  0.00000000000E+00 0. -1.
<scales pt_clust_5="13000.00000" pt_clust_6="13000.00000" pt_clust_7="13000.00000" pt_clust_8="13000.00000" pt_clust_9="51.57861" pt_clust_10="95.53890"></scales>
<clustering>
<clus scale="   51.579">  2  9  1 -1</clus>
<clus scale="   80.167">  5  6 -1 -1</clus>
<clus scale="   92.124">  7  8 -1 -1</clus>
<clus scale="   95.539">  1 10  2 -1</clus>
<clus scale="  109.388">  1  5  2 -1</clus>
<clus scale="   95.539">  1  5  2 -1</clus>
</clustering>
</event>
<event>
10    4  0.2977685E-005  0.4835111E+03  0.7546771E-02  0.1061160E+00
         21   -1    0    0  501  502  0.00000000000E+00  0.00000000000E+00  0.20816421813E+03  0.20816421813E+03  0.00000000000E+00 0. -1.
          2   -1    0    0  503    0 -0.00000000000E+00 -0.00000000000E+00 -0.21687505722E+04  0.21687505722E+04  0.00000000000E+00 0. -1.
         24    2    1    2    0    0 -0.10359489516E+03 -0.37926966135E+02 -0.16160755469E+03  0.21284892783E+03  0.83769369590E+02 0.  0.
         23    2    1    2    0    0 -0.36894570074E+03  0.14925075841E+03 -0.14748698064E+04  0.15303561579E+04  0.91390947770E+02 0.  0.
        -13    1    3    3    0    0 -0.62681068620E+02 -0.28585547941E+02 -0.30779754654E+02  0.75454908462E+02  0.00000000000E+00 0.  1.
         14    1    3    3    0    0 -0.40913826544E+02 -0.93414181938E+01 -0.13082780003E+03  0.13739401937E+03  0.00000000000E+00 0. -1.
        -13    1    4    4    0    0 -0.47153509744E+02  0.44835246766E+02 -0.16151776422E+03  0.17413110288E+03  0.00000000000E+00 0.  1.
         13    1    4    4    0    0 -0.32179219099E+03  0.10441551165E+03 -0.13133520421E+04  0.13562250550E+04  0.00000000000E+00 0. -1.
         21    1    1    2  503  502 -0.45089766592E+01  0.23960192000E+02 -0.74858493259E+02  0.78728747508E+02  0.00000000000E+00 0.  1.
          1    1    1    2  501    0  0.47704957256E+03 -0.13528398428E+03 -0.24925049972E+03  0.55498095706E+03  0.00000000000E+00 0. -1.
<scales pt_clust_5="13000.00000" pt_clust_6="13000.00000" pt_clust_7="13000.00000" pt_clust_8="13000.00000" pt_clust_9="24.38076" pt_clust_10="474.79540"></scales>
<clustering>
<clus scale="   24.381">  2  9  1 -1</clus>
<clus scale="   83.769">  5  6 -1 -1</clus>
<clus scale="   91.391">  7  8 -1 -1</clus>
<clus scale="  138.251">  2  5  1 -1</clus>
<clus scale="  474.795">  1 10  2 -1</clus>
<clus scale="  474.795">  1  5  2 -1</clus>
</clustering>
</event>
<event>
10    4  0.2977685E-005  0.1439970E+03  0.7546771E-02  0.1217057E+00
          4   -1    0    0  503    0 -0.00000000000E+00  0.00000000000E+00  0.10078004827E+03  0.10078004827E+03  0.00000000000E+00 0. -1.
         21   -1    0    0  501  502  0.00000000000E+00 -0.00000000000E+00 -0.53473901994E+03  0.53473901994E+03  0.00000000000E+00 0.  1.
         24    2    1    2    0    0  0.10592802379E+03  0.55643496360E+02 -0.43299391149E+02  0.14978074305E+03  0.79009422254E+02 0.  0.
         23    2    1    2    0    0 -0.54963520497E+02  0.46515564563E+02 -0.13662883516E+03  0.19155301810E+03  0.11331563799E+03 0.  0.
        -13    1    3    3    0    0  0.23726427726E+02 -0.79733680113E+01  0.16389170904E+02  0.29918604463E+02  0.00000000000E+00 0.  1.
         14    1    3    3    0    0  0.82201596062E+02  0.63616864371E+02 -0.59688562052E+02  0.11986213859E+03  0.00000000000E+00 0. -1.
        -11    1    4    4    0    0 -0.15585077589E+02 -0.37112804579E+02 -0.28618319001E+02  0.49388896420E+02  0.00000000000E+00 0. -1.
         11    1    4    4    0    0 -0.39378442908E+02  0.83628369142E+02 -0.10801051616E+03  0.14216412168E+03  0.00000000000E+00 0.  1.
         21    1    1    2  503  502 -0.48339707292E+02 -0.65945208074E+02 -0.73195522938E+02  0.10974097843E+03  0.00000000000E+00 0.  1.
          3    1    1    2  501    0 -0.26247959983E+01 -0.36213852848E+02 -0.18083522243E+03  0.18444432863E+03  0.00000000000E+00 0. -1.
<scales pt_clust_5="13000.00000" pt_clust_6="13000.00000" pt_clust_7="13000.00000" pt_clust_8="13000.00000" pt_clust_9="89.89530" pt_clust_10="36.30885"></scales>
<clustering>
<clus scale="   36.309">  2 10  1 -1</clus>
<clus scale="   79.009">  5  6 -1 -1</clus>
<clus scale="   89.895">  2  9  1 -1</clus>
<clus scale="  113.316">  7  8 -1 -1</clus>
<clus scale="  118.900">  1  5  2 -1</clus>
<clus scale="   36.309">  2  5  1 -1</clus>
</clustering>
</event>
<event>
10    4  0.2977685E-005  0.1284491E+03  0.7546771E-02  0.1259903E+00
         21   -1    0    0  501  502  0.00000000000E+00  0.00000000000E+00  0.37213547776E+02  0.37213547776E+02  0.00000000000E+00 0.  1.
          2   -1    0    0  503    0 -0.00000000000E+00 -0.00000000000E+00 -0.81013727102E+03  0.81013727102E+03  0.00000000000E+00 0. -1.
         24    2    1    2    0    0  0.18926308993E+02 -0.93833065424E+01 -0.22839239677E+03  0.23958496397E+03  0.69221502779E+02 0.  0.
         23    2    1    2    0    0 -0.82832097567E+02 -0.38559190443E+02 -0.19556101829E+03  0.23308244190E+03  0.87950811787E+02 0.  0.
        -11    1    3    3    0    0  0.32559202773E+02  0.87557713020E+01 -0.53575968536E+02  0.63302050685E+02  0.00000000000E+00 0.  1.
         12    1    3    3    0    0 -0.13632893780E+02 -0.18139077844E+02 -0.17481642823E+03  0.17628291329E+03  0.00000000000E+00 0. -1.
        -11    1    4    4    0    0 -0.99062386376E+02 -0.18339791231E+02 -0.15992231853E+03  0.18901019100E+03  0.00000000000E+00 0.  1.
         11    1    4    4    0    0  0.16230288809E+02 -0.20219399212E+02 -0.35638699760E+02  0.44072250906E+02  0.00000000000E+00 0. -1.
         21    1    1    2  503  502 -0.26014377496E+02  0.14706367731E+02 -0.16022231631E+03  0.16298532367E+03  0.00000000000E+00 0.  1.
          1    1    1    2  501    0  0.89920166070E+02  0.33236129255E+02 -0.18874799188E+03  0.21169808925E+03  0.00000000000E+00 0. -1.
<scales pt_clust_5="13000.00000" pt_clust_6="13000.00000" pt_clust_7="13000.00000" pt_clust_8="13000.00000" pt_clust_9="29.88353" pt_clust_10="93.61535"></scales>
<clustering>
<clus scale="   29.884">  2  9  1 -1</clus>
<clus scale="   69.222">  5  6 -1 -1</clus>
<clus scale="   69.995">  2  5  1 -1</clus>
<clus scale="   87.951">  7  8 -1 -1</clus>
<clus scale="   93.615">  1 10  2 -1</clus>
<clus scale="   93.615">  1  5  2 -1</clus>
</clustering>
</event>
<event>
10    4  0.2977685E-005  0.1134264E+03  0.7546771E-02  0.1265899E+00
          2   -1    0    0  502    0 -0.00000000000E+00  0.00000000000E+00  0.15675822343E+03  0.15675822343E+03  0.00000000000E+00 0. -1.
         21   -1    0    0  503  502  0.00000000000E+00 -0.00000000000E+00 -0.14581798777E+03  0.14581798777E+03  0.00000000000E+00 0. -1.
         24    2    1    2    0    0  0.38162396092E+02 -0.16610165989E+02  0.25934465635E+02  0.94049065960E+02  0.80251879793E+02 0.  0.
         23    2    1    2    0    0  0.33148228659E+02  0.58514983427E+02 -0.30176847196E+02  0.11484021720E+03  0.88061484376E+02 0.  0.
        -11    1    3    3    0    0 -0.18471363799E+02 -0.22043075715E+02 -0.51512065669E+01  0.29216834131E+02  0.00000000000E+00 0.  1.
         12    1    3    3    0    0  0.56633759892E+02  0.54329097258E+01  0.31085672202E+02  0.64832231828E+02  0.00000000000E+00 0. -1.
        -11    1    4    4    0    0  0.60894982782E+02  0.21580806327E+02 -0.18019799292E+02  0.67071926290E+02  0.00000000000E+00 0.  1.
         11    1    4    4    0    0 -0.27746754123E+02  0.36934177100E+02 -0.12157047904E+02  0.47768290907E+02  0.00000000000E+00 0. -1.
         21    1    1    2  503  501 -0.58249126002E+02 -0.11575137910E+02  0.11039754170E+02  0.60405468873E+02  0.00000000000E+00 0. -1.
          1    1    1    2  501    0 -0.13061498749E+02 -0.30329679528E+02  0.41428630535E+01  0.33281459165E+02  0.00000000000E+00 0. -1.
<scales pt_clust_5="13000.00000" pt_clust_6="13000.00000" pt_clust_7="13000.00000" pt_clust_8="13000.00000" pt_clust_9="30.79520" pt_clust_10="82.56059"></scales>
<clustering>
<clus scale="   30.795">  9 10 -1 -1</clus>
<clus scale="   80.252">  5  6 -1 -1</clus>
<clus scale="   88.061">  7  8 -1 -1</clus>
<clus scale="   90.403">  1  5  2 -1</clus>
<clus scale="   82.561">  2  9  1 -1</clus>
<clus scale="   82.561">  2  5  1 -1</clus>
</clustering>
</event>
<event>
10    4  0.2977685E-005  0.1202908E+03  0.7546771E-02  0.1245483E+00
         -3   -1    0    0    0  501 -0.00000000000E+00  0.00000000000E+00  0.34016348153E+03  0.34016348153E+03  0.00000000000E+00 0.  1.
         21   -1    0    0  503  502  0.00000000000E+00 -0.00000000000E+00 -0.10564047290E+03  0.10564047290E+03  0.00000000000E+00 0. -1.
         23    2    1    2    0    0 -0.84373106707E+02 -0.91431866327E-01  0.18565129567E+03  0.22258293469E+03  0.89207229169E+02 0.  0.
         24    2    1    2    0    0  0.42278721812E+02 -0.18196232447E+02 -0.15443759854E+02  0.93464293855E+02  0.79865332366E+02 0.  0.
        -11    1    4    4    0    0 -0.16033222209E+02 -0.25358230919E+02  0.65922980278E+01  0.30717462184E+02  0.00000000000E+00 0.  1.
         12    1    4    4    0    0  0.58311944022E+02  0.71619984724E+01 -0.22036057882E+02  0.62746831670E+02  0.00000000000E+00 0. -1.
        -11    1    3    3    0    0 -0.61842898647E+02 -0.42095602213E+02  0.10556181696E+03  0.12938269219E+03  0.00000000000E+00 0.  1.
         11    1    3    3    0    0 -0.22530208060E+02  0.42004170347E+02  0.80089478711E+02  0.93200242500E+02  0.00000000000E+00 0. -1.
         21    1    1    2  503  501 -0.15960360142E+02  0.22243610028E+02  0.66094508155E+02  0.71540165580E+02  0.00000000000E+00 0.  1.
         -4    1    1    2    0  502  0.58054745036E+02 -0.39559457150E+01 -0.17790353439E+01  0.58216560311E+02  0.00000000000E+00 0.  1.
<scales pt_clust_5="13000.00000" pt_clust_6="13000.00000" pt_clust_7="13000.00000" pt_clust_8="13000.00000" pt_clust_9="27.37720" pt_clust_10="56.41886"></scales>
<clustering>
<clus scale="   27.377">  1  9  2 -1</clus>
<clus scale="   56.419">  2 10  1 -1</clus>
<clus scale="   79.865">  5  6 -1 -1</clus>
<clus scale="   89.207">  7  8 -1 -1</clus>
<clus scale="  113.536">  2  5  1 -1</clus>
<clus scale="   56.419">  2  5  1 -1</clus>
</clustering>
</event>
<event>
10    4  0.2977685E-005  0.2398747E+03  0.7546771E-02  0.1130116E+00
          2   -1    0    0  503    0 -0.00000000000E+00  0.00000000000E+00  0.11589750176E+04  0.11589750176E+04  0.00000000000E+00 0. -1.
         21   -1    0    0  501  502  0.00000000000E+00 -0.00000000000E+00 -0.15037877896E+03  0.15037877896E+03  0.00000000000E+00 0. -1.
         24    2    1    2    0    0  0.31250943384E+02 -0.20910349739E+03  0.52006695153E+03  0.56681073780E+03  0.78127359651E+02 0.  0.
         23    2    1    2    0    0  0.13797996879E+03 -0.16940182607E+02  0.53356781380E+02  0.17421550879E+03  0.90435921020E+02 0.  0.
        -11    1    3    3    0    0  0.48201855179E+02 -0.94973697633E+02  0.20015812355E+03  0.22673044901E+03  0.00000000000E+00 0.  1.
         12    1    3    3    0    0 -0.16950911795E+02 -0.11412979976E+03  0.31990882798E+03  0.34008028879E+03  0.00000000000E+00 0. -1.
        -13    1    4    4    0    0  0.19763245874E+02  0.16204542223E+02  0.44253420604E+02  0.51103212339E+02  0.00000000000E+00 0.  1.
         13    1    4    4    0    0  0.11821672291E+03 -0.33144724830E+02  0.91033607752E+01  0.12311229645E+03  0.00000000000E+00 0. -1.
         21    1    1    2  503  502 -0.22463849310E+03  0.20532183096E+03  0.38500875557E+03  0.49076598162E+03  0.00000000000E+00 0. -1.
          1    1    1    2  501    0  0.55407580932E+02  0.20721849045E+02  0.50163750143E+02  0.77561568325E+02  0.00000000000E+00 0. -1.
<scales pt_clust_5="13000.00000" pt_clust_6="13000.00000" pt_clust_7="13000.00000" pt_clust_8="13000.00000" pt_clust_9="226.79507" pt_clust_10="59.15568"></scales>
<clustering>
<clus scale="   59.156">  2 10  1 -1</clus>
<clus scale="   78.127">  5  6 -1 -1</clus>
<clus scale="   90.436">  7  8 -1 -1</clus>
<clus scale="  186.113">  2  7  1 -1</clus>
<clus scale="  226.795">  2  9  1 -1</clus>
<clus scale="   59.156">  2  5  1 -1</clus>
</clustering>
</event>
<event>
10    4  0.2977685E-005  0.1847354E+03  0.7546771E-02  0.1180624E+00
          2   -1    0    0  503    0 -0.00000000000E+00  0.00000000000E+00  0.33344080882E+03  0.33344080882E+03  0.00000000000E+00 0. -1.
         21   -1    0    0  501  502  0.00000000000E+00 -0.00000000000E+00 -0.41909665329E+03  0.41909665329E+03  0.00000000000E+00 0. -1.
         23    2    1    2    0    0 -0.72043786829E+02  0.50497025619E+02 -0.49522624212E+02  0.13618999682E+03  0.91405514647E+02 0.  0.
         24    2    1    2    0    0  0.94962236470E+02 -0.18936000835E+03  0.19535646669E+03  0.29918820045E+03  0.80463601049E+02 0.  0.
        -11    1    4    4    0    0  0.50121324473E+02 -0.10751307098E+03  0.55281409895E+02  0.13087108878E+03  0.00000000000E+00 0.  1.
         12    1    4    4    0    0  0.44840911997E+02 -0.81846937374E+02  0.14007505679E+03  0.16831711167E+03  0.00000000000E+00 0. -1.
        -13    1    3    3    0    0 -0.24376083721E+02  0.30971102351E+02 -0.70340957723E+02  0.80630347710E+02  0.00000000000E+00 0. -1.
         13    1    3    3    0    0 -0.47667703108E+02  0.19525923268E+02  0.20818333511E+02  0.55559649110E+02  0.00000000000E+00 0.  1.
         21    1    1    2  503  502  0.18793560573E+02 -0.17796184143E+02  0.87632589570E+01  0.27325753359E+02  0.00000000000E+00 0. -1.
          1    1    1    2  501    0 -0.41712010214E+02  0.15665916688E+03 -0.24025294590E+03  0.28983351148E+03  0.00000000000E+00 0. -1.
<scales pt_clust_5="13000.00000" pt_clust_6="13000.00000" pt_clust_7="13000.00000" pt_clust_8="13000.00000" pt_clust_9="25.88247" pt_clust_10="166.29127"></scales>
<clustering>
<clus scale="   25.882">  1  9  2 -1</clus>
<clus scale="   80.464">  5  6 -1 -1</clus>
<clus scale="   91.406">  7  8 -1 -1</clus>
<clus scale="  124.454">  1  7  2 -1</clus>
<clus scale="  166.291">  2 10  1 -1</clus>
<clus scale="  166.291">  2  5  1 -1</clus>
</clustering>
</event>
<event>
10    4  0.2977685E-005  0.2648837E+03  0.7546771E-02  0.1139588E+00
         21   -1    0    0  503  502  0.00000000000E+00  0.00000000000E+00  0.13950194628E+03  0.13950194628E+03  0.00000000000E+00 0. -1.
          2   -1    0    0  502    0 -0.00000000000E+00 -0.00000000000E+00 -0.10462286810E+04  0.10462286810E+04  0.00000000000E+00 0. -1.
         24    2    1    2    0    0 -0.74019725105E+02 -0.10398940290E+02 -0.14932194932E+03  0.18531725466E+03  0.80364063250E+02 0.  0.
         23    2    1    2    0    0  0.26332605271E+03  0.19796302963E+02 -0.74267508214E+02  0.28910882254E+03  0.91300300353E+02 0.  0.
        -13    1    3    3    0    0 -0.71761275362E+02  0.16146608901E+02 -0.69612206776E+02  0.10127316008E+03  0.00000000000E+00 0.  1.
         14    1    3    3    0    0 -0.22584497437E+01 -0.26545549191E+02 -0.79709742546E+02  0.84044094580E+02  0.00000000000E+00 0. -1.
        -11    1    4    4    0    0  0.43795716243E+02 -0.31506651873E+02 -0.15331538898E+02  0.56087342231E+02  0.00000000000E+00 0.  1.
         11    1    4    4    0    0  0.21953033647E+03  0.51302954836E+02 -0.58935969315E+02  0.23302148031E+03  0.00000000000E+00 0. -1.
         21    1    1    2  503  501 -0.76408459680E+02  0.19884150072E+02 -0.33384295154E+03  0.34305210745E+03  0.00000000000E+00 0. -1.
          1    1    1    2  501    0 -0.11289786793E+03 -0.29281512744E+02 -0.34929432564E+03  0.36825244262E+03  0.00000000000E+00 0. -1.
<scales pt_clust_5="13000.00000" pt_clust_6="13000.00000" pt_clust_7="13000.00000" pt_clust_8="13000.00000" pt_clust_9="47.63801" pt_clust_10="255.30402"></scales>
<clustering>
<clus scale="   47.638">  9 10 -1 -1</clus>
<clus scale="   80.364">  5  6 -1 -1</clus>
<clus scale="   91.300">  7  8 -1 -1</clus>
<clus scale="  109.752">  2  5  1 -1</clus>
<clus scale="  255.304">  1  9  2 -1</clus>
<clus scale="  255.304">  1  5  2 -1</clus>
</clustering>
</event>
<event>
10    4  0.2977685E-005  0.2613518E+03  0.7546771E-02  0.1149350E+00
         21   -1    0    0  503  502  0.00000000000E+00  0.00000000000E+00  0.29655899883E+03  0.29655899883E+03  0.00000000000E+00 0.  1.
         -1   -1    0    0    0  501 -0.00000000000E+00 -0.00000000000E+00 -0.79258370402E+03  0.79258370402E+03  0.00000000000E+00 0.  1.
         23    2    1    2    0    0  0.18151032229E+01 -0.44888007571E+01  0.11724218641E+03  0.14807700710E+03  0.90319576089E+02 0.  0.
         24    2    1    2    0    0  0.12702614766E+02  0.26538260501E+03 -0.38005718807E+03  0.47062370803E+03  0.80336323605E+02 0.  0.
        -11    1    4    4    0    0 -0.26994296785E+02  0.87731498266E+02 -0.16550516833E+03  0.18925503584E+03  0.00000000000E+00 0.  1.
         12    1    4    4    0    0  0.39696911551E+02  0.17765110675E+03 -0.21455201974E+03  0.28136867219E+03  0.00000000000E+00 0. -1.
        -13    1    3    3    0    0 -0.24476996405E+02 -0.71387540351E+01 -0.23455844561E+01  0.25604431816E+02  0.00000000000E+00 0. -1.
         13    1    3    3    0    0  0.26292099628E+02  0.26499532779E+01  0.11958777087E+03  0.12247257528E+03  0.00000000000E+00 0.  1.
         21    1    1    2  503  501 -0.41714457064E+02 -0.18073636339E+02 -0.22118405307E+03  0.22580774476E+03  0.00000000000E+00 0.  1.
         -2    1    1    2    0  502  0.27196739075E+02 -0.24282016792E+03 -0.12025650473E+02  0.24463424297E+03  0.00000000000E+00 0.  1.
<scales pt_clust_5="13000.00000" pt_clust_6="13000.00000" pt_clust_7="13000.00000" pt_clust_8="13000.00000" pt_clust_9="45.46155" pt_clust_10="248.69824"></scales>
<clustering>
<clus scale="   45.462">  2  9  1 -1</clus>
<clus scale="   80.336">  5  6 -1 -1</clus>
<clus scale="   90.320">  7  8 -1 -1</clus>
<clus scale="   90.459">  2  7  1 -1</clus>
<clus scale="  248.698">  1 10  2 -1</clus>
<clus scale="  248.698">  1  5  2 -1</clus>
</clustering>
</event>
<event>
10    4  0.2977685E-005  0.9490364E+02  0.7546771E-02  0.1305670E+00
          2   -1    0    0  503    0 -0.00000000000E+00  0.00000000000E+00  0.85208481781E+03  0.85208481781E+03  0.00000000000E+00 0. -1.
         21   -1    0    0  501  502  0.00000000000E+00 -0.00000000000E+00 -0.94626461146E+02  0.94626461146E+02  0.00000000000E+00 0. -1.
         24    2    1    2    0    0  0.20974364844E+02 -0.36599150907E+01  0.52621664289E+03  0.53100636296E+03  0.67900539690E+02 0.  0.
         23    2    1    2    0    0 -0.61096409855E+02  0.10465789719E+02  0.17072453947E+03  0.20320557971E+03  0.91122638229E+02 0.  0.
        -11    1    3    3    0    0  0.15466924325E+02 -0.34404591611E+02  0.22104371133E+03  0.22423921154E+03  0.00000000000E+00 0.  1.
         12    1    3    3    0    0  0.55074405188E+01  0.30744676520E+02  0.30517293156E+03  0.30676715142E+03  0.00000000000E+00 0. -1.
        -13    1    4    4    0    0  0.61921819761E+01 -0.29600209687E+02  0.32911698595E+02  0.44695586309E+02  0.00000000000E+00 0.  1.
         13    1    4    4    0    0 -0.67288591831E+02  0.40065999405E+02  0.13781284087E+03  0.15850999340E+03  0.00000000000E+00 0. -1.
         21    1    1    2  503  502  0.14043813220E+02 -0.45854761972E+02  0.12433776183E+03  0.13326577543E+03  0.00000000000E+00 0.  1.
          1    1    1    2  501    0  0.26078231791E+02  0.39048887344E+02 -0.63820587512E+02  0.79233560860E+02  0.00000000000E+00 0. -1.
<scales pt_clust_5="13000.00000" pt_clust_6="13000.00000" pt_clust_7="13000.00000" pt_clust_8="13000.00000" pt_clust_9="42.79859" pt_clust_10="46.95625"></scales>
<clustering>
<clus scale="   46.956">  2 10  1 -1</clus>
<clus scale="   42.799">  2  9  1 -1</clus>
<clus scale="   67.901">  5  6 -1 -1</clus>
<clus scale="   72.896">  1  5  2 -1</clus>
<clus scale="   91.123">  7  8 -1 -1</clus>
<clus scale="   46.956">  2  5  1 -1</clus>
</clustering>
</event>
<event>
10    4  0.2977685E-005  0.1557268E+03  0.7546771E-02  0.1214412E+00
          2   -1    0    0  503    0 -0.00000000000E+00  0.00000000000E+00  0.71881636985E+03  0.71881636985E+03  0.00000000000E+00 0. -1.
         21   -1    0    0  501  502  0.00000000000E+00 -0.00000000000E+00 -0.40265238560E+03  0.40265238560E+03  0.00000000000E+00 0. -1.
         24    2    1    2    0    0  0.79025593639E+01  0.36407962809E+02  0.42835662170E+03  0.43736103088E+03  0.80045523130E+02 0.  0.
         23    2    1    2    0    0  0.12917724896E+03  0.40279175182E+02 -0.60845081530E+02  0.17426079167E+03  0.91408566154E+02 0.  0.
        -11    1    3    3    0    0  0.93993584843E+01 -0.21040691148E+02  0.55384871356E+02  0.59987853763E+02  0.00000000000E+00 0.  1.
         12    1    3    3    0    0 -0.14967991204E+01  0.57448653957E+02  0.37297175035E+03  0.37737317711E+03  0.00000000000E+00 0. -1.
        -11    1    4    4    0    0  0.13431428862E+03  0.13671695497E+02 -0.42512973482E+02  0.14154361977E+03  0.00000000000E+00 0. -1.
         11    1    4    4    0    0 -0.51370396580E+01  0.26607479684E+02 -0.18332108048E+02  0.32717171899E+02  0.00000000000E+00 0.  1.
         21    1    1    2  503  502 -0.48248505866E+02  0.14073898804E+02  0.21178670235E+03  0.21766855593E+03  0.00000000000E+00 0. -1.
          1    1    1    2  501    0 -0.88831302458E+02 -0.90761036794E+02 -0.26313425827E+03  0.29217837698E+03  0.00000000000E+00 0. -1.
<scales pt_clust_5="13000.00000" pt_clust_6="13000.00000" pt_clust_7="13000.00000" pt_clust_8="13000.00000" pt_clust_9="50.25926" pt_clust_10="126.07655"></scales>
<clustering>
<clus scale="   50.259">  1  9  2 -1</clus>
<clus scale="   80.046">  5  6 -1 -1</clus>
<clus scale="   91.409">  7  8 -1 -1</clus>
<clus scale="   99.413">  1  5  2 -1</clus>
<clus scale="  126.077">  2 10  1 -1</clus>
<clus scale="  126.077">  2  5  1 -1</clus>
</clustering>
</event>
<event>
10    4  0.2977685E-005  0.4549780E+03  0.7546771E-02  0.1072476E+00
         21   -1    0    0  501  502  0.00000000000E+00  0.00000000000E+00  0.68436285569E+03  0.68436285569E+03  0.00000000000E+00 0. -1.
          4   -1    0    0  503    0 -0.00000000000E+00 -0.00000000000E+00 -0.66142012110E+03  0.66142012110E+03  0.00000000000E+00 0. -1.
         23    2    1    2    0    0 -0.56723930659E+02 -0.64006230092E+02 -0.27229198510E+03  0.29850823923E+03  0.87463374859E+02 0.  0.
         24    2    1    2    0    0  0.75877262461E+02  0.41746795805E+03  0.28927705473E+03  0.51977448246E+03  0.80295972924E+02 0.  0.
        -11    1    4    4    0    0 -0.13003645326E+01  0.19962415056E+03  0.11564175440E+03  0.23070437316E+03  0.00000000000E+00 0.  1.
         12    1    4    4    0    0  0.77177626993E+02  0.21784380748E+03  0.17363530033E+03  0.28907010930E+03  0.00000000000E+00 0. -1.
        -13    1    3    3    0    0 -0.24405695061E+02  0.20484493106E+02 -0.69791774352E+02  0.76721210734E+02  0.00000000000E+00 0.  1.
         13    1    3    3    0    0 -0.32318235597E+02 -0.84490723198E+02 -0.20250021075E+03  0.22178702850E+03  0.00000000000E+00 0. -1.
         21    1    1    2  503  502 -0.23039820982E+02 -0.43612307125E+03 -0.28942522129E+02  0.43768920047E+03  0.00000000000E+00 0. -1.
          3    1    1    2  501    0  0.38864891799E+01  0.82661343291E+02  0.34900187093E+02  0.89811054620E+02  0.00000000000E+00 0. -1.
<scales pt_clust_5="13000.00000" pt_clust_6="13000.00000" pt_clust_7="13000.00000" pt_clust_8="13000.00000" pt_clust_9="447.83652" pt_clust_10="82.75266"></scales>
<clustering>
<clus scale="   80.296">  5  6 -1 -1</clus>
<clus scale="   82.753">  1 10  2 -1</clus>
<clus scale="   87.463">  7  8 -1 -1</clus>
<clus scale="  121.388">  2  7  1 -1</clus>
<clus scale="  447.837">  2  9  1 -1</clus>
<clus scale="   82.753">  1  5  2 -1</clus>
</clustering>
</event>
<event>
10    4  0.2977685E-005  0.2199235E+03  0.7546771E-02  0.1146252E+00
          2   -1    0    0  503    0 -0.00000000000E+00  0.00000000000E+00  0.15572892720E+04  0.15572892720E+04  0.00000000000E+00 0. -1.
         21   -1    0    0  501  502  0.00000000000E+00 -0.00000000000E+00 -0.11325983484E+03  0.11325983484E+03  0.00000000000E+00 0. -1.
         24    2    1    2    0    0  0.44610102714E+02  0.12098241178E+03  0.34487524306E+03  0.37684614909E+03  0.80294966132E+02 0.  0.
         23    2    1    2    0    0  0.19425607594E+03 -0.13149093706E+02  0.11821591807E+03  0.24490346982E+03  0.89968797576E+02 0.  0.
        -11    1    3    3    0    0 -0.17608329111E+02  0.15461062237E+02  0.24747030547E+02  0.34080980333E+02  0.00000000000E+00 0.  1.
         12    1    3    3    0    0  0.62218431825E+02  0.10552134954E+03  0.32012821251E+03  0.34276516876E+03  0.00000000000E+00 0. -1.
        -11    1    4    4    0    0  0.37604736286E+02  0.31235282939E+02  0.11468624651E+02  0.50212433149E+02  0.00000000000E+00 0.  1.
         11    1    4    4    0    0  0.15665133965E+03 -0.44384376644E+02  0.10674729342E+03  0.19469103667E+03  0.00000000000E+00 0. -1.
         21    1    1    2  503  502 -0.28014460219E+02  0.50790057661E+02  0.47180188726E+03  0.47535403729E+03  0.00000000000E+00 0. -1.
          1    1    1    2  501    0 -0.21085171843E+03 -0.15862337573E+03  0.50913638876E+03  0.57344545064E+03  0.00000000000E+00 0. -1.
<scales pt_clust_5="13000.00000" pt_clust_6="13000.00000" pt_clust_7="13000.00000" pt_clust_8="13000.00000" pt_clust_9="58.00379" pt_clust_10="200.67888"></scales>
<clustering>
<clus scale="   58.004">  1  9  2 -1</clus>
<clus scale="   80.295">  5  6 -1 -1</clus>
<clus scale="   89.969">  7  8 -1 -1</clus>
<clus scale="  163.423">  1  5  2 -1</clus>
<clus scale="  200.679">  2 10  1 -1</clus>
<clus scale="  200.679">  2  5  1 -1</clus>
</clustering>
</event>
<event>
10    4  0.2977685E-005  0.1633888E+03  0.7546771E-02  0.1213312E+00
         21   -1    0    0  501  502  0.00000000000E+00  0.00000000000E+00  0.57803418285E+03  0.57803418285E+03  0.00000000000E+00 0. -1.
          2   -1    0    0  503    0 -0.00000000000E+00 -0.00000000000E+00 -0.62920206778E+03  0.62920206778E+03  0.00000000000E+00 0. -1.
         24    2    1    2    0    0 -0.55213814352E+02  0.27510504605E+02 -0.75136569410E+02  0.12558924089E+03  0.79509497578E+02 0.  0.
         23    2    1    2    0    0  0.12668845614E+03 -0.56218162074E+02 -0.25876565954E+02  0.16920143535E+03  0.93536529734E+02 0.  0.
        -11    1    3    3    0    0 -0.64224540216E+02  0.31569762823E+02 -0.27063165348E+02  0.76510498687E+02  0.00000000000E+00 0.  1.
         12    1    3    3    0    0  0.90107258643E+01 -0.40592582179E+01 -0.48073404062E+02  0.49078742201E+02  0.00000000000E+00 0. -1.
        -11    1    4    4    0    0  0.11512629982E+02  0.18269172225E+02 -0.23642303434E+02  0.32019709783E+02  0.00000000000E+00 0.  1.
         11    1    4    4    0    0  0.11517582616E+03 -0.74487334299E+02 -0.22342625193E+01  0.13718172557E+03  0.00000000000E+00 0. -1.
         21    1    1    2  503  502  0.58918933034E+02 -0.10539735053E+01 -0.41990826981E+03  0.42402300242E+03  0.00000000000E+00 0. -1.
          1    1    1    2  501    0 -0.13039357482E+03  0.29761630974E+02  0.46975352024E+03  0.48842257197E+03  0.00000000000E+00 0. -1.
<scales pt_clust_5="13000.00000" pt_clust_6="13000.00000" pt_clust_7="13000.00000" pt_clust_8="13000.00000" pt_clust_9="58.92836" pt_clust_10="133.96579"></scales>
<clustering>
<clus scale="   58.928">  2  9  1 -1</clus>
<clus scale="   79.509">  5  6 -1 -1</clus>
<clus scale="   88.105">  2  5  1 -1</clus>
<clus scale="   93.537">  7  8 -1 -1</clus>
<clus scale="  133.966">  1 10  2 -1</clus>
<clus scale="  133.966">  1  5  2 -1</clus>
</clustering>
</event>
<event>
10    4  0.2977685E-005  0.1804637E+03  0.7546771E-02  0.1187110E+00
          2   -1    0    0  503    0 -0.00000000000E+00  0.00000000000E+00  0.15667908094E+04  0.15667908094E+04  0.00000000000E+00 0. -1.
         21   -1    0    0  501  502  0.00000000000E+00 -0.00000000000E+00 -0.55819692837E+02  0.55819692837E+02  0.00000000000E+00 0. -1.
         23    2    1    2    0    0  0.68916740295E+02  0.38046276379E+02  0.16920362114E+03  0.20735477193E+03  0.90383072497E+02 0.  0.
         24    2    1    2    0    0 -0.20367757173E+03  0.70238229266E+02  0.73042363201E+03  0.76540528686E+03  0.76867476066E+02 0.  0.
        -13    1    4    4    0    0 -0.13456984311E+03  0.86414674911E+01  0.39183404127E+03  0.41438826423E+03  0.00000000000E+00 0.  1.
         14    1    4    4    0    0 -0.69107728614E+02  0.61596761774E+02  0.33858959074E+03  0.35101702262E+03  0.00000000000E+00 0. -1.
        -11    1    3    3    0    0  0.43854617960E+02 -0.21989542880E+02  0.10527493696E+03  0.11614465061E+03  0.00000000000E+00 0.  1.
         11    1    3    3    0    0  0.25062122335E+02  0.60035819259E+02  0.63928684181E+02  0.91210121319E+02  0.00000000000E+00 0. -1.
         21    1    1    2  503  502  0.72721444504E+01 -0.88924861069E+02  0.20605770645E+03  0.22454463563E+03  0.00000000000E+00 0. -1.
          1    1    1    2  501    0  0.12748868698E+03 -0.19359644575E+02  0.40528615698E+03  0.42530580785E+03  0.00000000000E+00 0. -1.
<scales pt_clust_5="13000.00000" pt_clust_6="13000.00000" pt_clust_7="13000.00000" pt_clust_8="13000.00000" pt_clust_9="89.22172" pt_clust_10="163.27445"></scales>
<clustering>
<clus scale="   76.867">  5  6 -1 -1</clus>
<clus scale="   89.222">  2  9  1 -1</clus>
<clus scale="   90.383">  7  8 -1 -1</clus>
<clus scale="  115.502">  1  7  2 -1</clus>
<clus scale="  163.274">  2 10  1 -1</clus>
<clus scale="   89.222">  2  5  1 -1</clus>
</clustering>
</event>
<event>
10    4  0.2977685E-005  0.1679327E+03  0.7546771E-02  0.1199504E+00
         21   -1    0    0  501  502  0.00000000000E+00  0.00000000000E+00  0.50949609705E+03  0.50949609705E+03  0.00000000000E+00 0.  1.
          2   -1    0    0  503    0 -0.00000000000E+00 -0.00000000000E+00 -0.40985084883E+03  0.40985084883E+03  0.00000000000E+00 0. -1.
         24    2    1    2    0    0 -0.78635455455E+01 -0.29199122324E+02 -0.29133457525E+03  0.30351444700E+03  0.79566077640E+02 0.  0.
         23    2    1    2    0    0 -0.10538663388E+03  0.13518822325E+03  0.25776607404E+03  0.32416485682E+03  0.96214900939E+02 0.  0.
        -11    1    3    3    0    0 -0.36071688060E+02  0.93691666267E+01 -0.12170978217E+03  0.12728793752E+03  0.00000000000E+00 0.  1.
         12    1    3    3    0    0  0.28208142515E+02 -0.38568288950E+02 -0.16962479308E+03  0.17622650948E+03  0.00000000000E+00 0. -1.
        -13    1    4    4    0    0 -0.19402686497E+01  0.26412013038E+02  0.71507310967E+00  0.26492836857E+02  0.00000000000E+00 0. -1.
         13    1    4    4    0    0 -0.10344636523E+03  0.10877621021E+03  0.25705100093E+03  0.29767201996E+03  0.00000000000E+00 0.  1.
         21    1    1    2  503  502  0.90204710931E+00 -0.53175316990E+02 -0.48246141997E+02  0.71806115642E+02  0.00000000000E+00 0. -1.
          1    1    1    2  501    0  0.11234813232E+03 -0.52813783934E+02  0.18145989142E+03  0.21986152643E+03  0.00000000000E+00 0. -1.
<scales pt_clust_5="13000.00000" pt_clust_6="13000.00000" pt_clust_7="13000.00000" pt_clust_8="13000.00000" pt_clust_9="53.18297" pt_clust_10="137.63756"></scales>
<clustering>
<clus scale="   53.183">  2  9  1 -1</clus>
<clus scale="   79.566">  5  6 -1 -1</clus>
<clus scale="   96.215">  7  8 -1 -1</clus>
<clus scale="  109.169">  2  5  1 -1</clus>
<clus scale="  137.638">  1 10  2 -1</clus>
<clus scale="  137.638">  1  5  2 -1</clus>
</clustering>
</event>
<event>
10    4  0.2977685E-005  0.1834091E+03  0.7546771E-02  0.1164576E+00
          2   -1    0    0  503    0 -0.00000000000E+00  0.00000000000E+00  0.52886377469E+03  0.52886377469E+03  0.00000000000E+00 0. -1.
         21   -1    0    0  501  502  0.00000000000E+00 -0.00000000000E+00 -0.35925090073E+03  0.35925090073E+03  0.00000000000E+00 0. -1.
         24    2    1    2    0    0  0.70066513929E+02  0.16621621929E+03  0.20675808922E+03  0.28591412564E+03  0.80379299903E+02 0.  0.
         23    2    1    2    0    0 -0.20632799679E+03 -0.34163131412E+02 -0.17972950120E+03  0.28714436654E+03  0.80067670293E+02 0.  0.
        -11    1    3    3    0    0 -0.11030637606E+02  0.46818092487E+02  0.82320599561E+02  0.95343011607E+02  0.00000000000E+00 0.  1.
         12    1    3    3    0    0  0.81097151535E+02  0.11939812680E+03  0.12443748966E+03  0.19057111404E+03  0.00000000000E+00 0. -1.
        -13    1    4    4    0    0 -0.16174366465E+03  0.52123430217E+01 -0.14996561079E+03  0.22063060983E+03  0.00000000000E+00 0. -1.
         13    1    4    4    0    0 -0.44584332137E+02 -0.39375474433E+02 -0.29763890410E+02  0.66513756707E+02  0.00000000000E+00 0.  1.
         21    1    1    2  503  502  0.27531487996E+02 -0.36099826066E+02  0.16246127539E+03  0.16868564336E+03  0.00000000000E+00 0. -1.
          1    1    1    2  501    0  0.10872999486E+03 -0.95953261814E+02 -0.19876989466E+02  0.14637053988E+03  0.00000000000E+00 0. -1.
<scales pt_clust_5="13000.00000" pt_clust_6="13000.00000" pt_clust_7="13000.00000" pt_clust_8="13000.00000" pt_clust_9="45.40022" pt_clust_10="152.77468"></scales>
<clustering>
<clus scale="   45.400">  1  9  2 -1</clus>
<clus scale="   80.068">  7  8 -1 -1</clus>
<clus scale="   80.379">  5  6 -1 -1</clus>
<clus scale="  152.775">  2 10  1 -1</clus>
<clus scale="  183.273">  2  7  1 -1</clus>
<clus scale="  152.775">  2  5  1 -1</clus>
</clustering>
</event>
<event>
10    4  0.2977685E-005  0.1608212E+03  0.7546771E-02  0.1188638E+00
         21   -1    0    0  501  502  0.00000000000E+00  0.00000000000E+00  0.20518752604E+03  0.20518752604E+03  0.00000000000E+00 0.  1.
          2   -1    0    0  503    0 -0.00000000000E+00 -0.00000000000E+00 -0.62559227860E+03  0.62559227860E+03  0.00000000000E+00 0. -1.
         24    2    1    2    0    0  0.64052630886E+01  0.15700212596E+03 -0.45460167022E+03  0.48784676382E+03  0.81492891995E+02 0.  0.
         23    2    1    2    0    0 -0.15115765438E+02 -0.17533036556E+03  0.54367889848E+02  0.20381179317E+03  0.87259132112E+02 0.  0.
        -11    1    3    3    0    0 -0.37179388030E+02  0.76370011734E+02 -0.23528860703E+03  0.25015078290E+03  0.00000000000E+00 0.  1.
         12    1    3    3    0    0  0.43584651118E+02  0.80632114224E+02 -0.21931306319E+03  0.23769598091E+03  0.00000000000E+00 0. -1.
        -13    1    4    4    0    0  0.39001176978E+01 -0.14442035964E+03  0.74244979670E+02  0.16243388872E+03  0.00000000000E+00 0.  1.
         13    1    4    4    0    0 -0.19015883136E+02 -0.30910005915E+02 -0.19877089822E+02  0.41377904453E+02  0.00000000000E+00 0. -1.
         21    1    1    2  503  502  0.10935688755E+02 -0.33861058277E+02 -0.62478444544E+02  0.71900741226E+02  0.00000000000E+00 0. -1.
          1    1    1    2  501    0 -0.22251864049E+01  0.52189297879E+02  0.42307472353E+02  0.67220506428E+02  0.00000000000E+00 0. -1.
<scales pt_clust_5="13000.00000" pt_clust_6="13000.00000" pt_clust_7="13000.00000" pt_clust_8="13000.00000" pt_clust_9="35.58315" pt_clust_10="51.47209"></scales>
<clustering>
<clus scale="   35.583">  2  9  1 -1</clus>
<clus scale="   51.472">  1 10  2 -1</clus>
<clus scale="   81.493">  5  6 -1 -1</clus>
<clus scale="   87.259">  7  8 -1 -1</clus>
<clus scale="  157.767">  2  5  1 -1</clus>
<clus scale="   51.472">  1  5  2 -1</clus>
</clustering>
</event>
<event>
10    4  0.2977685E-005  0.1321380E+03  0.7546771E-02  0.1241024E+00
         21   -1    0    0  501  502  0.00000000000E+00  0.00000000000E+00  0.26227192840E+03  0.26227192840E+03  0.00000000000E+00 0. -1.
          2   -1    0    0  503    0 -0.00000000000E+00 -0.00000000000E+00 -0.79377891418E+03  0.79377891418E+03  0.00000000000E+00 0. -1.
         24    2    1    2    0    0  0.65572370969E+01  0.23886300221E+02 -0.47959066631E+03  0.48670011089E+03  0.79096384403E+02 0.  0.
         23    2    1    2    0    0  0.29936658760E+02  0.42483128025E+02 -0.37335586745E+02  0.10864719895E+03  0.87802323991E+02 0.  0.
        -11    1    3    3    0    0 -0.33333692635E+02  0.26896347411E+02 -0.23967400855E+03  0.24347110494E+03  0.00000000000E+00 0.  1.
         12    1    3    3    0    0  0.39890929732E+02 -0.30100471897E+01 -0.23991665777E+03  0.24322900594E+03  0.00000000000E+00 0. -1.
        -11    1    4    4    0    0 -0.22259064605E+02 -0.10641427200E+02  0.13783376160E+01  0.24710437967E+02  0.00000000000E+00 0.  1.
         11    1    4    4    0    0  0.52195723365E+02  0.53124555224E+02 -0.38713924361E+02  0.83936760986E+02  0.00000000000E+00 0. -1.
         21    1    1    2  503  502  0.30177545474E+02  0.17374393286E+02 -0.22337317438E+03  0.22607107030E+03  0.00000000000E+00 0. -1.
          1    1    1    2  501    0 -0.66671441331E+02 -0.83743821532E+02  0.20879244166E+03  0.23463246244E+03  0.00000000000E+00 0. -1.
<scales pt_clust_5="13000.00000" pt_clust_6="13000.00000" pt_clust_7="13000.00000" pt_clust_8="13000.00000" pt_clust_9="34.82174" pt_clust_10="98.74820"></scales>
<clustering>
<clus scale="   34.822">  2  9  1 -1</clus>
<clus scale="   79.096">  5  6 -1 -1</clus>
<clus scale="   87.802">  7  8 -1 -1</clus>
<clus scale="   93.726">  2  5  1 -1</clus>
<clus scale="   98.748">  1 10  2 -1</clus>
<clus scale="   98.748">  1  5  2 -1</clus>
</clustering>
</event>
<event>
10    4  0.2977685E-005  0.1613847E+03  0.7546771E-02  0.1210332E+00
         -1   -1    0    0    0  501 -0.00000000000E+00  0.00000000000E+00  0.84466361013E+03  0.84466361013E+03  0.00000000000E+00 0.  1.
         21   -1    0    0  503  502  0.00000000000E+00 -0.00000000000E+00 -0.68027118193E+02  0.68027118193E+02  0.00000000000E+00 0. -1.
         23    2    1    2    0    0 -0.19971051981E+02 -0.23278151045E+02  0.29778567437E+03  0.31233348763E+03  0.89079652016E+02 0.  0.
         24    2    1    2    0    0  0.14461560291E+03  0.12321986894E+02  0.13162486504E+03  0.21161333023E+03  0.79934926452E+02 0.  0.
        -13    1    4    4    0    0  0.10679368996E+03  0.25400634976E+02  0.13188675644E+03  0.17159312631E+03  0.00000000000E+00 0.  1.
         14    1    4    4    0    0  0.37821912949E+02 -0.13078648082E+02 -0.26189139492E+00  0.40020203921E+02  0.00000000000E+00 0. -1.
        -11    1    3    3    0    0 -0.36653488045E+02 -0.50398066724E+02  0.20206075465E+03  0.21145210305E+03  0.00000000000E+00 0.  1.
         11    1    3    3    0    0  0.16682436064E+02  0.27119915679E+02  0.95724919726E+02  0.10088138459E+03  0.00000000000E+00 0. -1.
         21    1    1    2  503  501  0.81103818235E+01 -0.30205812912E+02  0.10406037772E+03  0.10865878537E+03  0.00000000000E+00 0.  1.
         -2    1    1    2    0  502 -0.13275493275E+03  0.41161977063E+02  0.24316557481E+03  0.28008512509E+03  0.00000000000E+00 0.  1.
<scales pt_clust_5="13000.00000" pt_clust_6="13000.00000" pt_clust_7="13000.00000" pt_clust_8="13000.00000" pt_clust_9="31.27570" pt_clust_10="140.19788"></scales>
<clustering>
<clus scale="   31.276">  1  9  2 -1</clus>
<clus scale="   79.935">  5  6 -1 -1</clus>
<clus scale="   89.080">  7  8 -1 -1</clus>
<clus scale="   97.417">  1  7  2 -1</clus>
<clus scale="  140.198">  2 10  1 -1</clus>
<clus scale="  140.198">  2  5  1 -1</clus>
</clustering>
</event>
<event>
10    4  0.2977685E-005  0.9702101E+02  0.7546771E-02  0.1291791E+00
          2   -1    0    0  503    0 -0.00000000000E+00  0.00000000000E+00  0.11208250371E+03  0.11208250371E+03  0.00000000000E+00 0. -1.
         21   -1    0    0  501  502  0.00000000000E+00 -0.00000000000E+00 -0.26579954437E+03  0.26579954437E+03  0.00000000000E+00 0. -1.
         24    2    1    2    0    0 -0.20805227714E+02  0.40807530516E+01  0.23296941598E+02  0.86521095030E+02  0.80583139376E+02 0.  0.
         23    2    1    2    0    0  0.22842789506E+02 -0.34018507679E+02 -0.10953898513E+03  0.14768543985E+03  0.90183967443E+02 0.  0.
        -13    1    3    3    0    0 -0.33900039108E+02  0.29412307269E+02  0.33744514510E+02  0.56151480211E+02  0.00000000000E+00 0.  1.
         14    1    3    3    0    0  0.13094811394E+02 -0.25331554217E+02 -0.10447572913E+02  0.30369614819E+02  0.00000000000E+00 0. -1.
        -11    1    4    4    0    0 -0.45690294992E+01  0.29449144315E+02 -0.36394094930E+02  0.47038901744E+02  0.00000000000E+00 0.  1.
         11    1    4    4    0    0  0.27411819005E+02 -0.63467651994E+02 -0.73144890204E+02  0.10064653811E+03  0.00000000000E+00 0. -1.
         21    1    1    2  503  502 -0.18293039211E+02  0.15653040000E+02  0.33026537934E+02  0.40870590315E+02  0.00000000000E+00 0.  1.
          1    1    1    2  501    0  0.16255477419E+02  0.14284714627E+02 -0.10050153506E+03  0.10280492287E+03  0.00000000000E+00 0. -1.
<scales pt_clust_5="13000.00000" pt_clust_6="13000.00000" pt_clust_7="13000.00000" pt_clust_8="13000.00000" pt_clust_9="24.00824" pt_clust_10="21.64009"></scales>
<clustering>
<clus scale="   21.640">  2 10  1 -1</clus>
<clus scale="   24.008">  1  9  2 -1</clus>
<clus scale="   80.583">  5  6 -1 -1</clus>
<clus scale="   88.168">  1  5  2 -1</clus>
<clus scale="   90.184">  7  8 -1 -1</clus>
<clus scale="   21.640">  2  5  1 -1</clus>
</clustering>
</event>
<event>
10    4  0.2977685E-005  0.1464405E+03  0.7546771E-02  0.1206801E+00
         21   -1    0    0  503  502  0.00000000000E+00  0.00000000000E+00  0.88050423611E+02  0.88050423611E+02  0.00000000000E+00 0.  1.
         -1   -1    0    0    0  501 -0.00000000000E+00 -0.00000000000E+00 -0.66828612280E+03  0.66828612280E+03  0.00000000000E+00 0.  1.
         23    2    1    2    0    0  0.10494506809E+02  0.89649198354E+02 -0.48188369877E+03  0.49789953407E+03  0.86861576376E+02 0.  0.
         24    2    1    2    0    0 -0.68189963722E+02 -0.86857601841E+02 -0.33067929901E+02  0.15000808935E+03  0.95993878622E+02 0.  0.
        -11    1    4    4    0    0 -0.91130157783E+02 -0.53330751700E+02 -0.21314437600E+02  0.10771805784E+03  0.00000000000E+00 0.  1.
         12    1    4    4    0    0  0.22940194062E+02 -0.33526850141E+02 -0.11753492300E+02  0.42290031511E+02  0.00000000000E+00 0. -1.
        -13    1    3    3    0    0  0.46540727405E+02  0.68636269426E+02 -0.34310087873E+03  0.35298043823E+03  0.00000000000E+00 0.  1.
         13    1    3    3    0    0 -0.36046220596E+02  0.21012928928E+02 -0.13878282004E+03  0.14491909584E+03  0.00000000000E+00 0. -1.
         21    1    1    2  503  501  0.18502945527E+02  0.27556033094E+02 -0.42363153039E+02  0.53817568586E+02  0.00000000000E+00 0. -1.
         -2    1    1    2    0  502  0.39192511386E+02 -0.30347629607E+02 -0.22920917480E+02  0.54611354402E+02  0.00000000000E+00 0.  1.
<scales pt_clust_5="13000.00000" pt_clust_6="13000.00000" pt_clust_7="13000.00000" pt_clust_8="13000.00000" pt_clust_9="33.19178" pt_clust_10="49.47170"></scales>
<clustering>
<clus scale="   33.192">  2  9  1 -1</clus>
<clus scale="   49.472">  1 10  2 -1</clus>
<clus scale="   86.862">  7  8 -1 -1</clus>
<clus scale="   95.994">  5  6 -1 -1</clus>
<clus scale="  140.623">  2  7  1 -1</clus>
<clus scale="   49.472">  1  5  2 -1</clus>
</clustering>
</event>
<event>
10    4  0.2977685E-005  0.2647248E+03  0.7546771E-02  0.1139156E+00
          2   -1    0    0  503    0 -0.00000000000E+00  0.00000000000E+00  0.12535828156E+04  0.12535828156E+04  0.00000000000E+00 0. -1.
         21   -1    0    0  501  502  0.00000000000E+00 -0.00000000000E+00 -0.29546415182E+03  0.29546415182E+03  0.00000000000E+00 0. -1.
         24    2    1    2    0    0 -0.14636652717E+03 -0.10297585404E+03  0.15634296241E+03  0.25184387693E+03  0.83396820441E+02 0.  0.
         23    2    1    2    0    0 -0.47484490341E+02  0.19560327996E+02 -0.24972070613E+02  0.10301725125E+03  0.85741276470E+02 0.  0.
        -13    1    3    3    0    0 -0.81985226430E+02 -0.20649397286E+02  0.34487137399E+02  0.91309022594E+02  0.00000000000E+00 0.  1.
         14    1    3    3    0    0 -0.64381300743E+02 -0.82326456757E+02  0.12185582501E+03  0.16053485434E+03  0.00000000000E+00 0. -1.
        -13    1    4    4    0    0 -0.77839723033E+01  0.47903625761E+02 -0.71078112281E+00  0.48537128012E+02  0.00000000000E+00 0. -1.
         13    1    4    4    0    0 -0.39700518038E+02 -0.28343297764E+02 -0.24261289490E+02  0.54480123241E+02  0.00000000000E+00 0.  1.
         21    1    1    2  503  502  0.23948862182E+03  0.14749092549E+03  0.98127430422E+03  0.10207877513E+04  0.00000000000E+00 0. -1.
          1    1    1    2  501    0 -0.45637604301E+02 -0.64075399444E+02 -0.15452653223E+03  0.17339808795E+03  0.00000000000E+00 0. -1.
<scales pt_clust_5="13000.00000" pt_clust_6="13000.00000" pt_clust_7="13000.00000" pt_clust_8="13000.00000" pt_clust_9="251.24529" pt_clust_10="78.66669"></scales>
<clustering>
<clus scale="   78.667">  2 10  1 -1</clus>
<clus scale="   83.397">  5  6 -1 -1</clus>
<clus scale="   85.741">  7  8 -1 -1</clus>
<clus scale="  111.103">  2  7  1 -1</clus>
<clus scale="  251.245">  1  9  2 -1</clus>
<clus scale="   78.667">  2  5  1 -1</clus>
</clustering>
</event>
<event>
10    4  0.2977685E-005  0.1794983E+03  0.7546771E-02  0.1169086E+00
         21   -1    0    0  503  502  0.00000000000E+00  0.00000000000E+00  0.34537249773E+03  0.34537249773E+03  0.00000000000E+00 0.  1.
         -1   -1    0    0    0  501 -0.00000000000E+00 -0.00000000000E+00 -0.37452959618E+03  0.37452959618E+03  0.00000000000E+00 0.  1.
         23    2    1    2    0    0  0.15157468368E+03 -0.60454868850E+02 -0.22540117954E+03  0.29167521555E+03  0.87401737543E+02 0.  0.
         24    2    1    2    0    0 -0.80617878156E+02  0.12250913772E+03  0.15297672591E+03  0.22669957215E+03  0.80517614472E+02 0.  0.
        -11    1    4    4    0    0 -0.61695591551E+02  0.39239099243E+02  0.35001513822E+02  0.81062684979E+02  0.00000000000E+00 0.  1.
         12    1    4    4    0    0 -0.18922286606E+02  0.83270038477E+02  0.11797521208E+03  0.14563688717E+03  0.00000000000E+00 0. -1.
        -13    1    3    3    0    0  0.73189329954E+02 -0.50152502710E+02 -0.17956704658E+03  0.20029047847E+03  0.00000000000E+00 0.  1.
         13    1    3    3    0    0  0.78385353728E+02 -0.10302366140E+02 -0.45834132964E+02  0.91384737083E+02  0.00000000000E+00 0. -1.
         21    1    1    2  503  501 -0.25659524231E+02 -0.40530503328E+02 -0.65830721449E+02  0.81454384598E+02  0.00000000000E+00 0.  1.
         -2    1    1    2    0  502 -0.45297281296E+02 -0.21523765542E+02  0.10909807664E+03  0.12007292160E+03  0.00000000000E+00 0.  1.
<scales pt_clust_5="13000.00000" pt_clust_6="13000.00000" pt_clust_7="13000.00000" pt_clust_8="13000.00000" pt_clust_9="47.97012" pt_clust_10="50.89299"></scales>
<clustering>
<clus scale="   47.970">  2  9  1 -1</clus>
<clus scale="   50.893">  1 10  2 -1</clus>
<clus scale="   80.518">  5  6 -1 -1</clus>
<clus scale="   87.402">  7  8 -1 -1</clus>
<clus scale="  176.249">  1  5  2 -1</clus>
<clus scale="   50.893">  1  5  2 -1</clus>
</clustering>
</event>
<event>
10    4  0.2977685E-005  0.3111318E+03  0.7546771E-02  0.1124555E+00
         21   -1    0    0  501  502  0.00000000000E+00  0.00000000000E+00  0.73155888622E+02  0.73155888622E+02  0.00000000000E+00 0. -1.
          2   -1    0    0  503    0 -0.00000000000E+00 -0.00000000000E+00 -0.23675381118E+04  0.23675381118E+04  0.00000000000E+00 0. -1.
         24    2    1    2    0    0 -0.11172399201E+02 -0.58189813264E+02 -0.30424926039E+03  0.32021954297E+03  0.80386978903E+02 0.  0.
         23    2    1    2    0    0  0.10008057678E+03  0.30519859449E+03 -0.14520967987E+04  0.14899307070E+04  0.90255719367E+02 0.  0.
        -13    1    3    3    0    0 -0.35973914012E+02 -0.24112054022E+02 -0.70790918231E+02  0.82987154081E+02  0.00000000000E+00 0.  1.
         14    1    3    3    0    0  0.24801514810E+02 -0.34077759242E+02 -0.23345834216E+03  0.23723238889E+03  0.00000000000E+00 0. -1.
        -11    1    4    4    0    0 -0.82694694905E+01  0.54423431207E+02 -0.15802228902E+03  0.16733600275E+03  0.00000000000E+00 0.  1.
         11    1    4    4    0    0  0.10835004627E+03  0.25077516329E+03 -0.12940745097E+04  0.13225947042E+04  0.00000000000E+00 0. -1.
         21    1    1    2  503  502  0.19811396448E+02  0.22194971573E+02 -0.10542045723E+03  0.10953803447E+03  0.00000000000E+00 0. -1.
          1    1    1    2  501    0 -0.10871957402E+03 -0.26920375280E+03 -0.43261570687E+03  0.52100571603E+03  0.00000000000E+00 0. -1.
<scales pt_clust_5="13000.00000" pt_clust_6="13000.00000" pt_clust_7="13000.00000" pt_clust_8="13000.00000" pt_clust_9="29.75077" pt_clust_10="297.75312"></scales>
<clustering>
<clus scale="   29.751">  2  9  1 -1</clus>
<clus scale="   80.387">  5  6 -1 -1</clus>
<clus scale="   90.256">  7  8 -1 -1</clus>
<clus scale="   97.836">  2  5  1 -1</clus>
<clus scale="  297.753">  1 10  2 -1</clus>
<clus scale="  297.753">  1  5  2 -1</clus>
</clustering>
</event>
<event>
10    4  0.2977685E-005  0.2130188E+03  0.7546771E-02  0.1160090E+00
         21   -1    0    0  503  502  0.00000000000E+00  0.00000000000E+00  0.70938644509E+02  0.70938644509E+02  0.00000000000E+00 0.  1.
         -3   -1    0    0    0  501 -0.00000000000E+00 -0.00000000000E+00 -0.15282623150E+04  0.15282623150E+04  0.00000000000E+00 0.  1.
         24    2    1    2    0    0  0.64265204726E+02 -0.59221273298E+02 -0.49536388872E+03  0.50995463423E+03  0.83852077948E+02 0.  0.
         23    2    1    2    0    0 -0.25445076450E+02  0.21760835868E+03 -0.42562029274E+03  0.48783863778E+03  0.93984324426E+02 0.  0.
        -13    1    3    3    0    0  0.83679582799E+02 -0.53630184788E+02 -0.37713223096E+03  0.39000921647E+03  0.00000000000E+00 0.  1.
         14    1    3    3    0    0 -0.19414378072E+02 -0.55910885094E+01 -0.11823165776E+03  0.11994541777E+03  0.00000000000E+00 0. -1.
        -11    1    4    4    0    0  0.19344182304E+02  0.56223426101E+02 -0.18760561474E+03  0.19680228076E+03  0.00000000000E+00 0. -1.
         11    1    4    4    0    0 -0.44789258755E+02  0.16138493258E+03 -0.23801467800E+03  0.29103635701E+03  0.00000000000E+00 0.  1.
         21    1    1    2  503  501  0.43932733446E+02  0.90456029286E+01 -0.28372572059E+03  0.28724935601E+03  0.00000000000E+00 0.  1.
         -4    1    1    2    0  502 -0.82752861722E+02 -0.16743268831E+03 -0.25261376841E+03  0.31415833146E+03  0.00000000000E+00 0.  1.
<scales pt_clust_5="13000.00000" pt_clust_6="13000.00000" pt_clust_7="13000.00000" pt_clust_8="13000.00000" pt_clust_9="44.85430" pt_clust_10="191.16471"></scales>
<clustering>
<clus scale="   44.854">  2  9  1 -1</clus>
<clus scale="   83.852">  5  6 -1 -1</clus>
<clus scale="   93.984">  7  8 -1 -1</clus>
<clus scale="  129.800">  2  5  1 -1</clus>
<clus scale="  191.165">  1 10  2 -1</clus>
<clus scale="  191.165">  1  5  2 -1</clus>
</clustering>
</event>
<event>
10    4  0.2977685E-005  0.1547120E+03  0.7546771E-02  0.1196612E+00
         21   -1    0    0  501  502  0.00000000000E+00  0.00000000000E+00  0.17785002095E+03  0.17785002095E+03  0.00000000000E+00 0.  1.
          2   -1    0    0  503    0 -0.00000000000E+00 -0.00000000000E+00 -0.28681785501E+03  0.28681785501E+03  0.00000000000E+00 0. -1.
         24    2    1    2    0    0  0.10746877671E+03  0.50729934420E+01 -0.10114741277E+03  0.16820678176E+03  0.80544702445E+02 0.  0.
         23    2    1    2    0    0 -0.13371367890E+03 -0.46610790941E+02  0.74219923335E+02  0.18404569724E+03  0.91171859119E+02 0.  0.
        -11    1    3    3    0    0  0.21880863035E+02  0.23482109681E+01  0.12962246228E+02  0.25540283655E+02  0.00000000000E+00 0.  1.
         12    1    3    3    0    0  0.85587913673E+02  0.27247824739E+01 -0.11410965900E+03  0.14266649811E+03  0.00000000000E+00 0. -1.
        -13    1    4    4    0    0 -0.11908041473E+03 -0.67056309328E+02  0.79849893875E+02  0.15828044524E+03  0.00000000000E+00 0.  1.
         13    1    4    4    0    0 -0.14633264166E+02  0.20445518387E+02 -0.56299705400E+01  0.25765251998E+02  0.00000000000E+00 0. -1.
         21    1    1    2  503  502  0.27948123570E+02  0.13268684726E+02 -0.63262575333E+01  0.31578111720E+02  0.00000000000E+00 0. -1.
          1    1    1    2  501    0 -0.17032213777E+01  0.28269112773E+02 -0.75714087097E+02  0.80837285240E+02  0.00000000000E+00 0. -1.
<scales pt_clust_5="13000.00000" pt_clust_6="13000.00000" pt_clust_7="13000.00000" pt_clust_8="13000.00000" pt_clust_9="31.75681" pt_clust_10="28.32039"></scales>
<clustering>
<clus scale="   28.320">  1 10  2 -1</clus>
<clus scale="   31.757">  2  9  1 -1</clus>
<clus scale="   80.545">  5  6 -1 -1</clus>
<clus scale="   91.172">  7  8 -1 -1</clus>
<clus scale="  148.697">  2  5  1 -1</clus>
<clus scale="   28.320">  1  5  2 -1</clus>
</clustering>
</event>
<event>
10    4  0.2977685E-005  0.1695318E+03  0.7546771E-02  0.1180067E+00
         21   -1    0    0  501  502  0.00000000000E+00  0.00000000000E+00  0.45578521393E+03  0.45578521393E+03  0.00000000000E+00 0.  1.
          2   -1    0    0  503    0 -0.00000000000E+00 -0.00000000000E+00 -0.63815738591E+03  0.63815738591E+03  0.00000000000E+00 0. -1.
         23    2    1    2    0    0  0.86415830850E+02 -0.11910608559E+03 -0.45893158570E+03  0.49072360331E+03  0.92398587906E+02 0.  0.
         24    2    1    2    0    0 -0.98125229272E+02  0.13857848590E+03  0.40468251235E+03  0.44607712103E+03  0.79901844343E+02 0.  0.
        -13    1    4    4    0    0 -0.48355214487E+02  0.11545180236E+03  0.33335447103E+03  0.35607941361E+03  0.00000000000E+00 0.  1.
         14    1    4    4    0    0 -0.49770014786E+02  0.23126683535E+02  0.71328041322E+02  0.89997707426E+02  0.00000000000E+00 0. -1.
        -13    1    3    3    0    0  0.21049540734E+02 -0.93877672642E+02 -0.33291980308E+03  0.34654248782E+03  0.00000000000E+00 0. -1.
         13    1    3    3    0    0  0.65366290116E+02 -0.25228412945E+02 -0.12601178263E+03  0.14418111549E+03  0.00000000000E+00 0.  1.
         21    1    1    2  503  502  0.22902529694E+02  0.30522599883E+02 -0.69497437372E+02  0.79284606143E+02  0.00000000000E+00 0.  1.
          1    1    1    2  501    0 -0.11193131272E+02 -0.49995000192E+02 -0.58625661268E+02  0.77857269352E+02  0.00000000000E+00 0. -1.
<scales pt_clust_5="13000.00000" pt_clust_6="13000.00000" pt_clust_7="13000.00000" pt_clust_8="13000.00000" pt_clust_9="38.15960" pt_clust_10="47.05994"></scales>
<clustering>
<clus scale="   38.160">  2  9  1 -1</clus>
<clus scale="   47.060">  1 10  2 -1</clus>
<clus scale="   79.902">  5  6 -1 -1</clus>
<clus scale="   92.399">  7  8 -1 -1</clus>
<clus scale="  163.058">  1  5  2 -1</clus>
<clus scale="   47.060">  1  5  2 -1</clus>
</clustering>
</event>
<event>
10    4  0.2977685E-005  0.1309925E+03  0.7546771E-02  0.1241942E+00
         -1   -1    0    0    0  501 -0.00000000000E+00  0.00000000000E+00  0.16267195889E+03  0.16267195889E+03  0.00000000000E+00 0.  1.
         21   -1    0    0  503  502  0.00000000000E+00 -0.00000000000E+00 -0.39010540349E+03  0.39010540349E+03  0.00000000000E+00 0.  1.
         23    2    1    2    0    0  0.33619258716E+02  0.43013823904E+01  0.53287598577E+02  0.11209879322E+03  0.92616493308E+02 0.  0.
         24    2    1    2    0    0 -0.17720420382E+02 -0.94272968672E+02 -0.19235489323E+02  0.12898788484E+03  0.84062265412E+02 0.  0.
        -13    1    4    4    0    0  0.47476678087E+01 -0.36091197564E+02  0.31848952921E+02  0.48368075147E+02  0.00000000000E+00 0.  1.
         14    1    4    4    0    0 -0.22468088190E+02 -0.58181771108E+02 -0.51084442244E+02  0.80619809697E+02  0.00000000000E+00 0. -1.
        -13    1    3    3    0    0  0.53230185863E+02  0.32302996370E+02  0.45277579540E+02  0.76986982474E+02  0.00000000000E+00 0. -1.
         13    1    3    3    0    0 -0.19610927147E+02 -0.28001613980E+02  0.80100190371E+01  0.35111810748E+02  0.00000000000E+00 0.  1.
         21    1    1    2  503  501 -0.27115977598E+02 -0.10683176044E+02  0.21967998245E+01  0.29227254763E+02  0.00000000000E+00 0. -1.
         -2    1    1    2    0  502  0.11217139263E+02  0.10065476233E+03 -0.26368235368E+03  0.28246342955E+03  0.00000000000E+00 0.  1.
<scales pt_clust_5="13000.00000" pt_clust_6="13000.00000" pt_clust_7="13000.00000" pt_clust_8="13000.00000" pt_clust_9="29.14458" pt_clust_10="100.46181"></scales>
<clustering>
<clus scale="   29.145">  1  9  2 -1</clus>
<clus scale="   84.062">  5  6 -1 -1</clus>
<clus scale="   92.616">  7  8 -1 -1</clus>
<clus scale="   94.435">  1  7  2 -1</clus>
<clus scale="  100.462">  2 10  1 -1</clus>
<clus scale="  100.462">  2  5  1 -1</clus>
</clustering>
</event>
<event>
10    4  0.2977685E-005  0.1050484E+03  0.7546771E-02  0.1274657E+00
         21   -1    0    0  501  502  0.00000000000E+00  0.00000000000E+00  0.70277843973E+02  0.70277843973E+02  0.00000000000E+00 0.  1.
          2   -1    0    0  503    0 -0.00000000000E+00 -0.00000000000E+00 -0.66056700890E+03  0.66056700890E+03  0.00000000000E+00 0. -1.
         24    2    1    2    0    0 -0.45359478793E+01 -0.30468178584E+02 -0.14295466914E+03  0.16672133957E+03  0.80069238227E+02 0.  0.
         23    2    1    2    0    0 -0.27071625627E+02  0.51605808995E+02 -0.59264999123E+02  0.12297801541E+03  0.90637849248E+02 0.  0.
        -13    1    3    3    0    0 -0.13780230014E+02 -0.52293138258E+02 -0.12731568193E+03  0.13832479862E+03  0.00000000000E+00 0.  1.
         14    1    3    3    0    0  0.92442821351E+01  0.21824959675E+02 -0.15638987208E+02  0.28396540949E+02  0.00000000000E+00 0. -1.
        -11    1    4    4    0    0 -0.23046498742E+02 -0.18188862671E+02 -0.41518001428E+02  0.50849978093E+02  0.00000000000E+00 0. -1.
         11    1    4    4    0    0 -0.40251268853E+01  0.69794671667E+02 -0.17746997695E+02  0.72128037313E+02  0.00000000000E+00 0.  1.
         21    1    1    2  503  502  0.67953918492E+02 -0.52969365883E+02 -0.38299296033E+03  0.39256476717E+03  0.00000000000E+00 0. -1.
          1    1    1    2  501    0 -0.36346344986E+02  0.31831735472E+02 -0.50765363385E+01  0.48580730729E+02  0.00000000000E+00 0. -1.
<scales pt_clust_5="13000.00000" pt_clust_6="13000.00000" pt_clust_7="13000.00000" pt_clust_8="13000.00000" pt_clust_9="81.40282" pt_clust_10="48.31476"></scales>
<clustering>
<clus scale="   48.315">  1 10  2 -1</clus>
<clus scale="   80.069">  5  6 -1 -1</clus>
<clus scale="   81.403">  2  9  1 -1</clus>
<clus scale="   90.638">  7  8 -1 -1</clus>
<clus scale="   96.078">  2  5  1 -1</clus>
<clus scale="   48.315">  1  5  2 -1</clus>
</clustering>
</event>
<event>
10    4  0.2977685E-005  0.1033912E+03  0.7546771E-02  0.1279319E+00
         -3   -1    0    0    0  501 -0.00000000000E+00  0.00000000000E+00  0.86330755926E+03  0.86330755926E+03  0.00000000000E+00 0.  1.
         21   -1    0    0  503  502  0.00000000000E+00 -0.00000000000E+00 -0.53136148650E+02  0.53136148650E+02  0.00000000000E+00 0. -1.
         24    2    1    2    0    0  0.21676352049E+02 -0.16264597203E+02  0.41820574456E+03  0.42682869466E+03  0.80946207108E+02 0.  0.
         23    2    1    2    0    0 -0.22166736265E+02 -0.17823803604E+01  0.36711072402E+02  0.10289653427E+03  0.93517125980E+02 0.  0.
        -13    1    3    3    0    0  0.17477648752E+02  0.31448859510E+02  0.14116703997E+03  0.14567989615E+03  0.00000000000E+00 0.  1.
         14    1    3    3    0    0  0.41987032964E+01 -0.47713456714E+02  0.27703870459E+03  0.28114879851E+03  0.00000000000E+00 0. -1.
        -13    1    4    4    0    0 -0.52964089584E+02 -0.24001855875E+02  0.22188564779E+02  0.62238382674E+02  0.00000000000E+00 0.  1.
         13    1    4    4    0    0  0.30797353319E+02  0.22219475515E+02  0.14522507623E+02  0.40658151597E+02  0.00000000000E+00 0. -1.
         21    1    1    2  503  501 -0.87676667827E+01 -0.66527559315E+02  0.13968052420E+03  0.15496269541E+03  0.00000000000E+00 0. -1.
         -4    1    1    2    0  502  0.92580509987E+01  0.84574536878E+02  0.21557406946E+03  0.23175578357E+03  0.00000000000E+00 0.  1.
<scales pt_clust_5="13000.00000" pt_clust_6="13000.00000" pt_clust_7="13000.00000" pt_clust_8="13000.00000" pt_clust_9="67.10282" pt_clust_10="64.12445"></scales>
<clustering>
<clus scale="   67.103">  1  9  2 -1</clus>
<clus scale="   64.124">  2 10  1 -1</clus>
<clus scale="   80.946">  5  6 -1 -1</clus>
<clus scale="   92.177">  1  5  2 -1</clus>
<clus scale="   93.517">  7  8 -1 -1</clus>
<clus scale="   64.124">  2  5  1 -1</clus>
</clustering>
</event>
<event>
10    4  0.2977685E-005  0.1026459E+03  0.7546771E-02  0.1282031E+00
          2   -1    0    0  503    0 -0.00000000000E+00  0.00000000000E+00  0.22224920803E+03  0.22224920803E+03  0.00000000000E+00 0. -1.
         21   -1    0    0  501  502  0.00000000000E+00 -0.00000000000E+00 -0.46243921325E+03  0.46243921325E+03  0.00000000000E+00 0.  1.
         24    2    1    2    0    0 -0.48594336373E+02 -0.48161407201E+02  0.12426954212E+03  0.16300026015E+03  0.80282221187E+02 0.  0.
         23    2    1    2    0    0  0.42876794859E+02  0.58105505966E+02 -0.29894733526E+03  0.32180938263E+03  0.94747560003E+02 0.  0.
        -11    1    3    3    0    0 -0.48923305587E+02 -0.37581046133E+02  0.30835491313E+02  0.68968488330E+02  0.00000000000E+00 0.  1.
         12    1    3    3    0    0  0.32896921383E+00 -0.10580361068E+02  0.93434050810E+02  0.94031771821E+02  0.00000000000E+00 0. -1.
        -11    1    4    4    0    0  0.51186137384E+02  0.11590810423E+02 -0.67051265501E+02  0.85148339689E+02  0.00000000000E+00 0. -1.
         11    1    4    4    0    0 -0.83093425243E+01  0.46514695543E+02 -0.23189606976E+03  0.23666104294E+03  0.00000000000E+00 0.  1.
         21    1    1    2  503  502  0.44120908075E+02  0.13271259599E+02  0.54726690535E+02  0.71538741376E+02  0.00000000000E+00 0. -1.
          1    1    1    2  501    0 -0.38403366561E+02 -0.23215358364E+02 -0.12023890262E+03  0.12834003713E+03  0.00000000000E+00 0. -1.
<scales pt_clust_5="13000.00000" pt_clust_6="13000.00000" pt_clust_7="13000.00000" pt_clust_8="13000.00000" pt_clust_9="44.99407" pt_clust_10="44.87506"></scales>
<clustering>
<clus scale="   44.875">  2 10  1 -1</clus>
<clus scale="   44.994">  1  9  2 -1</clus>
<clus scale="   80.282">  5  6 -1 -1</clus>
<clus scale="   89.467">  1  5  2 -1</clus>
<clus scale="   94.748">  7  8 -1 -1</clus>
<clus scale="   44.875">  2  5  1 -1</clus>
</clustering>
</event>
<event>
10    4  0.2977685E-005  0.1488228E+03  0.7546771E-02  0.1204595E+00
         21   -1    0    0  503  502  0.00000000000E+00  0.00000000000E+00  0.41112118219E+03  0.41112118219E+03  0.00000000000E+00 0. -1.
         -1   -1    0    0    0  501 -0.00000000000E+00 -0.00000000000E+00 -0.28393294707E+03  0.28393294707E+03  0.00000000000E+00 0.  1.
         23    2    1    2    0    0  0.11279781691E+03 -0.32405085009E+01 -0.22528043399E+03  0.26895284910E+03  0.94077163580E+02 0.  0.
         24    2    1    2    0    0 -0.14425708852E+03 -0.20851421843E+02  0.22432282809E+03  0.27929422842E+03  0.80247401463E+02 0.  0.
        -11    1    4    4    0    0 -0.55873552206E+02  0.13485930462E+02  0.14392573179E+03  0.15497851602E+03  0.00000000000E+00 0.  1.
         12    1    4    4    0    0 -0.88383536314E+02 -0.34337352305E+02  0.80397096305E+02  0.12431571240E+03  0.00000000000E+00 0. -1.
        -13    1    3    3    0    0  0.44302094299E+02  0.11996622669E+02 -0.16627306275E+02  0.48816614269E+02  0.00000000000E+00 0. -1.
         13    1    3    3    0    0  0.68495722614E+02 -0.15237131170E+02 -0.20865312771E+03  0.22013623483E+03  0.00000000000E+00 0.  1.
         21    1    1    2  503  501  0.19034497866E+02 -0.87639811463E+01  0.93859229451E+01  0.22961163386E+02  0.00000000000E+00 0.  1.
         -2    1    1    2    0  502  0.12424773742E+02  0.32855911490E+02  0.11875991807E+03  0.12384588835E+03  0.00000000000E+00 0.  1.
<scales pt_clust_5="13000.00000" pt_clust_6="13000.00000" pt_clust_7="13000.00000" pt_clust_8="13000.00000" pt_clust_9="20.95518" pt_clust_10="35.26621"></scales>
<clustering>
<clus scale="   20.955">  1  9  2 -1</clus>
<clus scale="   35.266">  1 10  2 -1</clus>
<clus scale="   80.247">  5  6 -1 -1</clus>
<clus scale="   94.077">  7  8 -1 -1</clus>
<clus scale="  140.490">  1  5  2 -1</clus>
<clus scale="   20.955">  1  5  2 -1</clus>
</clustering>
</event>
<event>
10    4  0.2977685E-005  0.1191490E+03  0.7546771E-02  0.1248595E+00
         21   -1    0    0  503  502  0.00000000000E+00  0.00000000000E+00  0.44557972026E+03  0.44557972026E+03  0.00000000000E+00 0.  1.
         -1   -1    0    0    0  501 -0.00000000000E+00 -0.00000000000E+00 -0.28125035950E+03  0.28125035950E+03  0.00000000000E+00 0.  1.
         23    2    1    2    0    0  0.22618993082E+02  0.36875500510E+02 -0.10436757400E+03  0.14505021759E+03  0.90970070547E+02 0.  0.
         24    2    1    2    0    0 -0.23241508495E+02 -0.76382791239E+02  0.12435857173E+03  0.16722697061E+03  0.78264339400E+02 0.  0.
        -13    1    4    4    0    0 -0.28546320260E+02 -0.41472851229E+02  0.12183275191E+03  0.13182605671E+03  0.00000000000E+00 0.  1.
         14    1    4    4    0    0  0.53048117646E+01 -0.34909940009E+02  0.25258198222E+01  0.35400913902E+02  0.00000000000E+00 0. -1.
        -11    1    3    3    0    0  0.40262642730E+02  0.22290505988E+02 -0.88965989590E+01  0.46873196284E+02  0.00000000000E+00 0.  1.
         11    1    3    3    0    0 -0.17643649648E+02  0.14584994522E+02 -0.95470975038E+02  0.98177021307E+02  0.00000000000E+00 0. -1.
         21    1    1    2  503  501  0.38149854137E+02  0.24546014396E+02 -0.12977658066E+03  0.13747683107E+03  0.00000000000E+00 0.  1.
         -2    1    1    2    0  502 -0.37527338724E+02  0.14961276333E+02  0.27411494369E+03  0.27707606049E+03  0.00000000000E+00 0.  1.
<scales pt_clust_5="13000.00000" pt_clust_6="13000.00000" pt_clust_7="13000.00000" pt_clust_8="13000.00000" pt_clust_9="44.83902" pt_clust_10="40.39976"></scales>
<clustering>
<clus scale="   40.400">  1 10  2 -1</clus>
<clus scale="   44.839">  2  9  1 -1</clus>
<clus scale="   78.264">  5  6 -1 -1</clus>
<clus scale="   90.970">  7  8 -1 -1</clus>
<clus scale="  109.755">  1  5  2 -1</clus>
<clus scale="   40.400">  1  5  2 -1</clus>
</clustering>
</event>
<event>
10    4  0.1406559E-004  0.8112502E+02  0.7546771E-02  0.1343645E+00
         -1   -1    0    0    0  501 -0.00000000000E+00  0.00000000000E+00  0.10291034791E+03  0.10291034791E+03  0.00000000000E+00 0.  1.
         21   -1    0    0  503  502  0.00000000000E+00 -0.00000000000E+00 -0.12561250712E+03  0.12561250712E+03  0.00000000000E+00 0. -1.
         23    2    1    2    0    0 -0.39836307850E+01 -0.17793152020E+01  0.44821125454E+02  0.73653784575E+02  0.58283028562E+02 0.  0.
         24    2    1    2    0    0 -0.77274616513E+01 -0.38896026871E+01 -0.68544680076E+02  0.10588623203E+03  0.80241375203E+02 0.  0.
        -11    1    4    4    0    0  0.12948448441E+02  0.27179679132E+02 -0.27341829448E+01  0.30230332965E+02  0.00000000000E+00 0.  1.
         12    1    4    4    0    0 -0.20675910093E+02 -0.31069281819E+02 -0.65810497132E+02  0.75655899067E+02  0.00000000000E+00 0. -1.
        -11    1    3    3    0    0  0.18175225565E+02  0.20236714826E+02  0.20213327355E+02  0.33888671471E+02  0.00000000000E+00 0.  1.
         11    1    3    3    0    0 -0.22158856350E+02 -0.22016030028E+02  0.24607798098E+02  0.39765113104E+02  0.00000000000E+00 0. -1.
         21    1    1    2  503  501  0.68293568755E+00  0.24805754154E+02  0.75722652889E+01  0.25944769066E+02  0.00000000000E+00 0.  1.
         -2    1    1    2    0  502  0.11028156749E+02 -0.19136836265E+02 -0.65508698846E+01  0.23038069358E+02  0.00000000000E+00 0.  1.
<scales pt_clust_5="13000.00000" pt_clust_6="13000.00000" pt_clust_7="13000.00000" pt_clust_8="13000.00000" pt_clust_9="23.27427" pt_clust_10="22.08707"></scales>
<clustering>
<clus scale="   22.087">  2 10  1 -1</clus>
<clus scale="   23.274">  1  9  2 -1</clus>
<clus scale="   58.283">  7  8 -1 -1</clus>
<clus scale="   59.494">  1  7  2 -1</clus>
<clus scale="   80.241">  5  6 -1 -1</clus>
<clus scale="   22.087">  2  5  1 -1</clus>
</clustering>
</event>
<event>
10    4  0.2977685E-005  0.1366754E+03  0.7546771E-02  0.1221271E+00
         21   -1    0    0  503  502  0.00000000000E+00  0.00000000000E+00  0.21643661065E+03  0.21643661065E+03  0.00000000000E+00 0.  1.
         -1   -1    0    0    0  501 -0.00000000000E+00 -0.00000000000E+00 -0.20031205626E+03  0.20031205626E+03  0.00000000000E+00 0.  1.
         24    2    1    2    0    0  0.75916686580E+02  0.73157752840E+02 -0.61994266378E+02  0.14490442467E+03  0.77708449490E+02 0.  0.
         23    2    1    2    0    0 -0.68938113784E+02 -0.54557227615E+02 -0.50620804753E+00  0.12748737139E+03  0.92324530865E+02 0.  0.
        -13    1    3    3    0    0  0.59086953110E+02  0.82645155002E+02 -0.27308268522E+02  0.10520090875E+03  0.00000000000E+00 0.  1.
         14    1    3    3    0    0  0.16829733470E+02 -0.94874021618E+01 -0.34685997856E+02  0.39703515911E+02  0.00000000000E+00 0. -1.
        -11    1    4    4    0    0 -0.15177182353E+02  0.26313245283E+02 -0.12941718749E-01  0.30376535500E+02  0.00000000000E+00 0. -1.
         11    1    4    4    0    0 -0.53760931431E+02 -0.80870472897E+02 -0.49326632878E+00  0.97110835887E+02  0.00000000000E+00 0.  1.
         21    1    1    2  503  501  0.22755396419E+02  0.94656365898E+01 -0.23683370376E+02  0.34180526248E+02  0.00000000000E+00 0. -1.
         -2    1    1    2    0  502 -0.29733969214E+02 -0.28066161815E+02  0.10230839919E+03  0.11017634460E+03  0.00000000000E+00 0.  1.
<scales pt_clust_5="13000.00000" pt_clust_6="13000.00000" pt_clust_7="13000.00000" pt_clust_8="13000.00000" pt_clust_9="24.64562" pt_clust_10="40.35938"></scales>
<clustering>
<clus scale="   24.646">  2  9  1 -1</clus>
<clus scale="   40.359">  1 10  2 -1</clus>
<clus scale="   77.708">  5  6 -1 -1</clus>
<clus scale="   92.325">  7  8 -1 -1</clus>
<clus scale="  127.259">  2  5  1 -1</clus>
<clus scale="   40.359">  1  5  2 -1</clus>
</clustering>
</event>
<event>
10    4  0.2977685E-005  0.1567395E+03  0.7546771E-02  0.1194432E+00
         -3   -1    0    0    0  501 -0.00000000000E+00  0.00000000000E+00  0.59206206649E+03  0.59206206649E+03  0.00000000000E+00 0.  1.
         21   -1    0    0  503  502  0.00000000000E+00 -0.00000000000E+00 -0.12987351244E+03  0.12987351244E+03  0.00000000000E+00 0. -1.
         23    2    1    2    0    0 -0.96141704336E+01  0.10777931904E+03  0.17693837851E+03  0.22634971019E+03  0.90654220121E+02 0.  0.
         24    2    1    2    0    0 -0.63077727938E+02 -0.16594909543E+03  0.13882415183E+03  0.23861556895E+03  0.78404990767E+02 0.  0.
        -13    1    4    4    0    0  0.95369839108E+01 -0.79598240434E+02  0.70206268679E+02  0.10656338069E+03  0.00000000000E+00 0.  1.
         14    1    4    4    0    0 -0.72614711849E+02 -0.86350854998E+02  0.68617883147E+02  0.13205218826E+03  0.00000000000E+00 0. -1.
        -13    1    3    3    0    0  0.38228815661E+02  0.61220950479E+02  0.71795716545E+02  0.10180408655E+03  0.00000000000E+00 0. -1.
         13    1    3    3    0    0 -0.47842986095E+02  0.46558368565E+02  0.10514266196E+03  0.12454562364E+03  0.00000000000E+00 0.  1.
         21    1    1    2  503  501  0.12794071401E+03  0.23416720531E+02  0.47532593873E+02  0.13847930019E+03  0.00000000000E+00 0.  1.
         -4    1    1    2    0  502 -0.55248815638E+02  0.34753055857E+02  0.98893429837E+02  0.11849099960E+03  0.00000000000E+00 0.  1.
<scales pt_clust_5="13000.00000" pt_clust_6="13000.00000" pt_clust_7="13000.00000" pt_clust_8="13000.00000" pt_clust_9="113.09596" pt_clust_10="65.27029"></scales>
<clustering>
<clus scale="   65.270">  2 10  1 -1</clus>
<clus scale="   78.405">  5  6 -1 -1</clus>
<clus scale="   90.654">  7  8 -1 -1</clus>
<clus scale="  113.096">  2  9  1 -1</clus>
<clus scale="  149.988">  2  5  1 -1</clus>
<clus scale="   65.270">  2  5  1 -1</clus>
</clustering>
</event>
<event>
10    4  0.2977685E-005  0.1940017E+03  0.7546771E-02  0.1187885E+00
         21   -1    0    0  503  502  0.00000000000E+00  0.00000000000E+00  0.21491563026E+03  0.21491563026E+03  0.00000000000E+00 0. -1.
         -1   -1    0    0    0  501 -0.00000000000E+00 -0.00000000000E+00 -0.57775335886E+03  0.57775335886E+03  0.00000000000E+00 0.  1.
         24    2    1    2    0    0  0.22231781434E+02 -0.36765166664E+02 -0.14247161517E+03  0.16932412713E+03  0.80787185323E+02 0.  0.
         23    2    1    2    0    0 -0.56445770533E+02  0.17092806239E+03  0.11629910308E+03  0.23138562764E+03  0.87242763472E+02 0.  0.
        -13    1    3    3    0    0  0.23685655506E+02 -0.57845438976E+02 -0.70052806667E+02  0.93885572955E+02  0.00000000000E+00 0.  1.
         14    1    3    3    0    0 -0.14538740721E+01  0.21080272312E+02 -0.72418808504E+02  0.75438554173E+02  0.00000000000E+00 0. -1.
        -13    1    4    4    0    0 -0.25560434789E+02  0.54703972674E+01  0.37059582993E+02  0.45350565206E+02  0.00000000000E+00 0.  1.
         13    1    4    4    0    0 -0.30885335745E+02  0.16545766512E+03  0.79239520086E+02  0.18603506243E+03  0.00000000000E+00 0. -1.
         21    1    1    2  503  501  0.20257545235E+02  0.16409800308E+02 -0.14747353563E+03  0.14976011951E+03  0.00000000000E+00 0. -1.
         -2    1    1    2    0  502  0.13956443864E+02 -0.15057269603E+03 -0.18919168087E+03  0.24219911484E+03  0.00000000000E+00 0.  1.
<scales pt_clust_5="13000.00000" pt_clust_6="13000.00000" pt_clust_7="13000.00000" pt_clust_8="13000.00000" pt_clust_9="26.07009" pt_clust_10="173.27831"></scales>
<clustering>
<clus scale="   26.070">  2  9  1 -1</clus>
<clus scale="   80.787">  5  6 -1 -1</clus>
<clus scale="   87.243">  7  8 -1 -1</clus>
<clus scale="   91.384">  2  5  1 -1</clus>
<clus scale="  173.278">  1 10  2 -1</clus>
<clus scale="  173.278">  1  5  2 -1</clus>
</clustering>
</event>
<event>
10    4  0.2977685E-005  0.1144730E+03  0.7546771E-02  0.1256786E+00
          2   -1    0    0  503    0 -0.00000000000E+00  0.00000000000E+00  0.63490680716E+02  0.63490680716E+02  0.00000000000E+00 0. -1.
         21   -1    0    0  501  502  0.00000000000E+00 -0.00000000000E+00 -0.80625729686E+03  0.80625729686E+03  0.00000000000E+00 0. -1.
         24    2    1    2    0    0  0.90273866222E+02 -0.27198363902E+02 -0.13521700860E+03  0.18310210384E+03  0.79709592220E+02 0.  0.
         23    2    1    2    0    0 -0.13484191519E+01  0.77267549993E+02 -0.52993733696E+03  0.54332835371E+03  0.91651657480E+02 0.  0.
        -11    1    3    3    0    0  0.10054258810E+03 -0.74012648159E+01 -0.11576109099E+03  0.15350641983E+03  0.00000000000E+00 0.  1.
         12    1    3    3    0    0 -0.10268721882E+02 -0.19797099086E+02 -0.19455917617E+02  0.29595684003E+02  0.00000000000E+00 0. -1.
        -13    1    4    4    0    0  0.22721170647E+02  0.88147049066E+02 -0.45081590859E+03  0.45991427167E+03  0.00000000000E+00 0. -1.
         13    1    4    4    0    0 -0.24069589799E+02 -0.10879499073E+02 -0.79121428377E+02  0.83414082034E+02  0.00000000000E+00 0.  1.
         21    1    1    2  503  502 -0.34939724697E+02  0.85576864491E+01 -0.65990434532E+01  0.36572745778E+02  0.00000000000E+00 0.  1.
          1    1    1    2  501    0 -0.53985722373E+02 -0.58626872540E+02 -0.71013227124E+02  0.10674477425E+03  0.00000000000E+00 0. -1.
<scales pt_clust_5="13000.00000" pt_clust_6="13000.00000" pt_clust_7="13000.00000" pt_clust_8="13000.00000" pt_clust_9="35.97247" pt_clust_10="86.87400"></scales>
<clustering>
<clus scale="   35.972">  1  9  2 -1</clus>
<clus scale="   79.710">  5  6 -1 -1</clus>
<clus scale="   86.874">  2 10  1 -1</clus>
<clus scale="   91.652">  7  8 -1 -1</clus>
<clus scale="  105.155">  1  5  2 -1</clus>
<clus scale="   86.874">  2  5  1 -1</clus>
</clustering>
</event>
<event>
10    4  0.2977685E-005  0.2439390E+03  0.7546771E-02  0.1117701E+00
         21   -1    0    0  501  502  0.00000000000E+00  0.00000000000E+00  0.65793069494E+03  0.65793069494E+03  0.00000000000E+00 0.  1.
          2   -1    0    0  503    0 -0.00000000000E+00 -0.00000000000E+00 -0.33263442217E+03  0.33263442217E+03  0.00000000000E+00 0. -1.
         24    2    1    2    0    0  0.21755637633E+03 -0.59487162530E+02 -0.96463044224E+02  0.25847293968E+03  0.81447174672E+02 0.  0.
         23    2    1    2    0    0 -0.22262427427E+03  0.28103464295E+02  0.44327999406E+03  0.50494675321E+03  0.90126013125E+02 0.  0.
        -11    1    3    3    0    0  0.81569375898E+02 -0.13825694567E+00 -0.13010159148E+00  0.81569596822E+02  0.00000000000E+00 0.  1.
         12    1    3    3    0    0  0.13598700043E+03 -0.59348905584E+02 -0.96332942633E+02  0.17690334286E+03  0.00000000000E+00 0. -1.
        -13    1    4    4    0    0 -0.10602489604E+03  0.10263030467E+02  0.11813897338E+03  0.15907050451E+03  0.00000000000E+00 0. -1.
         13    1    4    4    0    0 -0.11659937823E+03  0.17840433828E+02  0.32514102068E+03  0.34587624870E+03  0.00000000000E+00 0.  1.
         21    1    1    2  503  502 -0.32778719756E+01 -0.20140116137E+02 -0.11676621333E+03  0.11853572161E+03  0.00000000000E+00 0. -1.
          1    1    1    2  501    0  0.83457699207E+01  0.51523814371E+02  0.95245536253E+02  0.10860970260E+03  0.00000000000E+00 0. -1.
<scales pt_clust_5="13000.00000" pt_clust_6="13000.00000" pt_clust_7="13000.00000" pt_clust_8="13000.00000" pt_clust_9="20.40512" pt_clust_10="51.56113"></scales>
<clustering>
<clus scale="   20.405">  2  9  1 -1</clus>
<clus scale="   51.561">  1 10  2 -1</clus>
<clus scale="   81.447">  5  6 -1 -1</clus>
<clus scale="   90.126">  7  8 -1 -1</clus>
<clus scale="  240.868">  2  5  1 -1</clus>
<clus scale="   51.561">  1  5  2 -1</clus>
</clustering>
</event>
<event>
10    4  0.2977685E-005  0.1227634E+03  0.7546771E-02  0.1240649E+00
          2   -1    0    0  503    0 -0.00000000000E+00  0.00000000000E+00  0.51438712674E+03  0.51438712674E+03  0.00000000000E+00 0. -1.
         21   -1    0    0  501  502  0.00000000000E+00 -0.00000000000E+00 -0.52724805911E+03  0.52724805911E+03  0.00000000000E+00 0. -1.
         23    2    1    2    0    0 -0.54015776063E+02 -0.11481374476E+03  0.40007506746E+03  0.42995705629E+03  0.93290463615E+02 0.  0.
         24    2    1    2    0    0 -0.27683848715E+02  0.24767237842E+02 -0.69753694523E+01  0.94505294808E+02  0.86618608957E+02 0.  0.
        -13    1    4    4    0    0 -0.80021051879E+01  0.55566684861E+02  0.41650959833E+01  0.56294210878E+02  0.00000000000E+00 0.  1.
         14    1    4    4    0    0 -0.19681743527E+02 -0.30799447019E+02 -0.11140465436E+02  0.38211083929E+02  0.00000000000E+00 0. -1.
        -13    1    3    3    0    0 -0.44830851763E+02 -0.27750878046E+01  0.10567751096E+03  0.11482701209E+03  0.00000000000E+00 0.  1.
         13    1    3    3    0    0 -0.91849242994E+01 -0.11203865695E+03  0.29439755650E+03  0.31513004420E+03  0.00000000000E+00 0. -1.
         21    1    1    2  503  502  0.11575762193E+02  0.29114561376E+02  0.46059253975E+02  0.55705572712E+02  0.00000000000E+00 0. -1.
          1    1    1    2  501    0  0.70123862585E+02  0.60931945539E+02 -0.45201988435E+03  0.46146726204E+03  0.00000000000E+00 0. -1.
<scales pt_clust_5="13000.00000" pt_clust_6="13000.00000" pt_clust_7="13000.00000" pt_clust_8="13000.00000" pt_clust_9="31.33139" pt_clust_10="93.18189"></scales>
<clustering>
<clus scale="   31.331">  1  9  2 -1</clus>
<clus scale="   86.619">  5  6 -1 -1</clus>
<clus scale="   93.182">  2 10  1 -1</clus>
<clus scale="   93.290">  7  8 -1 -1</clus>
<clus scale="  117.773">  2  5  1 -1</clus>
<clus scale="   93.182">  2  5  1 -1</clus>
</clustering>
</event>
<event>
10    4  0.2977685E-005  0.9105059E+02  0.7546771E-02  0.1306634E+00
         21   -1    0    0  503  502  0.00000000000E+00  0.00000000000E+00  0.35359495156E+03  0.35359495156E+03  0.00000000000E+00 0.  1.
         -1   -1    0    0    0  501 -0.00000000000E+00 -0.00000000000E+00 -0.86669531163E+02  0.86669531163E+02  0.00000000000E+00 0.  1.
         24    2    1    2    0    0 -0.21026211697E+02 -0.17473872290E+02  0.26502549938E+02  0.88961762487E+02  0.80401319892E+02 0.  0.
         23    2    1    2    0    0 -0.32474489807E+02 -0.57473479699E+02  0.18040940494E+03  0.21232373711E+03  0.90421361381E+02 0.  0.
        -13    1    3    3    0    0 -0.36068140960E+02 -0.26621807121E+02 -0.12186190504E+02  0.46455727803E+02  0.00000000000E+00 0.  1.
         14    1    3    3    0    0  0.15041929263E+02  0.91479348307E+01  0.38688740441E+02  0.42506034684E+02  0.00000000000E+00 0. -1.
        -13    1    4    4    0    0  0.24333596247E+02 -0.46884999820E+02  0.10264144599E+03  0.11543653473E+03  0.00000000000E+00 0. -1.
         13    1    4    4    0    0 -0.56808086055E+02 -0.10588479879E+02  0.77767958949E+02  0.96887202387E+02  0.00000000000E+00 0.  1.
         21    1    1    2  503  501  0.33453038927E+02  0.23157982590E+02 -0.16946206441E+02  0.44074617228E+02  0.00000000000E+00 0.  1.
         -2    1    1    2    0  502  0.20047662577E+02  0.51789369399E+02  0.76959671964E+02  0.94904365897E+02  0.00000000000E+00 0.  1.
<scales pt_clust_5="13000.00000" pt_clust_6="13000.00000" pt_clust_7="13000.00000" pt_clust_8="13000.00000" pt_clust_9="40.68658" pt_clust_10="61.02316"></scales>
<clustering>
<clus scale="   40.687">  2  9  1 -1</clus>
<clus scale="   61.023">  1 10  2 -1</clus>
<clus scale="   80.401">  5  6 -1 -1</clus>
<clus scale="   81.108">  2  5  1 -1</clus>
<clus scale="   90.421">  7  8 -1 -1</clus>
<clus scale="   61.023">  1  5  2 -1</clus>
</clustering>
</event>
<event>
10    4  0.2977685E-005  0.1810754E+03  0.7546771E-02  0.1168370E+00
         21   -1    0    0  503  502  0.00000000000E+00  0.00000000000E+00  0.96387261811E+02  0.96387261811E+02  0.00000000000E+00 0.  1.
         -1   -1    0    0    0  501 -0.00000000000E+00 -0.00000000000E+00 -0.56518654190E+03  0.56518654190E+03  0.00000000000E+00 0.  1.
         24    2    1    2    0    0 -0.11643190040E+03  0.75701270845E+02 -0.20911709627E+03  0.26314779071E+03  0.78928638440E+02 0.  0.
         23    2    1    2    0    0  0.15822375699E+03 -0.10542683843E+03 -0.18777520388E+03  0.28278486785E+03  0.92510425111E+02 0.  0.
        -11    1    3    3    0    0 -0.49580035618E+02  0.42682802266E+02 -0.16259545248E+03  0.17526346655E+03  0.00000000000E+00 0.  1.
         12    1    3    3    0    0 -0.66851864782E+02  0.33018468579E+02 -0.46521643794E+02  0.87884324161E+02  0.00000000000E+00 0. -1.
        -13    1    4    4    0    0  0.35951011389E+02 -0.76995850384E+02 -0.62943050938E+02  0.10574811515E+03  0.00000000000E+00 0. -1.
         13    1    4    4    0    0  0.12227274560E+03 -0.28430988050E+02 -0.12483215294E+03  0.17703675270E+03  0.00000000000E+00 0.  1.
         21    1    1    2  503  501  0.19616859955E+02  0.10911407203E+02 -0.34959756411E+02  0.41545933254E+02  0.00000000000E+00 0. -1.
         -2    1    1    2    0  502 -0.61408716546E+02  0.18814160387E+02 -0.36947223525E+02  0.74095211891E+02  0.00000000000E+00 0.  1.
<scales pt_clust_5="13000.00000" pt_clust_6="13000.00000" pt_clust_7="13000.00000" pt_clust_8="13000.00000" pt_clust_9="22.44727" pt_clust_10="62.60990"></scales>
<clustering>
<clus scale="   22.447">  2  9  1 -1</clus>
<clus scale="   62.610">  1 10  2 -1</clus>
<clus scale="   78.929">  5  6 -1 -1</clus>
<clus scale="   92.510">  7  8 -1 -1</clus>
<clus scale="  174.528">  2  5  1 -1</clus>
<clus scale="   62.610">  1  5  2 -1</clus>
</clustering>
</event>
<event>
10    4  0.2977685E-005  0.1041444E+03  0.7546771E-02  0.1276917E+00
         21   -1    0    0  501  502  0.00000000000E+00  0.00000000000E+00  0.21225050736E+03  0.21225050736E+03  0.00000000000E+00 0. -1.
          4   -1    0    0  503    0 -0.00000000000E+00 -0.00000000000E+00 -0.13362154167E+03  0.13362154167E+03  0.00000000000E+00 0. -1.
         24    2    1    2    0    0 -0.14809346160E+02  0.50140190034E+02 -0.35710318733E+02  0.10269877677E+03  0.80860722823E+02 0.  0.
         23    2    1    2    0    0  0.45672977519E+02 -0.22975228699E+02  0.66604407055E+02  0.12457353818E+03  0.92024656302E+02 0.  0.
        -13    1    3    3    0    0  0.10074583689E+02  0.33394195492E+02 -0.56362279361E+02  0.66282547204E+02  0.00000000000E+00 0.  1.
         14    1    3    3    0    0 -0.24883929849E+02  0.16745994542E+02  0.20651960628E+02  0.36416229565E+02  0.00000000000E+00 0. -1.
        -11    1    4    4    0    0  0.48679395494E+02 -0.54284663113E+02  0.38813236596E+02  0.82601304651E+02  0.00000000000E+00 0. -1.
         11    1    4    4    0    0 -0.30064179751E+01  0.31309434414E+02  0.27791170459E+02  0.41972233534E+02  0.00000000000E+00 0.  1.
         21    1    1    2  503  502  0.13298754690E+02 -0.54828748074E+02  0.23220029191E+02  0.61009984816E+02  0.00000000000E+00 0. -1.
          3    1    1    2  501    0 -0.44162386049E+02  0.27663786739E+02  0.24514848181E+02  0.57589749258E+02  0.00000000000E+00 0. -1.
<scales pt_clust_5="13000.00000" pt_clust_6="13000.00000" pt_clust_7="13000.00000" pt_clust_8="13000.00000" pt_clust_9="48.08510" pt_clust_10="52.11143"></scales>
<clustering>
<clus scale="   52.111">  1 10  2 -1</clus>
<clus scale="   48.085">  1  9  2 -1</clus>
<clus scale="   80.861">  5  6 -1 -1</clus>
<clus scale="   92.025">  7  8 -1 -1</clus>
<clus scale="   94.424">  2  5  1 -1</clus>
<clus scale="   52.111">  1  5  2 -1</clus>
</clustering>
</event>
<event>
10    4  0.2977685E-005  0.8913942E+02  0.7546771E-02  0.1308087E+00
          2   -1    0    0  503    0 -0.00000000000E+00  0.00000000000E+00  0.12652601965E+04  0.12652601965E+04  0.00000000000E+00 0. -1.
         21   -1    0    0  501  502  0.00000000000E+00 -0.00000000000E+00 -0.45168088402E+02  0.45168088402E+02  0.00000000000E+00 0. -1.
         24    2    1    2    0    0 -0.51202039388E+02  0.40473387088E+01  0.68392883782E+03  0.69072553935E+03  0.81884587825E+02 0.  0.
         23    2    1    2    0    0  0.60873781373E+01 -0.30161571720E+02  0.83739585318E+02  0.12459479063E+03  0.86975669706E+02 0.  0.
        -13    1    3    3    0    0 -0.36007463337E+02 -0.12355710064E+02  0.11073671961E+03  0.11709748954E+03  0.00000000000E+00 0.  1.
         14    1    3    3    0    0 -0.15194576051E+02  0.16403048773E+02  0.57319211821E+03  0.57362804981E+03  0.00000000000E+00 0. -1.
        -13    1    4    4    0    0 -0.33678055773E+02 -0.24797764983E+02  0.13941960017E+02  0.44085358543E+02  0.00000000000E+00 0.  1.
         13    1    4    4    0    0  0.39765433910E+02 -0.53638067371E+01  0.69797625301E+02  0.80509432084E+02  0.00000000000E+00 0. -1.
         21    1    1    2  503  502  0.62402791175E+02  0.15240773131E+02  0.46611469884E+03  0.47052024610E+03  0.00000000000E+00 0. -1.
          1    1    1    2  501    0 -0.17288129924E+02  0.10873459880E+02 -0.13691013857E+02  0.24587708850E+02  0.00000000000E+00 0. -1.
<scales pt_clust_5="13000.00000" pt_clust_6="13000.00000" pt_clust_7="13000.00000" pt_clust_8="13000.00000" pt_clust_9="63.04623" pt_clust_10="20.42331"></scales>
<clustering>
<clus scale="   20.423">  2 10  1 -1</clus>
<clus scale="   63.046">  1  9  2 -1</clus>
<clus scale="   81.885">  5  6 -1 -1</clus>
<clus scale="   84.179">  1  5  2 -1</clus>
<clus scale="   86.976">  7  8 -1 -1</clus>
<clus scale="   20.423">  2  5  1 -1</clus>
</clustering>
</event>
<event>
10    4  0.2977685E-005  0.1402517E+03  0.7546771E-02  0.1215832E+00
         21   -1    0    0  501  502  0.00000000000E+00  0.00000000000E+00  0.44469033226E+02  0.44469033226E+02  0.00000000000E+00 0. -1.
          2   -1    0    0  503    0 -0.00000000000E+00 -0.00000000000E+00 -0.61353675129E+03  0.61353675129E+03  0.00000000000E+00 0. -1.
         23    2    1    2    0    0 -0.98819707538E+02  0.90513442044E+01 -0.19754414388E+03  0.23971722757E+03  0.92700587815E+02 0.  0.
         24    2    1    2    0    0  0.88752876958E+02  0.21286265724E+01 -0.21883398448E+03  0.25806133160E+03  0.10404678701E+03 0.  0.
        -11    1    4    4    0    0  0.54014598862E+02  0.40549517231E+02 -0.18302994810E+03  0.19509434164E+03  0.00000000000E+00 0.  1.
         12    1    4    4    0    0  0.34738278096E+02 -0.38420890659E+02 -0.35804036374E+02  0.62966989961E+02  0.00000000000E+00 0. -1.
        -13    1    3    3    0    0  0.29000340902E+00  0.27716308323E+02 -0.15902206064E+02  0.31955563001E+02  0.00000000000E+00 0. -1.
         13    1    3    3    0    0 -0.99109710947E+02 -0.18664964119E+02 -0.18164193782E+03  0.20776166457E+03  0.00000000000E+00 0.  1.
         21    1    1    2  503  502  0.20334504191E+02  0.10196203096E+02 -0.98211982132E+02  0.10081194400E+03  0.00000000000E+00 0. -1.
          1    1    1    2  501    0 -0.10267673611E+02 -0.21376173873E+02 -0.54477607573E+02  0.59415281348E+02  0.00000000000E+00 0. -1.
<scales pt_clust_5="13000.00000" pt_clust_6="13000.00000" pt_clust_7="13000.00000" pt_clust_8="13000.00000" pt_clust_9="22.74763" pt_clust_10="21.77529"></scales>
<clustering>
<clus scale="   22.748">  2  9  1 -1</clus>
<clus scale="   21.775">  1 10  2 -1</clus>
<clus scale="   92.701">  7  8 -1 -1</clus>
<clus scale="  104.047">  5  6 -1 -1</clus>
<clus scale="  132.054">  2  7  1 -1</clus>
<clus scale="   21.775">  1  5  2 -1</clus>
</clustering>
</event>
<event>
10    4  0.2977685E-005  0.1557589E+03  0.7546771E-02  0.1195043E+00
          2   -1    0    0  503    0 -0.00000000000E+00  0.00000000000E+00  0.60753018117E+03  0.60753018117E+03  0.00000000000E+00 0. -1.
         21   -1    0    0  501  502  0.00000000000E+00 -0.00000000000E+00 -0.16076259266E+03  0.16076259266E+03  0.00000000000E+00 0.  1.
         24    2    1    2    0    0 -0.96393887715E+02  0.72282561770E+01  0.29252760687E+03  0.31829072149E+03  0.79953444766E+02 0.  0.
         23    2    1    2    0    0  0.67241100579E+02 -0.12189481349E+02 -0.87144131268E+02  0.14203643852E+03  0.88939874013E+02 0.  0.
        -13    1    3    3    0    0 -0.47674739502E+02 -0.31961459005E+02  0.18721263695E+03  0.19581365397E+03  0.00000000000E+00 0.  1.
         14    1    3    3    0    0 -0.48719148213E+02  0.39189715182E+02  0.10531496992E+03  0.12247706752E+03  0.00000000000E+00 0. -1.
        -11    1    4    4    0    0  0.21340169521E+02  0.29630034630E+02 -0.67783874130E+02  0.76993476213E+02  0.00000000000E+00 0.  1.
         11    1    4    4    0    0  0.45900931058E+02 -0.41819515979E+02 -0.19360257138E+02  0.65042962303E+02  0.00000000000E+00 0. -1.
         21    1    1    2  503  502 -0.61218937990E+02  0.92424470913E+01  0.19833305262E+03  0.20777194459E+03  0.00000000000E+00 0. -1.
          1    1    1    2  501    0  0.90371725125E+02 -0.42812219195E+01  0.43051060283E+02  0.10019366924E+03  0.00000000000E+00 0. -1.
<scales pt_clust_5="13000.00000" pt_clust_6="13000.00000" pt_clust_7="13000.00000" pt_clust_8="13000.00000" pt_clust_9="61.91269" pt_clust_10="79.57546"></scales>
<clustering>
<clus scale="   61.913">  1  9  2 -1</clus>
<clus scale="   79.575">  2 10  1 -1</clus>
<clus scale="   79.953">  5  6 -1 -1</clus>
<clus scale="   88.940">  7  8 -1 -1</clus>
<clus scale="  150.808">  1  5  2 -1</clus>
<clus scale="   79.575">  2  5  1 -1</clus>
</clustering>
</event>
<event>
10    4  0.2977685E-005  0.1259746E+03  0.7546771E-02  0.1234267E+00
          2   -1    0    0  503    0 -0.00000000000E+00  0.00000000000E+00  0.60750761961E+03  0.60750761961E+03  0.00000000000E+00 0. -1.
         21   -1    0    0  501  502  0.00000000000E+00 -0.00000000000E+00 -0.48359425884E+02  0.48359425884E+02  0.00000000000E+00 0.  1.
         23    2    1    2    0    0  0.73700655013E+01 -0.78876568000E+02  0.20001831432E+03  0.23377945320E+03  0.91485932399E+02 0.  0.
         24    2    1    2    0    0  0.22564675694E+02  0.88089632854E+02  0.25081646030E+03  0.28285206192E+03  0.93954479254E+02 0.  0.
        -13    1    4    4    0    0 -0.24932230568E+02  0.73614239478E+02  0.18282668241E+03  0.19866118941E+03  0.00000000000E+00 0.  1.
         14    1    4    4    0    0  0.47496906262E+02  0.14475393375E+02  0.67989777886E+02  0.84190872515E+02  0.00000000000E+00 0. -1.
        -13    1    3    3    0    0  0.28927126222E+02 -0.57903032098E+02  0.52830100850E+02  0.83549741552E+02  0.00000000000E+00 0.  1.
         13    1    3    3    0    0 -0.21557060721E+02 -0.20973535902E+02  0.14718821347E+03  0.15022971164E+03  0.00000000000E+00 0. -1.
         21    1    1    2  503  502 -0.25788952849E+02  0.19420381402E+02  0.10531091772E+03  0.11014813069E+03  0.00000000000E+00 0.  1.
          1    1    1    2  501    0 -0.41457883466E+01 -0.28633446256E+02  0.30025013744E+01  0.29087399678E+02  0.00000000000E+00 0. -1.
<scales pt_clust_5="13000.00000" pt_clust_6="13000.00000" pt_clust_7="13000.00000" pt_clust_8="13000.00000" pt_clust_9="31.37878" pt_clust_10="28.93202"></scales>
<clustering>
<clus scale="   28.932">  2 10  1 -1</clus>
<clus scale="   31.379">  1  9  2 -1</clus>
<clus scale="   91.486">  7  8 -1 -1</clus>
<clus scale="   93.954">  5  6 -1 -1</clus>
<clus scale="  124.144">  1  7  2 -1</clus>
<clus scale="   28.932">  2  5  1 -1</clus>
</clustering>
</event>
<event>
10    4  0.2977685E-005  0.9166300E+02  0.7546771E-02  0.1304361E+00
         21   -1    0    0  501  502  0.00000000000E+00  0.00000000000E+00  0.34060836725E+03  0.34060836725E+03  0.00000000000E+00 0.  1.
          2   -1    0    0  503    0 -0.00000000000E+00 -0.00000000000E+00 -0.14898550263E+04  0.14898550263E+04  0.00000000000E+00 0. -1.
         24    2    1    2    0    0  0.25076374315E+02 -0.19740324199E+02 -0.13480666813E+04  0.13508806801E+04  0.81094572008E+02 0.  0.
         23    2    1    2    0    0  0.53256277312E+02 -0.43948672399E+02  0.27497949756E+03  0.29747826923E+03  0.90065974205E+02 0.  0.
        -11    1    3    3    0    0  0.20869073556E+02  0.15551001272E+02 -0.14685791557E+03  0.14914623441E+03  0.00000000000E+00 0.  1.
         12    1    3    3    0    0  0.42073007590E+01 -0.35291325470E+02 -0.12012087657E+04  0.12017344457E+04  0.00000000000E+00 0. -1.
        -11    1    4    4    0    0 -0.61771120096E+01 -0.32888969182E+02  0.19153518104E+03  0.19443653613E+03  0.00000000000E+00 0.  1.
         11    1    4    4    0    0  0.59433389321E+02 -0.11059703217E+02  0.83444316520E+02  0.10304173310E+03  0.00000000000E+00 0. -1.
         21    1    1    2  503  502 -0.79404056319E+01  0.23586651233E+02 -0.95603531401E+02  0.98789753387E+02  0.00000000000E+00 0.  1.
          1    1    1    2  501    0 -0.70392245995E+02  0.40102345365E+02  0.19444056075E+02  0.83314690881E+02  0.00000000000E+00 0. -1.
<scales pt_clust_5="13000.00000" pt_clust_6="13000.00000" pt_clust_7="13000.00000" pt_clust_8="13000.00000" pt_clust_9="24.88735" pt_clust_10="81.44082"></scales>
<clustering>
<clus scale="   24.887">  2  9  1 -1</clus>
<clus scale="   81.095">  5  6 -1 -1</clus>
<clus scale="   81.441">  1 10  2 -1</clus>
<clus scale="   82.865">  2  5  1 -1</clus>
<clus scale="   90.066">  7  8 -1 -1</clus>
<clus scale="   81.441">  1  5  2 -1</clus>
</clustering>
</event>
<event>
10    4  0.2977685E-005  0.1461480E+03  0.7546771E-02  0.1216182E+00
          2   -1    0    0  503    0 -0.00000000000E+00  0.00000000000E+00  0.26609792166E+03  0.26609792166E+03  0.00000000000E+00 0. -1.
         21   -1    0    0  501  502  0.00000000000E+00 -0.00000000000E+00 -0.35513386721E+03  0.35513386721E+03  0.00000000000E+00 0. -1.
         23    2    1    2    0    0 -0.69873373580E+02 -0.25098909806E+02 -0.65584106579E+02  0.13213906996E+03  0.87448357139E+02 0.  0.
         24    2    1    2    0    0 -0.83737586558E+01  0.74687833641E+02  0.98620585793E+02  0.14752366791E+03  0.79930096484E+02 0.  0.
        -13    1    4    4    0    0  0.35244047747E+02  0.38636902913E+02  0.38349387222E+02  0.64850818565E+02  0.00000000000E+00 0.  1.
         14    1    4    4    0    0 -0.43617806403E+02  0.36050930728E+02  0.60271198571E+02  0.82672849346E+02  0.00000000000E+00 0. -1.
        -13    1    3    3    0    0 -0.52712885659E+02  0.12961420137E+02 -0.71713433047E+02  0.89941443206E+02  0.00000000000E+00 0. -1.
         13    1    3    3    0    0 -0.17160487921E+02 -0.38060329943E+02  0.61293264688E+01  0.42197626758E+02  0.00000000000E+00 0.  1.
         21    1    1    2  503  502 -0.21052012244E+02  0.38336937742E+02  0.85040210311E+02  0.95628162089E+02  0.00000000000E+00 0.  1.
          1    1    1    2  501    0  0.99299144480E+02 -0.87925861576E+02 -0.20711263508E+03  0.24594088891E+03  0.00000000000E+00 0. -1.
<scales pt_clust_5="13000.00000" pt_clust_6="13000.00000" pt_clust_7="13000.00000" pt_clust_8="13000.00000" pt_clust_9="43.73680" pt_clust_10="122.35370"></scales>
<clustering>
<clus scale="   43.737">  1  9  2 -1</clus>
<clus scale="   79.930">  5  6 -1 -1</clus>
<clus scale="   87.448">  7  8 -1 -1</clus>
<clus scale="  115.848">  1  7  2 -1</clus>
<clus scale="  122.354">  2 10  1 -1</clus>
<clus scale="  122.354">  2  5  1 -1</clus>
</clustering>
</event>
<event>
10    4  0.2977685E-005  0.1376645E+03  0.7546771E-02  0.1241717E+00
         21   -1    0    0  501  502  0.00000000000E+00  0.00000000000E+00  0.22191996097E+03  0.22191996097E+03  0.00000000000E+00 0. -1.
          2   -1    0    0  503    0 -0.00000000000E+00 -0.00000000000E+00 -0.55886713548E+03  0.55886713548E+03  0.00000000000E+00 0. -1.
         24    2    1    2    0    0  0.18437154919E+02 -0.32852421228E+02 -0.46508414178E+02  0.10028726880E+03  0.80469207973E+02 0.  0.
         23    2    1    2    0    0  0.11198769766E+03  0.21255460757E+02  0.13709309973E+03  0.19962670634E+03  0.89795683922E+02 0.  0.
        -11    1    3    3    0    0  0.34848343656E+02 -0.52617992612E+02 -0.31532942410E+02  0.70550596447E+02  0.00000000000E+00 0.  1.
         12    1    3    3    0    0 -0.16411188736E+02  0.19765571384E+02 -0.14975471768E+02  0.29736672352E+02  0.00000000000E+00 0. -1.
        -11    1    4    4    0    0  0.89900917304E+01 -0.27717052341E+02  0.42098276864E+02  0.51198844272E+02  0.00000000000E+00 0.  1.
         11    1    4    4    0    0  0.10299760593E+03  0.48972513098E+02  0.94994822861E+02  0.14842786207E+03  0.00000000000E+00 0. -1.
         21    1    1    2  503  502 -0.54905769612E+02  0.46743178603E+02 -0.37615915776E+03  0.38300819867E+03  0.00000000000E+00 0. -1.
          1    1    1    2  501    0 -0.75519082972E+02 -0.35146218132E+02 -0.51372702297E+02  0.97864922640E+02  0.00000000000E+00 0. -1.
<scales pt_clust_5="13000.00000" pt_clust_6="13000.00000" pt_clust_7="13000.00000" pt_clust_8="13000.00000" pt_clust_9="72.10803" pt_clust_10="104.34689"></scales>
<clustering>
<clus scale="   72.108">  2  9  1 -1</clus>
<clus scale="   80.469">  5  6 -1 -1</clus>
<clus scale="   81.730">  2  5  1 -1</clus>
<clus scale="   89.796">  7  8 -1 -1</clus>
<clus scale="  104.347">  1 10  2 -1</clus>
<clus scale="  104.347">  1  5  2 -1</clus>
</clustering>
</event>
<event>
10    4  0.2977685E-005  0.1601113E+03  0.7546771E-02  0.1204068E+00
          2   -1    0    0  503    0 -0.00000000000E+00  0.00000000000E+00  0.35187554679E+03  0.35187554679E+03  0.00000000000E+00 0. -1.
         21   -1    0    0  501  502  0.00000000000E+00 -0.00000000000E+00 -0.57649460986E+03  0.57649460986E+03  0.00000000000E+00 0. -1.
         24    2    1    2    0    0 -0.34079919556E+02 -0.64227118559E+02  0.13959399960E+03  0.17695562655E+03  0.80871783521E+02 0.  0.
         23    2    1    2    0    0  0.96664788343E+02 -0.45931082367E+02 -0.13848355918E+03  0.19755310647E+03  0.91628533108E+02 0.  0.
        -11    1    3    3    0    0 -0.23803221622E+02  0.12246698238E+02  0.61974622237E+02  0.67508731130E+02  0.00000000000E+00 0.  1.
         12    1    3    3    0    0 -0.10276697934E+02 -0.76473816798E+02  0.77619377361E+02  0.10944689542E+03  0.00000000000E+00 0. -1.
        -11    1    4    4    0    0  0.84612745073E+02  0.85931883925E+01 -0.83635054636E+02  0.11928110445E+03  0.00000000000E+00 0.  1.
         11    1    4    4    0    0  0.12052043269E+02 -0.54524270759E+02 -0.54848504545E+02  0.78272002016E+02  0.00000000000E+00 0. -1.
         21    1    1    2  503  502  0.15833906520E+02 -0.16986695010E+02  0.14882017318E+03  0.15062106210E+03  0.00000000000E+00 0. -1.
          1    1    1    2  501    0 -0.78418775307E+02  0.12714489594E+03 -0.37454967665E+03  0.40324036153E+03  0.00000000000E+00 0. -1.
<scales pt_clust_5="13000.00000" pt_clust_6="13000.00000" pt_clust_7="13000.00000" pt_clust_8="13000.00000" pt_clust_9="23.22198" pt_clust_10="131.30061"></scales>
<clustering>
<clus scale="   23.222">  1  9  2 -1</clus>
<clus scale="   80.872">  5  6 -1 -1</clus>
<clus scale="   91.629">  7  8 -1 -1</clus>
<clus scale="  114.109">  1  5  2 -1</clus>
<clus scale="  131.301">  2 10  1 -1</clus>
<clus scale="  131.301">  2  5  1 -1</clus>
</clustering>
</event>
<event>
10    4  0.2977685E-005  0.1236032E+03  0.7546771E-02  0.1244708E+00
          2   -1    0    0  503    0 -0.00000000000E+00  0.00000000000E+00  0.72392285071E+03  0.72392285071E+03  0.00000000000E+00 0. -1.
         21   -1    0    0  501  502  0.00000000000E+00 -0.00000000000E+00 -0.74901497897E+02  0.74901497897E+02  0.00000000000E+00 0. -1.
         24    2    1    2    0    0  0.28487397005E+02 -0.52893808806E+02  0.38120118192E+03  0.39685596840E+03  0.92579866933E+02 0.  0.
         23    2    1    2    0    0  0.15957618619E+02 -0.66693011383E+02  0.44827275132E+02  0.11902384146E+03  0.86339949509E+02 0.  0.
        -13    1    3    3    0    0  0.35151907910E+02 -0.68717828442E+02  0.19284102742E+03  0.20771484885E+03  0.00000000000E+00 0.  1.
         14    1    3    3    0    0 -0.66645109052E+01  0.15824019636E+02  0.18836015450E+03  0.18914111956E+03  0.00000000000E+00 0. -1.
        -13    1    4    4    0    0 -0.27325835199E+02  0.30113848765E+01  0.17290140098E+02  0.32476432267E+02  0.00000000000E+00 0.  1.
         13    1    4    4    0    0  0.43283453818E+02 -0.69704396259E+02  0.27537135035E+02  0.86547409194E+02  0.00000000000E+00 0. -1.
         21    1    1    2  503  502 -0.25854937050E+02  0.29711131784E+01  0.13015768667E+03  0.13273405246E+03  0.00000000000E+00 0. -1.
          1    1    1    2  501    0 -0.18590078573E+02  0.11661570701E+03  0.92835209101E+02  0.15021048629E+03  0.00000000000E+00 0. -1.
<scales pt_clust_5="13000.00000" pt_clust_6="13000.00000" pt_clust_7="13000.00000" pt_clust_8="13000.00000" pt_clust_9="26.02509" pt_clust_10="88.44871"></scales>
<clustering>
<clus scale="   26.025">  1  9  2 -1</clus>
<clus scale="   86.340">  7  8 -1 -1</clus>
<clus scale="   92.580">  5  6 -1 -1</clus>
<clus scale="  106.295">  1  5  2 -1</clus>
<clus scale="   88.449">  2 10  1 -1</clus>
<clus scale="   88.449">  2  5  1 -1</clus>
</clustering>
</event>
<event>
10    4  0.2977685E-005  0.2009260E+03  0.7546771E-02  0.1150226E+00
          2   -1    0    0  503    0 -0.00000000000E+00  0.00000000000E+00  0.11662215128E+04  0.11662215128E+04  0.00000000000E+00 0. -1.
         21   -1    0    0  501  502  0.00000000000E+00 -0.00000000000E+00 -0.88300326319E+02  0.88300326319E+02  0.00000000000E+00 0. -1.
         24    2    1    2    0    0 -0.19720991426E+03 -0.74117327148E+02  0.31056196014E+03  0.38326621739E+03  0.77840438349E+02 0.  0.
         23    2    1    2    0    0  0.87714676658E+02  0.14332728758E+03  0.31207853391E+03  0.36611739313E+03  0.91718909497E+02 0.  0.
        -13    1    3    3    0    0 -0.89368936907E+02 -0.60598109182E+02  0.10431669233E+03  0.15013630480E+03  0.00000000000E+00 0.  1.
         14    1    3    3    0    0 -0.10784097735E+03 -0.13519217966E+02  0.20624526782E+03  0.23312991260E+03  0.00000000000E+00 0. -1.
        -13    1    4    4    0    0  0.41626341048E+02  0.93789401840E+01  0.36038678365E+02  0.55852512265E+02  0.00000000000E+00 0.  1.
         13    1    4    4    0    0  0.46088335610E+02  0.13394834739E+03  0.27603985555E+03  0.31026488087E+03  0.00000000000E+00 0. -1.
         21    1    1    2  503  502  0.55723724311E+02  0.28357156985E+02  0.33662010065E+03  0.34237750213E+03  0.00000000000E+00 0. -1.
          1    1    1    2  501    0  0.53771513288E+02 -0.97567117414E+02  0.11866059181E+03  0.16276072650E+03  0.00000000000E+00 0. -1.
<scales pt_clust_5="13000.00000" pt_clust_6="13000.00000" pt_clust_7="13000.00000" pt_clust_8="13000.00000" pt_clust_9="62.52409" pt_clust_10="112.25921"></scales>
<clustering>
<clus scale="   62.524">  1  9  2 -1</clus>
<clus scale="   77.840">  5  6 -1 -1</clus>
<clus scale="   91.719">  7  8 -1 -1</clus>
<clus scale="  112.259">  2 10  1 -1</clus>
<clus scale="  194.982">  1  5  2 -1</clus>
<clus scale="  112.259">  2  5  1 -1</clus>
</clustering>
</event>
<event>
10    4  0.2977685E-005  0.2281600E+03  0.7546771E-02  0.1128550E+00
          4   -1    0    0  503    0 -0.00000000000E+00  0.00000000000E+00  0.14366351042E+03  0.14366351042E+03  0.00000000000E+00 0. -1.
         21   -1    0    0  501  502  0.00000000000E+00 -0.00000000000E+00 -0.93429611822E+03  0.93429611822E+03  0.00000000000E+00 0. -1.
         24    2    1    2    0    0  0.16579428193E+03 -0.99505140751E+02 -0.25437475028E+03  0.32939610666E+03  0.80039143832E+02 0.  0.
         23    2    1    2    0    0 -0.22037132815E+03  0.54021665032E+02 -0.18574826897E+03  0.30647568756E+03  0.89123874909E+02 0.  0.
        -11    1    3    3    0    0  0.98948393731E+02 -0.15865851044E+02 -0.10040551636E+03  0.14185830102E+03  0.00000000000E+00 0.  1.
         12    1    3    3    0    0  0.66845888197E+02 -0.83639289707E+02 -0.15396923392E+03  0.18753780564E+03  0.00000000000E+00 0. -1.
        -11    1    4    4    0    0 -0.96006521046E+02  0.50291329810E+02 -0.13239232860E+03  0.17109704442E+03  0.00000000000E+00 0.  1.
         11    1    4    4    0    0 -0.12436480710E+03  0.37303352226E+01 -0.53355940374E+02  0.13537864315E+03  0.00000000000E+00 0. -1.
         21    1    1    2  503  502 -0.17564395838E+02  0.64068611241E+02  0.15795070935E+02  0.68284545934E+02  0.00000000000E+00 0. -1.
          3    1    1    2  501    0  0.72141442060E+02 -0.18585135523E+02 -0.36630465948E+03  0.37380328848E+03  0.00000000000E+00 0. -1.
<scales pt_clust_5="13000.00000" pt_clust_6="13000.00000" pt_clust_7="13000.00000" pt_clust_8="13000.00000" pt_clust_9="66.43263" pt_clust_10="73.31059"></scales>
<clustering>
<clus scale="   66.433">  1  9  2 -1</clus>
<clus scale="   73.311">  2 10  1 -1</clus>
<clus scale="   80.039">  5  6 -1 -1</clus>
<clus scale="   89.124">  7  8 -1 -1</clus>
<clus scale="  224.767">  1  5  2 -1</clus>
<clus scale="   73.311">  2  5  1 -1</clus>
</clustering>
</event>
<event>
10    4  0.2977685E-005  0.1109486E+03  0.7546771E-02  0.1263362E+00
         21   -1    0    0  503  502  0.00000000000E+00  0.00000000000E+00  0.43251160099E+02  0.43251160099E+02  0.00000000000E+00 0. -1.
         -1   -1    0    0    0  501 -0.00000000000E+00 -0.00000000000E+00 -0.62717485884E+03  0.62717485884E+03  0.00000000000E+00 0.  1.
         24    2    1    2    0    0  0.25308212359E+02  0.77871986275E+02 -0.24014607809E+03  0.26619549837E+03  0.80531687379E+02 0.  0.
         23    2    1    2    0    0  0.27484821707E+02 -0.37232452393E+02 -0.13113812751E+03  0.16683103308E+03  0.92161348600E+02 0.  0.
        -11    1    3    3    0    0  0.37500073777E+02  0.13153790642E+02 -0.14593056877E+03  0.15124486320E+03  0.00000000000E+00 0.  1.
         12    1    3    3    0    0 -0.12191861418E+02  0.64718195633E+02 -0.94215509318E+02  0.11495063517E+03  0.00000000000E+00 0. -1.
        -11    1    4    4    0    0  0.42476649368E+02 -0.61062670614E+02 -0.86824616415E+02  0.11433035249E+03  0.00000000000E+00 0. -1.
         11    1    4    4    0    0 -0.14991827661E+02  0.23830218221E+02 -0.44313511095E+02  0.52500680593E+02  0.00000000000E+00 0.  1.
         21    1    1    2  503  501 -0.17635440146E+02  0.24949975623E+02 -0.73773766874E+02  0.79850351982E+02  0.00000000000E+00 0.  1.
         -2    1    1    2    0  502 -0.35157593920E+02 -0.65589509505E+02 -0.13886572627E+03  0.15754913551E+03  0.00000000000E+00 0.  1.
<scales pt_clust_5="13000.00000" pt_clust_6="13000.00000" pt_clust_7="13000.00000" pt_clust_8="13000.00000" pt_clust_9="30.55340" pt_clust_10="71.12178"></scales>
<clustering>
<clus scale="   30.553">  2  9  1 -1</clus>
<clus scale="   71.122">  1 10  2 -1</clus>
<clus scale="   80.532">  5  6 -1 -1</clus>
<clus scale="   92.161">  7  8 -1 -1</clus>
<clus scale="  101.495">  2  5  1 -1</clus>
<clus scale="   71.122">  1  5  2 -1</clus>
</clustering>
</event>
<event>
10    4  0.2977685E-005  0.1192133E+03  0.7546771E-02  0.1247990E+00
          2   -1    0    0  503    0 -0.00000000000E+00  0.00000000000E+00  0.58014521120E+03  0.58014521120E+03  0.00000000000E+00 0. -1.
         21   -1    0    0  501  502  0.00000000000E+00 -0.00000000000E+00 -0.85875476507E+02  0.85875476507E+02  0.00000000000E+00 0. -1.
         24    2    1    2    0    0  0.52450548345E+02  0.97753900791E+01  0.11976315154E+03  0.15415481730E+03  0.81079448426E+02 0.  0.
         23    2    1    2    0    0 -0.12686170950E+03  0.32236524629E+02  0.48676491805E+02  0.16729147830E+03  0.92108365533E+02 0.  0.
        -11    1    3    3    0    0  0.51114411813E+02 -0.22183804711E+02  0.41106022703E+02  0.69242395892E+02  0.00000000000E+00 0.  1.
         12    1    3    3    0    0  0.13361365319E+01  0.31959194790E+02  0.78657128836E+02  0.84912421406E+02  0.00000000000E+00 0. -1.
        -11    1    4    4    0    0 -0.18056421944E+02  0.22043894381E+02  0.50511239156E+02  0.57994421577E+02  0.00000000000E+00 0.  1.
         11    1    4    4    0    0 -0.10880528755E+03  0.10192630247E+02 -0.18347473518E+01  0.10929705672E+03  0.00000000000E+00 0. -1.
         21    1    1    2  503  502  0.21867694052E+02 -0.36610173970E+02  0.60382643431E+02  0.73922692788E+02  0.00000000000E+00 0. -1.
          1    1    1    2  501    0  0.52543467100E+02 -0.54017407380E+01  0.26544744792E+03  0.27065169932E+03  0.00000000000E+00 0. -1.
<scales pt_clust_5="13000.00000" pt_clust_6="13000.00000" pt_clust_7="13000.00000" pt_clust_8="13000.00000" pt_clust_9="42.64388" pt_clust_10="68.51224"></scales>
<clustering>
<clus scale="   42.644">  1  9  2 -1</clus>
<clus scale="   68.512">  2 10  1 -1</clus>
<clus scale="   81.079">  5  6 -1 -1</clus>
<clus scale="   92.108">  7  8 -1 -1</clus>
<clus scale="  110.913">  1  5  2 -1</clus>
<clus scale="   68.512">  2  5  1 -1</clus>
</clustering>
</event>
<event>
10    4  0.2977685E-005  0.1203004E+03  0.7546771E-02  0.1246120E+00
          2   -1    0    0  503    0 -0.00000000000E+00  0.00000000000E+00  0.85914406529E+03  0.85914406529E+03  0.00000000000E+00 0. -1.
         21   -1    0    0  501  502  0.00000000000E+00 -0.00000000000E+00 -0.33824478777E+02  0.33824478777E+02  0.00000000000E+00 0.  1.
         24    2    1    2    0    0 -0.77627714681E+02 -0.17007403659E+02  0.49573033239E+03  0.50848245114E+03  0.80563805807E+02 0.  0.
         23    2    1    2    0    0  0.78119633636E+02 -0.25458893222E+02  0.23866476274E+03  0.26854502169E+03  0.91677299793E+02 0.  0.
        -11    1    3    3    0    0  0.13981553385E+01 -0.31331721223E+02  0.17908532520E+03  0.18181085032E+03  0.00000000000E+00 0.  1.
         12    1    3    3    0    0 -0.79025870019E+02  0.14324317564E+02  0.31664500719E+03  0.32667160082E+03  0.00000000000E+00 0. -1.
        -11    1    4    4    0    0  0.90954713639E+02 -0.89182424407E+01  0.13658503007E+03  0.16434039498E+03  0.00000000000E+00 0.  1.
         11    1    4    4    0    0 -0.12835080003E+02 -0.16540650782E+02  0.10207973267E+03  0.10420462671E+03  0.00000000000E+00 0. -1.
         21    1    1    2  503  502 -0.19026884404E+02  0.30747779511E+02  0.86245631993E+02  0.93518753803E+02  0.00000000000E+00 0. -1.
          1    1    1    2  501    0  0.18534965448E+02  0.11718517370E+02  0.46788593855E+01  0.22422317424E+02  0.00000000000E+00 0. -1.
<scales pt_clust_5="13000.00000" pt_clust_6="13000.00000" pt_clust_7="13000.00000" pt_clust_8="13000.00000" pt_clust_9="36.33033" pt_clust_10="21.92872"></scales>
<clustering>
<clus scale="   21.929">  2 10  1 -1</clus>
<clus scale="   36.330">  2  9  1 -1</clus>
<clus scale="   80.564">  5  6 -1 -1</clus>
<clus scale="   91.677">  7  8 -1 -1</clus>
<clus scale="  112.062">  1  5  2 -1</clus>
<clus scale="   21.929">  2  5  1 -1</clus>
</clustering>
</event>
<event>
10    4  0.2977685E-005  0.3792133E+03  0.7546771E-02  0.1051483E+00
         21   -1    0    0  501  502  0.00000000000E+00  0.00000000000E+00  0.20577258260E+03  0.20577258260E+03  0.00000000000E+00 0. -1.
          2   -1    0    0  503    0 -0.00000000000E+00 -0.00000000000E+00 -0.11641874316E+04  0.11641874316E+04  0.00000000000E+00 0. -1.
         24    2    1    2    0    0 -0.33279739468E+03 -0.18830933688E+03 -0.54741830123E+03  0.67244450245E+03  0.79374429673E+02 0.  0.
         23    2    1    2    0    0  0.30479689714E+03  0.11716035733E+03 -0.12681912590E+03  0.36208328531E+03  0.91616139274E+02 0.  0.
        -13    1    3    3    0    0 -0.64632766050E+02 -0.73533443430E+02 -0.11801361935E+03  0.15333550176E+03  0.00000000000E+00 0.  1.
         14    1    3    3    0    0 -0.26816462863E+03 -0.11477589346E+03 -0.42940468188E+03  0.51910900069E+03  0.00000000000E+00 0. -1.
        -11    1    4    4    0    0  0.28176197925E+03  0.91560084212E+02 -0.13666215262E+03  0.32626615811E+03  0.00000000000E+00 0.  1.
         11    1    4    4    0    0  0.23034917887E+02  0.25600273121E+02  0.98430267191E+01  0.35817127201E+02  0.00000000000E+00 0. -1.
         21    1    1    2  503  502 -0.30313759911E+02  0.79791342722E+01 -0.23358656865E+03  0.23568045247E+03  0.00000000000E+00 0. -1.
          1    1    1    2  501    0  0.58314257459E+02  0.63169845279E+02 -0.50590853195E+02  0.99751773932E+02  0.00000000000E+00 0. -1.
<scales pt_clust_5="13000.00000" pt_clust_6="13000.00000" pt_clust_7="13000.00000" pt_clust_8="13000.00000" pt_clust_9="31.34630" pt_clust_10="84.81170"></scales>
<clustering>
<clus scale="   31.346">  2  9  1 -1</clus>
<clus scale="   79.374">  5  6 -1 -1</clus>
<clus scale="   84.812">  1 10  2 -1</clus>
<clus scale="   91.616">  7  8 -1 -1</clus>
<clus scale="  376.443">  2  5  1 -1</clus>
<clus scale="   84.812">  1  5  2 -1</clus>
</clustering>
</event>
<event>
10    4  0.2977685E-005  0.1028365E+03  0.7546771E-02  0.1279438E+00
         21   -1    0    0  501  502  0.00000000000E+00  0.00000000000E+00  0.14347329034E+03  0.14347329034E+03  0.00000000000E+00 0. -1.
          2   -1    0    0  503    0 -0.00000000000E+00 -0.00000000000E+00 -0.24849164639E+03  0.24849164639E+03  0.00000000000E+00 0. -1.
         24    2    1    2    0    0 -0.34155776902E+02  0.44643809711E+02 -0.17392834117E+03  0.19991053131E+03  0.80953479389E+02 0.  0.
         23    2    1    2    0    0 -0.11326738611E+02 -0.87657087905E+01  0.29336047970E+02  0.97255868231E+02  0.91613140634E+02 0.  0.
        -11    1    3    3    0    0  0.22463816837E+02 -0.50852180456E+01 -0.45778867278E+02  0.51246338393E+02  0.00000000000E+00 0.  1.
         12    1    3    3    0    0 -0.56619593739E+02  0.49729027757E+02 -0.12814947389E+03  0.14866419292E+03  0.00000000000E+00 0. -1.
        -11    1    4    4    0    0  0.30142166949E+02 -0.25023121189E+02  0.34774913176E+02  0.52383216862E+02  0.00000000000E+00 0.  1.
         11    1    4    4    0    0 -0.41468905559E+02  0.16257412399E+02 -0.54388652061E+01  0.44872651369E+02  0.00000000000E+00 0. -1.
         21    1    1    2  503  502  0.28820595743E+02  0.15036229023E+02  0.13169905271E+02  0.35073655741E+02  0.00000000000E+00 0. -1.
          1    1    1    2  501    0  0.16661919770E+02 -0.50914329944E+02  0.26404031877E+02  0.59724881443E+02  0.00000000000E+00 0. -1.
<scales pt_clust_5="13000.00000" pt_clust_6="13000.00000" pt_clust_7="13000.00000" pt_clust_8="13000.00000" pt_clust_9="32.50715" pt_clust_10="52.92959"></scales>
<clustering>
<clus scale="   32.507">  1  9  2 -1</clus>
<clus scale="   52.930">  1 10  2 -1</clus>
<clus scale="   80.953">  5  6 -1 -1</clus>
<clus scale="   91.613">  7  8 -1 -1</clus>
<clus scale="   93.466">  2  5  1 -1</clus>
<clus scale="   32.507">  1  5  2 -1</clus>
</clustering>
</event>
<event>
10    4  0.2977685E-005  0.2213434E+03  0.7546771E-02  0.1171853E+00
          2   -1    0    0  503    0 -0.00000000000E+00  0.00000000000E+00  0.30972066982E+03  0.30972066982E+03  0.00000000000E+00 0. -1.
         21   -1    0    0  501  502  0.00000000000E+00 -0.00000000000E+00 -0.62258649944E+03  0.62258649944E+03  0.00000000000E+00 0.  1.
         24    2    1    2    0    0 -0.16599017049E+01  0.38641332004E+02 -0.22141284723E+03  0.23834694230E+03  0.79307680421E+02 0.  0.
         23    2    1    2    0    0 -0.63615042698E+02 -0.17655691923E+03  0.24326072726E+01  0.20875813378E+03  0.91404712424E+02 0.  0.
        -13    1    3    3    0    0 -0.31163312094E+02  0.35788509718E+02 -0.18700540116E+03  0.19293260355E+03  0.00000000000E+00 0.  1.
         14    1    3    3    0    0  0.29503410389E+02  0.28528222867E+01 -0.34407446072E+02  0.45414338757E+02  0.00000000000E+00 0. -1.
        -11    1    4    4    0    0  0.14712785646E+02 -0.85533658131E+02 -0.12733342091E+02  0.87718930315E+02  0.00000000000E+00 0.  1.
         11    1    4    4    0    0 -0.78327828344E+02 -0.91023261104E+02  0.15165949364E+02  0.12103920346E+03  0.00000000000E+00 0. -1.
         21    1    1    2  503  502 -0.10244280896E+03  0.24373739681E+03 -0.10973309119E+03  0.28625827327E+03  0.00000000000E+00 0.  1.
          1    1    1    2  501    0  0.16771775336E+03 -0.10582180958E+03  0.15847501527E+02  0.19894381991E+03  0.00000000000E+00 0. -1.
<scales pt_clust_5="13000.00000" pt_clust_6="13000.00000" pt_clust_7="13000.00000" pt_clust_8="13000.00000" pt_clust_9="201.58885" pt_clust_10="190.79745"></scales>
<clustering>
<clus scale="   79.308">  5  6 -1 -1</clus>
<clus scale="   88.236">  1  5  2 -1</clus>
<clus scale="   91.405">  7  8 -1 -1</clus>
<clus scale="  190.797">  2 10  1 -1</clus>
<clus scale="  201.589">  2  9  1 -1</clus>
<clus scale="  190.797">  2  5  1 -1</clus>
</clustering>
</event>
<event>
10    4  0.2977685E-005  0.2282862E+03  0.7546771E-02  0.1158971E+00
         21   -1    0    0  501  502  0.00000000000E+00  0.00000000000E+00  0.64687187389E+02  0.64687187389E+02  0.00000000000E+00 0. -1.
          2   -1    0    0  503    0 -0.00000000000E+00 -0.00000000000E+00 -0.15533946117E+04  0.15533946117E+04  0.00000000000E+00 0. -1.
         23    2    1    2    0    0  0.38179123921E+02 -0.28585867778E+02 -0.23096373435E+03  0.25430753481E+03  0.95148716950E+02 0.  0.
         24    2    1    2    0    0 -0.19993743004E+03 -0.32881085123E+02 -0.50855791928E+03  0.55368442595E+03  0.82940608854E+02 0.  0.
        -13    1    4    4    0    0 -0.30889983330E+02  0.25532034512E+02 -0.91026029778E+02  0.99457598773E+02  0.00000000000E+00 0.  1.
         14    1    4    4    0    0 -0.16904744671E+03 -0.58413119635E+02 -0.41753188950E+03  0.45422682718E+03  0.00000000000E+00 0. -1.
        -13    1    3    3    0    0  0.41544507472E+01  0.34480238221E+02 -0.78890221090E+02  0.86196364612E+02  0.00000000000E+00 0.  1.
         13    1    3    3    0    0  0.34024673174E+02 -0.63066106000E+02 -0.15207351326E+03  0.16811117020E+03  0.00000000000E+00 0. -1.
         21    1    1    2  503  502 -0.33173489822E+02 -0.64130672106E+02 -0.23918418659E+03  0.24984454897E+03  0.00000000000E+00 0. -1.
          1    1    1    2  501    0  0.19493179594E+03  0.12559762501E+03 -0.51000158413E+03  0.56024528940E+03  0.00000000000E+00 0. -1.
<scales pt_clust_5="13000.00000" pt_clust_6="13000.00000" pt_clust_7="13000.00000" pt_clust_8="13000.00000" pt_clust_9="72.20266" pt_clust_10="212.68641"></scales>
<clustering>
<clus scale="   72.203">  2  9  1 -1</clus>
<clus scale="   82.941">  5  6 -1 -1</clus>
<clus scale="   95.149">  7  8 -1 -1</clus>
<clus scale="  108.247">  2  7  1 -1</clus>
<clus scale="  212.686">  1 10  2 -1</clus>
<clus scale="  212.686">  1  5  2 -1</clus>
</clustering>
</event>
<event>
10    4  0.2977685E-005  0.1882828E+03  0.7546771E-02  0.1172860E+00
         -3   -1    0    0    0  501 -0.00000000000E+00  0.00000000000E+00  0.78703441713E+03  0.78703441713E+03  0.00000000000E+00 0.  1.
         21   -1    0    0  501  502  0.00000000000E+00 -0.00000000000E+00 -0.89579431447E+02  0.89579431447E+02  0.00000000000E+00 0.  1.
         23    2    1    2    0    0  0.32662859675E+02  0.99435439267E+02  0.20480261388E+03  0.24813928392E+03  0.93138201539E+02 0.  0.
         24    2    1    2    0    0  0.12258403382E+03  0.25057408123E+02  0.35553576820E+03  0.38534068199E+03  0.80168819885E+02 0.  0.
        -13    1    4    4    0    0  0.12787189266E+03  0.30492994459E+02  0.35397716209E+03  0.37759882802E+03  0.00000000000E+00 0.  1.
         14    1    4    4    0    0 -0.52878588404E+01 -0.54355863357E+01  0.15586061113E+01  0.77418539730E+01  0.00000000000E+00 0. -1.
        -11    1    3    3    0    0  0.14835006782E+02  0.83548810952E+02  0.20743059065E+03  0.22411588782E+03  0.00000000000E+00 0.  1.
         11    1    3    3    0    0  0.17827852893E+02  0.15886628315E+02 -0.26279767683E+01  0.24023396094E+02  0.00000000000E+00 0. -1.
         21    1    1    2  503  502 -0.68418653483E+02 -0.69718340483E+02  0.58840362332E+02  0.11403485162E+03  0.00000000000E+00 0.  1.
         -4    1    1    2    0  503 -0.86828240012E+02 -0.54774506907E+02  0.78276241279E+02  0.12909903105E+03  0.00000000000E+00 0.  1.
<scales pt_clust_5="13000.00000" pt_clust_6="13000.00000" pt_clust_7="13000.00000" pt_clust_8="13000.00000" pt_clust_9="26.04742" pt_clust_10="172.44248"></scales>
<clustering>
<clus scale="   26.047">  9 10 -1 -1</clus>
<clus scale="   80.169">  5  6 -1 -1</clus>
<clus scale="   93.138">  7  8 -1 -1</clus>
<clus scale="  140.104">  1  7  2 -1</clus>
<clus scale="  172.442">  2  9  1 -1</clus>
<clus scale="  172.442">  2  5  1 -1</clus>
</clustering>
</event>
<event>
10    4  0.2977685E-005  0.1006200E+03  0.7546771E-02  0.1279785E+00
         -1   -1    0    0    0  501 -0.00000000000E+00  0.00000000000E+00  0.21894143907E+03  0.21894143907E+03  0.00000000000E+00 0.  1.
         21   -1    0    0  503  502  0.00000000000E+00 -0.00000000000E+00 -0.20367366659E+03  0.20367366659E+03  0.00000000000E+00 0.  1.
         23    2    1    2    0    0 -0.65661240941E+02  0.36713630636E+02  0.56999376893E+02  0.13081255119E+03  0.90574308421E+02 0.  0.
         24    2    1    2    0    0  0.17507002489E+02 -0.33243164262E+02 -0.13430146745E+03  0.16538692107E+03  0.88906391185E+02 0.  0.
        -11    1    4    4    0    0  0.48189714397E+02 -0.12438535927E+02 -0.39319771327E+02  0.63427203682E+02  0.00000000000E+00 0.  1.
         12    1    4    4    0    0 -0.30682711908E+02 -0.20804628335E+02 -0.94981696127E+02  0.10195971739E+03  0.00000000000E+00 0. -1.
        -13    1    3    3    0    0 -0.83449637468E+02  0.46446465362E+02  0.55547524088E+02  0.11048368011E+03  0.00000000000E+00 0.  1.
         13    1    3    3    0    0  0.17788396527E+02 -0.97328347260E+01  0.14518528057E+01  0.20328871080E+02  0.00000000000E+00 0. -1.
         21    1    1    2  503  501  0.38327044426E+02 -0.35177680533E+02  0.47544306690E+02  0.70476184919E+02  0.00000000000E+00 0. -1.
         -2    1    1    2    0  502  0.98271940265E+01  0.31707214159E+02  0.45025556351E+02  0.55939448485E+02  0.00000000000E+00 0.  1.
<scales pt_clust_5="13000.00000" pt_clust_6="13000.00000" pt_clust_7="13000.00000" pt_clust_8="13000.00000" pt_clust_9="51.23137" pt_clust_10="33.19521"></scales>
<clustering>
<clus scale="   33.195">  2 10  1 -1</clus>
<clus scale="   51.231">  1  9  2 -1</clus>
<clus scale="   88.906">  5  6 -1 -1</clus>
<clus scale="   90.574">  7  8 -1 -1</clus>
<clus scale="   99.121">  2  5  1 -1</clus>
<clus scale="   33.195">  2  5  1 -1</clus>
</clustering>
</event>
<event>
10    4  0.2977685E-005  0.1252931E+03  0.7546771E-02  0.1236032E+00
         21   -1    0    0  503  502  0.00000000000E+00  0.00000000000E+00  0.18527983213E+03  0.18527983213E+03  0.00000000000E+00 0.  1.
         -3   -1    0    0    0  501 -0.00000000000E+00 -0.00000000000E+00 -0.16553755662E+03  0.16553755662E+03  0.00000000000E+00 0.  1.
         23    2    1    2    0    0  0.56020583144E+02  0.73948909647E+02 -0.26893174289E+02  0.13113448900E+03  0.88691963604E+02 0.  0.
         24    2    1    2    0    0 -0.45022311890E+02 -0.51238481205E+02  0.86169484169E+02  0.13804886581E+03  0.83545908489E+02 0.  0.
        -13    1    4    4    0    0 -0.37309656886E+02 -0.73819803054E+02  0.57435603506E+02  0.10069867114E+03  0.00000000000E+00 0.  1.
         14    1    4    4    0    0 -0.77126550040E+01  0.22581321849E+02  0.28733880662E+02  0.37350194666E+02  0.00000000000E+00 0. -1.
        -11    1    3    3    0    0  0.22442136517E+02 -0.16503522583E+01 -0.41429190213E+02  0.47146059811E+02  0.00000000000E+00 0. -1.
         11    1    3    3    0    0  0.33578446626E+02  0.75599261906E+02  0.14536015924E+02  0.83988429188E+02  0.00000000000E+00 0.  1.
         21    1    1    2  503  501 -0.58419460518E+01  0.22163116539E+02 -0.25608003451E+02  0.34367163240E+02  0.00000000000E+00 0. -1.
         -4    1    1    2    0  502 -0.51563252016E+01 -0.44873544981E+02 -0.13926030912E+02  0.47266870699E+02  0.00000000000E+00 0.  1.
<scales pt_clust_5="13000.00000" pt_clust_6="13000.00000" pt_clust_7="13000.00000" pt_clust_8="13000.00000" pt_clust_9="22.92012" pt_clust_10="40.39323"></scales>
<clustering>
<clus scale="   22.920">  2  9  1 -1</clus>
<clus scale="   40.393">  1 10  2 -1</clus>
<clus scale="   83.546">  5  6 -1 -1</clus>
<clus scale="   88.692">  7  8 -1 -1</clus>
<clus scale="  121.705">  1  5  2 -1</clus>
<clus scale="   40.393">  1  5  2 -1</clus>
</clustering>
</event>
<event>
10    4  0.2977685E-005  0.1271869E+03  0.7546771E-02  0.1235955E+00
          2   -1    0    0  503    0 -0.00000000000E+00  0.00000000000E+00  0.18154519778E+03  0.18154519778E+03  0.00000000000E+00 0. -1.
         21   -1    0    0  501  502  0.00000000000E+00 -0.00000000000E+00 -0.23264311593E+03  0.23264311593E+03  0.00000000000E+00 0.  1.
         24    2    1    2    0    0 -0.30201571585E+02  0.60558315730E+02 -0.28683625723E+02  0.11094888121E+03  0.83111126367E+02 0.  0.
         23    2    1    2    0    0  0.94831928795E+02 -0.54939611395E+02 -0.11325549147E+03  0.18531826149E+03  0.97491517964E+02 0.  0.
        -13    1    3    3    0    0 -0.26033480445E+02  0.81630923067E+02 -0.22202794005E+02  0.88511658929E+02  0.00000000000E+00 0.  1.
         14    1    3    3    0    0 -0.41680911402E+01 -0.21072607337E+02 -0.64808317179E+01  0.22437222276E+02  0.00000000000E+00 0. -1.
        -13    1    4    4    0    0  0.94501636376E+02 -0.26054766067E+02 -0.38749527844E+02  0.10540842481E+03  0.00000000000E+00 0.  1.
         13    1    4    4    0    0  0.33029241885E+00 -0.28884845328E+02 -0.74505963628E+02  0.79909836684E+02  0.00000000000E+00 0. -1.
         21    1    1    2  503  502 -0.24749984867E+02  0.14982389481E+02  0.25009969236E+02  0.38243068740E+02  0.00000000000E+00 0.  1.
          1    1    1    2  501    0 -0.39880372342E+02 -0.20601093816E+02  0.65831229809E+02  0.79678102278E+02  0.00000000000E+00 0. -1.
<scales pt_clust_5="13000.00000" pt_clust_6="13000.00000" pt_clust_7="13000.00000" pt_clust_8="13000.00000" pt_clust_9="28.93154" pt_clust_10="53.57625"></scales>
<clustering>
<clus scale="   28.932">  1  9  2 -1</clus>
<clus scale="   53.576">  2 10  1 -1</clus>
<clus scale="   83.111">  5  6 -1 -1</clus>
<clus scale="   97.492">  7  8 -1 -1</clus>
<clus scale="  116.531">  1  5  2 -1</clus>
<clus scale="   53.576">  2  5  1 -1</clus>
</clustering>
</event>
<event>
10    4  0.3435676E-005  0.1000762E+03  0.7546771E-02  0.1285239E+00
         -1   -1    0    0    0  501 -0.00000000000E+00  0.00000000000E+00  0.20513190330E+03  0.20513190330E+03  0.00000000000E+00 0.  1.
         21   -1    0    0  503  502  0.00000000000E+00 -0.00000000000E+00 -0.50576194691E+03  0.50576194691E+03  0.00000000000E+00 0.  1.
         24    2    1    2    0    0 -0.71996589286E+01 -0.87840719799E+01  0.10598417789E+03  0.13371512963E+03  0.80734719431E+02 0.  0.
         23    2    1    2    0    0  0.62382226829E+02  0.44262313912E+02 -0.93024862339E+02  0.15094233222E+03  0.90990482935E+02 0.  0.
        -11    1    3    3    0    0  0.28143216426E+02 -0.25408725283E+02  0.74325707456E+02  0.83438328963E+02  0.00000000000E+00 0.  1.
         12    1    3    3    0    0 -0.35342875354E+02  0.16624653303E+02  0.31658470431E+02  0.50276800671E+02  0.00000000000E+00 0. -1.
        -13    1    4    4    0    0  0.77232364647E+02  0.14437692289E+02 -0.39613668545E+02  0.87991635075E+02  0.00000000000E+00 0.  1.
         13    1    4    4    0    0 -0.14850137817E+02  0.29824621623E+02 -0.53411193794E+02  0.62950697142E+02  0.00000000000E+00 0. -1.
         21    1    1    2  503  501 -0.92070523800E+01 -0.32741577986E+02  0.49598556772E+02  0.60139816897E+02  0.00000000000E+00 0.  1.
         -2    1    1    2    0  502 -0.45975515521E+02 -0.27366639459E+01 -0.36318791594E+03  0.36609657147E+03  0.00000000000E+00 0.  1.
<scales pt_clust_5="13000.00000" pt_clust_6="13000.00000" pt_clust_7="13000.00000" pt_clust_8="13000.00000" pt_clust_9="34.01148" pt_clust_10="46.16572"></scales>
<clustering>
<clus scale="   34.011">  1  9  2 -1</clus>
<clus scale="   46.166">  2 10  1 -1</clus>
<clus scale="   80.735">  5  6 -1 -1</clus>
<clus scale="   90.852">  1  5  2 -1</clus>
<clus scale="   90.990">  7  8 -1 -1</clus>
<clus scale="   46.166">  2  5  1 -1</clus>
</clustering>
</event>
<event>
10    4  0.2977685E-005  0.2204095E+03  0.7546771E-02  0.1134536E+00
         21   -1    0    0  501  502  0.00000000000E+00  0.00000000000E+00  0.26001191099E+03  0.26001191099E+03  0.00000000000E+00 0. -1.
          2   -1    0    0  503    0 -0.00000000000E+00 -0.00000000000E+00 -0.46152689157E+03  0.46152689157E+03  0.00000000000E+00 0. -1.
         24    2    1    2    0    0  0.11184241183E+03 -0.11866829589E+03 -0.31748049400E+03  0.36554162410E+03  0.78967875387E+02 0.  0.
         23    2    1    2    0    0 -0.15473951961E+03  0.10553948326E+03  0.12492981945E+03  0.24319256268E+03  0.91936180578E+02 0.  0.
        -13    1    3    3    0    0  0.16020794542E+02 -0.71319472618E+02 -0.14999723427E+03  0.16686013101E+03  0.00000000000E+00 0.  1.
         14    1    3    3    0    0  0.95821617290E+02 -0.47348823272E+02 -0.16748325974E+03  0.19868149309E+03  0.00000000000E+00 0. -1.
        -13    1    4    4    0    0 -0.13865797634E+03  0.45027916903E+02  0.92823119120E+02  0.17282846741E+03  0.00000000000E+00 0. -1.
         13    1    4    4    0    0 -0.16081543264E+02  0.60511566360E+02  0.32106700332E+02  0.70364095271E+02  0.00000000000E+00 0.  1.
         21    1    1    2  503  502  0.47228868307E+02 -0.26871670534E+02 -0.35226509751E+02  0.64757699682E+02  0.00000000000E+00 0. -1.
          1    1    1    2  501    0 -0.43317605341E+01  0.40000483161E+02  0.26262203715E+02  0.48046916097E+02  0.00000000000E+00 0. -1.
<scales pt_clust_5="13000.00000" pt_clust_6="13000.00000" pt_clust_7="13000.00000" pt_clust_8="13000.00000" pt_clust_9="52.82249" pt_clust_10="40.23435"></scales>
<clustering>
<clus scale="   40.234">  1 10  2 -1</clus>
<clus scale="   52.822">  2  9  1 -1</clus>
<clus scale="   78.968">  5  6 -1 -1</clus>
<clus scale="   91.936">  7  8 -1 -1</clus>
<clus scale="  215.323">  2  5  1 -1</clus>
<clus scale="   40.234">  1  5  2 -1</clus>
</clustering>
</event>
<event>
10    4  0.2977685E-005  0.1069875E+03  0.7546771E-02  0.1270253E+00
         21   -1    0    0  501  502  0.00000000000E+00  0.00000000000E+00  0.42796807822E+02  0.42796807822E+02  0.00000000000E+00 0. -1.
          4   -1    0    0  503    0 -0.00000000000E+00 -0.00000000000E+00 -0.75467098141E+03  0.75467098141E+03  0.00000000000E+00 0. -1.
         24    2    1    2    0    0  0.66457033143E+02 -0.32423612408E+02 -0.46282283297E+03  0.47557690460E+03  0.80626233764E+02 0.  0.
         23    2    1    2    0    0 -0.15164740328E+02  0.32568750598E+02 -0.11721380207E+03  0.15223541986E+03  0.90254389363E+02 0.  0.
        -13    1    3    3    0    0  0.13360109770E+02 -0.19765087107E+02 -0.25727354987E+02  0.35086293564E+02  0.00000000000E+00 0.  1.
         14    1    3    3    0    0  0.53096923373E+02 -0.12658525302E+02 -0.43709547799E+03  0.44049061103E+03  0.00000000000E+00 0. -1.
        -11    1    4    4    0    0 -0.47428591518E+02  0.41794247908E+02 -0.82746256609E+02  0.10413055956E+03  0.00000000000E+00 0.  1.
         11    1    4    4    0    0  0.32263851190E+02 -0.92254973105E+01 -0.34467545462E+02  0.48104860299E+02  0.00000000000E+00 0. -1.
         21    1    1    2  503  502 -0.22301995195E+02 -0.15460541756E+02 -0.13407342105E+03  0.13679214003E+03  0.00000000000E+00 0. -1.
          3    1    1    2  501    0 -0.28990297620E+02  0.15315403567E+02  0.22358825106E+01  0.32863324742E+02  0.00000000000E+00 0. -1.
<scales pt_clust_5="13000.00000" pt_clust_6="13000.00000" pt_clust_7="13000.00000" pt_clust_8="13000.00000" pt_clust_9="27.13683" pt_clust_10="33.10160"></scales>
<clustering>
<clus scale="   27.137">  2  9  1 -1</clus>
<clus scale="   33.102">  1 10  2 -1</clus>
<clus scale="   80.626">  5  6 -1 -1</clus>
<clus scale="   90.254">  7  8 -1 -1</clus>
<clus scale="   99.000">  2  5  1 -1</clus>
<clus scale="   33.102">  1  5  2 -1</clus>
</clustering>
</event>
<event>
10    4  0.2977685E-005  0.1073862E+03  0.7546771E-02  0.1266685E+00
         21   -1    0    0  501  502  0.00000000000E+00  0.00000000000E+00  0.14467801864E+03  0.14467801864E+03  0.00000000000E+00 0.  1.
          2   -1    0    0  503    0 -0.00000000000E+00 -0.00000000000E+00 -0.59066779404E+03  0.59066779404E+03  0.00000000000E+00 0. -1.
         24    2    1    2    0    0  0.20606985970E+02  0.27279461713E+02 -0.19469217150E+03  0.21354629741E+03  0.80797045668E+02 0.  0.
         23    2    1    2    0    0  0.86404958352E+02 -0.76021082633E+02  0.26489259310E+02  0.14491283377E+03  0.83982299912E+02 0.  0.
        -11    1    3    3    0    0  0.50149381917E+02  0.45692695930E+01 -0.10650810081E+03  0.11781262356E+03  0.00000000000E+00 0.  1.
         12    1    3    3    0    0 -0.29542395947E+02  0.22710192120E+02 -0.88184070690E+02  0.95733673845E+02  0.00000000000E+00 0. -1.
        -11    1    4    4    0    0  0.92367461216E+02 -0.54321722711E+02  0.44559167664E+02  0.11605221615E+03  0.00000000000E+00 0.  1.
         11    1    4    4    0    0 -0.59625028631E+01 -0.21699359922E+02 -0.18069908353E+02  0.28860617618E+02  0.00000000000E+00 0. -1.
         21    1    1    2  503  502 -0.74871100126E+02  0.24623051868E+02 -0.31342087768E+03  0.32317893323E+03  0.00000000000E+00 0. -1.
          1    1    1    2  501    0 -0.32140844196E+02  0.24118569053E+02  0.35634014473E+02  0.53707748289E+02  0.00000000000E+00 0. -1.
<scales pt_clust_5="13000.00000" pt_clust_6="13000.00000" pt_clust_7="13000.00000" pt_clust_8="13000.00000" pt_clust_9="80.67570" pt_clust_10="40.18382"></scales>
<clustering>
<clus scale="   40.184">  1 10  2 -1</clus>
<clus scale="   80.676">  2  9  1 -1</clus>
<clus scale="   80.797">  5  6 -1 -1</clus>
<clus scale="   83.982">  7  8 -1 -1</clus>
<clus scale="  104.914">  2  5  1 -1</clus>
<clus scale="   40.184">  1  5  2 -1</clus>
</clustering>
</event>
<event>
10    4  0.2977685E-005  0.1693555E+03  0.7546771E-02  0.1198426E+00
          2   -1    0    0  503    0 -0.00000000000E+00  0.00000000000E+00  0.40970003187E+03  0.40970003187E+03  0.00000000000E+00 0. -1.
         21   -1    0    0  501  502  0.00000000000E+00 -0.00000000000E+00 -0.50595427410E+03  0.50595427410E+03  0.00000000000E+00 0.  1.
         24    2    1    2    0    0  0.38405614532E+02 -0.62443850333E+02 -0.40571506077E+03  0.41978817403E+03  0.79013763701E+02 0.  0.
         23    2    1    2    0    0  0.11172384848E+03 -0.19036623934E+02  0.25211391013E+03  0.29094902722E+03  0.90803641954E+02 0.  0.
        -13    1    3    3    0    0  0.53095952009E+02 -0.48447607945E+02 -0.19033670155E+03  0.20345616430E+03  0.00000000000E+00 0.  1.
         14    1    3    3    0    0 -0.14690337478E+02 -0.13996242388E+02 -0.21537835922E+03  0.21633200973E+03  0.00000000000E+00 0. -1.
        -13    1    4    4    0    0  0.62837355984E+02 -0.48144833207E+02  0.19442726933E+03  0.20992479923E+03  0.00000000000E+00 0.  1.
         13    1    4    4    0    0  0.48886492497E+02  0.29108209273E+02  0.57686640797E+02  0.81024227995E+02  0.00000000000E+00 0. -1.
         21    1    1    2  503  502 -0.19644115350E+02 -0.11012640920E+02 -0.17314679159E+02  0.28407175894E+02  0.00000000000E+00 0.  1.
          1    1    1    2  501    0 -0.13048534766E+03  0.92493115188E+02  0.74661587570E+02  0.17650992882E+03  0.00000000000E+00 0. -1.
<scales pt_clust_5="13000.00000" pt_clust_6="13000.00000" pt_clust_7="13000.00000" pt_clust_8="13000.00000" pt_clust_9="22.52042" pt_clust_10="142.95443"></scales>
<clustering>
<clus scale="   22.520">  2  9  1 -1</clus>
<clus scale="   79.014">  5  6 -1 -1</clus>
<clus scale="   90.804">  7  8 -1 -1</clus>
<clus scale="  108.966">  1  5  2 -1</clus>
<clus scale="  142.954">  2 10  1 -1</clus>
<clus scale="   22.520">  2  5  1 -1</clus>
</clustering>
</event>
<event>
10    4  0.2977685E-005  0.1442261E+03  0.7546771E-02  0.1210506E+00
         21   -1    0    0  501  502  0.00000000000E+00  0.00000000000E+00  0.32631907245E+03  0.32631907245E+03  0.00000000000E+00 0.  1.
          2   -1    0    0  503    0 -0.00000000000E+00 -0.00000000000E+00 -0.17217043493E+03  0.17217043493E+03  0.00000000000E+00 0. -1.
         24    2    1    2    0    0 -0.11064727875E+03 -0.54651543103E+01 -0.76488478048E+02  0.15735489467E+03  0.81470162609E+02 0.  0.
         23    2    1    2    0    0  0.59303075145E+02 -0.50815239600E+02  0.14784239889E+03  0.19210594991E+03  0.94595337002E+02 0.  0.
        -11    1    3    3    0    0 -0.88505983175E+02  0.31749552866E+02 -0.56096511154E+02  0.10949046410E+03  0.00000000000E+00 0.  1.
         12    1    3    3    0    0 -0.22141295578E+02 -0.37214707177E+02 -0.20391966894E+02  0.47864430571E+02  0.00000000000E+00 0. -1.
        -11    1    4    4    0    0  0.53130460865E+01 -0.63975730015E+02  0.99709336000E+02  0.11858783317E+03  0.00000000000E+00 0.  1.
         11    1    4    4    0    0  0.53990029059E+02  0.13160490415E+02  0.48133062892E+02  0.73518116741E+02  0.00000000000E+00 0. -1.
         21    1    1    2  503  502 -0.21148863987E+02 -0.71130176008E+01  0.44316931195E+00  0.22317389327E+02  0.00000000000E+00 0.  1.
          1    1    1    2  501    0  0.72493067596E+02  0.63393411511E+02  0.82351547367E+02  0.12671127348E+03  0.00000000000E+00 0. -1.
<scales pt_clust_5="13000.00000" pt_clust_6="13000.00000" pt_clust_7="13000.00000" pt_clust_8="13000.00000" pt_clust_9="22.31299" pt_clust_10="93.47470"></scales>
<clustering>
<clus scale="   22.313">  2  9  1 -1</clus>
<clus scale="   81.470">  5  6 -1 -1</clus>
<clus scale="   93.475">  1 10  2 -1</clus>
<clus scale="   94.595">  7  8 -1 -1</clus>
<clus scale="  135.979">  2  5  1 -1</clus>
<clus scale="   93.475">  1  5  2 -1</clus>
</clustering>
</event>
<event>
10    4  0.2977685E-005  0.2466853E+03  0.7546771E-02  0.1136146E+00
          2   -1    0    0  503    0 -0.00000000000E+00  0.00000000000E+00  0.67094413456E+03  0.67094413456E+03  0.00000000000E+00 0. -1.
         21   -1    0    0  501  502  0.00000000000E+00 -0.00000000000E+00 -0.21097729220E+03  0.21097729220E+03  0.00000000000E+00 0. -1.
         23    2    1    2    0    0 -0.11825518349E+03  0.73287252995E+01  0.12065742263E+03  0.19493937929E+03  0.96980149132E+02 0.  0.
         24    2    1    2    0    0  0.19744577005E+03 -0.19024832982E+03  0.18352779525E+03  0.33950848533E+03  0.80026875951E+02 0.  0.
        -11    1    4    4    0    0  0.12435457511E+02 -0.29756634229E+02 -0.19078905203E+01  0.32306933163E+02  0.00000000000E+00 0.  1.
         12    1    4    4    0    0  0.18501031254E+03 -0.16049169559E+03  0.18543568577E+03  0.30720155217E+03  0.00000000000E+00 0. -1.
        -13    1    3    3    0    0 -0.16440700848E+02  0.37463353374E+02  0.11144239302E+02  0.42402754156E+02  0.00000000000E+00 0. -1.
         13    1    3    3    0    0 -0.10181448264E+03 -0.30134628074E+02  0.10951318333E+03  0.15253662513E+03  0.00000000000E+00 0.  1.
         21    1    1    2  503  502  0.24072875130E+02 -0.87238322128E+01  0.12502250428E+03  0.12761753462E+03  0.00000000000E+00 0. -1.
          1    1    1    2  501    0 -0.10326346169E+03  0.19164343673E+03  0.30759120196E+02  0.21985602752E+03  0.00000000000E+00 0. -1.
<scales pt_clust_5="13000.00000" pt_clust_6="13000.00000" pt_clust_7="13000.00000" pt_clust_8="13000.00000" pt_clust_9="25.60485" pt_clust_10="233.34380"></scales>
<clustering>
<clus scale="   25.605">  1  9  2 -1</clus>
<clus scale="   80.027">  5  6 -1 -1</clus>
<clus scale="   96.980">  7  8 -1 -1</clus>
<clus scale="  147.687">  1  7  2 -1</clus>
<clus scale="  233.344">  2 10  1 -1</clus>
<clus scale="  233.344">  2  5  1 -1</clus>
</clustering>
</event>
<event>
10    4  0.2977685E-005  0.1060122E+03  0.7546771E-02  0.1275453E+00
         21   -1    0    0  501  502  0.00000000000E+00  0.00000000000E+00  0.13725952604E+03  0.13725952604E+03  0.00000000000E+00 0. -1.
          2   -1    0    0  503    0 -0.00000000000E+00 -0.00000000000E+00 -0.46144724583E+03  0.46144724583E+03  0.00000000000E+00 0. -1.
         23    2    1    2    0    0  0.51501539358E+02  0.18842536150E+02 -0.64518969488E+02  0.12757863836E+03  0.95426211376E+02 0.  0.
         24    2    1    2    0    0  0.40602885501E+01 -0.30715266996E+02  0.15509584871E+02  0.88513740169E+02  0.81450729930E+02 0.  0.
        -11    1    4    4    0    0  0.25069088517E+02 -0.17171057747E+02  0.42164112046E+02  0.51972269220E+02  0.00000000000E+00 0.  1.
         12    1    4    4    0    0 -0.21008799966E+02 -0.13544209249E+02 -0.26654527176E+02  0.36541470950E+02  0.00000000000E+00 0. -1.
        -11    1    3    3    0    0  0.46332272318E+02  0.48760448370E+02 -0.14101011451E+02  0.68724808529E+02  0.00000000000E+00 0. -1.
         11    1    3    3    0    0  0.51692670398E+01 -0.29917912220E+02 -0.50417958037E+02  0.58853829833E+02  0.00000000000E+00 0.  1.
         21    1    1    2  503  502 -0.72161525445E+02  0.88418731693E+02 -0.28177648145E+03  0.30401174874E+03  0.00000000000E+00 0. -1.
          1    1    1    2  501    0  0.16599697538E+02 -0.76546000847E+02  0.65981462835E+01  0.78602644602E+02  0.00000000000E+00 0. -1.
<scales pt_clust_5="13000.00000" pt_clust_6="13000.00000" pt_clust_7="13000.00000" pt_clust_8="13000.00000" pt_clust_9="106.01223" pt_clust_10="78.32522"></scales>
<clustering>
<clus scale="   78.325">  1 10  2 -1</clus>
<clus scale="   81.451">  5  6 -1 -1</clus>
<clus scale="   95.426">  7  8 -1 -1</clus>
<clus scale="  106.012">  2  9  1 -1</clus>
<clus scale="   92.066">  1  5  2 -1</clus>
<clus scale="   78.325">  1  5  2 -1</clus>
</clustering>
</event>
<event>
10    4  0.2977685E-005  0.1378316E+03  0.7546771E-02  0.1218588E+00
         -1   -1    0    0    0  501 -0.00000000000E+00  0.00000000000E+00  0.86744950427E+03  0.86744950427E+03  0.00000000000E+00 0.  1.
         21   -1    0    0  503  502  0.00000000000E+00 -0.00000000000E+00 -0.14442065679E+03  0.14442065679E+03  0.00000000000E+00 0.  1.
         23    2    1    2    0    0  0.12618267156E+03 -0.79584327262E+02  0.24869120056E+03  0.30477417150E+03  0.93724333184E+02 0.  0.
         24    2    1    2    0    0 -0.60395663556E+02  0.79144949648E+02  0.53400446386E+02  0.14065197175E+03  0.83784307914E+02 0.  0.
        -13    1    4    4    0    0  0.84874174035E+00  0.67719821170E+02  0.30489676516E+02  0.74271898562E+02  0.00000000000E+00 0.  1.
         14    1    4    4    0    0 -0.61244405297E+02  0.11425128478E+02  0.22910769871E+02  0.66380073192E+02  0.00000000000E+00 0. -1.
        -13    1    3    3    0    0  0.41752243784E+02 -0.28255339071E+02  0.17331172783E+03  0.18049534357E+03  0.00000000000E+00 0.  1.
         13    1    3    3    0    0  0.84430427771E+02 -0.51328988191E+02  0.75379472729E+02  0.12427882793E+03  0.00000000000E+00 0. -1.
         21    1    1    2  503  501 -0.74033599696E+02  0.23129069414E+02  0.48854057991E+03  0.49465930291E+03  0.00000000000E+00 0.  1.
         -2    1    1    2    0  502  0.82465916971E+01 -0.22689691800E+02 -0.67603379384E+02  0.71784714897E+02  0.00000000000E+00 0.  1.
<scales pt_clust_5="13000.00000" pt_clust_6="13000.00000" pt_clust_7="13000.00000" pt_clust_8="13000.00000" pt_clust_9="76.96716" pt_clust_10="24.14184"></scales>
<clustering>
<clus scale="   24.142">  2 10  1 -1</clus>
<clus scale="   76.967">  1  9  2 -1</clus>
<clus scale="   83.784">  5  6 -1 -1</clus>
<clus scale="   93.724">  7  8 -1 -1</clus>
<clus scale="  131.275">  2  5  1 -1</clus>
<clus scale="   24.142">  2  5  1 -1</clus>
</clustering>
</event>
<event>
10    4  0.2977685E-005  0.2623086E+03  0.7546771E-02  0.1105764E+00
         21   -1    0    0  503  502  0.00000000000E+00  0.00000000000E+00  0.39137149609E+03  0.39137149609E+03  0.00000000000E+00 0. -1.
         -3   -1    0    0    0  501 -0.00000000000E+00 -0.00000000000E+00 -0.52674577019E+03  0.52674577019E+03  0.00000000000E+00 0.  1.
         24    2    1    2    0    0  0.12458555283E+03 -0.40665750133E+00  0.10605231063E+03  0.18194849207E+03  0.79601732609E+02 0.  0.
         23    2    1    2    0    0  0.48788904117E+02  0.44380480749E+02  0.74821183141E+02  0.13718009972E+03  0.94181665279E+02 0.  0.
        -11    1    3    3    0    0  0.20771955677E+02 -0.26336561013E+02  0.34784062263E+01  0.33722216690E+02  0.00000000000E+00 0.  1.
         12    1    3    3    0    0  0.10381359715E+03  0.25929903512E+02  0.10257390440E+03  0.14822627538E+03  0.00000000000E+00 0. -1.
        -11    1    4    4    0    0  0.64231433310E+02  0.62279158199E+02  0.68587045373E+02  0.11273221972E+03  0.00000000000E+00 0.  1.
         11    1    4    4    0    0 -0.15442529193E+02 -0.17898677450E+02  0.62341377681E+01  0.24447879991E+02  0.00000000000E+00 0. -1.
         21    1    1    2  503  501 -0.13751456611E+03 -0.11471656061E+03 -0.42684656405E+03  0.46289106107E+03  0.00000000000E+00 0.  1.
         -4    1    1    2    0  502 -0.35859890840E+02  0.70742737366E+02  0.11059879618E+03  0.13609761342E+03  0.00000000000E+00 0.  1.
<scales pt_clust_5="13000.00000" pt_clust_6="13000.00000" pt_clust_7="13000.00000" pt_clust_8="13000.00000" pt_clust_9="177.96174" pt_clust_10="79.31246"></scales>
<clustering>
<clus scale="   79.312">  1 10  2 -1</clus>
<clus scale="   79.602">  5  6 -1 -1</clus>
<clus scale="   94.182">  7  8 -1 -1</clus>
<clus scale="  112.315">  5  7 -1 -1</clus>
<clus scale="  177.962">  2  9  1 -1</clus>
<clus scale="   79.312">  1  5  2 -1</clus>
</clustering>
</event>
<event>
10    4  0.2977685E-005  0.1577504E+03  0.7546771E-02  0.1192095E+00
         21   -1    0    0  501  502  0.00000000000E+00  0.00000000000E+00  0.12639946679E+03  0.12639946679E+03  0.00000000000E+00 0.  1.
          2   -1    0    0  503    0 -0.00000000000E+00 -0.00000000000E+00 -0.94789165826E+03  0.94789165826E+03  0.00000000000E+00 0. -1.
         24    2    1    2    0    0 -0.12440187794E+03  0.44530477278E+01 -0.54689590701E+03  0.56891954593E+03  0.95282001293E+02 0.  0.
         23    2    1    2    0    0  0.22799096033E+03 -0.17311569287E+02 -0.13559717626E+03  0.28079586305E+03  0.90444204212E+02 0.  0.
        -11    1    3    3    0    0 -0.28773864259E+02  0.31169689990E+02 -0.70432328874E+02  0.82220421971E+02  0.00000000000E+00 0.  1.
         12    1    3    3    0    0 -0.95628013681E+02 -0.26716642263E+02 -0.47646357814E+03  0.48669912396E+03  0.00000000000E+00 0. -1.
        -11    1    4    4    0    0  0.76773511373E+02  0.59890138463E+01 -0.95399492684E+02  0.12260140105E+03  0.00000000000E+00 0. -1.
         11    1    4    4    0    0  0.15121744896E+03 -0.23300583133E+02 -0.40197683572E+02  0.15819446200E+03  0.00000000000E+00 0.  1.
         21    1    1    2  503  502  0.25770942757E+02 -0.19931976883E+02 -0.63192371031E+02  0.71096420089E+02  0.00000000000E+00 0. -1.
          1    1    1    2  501    0 -0.12936002515E+03  0.32790498442E+02 -0.75806737174E+02  0.15347929598E+03  0.00000000000E+00 0. -1.
<scales pt_clust_5="13000.00000" pt_clust_6="13000.00000" pt_clust_7="13000.00000" pt_clust_8="13000.00000" pt_clust_9="32.57952" pt_clust_10="129.57313"></scales>
<clustering>
<clus scale="   32.580">  2  9  1 -1</clus>
<clus scale="   90.444">  7  8 -1 -1</clus>
<clus scale="   95.282">  5  6 -1 -1</clus>
<clus scale="  129.573">  1 10  2 -1</clus>
<clus scale="  154.876">  1  7  2 -1</clus>
<clus scale="  129.573">  1  5  2 -1</clus>
</clustering>
</event>
<event>
10    4  0.2977685E-005  0.1024015E+03  0.7546771E-02  0.1280313E+00
         21   -1    0    0  503  502  0.00000000000E+00  0.00000000000E+00  0.48050021166E+03  0.48050021166E+03  0.00000000000E+00 0.  1.
         -1   -1    0    0    0  501 -0.00000000000E+00 -0.00000000000E+00 -0.73114849024E+02  0.73114849024E+02  0.00000000000E+00 0.  1.
         24    2    1    2    0    0 -0.10245983655E+02  0.36236089734E+02  0.86718826016E+02  0.12416328638E+03  0.80488089301E+02 0.  0.
         23    2    1    2    0    0  0.35751881643E+02 -0.40753950771E+02  0.33316852975E+03  0.34962471942E+03  0.91088383815E+02 0.  0.
        -11    1    3    3    0    0  0.21981352760E+02  0.36316297334E+02  0.14127500972E+02  0.44739687135E+02  0.00000000000E+00 0.  1.
         12    1    3    3    0    0 -0.32227336416E+02 -0.80207600552E-01  0.72591325044E+02  0.79423599247E+02  0.00000000000E+00 0. -1.
        -11    1    4    4    0    0  0.57406810254E+02 -0.92513199001E+01  0.26653739932E+03  0.27280636726E+03  0.00000000000E+00 0.  1.
         11    1    4    4    0    0 -0.21654928612E+02 -0.31502630870E+02  0.66631130435E+02  0.76818352156E+02  0.00000000000E+00 0. -1.
         21    1    1    2  503  501  0.11059170335E+02  0.28253444502E+02 -0.18930741399E+02  0.35762205534E+02  0.00000000000E+00 0. -1.
         -2    1    1    2    0  502 -0.36565068322E+02 -0.23735583466E+02  0.64287482642E+01  0.44064849348E+02  0.00000000000E+00 0.  1.
<scales pt_clust_5="13000.00000" pt_clust_6="13000.00000" pt_clust_7="13000.00000" pt_clust_8="13000.00000" pt_clust_9="30.34077" pt_clust_10="34.23481"></scales>
<clustering>
<clus scale="   30.341">  2  9  1 -1</clus>
<clus scale="   34.235">  1 10  2 -1</clus>
<clus scale="   80.488">  5  6 -1 -1</clus>
<clus scale="   91.088">  7  8 -1 -1</clus>
<clus scale="   93.098">  2  5  1 -1</clus>
<clus scale="   34.235">  1  5  2 -1</clus>
</clustering>
</event>
<event>
10    4  0.2977685E-005  0.1406085E+03  0.7546771E-02  0.1214758E+00
         21   -1    0    0  501  502  0.00000000000E+00  0.00000000000E+00  0.44980771567E+02  0.44980771567E+02  0.00000000000E+00 0. -1.
          2   -1    0    0  503    0 -0.00000000000E+00 -0.00000000000E+00 -0.10547279106E+04  0.10547279106E+04  0.00000000000E+00 0. -1.
         23    2    1    2    0    0 -0.72396257911E+02  0.75796601560E+02 -0.26694698821E+03  0.30088199801E+03  0.91010654579E+02 0.  0.
         24    2    1    2    0    0  0.10935167302E+02 -0.11999692581E+03 -0.19301788820E+03  0.24137212846E+03  0.80534211036E+02 0.  0.
        -11    1    4    4    0    0  0.27467400879E+02 -0.76145043698E+01 -0.60183509591E+02  0.66591993622E+02  0.00000000000E+00 0.  1.
         12    1    4    4    0    0 -0.16532233577E+02 -0.11238242144E+03 -0.13283437861E+03  0.17478013484E+03  0.00000000000E+00 0. -1.
        -13    1    3    3    0    0  0.20862537486E+02  0.12225596486E+02 -0.30873495024E+02  0.39215856165E+02  0.00000000000E+00 0.  1.
         13    1    3    3    0    0 -0.93258795397E+02  0.63571005073E+02 -0.23607349318E+03  0.26166614185E+03  0.00000000000E+00 0. -1.
         21    1    1    2  503  502 -0.21939116571E+01  0.24405247480E+02 -0.18699094318E+03  0.18858961314E+03  0.00000000000E+00 0. -1.
          1    1    1    2  501    0  0.63655002266E+02  0.19795076768E+02 -0.36279131941E+03  0.36886494251E+03  0.00000000000E+00 0. -1.
<scales pt_clust_5="13000.00000" pt_clust_6="13000.00000" pt_clust_7="13000.00000" pt_clust_8="13000.00000" pt_clust_9="24.50366" pt_clust_10="69.57429"></scales>
<clustering>
<clus scale="   24.504">  2  9  1 -1</clus>
<clus scale="   69.574">  1 10  2 -1</clus>
<clus scale="   80.534">  5  6 -1 -1</clus>
<clus scale="   91.011">  7  8 -1 -1</clus>
<clus scale="  134.066">  1  5  2 -1</clus>
<clus scale="   69.574">  1  5  2 -1</clus>
</clustering>
</event>
<event>
10    4  0.2977685E-005  0.1041323E+03  0.7546771E-02  0.1277162E+00
         21   -1    0    0  503  502  0.00000000000E+00  0.00000000000E+00  0.27102466760E+03  0.27102466760E+03  0.00000000000E+00 0. -1.
         -1   -1    0    0    0  501 -0.00000000000E+00 -0.00000000000E+00 -0.13739570268E+03  0.13739570268E+03  0.00000000000E+00 0.  1.
         24    2    1    2    0    0 -0.61178875015E+01  0.41942096546E+02 -0.34326143762E+02  0.97528571594E+02  0.80851531350E+02 0.  0.
         23    2    1    2    0    0 -0.39615612460E+02 -0.42005373953E+02  0.20978422345E+03  0.23639966675E+03  0.92420418937E+02 0.  0.
        -13    1    3    3    0    0 -0.28523157205E+02  0.54785512827E+02 -0.11019052556E+02  0.62741074520E+02  0.00000000000E+00 0.  1.
         14    1    3    3    0    0  0.22405269704E+02 -0.12843416281E+02 -0.23307091205E+02  0.34787497075E+02  0.00000000000E+00 0. -1.
        -13    1    4    4    0    0 -0.33760795417E+02  0.12495666085E+02  0.15415272444E+03  0.15830033301E+03  0.00000000000E+00 0.  1.
         13    1    4    4    0    0 -0.58548170429E+01 -0.54501040038E+02  0.55631499008E+02  0.78099333734E+02  0.00000000000E+00 0. -1.
         21    1    1    2  503  501  0.22146645386E+02  0.11361006963E+02  0.31500753424E+00  0.24892681872E+02  0.00000000000E+00 0.  1.
         -2    1    1    2    0  502  0.23586854576E+02 -0.11297729555E+02 -0.42144122302E+02  0.49599450063E+02  0.00000000000E+00 0.  1.
<scales pt_clust_5="13000.00000" pt_clust_6="13000.00000" pt_clust_7="13000.00000" pt_clust_8="13000.00000" pt_clust_9="24.89069" pt_clust_10="32.49941"></scales>
<clustering>
<clus scale="   24.891">  2  9  1 -1</clus>
<clus scale="   32.499">  1 10  2 -1</clus>
<clus scale="   80.852">  5  6 -1 -1</clus>
<clus scale="   92.420">  7  8 -1 -1</clus>
<clus scale="   94.016">  2  5  1 -1</clus>
<clus scale="   32.499">  1  5  2 -1</clus>
</clustering>
</event>
<event>
10    4  0.2977685E-005  0.9757302E+02  0.7546771E-02  0.1291871E+00
         -1   -1    0    0    0  501 -0.00000000000E+00  0.00000000000E+00  0.36238648159E+03  0.36238648159E+03  0.00000000000E+00 0.  1.
         21   -1    0    0  503  502  0.00000000000E+00 -0.00000000000E+00 -0.11963580579E+03  0.11963580579E+03  0.00000000000E+00 0. -1.
         23    2    1    2    0    0  0.38965635475E+02 -0.15356830025E+02  0.19423601205E+03  0.21901632603E+03  0.92121494319E+02 0.  0.
         24    2    1    2    0    0 -0.65961882431E+02 -0.48746058817E+02 -0.46053267350E+02  0.12371237844E+03  0.80353599558E+02 0.  0.
        -13    1    4    4    0    0 -0.19272829181E+02  0.22066155979E+02 -0.59724838165E+01  0.29900296776E+02  0.00000000000E+00 0.  1.
         14    1    4    4    0    0 -0.46689053250E+02 -0.70812214797E+02 -0.40080783533E+02  0.93812081666E+02  0.00000000000E+00 0. -1.
        -11    1    3    3    0    0  0.11765007489E+01  0.28965396903E+02  0.12604822957E+03  0.12933883620E+03  0.00000000000E+00 0.  1.
         11    1    3    3    0    0  0.37789134726E+02 -0.44322226928E+02  0.68187782478E+02  0.89677489831E+02  0.00000000000E+00 0. -1.
         21    1    1    2  503  501 -0.20752070320E+02  0.90293595118E+00  0.32901922164E+02  0.38910155461E+02  0.00000000000E+00 0. -1.
         -2    1    1    2    0  502  0.47748317277E+02  0.63199952892E+02  0.61666008931E+02  0.10038342745E+03  0.00000000000E+00 0.  1.
<scales pt_clust_5="13000.00000" pt_clust_6="13000.00000" pt_clust_7="13000.00000" pt_clust_8="13000.00000" pt_clust_9="20.77170" pt_clust_10="76.40168"></scales>
<clustering>
<clus scale="   20.772">  1  9  2 -1</clus>
<clus scale="   76.402">  2 10  1 -1</clus>
<clus scale="   80.354">  5  6 -1 -1</clus>
<clus scale="   86.550">  2  5  1 -1</clus>
<clus scale="   92.121">  7  8 -1 -1</clus>
<clus scale="   76.402">  2  5  1 -1</clus>
</clustering>
</event>
<event>
10    4  0.2977685E-005  0.1343030E+03  0.7546771E-02  0.1221380E+00
         21   -1    0    0  503  502  0.00000000000E+00  0.00000000000E+00  0.11087416815E+03  0.11087416815E+03  0.00000000000E+00 0. -1.
         -1   -1    0    0    0  501 -0.00000000000E+00 -0.00000000000E+00 -0.45248334505E+03  0.45248334505E+03  0.00000000000E+00 0.  1.
         24    2    1    2    0    0  0.26358726491E+02  0.11521814362E+03 -0.71850141837E+02  0.16531407120E+03  0.90533398102E+02 0.  0.
         23    2    1    2    0    0 -0.13018347569E+02 -0.78687325706E+02 -0.82118529395E+02  0.14639401315E+03  0.91250104747E+02 0.  0.
        -11    1    3    3    0    0 -0.15071227389E+02  0.94149762405E+02 -0.70909379164E+02  0.11882533278E+03  0.00000000000E+00 0.  1.
         12    1    3    3    0    0  0.41429953880E+02  0.21068381218E+02 -0.94076267241E+00  0.46488738422E+02  0.00000000000E+00 0. -1.
        -13    1    4    4    0    0  0.35539324078E+02 -0.21609123200E+02 -0.10867414010E+02  0.42989515567E+02  0.00000000000E+00 0. -1.
         13    1    4    4    0    0 -0.48557671647E+02 -0.57078202506E+02 -0.71251115385E+02  0.10340449758E+03  0.00000000000E+00 0.  1.
         21    1    1    2  503  501  0.21652888591E+02 -0.47237284442E+02 -0.20475841395E+03  0.21124918156E+03  0.00000000000E+00 0.  1.
         -2    1    1    2    0  502 -0.34993267513E+02  0.10706466525E+02  0.17117908283E+02  0.40400247284E+02  0.00000000000E+00 0.  1.
<scales pt_clust_5="13000.00000" pt_clust_6="13000.00000" pt_clust_7="13000.00000" pt_clust_8="13000.00000" pt_clust_9="51.01403" pt_clust_10="36.59450"></scales>
<clustering>
<clus scale="   36.594">  1 10  2 -1</clus>
<clus scale="   51.014">  2  9  1 -1</clus>
<clus scale="   90.533">  5  6 -1 -1</clus>
<clus scale="   91.250">  7  8 -1 -1</clus>
<clus scale="  133.817">  2  5  1 -1</clus>
<clus scale="   36.594">  1  5  2 -1</clus>
</clustering>
</event>
<event>
10    4  0.2977685E-005  0.1418204E+03  0.7546771E-02  0.1217526E+00
          2   -1    0    0  503    0 -0.00000000000E+00  0.00000000000E+00  0.28518032432E+03  0.28518032432E+03  0.00000000000E+00 0. -1.
         21   -1    0    0  501  502  0.00000000000E+00 -0.00000000000E+00 -0.25607754632E+03  0.25607754632E+03  0.00000000000E+00 0. -1.
         23    2    1    2    0    0 -0.40996057855E+02  0.64482880414E+02  0.11528651036E+03  0.17497056451E+03  0.10716809389E+03 0.  0.
         24    2    1    2    0    0  0.20719334011E+02 -0.68634917733E+02 -0.13669361183E+03  0.17430956868E+03  0.80985427605E+02 0.  0.
        -13    1    4    4    0    0 -0.28554066716E+02 -0.31719778627E+02 -0.79718869371E+02  0.90424428204E+02  0.00000000000E+00 0.  1.
         14    1    4    4    0    0  0.49273400727E+02 -0.36915139106E+02 -0.56974742455E+02  0.83885140473E+02  0.00000000000E+00 0. -1.
        -13    1    3    3    0    0 -0.20716830934E+01 -0.27571144914E+02  0.90072027433E+01  0.29079023436E+02  0.00000000000E+00 0.  1.
         13    1    3    3    0    0 -0.38924374761E+02  0.92054025328E+02  0.10627930762E+03  0.14589154108E+03  0.00000000000E+00 0. -1.
         21    1    1    2  503  502  0.16793760873E+02  0.36641487664E+02  0.11381263712E+03  0.12073916263E+03  0.00000000000E+00 0.  1.
          1    1    1    2  501    0  0.34829629706E+01 -0.32489450345E+02 -0.63302757668E+02  0.71238574826E+02  0.00000000000E+00 0. -1.
<scales pt_clust_5="13000.00000" pt_clust_6="13000.00000" pt_clust_7="13000.00000" pt_clust_8="13000.00000" pt_clust_9="39.79273" pt_clust_10="32.67561"></scales>
<clustering>
<clus scale="   32.676">  2 10  1 -1</clus>
<clus scale="   39.793">  1  9  2 -1</clus>
<clus scale="   80.985">  5  6 -1 -1</clus>
<clus scale="  107.168">  7  8 -1 -1</clus>
<clus scale="  123.234">  2  5  1 -1</clus>
<clus scale="   32.676">  2  5  1 -1</clus>
</clustering>
</event>
<event>
10    4  0.2977685E-005  0.1604790E+03  0.7546771E-02  0.1189903E+00
          2   -1    0    0  503    0 -0.00000000000E+00  0.00000000000E+00  0.41492018984E+03  0.41492018984E+03  0.00000000000E+00 0. -1.
         21   -1    0    0  501  502  0.00000000000E+00 -0.00000000000E+00 -0.23668863142E+03  0.23668863142E+03  0.00000000000E+00 0.  1.
         24    2    1    2    0    0  0.48865362432E+02  0.13512624273E+03  0.81002844175E+02  0.18317692440E+03  0.79658017477E+02 0.  0.
         23    2    1    2    0    0  0.19301290210E+02 -0.12074333147E+03 -0.40352504691E+02  0.15761002905E+03  0.90890619554E+02 0.  0.
        -13    1    3    3    0    0  0.28731083886E+02  0.16020597653E+02 -0.71152841362E+01  0.33656529808E+02  0.00000000000E+00 0.  1.
         14    1    3    3    0    0  0.20134278546E+02  0.11910564507E+03  0.88118128311E+02  0.14952039459E+03  0.00000000000E+00 0. -1.
        -13    1    4    4    0    0  0.34224310874E+02 -0.74179272036E+01  0.34770638205E+01  0.35191178889E+02  0.00000000000E+00 0. -1.
         13    1    4    4    0    0 -0.14923020664E+02 -0.11332540427E+03 -0.43829568512E+02  0.12241885016E+03  0.00000000000E+00 0.  1.
         21    1    1    2  503  502 -0.54227554045E+02  0.61133669318E+01  0.21900878015E+03  0.22570522071E+03  0.00000000000E+00 0.  1.
          1    1    1    2  501    0 -0.13939098597E+02 -0.20496278187E+02 -0.81427561210E+02  0.85116647102E+02  0.00000000000E+00 0. -1.
<scales pt_clust_5="13000.00000" pt_clust_6="13000.00000" pt_clust_7="13000.00000" pt_clust_8="13000.00000" pt_clust_9="54.82534" pt_clust_10="24.78701"></scales>
<clustering>
<clus scale="   24.787">  2 10  1 -1</clus>
<clus scale="   54.825">  1  9  2 -1</clus>
<clus scale="   79.658">  5  6 -1 -1</clus>
<clus scale="   90.891">  7  8 -1 -1</clus>
<clus scale="  154.395">  1  5  2 -1</clus>
<clus scale="   24.787">  2  5  1 -1</clus>
</clustering>
</event>
<event>
10    4  0.2977685E-005  0.9798689E+02  0.7546771E-02  0.1293438E+00
         21   -1    0    0  501  502  0.00000000000E+00  0.00000000000E+00  0.19429554786E+03  0.19429554786E+03  0.00000000000E+00 0.  1.
          2   -1    0    0  503    0 -0.00000000000E+00 -0.00000000000E+00 -0.61959176514E+03  0.61959176514E+03  0.00000000000E+00 0. -1.
         23    2    1    2    0    0  0.18312783337E+02 -0.52535414830E+02 -0.26046202546E+03  0.28325870416E+03  0.96434946616E+02 0.  0.
         24    2    1    2    0    0 -0.43040138552E+02 -0.30027858386E+02  0.13390027697E+03  0.16513653428E+03  0.81158271148E+02 0.  0.
        -11    1    4    4    0    0 -0.58865191584E+02  0.26494325061E+01  0.96076547803E+02  0.11270684678E+03  0.00000000000E+00 0.  1.
         12    1    4    4    0    0  0.15825053033E+02 -0.32677290892E+02  0.37823729165E+02  0.52429687501E+02  0.00000000000E+00 0. -1.
        -13    1    3    3    0    0 -0.10736549795E+01  0.22008334406E+02 -0.12921210275E+03  0.13107740848E+03  0.00000000000E+00 0. -1.
         13    1    3    3    0    0  0.19386438316E+02 -0.74543749236E+02 -0.13124992271E+03  0.15218129567E+03  0.00000000000E+00 0.  1.
         21    1    1    2  503  502 -0.98481991525E+01  0.69107617776E+02 -0.31667718079E+03  0.32427964274E+03  0.00000000000E+00 0. -1.
          1    1    1    2  501    0  0.34575554367E+02  0.13455655440E+02  0.17942712000E+02  0.41212431826E+02  0.00000000000E+00 0. -1.
<scales pt_clust_5="13000.00000" pt_clust_6="13000.00000" pt_clust_7="13000.00000" pt_clust_8="13000.00000" pt_clust_9="70.00561" pt_clust_10="37.10153"></scales>
<clustering>
<clus scale="   37.102">  1 10  2 -1</clus>
<clus scale="   70.006">  2  9  1 -1</clus>
<clus scale="   81.158">  5  6 -1 -1</clus>
<clus scale="   82.996">  1  5  2 -1</clus>
<clus scale="   96.435">  7  8 -1 -1</clus>
<clus scale="   37.102">  1  5  2 -1</clus>
</clustering>
</event>
<event>
10    4  0.2977685E-005  0.1205895E+03  0.7546771E-02  0.1248334E+00
          2   -1    0    0  503    0 -0.00000000000E+00  0.00000000000E+00  0.20380627688E+03  0.20380627688E+03  0.00000000000E+00 0. -1.
         21   -1    0    0  501  502  0.00000000000E+00 -0.00000000000E+00 -0.16608892201E+03  0.16608892201E+03  0.00000000000E+00 0.  1.
         24    2    1    2    0    0 -0.26300222737E+02 -0.54392355575E+02  0.65910790858E+02  0.12034342324E+03  0.80548600883E+02 0.  0.
         23    2    1    2    0    0  0.79409524370E+02  0.33337313966E+02  0.15951310089E+02  0.13181596030E+03  0.98507634387E+02 0.  0.
        -11    1    3    3    0    0 -0.45320499940E+01 -0.62947455724E+02  0.15822800984E+02  0.65063681807E+02  0.00000000000E+00 0.  1.
         12    1    3    3    0    0 -0.21768172743E+02  0.85551001494E+01  0.50087989873E+02  0.55279741431E+02  0.00000000000E+00 0. -1.
        -11    1    4    4    0    0  0.23032213738E+02  0.62985451672E+02  0.58076326380E+01  0.67315515216E+02  0.00000000000E+00 0. -1.
         11    1    4    4    0    0  0.56377310632E+02 -0.29648137705E+02  0.10143677451E+02  0.64500445082E+02  0.00000000000E+00 0.  1.
         21    1    1    2  503  502 -0.33824684646E+02  0.41637978159E+01  0.26121371075E+02  0.42939172448E+02  0.00000000000E+00 0. -1.
          1    1    1    2  501    0 -0.19284616987E+02  0.16891243793E+02 -0.70266117159E+02  0.74796642905E+02  0.00000000000E+00 0. -1.
<scales pt_clust_5="13000.00000" pt_clust_6="13000.00000" pt_clust_7="13000.00000" pt_clust_8="13000.00000" pt_clust_9="36.00909" pt_clust_10="25.63612"></scales>
<clustering>
<clus scale="   25.636">  2 10  1 -1</clus>
<clus scale="   36.009">  1  9  2 -1</clus>
<clus scale="   80.549">  5  6 -1 -1</clus>
<clus scale="   98.508">  7  8 -1 -1</clus>
<clus scale="  106.424">  1  5  2 -1</clus>
<clus scale="   25.636">  2  5  1 -1</clus>
</clustering>
</event>
<event>
10    4  0.2977685E-005  0.1845630E+03  0.7546771E-02  0.1193541E+00
          2   -1    0    0  503    0 -0.00000000000E+00  0.00000000000E+00  0.29939609312E+03  0.29939609312E+03  0.00000000000E+00 0. -1.
         21   -1    0    0  501  502  0.00000000000E+00 -0.00000000000E+00 -0.39631644370E+03  0.39631644370E+03  0.00000000000E+00 0.  1.
         23    2    1    2    0    0  0.36839636000E+01 -0.17093406329E+02 -0.68278551345E+01  0.94468009992E+02  0.92584173477E+02 0.  0.
         24    2    1    2    0    0 -0.12772920173E+03 -0.12319606631E+03 -0.26042438186E+03  0.32023365281E+03  0.56892125973E+02 0.  0.
        -13    1    4    4    0    0 -0.12354065991E+03 -0.93453328800E+02 -0.20218374575E+03  0.25470391901E+03  0.00000000000E+00 0.  1.
         14    1    4    4    0    0 -0.41885418155E+01 -0.29742737512E+02 -0.58240636112E+02  0.65529733800E+02  0.00000000000E+00 0. -1.
        -13    1    3    3    0    0 -0.11251604142E+02 -0.45786395760E+02  0.21173232467E+02  0.51684605112E+02  0.00000000000E+00 0. -1.
         13    1    3    3    0    0  0.14935567742E+02  0.28692989432E+02 -0.28001087601E+02  0.42783404880E+02  0.00000000000E+00 0.  1.
         21    1    1    2  503  502  0.90885737306E+01  0.18359652807E+02  0.95170571524E+02  0.97350483860E+02  0.00000000000E+00 0. -1.
          1    1    1    2  501    0  0.11495666440E+03  0.12192981983E+03  0.75161314888E+02  0.18366039015E+03  0.00000000000E+00 0. -1.
<scales pt_clust_5="13000.00000" pt_clust_6="13000.00000" pt_clust_7="13000.00000" pt_clust_8="13000.00000" pt_clust_9="20.48607" pt_clust_10="175.57571"></scales>
<clustering>
<clus scale="   20.486">  1  9  2 -1</clus>
<clus scale="   56.892">  5  6 -1 -1</clus>
<clus scale="   92.584">  7  8 -1 -1</clus>
<clus scale="   93.681">  1  7  2 -1</clus>
<clus scale="  175.576">  2 10  1 -1</clus>
<clus scale="  175.576">  2  5  1 -1</clus>
</clustering>
</event>
<event>
10    4  0.2977685E-005  0.2432199E+03  0.7546771E-02  0.1162000E+00
         21   -1    0    0  501  502  0.00000000000E+00  0.00000000000E+00  0.43011434258E+03  0.43011434258E+03  0.00000000000E+00 0. -1.
          4   -1    0    0  503    0 -0.00000000000E+00 -0.00000000000E+00 -0.36200353321E+03  0.36200353321E+03  0.00000000000E+00 0. -1.
         24    2    1    2    0    0 -0.12397677382E+02  0.33300951704E+02 -0.15252866084E+03  0.17591220022E+03  0.80109013347E+02 0.  0.
         23    2    1    2    0    0  0.86448178579E+02  0.19442001852E+03  0.21019450028E+03  0.31623616848E+03  0.10271881584E+03 0.  0.
        -13    1    3    3    0    0 -0.28137289596E+01  0.59565809618E+02 -0.10644717020E+03  0.12201230589E+03  0.00000000000E+00 0.  1.
         14    1    3    3    0    0 -0.95839484226E+01 -0.26264857914E+02 -0.46081490645E+02  0.53899894329E+02  0.00000000000E+00 0. -1.
        -13    1    4    4    0    0  0.52669360184E+02  0.92296702200E+02  0.37321499915E+02  0.11263053358E+03  0.00000000000E+00 0. -1.
         13    1    4    4    0    0  0.33778818395E+02  0.10212331632E+03  0.17287300036E+03  0.20360563490E+03  0.00000000000E+00 0.  1.
         21    1    1    2  503  502  0.42763026771E+02 -0.23490887717E+02 -0.35384059573E+02  0.60270473171E+02  0.00000000000E+00 0.  1.
          3    1    1    2  501    0 -0.11681352797E+03 -0.20423008250E+03  0.45829029517E+02  0.23969903392E+03  0.00000000000E+00 0. -1.
<scales pt_clust_5="13000.00000" pt_clust_6="13000.00000" pt_clust_7="13000.00000" pt_clust_8="13000.00000" pt_clust_9="48.79035" pt_clust_10="220.46499"></scales>
<clustering>
<clus scale="   48.790">  2  9  1 -1</clus>
<clus scale="   80.109">  5  6 -1 -1</clus>
<clus scale="   83.418">  2  5  1 -1</clus>
<clus scale="  102.719">  7  8 -1 -1</clus>
<clus scale="  220.465">  1 10  2 -1</clus>
<clus scale="  220.465">  1  5  2 -1</clus>
</clustering>
</event>
<event>
10    4  0.2977685E-005  0.1562055E+03  0.7546771E-02  0.1194076E+00
         21   -1    0    0  501  502  0.00000000000E+00  0.00000000000E+00  0.53478886206E+02  0.53478886206E+02  0.00000000000E+00 0. -1.
          2   -1    0    0  503    0 -0.00000000000E+00 -0.00000000000E+00 -0.81611773211E+03  0.81611773211E+03  0.00000000000E+00 0. -1.
         24    2    1    2    0    0 -0.70586649742E+02 -0.10303642696E+03 -0.26808418619E+03  0.30664607112E+03  0.81016675122E+02 0.  0.
         23    2    1    2    0    0  0.77736575056E+02  0.11807659955E+03 -0.19905364687E+03  0.25932182412E+03  0.87409356877E+02 0.  0.
        -11    1    3    3    0    0  0.15691844924E+02 -0.34102781530E+02 -0.54151405954E+02  0.65890883072E+02  0.00000000000E+00 0.  1.
         12    1    3    3    0    0 -0.86278494667E+02 -0.68933645428E+02 -0.21393278023E+03  0.24075518805E+03  0.00000000000E+00 0. -1.
        -11    1    4    4    0    0  0.44782944455E+02  0.85809764824E+02 -0.18866551897E+03  0.21204599949E+03  0.00000000000E+00 0. -1.
         11    1    4    4    0    0  0.32953630601E+02  0.32266834727E+02 -0.10388127905E+02  0.47275824630E+02  0.00000000000E+00 0.  1.
         21    1    1    2  503  502  0.30402799313E+02 -0.60126217022E+01 -0.14209598288E+03  0.14543641283E+03  0.00000000000E+00 0.  1.
          1    1    1    2  501    0 -0.37552724627E+02 -0.90275508906E+01 -0.15340502997E+03  0.15819231025E+03  0.00000000000E+00 0. -1.
<scales pt_clust_5="13000.00000" pt_clust_6="13000.00000" pt_clust_7="13000.00000" pt_clust_8="13000.00000" pt_clust_9="30.99164" pt_clust_10="32.23842"></scales>
<clustering>
<clus scale="   30.992">  2  9  1 -1</clus>
<clus scale="   32.238">  1 10  2 -1</clus>
<clus scale="   81.017">  5  6 -1 -1</clus>
<clus scale="   87.409">  7  8 -1 -1</clus>
<clus scale="  152.720">  2  5  1 -1</clus>
<clus scale="   32.238">  1  5  2 -1</clus>
</clustering>
</event>
<event>
10    4  0.2977685E-005  0.1231208E+03  0.7546771E-02  0.1240717E+00
          2   -1    0    0  503    0 -0.00000000000E+00  0.00000000000E+00  0.51635426933E+03  0.51635426933E+03  0.00000000000E+00 0. -1.
         21   -1    0    0  501  502  0.00000000000E+00 -0.00000000000E+00 -0.81014084162E+02  0.81014084162E+02  0.00000000000E+00 0.  1.
         24    2    1    2    0    0  0.59836005241E+02 -0.99130499794E+02  0.20727754890E+03  0.25111946177E+03  0.81791187116E+02 0.  0.
         23    2    1    2    0    0 -0.12933494837E+02  0.53926424739E+02  0.97688058200E+02  0.14447710476E+03  0.90858915413E+02 0.  0.
        -11    1    3    3    0    0 -0.19080763465E+02 -0.26959591787E+02  0.67276977207E+02  0.74947226672E+02  0.00000000000E+00 0.  1.
         12    1    3    3    0    0  0.78916768706E+02 -0.72170908006E+02  0.14000057169E+03  0.17617223510E+03  0.00000000000E+00 0. -1.
        -13    1    4    4    0    0  0.35919247799E+02  0.10450671336E+02  0.18369435849E+02  0.41675473209E+02  0.00000000000E+00 0.  1.
         13    1    4    4    0    0 -0.48852742636E+02  0.43475753403E+02  0.79318622351E+02  0.10280163155E+03  0.00000000000E+00 0. -1.
         21    1    1    2  503  502 -0.34966907629E+02  0.15650828376E+02  0.15615029127E+03  0.16078105150E+03  0.00000000000E+00 0. -1.
          1    1    1    2  501    0 -0.11935602775E+02  0.29553246678E+02 -0.25775713201E+02  0.40990735463E+02  0.00000000000E+00 0. -1.
<scales pt_clust_5="13000.00000" pt_clust_6="13000.00000" pt_clust_7="13000.00000" pt_clust_8="13000.00000" pt_clust_9="39.44081" pt_clust_10="31.87245"></scales>
<clustering>
<clus scale="   31.872">  2 10  1 -1</clus>
<clus scale="   39.441">  1  9  2 -1</clus>
<clus scale="   81.791">  5  6 -1 -1</clus>
<clus scale="   90.859">  7  8 -1 -1</clus>
<clus scale="  116.590">  1  5  2 -1</clus>
<clus scale="   31.872">  2  5  1 -1</clus>
</clustering>
</event>
<event>
10    4  0.2977685E-005  0.5022030E+03  0.7546771E-02  0.1013205E+00
          4   -1    0    0  503    0 -0.00000000000E+00  0.00000000000E+00  0.49480950551E+03  0.49480950551E+03  0.00000000000E+00 0. -1.
         21   -1    0    0  501  502  0.00000000000E+00 -0.00000000000E+00 -0.87840197891E+03  0.87840197891E+03  0.00000000000E+00 0. -1.
         24    2    1    2    0    0 -0.15385617817E+03 -0.28649626017E+03  0.14731198320E+03  0.36601942879E+03  0.80731475931E+02 0.  0.
         23    2    1    2    0    0 -0.75876057902E+02 -0.87741115837E+02  0.66526874283E+02  0.16195420484E+03  0.91365529012E+02 0.  0.
        -13    1    3    3    0    0 -0.11336612998E+03 -0.14961310384E+03  0.11337732797E+03  0.21929518637E+03  0.00000000000E+00 0.  1.
         14    1    3    3    0    0 -0.40490048192E+02 -0.13688315633E+03  0.33934655237E+02  0.14672424243E+03  0.00000000000E+00 0. -1.
        -13    1    4    4    0    0  0.17866874002E+02 -0.35869325703E+02  0.23825309191E+02  0.46620586343E+02  0.00000000000E+00 0.  1.
         13    1    4    4    0    0 -0.93742931904E+02 -0.51871790135E+02  0.42701565093E+02  0.11533361849E+03  0.00000000000E+00 0. -1.
         21    1    1    2  503  502 -0.15231179967E+02 -0.20735062568E+02  0.45284875193E+02  0.52083121874E+02  0.00000000000E+00 0.  1.
          3    1    1    2  501    0  0.24496341604E+03  0.39497243858E+03 -0.64271620608E+03  0.79315472891E+03  0.00000000000E+00 0. -1.
<scales pt_clust_5="13000.00000" pt_clust_6="13000.00000" pt_clust_7="13000.00000" pt_clust_8="13000.00000" pt_clust_9="25.72803" pt_clust_10="460.44465"></scales>
<clustering>
<clus scale="   25.728">  1  9  2 -1</clus>
<clus scale="   80.731">  5  6 -1 -1</clus>
<clus scale="   91.366">  7  8 -1 -1</clus>
<clus scale="   96.617">  5  7 -1 -1</clus>
<clus scale="  460.445">  2 10  1 -1</clus>
<clus scale="  460.445">  2  5  1 -1</clus>
</clustering>
</event>
<event>
10    4  0.2977685E-005  0.3046990E+03  0.7546771E-02  0.1083195E+00
         21   -1    0    0  501  502  0.00000000000E+00  0.00000000000E+00  0.43915208553E+03  0.43915208553E+03  0.00000000000E+00 0. -1.
          2   -1    0    0  503    0 -0.00000000000E+00 -0.00000000000E+00 -0.40427390493E+03  0.40427390493E+03  0.00000000000E+00 0. -1.
         24    2    1    2    0    0  0.22068127646E+03 -0.29576436562E+03 -0.87448823424E+02  0.38852227452E+03  0.84412530648E+02 0.  0.
         23    2    1    2    0    0 -0.91839670589E+02  0.20077215914E+03  0.35121334378E+02  0.24183715442E+03  0.92237281770E+02 0.  0.
        -11    1    3    3    0    0  0.62570727598E+01 -0.46653425884E+02 -0.27187313971E+02  0.54358468955E+02  0.00000000000E+00 0.  1.
         12    1    3    3    0    0  0.21442420370E+03 -0.24911093974E+03 -0.60261509452E+02  0.33416380557E+03  0.00000000000E+00 0. -1.
        -13    1    4    4    0    0 -0.31871591298E+02  0.24614291364E+01  0.73946587482E+01  0.32810637654E+02  0.00000000000E+00 0. -1.
         13    1    4    4    0    0 -0.59968079291E+02  0.19831073001E+03  0.27726675630E+02  0.20902651677E+03  0.00000000000E+00 0.  1.
         21    1    1    2  503  502 -0.45514413601E+02 -0.33060580979E+01 -0.15590638024E+02  0.48224058929E+02  0.00000000000E+00 0.  1.
          1    1    1    2  501    0 -0.83327192270E+02  0.98298264576E+02  0.10279630766E+03  0.16484250259E+03  0.00000000000E+00 0. -1.
<scales pt_clust_5="13000.00000" pt_clust_6="13000.00000" pt_clust_7="13000.00000" pt_clust_8="13000.00000" pt_clust_9="45.63433" pt_clust_10="131.14199"></scales>
<clustering>
<clus scale="   45.634">  2  9  1 -1</clus>
<clus scale="   84.413">  5  6 -1 -1</clus>
<clus scale="   92.237">  7  8 -1 -1</clus>
<clus scale="  131.142">  1 10  2 -1</clus>
<clus scale="  302.422">  2  5  1 -1</clus>
<clus scale="  131.142">  1  5  2 -1</clus>
</clustering>
</event>
<event>
10    4  0.2977685E-005  0.1282774E+03  0.7546771E-02  0.1234276E+00
          2   -1    0    0  503    0 -0.00000000000E+00  0.00000000000E+00  0.17795917904E+03  0.17795917904E+03  0.00000000000E+00 0. -1.
         21   -1    0    0  501  502  0.00000000000E+00 -0.00000000000E+00 -0.31317320210E+03  0.31317320210E+03  0.00000000000E+00 0.  1.
         23    2    1    2    0    0 -0.21561106430E+02  0.88078175203E+02  0.10956745141E+03  0.17175960785E+03  0.96300001156E+02 0.  0.
         24    2    1    2    0    0  0.40385412431E+02 -0.49002873603E+02 -0.12096435691E+03  0.15906952819E+03  0.81476843317E+02 0.  0.
        -13    1    4    4    0    0  0.64878924091E+02 -0.26658342165E+02 -0.81608065904E+02  0.10760956472E+03  0.00000000000E+00 0.  1.
         14    1    4    4    0    0 -0.24493511660E+02 -0.22344531438E+02 -0.39356291002E+02  0.51459963467E+02  0.00000000000E+00 0. -1.
        -11    1    3    3    0    0  0.22963271915E+02  0.29148604254E+02 -0.28867345451E+01  0.37219433410E+02  0.00000000000E+00 0.  1.
         11    1    3    3    0    0 -0.44524378345E+02  0.58929570949E+02  0.11245418596E+03  0.13454017444E+03  0.00000000000E+00 0. -1.
         21    1    1    2  503  502 -0.33848889039E+02 -0.83417446678E+01 -0.32914258265E+01  0.35016645717E+02  0.00000000000E+00 0. -1.
          1    1    1    2  501    0  0.15024583037E+02 -0.30733556933E+02 -0.12052569174E+03  0.12528659939E+03  0.00000000000E+00 0. -1.
<scales pt_clust_5="13000.00000" pt_clust_6="13000.00000" pt_clust_7="13000.00000" pt_clust_8="13000.00000" pt_clust_9="34.29892" pt_clust_10="34.20950"></scales>
<clustering>
<clus scale="   34.209">  2 10  1 -1</clus>
<clus scale="   34.299">  2  9  1 -1</clus>
<clus scale="   81.477">  5  6 -1 -1</clus>
<clus scale="   96.300">  7  8 -1 -1</clus>
<clus scale="  117.558">  2  5  1 -1</clus>
<clus scale="   34.209">  2  5  1 -1</clus>
</clustering>
</event>
<event>
10    4  0.2977685E-005  0.1026501E+03  0.7546771E-02  0.1280207E+00
         -1   -1    0    0    0  501 -0.00000000000E+00  0.00000000000E+00  0.48414568494E+03  0.48414568494E+03  0.00000000000E+00 0.  1.
         21   -1    0    0  503  502  0.00000000000E+00 -0.00000000000E+00 -0.81070390821E+02  0.81070390821E+02  0.00000000000E+00 0.  1.
         24    2    1    2    0    0 -0.26033703265E+02  0.15309504746E+02  0.20187628228E+03  0.21975263641E+03  0.81394429934E+02 0.  0.
         23    2    1    2    0    0 -0.15214613110E+02 -0.44049957454E+02 -0.20504097499E+02  0.10572559010E+03  0.92658508425E+02 0.  0.
        -11    1    3    3    0    0 -0.54677230318E+02  0.18209626569E+02  0.14421820673E+03  0.15530641058E+03  0.00000000000E+00 0.  1.
         12    1    3    3    0    0  0.28643527052E+02 -0.29001218235E+01  0.57658075548E+02  0.64446225836E+02  0.00000000000E+00 0. -1.
        -11    1    4    4    0    0 -0.52986505733E+02 -0.31882284154E+02 -0.18249408808E+01  0.61865824506E+02  0.00000000000E+00 0.  1.
         11    1    4    4    0    0  0.37771892623E+02 -0.12167673301E+02 -0.18679156618E+02  0.43859765592E+02  0.00000000000E+00 0. -1.
         21    1    1    2  503  501 -0.76495827054E+01  0.37193459935E+02  0.13045907105E+03  0.13587287735E+03  0.00000000000E+00 0.  1.
         -2    1    1    2    0  502  0.48897899081E+02 -0.84530072265E+01  0.91244038286E+02  0.10386497190E+03  0.00000000000E+00 0.  1.
<scales pt_clust_5="13000.00000" pt_clust_6="13000.00000" pt_clust_7="13000.00000" pt_clust_8="13000.00000" pt_clust_9="37.97196" pt_clust_10="46.80969"></scales>
<clustering>
<clus scale="   37.972">  1  9  2 -1</clus>
<clus scale="   46.810">  2 10  1 -1</clus>
<clus scale="   81.394">  5  6 -1 -1</clus>
<clus scale="   92.609">  1  5  2 -1</clus>
<clus scale="   92.659">  7  8 -1 -1</clus>
<clus scale="   46.810">  2  5  1 -1</clus>
</clustering>
</event>
<event>
10    4  0.2977685E-005  0.1317562E+03  0.7546771E-02  0.1226998E+00
         21   -1    0    0  501  502  0.00000000000E+00  0.00000000000E+00  0.22484822543E+02  0.22484822543E+02  0.00000000000E+00 0.  1.
          2   -1    0    0  503    0 -0.00000000000E+00 -0.00000000000E+00 -0.13954230927E+04  0.13954230927E+04  0.00000000000E+00 0. -1.
         24    2    1    2    0    0  0.96596412550E+02  0.19749190166E+02 -0.64106359885E+03  0.65357366146E+03  0.80467979682E+02 0.  0.
         23    2    1    2    0    0 -0.95674757729E+02 -0.31705439819E+02 -0.49552666916E+03  0.51346718763E+03  0.89123390554E+02 0.  0.
        -13    1    3    3    0    0  0.77929761939E+02 -0.13820439196E+02 -0.29671054487E+03  0.30708500415E+03  0.00000000000E+00 0.  1.
         14    1    3    3    0    0  0.18666650610E+02  0.33569629362E+02 -0.34435305398E+03  0.34648865731E+03  0.00000000000E+00 0. -1.
        -11    1    4    4    0    0 -0.65194930819E+01  0.25736932503E+02 -0.13845711690E+03  0.14097966770E+03  0.00000000000E+00 0. -1.
         11    1    4    4    0    0 -0.89155264647E+02 -0.57442372323E+02 -0.35706955226E+03  0.37248751993E+03  0.00000000000E+00 0.  1.
         21    1    1    2  503  502 -0.21080644294E+02  0.24873252702E+02 -0.21871596252E+03  0.22113286623E+03  0.00000000000E+00 0. -1.
          1    1    1    2  501    0  0.20158989474E+02 -0.12917003048E+02 -0.17632039643E+02  0.29734199944E+02  0.00000000000E+00 0. -1.
<scales pt_clust_5="13000.00000" pt_clust_6="13000.00000" pt_clust_7="13000.00000" pt_clust_8="13000.00000" pt_clust_9="30.92606" pt_clust_10="23.94230"></scales>
<clustering>
<clus scale="   23.942">  1 10  2 -1</clus>
<clus scale="   30.926">  2  9  1 -1</clus>
<clus scale="   80.468">  5  6 -1 -1</clus>
<clus scale="   89.123">  7  8 -1 -1</clus>
<clus scale="  126.063">  2  5  1 -1</clus>
<clus scale="   23.942">  1  5  2 -1</clus>
</clustering>
</event>
<event>
10    4  0.2977685E-005  0.9073764E+02  0.7546771E-02  0.1305524E+00
         21   -1    0    0  503  502  0.00000000000E+00  0.00000000000E+00  0.95892602286E+02  0.95892602286E+02  0.00000000000E+00 0. -1.
         -3   -1    0    0    0  501 -0.00000000000E+00 -0.00000000000E+00 -0.29627451921E+03  0.29627451921E+03  0.00000000000E+00 0.  1.
         23    2    1    2    0    0 -0.25617438469E+00  0.28820366763E+02 -0.19949556243E+03  0.21998971777E+03  0.88126711774E+02 0.  0.
         24    2    1    2    0    0 -0.15300357362E+02  0.10186610147E+02  0.29748139071E+02  0.88031769634E+02  0.80788444255E+02 0.  0.
        -13    1    4    4    0    0 -0.36529278790E+02 -0.11344257382E+02 -0.85920274538E+01  0.39203358533E+02  0.00000000000E+00 0.  1.
         14    1    4    4    0    0  0.21228921428E+02  0.21530867529E+02  0.38340166525E+02  0.48828411102E+02  0.00000000000E+00 0. -1.
        -11    1    3    3    0    0  0.38544652939E+02  0.13718553031E+02 -0.48969703872E+02  0.63811604467E+02  0.00000000000E+00 0. -1.
         11    1    3    3    0    0 -0.38800827323E+02  0.15101813732E+02 -0.15052585856E+03  0.15617811330E+03  0.00000000000E+00 0.  1.
         21    1    1    2  503  501  0.20052427493E+02 -0.10970824709E+02 -0.46359224278E+02  0.51687875937E+02  0.00000000000E+00 0. -1.
         -4    1    1    2    0  502 -0.44958957460E+01 -0.28036152200E+02  0.15724730712E+02  0.32457758159E+02  0.00000000000E+00 0.  1.
<scales pt_clust_5="13000.00000" pt_clust_6="13000.00000" pt_clust_7="13000.00000" pt_clust_8="13000.00000" pt_clust_9="22.85736" pt_clust_10="28.66272"></scales>
<clustering>
<clus scale="   22.857">  2  9  1 -1</clus>
<clus scale="   28.663">  1 10  2 -1</clus>
<clus scale="   80.788">  5  6 -1 -1</clus>
<clus scale="   83.629">  1  5  2 -1</clus>
<clus scale="   88.127">  7  8 -1 -1</clus>
<clus scale="   28.663">  1  5  2 -1</clus>
</clustering>
</event>
<event>
10    4  0.2977685E-005  0.1583749E+03  0.7546771E-02  0.1191790E+00
          2   -1    0    0  503    0 -0.00000000000E+00  0.00000000000E+00  0.12009547248E+04  0.12009547248E+04  0.00000000000E+00 0. -1.
         21   -1    0    0  501  502  0.00000000000E+00 -0.00000000000E+00 -0.12784931225E+03  0.12784931225E+03  0.00000000000E+00 0. -1.
         24    2    1    2    0    0  0.11322465657E+03 -0.91257999593E+02  0.94597517694E+03  0.96043702002E+03  0.80139807138E+02 0.  0.
         23    2    1    2    0    0 -0.49544656424E+02  0.95618903349E+02  0.51095065442E+02  0.14822965843E+03  0.88111737406E+02 0.  0.
        -11    1    3    3    0    0  0.89610458126E+02 -0.33301747093E+02  0.41947922917E+03  0.43023466186E+03  0.00000000000E+00 0.  1.
         12    1    3    3    0    0  0.23614198443E+02 -0.57956252499E+02  0.52649594778E+03  0.53020235816E+03  0.00000000000E+00 0. -1.
        -13    1    4    4    0    0 -0.25161264554E+02  0.69891218377E+02 -0.12592607372E+02  0.75342188716E+02  0.00000000000E+00 0.  1.
         13    1    4    4    0    0 -0.24383391870E+02  0.25727684972E+02  0.63687672815E+02  0.72887469717E+02  0.00000000000E+00 0. -1.
         21    1    1    2  503  502 -0.30495440751E+02 -0.15934285796E+02  0.14161443119E+03  0.14573441766E+03  0.00000000000E+00 0.  1.
          1    1    1    2  501    0 -0.33184559393E+02  0.11573382040E+02 -0.65579260985E+02  0.74402940972E+02  0.00000000000E+00 0. -1.
<scales pt_clust_5="13000.00000" pt_clust_6="13000.00000" pt_clust_7="13000.00000" pt_clust_8="13000.00000" pt_clust_9="34.40746" pt_clust_10="35.24323"></scales>
<clustering>
<clus scale="   34.407">  1  9  2 -1</clus>
<clus scale="   35.243">  2 10  1 -1</clus>
<clus scale="   80.140">  5  6 -1 -1</clus>
<clus scale="   88.112">  7  8 -1 -1</clus>
<clus scale="  154.082">  1  5  2 -1</clus>
<clus scale="   35.243">  2  5  1 -1</clus>
</clustering>
</event>
<event>
10    4  0.2977685E-005  0.1289202E+03  0.7546771E-02  0.1231700E+00
         21   -1    0    0  501  502  0.00000000000E+00  0.00000000000E+00  0.22229892325E+03  0.22229892325E+03  0.00000000000E+00 0. -1.
          2   -1    0    0  503    0 -0.00000000000E+00 -0.00000000000E+00 -0.35348802693E+03  0.35348802693E+03  0.00000000000E+00 0. -1.
         23    2    1    2    0    0  0.62629522683E+02  0.19475791090E+02 -0.20549407753E+03  0.23379877502E+03  0.90179197988E+02 0.  0.
         24    2    1    2    0    0 -0.60430185202E+02 -0.36016194244E+02  0.17454921571E+03  0.20454178313E+03  0.80130760696E+02 0.  0.
        -13    1    4    4    0    0 -0.40727098782E+02 -0.51839751844E+02  0.66737553530E+02  0.93808088658E+02  0.00000000000E+00 0.  1.
         14    1    4    4    0    0 -0.19703086419E+02  0.15823557600E+02  0.10781166218E+03  0.11073369447E+03  0.00000000000E+00 0. -1.
        -13    1    3    3    0    0  0.45431473399E+02 -0.13103665144E+02 -0.18640164894E+03  0.19230522495E+03  0.00000000000E+00 0. -1.
         13    1    3    3    0    0  0.17198049284E+02  0.32579456234E+02 -0.19092428588E+02  0.41493550066E+02  0.00000000000E+00 0.  1.
         21    1    1    2  503  502  0.25775660441E+02  0.25495042029E+02 -0.10176877928E+03  0.10803363493E+03  0.00000000000E+00 0. -1.
          1    1    1    2  501    0 -0.27974997922E+02 -0.89546388747E+01  0.15245374306E+01  0.29412757104E+02  0.00000000000E+00 0. -1.
<scales pt_clust_5="13000.00000" pt_clust_6="13000.00000" pt_clust_7="13000.00000" pt_clust_8="13000.00000" pt_clust_9="35.85838" pt_clust_10="29.37322"></scales>
<clustering>
<clus scale="   29.373">  1 10  2 -1</clus>
<clus scale="   35.858">  2  9  1 -1</clus>
<clus scale="   80.131">  5  6 -1 -1</clus>
<clus scale="   90.179">  7  8 -1 -1</clus>
<clus scale="  122.103">  1  5  2 -1</clus>
<clus scale="   29.373">  1  5  2 -1</clus>
</clustering>
</event>
<event>
10    4  0.2977685E-005  0.1749655E+03  0.7546771E-02  0.1179669E+00
         -1   -1    0    0    0  501 -0.00000000000E+00  0.00000000000E+00  0.10845882385E+04  0.10845882385E+04  0.00000000000E+00 0.  1.
         21   -1    0    0  503  502  0.00000000000E+00 -0.00000000000E+00 -0.66849042868E+02  0.66849042868E+02  0.00000000000E+00 0.  1.
         24    2    1    2    0    0 -0.99216382111E+01  0.18212055789E+03  0.52681857602E+03  0.56325784769E+03  0.80344597995E+02 0.  0.
         23    2    1    2    0    0  0.71231396828E+02 -0.47722650752E+02  0.22246817654E+03  0.26741726016E+03  0.12111374062E+03 0.  0.
        -11    1    3    3    0    0 -0.13042786972E+02  0.11878758341E+03  0.43877240113E+03  0.45475468580E+03  0.00000000000E+00 0.  1.
         12    1    3    3    0    0  0.31211487614E+01  0.63332974479E+02  0.88046174896E+02  0.10850316189E+03  0.00000000000E+00 0. -1.
        -13    1    4    4    0    0 -0.23999592948E+02 -0.24573920553E+02  0.12329151595E+03  0.12798693659E+03  0.00000000000E+00 0. -1.
         13    1    4    4    0    0  0.95230989776E+02 -0.23148730199E+02  0.99176660592E+02  0.13943032357E+03  0.00000000000E+00 0.  1.
         21    1    1    2  503  501 -0.22090818175E+02 -0.27322797876E+02  0.15852670475E+03  0.16237381454E+03  0.00000000000E+00 0. -1.
         -2    1    1    2    0  502 -0.39218940442E+02 -0.10707510926E+03  0.10992573829E+03  0.15838835895E+03  0.00000000000E+00 0.  1.
<scales pt_clust_5="13000.00000" pt_clust_6="13000.00000" pt_clust_7="13000.00000" pt_clust_8="13000.00000" pt_clust_9="35.13601" pt_clust_10="118.87044"></scales>
<clustering>
<clus scale="   35.136">  1  9  2 -1</clus>
<clus scale="   80.345">  5  6 -1 -1</clus>
<clus scale="  118.870">  2 10  1 -1</clus>
<clus scale="  121.114">  7  8 -1 -1</clus>
<clus scale="  149.665">  1  5  2 -1</clus>
<clus scale="  118.870">  2  5  1 -1</clus>
</clustering>
</event>
<event>
10    4  0.2977685E-005  0.3753911E+03  0.7546771E-02  0.1092133E+00
          2   -1    0    0  503    0 -0.00000000000E+00  0.00000000000E+00  0.67463311941E+03  0.67463311941E+03  0.00000000000E+00 0. -1.
         21   -1    0    0  501  502  0.00000000000E+00 -0.00000000000E+00 -0.46285366101E+03  0.46285366101E+03  0.00000000000E+00 0. -1.
         24    2    1    2    0    0 -0.10031165084E+03 -0.66614022353E+01 -0.50406901790E+02  0.13683596990E+03  0.77951429344E+02 0.  0.
         23    2    1    2    0    0  0.41096420242E+03 -0.19039825599E+03  0.31194840490E+03  0.55719278624E+03  0.89492581603E+02 0.  0.
        -13    1    3    3    0    0 -0.35216477393E+02  0.92170574897E+01  0.18405304700E+02  0.40791048894E+02  0.00000000000E+00 0.  1.
         14    1    3    3    0    0 -0.65095173451E+02 -0.15878459725E+02 -0.68812206491E+02  0.96044921011E+02  0.00000000000E+00 0. -1.
        -11    1    4    4    0    0  0.60496952946E+02 -0.66647499661E+02  0.60706420333E+02  0.10856813527E+03  0.00000000000E+00 0.  1.
         11    1    4    4    0    0  0.35046724947E+03 -0.12375075633E+03  0.25124198457E+03  0.44862465096E+03  0.00000000000E+00 0. -1.
         21    1    1    2  503  502 -0.81841579434E+01  0.41302738532E+02  0.70914680425E+02  0.82472956484E+02  0.00000000000E+00 0.  1.
          1    1    1    2  501    0 -0.30246839363E+03  0.15575691969E+03 -0.12067672514E+03  0.36098506779E+03  0.00000000000E+00 0. -1.
<scales pt_clust_5="13000.00000" pt_clust_6="13000.00000" pt_clust_7="13000.00000" pt_clust_8="13000.00000" pt_clust_9="42.10578" pt_clust_10="364.56761"></scales>
<clustering>
<clus scale="   42.106">  1  9  2 -1</clus>
<clus scale="   77.951">  5  6 -1 -1</clus>
<clus scale="   89.493">  7  8 -1 -1</clus>
<clus scale="  127.559">  1  5  2 -1</clus>
<clus scale="  364.568">  2 10  1 -1</clus>
<clus scale="  364.568">  2  5  1 -1</clus>
</clustering>
</event>
<event>
10    4  0.2977685E-005  0.3652082E+03  0.7546771E-02  0.1057007E+00
         21   -1    0    0  501  502  0.00000000000E+00  0.00000000000E+00  0.15190080768E+03  0.15190080768E+03  0.00000000000E+00 0. -1.
          2   -1    0    0  503    0 -0.00000000000E+00 -0.00000000000E+00 -0.19369447562E+04  0.19369447562E+04  0.00000000000E+00 0. -1.
         24    2    1    2    0    0  0.45072234643E+01 -0.39165396546E+03 -0.10259892721E+04  0.11009867982E+04  0.78133216664E+02 0.  0.
         23    2    1    2    0    0  0.57954980107E+01  0.23295034482E+03 -0.86789029450E+02  0.26720513577E+03  0.97810009700E+02 0.  0.
        -11    1    3    3    0    0  0.34334452005E+02 -0.17038578676E+03 -0.39108592082E+03  0.42797005548E+03  0.00000000000E+00 0.  1.
         12    1    3    3    0    0 -0.29827228541E+02 -0.22126817871E+03 -0.63490335129E+03  0.67301674270E+03  0.00000000000E+00 0. -1.
        -13    1    4    4    0    0  0.50766815649E+02  0.11475717603E+03 -0.32785446971E+02  0.12969720334E+03  0.00000000000E+00 0.  1.
         13    1    4    4    0    0 -0.44971317639E+02  0.11819316879E+03 -0.54003582479E+02  0.13750793242E+03  0.00000000000E+00 0. -1.
         21    1    1    2  503  502 -0.46056573884E+02 -0.27692709307E+02 -0.27721879969E+03  0.28237980992E+03  0.00000000000E+00 0.  1.
          1    1    1    2  501    0  0.35753852409E+02  0.18639632995E+03 -0.39504684725E+03  0.43827382001E+03  0.00000000000E+00 0. -1.
<scales pt_clust_5="13000.00000" pt_clust_6="13000.00000" pt_clust_7="13000.00000" pt_clust_8="13000.00000" pt_clust_9="53.74099" pt_clust_10="181.05462"></scales>
<clustering>
<clus scale="   53.741">  2  9  1 -1</clus>
<clus scale="   78.133">  5  6 -1 -1</clus>
<clus scale="   97.810">  7  8 -1 -1</clus>
<clus scale="  181.055">  1 10  2 -1</clus>
<clus scale="  360.437">  2  5  1 -1</clus>
<clus scale="  181.055">  1  5  2 -1</clus>
</clustering>
</event>
<event>
10    4  0.2977685E-005  0.2296788E+03  0.7546771E-02  0.1127394E+00
         21   -1    0    0  501  502  0.00000000000E+00  0.00000000000E+00  0.79798768267E+02  0.79798768267E+02  0.00000000000E+00 0. -1.
          2   -1    0    0  503    0 -0.00000000000E+00 -0.00000000000E+00 -0.10745108061E+04  0.10745108061E+04  0.00000000000E+00 0. -1.
         23    2    1    2    0    0  0.76926942658E+02  0.18116913250E+03 -0.40950244368E+03  0.46324653776E+03  0.90360911303E+02 0.  0.
         24    2    1    2    0    0 -0.21092115736E+02 -0.22701162534E+03 -0.28119879556E+03  0.37129524014E+03  0.82512043582E+02 0.  0.
        -11    1    4    4    0    0 -0.22624012208E+02 -0.82300704752E+02 -0.51133459314E+02  0.99498153714E+02  0.00000000000E+00 0.  1.
         12    1    4    4    0    0  0.15318964715E+01 -0.14471092058E+03 -0.23006533625E+03  0.27179708642E+03  0.00000000000E+00 0. -1.
        -13    1    3    3    0    0 -0.16312150624E+02  0.35854418891E+02 -0.11854456256E+03  0.12491772862E+03  0.00000000000E+00 0.  1.
         13    1    3    3    0    0  0.93239093282E+02  0.14531471361E+03 -0.29095788112E+03  0.33832880914E+03  0.00000000000E+00 0. -1.
         21    1    1    2  503  502 -0.11425937529E+02  0.30812915085E+02 -0.22875023115E+03  0.23109880146E+03  0.00000000000E+00 0. -1.
          1    1    1    2  501    0 -0.44408889393E+02  0.15029577747E+02 -0.75260567434E+02  0.88668995003E+02  0.00000000000E+00 0. -1.
<scales pt_clust_5="13000.00000" pt_clust_6="13000.00000" pt_clust_7="13000.00000" pt_clust_8="13000.00000" pt_clust_9="32.86317" pt_clust_10="48.95492"></scales>
<clustering>
<clus scale="   32.863">  2  9  1 -1</clus>
<clus scale="   48.955">  1 10  2 -1</clus>
<clus scale="   82.512">  5  6 -1 -1</clus>
<clus scale="   90.361">  7  8 -1 -1</clus>
<clus scale="  226.706">  1  5  2 -1</clus>
<clus scale="   48.955">  1  5  2 -1</clus>
</clustering>
</event>
<event>
10    4  0.2977685E-005  0.1164480E+03  0.7546771E-02  0.1252031E+00
         21   -1    0    0  501  502  0.00000000000E+00  0.00000000000E+00  0.55561916825E+02  0.55561916825E+02  0.00000000000E+00 0.  1.
          2   -1    0    0  503    0 -0.00000000000E+00 -0.00000000000E+00 -0.54455641225E+03  0.54455641225E+03  0.00000000000E+00 0. -1.
         23    2    1    2    0    0 -0.45280059290E+02 -0.42971784221E+02 -0.16860582203E+03  0.20077911740E+03  0.89372662226E+02 0.  0.
         24    2    1    2    0    0  0.75633047159E+02  0.36807792535E+02 -0.71300666420E+02  0.13651602568E+03  0.80483966236E+02 0.  0.
        -11    1    4    4    0    0  0.17255286290E+02  0.12855836101E+02  0.17391744480E+02  0.27667493614E+02  0.00000000000E+00 0.  1.
         12    1    4    4    0    0  0.58377760868E+02  0.23951956434E+02 -0.88692410901E+02  0.10884853206E+03  0.00000000000E+00 0. -1.
        -11    1    3    3    0    0 -0.17476161131E+01 -0.51479732303E+02 -0.13686265798E+03  0.14623475698E+03  0.00000000000E+00 0.  1.
         11    1    3    3    0    0 -0.43532443177E+02  0.85079480819E+01 -0.31743164047E+02  0.54544360417E+02  0.00000000000E+00 0. -1.
         21    1    1    2  503  502 -0.81543570687E+01 -0.27230099363E+02 -0.18537598575E+03  0.18754260301E+03  0.00000000000E+00 0. -1.
          1    1    1    2  501    0 -0.22198630799E+02  0.33394091049E+02 -0.63712021226E+02  0.75280582988E+02  0.00000000000E+00 0. -1.
<scales pt_clust_5="13000.00000" pt_clust_6="13000.00000" pt_clust_7="13000.00000" pt_clust_8="13000.00000" pt_clust_9="28.42485" pt_clust_10="36.81969"></scales>
<clustering>
<clus scale="   28.425">  2  9  1 -1</clus>
<clus scale="   36.820">  1 10  2 -1</clus>
<clus scale="   80.484">  5  6 -1 -1</clus>
<clus scale="   89.373">  7  8 -1 -1</clus>
<clus scale="  109.774">  1  5  2 -1</clus>
<clus scale="   36.820">  1  5  2 -1</clus>
</clustering>
</event>
<event>
10    4  0.2977685E-005  0.9517136E+02  0.7546771E-02  0.1299073E+00
         -1   -1    0    0    0  501 -0.00000000000E+00  0.00000000000E+00  0.23223637608E+03  0.23223637608E+03  0.00000000000E+00 0.  1.
         21   -1    0    0  503  502  0.00000000000E+00 -0.00000000000E+00 -0.13951958847E+03  0.13951958847E+03  0.00000000000E+00 0.  1.
         24    2    1    2    0    0  0.24200479439E+02 -0.37642637808E+02  0.98148422712E+02  0.13229725872E+03  0.76595172149E+02 0.  0.
         23    2    1    2    0    0  0.34533759999E+02  0.45324997603E+02 -0.75727325133E+02  0.13133261223E+03  0.90921346650E+02 0.  0.
        -13    1    3    3    0    0  0.37088451648E+02 -0.28329654708E+02  0.17101013056E+02  0.49704800865E+02  0.00000000000E+00 0.  1.
         14    1    3    3    0    0 -0.12887972209E+02 -0.93129831004E+01  0.81047409655E+02  0.82592457850E+02  0.00000000000E+00 0. -1.
        -13    1    4    4    0    0 -0.16368942370E+02  0.43171690894E+02 -0.64230939450E+02  0.79103418078E+02  0.00000000000E+00 0.  1.
         13    1    4    4    0    0  0.50902702369E+02  0.21533067089E+01 -0.11496385683E+02  0.52229194155E+02  0.00000000000E+00 0. -1.
         21    1    1    2  503  501 -0.39230423078E+02  0.22347632702E+02  0.48232722584E+02  0.66066922965E+02  0.00000000000E+00 0.  1.
         -2    1    1    2    0  502 -0.19503816360E+02 -0.30029992497E+02  0.22062967447E+02  0.42059170636E+02  0.00000000000E+00 0.  1.
<scales pt_clust_5="13000.00000" pt_clust_6="13000.00000" pt_clust_7="13000.00000" pt_clust_8="13000.00000" pt_clust_9="45.35934" pt_clust_10="35.80783"></scales>
<clustering>
<clus scale="   35.808">  2 10  1 -1</clus>
<clus scale="   45.359">  1  9  2 -1</clus>
<clus scale="   76.595">  5  6 -1 -1</clus>
<clus scale="   81.595">  1  5  2 -1</clus>
<clus scale="   90.921">  7  8 -1 -1</clus>
<clus scale="   35.808">  2  5  1 -1</clus>
</clustering>
</event>
<event>
10    4  0.3449852E-005  0.9321626E+02  0.7546771E-02  0.1300131E+00
         -1   -1    0    0    0  501 -0.00000000000E+00  0.00000000000E+00  0.20178382606E+03  0.20178382606E+03  0.00000000000E+00 0.  1.
         21   -1    0    0  503  502  0.00000000000E+00 -0.00000000000E+00 -0.38428425275E+03  0.38428425275E+03  0.00000000000E+00 0. -1.
         23    2    1    2    0    0 -0.54941460878E+01  0.28582136470E+02  0.87501133572E+02  0.12791428366E+03  0.88648132646E+02 0.  0.
         24    2    1    2    0    0  0.60080756356E+02  0.71208192149E+01 -0.10301302641E+03  0.14385105452E+03  0.80131385406E+02 0.  0.
        -11    1    4    4    0    0  0.24553350891E+02  0.23287269518E+02 -0.16003172067E+00  0.33840649694E+02  0.00000000000E+00 0.  1.
         12    1    4    4    0    0  0.35527405465E+02 -0.16166450303E+02 -0.10285299469E+03  0.11001040483E+03  0.00000000000E+00 0. -1.
        -13    1    3    3    0    0 -0.37614899622E+02 -0.13697189765E+02  0.41521087417E+02  0.57675769447E+02  0.00000000000E+00 0. -1.
         13    1    3    3    0    0  0.32120753534E+02  0.42279326235E+02  0.45980046154E+02  0.70238514213E+02  0.00000000000E+00 0.  1.
         21    1    1    2  503  501 -0.18254164371E+02 -0.17025863646E+02  0.69741298493E+02  0.74073904077E+02  0.00000000000E+00 0. -1.
         -2    1    1    2    0  502 -0.36332445898E+02 -0.18677092039E+02 -0.23672983234E+03  0.24022883655E+03  0.00000000000E+00 0.  1.
<scales pt_clust_5="13000.00000" pt_clust_6="13000.00000" pt_clust_7="13000.00000" pt_clust_8="13000.00000" pt_clust_9="24.96186" pt_clust_10="41.17558"></scales>
<clustering>
<clus scale="   24.962">  1  9  2 -1</clus>
<clus scale="   41.176">  2 10  1 -1</clus>
<clus scale="   80.131">  5  6 -1 -1</clus>
<clus scale="   85.158">  2  5  1 -1</clus>
<clus scale="   88.648">  7  8 -1 -1</clus>
<clus scale="   41.176">  2  5  1 -1</clus>
</clustering>
</event>
<event>
10    4  0.2977685E-005  0.1884289E+03  0.7546771E-02  0.1163034E+00
          2   -1    0    0  503    0 -0.00000000000E+00  0.00000000000E+00  0.87937038074E+03  0.87937038074E+03  0.00000000000E+00 0. -1.
         21   -1    0    0  501  502  0.00000000000E+00 -0.00000000000E+00 -0.32573362485E+03  0.32573362485E+03  0.00000000000E+00 0. -1.
         23    2    1    2    0    0  0.17325850390E+03 -0.78448298406E+02  0.37718160805E+03  0.43232368572E+03  0.92006299173E+02 0.  0.
         24    2    1    2    0    0  0.33476432990E+02  0.17867319615E+03 -0.36297999972E+02  0.20215805969E+03  0.80657012776E+02 0.  0.
        -11    1    4    4    0    0 -0.23219020359E+02  0.23892585052E+02 -0.12630216702E+02  0.35630056144E+02  0.00000000000E+00 0.  1.
         12    1    4    4    0    0  0.56695453349E+02  0.15478061109E+03 -0.23667783270E+02  0.16652800355E+03  0.00000000000E+00 0. -1.
        -13    1    3    3    0    0  0.48023838446E+02 -0.25751344321E+02  0.36606135423E+02  0.65646248515E+02  0.00000000000E+00 0.  1.
         13    1    3    3    0    0  0.12523466546E+03 -0.52696954085E+02  0.34057547262E+03  0.36667743720E+03  0.00000000000E+00 0. -1.
         21    1    1    2  503  502 -0.57936970512E+02  0.60280987657E+01  0.34186438479E+03  0.34679141875E+03  0.00000000000E+00 0. -1.
          1    1    1    2  501    0 -0.14879796638E+03 -0.10625299650E+03 -0.12911123698E+03  0.22383084144E+03  0.00000000000E+00 0. -1.
<scales pt_clust_5="13000.00000" pt_clust_6="13000.00000" pt_clust_7="13000.00000" pt_clust_8="13000.00000" pt_clust_9="58.24973" pt_clust_10="170.29361"></scales>
<clustering>
<clus scale="   58.250">  1  9  2 -1</clus>
<clus scale="   80.657">  5  6 -1 -1</clus>
<clus scale="   92.006">  7  8 -1 -1</clus>
<clus scale="  175.148">  1  7  2 -1</clus>
<clus scale="  170.294">  2 10  1 -1</clus>
<clus scale="  170.294">  2  5  1 -1</clus>
</clustering>
</event>
<event>
10    4  0.2977685E-005  0.1407847E+03  0.7546771E-02  0.1238874E+00
          2   -1    0    0  503    0 -0.00000000000E+00  0.00000000000E+00  0.11201991425E+03  0.11201991425E+03  0.00000000000E+00 0. -1.
         21   -1    0    0  501  502  0.00000000000E+00 -0.00000000000E+00 -0.35654702697E+03  0.35654702697E+03  0.00000000000E+00 0.  1.
         24    2    1    2    0    0  0.90277095087E+01  0.95693407040E+01 -0.10635819167E+03  0.13430759714E+03  0.80953035113E+02 0.  0.
         23    2    1    2    0    0 -0.67715746868E+02 -0.71590201984E+02 -0.11956699001E+02  0.13604109083E+03  0.93024923264E+02 0.  0.
        -11    1    3    3    0    0 -0.95824787197E+01  0.29952174574E+02 -0.10152875897E+03  0.10628756069E+03  0.00000000000E+00 0.  1.
         12    1    3    3    0    0  0.18610188228E+02 -0.20382833870E+02 -0.48294327040E+01  0.28020036451E+02  0.00000000000E+00 0. -1.
        -13    1    4    4    0    0 -0.82658837076E+02 -0.25478436891E+02 -0.13501817439E+02  0.87543892804E+02  0.00000000000E+00 0. -1.
         13    1    4    4    0    0  0.14943090208E+02 -0.46111765094E+02  0.15451184386E+01  0.48497198022E+02  0.00000000000E+00 0.  1.
         21    1    1    2  503  502 -0.22755798319E+02 -0.24703770788E+02 -0.22909301919E+02  0.40656349599E+02  0.00000000000E+00 0.  1.
          1    1    1    2  501    0  0.81443835679E+02  0.86724632068E+02 -0.10330292013E+03  0.15756190366E+03  0.00000000000E+00 0. -1.
<scales pt_clust_5="13000.00000" pt_clust_6="13000.00000" pt_clust_7="13000.00000" pt_clust_8="13000.00000" pt_clust_9="33.58724" pt_clust_10="105.67256"></scales>
<clustering>
<clus scale="   33.587">  2  9  1 -1</clus>
<clus scale="   80.953">  5  6 -1 -1</clus>
<clus scale="   80.956">  1  5  2 -1</clus>
<clus scale="   93.025">  7  8 -1 -1</clus>
<clus scale="  105.673">  2 10  1 -1</clus>
<clus scale="   33.587">  2  5  1 -1</clus>
</clustering>
</event>
<event>
10    4  0.2977685E-005  0.3004254E+03  0.7546771E-02  0.1085416E+00
         -3   -1    0    0    0  501 -0.00000000000E+00  0.00000000000E+00  0.95240811240E+02  0.95240811240E+02  0.00000000000E+00 0.  1.
         21   -1    0    0  503  502  0.00000000000E+00 -0.00000000000E+00 -0.16484377779E+04  0.16484377779E+04  0.00000000000E+00 0.  1.
         23    2    1    2    0    0 -0.20524289086E+03 -0.23135936811E+03 -0.36635775012E+03  0.48798408087E+03  0.90877173398E+02 0.  0.
         24    2    1    2    0    0  0.20132418500E+03  0.16299082643E+03 -0.94770987888E+03  0.98572997500E+03  0.80075789777E+02 0.  0.
        -11    1    4    4    0    0  0.10515461585E+03  0.47572036110E+02 -0.31647159999E+03  0.33686030555E+03  0.00000000000E+00 0.  1.
         12    1    4    4    0    0  0.96169569150E+02  0.11541879032E+03 -0.63123827890E+03  0.64886966945E+03  0.00000000000E+00 0. -1.
        -13    1    3    3    0    0 -0.56565114798E+02 -0.62213067014E+02 -0.44413783673E+02  0.95092912982E+02  0.00000000000E+00 0. -1.
         13    1    3    3    0    0 -0.14867777607E+03 -0.16914630110E+03 -0.32194396645E+03  0.39289116789E+03  0.00000000000E+00 0.  1.
         21    1    1    2  503  501 -0.14441022673E+02  0.37562822782E+02 -0.14942791816E+02  0.42927797736E+02  0.00000000000E+00 0. -1.
         -4    1    1    2    0  502  0.18359728535E+02  0.30805718902E+02 -0.22418654587E+03  0.22703673557E+03  0.00000000000E+00 0.  1.
<scales pt_clust_5="13000.00000" pt_clust_6="13000.00000" pt_clust_7="13000.00000" pt_clust_8="13000.00000" pt_clust_9="40.69793" pt_clust_10="35.86185"></scales>
<clustering>
<clus scale="   35.862">  2 10  1 -1</clus>
<clus scale="   40.698">  1  9  2 -1</clus>
<clus scale="   80.076">  5  6 -1 -1</clus>
<clus scale="   90.877">  7  8 -1 -1</clus>
<clus scale="  297.336">  2  5  1 -1</clus>
<clus scale="   35.862">  2  5  1 -1</clus>
</clustering>
</event>
<event>
10    4  0.2977685E-005  0.9934236E+02  0.7546771E-02  0.1281863E+00
         -1   -1    0    0    0  501 -0.00000000000E+00  0.00000000000E+00  0.12807444917E+03  0.12807444917E+03  0.00000000000E+00 0.  1.
         21   -1    0    0  503  502  0.00000000000E+00 -0.00000000000E+00 -0.54406665326E+03  0.54406665326E+03  0.00000000000E+00 0. -1.
         24    2    1    2    0    0 -0.45048977004E+02  0.19195639095E+02 -0.67016753419E+02  0.12146884567E+03  0.88687949243E+02 0.  0.
         23    2    1    2    0    0 -0.86779018682E+01 -0.68662710908E+02 -0.40599762329E+03  0.42137366215E+03  0.89060761193E+02 0.  0.
        -13    1    3    3    0    0  0.60420520173E+01 -0.29790275303E+02 -0.17336216903E+02  0.34993018042E+02  0.00000000000E+00 0.  1.
         14    1    3    3    0    0 -0.51091029021E+02  0.48985914398E+02 -0.49680536516E+02  0.86475827630E+02  0.00000000000E+00 0. -1.
        -11    1    4    4    0    0 -0.39641605217E+02 -0.16308616802E+02 -0.91432346763E+02  0.10098169082E+03  0.00000000000E+00 0.  1.
         11    1    4    4    0    0  0.30963703349E+02 -0.52354094106E+02 -0.31456527653E+03  0.32039197133E+03  0.00000000000E+00 0. -1.
         21    1    1    2  503  501 -0.74886418303E+01 -0.20268734684E+02  0.27024263235E+01  0.21776236364E+02  0.00000000000E+00 0.  1.
         -2    1    1    2    0  502  0.61215520702E+02  0.69735806497E+02  0.54319746301E+02  0.10752235824E+03  0.00000000000E+00 0.  1.
<scales pt_clust_5="13000.00000" pt_clust_6="13000.00000" pt_clust_7="13000.00000" pt_clust_8="13000.00000" pt_clust_9="21.60790" pt_clust_10="78.88565"></scales>
<clustering>
<clus scale="   21.608">  1  9  2 -1</clus>
<clus scale="   78.886">  2 10  1 -1</clus>
<clus scale="   88.688">  5  6 -1 -1</clus>
<clus scale="   89.061">  7  8 -1 -1</clus>
<clus scale="   99.008">  1  5  2 -1</clus>
<clus scale="   78.886">  2  5  1 -1</clus>
</clustering>
</event>
<event>
10    4  0.2977685E-005  0.1045625E+03  0.7546771E-02  0.1274148E+00
         21   -1    0    0  501  502  0.00000000000E+00  0.00000000000E+00  0.93739808151E+02  0.93739808151E+02  0.00000000000E+00 0. -1.
          2   -1    0    0  503    0 -0.00000000000E+00 -0.00000000000E+00 -0.47150742682E+03  0.47150742682E+03  0.00000000000E+00 0. -1.
         24    2    1    2    0    0  0.54920022381E+01  0.22017716580E+02 -0.22088888776E+03  0.23713225131E+03  0.83215755383E+02 0.  0.
         23    2    1    2    0    0  0.46949647508E+02 -0.11471997928E+03 -0.11293043078E+03  0.19051914372E+03  0.90439586916E+02 0.  0.
        -11    1    3    3    0    0 -0.32264728099E+02  0.29741763335E+02 -0.82091455461E+02  0.93083791421E+02  0.00000000000E+00 0.  1.
         12    1    3    3    0    0  0.37756730337E+02 -0.77240467549E+01 -0.13879743230E+03  0.14404845989E+03  0.00000000000E+00 0. -1.
        -13    1    4    4    0    0  0.71535198639E+02 -0.10182352774E+03 -0.10113490376E+03  0.16035455779E+03  0.00000000000E+00 0. -1.
         13    1    4    4    0    0 -0.24585551131E+02 -0.12896451534E+02 -0.11795527024E+02  0.30164585930E+02  0.00000000000E+00 0.  1.
         21    1    1    2  503  502  0.14232616194E+00  0.24838580230E+02 -0.45378673076E+02  0.51731994884E+02  0.00000000000E+00 0.  1.
          1    1    1    2  501    0 -0.52583975908E+02  0.67863682467E+02  0.14303729526E+01  0.85863845052E+02  0.00000000000E+00 0. -1.
<scales pt_clust_5="13000.00000" pt_clust_6="13000.00000" pt_clust_7="13000.00000" pt_clust_8="13000.00000" pt_clust_9="24.83899" pt_clust_10="87.81634"></scales>
<clustering>
<clus scale="   24.839">  2  9  1 -1</clus>
<clus scale="   83.216">  5  6 -1 -1</clus>
<clus scale="   87.816">  1 10  2 -1</clus>
<clus scale="   90.440">  7  8 -1 -1</clus>
<clus scale="   98.381">  2  5  1 -1</clus>
<clus scale="   87.816">  1  5  2 -1</clus>
</clustering>
</event>
<event>
10    4  0.2977685E-005  0.9847859E+02  0.7546771E-02  0.1286000E+00
         21   -1    0    0  501  502  0.00000000000E+00  0.00000000000E+00  0.31322291834E+02  0.31322291834E+02  0.00000000000E+00 0. -1.
          2   -1    0    0  503    0 -0.00000000000E+00 -0.00000000000E+00 -0.75371858042E+03  0.75371858042E+03  0.00000000000E+00 0. -1.
         23    2    1    2    0    0 -0.30993726513E+02 -0.27215978034E+02 -0.28879437592E+03  0.30557443790E+03  0.90951772874E+02 0.  0.
         24    2    1    2    0    0  0.32881028393E+02  0.41899214987E+02 -0.11167229211E+03  0.15071537913E+03  0.86068103486E+02 0.  0.
        -13    1    4    4    0    0 -0.59471915232E+01 -0.23921856695E+02 -0.23858163443E+02  0.34305047407E+02  0.00000000000E+00 0.  1.
         14    1    4    4    0    0  0.38828219916E+02  0.65821071681E+02 -0.87814128664E+02  0.11641033172E+03  0.00000000000E+00 0. -1.
        -13    1    3    3    0    0 -0.60175857361E+02 -0.34042474103E+00 -0.17691776759E+03  0.18687200483E+03  0.00000000000E+00 0.  1.
         13    1    3    3    0    0  0.29182130848E+02 -0.26875553293E+02 -0.11187660833E+03  0.11870243307E+03  0.00000000000E+00 0. -1.
         21    1    1    2  503  502  0.28327899434E+02  0.48252394000E+01 -0.18295616096E+03  0.18519910814E+03  0.00000000000E+00 0. -1.
          1    1    1    2  501    0 -0.30215201313E+02 -0.19508476352E+02 -0.13897345960E+03  0.14355194709E+03  0.00000000000E+00 0. -1.
<scales pt_clust_5="13000.00000" pt_clust_6="13000.00000" pt_clust_7="13000.00000" pt_clust_8="13000.00000" pt_clust_9="28.73592" pt_clust_10="29.54853"></scales>
<clustering>
<clus scale="   28.736">  2  9  1 -1</clus>
<clus scale="   29.549">  1 10  2 -1</clus>
<clus scale="   86.068">  5  6 -1 -1</clus>
<clus scale="   90.952">  7  8 -1 -1</clus>
<clus scale="   93.987">  1  5  2 -1</clus>
<clus scale="   29.549">  1  5  2 -1</clus>
</clustering>
</event>
<event>
10    4  0.2977685E-005  0.1624182E+03  0.7546771E-02  0.1214318E+00
          2   -1    0    0  503    0 -0.00000000000E+00  0.00000000000E+00  0.11499929618E+04  0.11499929618E+04  0.00000000000E+00 0. -1.
         21   -1    0    0  501  502  0.00000000000E+00 -0.00000000000E+00 -0.11262641451E+03  0.11262641451E+03  0.00000000000E+00 0.  1.
         23    2    1    2    0    0 -0.85686498679E+02 -0.14486541455E+03  0.54885014983E+03  0.58112652516E+03  0.90240716379E+02 0.  0.
         24    2    1    2    0    0 -0.17714204792E+02  0.40233081233E+02 -0.18266372974E+02  0.90866632621E+02  0.77398906099E+02 0.  0.
        -13    1    4    4    0    0 -0.47544895364E+01 -0.20299530411E+02 -0.20065470310E+02  0.28936122829E+02  0.00000000000E+00 0.  1.
         14    1    4    4    0    0 -0.12959715256E+02  0.60532611643E+02  0.17990973354E+01  0.61930509792E+02  0.00000000000E+00 0. -1.
        -13    1    3    3    0    0 -0.78087689432E+02 -0.84514208210E+02  0.45472012976E+03  0.46905301943E+03  0.00000000000E+00 0.  1.
         13    1    3    3    0    0 -0.75988092466E+01 -0.60351206336E+02  0.94130020066E+02  0.11207350573E+03  0.00000000000E+00 0. -1.
         21    1    1    2  503  502  0.55638013419E+02  0.10739456680E+03  0.52550971923E+03  0.53924915069E+03  0.00000000000E+00 0. -1.
          1    1    1    2  501    0  0.47762690052E+02 -0.27622334882E+01 -0.18726948742E+02  0.51377067881E+02  0.00000000000E+00 0. -1.
<scales pt_clust_5="13000.00000" pt_clust_6="13000.00000" pt_clust_7="13000.00000" pt_clust_8="13000.00000" pt_clust_9="135.04178" pt_clust_10="47.84250"></scales>
<clustering>
<clus scale="   47.842">  2 10  1 -1</clus>
<clus scale="   77.399">  5  6 -1 -1</clus>
<clus scale="   87.801">  2  5  1 -1</clus>
<clus scale="   90.241">  7  8 -1 -1</clus>
<clus scale="  135.042">  1  9  2 -1</clus>
<clus scale="   47.842">  2  5  1 -1</clus>
</clustering>
</event>
<event>
10    4  0.5182051E-005  0.2120954E+03  0.7546771E-02  0.1170708E+00
         21   -1    0    0  503  502  0.00000000000E+00  0.00000000000E+00  0.83058189535E+03  0.83058189535E+03  0.00000000000E+00 0.  1.
         -1   -1    0    0    0  501 -0.00000000000E+00 -0.00000000000E+00 -0.49531953655E+03  0.49531953655E+03  0.00000000000E+00 0.  1.
         23    2    1    2    0    0  0.15188409022E+03  0.10758044379E+03 -0.40104936412E+03  0.45158653003E+03  0.91910134848E+02 0.  0.
         24    2    1    2    0    0  0.55254245461E+02  0.15510226567E+02  0.81273718655E+02  0.12724459142E+03  0.79323199196E+02 0.  0.
        -11    1    4    4    0    0  0.69033122494E+02  0.28841298221E+01  0.83549347901E+02  0.10841763575E+03  0.00000000000E+00 0.  1.
         12    1    4    4    0    0 -0.13778877033E+02  0.12626096745E+02 -0.22756292456E+01  0.18826955669E+02  0.00000000000E+00 0. -1.
        -13    1    3    3    0    0  0.90352698706E+02  0.10515112110E+03 -0.21697443131E+03  0.25748450880E+03  0.00000000000E+00 0.  1.
         13    1    3    3    0    0  0.61531391517E+02  0.24293226833E+01 -0.18407493282E+03  0.19410202122E+03  0.00000000000E+00 0. -1.
         21    1    1    2  503  501 -0.25063774200E+03 -0.15694513321E+03  0.48221445568E+03  0.56566936793E+03  0.00000000000E+00 0.  1.
         -2    1    1    2    0  502  0.43499406311E+02  0.33854462859E+02  0.17282354859E+03  0.18140094253E+03  0.00000000000E+00 0.  1.
<scales pt_clust_5="13000.00000" pt_clust_6="13000.00000" pt_clust_7="13000.00000" pt_clust_8="13000.00000" pt_clust_9="191.14652" pt_clust_10="55.12099"></scales>
<clustering>
<clus scale="   55.121">  1 10  2 -1</clus>
<clus scale="   79.323">  5  6 -1 -1</clus>
<clus scale="   91.910">  7  8 -1 -1</clus>
<clus scale="  102.945">  1  5  2 -1</clus>
<clus scale="  191.147">  1  9  2 -1</clus>
<clus scale="   55.121">  1  5  2 -1</clus>
</clustering>
</event>
<event>
10    4  0.2977685E-005  0.2312534E+03  0.7546771E-02  0.1164189E+00
         21   -1    0    0  501  502  0.00000000000E+00  0.00000000000E+00  0.32000261754E+03  0.32000261754E+03  0.00000000000E+00 0. -1.
          2   -1    0    0  503    0 -0.00000000000E+00 -0.00000000000E+00 -0.40402333646E+03  0.40402333646E+03  0.00000000000E+00 0. -1.
         24    2    1    2    0    0  0.44270266630E+02  0.10624182332E+02 -0.41033522923E+02  0.10096717430E+03  0.80236466306E+02 0.  0.
         23    2    1    2    0    0 -0.10480883992E+03 -0.13827538145E+03 -0.16078261827E+03  0.25236907969E+03  0.87943891241E+02 0.  0.
        -11    1    3    3    0    0  0.55729489476E+02 -0.44178206615E+01 -0.54247604507E+02  0.77897982846E+02  0.00000000000E+00 0.  1.
         12    1    3    3    0    0 -0.11459222846E+02  0.15042002993E+02  0.13214081585E+02  0.23069191456E+02  0.00000000000E+00 0. -1.
        -11    1    4    4    0    0  0.12199891287E+02 -0.38746060212E+02 -0.28178054812E+02  0.49437812475E+02  0.00000000000E+00 0.  1.
         11    1    4    4    0    0 -0.11700873120E+03 -0.99529321234E+02 -0.13260456345E+03  0.20293126721E+03  0.00000000000E+00 0. -1.
         21    1    1    2  503  502  0.20224058165E+02 -0.10101433600E+03 -0.13575864034E+02  0.10390963714E+03  0.00000000000E+00 0.  1.
          1    1    1    2  501    0  0.40314515123E+02  0.22866553512E+03  0.13137128631E+03  0.26678006287E+03  0.00000000000E+00 0. -1.
<scales pt_clust_5="13000.00000" pt_clust_6="13000.00000" pt_clust_7="13000.00000" pt_clust_8="13000.00000" pt_clust_9="103.02742" pt_clust_10="213.87847"></scales>
<clustering>
<clus scale="   80.236">  5  6 -1 -1</clus>
<clus scale="   87.944">  7  8 -1 -1</clus>
<clus scale="   92.253">  2  5  1 -1</clus>
<clus scale="  103.027">  2  9  1 -1</clus>
<clus scale="  213.878">  1 10  2 -1</clus>
<clus scale="  213.878">  1  5  2 -1</clus>
</clustering>
</event>
<event>
10    4  0.2977685E-005  0.1782577E+03  0.7546771E-02  0.1181059E+00
         21   -1    0    0  503  502  0.00000000000E+00  0.00000000000E+00  0.66098887835E+02  0.66098887835E+02  0.00000000000E+00 0. -1.
          2   -1    0    0  502    0 -0.00000000000E+00 -0.00000000000E+00 -0.10431759760E+04  0.10431759760E+04  0.00000000000E+00 0. -1.
         23    2    1    2    0    0 -0.17119403433E+02  0.10086100705E+03 -0.14854038132E+03  0.20219084376E+03  0.91383125913E+02 0.  0.
         24    2    1    2    0    0  0.13195867773E+03 -0.16546268498E+03 -0.49304543611E+03  0.54198380887E+03  0.76561441031E+02 0.  0.
        -11    1    4    4    0    0  0.74934631835E+02 -0.37294946179E+02 -0.21048796206E+03  0.22651996431E+03  0.00000000000E+00 0.  1.
         12    1    4    4    0    0  0.57024045898E+02 -0.12816773880E+03 -0.28255747405E+03  0.31546384455E+03  0.00000000000E+00 0. -1.
        -13    1    3    3    0    0  0.26355931663E+02  0.83054539382E+02 -0.75229252987E+02  0.11511790543E+03  0.00000000000E+00 0. -1.
         13    1    3    3    0    0 -0.43475335096E+02  0.17806467672E+02 -0.73311128330E+02  0.87072938332E+02  0.00000000000E+00 0.  1.
         21    1    1    2  503  501 -0.43921599515E+02  0.52327906535E+02 -0.12229757835E+03  0.14008573938E+03  0.00000000000E+00 0. -1.
          1    1    1    2  501    0 -0.70917674785E+02  0.12273771390E+02 -0.21319369242E+03  0.22501447186E+03  0.00000000000E+00 0. -1.
<scales pt_clust_5="13000.00000" pt_clust_6="13000.00000" pt_clust_7="13000.00000" pt_clust_8="13000.00000" pt_clust_9="56.66221" pt_clust_10="171.16217"></scales>
<clustering>
<clus scale="   56.662">  9 10 -1 -1</clus>
<clus scale="   76.561">  5  6 -1 -1</clus>
<clus scale="   91.383">  7  8 -1 -1</clus>
<clus scale="  137.175">  2  7  1 -1</clus>
<clus scale="  171.162">  1  9  2 -1</clus>
<clus scale="  171.162">  1  5  2 -1</clus>
</clustering>
</event>
<event>
10    4  0.2977685E-005  0.3451184E+03  0.7546771E-02  0.1064836E+00
          2   -1    0    0  503    0 -0.00000000000E+00  0.00000000000E+00  0.86140454508E+03  0.86140454508E+03  0.00000000000E+00 0. -1.
         21   -1    0    0  501  502  0.00000000000E+00 -0.00000000000E+00 -0.20545410742E+03  0.20545410742E+03  0.00000000000E+00 0. -1.
         23    2    1    2    0    0  0.82291745896E+02 -0.33650424972E+03  0.29537436380E+03  0.46405382664E+03  0.89960534148E+02 0.  0.
         24    2    1    2    0    0 -0.10861955549E+03  0.29642274471E+03  0.11690304054E+03  0.34657903386E+03  0.82377511521E+02 0.  0.
        -11    1    4    4    0    0 -0.20057426534E+02  0.30273629038E+02  0.43442716045E+02  0.56622103031E+02  0.00000000000E+00 0.  1.
         12    1    4    4    0    0 -0.88562128953E+02  0.26614911567E+03  0.73460324497E+02  0.28995693082E+03  0.00000000000E+00 0. -1.
        -13    1    3    3    0    0  0.61013401337E+02 -0.85164663326E+02  0.71946085920E+02  0.12709010308E+03  0.00000000000E+00 0.  1.
         13    1    3    3    0    0  0.21278344559E+02 -0.25133958640E+03  0.22342827788E+03  0.33696372356E+03  0.00000000000E+00 0. -1.
         21    1    1    2  503  502  0.23669410262E+02  0.48873767776E+01  0.19279698243E+03  0.19430595428E+03  0.00000000000E+00 0. -1.
          1    1    1    2  501    0  0.26583993296E+01  0.35194128236E+02  0.50876050890E+02  0.61919837721E+02  0.00000000000E+00 0. -1.
<scales pt_clust_5="13000.00000" pt_clust_6="13000.00000" pt_clust_7="13000.00000" pt_clust_8="13000.00000" pt_clust_9="24.16873" pt_clust_10="35.91015"></scales>
<clustering>
<clus scale="   24.169">  1  9  2 -1</clus>
<clus scale="   35.910">  2 10  1 -1</clus>
<clus scale="   82.378">  5  6 -1 -1</clus>
<clus scale="   89.961">  7  8 -1 -1</clus>
<clus scale="  343.220">  2  5  1 -1</clus>
<clus scale="   35.910">  2  5  1 -1</clus>
</clustering>
</event>
<event>
10    4  0.2977685E-005  0.1241043E+03  0.7546771E-02  0.1249480E+00
          2   -1    0    0  503    0 -0.00000000000E+00  0.00000000000E+00  0.68977860349E+03  0.68977860349E+03  0.00000000000E+00 0. -1.
         21   -1    0    0  501  502  0.00000000000E+00 -0.00000000000E+00 -0.44764693783E+03  0.44764693783E+03  0.00000000000E+00 0.  1.
         24    2    1    2    0    0  0.11649457531E+02 -0.15014989877E+02  0.59663305161E+03  0.60235938323E+03  0.80651525120E+02 0.  0.
         23    2    1    2    0    0 -0.33759185392E+02  0.67154135525E+02 -0.22183385331E+03  0.25110807532E+03  0.90529810001E+02 0.  0.
        -13    1    3    3    0    0 -0.61300534020E+01  0.31084200616E+02  0.17540152469E+03  0.17824000659E+03  0.00000000000E+00 0.  1.
         14    1    3    3    0    0  0.17779510933E+02 -0.46099190493E+02  0.42123152692E+03  0.42411937664E+03  0.00000000000E+00 0. -1.
        -11    1    4    4    0    0  0.20834936561E+02 -0.67247992492E+01 -0.21347685004E+02  0.30578442757E+02  0.00000000000E+00 0. -1.
         11    1    4    4    0    0 -0.54594121953E+02  0.73878934774E+02 -0.20048616831E+03  0.22052963256E+03  0.00000000000E+00 0.  1.
         21    1    1    2  503  502  0.31166147708E+02  0.46732196471E+02  0.50550282802E+02  0.75568234340E+02  0.00000000000E+00 0.  1.
          1    1    1    2  501    0 -0.90564198468E+01 -0.98871342118E+02 -0.18321781545E+03  0.20838984843E+03  0.00000000000E+00 0. -1.
<scales pt_clust_5="13000.00000" pt_clust_6="13000.00000" pt_clust_7="13000.00000" pt_clust_8="13000.00000" pt_clust_9="56.17141" pt_clust_10="84.88957"></scales>
<clustering>
<clus scale="   56.171">  1  9  2 -1</clus>
<clus scale="   80.652">  5  6 -1 -1</clus>
<clus scale="   90.530">  7  8 -1 -1</clus>
<clus scale="   95.421">  1  5  2 -1</clus>
<clus scale="   84.890">  2 10  1 -1</clus>
<clus scale="   84.890">  2  5  1 -1</clus>
</clustering>
</event>
<event>
10    4  0.2977685E-005  0.2838617E+03  0.7546771E-02  0.1094079E+00
         -1   -1    0    0    0  501 -0.00000000000E+00  0.00000000000E+00  0.17165279653E+03  0.17165279653E+03  0.00000000000E+00 0.  1.
         21   -1    0    0  503  502  0.00000000000E+00 -0.00000000000E+00 -0.16084817374E+04  0.16084817374E+04  0.00000000000E+00 0.  1.
         23    2    1    2    0    0 -0.19738880137E+03  0.17354693790E+03 -0.39720963857E+02  0.28108393985E+03  0.91375859568E+02 0.  0.
         24    2    1    2    0    0  0.31360994468E+03 -0.79712703616E+02 -0.68597347889E+03  0.76263012611E+03  0.79622754167E+02 0.  0.
        -11    1    4    4    0    0  0.26903325064E+03 -0.37149585841E+02 -0.56185046002E+03  0.62404721064E+03  0.00000000000E+00 0.  1.
         12    1    4    4    0    0  0.44576694042E+02 -0.42563117775E+02 -0.12412301887E+03  0.13858291547E+03  0.00000000000E+00 0. -1.
        -11    1    3    3    0    0 -0.11463101023E+03  0.15612964774E+03 -0.27541630574E+02  0.19564068294E+03  0.00000000000E+00 0. -1.
         11    1    3    3    0    0 -0.82757791143E+02  0.17417290161E+02 -0.12179333284E+02  0.85443256905E+02  0.00000000000E+00 0.  1.
         21    1    1    2  503  501 -0.12678513644E+03 -0.37638100607E+02 -0.54113389323E+03  0.55706102703E+03  0.00000000000E+00 0.  1.
         -2    1    1    2    0  502  0.10563993124E+02 -0.56196133675E+02 -0.17000060488E+03  0.17935944093E+03  0.00000000000E+00 0.  1.
<scales pt_clust_5="13000.00000" pt_clust_6="13000.00000" pt_clust_7="13000.00000" pt_clust_8="13000.00000" pt_clust_9="136.25273" pt_clust_10="57.18045"></scales>
<clustering>
<clus scale="   57.180">  2 10  1 -1</clus>
<clus scale="   79.623">  5  6 -1 -1</clus>
<clus scale="   91.376">  7  8 -1 -1</clus>
<clus scale="  136.253">  2  9  1 -1</clus>
<clus scale="  280.299">  2  5  1 -1</clus>
<clus scale="   57.180">  2  5  1 -1</clus>
</clustering>
</event>
<event>
10    4  0.2977685E-005  0.9202063E+02  0.7546771E-02  0.1303950E+00
         21   -1    0    0  501  502  0.00000000000E+00  0.00000000000E+00  0.14754995019E+02  0.14754995019E+02  0.00000000000E+00 0.  1.
          2   -1    0    0  503    0 -0.00000000000E+00 -0.00000000000E+00 -0.14751505131E+04  0.14751505131E+04  0.00000000000E+00 0. -1.
         24    2    1    2    0    0  0.34841216925E+02 -0.41115260046E+01 -0.51123968266E+03  0.51896205443E+03  0.82004791176E+02 0.  0.
         23    2    1    2    0    0  0.15802442214E+02 -0.10250899391E+01 -0.34619581833E+03  0.35844805541E+03  0.91557063128E+02 0.  0.
        -13    1    3    3    0    0 -0.21467535272E+02  0.14327746487E+02 -0.91841323661E+02  0.95398994344E+02  0.00000000000E+00 0.  1.
         14    1    3    3    0    0  0.56308752197E+02 -0.18439272492E+02 -0.41939835900E+03  0.42356306009E+03  0.00000000000E+00 0. -1.
        -11    1    4    4    0    0  0.41824214829E+02  0.26220358328E+02 -0.13126365700E+03  0.14023879558E+03  0.00000000000E+00 0.  1.
         11    1    4    4    0    0 -0.26021772614E+02 -0.27245448267E+02 -0.21493216133E+03  0.21820925983E+03  0.00000000000E+00 0. -1.
         21    1    1    2  503  502 -0.41422985740E+02  0.47018172765E+02 -0.41507716649E+03  0.41978045031E+03  0.00000000000E+00 0.  1.
          1    1    1    2  501    0 -0.92206733999E+01 -0.41881556821E+02 -0.18788285061E+03  0.19271494798E+03  0.00000000000E+00 0. -1.
<scales pt_clust_5="13000.00000" pt_clust_6="13000.00000" pt_clust_7="13000.00000" pt_clust_8="13000.00000" pt_clust_9="58.20960" pt_clust_10="42.88456"></scales>
<clustering>
<clus scale="   42.885">  1 10  2 -1</clus>
<clus scale="   58.210">  2  9  1 -1</clus>
<clus scale="   82.005">  5  6 -1 -1</clus>
<clus scale="   82.522">  2  5  1 -1</clus>
<clus scale="   91.557">  7  8 -1 -1</clus>
<clus scale="   42.885">  1  5  2 -1</clus>
</clustering>
</event>
<event>
10    4  0.2977685E-005  0.1299824E+03  0.7546771E-02  0.1230746E+00
         21   -1    0    0  503  502  0.00000000000E+00  0.00000000000E+00  0.47995625486E+03  0.47995625486E+03  0.00000000000E+00 0. -1.
         -1   -1    0    0    0  501 -0.00000000000E+00 -0.00000000000E+00 -0.20317800525E+03  0.20317800525E+03  0.00000000000E+00 0.  1.
         24    2    1    2    0    0 -0.86359753508E+02 -0.15842173551E+01 -0.54174596466E+02  0.12782679651E+03  0.77099197353E+02 0.  0.
         23    2    1    2    0    0  0.45340672736E+02 -0.51453879012E+02  0.29339332295E+03  0.31442114249E+03  0.89876218339E+02 0.  0.
        -13    1    3    3    0    0 -0.69239197108E+02  0.27327830111E+02 -0.57503642497E+02  0.94061392799E+02  0.00000000000E+00 0.  1.
         14    1    3    3    0    0 -0.17120556399E+02 -0.28912047466E+02  0.33290460316E+01  0.33765403708E+02  0.00000000000E+00 0. -1.
        -13    1    4    4    0    0 -0.17991704239E+02  0.12161446307E+02  0.80479079188E+02  0.83357569450E+02  0.00000000000E+00 0.  1.
         13    1    4    4    0    0  0.63332376975E+02 -0.63615325319E+02  0.21291424376E+03  0.23106357304E+03  0.00000000000E+00 0. -1.
         21    1    1    2  503  501  0.98872208974E+01  0.75695514718E+02 -0.83922439873E+02  0.11344842000E+03  0.00000000000E+00 0.  1.
         -2    1    1    2    0  502  0.31131859874E+02 -0.22657418350E+02  0.12148196301E+03  0.12743790112E+03  0.00000000000E+00 0.  1.
<scales pt_clust_5="13000.00000" pt_clust_6="13000.00000" pt_clust_7="13000.00000" pt_clust_8="13000.00000" pt_clust_9="75.58600" pt_clust_10="38.50391"></scales>
<clustering>
<clus scale="   38.504">  1 10  2 -1</clus>
<clus scale="   75.586">  2  9  1 -1</clus>
<clus scale="   77.099">  5  6 -1 -1</clus>
<clus scale="   89.876">  7  8 -1 -1</clus>
<clus scale="  121.499">  2  5  1 -1</clus>
<clus scale="   38.504">  1  5  2 -1</clus>
</clustering>
</event>
<event>
10    4  0.2977685E-005  0.2251750E+03  0.7546771E-02  0.1130243E+00
          2   -1    0    0  503    0 -0.00000000000E+00  0.00000000000E+00  0.96291120693E+03  0.96291120693E+03  0.00000000000E+00 0. -1.
         21   -1    0    0  501  502  0.00000000000E+00 -0.00000000000E+00 -0.93449307556E+02  0.93449307556E+02  0.00000000000E+00 0. -1.
         24    2    1    2    0    0 -0.43821590909E+02  0.23940161087E+03  0.44068710239E+03  0.50984540296E+03  0.80645828058E+02 0.  0.
         23    2    1    2    0    0  0.91371096139E+01 -0.17396421407E+03  0.15645269475E+03  0.24844851874E+03  0.83079397086E+02 0.  0.
        -11    1    3    3    0    0 -0.30251630982E+02  0.24385085909E+02  0.93385770078E+02  0.10114690131E+03  0.00000000000E+00 0.  1.
         12    1    3    3    0    0 -0.13569959927E+02  0.21501652496E+03  0.34730133232E+03  0.40869850165E+03  0.00000000000E+00 0. -1.
        -11    1    4    4    0    0  0.96666224326E+01 -0.86518047517E+02  0.13114961859E+03  0.15741359087E+03  0.00000000000E+00 0.  1.
         11    1    4    4    0    0 -0.52951281870E+00 -0.87446166554E+02  0.25303076163E+02  0.91034927870E+02  0.00000000000E+00 0. -1.
         21    1    1    2  503  502 -0.32618325865E+02 -0.30481791910E+02  0.11672232121E+03  0.12496877646E+03  0.00000000000E+00 0. -1.
          1    1    1    2  501    0  0.67302807160E+02 -0.34955604891E+02  0.15559978101E+03  0.17309781632E+03  0.00000000000E+00 0. -1.
<scales pt_clust_5="13000.00000" pt_clust_6="13000.00000" pt_clust_7="13000.00000" pt_clust_8="13000.00000" pt_clust_9="44.64409" pt_clust_10="73.39263"></scales>
<clustering>
<clus scale="   44.644">  1  9  2 -1</clus>
<clus scale="   73.393">  2 10  1 -1</clus>
<clus scale="   80.646">  5  6 -1 -1</clus>
<clus scale="   83.079">  7  8 -1 -1</clus>
<clus scale="  224.289">  1  5  2 -1</clus>
<clus scale="   73.393">  2  5  1 -1</clus>
</clustering>
</event>
<event>
10    4  0.2977685E-005  0.1880778E+03  0.7546771E-02  0.1197269E+00
          2   -1    0    0  503    0 -0.00000000000E+00  0.00000000000E+00  0.44100339713E+03  0.44100339713E+03  0.00000000000E+00 0. -1.
         21   -1    0    0  501  502  0.00000000000E+00 -0.00000000000E+00 -0.29443684546E+03  0.29443684546E+03  0.00000000000E+00 0.  1.
         23    2    1    2    0    0  0.41792833561E+02 -0.15381362658E+03  0.14157358409E+03  0.23321869551E+03  0.94565361327E+02 0.  0.
         24    2    1    2    0    0  0.12093350865E+02 -0.17617856340E+02 -0.16305604687E+03  0.18225118957E+03  0.78559427706E+02 0.  0.
        -13    1    4    4    0    0 -0.27261304260E+02 -0.24714867873E+02 -0.10877417523E+03  0.11482954585E+03  0.00000000000E+00 0.  1.
         14    1    4    4    0    0  0.39354655125E+02  0.70970115324E+01 -0.54281871640E+02  0.67421643717E+02  0.00000000000E+00 0. -1.
        -11    1    3    3    0    0  0.70577997917E+02 -0.10584497741E+03  0.11411954548E+03  0.17090255614E+03  0.00000000000E+00 0. -1.
         11    1    3    3    0    0 -0.28785164356E+02 -0.47968649166E+02  0.27454038610E+02  0.62316139368E+02  0.00000000000E+00 0.  1.
         21    1    1    2  503  502 -0.68446008040E+02  0.15449384446E+03  0.19897207879E+02  0.17014435893E+03  0.00000000000E+00 0.  1.
          1    1    1    2  501    0  0.14559823614E+02  0.16937638454E+02  0.14815180657E+03  0.14982599858E+03  0.00000000000E+00 0. -1.
<scales pt_clust_5="13000.00000" pt_clust_6="13000.00000" pt_clust_7="13000.00000" pt_clust_8="13000.00000" pt_clust_9="162.57502" pt_clust_10="22.33546"></scales>
<clustering>
<clus scale="   22.335">  2 10  1 -1</clus>
<clus scale="   78.559">  5  6 -1 -1</clus>
<clus scale="   81.590">  2  5  1 -1</clus>
<clus scale="   94.565">  7  8 -1 -1</clus>
<clus scale="  162.575">  2  9  1 -1</clus>
<clus scale="   22.335">  2  5  1 -1</clus>
</clustering>
</event>
<event>
10    4  0.2977685E-005  0.1353247E+03  0.7546771E-02  0.1233626E+00
         21   -1    0    0  503  502  0.00000000000E+00  0.00000000000E+00  0.12352498131E+03  0.12352498131E+03  0.00000000000E+00 0.  1.
         -1   -1    0    0    0  501 -0.00000000000E+00 -0.00000000000E+00 -0.44553411229E+03  0.44553411229E+03  0.00000000000E+00 0.  1.
         23    2    1    2    0    0 -0.20193089206E+02 -0.49069821737E+02 -0.31462020865E+02  0.10978229755E+03  0.90811264950E+02 0.  0.
         24    2    1    2    0    0  0.93545735097E+02 -0.36721327096E+02 -0.29853818337E+03  0.32520103456E+03  0.80817111652E+02 0.  0.
        -13    1    4    4    0    0  0.89469878046E+02 -0.27305595905E+02 -0.30052787943E+03  0.31474983870E+03  0.00000000000E+00 0.  1.
         14    1    4    4    0    0  0.40758570514E+01 -0.94157311910E+01  0.19896960666E+01  0.10451195865E+02  0.00000000000E+00 0. -1.
        -11    1    3    3    0    0  0.86156043473E+01  0.24581079155E+02 -0.64080951252E+01  0.26823903031E+02  0.00000000000E+00 0. -1.
         11    1    3    3    0    0 -0.28808693553E+02 -0.73650900892E+02 -0.25053925739E+02  0.82958394520E+02  0.00000000000E+00 0.  1.
         21    1    1    2  503  501  0.14263699249E+02  0.17993017896E+02  0.32509354799E+01  0.23189876903E+02  0.00000000000E+00 0.  1.
         -2    1    1    2    0  502 -0.87616345141E+02  0.67798130936E+02  0.47401377689E+01  0.11088588459E+03  0.00000000000E+00 0.  1.
<scales pt_clust_5="13000.00000" pt_clust_6="13000.00000" pt_clust_7="13000.00000" pt_clust_8="13000.00000" pt_clust_9="22.96088" pt_clust_10="108.54201"></scales>
<clustering>
<clus scale="   22.961">  1  9  2 -1</clus>
<clus scale="   80.817">  5  6 -1 -1</clus>
<clus scale="   90.811">  7  8 -1 -1</clus>
<clus scale="  101.476">  2  7  1 -1</clus>
<clus scale="  108.542">  1 10  2 -1</clus>
<clus scale="   22.961">  1  5  2 -1</clus>
</clustering>
</event>
<event>
10    4  0.2977685E-005  0.1733769E+03  0.7546771E-02  0.1203119E+00
         21   -1    0    0  501  502  0.00000000000E+00  0.00000000000E+00  0.70249878432E+02  0.70249878432E+02  0.00000000000E+00 0. -1.
          2   -1    0    0  503    0 -0.00000000000E+00 -0.00000000000E+00 -0.13635821602E+04  0.13635821602E+04  0.00000000000E+00 0. -1.
         24    2    1    2    0    0  0.23296753632E+02 -0.48920311323E+02 -0.36735822719E+03  0.37988885479E+03  0.80171936012E+02 0.  0.
         23    2    1    2    0    0 -0.13550985624E+03 -0.67567263817E+02 -0.89389807046E+02  0.19814627073E+03  0.91340849140E+02 0.  0.
        -13    1    3    3    0    0  0.51803059800E+02 -0.31642550575E+02 -0.19120430523E+03  0.20060880925E+03  0.00000000000E+00 0.  1.
         14    1    3    3    0    0 -0.28506306167E+02 -0.17277760748E+02 -0.17615392196E+03  0.17928004554E+03  0.00000000000E+00 0. -1.
        -13    1    4    4    0    0 -0.25547447700E+02 -0.56361018021E+02 -0.53879526761E+02  0.82050227546E+02  0.00000000000E+00 0.  1.
         13    1    4    4    0    0 -0.10996240854E+03 -0.11206245796E+02 -0.35510280285E+02  0.11609604318E+03  0.00000000000E+00 0. -1.
         21    1    1    2  503  502  0.81068412999E+01  0.41871887116E+02 -0.10941682781E+03  0.11743516515E+03  0.00000000000E+00 0.  1.
          1    1    1    2  501    0  0.10410626130E+03  0.74615688024E+02 -0.72716741975E+03  0.73836174799E+03  0.00000000000E+00 0. -1.
<scales pt_clust_5="13000.00000" pt_clust_6="13000.00000" pt_clust_7="13000.00000" pt_clust_8="13000.00000" pt_clust_9="42.64945" pt_clust_10="147.36487"></scales>
<clustering>
<clus scale="   42.649">  2  9  1 -1</clus>
<clus scale="   80.172">  5  6 -1 -1</clus>
<clus scale="   91.341">  7  8 -1 -1</clus>
<clus scale="   91.730">  2  5  1 -1</clus>
<clus scale="  147.365">  1 10  2 -1</clus>
<clus scale="  147.365">  1  5  2 -1</clus>
</clustering>
</event>
<event>
10    4  0.2977685E-005  0.1783198E+03  0.7546771E-02  0.1203043E+00
         -3   -1    0    0    0  501 -0.00000000000E+00  0.00000000000E+00  0.10538293919E+04  0.10538293919E+04  0.00000000000E+00 0.  1.
         21   -1    0    0  503  502  0.00000000000E+00 -0.00000000000E+00 -0.40172039060E+03  0.40172039060E+03  0.00000000000E+00 0.  1.
         24    2    1    2    0    0  0.28499623297E+02 -0.37491566604E+01 -0.65063635026E+01  0.84699072875E+02  0.79406016624E+02 0.  0.
         23    2    1    2    0    0  0.34188068644E+02 -0.49755969616E+02  0.33055199184E+03  0.34850150499E+03  0.92434837160E+02 0.  0.
        -13    1    3    3    0    0  0.51273126037E+02 -0.15883865290E+02  0.92441224801E+01  0.54467278531E+02  0.00000000000E+00 0.  1.
         14    1    3    3    0    0 -0.22773502740E+02  0.12134708630E+02 -0.15750485983E+02  0.30231794344E+02  0.00000000000E+00 0. -1.
        -13    1    4    4    0    0 -0.19695982905E+02  0.42042929107E+01  0.18773956945E+02  0.27533057963E+02  0.00000000000E+00 0. -1.
         13    1    4    4    0    0  0.53884051548E+02 -0.53960262527E+02  0.31177803490E+03  0.32096844703E+03  0.00000000000E+00 0.  1.
         21    1    1    2  503  501  0.10528136640E+03 -0.14156668069E+02  0.64696085138E+03  0.65562406955E+03  0.00000000000E+00 0.  1.
         -4    1    1    2    0  502 -0.16796905834E+03  0.67661794345E+02 -0.31889747841E+03  0.36672513509E+03  0.00000000000E+00 0.  1.
<scales pt_clust_5="13000.00000" pt_clust_6="13000.00000" pt_clust_7="13000.00000" pt_clust_8="13000.00000" pt_clust_9="178.31980" pt_clust_10="13000.00000"></scales>
<clustering>
<clus scale="   79.406">  5  6 -1 -1</clus>
<clus scale="   84.449">  1  5  2 -1</clus>
<clus scale="   92.435">  7  8 -1 -1</clus>
<clus scale="  114.272">  1  7  2 -1</clus>
<clus scale="  178.320">  1  9  2 -1</clus>
<clus scale="  178.320">  2  5  1 -1</clus>
</clustering>
</event>
<event>
10    4  0.2977685E-005  0.2378116E+03  0.7546771E-02  0.1135424E+00
          2   -1    0    0  503    0 -0.00000000000E+00  0.00000000000E+00  0.95457845667E+03  0.95457845667E+03  0.00000000000E+00 0. -1.
         21   -1    0    0  501  502  0.00000000000E+00 -0.00000000000E+00 -0.29928770604E+03  0.29928770604E+03  0.00000000000E+00 0.  1.
         24    2    1    2    0    0 -0.13228240776E+03  0.64320118577E+02  0.40603617683E+02  0.17260513591E+03  0.80673205694E+02 0.  0.
         23    2    1    2    0    0  0.13679364608E+03  0.98145126577E+02 -0.13945648294E+03  0.23664529013E+03  0.90597545377E+02 0.  0.
        -11    1    3    3    0    0 -0.13378395698E+03  0.34844697088E+02  0.33301397442E+02  0.14220155812E+03  0.00000000000E+00 0.  1.
         12    1    3    3    0    0  0.15015492177E+01  0.29475421489E+02  0.73022202414E+01  0.30403577791E+02  0.00000000000E+00 0. -1.
        -13    1    4    4    0    0  0.86919826684E+02  0.13911766518E+02 -0.93784779794E+02  0.12862417518E+03  0.00000000000E+00 0.  1.
         13    1    4    4    0    0  0.49873819397E+02  0.84233360058E+02 -0.45671703144E+02  0.10802111495E+03  0.00000000000E+00 0. -1.
         21    1    1    2  503  502 -0.17322360618E+03 -0.96408097213E+02  0.36507352148E+03  0.41542702732E+03  0.00000000000E+00 0. -1.
          1    1    1    2  501    0  0.16871236786E+03 -0.66057147941E+02  0.38907009441E+03  0.42918870934E+03  0.00000000000E+00 0. -1.
<scales pt_clust_5="13000.00000" pt_clust_6="13000.00000" pt_clust_7="13000.00000" pt_clust_8="13000.00000" pt_clust_9="219.87828" pt_clust_10="110.58203"></scales>
<clustering>
<clus scale="   80.673">  5  6 -1 -1</clus>
<clus scale="   90.598">  7  8 -1 -1</clus>
<clus scale="  167.761">  1  5  2 -1</clus>
<clus scale="  110.582">  2 10  1 -1</clus>
<clus scale="  219.878">  1  9  2 -1</clus>
<clus scale="  110.582">  2  5  1 -1</clus>
</clustering>
</event>
<event>
10    4  0.2977685E-005  0.9403247E+02  0.7546771E-02  0.1298966E+00
         21   -1    0    0  501  502  0.00000000000E+00  0.00000000000E+00  0.85823329883E+02  0.85823329883E+02  0.00000000000E+00 0. -1.
          2   -1    0    0  503    0 -0.00000000000E+00 -0.00000000000E+00 -0.88552835607E+03  0.88552835607E+03  0.00000000000E+00 0. -1.
         24    2    1    2    0    0  0.39476747182E+01  0.63716703048E+02 -0.69050101443E+03  0.69811425018E+03  0.80600576878E+02 0.  0.
         23    2    1    2    0    0  0.39063629422E+02 -0.11753884483E+02  0.25066887270E+02  0.10220806021E+03  0.90299600171E+02 0.  0.
        -11    1    3    3    0    0  0.39804970052E+02  0.32745811678E+02 -0.26360826443E+03  0.26860015059E+03  0.00000000000E+00 0.  1.
         12    1    3    3    0    0 -0.35857295334E+02  0.30970891371E+02 -0.42689275000E+03  0.42951409959E+03  0.00000000000E+00 0. -1.
        -11    1    4    4    0    0  0.56328759686E+02 -0.32077260023E+02  0.35101509190E+02  0.73715640985E+02  0.00000000000E+00 0. -1.
         11    1    4    4    0    0 -0.17265130264E+02  0.20323375540E+02 -0.10034621920E+02  0.28492419228E+02  0.00000000000E+00 0.  1.
         21    1    1    2  503  502  0.61718878223E+01 -0.41073413564E+02 -0.10465156054E+03  0.11259248032E+03  0.00000000000E+00 0.  1.
          1    1    1    2  501    0 -0.49183191963E+02 -0.10889405002E+02 -0.29619338491E+02  0.58436895243E+02  0.00000000000E+00 0. -1.
<scales pt_clust_5="13000.00000" pt_clust_6="13000.00000" pt_clust_7="13000.00000" pt_clust_8="13000.00000" pt_clust_9="41.53453" pt_clust_10="50.59046"></scales>
<clustering>
<clus scale="   41.535">  2  9  1 -1</clus>
<clus scale="   50.590">  1 10  2 -1</clus>
<clus scale="   80.601">  5  6 -1 -1</clus>
<clus scale="   84.762">  2  5  1 -1</clus>
<clus scale="   90.300">  7  8 -1 -1</clus>
<clus scale="   50.590">  1  5  2 -1</clus>
</clustering>
</event>
<event>
10    4  0.2977685E-005  0.1008738E+03  0.7546771E-02  0.1284198E+00
         -1   -1    0    0    0  501 -0.00000000000E+00  0.00000000000E+00  0.34913689714E+03  0.34913689714E+03  0.00000000000E+00 0.  1.
         21   -1    0    0  503  502  0.00000000000E+00 -0.00000000000E+00 -0.17490137459E+03  0.17490137459E+03  0.00000000000E+00 0.  1.
         23    2    1    2    0    0  0.12615309465E+01 -0.72877937796E+01  0.85256451862E+02  0.12501861715E+03  0.91138842717E+02 0.  0.
         24    2    1    2    0    0  0.47269912151E+02 -0.10384623422E+03  0.35966218644E+02  0.14362622558E+03  0.79476026780E+02 0.  0.
        -13    1    4    4    0    0 -0.61241622466E+01 -0.51145448979E+02 -0.14132539630E+02  0.53414333197E+02  0.00000000000E+00 0.  1.
         14    1    4    4    0    0  0.53394074397E+02 -0.52700785244E+02  0.50098758274E+02  0.90211892380E+02  0.00000000000E+00 0. -1.
        -13    1    3    3    0    0 -0.30457376039E+02  0.73841739207E+01  0.84432256559E+02  0.90061000035E+02  0.00000000000E+00 0.  1.
         13    1    3    3    0    0  0.31718906986E+02 -0.14671967700E+02  0.82419530367E+00  0.34957617117E+02  0.00000000000E+00 0. -1.
         21    1    1    2  503  501  0.39505057358E+01  0.49392708912E+02  0.13275726207E+03  0.14170298805E+03  0.00000000000E+00 0. -1.
         -2    1    1    2    0  502 -0.52481948833E+02  0.61741319091E+02 -0.79744410024E+02  0.11369044096E+03  0.00000000000E+00 0.  1.
<scales pt_clust_5="13000.00000" pt_clust_6="13000.00000" pt_clust_7="13000.00000" pt_clust_8="13000.00000" pt_clust_9="49.55044" pt_clust_10="83.88924"></scales>
<clustering>
<clus scale="   49.550">  1  9  2 -1</clus>
<clus scale="   79.476">  5  6 -1 -1</clus>
<clus scale="   83.889">  2 10  1 -1</clus>
<clus scale="   90.475">  2  5  1 -1</clus>
<clus scale="   91.139">  7  8 -1 -1</clus>
<clus scale="   83.889">  2  5  1 -1</clus>
</clustering>
</event>
<event>
10    4  0.2977685E-005  0.9659879E+02  0.7546771E-02  0.1291086E+00
         21   -1    0    0  501  502  0.00000000000E+00  0.00000000000E+00  0.18616686293E+03  0.18616686293E+03  0.00000000000E+00 0. -1.
          2   -1    0    0  503    0 -0.00000000000E+00 -0.00000000000E+00 -0.12685791956E+04  0.12685791956E+04  0.00000000000E+00 0. -1.
         24    2    1    2    0    0  0.88827617997E+02 -0.59932031407E+02 -0.51743451150E+03  0.53520133319E+03  0.84969401834E+02 0.  0.
         23    2    1    2    0    0 -0.71717456293E+02 -0.42821078062E+01  0.11493598481E+03  0.16349438096E+03  0.91424296640E+02 0.  0.
        -13    1    3    3    0    0  0.31941911922E+02  0.18113911294E+02 -0.94580700948E+02  0.10145890060E+03  0.00000000000E+00 0.  1.
         14    1    3    3    0    0  0.56885706075E+02 -0.78045942701E+02 -0.42285381055E+03  0.43374243259E+03  0.00000000000E+00 0. -1.
        -11    1    4    4    0    0 -0.49680526270E+02  0.29741328323E+02  0.10775472940E+03  0.12232654254E+03  0.00000000000E+00 0.  1.
         11    1    4    4    0    0 -0.22036930024E+02 -0.34023436130E+02  0.71812554079E+01  0.41167838420E+02  0.00000000000E+00 0. -1.
         21    1    1    2  503  502 -0.65880104805E+02  0.57983745867E+02 -0.69812492572E+03  0.70361972322E+03  0.00000000000E+00 0.  1.
          1    1    1    2  501    0  0.48769943101E+02  0.62303933463E+01  0.18211119759E+02  0.52430621151E+02  0.00000000000E+00 0. -1.
<scales pt_clust_5="13000.00000" pt_clust_6="13000.00000" pt_clust_7="13000.00000" pt_clust_8="13000.00000" pt_clust_9="87.17355" pt_clust_10="49.16630"></scales>
<clustering>
<clus scale="   49.166">  1 10  2 -1</clus>
<clus scale="   84.969">  5  6 -1 -1</clus>
<clus scale="   87.174">  2  9  1 -1</clus>
<clus scale="   90.514">  2  5  1 -1</clus>
<clus scale="   91.424">  7  8 -1 -1</clus>
<clus scale="   49.166">  1  5  2 -1</clus>
</clustering>
</event>
<event>
10    4  0.2977685E-005  0.2215197E+03  0.7546771E-02  0.1174055E+00
         21   -1    0    0  501  502  0.00000000000E+00  0.00000000000E+00  0.23254569867E+03  0.23254569867E+03  0.00000000000E+00 0. -1.
          2   -1    0    0  503    0 -0.00000000000E+00 -0.00000000000E+00 -0.72769906689E+03  0.72769906689E+03  0.00000000000E+00 0. -1.
         24    2    1    2    0    0  0.15843694300E+02  0.26244509758E+02 -0.42571489879E+03  0.43438611213E+03  0.80736128337E+02 0.  0.
         23    2    1    2    0    0  0.14521531182E+02 -0.18197287946E+03 -0.46625677185E+00  0.20386576209E+03  0.90752563764E+02 0.  0.
        -13    1    3    3    0    0  0.17995664197E+02  0.52638179720E+02 -0.21781936951E+03  0.22481080852E+03  0.00000000000E+00 0.  1.
         14    1    3    3    0    0 -0.21519698963E+01 -0.26393669962E+02 -0.20789552928E+03  0.20957530361E+03  0.00000000000E+00 0. -1.
        -13    1    4    4    0    0 -0.21648859624E+02 -0.72172541040E+02 -0.35185901553E+02  0.83160065364E+02  0.00000000000E+00 0.  1.
         13    1    4    4    0    0  0.36170390806E+02 -0.10980033842E+03  0.34719644781E+02  0.12070569672E+03  0.00000000000E+00 0. -1.
         21    1    1    2  503  502 -0.39550272075E+01 -0.65705514689E+02 -0.73861220671E+02  0.98936023873E+02  0.00000000000E+00 0. -1.
          1    1    1    2  501    0 -0.26410198275E+02  0.22143388439E+03  0.48890080045E+01  0.22305686747E+03  0.00000000000E+00 0. -1.
<scales pt_clust_5="13000.00000" pt_clust_6="13000.00000" pt_clust_7="13000.00000" pt_clust_8="13000.00000" pt_clust_9="65.82444" pt_clust_10="202.07668"></scales>
<clustering>
<clus scale="   65.824">  2  9  1 -1</clus>
<clus scale="   80.736">  5  6 -1 -1</clus>
<clus scale="   83.724">  2  5  1 -1</clus>
<clus scale="   90.753">  7  8 -1 -1</clus>
<clus scale="  202.077">  1 10  2 -1</clus>
<clus scale="  202.077">  1  5  2 -1</clus>
</clustering>
</event>
<event>
10    4  0.2977685E-005  0.1926058E+03  0.7546771E-02  0.1162344E+00
          2   -1    0    0  503    0 -0.00000000000E+00  0.00000000000E+00  0.77120118781E+03  0.77120118781E+03  0.00000000000E+00 0. -1.
         21   -1    0    0  501  502  0.00000000000E+00 -0.00000000000E+00 -0.13524331774E+03  0.13524331774E+03  0.00000000000E+00 0. -1.
         23    2    1    2    0    0  0.83176124708E+02 -0.99776742628E+02  0.17311204159E+03  0.23571298577E+03  0.93376477907E+02 0.  0.
         24    2    1    2    0    0 -0.21956607802E+03 -0.26220817885E+02  0.17704247645E+03  0.29407728933E+03  0.78997593140E+02 0.  0.
        -11    1    4    4    0    0 -0.49005518400E+02  0.21841026626E+02  0.65592115356E+02  0.84740172731E+02  0.00000000000E+00 0.  1.
         12    1    4    4    0    0 -0.17056055962E+03 -0.48061844512E+02  0.11145036110E+03  0.20933711660E+03  0.00000000000E+00 0. -1.
        -13    1    3    3    0    0  0.24874765979E+02 -0.36101662830E+02  0.18028007259E+01  0.43878629560E+02  0.00000000000E+00 0.  1.
         13    1    3    3    0    0  0.58301358729E+02 -0.63675079798E+02  0.17130924087E+03  0.19183435621E+03  0.00000000000E+00 0. -1.
         21    1    1    2  503  502  0.30752977358E+02 -0.47400539143E+01  0.16931948326E+03  0.17215487544E+03  0.00000000000E+00 0. -1.
          1    1    1    2  501    0  0.10563697596E+03  0.13073761443E+03  0.11648386877E+03  0.20449935501E+03  0.00000000000E+00 0. -1.
<scales pt_clust_5="13000.00000" pt_clust_6="13000.00000" pt_clust_7="13000.00000" pt_clust_8="13000.00000" pt_clust_9="31.11613" pt_clust_10="175.65979"></scales>
<clustering>
<clus scale="   31.116">  1  9  2 -1</clus>
<clus scale="   78.998">  5  6 -1 -1</clus>
<clus scale="   93.376">  7  8 -1 -1</clus>
<clus scale="  166.639">  1  7  2 -1</clus>
<clus scale="  175.660">  2 10  1 -1</clus>
<clus scale="  175.660">  2  5  1 -1</clus>
</clustering>
</event>
<event>
10    4  0.2977685E-005  0.9998668E+02  0.7546771E-02  0.1286098E+00
         21   -1    0    0  501  502  0.00000000000E+00  0.00000000000E+00  0.55443906578E+03  0.55443906578E+03  0.00000000000E+00 0.  1.
          4   -1    0    0  503    0 -0.00000000000E+00 -0.00000000000E+00 -0.14554805394E+03  0.14554805394E+03  0.00000000000E+00 0. -1.
         24    2    1    2    0    0  0.24955197023E+02 -0.97035460912E+01 -0.11292285323E+03  0.14082808033E+03  0.79775038466E+02 0.  0.
         23    2    1    2    0    0 -0.32867105611E+02  0.28201433263E+02  0.41916604983E+03  0.43116502207E+03  0.91255309190E+02 0.  0.
        -13    1    3    3    0    0  0.31946330118E+02  0.89232657501E+00 -0.52231227812E+01  0.32382792750E+02  0.00000000000E+00 0.  1.
         14    1    3    3    0    0 -0.69911330945E+01 -0.10595872666E+02 -0.10769973044E+03  0.10844528757E+03  0.00000000000E+00 0. -1.
        -11    1    4    4    0    0  0.27838941120E+02 -0.16637665935E+01  0.67226534072E+02  0.72781739779E+02  0.00000000000E+00 0. -1.
         11    1    4    4    0    0 -0.60706046730E+02  0.29865199856E+02  0.35193951576E+03  0.35838328229E+03  0.00000000000E+00 0.  1.
         21    1    1    2  503  502  0.17616343971E+02  0.16482100945E+02  0.61530372094E+01  0.24896889231E+02  0.00000000000E+00 0.  1.
          3    1    1    2  501    0 -0.97044353833E+01 -0.34979988117E+02  0.96494778022E+02  0.10309712809E+03  0.00000000000E+00 0. -1.
<scales pt_clust_5="13000.00000" pt_clust_6="13000.00000" pt_clust_7="13000.00000" pt_clust_8="13000.00000" pt_clust_9="24.12458" pt_clust_10="35.80329"></scales>
<clustering>
<clus scale="   24.125">  2  9  1 -1</clus>
<clus scale="   35.803">  1 10  2 -1</clus>
<clus scale="   79.775">  5  6 -1 -1</clus>
<clus scale="   89.632">  2  5  1 -1</clus>
<clus scale="   91.255">  7  8 -1 -1</clus>
<clus scale="   35.803">  1  5  2 -1</clus>
</clustering>
</event>
<event>
10    4  0.2977685E-005  0.1240987E+03  0.7546771E-02  0.1251311E+00
         -3   -1    0    0    0  501 -0.00000000000E+00  0.00000000000E+00  0.24402689923E+03  0.24402689923E+03  0.00000000000E+00 0.  1.
         21   -1    0    0  503  502  0.00000000000E+00 -0.00000000000E+00 -0.26152053305E+03  0.26152053305E+03  0.00000000000E+00 0.  1.
         23    2    1    2    0    0  0.83731742910E+01 -0.55700215448E+01 -0.11870353006E+03  0.15038276665E+03  0.91778610077E+02 0.  0.
         24    2    1    2    0    0  0.39165143757E+02 -0.87868550885E+02 -0.14571714247E+02  0.12644217813E+03  0.80749605783E+02 0.  0.
        -13    1    4    4    0    0  0.44521548898E+02 -0.10133679105E+03 -0.16167951380E+02  0.11186025294E+03  0.00000000000E+00 0.  1.
         14    1    4    4    0    0 -0.53564051410E+01  0.13468240165E+02  0.15962371336E+01  0.14581925187E+02  0.00000000000E+00 0. -1.
        -11    1    3    3    0    0 -0.37071386368E+02 -0.17012325495E+02 -0.32069145516E+02  0.51885807309E+02  0.00000000000E+00 0.  1.
         11    1    3    3    0    0  0.45444560659E+02  0.11442303950E+02 -0.86634384545E+02  0.98496959337E+02  0.00000000000E+00 0. -1.
         21    1    1    2  503  501 -0.37175002058E+02 -0.71212856272E+00  0.12793322055E+03  0.13322686225E+03  0.00000000000E+00 0.  1.
         -4    1    1    2    0  502 -0.10363315990E+02  0.94150700993E+02 -0.12151610060E+02  0.95495625255E+02  0.00000000000E+00 0.  1.
<scales pt_clust_5="13000.00000" pt_clust_6="13000.00000" pt_clust_7="13000.00000" pt_clust_8="13000.00000" pt_clust_9="37.18182" pt_clust_10="94.23364"></scales>
<clustering>
<clus scale="   37.182">  1  9  2 -1</clus>
<clus scale="   80.750">  5  6 -1 -1</clus>
<clus scale="   91.779">  7  8 -1 -1</clus>
<clus scale="   92.009">  1  7  2 -1</clus>
<clus scale="   94.234">  2 10  1 -1</clus>
<clus scale="   94.234">  2  5  1 -1</clus>
</clustering>
</event>
<event>
10    4  0.2977685E-005  0.1514477E+03  0.7546771E-02  0.1202880E+00
         -1   -1    0    0    0  501 -0.00000000000E+00  0.00000000000E+00  0.73750650478E+03  0.73750650478E+03  0.00000000000E+00 0.  1.
         21   -1    0    0  503  502  0.00000000000E+00 -0.00000000000E+00 -0.11394703511E+03  0.11394703511E+03  0.00000000000E+00 0. -1.
         24    2    1    2    0    0  0.10078284452E+03  0.10535463997E+03  0.37012453166E+03  0.40539162264E+03  0.78060341127E+02 0.  0.
         23    2    1    2    0    0 -0.10281299713E+03 -0.47817161899E+02 -0.22422497326E+02  0.15248678899E+03  0.99460841944E+02 0.  0.
        -13    1    3    3    0    0  0.79673736188E+02  0.70543725714E+02  0.33541899457E+03  0.35189518808E+03  0.00000000000E+00 0.  1.
         14    1    3    3    0    0  0.21109108335E+02  0.34810914252E+02  0.34705537089E+02  0.53496434558E+02  0.00000000000E+00 0. -1.
        -11    1    4    4    0    0 -0.46825495962E+02 -0.61533057081E+02  0.21224119195E+02  0.80183585735E+02  0.00000000000E+00 0.  1.
         11    1    4    4    0    0 -0.55987501164E+02  0.13715895182E+02 -0.43646616521E+02  0.72303203255E+02  0.00000000000E+00 0. -1.
         21    1    1    2  503  501 -0.13675435414E+02 -0.42184248144E+02  0.26570270119E+03  0.26937790137E+03  0.00000000000E+00 0. -1.
         -2    1    1    2    0  502  0.15705588018E+02 -0.15353229923E+02  0.10154734140E+02  0.24197226897E+02  0.00000000000E+00 0.  1.
<scales pt_clust_5="13000.00000" pt_clust_6="13000.00000" pt_clust_7="13000.00000" pt_clust_8="13000.00000" pt_clust_9="44.51460" pt_clust_10="21.96331"></scales>
<clustering>
<clus scale="   21.963">  2 10  1 -1</clus>
<clus scale="   44.515">  1  9  2 -1</clus>
<clus scale="   78.060">  5  6 -1 -1</clus>
<clus scale="   99.461">  7  8 -1 -1</clus>
<clus scale="  138.338">  1  5  2 -1</clus>
<clus scale="   21.963">  2  5  1 -1</clus>
</clustering>
</event>
<event>
10    4  0.2977685E-005  0.1281710E+03  0.7546771E-02  0.1232806E+00
         -1   -1    0    0    0  501 -0.00000000000E+00  0.00000000000E+00  0.28763157481E+03  0.28763157481E+03  0.00000000000E+00 0.  1.
         21   -1    0    0  503  502  0.00000000000E+00 -0.00000000000E+00 -0.14665502008E+03  0.14665502008E+03  0.00000000000E+00 0.  1.
         23    2    1    2    0    0 -0.97860888855E+02  0.54057337161E+02  0.20974777417E+02  0.14520739182E+03  0.90256833990E+02 0.  0.
         24    2    1    2    0    0  0.58584101113E+02 -0.39818609040E+02 -0.17641647105E+02  0.10862636771E+03  0.80441541006E+02 0.  0.
        -11    1    4    4    0    0  0.62525243038E+02 -0.26082193945E+01  0.82532614225E+01  0.63121510989E+02  0.00000000000E+00 0.  1.
         12    1    4    4    0    0 -0.39411419254E+01 -0.37210389646E+02 -0.25894908527E+02  0.45504856718E+02  0.00000000000E+00 0. -1.
        -11    1    3    3    0    0 -0.23551851621E+02 -0.98873119279E+01  0.37918623159E+02  0.45719477624E+02  0.00000000000E+00 0. -1.
         11    1    3    3    0    0 -0.74309037234E+02  0.63944649089E+02 -0.16943845742E+02  0.99487914192E+02  0.00000000000E+00 0.  1.
         21    1    1    2  503  501 -0.16732974815E+02 -0.48027368053E+02  0.52654309950E+02  0.73205852803E+02  0.00000000000E+00 0.  1.
         -2    1    1    2    0  502  0.56009762556E+02  0.33788639933E+02  0.84989114472E+02  0.10724698256E+03  0.00000000000E+00 0.  1.
<scales pt_clust_5="13000.00000" pt_clust_6="13000.00000" pt_clust_7="13000.00000" pt_clust_8="13000.00000" pt_clust_9="50.85883" pt_clust_10="50.61567"></scales>
<clustering>
<clus scale="   50.859">  1  9  2 -1</clus>
<clus scale="   50.616">  2 10  1 -1</clus>
<clus scale="   80.442">  5  6 -1 -1</clus>
<clus scale="   90.257">  7  8 -1 -1</clus>
<clus scale="  121.459">  2  5  1 -1</clus>
<clus scale="   50.616">  2  5  1 -1</clus>
</clustering>
</event>
<event>
10    4  0.2977685E-005  0.9390855E+02  0.7546771E-02  0.1304831E+00
         21   -1    0    0  501  502  0.00000000000E+00  0.00000000000E+00  0.13488504839E+03  0.13488504839E+03  0.00000000000E+00 0.  1.
          2   -1    0    0  503    0 -0.00000000000E+00 -0.00000000000E+00 -0.39306136833E+03  0.39306136833E+03  0.00000000000E+00 0. -1.
         23    2    1    2    0    0  0.67847451528E+01 -0.18920748551E+02 -0.18614681991E+03  0.20940244520E+03  0.93780157817E+02 0.  0.
         24    2    1    2    0    0  0.51523020338E+02 -0.21020974369E+02  0.67658140759E+02  0.11613441234E+03  0.76243522544E+02 0.  0.
        -11    1    4    4    0    0  0.55148221394E+01 -0.33670345107E+02  0.58240334532E+02  0.67498459014E+02  0.00000000000E+00 0.  1.
         12    1    4    4    0    0  0.46008198199E+02  0.12649370738E+02  0.94178062268E+01  0.48635953324E+02  0.00000000000E+00 0. -1.
        -11    1    3    3    0    0  0.47502431691E+02  0.31465710618E+01 -0.11552108846E+03  0.12494600356E+03  0.00000000000E+00 0.  1.
         11    1    3    3    0    0 -0.40717686538E+02 -0.22067319612E+02 -0.70625731452E+02  0.84456441643E+02  0.00000000000E+00 0. -1.
         21    1    1    2  503  502 -0.28814000110E+01  0.26741425803E+02 -0.14283583538E+03  0.14534607730E+03  0.00000000000E+00 0. -1.
          1    1    1    2  501    0 -0.55426365480E+02  0.13200297117E+02  0.31481945884E+01  0.57063481873E+02  0.00000000000E+00 0. -1.
<scales pt_clust_5="13000.00000" pt_clust_6="13000.00000" pt_clust_7="13000.00000" pt_clust_8="13000.00000" pt_clust_9="26.89621" pt_clust_10="58.01584"></scales>
<clustering>
<clus scale="   26.896">  2  9  1 -1</clus>
<clus scale="   58.016">  1 10  2 -1</clus>
<clus scale="   76.244">  5  6 -1 -1</clus>
<clus scale="   76.401">  1  5  2 -1</clus>
<clus scale="   93.780">  7  8 -1 -1</clus>
<clus scale="   58.016">  1  5  2 -1</clus>
</clustering>
</event>
<event>
10    4  0.2977685E-005  0.3663080E+03  0.7546771E-02  0.1056304E+00
         21   -1    0    0  501  502  0.00000000000E+00  0.00000000000E+00  0.11651958425E+04  0.11651958425E+04  0.00000000000E+00 0. -1.
          2   -1    0    0  503    0 -0.00000000000E+00 -0.00000000000E+00 -0.52651595568E+03  0.52651595568E+03  0.00000000000E+00 0. -1.
         24    2    1    2    0    0  0.16662269916E+03  0.28792573216E+03 -0.34998802585E+03  0.48974643257E+03  0.81826639065E+02 0.  0.
         23    2    1    2    0    0 -0.16961943452E+03 -0.23523666698E+03  0.80295272216E+03  0.85846649689E+03  0.90136619620E+02 0.  0.
        -13    1    3    3    0    0  0.25902129428E+02  0.67932394179E+02 -0.12704350939E+03  0.14637548895E+03  0.00000000000E+00 0.  1.
         14    1    3    3    0    0  0.14072056973E+03  0.21999333798E+03 -0.22294451646E+03  0.34337094362E+03  0.00000000000E+00 0. -1.
        -11    1    4    4    0    0 -0.10232432209E+03 -0.87202176175E+02  0.27615073290E+03  0.30713793921E+03  0.00000000000E+00 0.  1.
         11    1    4    4    0    0 -0.67295112438E+02 -0.14803449081E+03  0.52680198926E+03  0.55132855768E+03  0.00000000000E+00 0. -1.
         21    1    1    2  503  502  0.47444617256E+02  0.76075380853E+01 -0.65566992777E+02  0.81288971479E+02  0.00000000000E+00 0. -1.
          1    1    1    2  501    0 -0.44447881891E+02 -0.60296603263E+02  0.25128218330E+03  0.26220989725E+03  0.00000000000E+00 0. -1.
<scales pt_clust_5="13000.00000" pt_clust_6="13000.00000" pt_clust_7="13000.00000" pt_clust_8="13000.00000" pt_clust_9="48.05066" pt_clust_10="74.49635"></scales>
<clustering>
<clus scale="   48.051">  2  9  1 -1</clus>
<clus scale="   74.496">  1 10  2 -1</clus>
<clus scale="   81.827">  5  6 -1 -1</clus>
<clus scale="   90.137">  7  8 -1 -1</clus>
<clus scale="  364.352">  2  5  1 -1</clus>
<clus scale="   74.496">  1  5  2 -1</clus>
</clustering>
</event>
<event>
10    4  0.2977685E-005  0.1136459E+03  0.7546771E-02  0.1257976E+00
         21   -1    0    0  501  502  0.00000000000E+00  0.00000000000E+00  0.38968422958E+03  0.38968422958E+03  0.00000000000E+00 0. -1.
          2   -1    0    0  503    0 -0.00000000000E+00 -0.00000000000E+00 -0.19042247754E+03  0.19042247754E+03  0.00000000000E+00 0. -1.
         24    2    1    2    0    0 -0.59579041834E+01 -0.61962862932E+02 -0.11391579849E+03  0.15283843073E+03  0.80671455659E+02 0.  0.
         23    2    1    2    0    0  0.50796269090E+02 -0.20380027455E+02  0.18075957230E+03  0.20993665145E+03  0.91672068641E+02 0.  0.
        -13    1    3    3    0    0 -0.43305644900E+02 -0.32729719709E+02 -0.56189661689E+02  0.78127405647E+02  0.00000000000E+00 0.  1.
         14    1    3    3    0    0  0.37347740717E+02 -0.29233143223E+02 -0.57726136800E+02  0.74711025085E+02  0.00000000000E+00 0. -1.
        -13    1    4    4    0    0  0.29878025766E+02 -0.32865787673E+02  0.18017433324E+03  0.18556844231E+03  0.00000000000E+00 0. -1.
         13    1    4    4    0    0  0.20918243324E+02  0.12485760217E+02  0.58523906836E+00  0.24368209141E+02  0.00000000000E+00 0.  1.
         21    1    1    2  503  502 -0.28654429193E+02 -0.12017690417E+02 -0.20278271769E+02  0.37104036186E+02  0.00000000000E+00 0. -1.
          1    1    1    2  501    0 -0.16183935713E+02  0.94360580805E+02  0.15269624999E+03  0.18022758875E+03  0.00000000000E+00 0. -1.
<scales pt_clust_5="13000.00000" pt_clust_6="13000.00000" pt_clust_7="13000.00000" pt_clust_8="13000.00000" pt_clust_9="31.07252" pt_clust_10="95.17740"></scales>
<clustering>
<clus scale="   31.073">  2  9  1 -1</clus>
<clus scale="   80.671">  5  6 -1 -1</clus>
<clus scale="   91.672">  7  8 -1 -1</clus>
<clus scale="   95.177">  1 10  2 -1</clus>
<clus scale="  104.974">  2  5  1 -1</clus>
<clus scale="   95.177">  1  5  2 -1</clus>
</clustering>
</event>
<event>
10    4  0.2977685E-005  0.1026849E+03  0.7546771E-02  0.1275143E+00
         21   -1    0    0  503  502  0.00000000000E+00  0.00000000000E+00  0.30895227072E+03  0.30895227072E+03  0.00000000000E+00 0.  1.
         -1   -1    0    0    0  501 -0.00000000000E+00 -0.00000000000E+00 -0.42167085462E+03  0.42167085462E+03  0.00000000000E+00 0.  1.
         23    2    1    2    0    0  0.23303870988E+01 -0.58852755008E+02 -0.10646555253E+03  0.14685873136E+03  0.82240474369E+02 0.  0.
         24    2    1    2    0    0 -0.29216300719E+02  0.10895896627E+03 -0.23205941072E+02  0.14207615702E+03  0.83195373263E+02 0.  0.
        -11    1    4    4    0    0  0.12027234932E+02  0.91359000057E+02 -0.29591170533E+02  0.96782016124E+02  0.00000000000E+00 0.  1.
         12    1    4    4    0    0 -0.41243535651E+02  0.17599966215E+02  0.63852294613E+01  0.45294140891E+02  0.00000000000E+00 0. -1.
        -11    1    3    3    0    0 -0.37804891031E+02 -0.15467201493E+02 -0.54862735104E+02  0.68398565855E+02  0.00000000000E+00 0.  1.
         11    1    3    3    0    0  0.40135278130E+02 -0.43385553515E+02 -0.51602817427E+02  0.78460165503E+02  0.00000000000E+00 0. -1.
         21    1    1    2  503  501 -0.14071555971E+02  0.25530916479E+02 -0.20322513781E+03  0.20530536531E+03  0.00000000000E+00 0.  1.
         -2    1    1    2    0  502  0.40957469592E+02 -0.75637127743E+02  0.22017804752E+03  0.23638287167E+03  0.00000000000E+00 0.  1.
<scales pt_clust_5="13000.00000" pt_clust_6="13000.00000" pt_clust_7="13000.00000" pt_clust_8="13000.00000" pt_clust_9="29.15195" pt_clust_10="84.92805"></scales>
<clustering>
<clus scale="   29.152">  2  9  1 -1</clus>
<clus scale="   82.240">  7  8 -1 -1</clus>
<clus scale="   83.195">  5  6 -1 -1</clus>
<clus scale="   84.928">  1 10  2 -1</clus>
<clus scale="  101.913">  2  7  1 -1</clus>
<clus scale="   84.928">  1  5  2 -1</clus>
</clustering>
</event>
<event>
10    4  0.2977685E-005  0.2078160E+03  0.7546771E-02  0.1174872E+00
         21   -1    0    0  501  502  0.00000000000E+00  0.00000000000E+00  0.16583073035E+03  0.16583073035E+03  0.00000000000E+00 0. -1.
          2   -1    0    0  503    0 -0.00000000000E+00 -0.00000000000E+00 -0.12153975156E+04  0.12153975156E+04  0.00000000000E+00 0. -1.
         24    2    1    2    0    0  0.31862263914E+02  0.42499891699E+02 -0.35296362981E+03  0.36673072637E+03  0.84182284602E+02 0.  0.
         23    2    1    2    0    0  0.60641392502E+02 -0.37098600126E+02 -0.26623206607E+02  0.11822503236E+03  0.90634863764E+02 0.  0.
        -13    1    3    3    0    0  0.22187688264E+02 -0.20261125925E+02 -0.61729058754E+02  0.68653357011E+02  0.00000000000E+00 0.  1.
         14    1    3    3    0    0  0.96745756501E+01  0.62761017624E+02 -0.29123457105E+03  0.29807736936E+03  0.00000000000E+00 0. -1.
        -11    1    4    4    0    0  0.84682033935E+01 -0.42812405895E+02  0.20014800201E+02  0.48012548301E+02  0.00000000000E+00 0.  1.
         11    1    4    4    0    0  0.52173189109E+02  0.57138057690E+01 -0.46638006807E+02  0.70212484054E+02  0.00000000000E+00 0. -1.
         21    1    1    2  503  502  0.10210216230E+03  0.97365269170E+02 -0.66113527208E+03  0.67602122390E+03  0.00000000000E+00 0. -1.
          1    1    1    2  501    0 -0.19460581871E+03 -0.10276656074E+03 -0.88446767407E+01  0.22025126331E+03  0.00000000000E+00 0. -1.
<scales pt_clust_5="13000.00000" pt_clust_6="13000.00000" pt_clust_7="13000.00000" pt_clust_8="13000.00000" pt_clust_9="13000.00000" pt_clust_10="207.81596"></scales>
<clustering>
<clus scale="   84.182">  5  6 -1 -1</clus>
<clus scale="   90.635">  7  8 -1 -1</clus>
<clus scale="   99.539">  2  5  1 -1</clus>
<clus scale="  115.537">  2  7  1 -1</clus>
<clus scale="  207.816">  1 10  2 -1</clus>
<clus scale="  207.816">  1  5  2 -1</clus>
</clustering>
</event>
<event>
10    4  0.2977685E-005  0.9423949E+02  0.7546771E-02  0.1299410E+00
          2   -1    0    0  503    0 -0.00000000000E+00  0.00000000000E+00  0.53425593703E+03  0.53425593703E+03  0.00000000000E+00 0. -1.
         21   -1    0    0  501  502  0.00000000000E+00 -0.00000000000E+00 -0.36745652981E+02  0.36745652981E+02  0.00000000000E+00 0. -1.
         24    2    1    2    0    0  0.37424371508E+02 -0.97498854793E+00  0.20829976521E+03  0.22668379285E+03  0.81210932562E+02 0.  0.
         23    2    1    2    0    0  0.20405353043E+02  0.32381469428E+02  0.17517286889E+03  0.20162252262E+03  0.92201787598E+02 0.  0.
        -11    1    3    3    0    0 -0.51955418243E+01 -0.26681773824E+02  0.13736705341E+03  0.14003077544E+03  0.00000000000E+00 0.  1.
         12    1    3    3    0    0  0.42619913332E+02  0.25706785276E+02  0.70932711802E+02  0.86653017405E+02  0.00000000000E+00 0. -1.
        -11    1    4    4    0    0  0.43156866752E+02 -0.76908570183E+01  0.42028105385E+02  0.60729120459E+02  0.00000000000E+00 0. -1.
         11    1    4    4    0    0 -0.22751513709E+02  0.40072326447E+02  0.13314476351E+03  0.14089340216E+03  0.00000000000E+00 0.  1.
         21    1    1    2  503  502 -0.19787115468E+02 -0.41846119317E+02  0.63665382484E+02  0.78714093829E+02  0.00000000000E+00 0. -1.
          1    1    1    2  501    0 -0.38042609083E+02  0.10439638437E+02  0.50372267466E+02  0.63981180719E+02  0.00000000000E+00 0. -1.
<scales pt_clust_5="13000.00000" pt_clust_6="13000.00000" pt_clust_7="13000.00000" pt_clust_8="13000.00000" pt_clust_9="48.98654" pt_clust_10="39.44903"></scales>
<clustering>
<clus scale="   39.449">  2 10  1 -1</clus>
<clus scale="   48.987">  2  9  1 -1</clus>
<clus scale="   81.211">  5  6 -1 -1</clus>
<clus scale="   83.517">  1  5  2 -1</clus>
<clus scale="   92.202">  7  8 -1 -1</clus>
<clus scale="   39.449">  2  5  1 -1</clus>
</clustering>
</event>
<event>
10    4  0.2977685E-005  0.2359617E+03  0.7546771E-02  0.1122684E+00
          2   -1    0    0  503    0 -0.00000000000E+00  0.00000000000E+00  0.77373331545E+03  0.77373331545E+03  0.00000000000E+00 0. -1.
         21   -1    0    0  501  502  0.00000000000E+00 -0.00000000000E+00 -0.26716975326E+03  0.26716975326E+03  0.00000000000E+00 0.  1.
         23    2    1    2    0    0  0.73514155503E+02  0.18922387541E+03  0.24399379375E+02  0.22205083193E+03  0.86609677067E+02 0.  0.
         24    2    1    2    0    0 -0.16917309812E+03 -0.17046070869E+03 -0.58697469779E+02  0.26105598626E+03  0.83835819722E+02 0.  0.
        -13    1    4    4    0    0 -0.15933422220E+03 -0.16810102863E+03 -0.73614076640E+02  0.24303164911E+03  0.00000000000E+00 0.  1.
         14    1    4    4    0    0 -0.98388759159E+01 -0.23596800614E+01  0.14916606861E+02  0.18024337145E+02  0.00000000000E+00 0. -1.
        -13    1    3    3    0    0  0.55150136139E+02  0.49032666223E+02  0.32051163521E+02  0.80455061719E+02  0.00000000000E+00 0. -1.
         13    1    3    3    0    0  0.18364019364E+02  0.14019120919E+03 -0.76517841467E+01  0.14159577021E+03  0.00000000000E+00 0.  1.
         21    1    1    2  503  502  0.10650684114E+03  0.79189395969E+01  0.44887223399E+03  0.46140296842E+03  0.00000000000E+00 0. -1.
          1    1    1    2  501    0 -0.10847898529E+02 -0.26682106323E+02  0.91989418598E+02  0.96393282101E+02  0.00000000000E+00 0. -1.
<scales pt_clust_5="13000.00000" pt_clust_6="13000.00000" pt_clust_7="13000.00000" pt_clust_8="13000.00000" pt_clust_9="106.49999" pt_clust_10="28.80300"></scales>
<clustering>
<clus scale="   28.803">  2 10  1 -1</clus>
<clus scale="   83.836">  5  6 -1 -1</clus>
<clus scale="   86.610">  7  8 -1 -1</clus>
<clus scale="  106.500">  1  9  2 -1</clus>
<clus scale="  234.958">  2  5  1 -1</clus>
<clus scale="   28.803">  2  5  1 -1</clus>
</clustering>
</event>
<event>
10    4  0.2977685E-005  0.1674127E+03  0.7546771E-02  0.1182074E+00
         21   -1    0    0  503  502  0.00000000000E+00  0.00000000000E+00  0.39504145963E+03  0.39504145963E+03  0.00000000000E+00 0.  1.
         -3   -1    0    0    0  501 -0.00000000000E+00 -0.00000000000E+00 -0.15665946160E+03  0.15665946160E+03  0.00000000000E+00 0.  1.
         23    2    1    2    0    0 -0.11198574093E+03  0.89981791579E+02 -0.48852705980E+02  0.17732793311E+03  0.91766442625E+02 0.  0.
         24    2    1    2    0    0  0.81563783159E+02 -0.79840934423E+02  0.26491486981E+03  0.29967243435E+03  0.81218557791E+02 0.  0.
        -11    1    4    4    0    0  0.15995883797E+02 -0.48214024868E+02  0.18375841062E+03  0.19065050214E+03  0.00000000000E+00 0.  1.
         12    1    4    4    0    0  0.65567899362E+02 -0.31626909556E+02  0.81156459195E+02  0.10902193221E+03  0.00000000000E+00 0. -1.
        -13    1    3    3    0    0 -0.60248079068E+02  0.10520807318E+02  0.15050432857E+02  0.62984394474E+02  0.00000000000E+00 0. -1.
         13    1    3    3    0    0 -0.51737661862E+02  0.79460984261E+02 -0.63903138837E+02  0.11434353864E+03  0.00000000000E+00 0.  1.
         21    1    1    2  503  501 -0.15854828848E+02 -0.13844481802E+02 -0.38648205349E+01  0.21400516628E+02  0.00000000000E+00 0.  1.
         -4    1    1    2    0  502  0.46276786620E+02  0.37036246467E+01  0.26184654729E+02  0.53300037136E+02  0.00000000000E+00 0.  1.
<scales pt_clust_5="13000.00000" pt_clust_6="13000.00000" pt_clust_7="13000.00000" pt_clust_8="13000.00000" pt_clust_9="21.04864" pt_clust_10="44.84861"></scales>
<clustering>
<clus scale="   21.049">  2  9  1 -1</clus>
<clus scale="   44.849">  1 10  2 -1</clus>
<clus scale="   81.219">  5  6 -1 -1</clus>
<clus scale="   91.766">  7  8 -1 -1</clus>
<clus scale="  161.872">  1  5  2 -1</clus>
<clus scale="   44.849">  1  5  2 -1</clus>
</clustering>
</event>
<event>
10    4  0.2977685E-005  0.2245230E+03  0.7546771E-02  0.1163327E+00
         21   -1    0    0  501  502  0.00000000000E+00  0.00000000000E+00  0.14266806408E+03  0.14266806408E+03  0.00000000000E+00 0.  1.
          2   -1    0    0  503    0 -0.00000000000E+00 -0.00000000000E+00 -0.15719903769E+04  0.15719903769E+04  0.00000000000E+00 0. -1.
         23    2    1    2    0    0 -0.15747489582E+02  0.49271753877E+02  0.68672245233E+02  0.12381664819E+03  0.89101043455E+02 0.  0.
         24    2    1    2    0    0 -0.15470987205E+03 -0.14512607629E+03 -0.33379098134E+03  0.40248057580E+03  0.74682475462E+02 0.  0.
        -11    1    4    4    0    0 -0.14083001870E+03 -0.11972249515E+03 -0.32187904557E+03  0.37117743734E+03  0.00000000000E+00 0.  1.
         12    1    4    4    0    0 -0.13879853343E+02 -0.25403581139E+02 -0.11911935773E+02  0.31303138458E+02  0.00000000000E+00 0. -1.
        -13    1    3    3    0    0 -0.95856024150E+01  0.18535348381E+02  0.85657638465E+02  0.88162769583E+02  0.00000000000E+00 0.  1.
         13    1    3    3    0    0 -0.61618871667E+01  0.30736405496E+02 -0.16985393232E+02  0.35653878604E+02  0.00000000000E+00 0. -1.
         21    1    1    2  503  502 -0.59163905830E+01 -0.23004063032E+02 -0.17090568406E+03  0.17254837999E+03  0.00000000000E+00 0. -1.
          1    1    1    2  501    0  0.17637375221E+03  0.11885838544E+03 -0.99329789263E+03  0.10158128370E+04  0.00000000000E+00 0. -1.
<scales pt_clust_5="13000.00000" pt_clust_6="13000.00000" pt_clust_7="13000.00000" pt_clust_8="13000.00000" pt_clust_9="23.75270" pt_clust_10="211.73839"></scales>
<clustering>
<clus scale="   23.753">  2  9  1 -1</clus>
<clus scale="   74.682">  5  6 -1 -1</clus>
<clus scale="   89.101">  7  8 -1 -1</clus>
<clus scale="  102.830">  2  7  1 -1</clus>
<clus scale="  211.738">  1 10  2 -1</clus>
<clus scale="  211.738">  1  5  2 -1</clus>
</clustering>
</event>
<event>
10    4  0.2977685E-005  0.1021402E+03  0.7546771E-02  0.1284775E+00
         -1   -1    0    0    0  501 -0.00000000000E+00  0.00000000000E+00  0.26700610675E+03  0.26700610675E+03  0.00000000000E+00 0.  1.
         21   -1    0    0  503  502  0.00000000000E+00 -0.00000000000E+00 -0.11629347338E+03  0.11629347338E+03  0.00000000000E+00 0. -1.
         23    2    1    2    0    0  0.11263223577E+02  0.40986247685E+02  0.14042061565E+03  0.17514095863E+03  0.95653925093E+02 0.  0.
         24    2    1    2    0    0 -0.52761095411E+02 -0.37534227677E+02 -0.20755804110E+02  0.10378785157E+03  0.78412775058E+02 0.  0.
        -13    1    4    4    0    0 -0.38810031306E+02 -0.14577310814E+02  0.26660913488E+02  0.49290169695E+02  0.00000000000E+00 0.  1.
         14    1    4    4    0    0 -0.13951064105E+02 -0.22956916862E+02 -0.47416717599E+02  0.54497681871E+02  0.00000000000E+00 0. -1.
        -13    1    3    3    0    0  0.48679290290E+02 -0.66262329152E+00  0.64822555951E+02  0.81068342359E+02  0.00000000000E+00 0. -1.
         13    1    3    3    0    0 -0.37416066713E+02  0.41648870976E+02  0.75598059695E+02  0.94072616268E+02  0.00000000000E+00 0.  1.
         21    1    1    2  503  501  0.14670542541E+02 -0.44471876243E+02  0.29472727073E+02  0.55331855528E+02  0.00000000000E+00 0. -1.
         -2    1    1    2    0  502  0.26827329292E+02  0.41019856234E+02  0.15750947605E+01  0.49038914404E+02  0.00000000000E+00 0.  1.
<scales pt_clust_5="13000.00000" pt_clust_6="13000.00000" pt_clust_7="13000.00000" pt_clust_8="13000.00000" pt_clust_9="46.82919" pt_clust_10="45.91055"></scales>
<clustering>
<clus scale="   46.829">  1  9  2 -1</clus>
<clus scale="   45.911">  2 10  1 -1</clus>
<clus scale="   78.413">  5  6 -1 -1</clus>
<clus scale="   86.206">  2  5  1 -1</clus>
<clus scale="   95.654">  7  8 -1 -1</clus>
<clus scale="   45.911">  2  5  1 -1</clus>
</clustering>
</event>
<event>
10    4  0.2977685E-005  0.1443513E+03  0.7546771E-02  0.1230449E+00
         21   -1    0    0  501  502  0.00000000000E+00  0.00000000000E+00  0.66649871351E+02  0.66649871351E+02  0.00000000000E+00 0. -1.
          2   -1    0    0  503    0 -0.00000000000E+00 -0.00000000000E+00 -0.12770646472E+04  0.12770646472E+04  0.00000000000E+00 0. -1.
         24    2    1    2    0    0  0.29991857690E+02  0.19947081439E+02 -0.84658075664E+03  0.85112841126E+03  0.80144852260E+02 0.  0.
         23    2    1    2    0    0  0.85109624629E+02  0.18702898460E+02 -0.20387052962E+03  0.23743617991E+03  0.84966464366E+02 0.  0.
        -13    1    3    3    0    0 -0.30092040807E+01  0.32288203932E+02 -0.14151647766E+03  0.14518435478E+03  0.00000000000E+00 0.  1.
         14    1    3    3    0    0  0.33001061771E+02 -0.12341122493E+02 -0.70506427898E+03  0.70594405648E+03  0.00000000000E+00 0. -1.
        -13    1    4    4    0    0  0.78928819098E+01 -0.27626974764E+02 -0.74165618277E+02  0.79536697529E+02  0.00000000000E+00 0.  1.
         13    1    4    4    0    0  0.77216742720E+02  0.46329873225E+02 -0.12970491134E+03  0.15789948238E+03  0.00000000000E+00 0. -1.
         21    1    1    2  503  502  0.11972432687E+02 -0.18589367087E+02 -0.11766872288E+03  0.11972815899E+03  0.00000000000E+00 0. -1.
          1    1    1    2  501    0 -0.12707391501E+03 -0.20060612812E+02 -0.42294766703E+02  0.13542176838E+03  0.00000000000E+00 0. -1.
<scales pt_clust_5="13000.00000" pt_clust_6="13000.00000" pt_clust_7="13000.00000" pt_clust_8="13000.00000" pt_clust_9="22.11117" pt_clust_10="116.69616"></scales>
<clustering>
<clus scale="   22.111">  2  9  1 -1</clus>
<clus scale="   80.145">  5  6 -1 -1</clus>
<clus scale="   84.966">  7  8 -1 -1</clus>
<clus scale="   89.252">  2  5  1 -1</clus>
<clus scale="  116.696">  1 10  2 -1</clus>
<clus scale="  116.696">  1  5  2 -1</clus>
</clustering>
</event>
<event>
10    4  0.2977685E-005  0.1064859E+03  0.7546771E-02  0.1271744E+00
         21   -1    0    0  501  502  0.00000000000E+00  0.00000000000E+00  0.13345384338E+03  0.13345384338E+03  0.00000000000E+00 0. -1.
          2   -1    0    0  503    0 -0.00000000000E+00 -0.00000000000E+00 -0.19531902469E+03  0.19531902469E+03  0.00000000000E+00 0. -1.
         24    2    1    2    0    0  0.11222903075E+02 -0.38823821939E+02 -0.42299709632E+02  0.99973242893E+02  0.81068743399E+02 0.  0.
         23    2    1    2    0    0 -0.21294468224E+01  0.90449690640E+02  0.31295537436E+02  0.13251007264E+03  0.91617834554E+02 0.  0.
        -13    1    3    3    0    0 -0.33650116757E+02 -0.28911859625E+02 -0.16965464110E+02  0.47497925820E+02  0.00000000000E+00 0.  1.
         14    1    3    3    0    0  0.44873019832E+02 -0.99119623140E+01 -0.25334245522E+02  0.52475317073E+02  0.00000000000E+00 0. -1.
        -13    1    4    4    0    0 -0.36736488638E+02  0.78809341169E+02  0.38831917460E+02  0.95228145349E+02  0.00000000000E+00 0. -1.
         13    1    4    4    0    0  0.34607041816E+02  0.11640349471E+02 -0.75363800242E+01  0.37281927296E+02  0.00000000000E+00 0.  1.
         21    1    1    2  503  502 -0.23106332827E+02 -0.45806388147E+01 -0.39363186213E+02  0.45873143531E+02  0.00000000000E+00 0. -1.
          1    1    1    2  501    0  0.14012876574E+02 -0.47045229886E+02 -0.11497822909E+02  0.50416409001E+02  0.00000000000E+00 0. -1.
<scales pt_clust_5="13000.00000" pt_clust_6="13000.00000" pt_clust_7="13000.00000" pt_clust_8="13000.00000" pt_clust_9="23.55599" pt_clust_10="48.87244"></scales>
<clustering>
<clus scale="   23.556">  2  9  1 -1</clus>
<clus scale="   48.872">  1 10  2 -1</clus>
<clus scale="   81.069">  5  6 -1 -1</clus>
<clus scale="   91.618">  7  8 -1 -1</clus>
<clus scale="   97.558">  2  5  1 -1</clus>
<clus scale="   48.872">  1  5  2 -1</clus>
</clustering>
</event>
<event>
10    4  0.2977685E-005  0.1328675E+03  0.7546771E-02  0.1233891E+00
         21   -1    0    0  501  502  0.00000000000E+00  0.00000000000E+00  0.32999351918E+03  0.32999351918E+03  0.00000000000E+00 0. -1.
          2   -1    0    0  503    0 -0.00000000000E+00 -0.00000000000E+00 -0.27762596027E+03  0.27762596027E+03  0.00000000000E+00 0. -1.
         23    2    1    2    0    0  0.30829175431E+02  0.67856015383E+02 -0.10709839926E+03  0.15887903901E+03  0.90651006795E+02 0.  0.
         24    2    1    2    0    0 -0.63124009791E+02  0.93528548182E+02  0.68366841348E+02  0.15454670469E+03  0.80488688633E+02 0.  0.
        -13    1    4    4    0    0 -0.18433742735E+02 -0.12282953804E+02  0.20254192978E+02  0.30015098842E+02  0.00000000000E+00 0.  1.
         14    1    4    4    0    0 -0.44690267057E+02  0.10581150199E+03  0.48112648371E+02  0.12453160585E+03  0.00000000000E+00 0. -1.
        -13    1    3    3    0    0 -0.18274788524E+02 -0.13211566479E+02 -0.19268597364E+02  0.29661291759E+02  0.00000000000E+00 0.  1.
         13    1    3    3    0    0  0.49103963954E+02  0.81067581862E+02 -0.87829801892E+02  0.12921774725E+03  0.00000000000E+00 0. -1.
         21    1    1    2  503  502  0.24020195630E+02 -0.54662632713E+02 -0.75447222144E+02  0.96214637881E+02  0.00000000000E+00 0. -1.
          1    1    1    2  501    0  0.82746387310E+01 -0.10672193085E+03  0.16654633897E+03  0.19797909787E+03  0.00000000000E+00 0. -1.
<scales pt_clust_5="13000.00000" pt_clust_6="13000.00000" pt_clust_7="13000.00000" pt_clust_8="13000.00000" pt_clust_9="59.70740" pt_clust_10="105.71349"></scales>
<clustering>
<clus scale="   59.707">  2  9  1 -1</clus>
<clus scale="   80.489">  5  6 -1 -1</clus>
<clus scale="   90.651">  7  8 -1 -1</clus>
<clus scale="  106.628">  2  7  1 -1</clus>
<clus scale="  105.713">  1 10  2 -1</clus>
<clus scale="  105.713">  1  5  2 -1</clus>
</clustering>
</event>
<event>
10    4  0.2977685E-005  0.1022098E+03  0.7546771E-02  0.1280573E+00
         21   -1    0    0  501  502  0.00000000000E+00  0.00000000000E+00  0.29405820818E+02  0.29405820818E+02  0.00000000000E+00 0.  1.
          2   -1    0    0  503    0 -0.00000000000E+00 -0.00000000000E+00 -0.93592772713E+03  0.93592772713E+03  0.00000000000E+00 0. -1.
         24    2    1    2    0    0  0.29647909585E+02  0.75864901596E+02 -0.56858803831E+03  0.58007175245E+03  0.80971592856E+02 0.  0.
         23    2    1    2    0    0 -0.32559365024E+02 -0.10766195070E+02 -0.15302566873E+03  0.18143073764E+03  0.91237240557E+02 0.  0.
        -13    1    3    3    0    0  0.57648045266E+01  0.86645467213E+02 -0.47558557991E+03  0.48344835689E+03  0.00000000000E+00 0.  1.
         14    1    3    3    0    0  0.23883105059E+02 -0.10780565617E+02 -0.93002458397E+02  0.96623395564E+02  0.00000000000E+00 0. -1.
        -13    1    4    4    0    0 -0.63339729232E+02  0.30617959765E+01 -0.10663490358E+03  0.12406570258E+03  0.00000000000E+00 0. -1.
         13    1    4    4    0    0  0.30780364209E+02 -0.13827991047E+02 -0.46390765147E+02  0.57365035066E+02  0.00000000000E+00 0.  1.
         21    1    1    2  503  502 -0.16167897137E+02 -0.37418602540E+02 -0.14969917224E+03  0.15514958873E+03  0.00000000000E+00 0. -1.
          1    1    1    2  501    0  0.19079352575E+02 -0.27680103986E+02 -0.35209027038E+02  0.48681469126E+02  0.00000000000E+00 0. -1.
<scales pt_clust_5="13000.00000" pt_clust_6="13000.00000" pt_clust_7="13000.00000" pt_clust_8="13000.00000" pt_clust_9="43.04351" pt_clust_10="33.61859"></scales>
<clustering>
<clus scale="   33.619">  1 10  2 -1</clus>
<clus scale="   43.044">  2  9  1 -1</clus>
<clus scale="   80.972">  5  6 -1 -1</clus>
<clus scale="   91.237">  7  8 -1 -1</clus>
<clus scale="   93.161">  2  5  1 -1</clus>
<clus scale="   33.619">  1  5  2 -1</clus>
</clustering>
</event>
<event>
10    4  0.2977685E-005  0.1298850E+03  0.7546771E-02  0.1248682E+00
         21   -1    0    0  501  502  0.00000000000E+00  0.00000000000E+00  0.17062525655E+03  0.17062525655E+03  0.00000000000E+00 0. -1.
          2   -1    0    0  503    0 -0.00000000000E+00 -0.00000000000E+00 -0.28331504370E+03  0.28331504370E+03  0.00000000000E+00 0. -1.
         24    2    1    2    0    0  0.18869886488E+02 -0.13055954403E+02 -0.16321285972E+03  0.18393083237E+03  0.81643021479E+02 0.  0.
         23    2    1    2    0    0 -0.88655600442E+02  0.87412653327E+00  0.30384777900E+01  0.12738916443E+03  0.91423122246E+02 0.  0.
        -11    1    3    3    0    0  0.30009555832E+02  0.20936566481E+02 -0.34324247094E+02  0.50170381659E+02  0.00000000000E+00 0.  1.
         12    1    3    3    0    0 -0.11139669345E+02 -0.33992520884E+02 -0.12888861263E+03  0.13376045071E+03  0.00000000000E+00 0. -1.
        -13    1    4    4    0    0 -0.78806675702E+02  0.23218236276E+02  0.33175464790E+02  0.88601298495E+02  0.00000000000E+00 0. -1.
         13    1    4    4    0    0 -0.98489247396E+01 -0.22344109743E+02 -0.30136987000E+02  0.38787865940E+02  0.00000000000E+00 0.  1.
         21    1    1    2  503  502 -0.21586511693E+02 -0.12895362772E+02 -0.14850959826E+02  0.29203062782E+02  0.00000000000E+00 0. -1.
          1    1    1    2  501    0  0.91372225647E+02  0.25077190642E+02  0.62335554610E+02  0.11341724066E+03  0.00000000000E+00 0. -1.
<scales pt_clust_5="13000.00000" pt_clust_6="13000.00000" pt_clust_7="13000.00000" pt_clust_8="13000.00000" pt_clust_9="25.14494" pt_clust_10="92.26014"></scales>
<clustering>
<clus scale="   25.145">  2  9  1 -1</clus>
<clus scale="   81.643">  5  6 -1 -1</clus>
<clus scale="   84.579">  2  5  1 -1</clus>
<clus scale="   91.423">  7  8 -1 -1</clus>
<clus scale="   92.260">  1 10  2 -1</clus>
<clus scale="   92.260">  1  5  2 -1</clus>
</clustering>
</event>
<event>
10    4  0.2977685E-005  0.1049211E+03  0.7546771E-02  0.1273101E+00
         21   -1    0    0  501  502  0.00000000000E+00  0.00000000000E+00  0.25708702523E+03  0.25708702523E+03  0.00000000000E+00 0. -1.
          2   -1    0    0  503    0 -0.00000000000E+00 -0.00000000000E+00 -0.79047066335E+03  0.79047066335E+03  0.00000000000E+00 0. -1.
         24    2    1    2    0    0 -0.99274673358E+01  0.10226633296E+03 -0.31086181570E+03  0.33913282543E+03  0.88425377352E+02 0.  0.
         23    2    1    2    0    0 -0.29463735394E+02 -0.42848153401E+02 -0.39799859087E+02  0.11508279389E+03  0.94635853212E+02 0.  0.
        -11    1    3    3    0    0 -0.38510077245E+02  0.55745798746E+02 -0.96391589739E+02  0.11782172423E+03  0.00000000000E+00 0.  1.
         12    1    3    3    0    0  0.28582609909E+02  0.46520534214E+02 -0.21447022596E+03  0.22131110120E+03  0.00000000000E+00 0. -1.
        -13    1    4    4    0    0  0.17251120115E+02  0.21955935377E+02 -0.13189916736E+02  0.30881032156E+02  0.00000000000E+00 0. -1.
         13    1    4    4    0    0 -0.46714855508E+02 -0.64804088778E+02 -0.26609942350E+02  0.84201761736E+02  0.00000000000E+00 0.  1.
         21    1    1    2  503  502  0.40049731291E+02 -0.87521022775E+02 -0.38105711772E+03  0.39302472870E+03  0.00000000000E+00 0. -1.
          1    1    1    2  501    0 -0.65852856119E+00  0.28102843216E+02  0.19833515440E+03  0.20031734055E+03  0.00000000000E+00 0. -1.
<scales pt_clust_5="13000.00000" pt_clust_6="13000.00000" pt_clust_7="13000.00000" pt_clust_8="13000.00000" pt_clust_9="93.58054" pt_clust_10="28.11056"></scales>
<clustering>
<clus scale="   28.111">  1 10  2 -1</clus>
<clus scale="   88.425">  5  6 -1 -1</clus>
<clus scale="   93.581">  2  9  1 -1</clus>
<clus scale="   94.636">  7  8 -1 -1</clus>
<clus scale="   99.356">  2  5  1 -1</clus>
<clus scale="   28.111">  1  5  2 -1</clus>
</clustering>
</event>
<event>
10    4  0.2977685E-005  0.9384473E+02  0.7546771E-02  0.1300376E+00
          2   -1    0    0  503    0 -0.00000000000E+00  0.00000000000E+00  0.53814490784E+03  0.53814490784E+03  0.00000000000E+00 0. -1.
         21   -1    0    0  501  502  0.00000000000E+00 -0.00000000000E+00 -0.13865727493E+03  0.13865727493E+03  0.00000000000E+00 0. -1.
         23    2    1    2    0    0  0.20845697222E+02 -0.10692425503E+02  0.44455094402E+03  0.45438107290E+03  0.91037061270E+02 0.  0.
         24    2    1    2    0    0  0.19872343504E+02  0.55916384767E+02 -0.49658945286E+02  0.11122572080E+03  0.79897421729E+02 0.  0.
        -13    1    4    4    0    0 -0.18213284697E+02 -0.11701245933E+02 -0.14296587969E+02  0.25942924341E+02  0.00000000000E+00 0.  1.
         14    1    4    4    0    0  0.38085628201E+02  0.67617630700E+02 -0.35362357316E+02  0.85282796459E+02  0.00000000000E+00 0. -1.
        -13    1    3    3    0    0 -0.33104816956E+02  0.12352525086E+02  0.16543018843E+03  0.16916164171E+03  0.00000000000E+00 0.  1.
         13    1    3    3    0    0  0.53950514178E+02 -0.23044950589E+02  0.27912075559E+03  0.28521943119E+03  0.00000000000E+00 0. -1.
         21    1    1    2  503  502 -0.45276392582E+01 -0.43244445777E+02  0.41044476192E+02  0.59793232340E+02  0.00000000000E+00 0. -1.
          1    1    1    2  501    0 -0.36190401468E+02 -0.19795134879E+01 -0.36448842022E+02  0.51402156733E+02  0.00000000000E+00 0. -1.
<scales pt_clust_5="13000.00000" pt_clust_6="13000.00000" pt_clust_7="13000.00000" pt_clust_8="13000.00000" pt_clust_9="44.19069" pt_clust_10="36.24450"></scales>
<clustering>
<clus scale="   36.244">  2 10  1 -1</clus>
<clus scale="   44.191">  2  9  1 -1</clus>
<clus scale="   79.897">  5  6 -1 -1</clus>
<clus scale="   83.082">  2  5  1 -1</clus>
<clus scale="   91.037">  7  8 -1 -1</clus>
<clus scale="   36.244">  2  5  1 -1</clus>
</clustering>
</event>
<event>
10    4  0.2977685E-005  0.1889617E+03  0.7546771E-02  0.1160530E+00
          2   -1    0    0  503    0 -0.00000000000E+00  0.00000000000E+00  0.16116888716E+04  0.16116888716E+04  0.00000000000E+00 0. -1.
         21   -1    0    0  501  502  0.00000000000E+00 -0.00000000000E+00 -0.13253701133E+03  0.13253701133E+03  0.00000000000E+00 0. -1.
         24    2    1    2    0    0 -0.57580101508E+02 -0.20672673163E+03  0.41692556655E+03  0.47590306648E+03  0.81273556479E+02 0.  0.
         23    2    1    2    0    0  0.51419174013E+02  0.13196568858E+03  0.14794899420E+03  0.22445892133E+03  0.91836964577E+02 0.  0.
        -11    1    3    3    0    0  0.17528013088E+02 -0.54787559550E+02  0.13815519344E+03  0.14965214799E+03  0.00000000000E+00 0.  1.
         12    1    3    3    0    0 -0.75108114597E+02 -0.15193917208E+03  0.27877037311E+03  0.32625091849E+03  0.00000000000E+00 0. -1.
        -11    1    4    4    0    0 -0.26736549999E+02  0.28762173634E+02  0.37220307961E+02  0.54105979916E+02  0.00000000000E+00 0. -1.
         11    1    4    4    0    0  0.78155724013E+02  0.10320351495E+03  0.11072868624E+03  0.17035294142E+03  0.00000000000E+00 0.  1.
         21    1    1    2  503  502  0.12857452487E+03  0.49711672477E+02  0.90837412577E+03  0.91877429828E+03  0.00000000000E+00 0. -1.
          1    1    1    2  501    0 -0.12241359737E+03  0.25049370573E+02  0.59031738017E+01  0.12508959689E+03  0.00000000000E+00 0. -1.
<scales pt_clust_5="13000.00000" pt_clust_6="13000.00000" pt_clust_7="13000.00000" pt_clust_8="13000.00000" pt_clust_9="130.44338" pt_clust_10="124.95023"></scales>
<clustering>
<clus scale="   81.274">  5  6 -1 -1</clus>
<clus scale="   91.837">  7  8 -1 -1</clus>
<clus scale="  124.950">  2 10  1 -1</clus>
<clus scale="  130.443">  1  9  2 -1</clus>
<clus scale="  184.059">  1  5  2 -1</clus>
<clus scale="  124.950">  2  5  1 -1</clus>
</clustering>
</event>
<event>
10    4  0.2977685E-005  0.1091250E+03  0.7546771E-02  0.1265537E+00
         21   -1    0    0  501  502  0.00000000000E+00  0.00000000000E+00  0.11298794000E+03  0.11298794000E+03  0.00000000000E+00 0.  1.
          2   -1    0    0  503    0 -0.00000000000E+00 -0.00000000000E+00 -0.10048358282E+04  0.10048358282E+04  0.00000000000E+00 0. -1.
         24    2    1    2    0    0 -0.60401720072E+02  0.21098882802E+02 -0.77534684317E+03  0.78240991285E+03  0.83120478021E+02 0.  0.
         23    2    1    2    0    0  0.40924195249E+02  0.26310585537E+02  0.56208500589E+02  0.11786179032E+03  0.91460206707E+02 0.  0.
        -11    1    3    3    0    0 -0.41538693893E+02  0.35983870136E+02 -0.22777954473E+03  0.23431564821E+03  0.00000000000E+00 0.  1.
         12    1    3    3    0    0 -0.18863026179E+02 -0.14884987334E+02 -0.54756729844E+03  0.54809426464E+03  0.00000000000E+00 0. -1.
        -13    1    4    4    0    0  0.66908952670E+02  0.13660260203E+02  0.19260315933E+02  0.70953297500E+02  0.00000000000E+00 0.  1.
         13    1    4    4    0    0 -0.25984757421E+02  0.12650325334E+02  0.36948184656E+02  0.46908492820E+02  0.00000000000E+00 0. -1.
         21    1    1    2  503  502  0.13609409355E+01 -0.35086029612E+02 -0.18773114608E+03  0.19098655670E+03  0.00000000000E+00 0. -1.
          1    1    1    2  501    0  0.18116583887E+02 -0.12323438727E+02  0.15021600437E+02  0.26565508342E+02  0.00000000000E+00 0. -1.
<scales pt_clust_5="13000.00000" pt_clust_6="13000.00000" pt_clust_7="13000.00000" pt_clust_8="13000.00000" pt_clust_9="35.34359" pt_clust_10="21.91068"></scales>
<clustering>
<clus scale="   21.911">  1 10  2 -1</clus>
<clus scale="   35.344">  2  9  1 -1</clus>
<clus scale="   83.120">  5  6 -1 -1</clus>
<clus scale="   91.460">  7  8 -1 -1</clus>
<clus scale="  102.237">  2  5  1 -1</clus>
<clus scale="   21.911">  1  5  2 -1</clus>
</clustering>
</event>
<event>
10    4  0.2977685E-005  0.1373028E+03  0.7546771E-02  0.1217188E+00
          4   -1    0    0  503    0 -0.00000000000E+00  0.00000000000E+00  0.84954682592E+03  0.84954682592E+03  0.00000000000E+00 0. -1.
         21   -1    0    0  501  502  0.00000000000E+00 -0.00000000000E+00 -0.37708044007E+02  0.37708044007E+02  0.00000000000E+00 0.  1.
         24    2    1    2    0    0  0.83673547524E+02  0.10213588779E+03  0.50342483527E+03  0.52843370044E+03  0.91501960945E+02 0.  0.
         23    2    1    2    0    0 -0.42438091012E+02 -0.58948377592E+02  0.20880764449E+03  0.23896432577E+03  0.90705092495E+02 0.  0.
        -11    1    3    3    0    0  0.47114290606E+02  0.17364989060E+01  0.92207045858E+02  0.10356114674E+03  0.00000000000E+00 0.  1.
         12    1    3    3    0    0  0.36559256919E+02  0.10039938888E+03  0.41121778942E+03  0.42487255370E+03  0.00000000000E+00 0. -1.
        -11    1    4    4    0    0 -0.63999207570E+01 -0.36728071417E+02  0.18823755789E+03  0.19189395097E+03  0.00000000000E+00 0. -1.
         11    1    4    4    0    0 -0.36038170255E+02 -0.22220306175E+02  0.20570086599E+02  0.47070374808E+02  0.00000000000E+00 0.  1.
         21    1    1    2  503  502 -0.19511239394E+02 -0.70845470152E+01  0.53560755069E+02  0.57442438603E+02  0.00000000000E+00 0. -1.
          3    1    1    2  501    0 -0.21724217118E+02 -0.36102963183E+02  0.46045547079E+02  0.62414405115E+02  0.00000000000E+00 0. -1.
<scales pt_clust_5="13000.00000" pt_clust_6="13000.00000" pt_clust_7="13000.00000" pt_clust_8="13000.00000" pt_clust_9="20.75763" pt_clust_10="43.24591"></scales>
<clustering>
<clus scale="   20.758">  1  9  2 -1</clus>
<clus scale="   43.246">  2 10  1 -1</clus>
<clus scale="   90.705">  7  8 -1 -1</clus>
<clus scale="   91.502">  5  6 -1 -1</clus>
<clus scale="  136.773">  2  7  1 -1</clus>
<clus scale="   43.246">  2  5  1 -1</clus>
</clustering>
</event>
<event>
10    4  0.2977685E-005  0.1726075E+03  0.7546771E-02  0.1206826E+00
         21   -1    0    0  501  502  0.00000000000E+00  0.00000000000E+00  0.99794787913E+02  0.99794787913E+02  0.00000000000E+00 0. -1.
          2   -1    0    0  503    0 -0.00000000000E+00 -0.00000000000E+00 -0.78332337892E+03  0.78332337892E+03  0.00000000000E+00 0. -1.
         24    2    1    2    0    0 -0.18200247254E+01 -0.31072870307E+02 -0.87983854195E+02  0.12291326995E+03  0.79985483508E+02 0.  0.
         23    2    1    2    0    0  0.57518818201E+02  0.18417440274E+03 -0.37505807243E+03  0.43070747683E+03  0.87245331292E+02 0.  0.
        -13    1    3    3    0    0  0.30053078812E+02 -0.40135932345E+02 -0.67026241202E+02  0.83705421694E+02  0.00000000000E+00 0.  1.
         14    1    3    3    0    0 -0.31873103538E+02  0.90630620387E+01 -0.20957612994E+02  0.39207848258E+02  0.00000000000E+00 0. -1.
        -11    1    4    4    0    0  0.31380760311E+02  0.17785839600E+03 -0.35047909807E+03  0.39427650111E+03  0.00000000000E+00 0. -1.
         11    1    4    4    0    0  0.26138057890E+02  0.63160067432E+01 -0.24578974363E+02  0.36430975724E+02  0.00000000000E+00 0.  1.
         21    1    1    2  503  502  0.58835310952E+02 -0.66809172547E+02 -0.13753151509E+03  0.16382910912E+03  0.00000000000E+00 0. -1.
          1    1    1    2  501    0 -0.11453410443E+03 -0.86292359890E+02 -0.82955149290E+02  0.16566831093E+03  0.00000000000E+00 0. -1.
<scales pt_clust_5="13000.00000" pt_clust_6="13000.00000" pt_clust_7="13000.00000" pt_clust_8="13000.00000" pt_clust_9="94.06500" pt_clust_10="148.93487"></scales>
<clustering>
<clus scale="   79.985">  5  6 -1 -1</clus>
<clus scale="   85.828">  2  5  1 -1</clus>
<clus scale="   87.245">  7  8 -1 -1</clus>
<clus scale="   94.065">  2  9  1 -1</clus>
<clus scale="  148.935">  1 10  2 -1</clus>
<clus scale="  148.935">  1  5  2 -1</clus>
</clustering>
</event>
<event>
10    4  0.2977685E-005  0.2773148E+03  0.7546771E-02  0.1097165E+00
          2   -1    0    0  503    0 -0.00000000000E+00  0.00000000000E+00  0.18503932779E+03  0.18503932779E+03  0.00000000000E+00 0. -1.
         21   -1    0    0  501  502  0.00000000000E+00 -0.00000000000E+00 -0.47396511886E+03  0.47396511886E+03  0.00000000000E+00 0.  1.
         24    2    1    2    0    0  0.13063338407E+03 -0.10310760451E+03 -0.21772825634E+03  0.28558525114E+03  0.80355976265E+02 0.  0.
         23    2    1    2    0    0  0.24592396108E+02 -0.74879895469E+00 -0.82908217974E+02  0.12403874560E+03  0.88918452284E+02 0.  0.
        -11    1    3    3    0    0  0.58612215952E+02 -0.39853998539E+02 -0.15661339977E+03  0.17190546834E+03  0.00000000000E+00 0.  1.
         12    1    3    3    0    0  0.72021168113E+02 -0.63253605967E+02 -0.61114856574E+02  0.11367978280E+03  0.00000000000E+00 0. -1.
        -11    1    4    4    0    0 -0.10935446823E+02  0.25052530650E+02 -0.74468147115E+02  0.79326655192E+02  0.00000000000E+00 0.  1.
         11    1    4    4    0    0  0.35527842931E+02 -0.25801329605E+02 -0.84400708593E+01  0.44712090410E+02  0.00000000000E+00 0. -1.
         21    1    1    2  503  502 -0.21192264956E+02 -0.23825843755E+02  0.50993809422E+02  0.60142759531E+02  0.00000000000E+00 0.  1.
          1    1    1    2  501    0 -0.13403351522E+03  0.12768224722E+03 -0.39283126175E+02  0.18923769037E+03  0.00000000000E+00 0. -1.
<scales pt_clust_5="13000.00000" pt_clust_6="13000.00000" pt_clust_7="13000.00000" pt_clust_8="13000.00000" pt_clust_9="31.88703" pt_clust_10="185.40549"></scales>
<clustering>
<clus scale="   31.887">  1  9  2 -1</clus>
<clus scale="   80.356">  5  6 -1 -1</clus>
<clus scale="   88.918">  7  8 -1 -1</clus>
<clus scale="   89.725">  5  7 -1 -1</clus>
<clus scale="  185.405">  2 10  1 -1</clus>
<clus scale="  185.405">  2  5  1 -1</clus>
</clustering>
</event>
<event>
10    4  0.2977685E-005  0.4144323E+03  0.7546771E-02  0.1039068E+00
          2   -1    0    0  503    0 -0.00000000000E+00  0.00000000000E+00  0.23689461606E+04  0.23689461606E+04  0.00000000000E+00 0. -1.
         21   -1    0    0  501  502  0.00000000000E+00 -0.00000000000E+00 -0.10424652122E+03  0.10424652122E+03  0.00000000000E+00 0. -1.
         24    2    1    2    0    0  0.68053687059E+02 -0.41361643037E+03  0.12346202385E+04  0.13062592310E+04  0.79474458797E+02 0.  0.
         23    2    1    2    0    0 -0.89428839020E+02  0.35553361922E+03  0.57656765613E+03  0.68912124415E+03  0.89756088369E+02 0.  0.
        -11    1    3    3    0    0 -0.17371869753E+02 -0.80474683199E+02  0.21691984126E+03  0.23201761577E+03  0.00000000000E+00 0.  1.
         12    1    3    3    0    0  0.85425556812E+02 -0.33314174717E+03  0.10177003972E+04  0.10742416152E+04  0.00000000000E+00 0. -1.
        -13    1    4    4    0    0 -0.46398720518E+02  0.14830796037E+03  0.32590843752E+03  0.36106010860E+03  0.00000000000E+00 0.  1.
         13    1    4    4    0    0 -0.43030118502E+02  0.20722565886E+03  0.25065921861E+03  0.32806113556E+03  0.00000000000E+00 0. -1.
         21    1    1    2  503  502  0.17303877032E+02 -0.37841943117E+02  0.24170603574E+03  0.24526158389E+03  0.00000000000E+00 0.  1.
          1    1    1    2  501    0  0.40712749289E+01  0.95924754261E+02  0.21180570905E+03  0.23255062276E+03  0.00000000000E+00 0. -1.
<scales pt_clust_5="13000.00000" pt_clust_6="13000.00000" pt_clust_7="13000.00000" pt_clust_8="13000.00000" pt_clust_9="41.61054" pt_clust_10="92.15690"></scales>
<clustering>
<clus scale="   41.611">  1  9  2 -1</clus>
<clus scale="   79.474">  5  6 -1 -1</clus>
<clus scale="   89.756">  7  8 -1 -1</clus>
<clus scale="   92.157">  2 10  1 -1</clus>
<clus scale="  412.328">  1  5  2 -1</clus>
<clus scale="   92.157">  2  5  1 -1</clus>
</clustering>
</event>
<event>
10    4  0.2977685E-005  0.1053184E+03  0.7546771E-02  0.1273511E+00
         21   -1    0    0  501  502  0.00000000000E+00  0.00000000000E+00  0.23590758900E+02  0.23590758900E+02  0.00000000000E+00 0. -1.
          2   -1    0    0  503    0 -0.00000000000E+00 -0.00000000000E+00 -0.72009938203E+03  0.72009938203E+03  0.00000000000E+00 0. -1.
         23    2    1    2    0    0 -0.40838948417E+02 -0.33721738102E+02 -0.37494690141E+03  0.38912109566E+03  0.89582771125E+02 0.  0.
         24    2    1    2    0    0  0.45876870310E+02  0.37141690051E+02 -0.22127115356E+03  0.24264658539E+03  0.80201306918E+02 0.  0.
        -11    1    4    4    0    0  0.48841749175E+02 -0.12225005536E+01 -0.17871919894E+03  0.18527699005E+03  0.00000000000E+00 0.  1.
         12    1    4    4    0    0 -0.29648788650E+01  0.38364190605E+02 -0.42551954619E+02  0.57369595339E+02  0.00000000000E+00 0. -1.
        -11    1    3    3    0    0 -0.54308740884E+02 -0.41603681744E+01 -0.32504440298E+03  0.32957641285E+03  0.00000000000E+00 0. -1.
         11    1    3    3    0    0  0.13469792467E+02 -0.29561369928E+02 -0.49902498426E+02  0.59544682804E+02  0.00000000000E+00 0.  1.
         21    1    1    2  503  502 -0.59827055792E+01 -0.25839740745E+02 -0.63670209367E+02  0.68973766960E+02  0.00000000000E+00 0. -1.
          1    1    1    2  501    0  0.94478368626E+00  0.22419788796E+02 -0.36620358797E+02  0.42948692929E+02  0.00000000000E+00 0. -1.
<scales pt_clust_5="13000.00000" pt_clust_6="13000.00000" pt_clust_7="13000.00000" pt_clust_8="13000.00000" pt_clust_9="23.66619" pt_clust_10="22.43969"></scales>
<clustering>
<clus scale="   22.440">  1 10  2 -1</clus>
<clus scale="   23.666">  1  9  2 -1</clus>
<clus scale="   80.201">  5  6 -1 -1</clus>
<clus scale="   89.583">  7  8 -1 -1</clus>
<clus scale="   97.464">  1  5  2 -1</clus>
<clus scale="   22.440">  1  5  2 -1</clus>
</clustering>
</event>
<event>
10    4  0.2977685E-005  0.1276092E+03  0.7546771E-02  0.1247430E+00
          2   -1    0    0  503    0 -0.00000000000E+00  0.00000000000E+00  0.65347469086E+03  0.65347469086E+03  0.00000000000E+00 0. -1.
         21   -1    0    0  501  502  0.00000000000E+00 -0.00000000000E+00 -0.11061621577E+03  0.11061621577E+03  0.00000000000E+00 0. -1.
         24    2    1    2    0    0 -0.33428594859E+02 -0.23088511635E+02  0.20176538702E+03  0.22050856678E+03  0.79146739037E+02 0.  0.
         23    2    1    2    0    0 -0.39579493440E+02 -0.29736757302E+02 -0.38810801795E+00  0.10514140655E+03  0.92756421386E+02 0.  0.
        -13    1    3    3    0    0 -0.53812031470E+02 -0.25786294684E+02  0.18366545576E+03  0.19311568389E+03  0.00000000000E+00 0.  1.
         14    1    3    3    0    0  0.20383436611E+02  0.26977830484E+01  0.18099931261E+02  0.27392882891E+02  0.00000000000E+00 0. -1.
        -13    1    4    4    0    0 -0.26627033703E+02 -0.56621488392E+02  0.23580164098E+02  0.66865656434E+02  0.00000000000E+00 0.  1.
         13    1    4    4    0    0 -0.12952459736E+02  0.26884731089E+02 -0.23968272116E+02  0.38275750119E+02  0.00000000000E+00 0. -1.
         21    1    1    2  503  502  0.11043513794E+03  0.70069452217E+02  0.36724651620E+03  0.38984054624E+03  0.00000000000E+00 0. -1.
          1    1    1    2  501    0 -0.37427049646E+02 -0.17244183279E+02 -0.25765320117E+02  0.48600387065E+02  0.00000000000E+00 0. -1.
<scales pt_clust_5="13000.00000" pt_clust_6="13000.00000" pt_clust_7="13000.00000" pt_clust_8="13000.00000" pt_clust_9="87.63769" pt_clust_10="41.20857"></scales>
<clustering>
<clus scale="   41.209">  2 10  1 -1</clus>
<clus scale="   79.147">  5  6 -1 -1</clus>
<clus scale="   91.451">  1  5  2 -1</clus>
<clus scale="   87.638">  1  9  2 -1</clus>
<clus scale="   92.756">  7  8 -1 -1</clus>
<clus scale="   41.209">  2  5  1 -1</clus>
</clustering>
</event>
<event>
10    4  0.2977685E-005  0.1327415E+03  0.7546771E-02  0.1227020E+00
         21   -1    0    0  503  502  0.00000000000E+00  0.00000000000E+00  0.63603125157E+03  0.63603125157E+03  0.00000000000E+00 0. -1.
         -1   -1    0    0    0  501 -0.00000000000E+00 -0.00000000000E+00 -0.93585259989E+02  0.93585259989E+02  0.00000000000E+00 0.  1.
         23    2    1    2    0    0 -0.54400185731E+02 -0.57352618985E+02  0.48179930838E+01  0.12232064224E+03  0.93222440160E+02 0.  0.
         24    2    1    2    0    0  0.21697181034E+02  0.13931113653E+03  0.29462486604E+03  0.33605841098E+03  0.79076440702E+02 0.  0.
        -11    1    4    4    0    0 -0.23489346608E+02  0.89519883158E+02  0.14498612324E+03  0.17200736849E+03  0.00000000000E+00 0.  1.
         12    1    4    4    0    0  0.45186527642E+02  0.49791253370E+02  0.14963874281E+03  0.16405104249E+03  0.00000000000E+00 0. -1.
        -11    1    3    3    0    0 -0.71427260505E+02 -0.68760078794E+02  0.13504139832E+02  0.10006080037E+03  0.00000000000E+00 0.  1.
         11    1    3    3    0    0  0.17027074775E+02  0.11407459809E+02 -0.86861467484E+01  0.22259841868E+02  0.00000000000E+00 0. -1.
         21    1    1    2  503  501  0.15396930201E+02 -0.21690143468E+02  0.76543925381E+01  0.27678827800E+02  0.00000000000E+00 0.  1.
         -2    1    1    2    0  502  0.17306074496E+02 -0.60268374076E+02  0.23534873991E+03  0.24355863053E+03  0.00000000000E+00 0.  1.
<scales pt_clust_5="13000.00000" pt_clust_6="13000.00000" pt_clust_7="13000.00000" pt_clust_8="13000.00000" pt_clust_9="26.59939" pt_clust_10="63.93807"></scales>
<clustering>
<clus scale="   26.599">  2  9  1 -1</clus>
<clus scale="   63.938">  1 10  2 -1</clus>
<clus scale="   79.076">  5  6 -1 -1</clus>
<clus scale="   93.222">  7  8 -1 -1</clus>
<clus scale="  123.219">  1  5  2 -1</clus>
<clus scale="   63.938">  1  5  2 -1</clus>
</clustering>
</event>
<event>
10    4  0.2977685E-005  0.1042615E+03  0.7546771E-02  0.1276417E+00
         21   -1    0    0  501  502  0.00000000000E+00  0.00000000000E+00  0.16278110175E+02  0.16278110175E+02  0.00000000000E+00 0.  1.
          2   -1    0    0  503    0 -0.00000000000E+00 -0.00000000000E+00 -0.11677219376E+04  0.11677219376E+04  0.00000000000E+00 0. -1.
         24    2    1    2    0    0  0.29479564507E+02 -0.43795515313E+02 -0.50168955804E+03  0.51092834729E+03  0.81044873524E+02 0.  0.
         23    2    1    2    0    0 -0.31293170652E+02  0.40145342857E+02 -0.44309170537E+03  0.45533832313E+03  0.91715964040E+02 0.  0.
        -11    1    3    3    0    0  0.32014970123E+02  0.66328789669E+01 -0.83034365320E+02  0.89239336727E+02  0.00000000000E+00 0.  1.
         12    1    3    3    0    0 -0.25354056158E+01 -0.50428394280E+02 -0.41865519272E+03  0.42168901056E+03  0.00000000000E+00 0. -1.
        -11    1    4    4    0    0 -0.47883612448E+02 -0.11422319387E+02 -0.24952540523E+03  0.25433489256E+03  0.00000000000E+00 0. -1.
         11    1    4    4    0    0  0.16590441796E+02  0.51567662244E+02 -0.19356630014E+03  0.20100343056E+03  0.00000000000E+00 0.  1.
         21    1    1    2  503  502  0.45271291345E+01  0.27983749683E+02 -0.17707094496E+03  0.17932569446E+03  0.00000000000E+00 0.  1.
          1    1    1    2  501    0 -0.27135229889E+01 -0.24333577227E+02 -0.29591619050E+02  0.38407682899E+02  0.00000000000E+00 0. -1.
<scales pt_clust_5="13000.00000" pt_clust_6="13000.00000" pt_clust_7="13000.00000" pt_clust_8="13000.00000" pt_clust_9="26.02522" pt_clust_10="24.48441"></scales>
<clustering>
<clus scale="   24.484">  1 10  2 -1</clus>
<clus scale="   26.025">  2  9  1 -1</clus>
<clus scale="   81.045">  5  6 -1 -1</clus>
<clus scale="   91.716">  7  8 -1 -1</clus>
<clus scale="   95.010">  2  5  1 -1</clus>
<clus scale="   24.484">  1  5  2 -1</clus>
</clustering>
</event>
<event>
10    4  0.2977685E-005  0.2515148E+03  0.7546771E-02  0.1113033E+00
          2   -1    0    0  503    0 -0.00000000000E+00  0.00000000000E+00  0.22144082410E+04  0.22144082410E+04  0.00000000000E+00 0. -1.
         21   -1    0    0  501  502  0.00000000000E+00 -0.00000000000E+00 -0.49789239628E+02  0.49789239628E+02  0.00000000000E+00 0.  1.
         23    2    1    2    0    0  0.21846563974E+03  0.17796977676E+03  0.13105369560E+04  0.13435774813E+04  0.91065131561E+02 0.  0.
         24    2    1    2    0    0 -0.12334013409E+03 -0.14087747930E+03  0.53611451404E+03  0.57325546854E+03  0.78382441861E+02 0.  0.
        -11    1    4    4    0    0 -0.17251513772E+02 -0.77506565650E+02  0.21213842081E+03  0.22651179226E+03  0.00000000000E+00 0.  1.
         12    1    4    4    0    0 -0.10608862032E+03 -0.63370913655E+02  0.32397609323E+03  0.34674367628E+03  0.00000000000E+00 0. -1.
        -13    1    3    3    0    0  0.13968363457E+02  0.17432904459E+02  0.32965959399E+02  0.39821800746E+02  0.00000000000E+00 0. -1.
         13    1    3    3    0    0  0.20449727628E+03  0.16053687230E+03  0.12775709966E+04  0.13037556806E+04  0.00000000000E+00 0.  1.
         21    1    1    2  503  502 -0.31124853540E+02  0.55588635246E+01  0.22266765768E+03  0.22490118552E+03  0.00000000000E+00 0.  1.
          1    1    1    2  501    0 -0.64000652104E+02 -0.42651160975E+02  0.95299873660E+02  0.12246334522E+03  0.00000000000E+00 0. -1.
<scales pt_clust_5="13000.00000" pt_clust_6="13000.00000" pt_clust_7="13000.00000" pt_clust_8="13000.00000" pt_clust_9="31.61736" pt_clust_10="78.16760"></scales>
<clustering>
<clus scale="   31.617">  1  9  2 -1</clus>
<clus scale="   78.168">  2 10  1 -1</clus>
<clus scale="   78.382">  5  6 -1 -1</clus>
<clus scale="   91.065">  7  8 -1 -1</clus>
<clus scale="  247.206">  2  5  1 -1</clus>
<clus scale="   78.168">  2  5  1 -1</clus>
</clustering>
</event>
<event>
10    4  0.2977685E-005  0.1495301E+03  0.7546771E-02  0.1220412E+00
         21   -1    0    0  501  502  0.00000000000E+00  0.00000000000E+00  0.33146050716E+02  0.33146050716E+02  0.00000000000E+00 0. -1.
          2   -1    0    0  503    0 -0.00000000000E+00 -0.00000000000E+00 -0.16618087617E+04  0.16618087617E+04  0.00000000000E+00 0. -1.
         23    2    1    2    0    0  0.38070087678E+02 -0.23530847486E+02 -0.39708472437E+03  0.40980937448E+03  0.90908815448E+02 0.  0.
         24    2    1    2    0    0 -0.98600990139E+02  0.66214940875E+02 -0.27563102415E+03  0.31054281620E+03  0.79735848716E+02 0.  0.
        -13    1    4    4    0    0 -0.93182388331E+01  0.47125850897E+02 -0.63710477188E+02  0.79791605456E+02  0.00000000000E+00 0.  1.
         14    1    4    4    0    0 -0.89282751306E+02  0.19089089978E+02 -0.21192054696E+03  0.23075121075E+03  0.00000000000E+00 0. -1.
        -11    1    3    3    0    0 -0.13091219868E+02  0.16334829214E+02 -0.27417196932E+02  0.34495062990E+02  0.00000000000E+00 0.  1.
         11    1    3    3    0    0  0.51161307547E+02 -0.39865676700E+02 -0.36966752744E+03  0.37531431149E+03  0.00000000000E+00 0. -1.
         21    1    1    2  503  502  0.12132674974E+03 -0.12707344348E+02 -0.61184568048E+03  0.62388844638E+03  0.00000000000E+00 0.  1.
          1    1    1    2  501    0 -0.60795847276E+02 -0.29976749041E+02 -0.34410128197E+03  0.35071417534E+03  0.00000000000E+00 0. -1.
<scales pt_clust_5="13000.00000" pt_clust_6="13000.00000" pt_clust_7="13000.00000" pt_clust_8="13000.00000" pt_clust_9="126.49684" pt_clust_10="67.78455"></scales>
<clustering>
<clus scale="   67.785">  1 10  2 -1</clus>
<clus scale="   79.736">  5  6 -1 -1</clus>
<clus scale="   90.909">  7  8 -1 -1</clus>
<clus scale="   98.945">  2  7  1 -1</clus>
<clus scale="  126.497">  2  9  1 -1</clus>
<clus scale="   67.785">  1  5  2 -1</clus>
</clustering>
</event>
<event>
10    4  0.2977685E-005  0.1113080E+03  0.7546771E-02  0.1260976E+00
         -1   -1    0    0    0  501 -0.00000000000E+00  0.00000000000E+00  0.49176449717E+03  0.49176449717E+03  0.00000000000E+00 0.  1.
         21   -1    0    0  503  502  0.00000000000E+00 -0.00000000000E+00 -0.67968668568E+02  0.67968668568E+02  0.00000000000E+00 0.  1.
         24    2    1    2    0    0 -0.40206407665E+02 -0.11500224414E+02  0.22329285110E+03  0.24124729137E+03  0.81189579753E+02 0.  0.
         23    2    1    2    0    0  0.96188338922E+02  0.49580144600E+02  0.15102652184E+03  0.20593066131E+03  0.88814636672E+02 0.  0.
        -11    1    3    3    0    0 -0.24755509333E+02  0.31642732069E+02  0.14564892513E+03  0.15108840831E+03  0.00000000000E+00 0.  1.
         12    1    3    3    0    0 -0.15450898332E+02 -0.43142956483E+02  0.77643925971E+02  0.90158883055E+02  0.00000000000E+00 0. -1.
        -13    1    4    4    0    0  0.97493578127E+02  0.21494684724E+02  0.14675272453E+03  0.17749191926E+03  0.00000000000E+00 0. -1.
         13    1    4    4    0    0 -0.13052392051E+01  0.28085459877E+02  0.42737973085E+01  0.28438742048E+02  0.00000000000E+00 0.  1.
         21    1    1    2  503  501 -0.14653104430E+02 -0.17352962810E+02  0.60842648328E+02  0.64943565065E+02  0.00000000000E+00 0.  1.
         -2    1    1    2    0  502 -0.41328826826E+02 -0.20726957376E+02 -0.11366192665E+02  0.47611647993E+02  0.00000000000E+00 0.  1.
<scales pt_clust_5="13000.00000" pt_clust_6="13000.00000" pt_clust_7="13000.00000" pt_clust_8="13000.00000" pt_clust_9="22.71208" pt_clust_10="47.11877"></scales>
<clustering>
<clus scale="   22.712">  1  9  2 -1</clus>
<clus scale="   47.119">  2 10  1 -1</clus>
<clus scale="   81.190">  5  6 -1 -1</clus>
<clus scale="   88.815">  7  8 -1 -1</clus>
<clus scale="  105.324">  1  5  2 -1</clus>
<clus scale="   47.119">  2  5  1 -1</clus>
</clustering>
</event>
<event>
10    4  0.2977685E-005  0.1590523E+03  0.7546771E-02  0.1204380E+00
          2   -1    0    0  503    0 -0.00000000000E+00  0.00000000000E+00  0.71136026832E+03  0.71136026832E+03  0.00000000000E+00 0. -1.
         21   -1    0    0  501  502  0.00000000000E+00 -0.00000000000E+00 -0.27995413305E+03  0.27995413305E+03  0.00000000000E+00 0.  1.
         23    2    1    2    0    0  0.92886965723E+02 -0.85104859862E+02  0.51978935021E+03  0.54285168385E+03  0.92930923212E+02 0.  0.
         24    2    1    2    0    0  0.95394574875E+02  0.46707943950E+02 -0.17559145143E+03  0.21919534719E+03  0.77022629595E+02 0.  0.
        -11    1    4    4    0    0  0.69558195620E+02 -0.43339154281E+01 -0.12358371204E+03  0.14188044010E+03  0.00000000000E+00 0.  1.
         12    1    4    4    0    0  0.25836379255E+02  0.51041859378E+02 -0.52007739391E+02  0.77314907090E+02  0.00000000000E+00 0. -1.
        -13    1    3    3    0    0  0.66126740131E+02 -0.20559960256E+01  0.27912566810E+03  0.28685904460E+03  0.00000000000E+00 0. -1.
         13    1    3    3    0    0  0.26760225592E+02 -0.83048863837E+02  0.24066368212E+03  0.25599263925E+03  0.00000000000E+00 0.  1.
         21    1    1    2  503  502 -0.15417770310E+03  0.31268240246E+02  0.10598649358E+03  0.18968817518E+03  0.00000000000E+00 0.  1.
          1    1    1    2  501    0 -0.34103837498E+02  0.71286756665E+01 -0.18778257096E+02  0.39579195146E+02  0.00000000000E+00 0. -1.
<scales pt_clust_5="13000.00000" pt_clust_6="13000.00000" pt_clust_7="13000.00000" pt_clust_8="13000.00000" pt_clust_9="129.07937" pt_clust_10="34.84092"></scales>
<clustering>
<clus scale="   34.841">  2 10  1 -1</clus>
<clus scale="   77.023">  5  6 -1 -1</clus>
<clus scale="   92.931">  7  8 -1 -1</clus>
<clus scale="  115.624">  2  5  1 -1</clus>
<clus scale="  129.079">  2  9  1 -1</clus>
<clus scale="   34.841">  2  5  1 -1</clus>
</clustering>
</event>
<event>
10    4  0.2977685E-005  0.1165244E+03  0.7546771E-02  0.1252530E+00
         21   -1    0    0  501  502  0.00000000000E+00  0.00000000000E+00  0.61755956894E+03  0.61755956894E+03  0.00000000000E+00 0. -1.
          2   -1    0    0  503    0 -0.00000000000E+00 -0.00000000000E+00 -0.27285167338E+03  0.27285167338E+03  0.00000000000E+00 0. -1.
         24    2    1    2    0    0 -0.86672108648E+02 -0.54693218673E+02 -0.21455293575E+03  0.25126872069E+03  0.81237954020E+02 0.  0.
         23    2    1    2    0    0  0.85177174745E+02 -0.18598598832E+02  0.27140638479E+03  0.29945396875E+03  0.91707113792E+02 0.  0.
        -13    1    3    3    0    0 -0.44293766842E+02 -0.63390475368E+02 -0.86119139780E+02  0.11574453069E+03  0.00000000000E+00 0.  1.
         14    1    3    3    0    0 -0.42378341806E+02  0.86972566959E+01 -0.12843379597E+03  0.13552419000E+03  0.00000000000E+00 0. -1.
        -13    1    4    4    0    0  0.34326486107E+02  0.36257940000E+02  0.84695156132E+02  0.98316912756E+02  0.00000000000E+00 0. -1.
         13    1    4    4    0    0  0.50850688638E+02 -0.54856538833E+02  0.18671122866E+03  0.20113705600E+03  0.00000000000E+00 0.  1.
         21    1    1    2  503  502  0.40989144943E+02 -0.18708643011E+01  0.15519861780E+01  0.41061159232E+02  0.00000000000E+00 0. -1.
          1    1    1    2  501    0 -0.39494211039E+02  0.75162681806E+02  0.28630246034E+03  0.29862739365E+03  0.00000000000E+00 0. -1.
<scales pt_clust_5="13000.00000" pt_clust_6="13000.00000" pt_clust_7="13000.00000" pt_clust_8="13000.00000" pt_clust_9="41.03182" pt_clust_10="84.40699"></scales>
<clustering>
<clus scale="   41.032">  2  9  1 -1</clus>
<clus scale="   81.238">  5  6 -1 -1</clus>
<clus scale="   84.407">  1 10  2 -1</clus>
<clus scale="   91.707">  7  8 -1 -1</clus>
<clus scale="  108.477">  2  5  1 -1</clus>
<clus scale="   84.407">  1  5  2 -1</clus>
</clustering>
</event>
<event>
10    4  0.2977685E-005  0.3085573E+03  0.7546771E-02  0.1130699E+00
          2   -1    0    0  503    0 -0.00000000000E+00  0.00000000000E+00  0.12208091267E+04  0.12208091267E+04  0.00000000000E+00 0. -1.
         21   -1    0    0  501  502  0.00000000000E+00 -0.00000000000E+00 -0.26954060633E+03  0.26954060633E+03  0.00000000000E+00 0.  1.
         24    2    1    2    0    0 -0.27949528767E+02  0.60974504482E+00  0.11237138507E+03  0.14162514585E+03  0.81540209753E+02 0.  0.
         23    2    1    2    0    0 -0.12673243120E+03 -0.17636009366E+03 -0.13141616424E+03  0.26943771912E+03  0.90346469248E+02 0.  0.
        -11    1    3    3    0    0  0.30154759944E+01 -0.36879281059E+02  0.40580819906E+02  0.54917915211E+02  0.00000000000E+00 0.  1.
         12    1    3    3    0    0 -0.30965004761E+02  0.37489026104E+02  0.71790565167E+02  0.86707230639E+02  0.00000000000E+00 0. -1.
        -11    1    4    4    0    0 -0.63850370593E+02 -0.87671286691E+02 -0.13901214166E+02  0.10934517863E+03  0.00000000000E+00 0. -1.
         11    1    4    4    0    0 -0.62882060610E+02 -0.88688806967E+02 -0.11751495007E+03  0.16009254048E+03  0.00000000000E+00 0.  1.
         21    1    1    2  503  502  0.25850232800E+03  0.20024544455E+03  0.50291692620E+03  0.59987259173E+03  0.00000000000E+00 0. -1.
          1    1    1    2  501    0 -0.10382036803E+03 -0.24495095941E+02  0.46739637335E+03  0.47941427634E+03  0.00000000000E+00 0. -1.
<scales pt_clust_5="13000.00000" pt_clust_6="13000.00000" pt_clust_7="13000.00000" pt_clust_8="13000.00000" pt_clust_9="295.03407" pt_clust_10="118.42264"></scales>
<clustering>
<clus scale="   81.540">  5  6 -1 -1</clus>
<clus scale="   86.199">  1  5  2 -1</clus>
<clus scale="   90.346">  7  8 -1 -1</clus>
<clus scale="  118.423">  2 10  1 -1</clus>
<clus scale="  295.034">  1  9  2 -1</clus>
<clus scale="  118.423">  2  5  1 -1</clus>
</clustering>
</event>
<event>
10    4  0.2977685E-005  0.1563274E+03  0.7546771E-02  0.1195028E+00
         21   -1    0    0  501  502  0.00000000000E+00  0.00000000000E+00  0.51100475291E+03  0.51100475291E+03  0.00000000000E+00 0.  1.
          2   -1    0    0  503    0 -0.00000000000E+00 -0.00000000000E+00 -0.22994203224E+03  0.22994203224E+03  0.00000000000E+00 0. -1.
         23    2    1    2    0    0 -0.14785895793E+03  0.17502123502E+02 -0.37385703531E+01  0.17486491673E+03  0.91625140806E+02 0.  0.
         24    2    1    2    0    0  0.12515839949E+03 -0.70285989856E+02  0.30507487444E+03  0.34626285932E+03  0.78883099585E+02 0.  0.
        -13    1    4    4    0    0  0.74249906951E+02 -0.57645776392E+02  0.26211819623E+03  0.27846370142E+03  0.00000000000E+00 0.  1.
         14    1    4    4    0    0  0.50908492535E+02 -0.12640213464E+02  0.42956678214E+02  0.67799157899E+02  0.00000000000E+00 0. -1.
        -11    1    3    3    0    0 -0.77713382609E+02  0.43631155066E+02 -0.32229201253E+02  0.94772194986E+02  0.00000000000E+00 0. -1.
         11    1    3    3    0    0 -0.70145575321E+02 -0.26129031563E+02  0.28490630900E+02  0.80092721746E+02  0.00000000000E+00 0.  1.
         21    1    1    2  503  502  0.38857978233E+02  0.23278275113E+02 -0.11269929560E+03  0.12146172975E+03  0.00000000000E+00 0. -1.
          1    1    1    2  501    0 -0.16157419789E+02  0.29505591241E+02  0.92425712183E+02  0.98357279350E+02  0.00000000000E+00 0. -1.
<scales pt_clust_5="13000.00000" pt_clust_6="13000.00000" pt_clust_7="13000.00000" pt_clust_8="13000.00000" pt_clust_9="45.31214" pt_clust_10="33.63989"></scales>
<clustering>
<clus scale="   33.640">  1 10  2 -1</clus>
<clus scale="   45.312">  2  9  1 -1</clus>
<clus scale="   78.883">  5  6 -1 -1</clus>
<clus scale="   91.625">  7  8 -1 -1</clus>
<clus scale="  149.217">  1  5  2 -1</clus>
<clus scale="   33.640">  1  5  2 -1</clus>
</clustering>
</event>
<event>
10    4  0.2977685E-005  0.1379184E+03  0.7546771E-02  0.1238289E+00
         21   -1    0    0  501  502  0.00000000000E+00  0.00000000000E+00  0.61021163171E+03  0.61021163171E+03  0.00000000000E+00 0.  1.
          2   -1    0    0  503    0 -0.00000000000E+00 -0.00000000000E+00 -0.11261346217E+03  0.11261346217E+03  0.00000000000E+00 0. -1.
         24    2    1    2    0    0  0.69730407736E+01  0.41661181411E+02  0.14972715394E+02  0.93053917024E+02  0.81551038822E+02 0.  0.
         23    2    1    2    0    0 -0.18195579505E+02  0.88439177822E+02  0.15447025746E+03  0.20180990276E+03  0.93346714590E+02 0.  0.
        -13    1    3    3    0    0  0.41260319116E+02  0.10934773565E+02 -0.47869571920E+01  0.42952277770E+02  0.00000000000E+00 0.  1.
         14    1    3    3    0    0 -0.34287278342E+02  0.30726407847E+02  0.19759672586E+02  0.50101639254E+02  0.00000000000E+00 0. -1.
        -11    1    4    4    0    0 -0.64857364180E+01  0.20154578594E+02 -0.99465540098E+01  0.23392429370E+02  0.00000000000E+00 0. -1.
         11    1    4    4    0    0 -0.11709843087E+02  0.68284599228E+02  0.16441681147E+03  0.17841747339E+03  0.00000000000E+00 0.  1.
         21    1    1    2  503  502  0.10288890894E+02 -0.24624539312E+02 -0.38269957250E+02  0.46656391203E+02  0.00000000000E+00 0. -1.
          1    1    1    2  501    0  0.93364783673E+00 -0.10547581992E+03  0.36642515394E+03  0.38130488290E+03  0.00000000000E+00 0. -1.
<scales pt_clust_5="13000.00000" pt_clust_6="13000.00000" pt_clust_7="13000.00000" pt_clust_8="13000.00000" pt_clust_9="26.68762" pt_clust_10="101.52778"></scales>
<clustering>
<clus scale="   26.688">  2  9  1 -1</clus>
<clus scale="   81.551">  5  6 -1 -1</clus>
<clus scale="   87.140">  2  5  1 -1</clus>
<clus scale="   93.347">  7  8 -1 -1</clus>
<clus scale="  101.528">  1 10  2 -1</clus>
<clus scale="  101.528">  1  5  2 -1</clus>
</clustering>
</event>
<event>
10    4  0.2977685E-005  0.1310832E+03  0.7546771E-02  0.1228494E+00
         -1   -1    0    0    0  501 -0.00000000000E+00  0.00000000000E+00  0.15700706886E+03  0.15700706886E+03  0.00000000000E+00 0.  1.
         21   -1    0    0  503  502  0.00000000000E+00 -0.00000000000E+00 -0.53735985340E+03  0.53735985340E+03  0.00000000000E+00 0. -1.
         23    2    1    2    0    0 -0.89456132488E+02 -0.10240545540E+03 -0.57075793829E+01  0.16391087886E+03  0.91350549046E+02 0.  0.
         24    2    1    2    0    0 -0.76788233561E+02  0.70708156538E+02 -0.26441285953E+03  0.29559139257E+03  0.81018731552E+02 0.  0.
        -13    1    4    4    0    0 -0.21808011299E+02  0.50664957161E+02 -0.53996632475E+02  0.77189141462E+02  0.00000000000E+00 0.  1.
         14    1    4    4    0    0 -0.54980222262E+02  0.20043199377E+02 -0.21041622705E+03  0.21840225111E+03  0.00000000000E+00 0. -1.
        -13    1    3    3    0    0 -0.20544698292E+02 -0.86841313783E+02 -0.20889494308E+02  0.91650801306E+02  0.00000000000E+00 0.  1.
         13    1    3    3    0    0 -0.68911434196E+02 -0.15564141613E+02  0.15181914925E+02  0.72260077552E+02  0.00000000000E+00 0. -1.
         21    1    1    2  503  501  0.99969293876E+02 -0.17299124862E+01  0.23531246866E+01  0.10001194684E+03  0.00000000000E+00 0.  1.
         -2    1    1    2    0  502  0.66275072173E+02  0.33427211344E+02 -0.11258547031E+03  0.13485270399E+03  0.00000000000E+00 0.  1.
<scales pt_clust_5="13000.00000" pt_clust_6="13000.00000" pt_clust_7="13000.00000" pt_clust_8="13000.00000" pt_clust_9="107.81570" pt_clust_10="74.22778"></scales>
<clustering>
<clus scale="   74.228">  2 10  1 -1</clus>
<clus scale="   81.019">  5  6 -1 -1</clus>
<clus scale="   91.351">  7  8 -1 -1</clus>
<clus scale="  107.816">  1  9  2 -1</clus>
<clus scale="  124.104">  2  5  1 -1</clus>
<clus scale="   74.228">  2  5  1 -1</clus>
</clustering>
</event>
<event>
10    4  0.2977685E-005  0.1064920E+03  0.7546771E-02  0.1273855E+00
         -3   -1    0    0    0  501 -0.00000000000E+00  0.00000000000E+00  0.41670553477E+03  0.41670553477E+03  0.00000000000E+00 0.  1.
         21   -1    0    0  503  502  0.00000000000E+00 -0.00000000000E+00 -0.16457336580E+03  0.16457336580E+03  0.00000000000E+00 0.  1.
         23    2    1    2    0    0  0.81293881521E+01 -0.45701303819E+02  0.10099129521E+03  0.14663783064E+03  0.95648918162E+02 0.  0.
         24    2    1    2    0    0  0.40870272139E+02  0.83022899486E+02 -0.98394490944E+02  0.15755705139E+03  0.81114533915E+02 0.  0.
        -11    1    4    4    0    0  0.58190191722E+02  0.27665691952E+02 -0.43864752344E+02  0.77946170028E+02  0.00000000000E+00 0.  1.
         12    1    4    4    0    0 -0.17319919582E+02  0.55357207533E+02 -0.54529738600E+02  0.79610881367E+02  0.00000000000E+00 0. -1.
        -11    1    3    3    0    0 -0.21185375951E+02  0.16379743564E+02  0.62346753263E+02  0.67854504610E+02  0.00000000000E+00 0.  1.
         11    1    3    3    0    0  0.29314764103E+02 -0.62081047383E+02  0.38644541943E+02  0.78783326032E+02  0.00000000000E+00 0. -1.
         21    1    1    2  503  501  0.18385009570E+02  0.19035202697E+02  0.26856888470E+02  0.37704641318E+02  0.00000000000E+00 0. -1.
         -4    1    1    2    0  502 -0.67384669861E+02 -0.56356798364E+02  0.22267847624E+03  0.23937937721E+03  0.00000000000E+00 0.  1.
<scales pt_clust_5="13000.00000" pt_clust_6="13000.00000" pt_clust_7="13000.00000" pt_clust_8="13000.00000" pt_clust_9="26.46408" pt_clust_10="72.05051"></scales>
<clustering>
<clus scale="   26.464">  1  9  2 -1</clus>
<clus scale="   72.051">  2 10  1 -1</clus>
<clus scale="   81.115">  5  6 -1 -1</clus>
<clus scale="   93.656">  2  5  1 -1</clus>
<clus scale="   95.649">  7  8 -1 -1</clus>
<clus scale="   72.051">  2  5  1 -1</clus>
</clustering>
</event>
<event>
10    4  0.2977685E-005  0.2047221E+03  0.7546771E-02  0.1145815E+00
         21   -1    0    0  501  502  0.00000000000E+00  0.00000000000E+00  0.43635908310E+02  0.43635908310E+02  0.00000000000E+00 0. -1.
          2   -1    0    0  503    0 -0.00000000000E+00 -0.00000000000E+00 -0.11205306798E+04  0.11205306798E+04  0.00000000000E+00 0. -1.
         24    2    1    2    0    0  0.64448171863E+02 -0.30354276350E+02 -0.15594709941E+03  0.18939058586E+03  0.80463328586E+02 0.  0.
         23    2    1    2    0    0  0.53949390840E+02 -0.15346760272E+02 -0.13138168729E+03  0.17041120719E+03  0.92912711500E+02 0.  0.
        -13    1    3    3    0    0  0.40244679958E+02 -0.57213130995E+02 -0.11645110147E+03  0.13584489558E+03  0.00000000000E+00 0.  1.
         14    1    3    3    0    0  0.24203491905E+02  0.26858854645E+02 -0.39495997945E+02  0.53545690273E+02  0.00000000000E+00 0. -1.
        -13    1    4    4    0    0  0.31235310399E+02 -0.21742130222E+02 -0.14015931958E+03  0.14523429246E+03  0.00000000000E+00 0.  1.
         13    1    4    4    0    0  0.22714080441E+02  0.63953699499E+01  0.87776322819E+01  0.25176914734E+02  0.00000000000E+00 0. -1.
         21    1    1    2  503  502 -0.34957329266E+02  0.59491572040E+02 -0.35948520870E+03  0.36604764347E+03  0.00000000000E+00 0. -1.
          1    1    1    2  501    0 -0.83440233437E+02 -0.13790535418E+02 -0.43008077607E+03  0.43831715158E+03  0.00000000000E+00 0. -1.
<scales pt_clust_5="13000.00000" pt_clust_6="13000.00000" pt_clust_7="13000.00000" pt_clust_8="13000.00000" pt_clust_9="69.00190" pt_clust_10="105.44301"></scales>
<clustering>
<clus scale="   69.002">  2  9  1 -1</clus>
<clus scale="   80.463">  5  6 -1 -1</clus>
<clus scale="   92.913">  7  8 -1 -1</clus>
<clus scale="   95.857">  5  7 -1 -1</clus>
<clus scale="  105.443">  1 10  2 -1</clus>
<clus scale="  105.443">  1  5  2 -1</clus>
</clustering>
</event>
<event>
10    4  0.2977685E-005  0.1239684E+03  0.7546771E-02  0.1249389E+00
          2   -1    0    0  503    0 -0.00000000000E+00  0.00000000000E+00  0.17386102824E+03  0.17386102824E+03  0.00000000000E+00 0. -1.
         21   -1    0    0  501  502  0.00000000000E+00 -0.00000000000E+00 -0.39396134350E+03  0.39396134350E+03  0.00000000000E+00 0. -1.
         24    2    1    2    0    0  0.36951981338E+02  0.54824763243E+02 -0.20962369582E+00  0.10092147245E+03  0.76248908643E+02 0.  0.
         23    2    1    2    0    0 -0.64539210115E+01  0.61131574565E+02 -0.16324639463E+03  0.19655606619E+03  0.90587964380E+02 0.  0.
        -11    1    3    3    0    0 -0.16224352671E+02  0.36988925900E+02  0.14537675708E+02  0.42927313844E+02  0.00000000000E+00 0.  1.
         12    1    3    3    0    0  0.53176334008E+02  0.17835837343E+02 -0.14747299404E+02  0.57994158603E+02  0.00000000000E+00 0. -1.
        -13    1    4    4    0    0  0.21024741217E+02 -0.16657901826E+02 -0.35720208282E+02  0.44670557599E+02  0.00000000000E+00 0.  1.
         13    1    4    4    0    0 -0.27478662228E+02  0.77789476391E+02 -0.12752618635E+03  0.15188550859E+03  0.00000000000E+00 0. -1.
         21    1    1    2  503  502 -0.20886576574E+02 -0.37725379194E+01  0.86020902636E+02  0.88600659217E+02  0.00000000000E+00 0.  1.
          1    1    1    2  501    0 -0.96114837522E+01 -0.11218379989E+03 -0.14266519956E+03  0.18174417389E+03  0.00000000000E+00 0. -1.
<scales pt_clust_5="13000.00000" pt_clust_6="13000.00000" pt_clust_7="13000.00000" pt_clust_8="13000.00000" pt_clust_9="21.22454" pt_clust_10="84.62853"></scales>
<clustering>
<clus scale="   21.225">  1  9  2 -1</clus>
<clus scale="   76.249">  5  6 -1 -1</clus>
<clus scale="   90.588">  7  8 -1 -1</clus>
<clus scale="   95.911">  1  5  2 -1</clus>
<clus scale="   84.629">  2 10  1 -1</clus>
<clus scale="   84.629">  2  5  1 -1</clus>
</clustering>
</event>
<event>
10    4  0.2977685E-005  0.1453026E+03  0.7546771E-02  0.1232201E+00
         21   -1    0    0  501  502  0.00000000000E+00  0.00000000000E+00  0.78546225417E+02  0.78546225417E+02  0.00000000000E+00 0.  1.
          2   -1    0    0  503    0 -0.00000000000E+00 -0.00000000000E+00 -0.14694486975E+04  0.14694486975E+04  0.00000000000E+00 0. -1.
         24    2    1    2    0    0 -0.13124612066E+02 -0.17080374250E+02 -0.12976450516E+03  0.15480189991E+03  0.81613765920E+02 0.  0.
         23    2    1    2    0    0  0.40795712484E+02  0.40942362257E+02 -0.45725739077E+02  0.11667985984E+03  0.90458715962E+02 0.  0.
        -11    1    3    3    0    0  0.89696721386E+01 -0.26925774635E+02 -0.64062953992E+01  0.29094552389E+02  0.00000000000E+00 0.  1.
         12    1    3    3    0    0 -0.22094284204E+02  0.98454003856E+01 -0.12335820977E+03  0.12570734752E+03  0.00000000000E+00 0. -1.
        -11    1    4    4    0    0  0.37587399407E+02  0.65780897865E+02 -0.50678976057E+02  0.91149864137E+02  0.00000000000E+00 0.  1.
         11    1    4    4    0    0  0.32083130769E+01 -0.24838535608E+02  0.49532369792E+01  0.25529995701E+02  0.00000000000E+00 0. -1.
         21    1    1    2  503  502 -0.11040060482E+03  0.96241655212E+02 -0.10312514925E+04  0.10415999187E+04  0.00000000000E+00 0. -1.
          1    1    1    2  501    0  0.82729504404E+02 -0.12010364322E+03 -0.18416073535E+03  0.23491324454E+03  0.00000000000E+00 0. -1.
<scales pt_clust_5="13000.00000" pt_clust_6="13000.00000" pt_clust_7="13000.00000" pt_clust_8="13000.00000" pt_clust_9="13000.00000" pt_clust_10="145.30260"></scales>
<clustering>
<clus scale="   81.614">  5  6 -1 -1</clus>
<clus scale="   84.409">  2  5  1 -1</clus>
<clus scale="   90.459">  7  8 -1 -1</clus>
<clus scale="  106.649">  2  7  1 -1</clus>
<clus scale="  145.303">  1 10  2 -1</clus>
<clus scale="  145.303">  1  5  2 -1</clus>
</clustering>
</event>
<event>
10    4  0.2977685E-005  0.1514942E+03  0.7546771E-02  0.1201102E+00
         -3   -1    0    0    0  501 -0.00000000000E+00  0.00000000000E+00  0.20941824510E+03  0.20941824510E+03  0.00000000000E+00 0.  1.
         21   -1    0    0  503  502  0.00000000000E+00 -0.00000000000E+00 -0.53084110117E+03  0.53084110117E+03  0.00000000000E+00 0.  1.
         24    2    1    2    0    0 -0.13395694998E+03  0.95033081336E+01 -0.16883247835E+03  0.22920296875E+03  0.77426208911E+02 0.  0.
         23    2    1    2    0    0  0.78867430360E+02 -0.10314631806E+03 -0.21076658756E+03  0.26381308915E+03  0.91189676369E+02 0.  0.
        -11    1    3    3    0    0 -0.73382108771E+02  0.29883999659E+02 -0.13588631847E+03  0.15729932889E+03  0.00000000000E+00 0.  1.
         12    1    3    3    0    0 -0.60574841205E+02 -0.20380691526E+02 -0.32946159885E+02  0.71903639861E+02  0.00000000000E+00 0. -1.
        -13    1    4    4    0    0  0.37725696696E+02 -0.90772079539E+02 -0.81813461624E+02  0.12789152090E+03  0.00000000000E+00 0.  1.
         13    1    4    4    0    0  0.41141733664E+02 -0.12374238518E+02 -0.12895312594E+03  0.13592156825E+03  0.00000000000E+00 0. -1.
         21    1    1    2  503  501 -0.17894745661E+02 -0.90250097527E+01  0.10942933872E+03  0.11124950739E+03  0.00000000000E+00 0.  1.
         -4    1    1    2    0  502  0.72984265277E+02  0.10266801968E+03 -0.51253128872E+02  0.13599378097E+03  0.00000000000E+00 0.  1.
<scales pt_clust_5="13000.00000" pt_clust_6="13000.00000" pt_clust_7="13000.00000" pt_clust_8="13000.00000" pt_clust_9="20.04177" pt_clust_10="118.45410"></scales>
<clustering>
<clus scale="   20.042">  1  9  2 -1</clus>
<clus scale="   77.426">  5  6 -1 -1</clus>
<clus scale="   91.190">  7  8 -1 -1</clus>
<clus scale="  118.454">  2 10  1 -1</clus>
<clus scale="  143.631">  1  5  2 -1</clus>
<clus scale="  118.454">  2  5  1 -1</clus>
</clustering>
</event>
<event>
10    4  0.2977685E-005  0.1065341E+03  0.7546771E-02  0.1271989E+00
         21   -1    0    0  503  502  0.00000000000E+00  0.00000000000E+00  0.62236743971E+02  0.62236743971E+02  0.00000000000E+00 0.  1.
         -3   -1    0    0    0  501 -0.00000000000E+00 -0.00000000000E+00 -0.30811118575E+03  0.30811118575E+03  0.00000000000E+00 0.  1.
         23    2    1    2    0    0  0.24760285533E+02 -0.60124394227E+02 -0.98097471635E+02  0.14934795123E+03  0.91943907219E+02 0.  0.
         24    2    1    2    0    0 -0.21876976679E+02  0.43820656049E+02 -0.56650837454E+02  0.11006634826E+03  0.80662454891E+02 0.  0.
        -11    1    4    4    0    0  0.72532526853E+01  0.56244699103E+02 -0.53965322145E+02  0.78283662701E+02  0.00000000000E+00 0.  1.
         12    1    4    4    0    0 -0.29130229364E+02 -0.12424043054E+02 -0.26855153092E+01  0.31782685555E+02  0.00000000000E+00 0. -1.
        -13    1    3    3    0    0 -0.23709155033E+02 -0.58767901316E+02 -0.46934006095E+02  0.78858044521E+02  0.00000000000E+00 0.  1.
         13    1    3    3    0    0  0.48469440566E+02 -0.13564929101E+01 -0.51163465540E+02  0.70489906709E+02  0.00000000000E+00 0. -1.
         21    1    1    2  503  501  0.46881476180E+01  0.38319872615E+02 -0.45194694118E+02  0.59438638458E+02  0.00000000000E+00 0.  1.
         -4    1    1    2    0  502 -0.75714564727E+01 -0.22016134438E+02 -0.45931438572E+02  0.51494991776E+02  0.00000000000E+00 0.  1.
<scales pt_clust_5="13000.00000" pt_clust_6="13000.00000" pt_clust_7="13000.00000" pt_clust_8="13000.00000" pt_clust_9="35.88239" pt_clust_10="23.28170"></scales>
<clustering>
<clus scale="   23.282">  1 10  2 -1</clus>
<clus scale="   35.882">  2  9  1 -1</clus>
<clus scale="   80.662">  5  6 -1 -1</clus>
<clus scale="   91.944">  7  8 -1 -1</clus>
<clus scale="   96.965">  1  5  2 -1</clus>
<clus scale="   23.282">  1  5  2 -1</clus>
</clustering>
</event>
<event>
10    4  0.2977685E-005  0.1437497E+03  0.7546771E-02  0.1210471E+00
         21   -1    0    0  501  502  0.00000000000E+00  0.00000000000E+00  0.15378284191E+03  0.15378284191E+03  0.00000000000E+00 0.  1.
          2   -1    0    0  503    0 -0.00000000000E+00 -0.00000000000E+00 -0.54523161219E+03  0.54523161219E+03  0.00000000000E+00 0. -1.
         23    2    1    2    0    0 -0.11245295252E+03  0.13163485930E+02 -0.40070137611E+03  0.42638462654E+03  0.91778608864E+02 0.  0.
         24    2    1    2    0    0  0.36525550426E+02 -0.22079963751E+02  0.88861075973E+02  0.12793333742E+03  0.81541445709E+02 0.  0.
        -13    1    4    4    0    0  0.48539958627E+02 -0.54767663862E+01  0.94757940603E+02  0.10660764448E+03  0.00000000000E+00 0.  1.
         14    1    4    4    0    0 -0.12014408202E+02 -0.16603197365E+02 -0.58968646310E+01  0.21325692947E+02  0.00000000000E+00 0. -1.
        -11    1    3    3    0    0 -0.22831628186E+02  0.38066420730E+02 -0.70312687193E+02  0.83151726459E+02  0.00000000000E+00 0.  1.
         11    1    3    3    0    0 -0.89621324329E+02 -0.24902934800E+02 -0.33038868891E+03  0.34323290008E+03  0.00000000000E+00 0. -1.
         21    1    1    2  503  502 -0.47967247343E+01  0.34020190001E+02 -0.35267764045E+02  0.49236135882E+02  0.00000000000E+00 0. -1.
          1    1    1    2  501    0  0.80724126824E+02 -0.25103712179E+02 -0.44340706096E+02  0.95460354251E+02  0.00000000000E+00 0. -1.
<scales pt_clust_5="13000.00000" pt_clust_6="13000.00000" pt_clust_7="13000.00000" pt_clust_8="13000.00000" pt_clust_9="34.35669" pt_clust_10="82.60980"></scales>
<clustering>
<clus scale="   34.357">  2  9  1 -1</clus>
<clus scale="   81.541">  5  6 -1 -1</clus>
<clus scale="   82.610">  1 10  2 -1</clus>
<clus scale="   91.779">  7  8 -1 -1</clus>
<clus scale="  137.440">  1  5  2 -1</clus>
<clus scale="   82.610">  1  5  2 -1</clus>
</clustering>
</event>
<event>
10    4  0.2977685E-005  0.1577206E+03  0.7546771E-02  0.1200633E+00
         21   -1    0    0  501  502  0.00000000000E+00  0.00000000000E+00  0.55540756689E+02  0.55540756689E+02  0.00000000000E+00 0. -1.
          2   -1    0    0  503    0 -0.00000000000E+00 -0.00000000000E+00 -0.11943693304E+04  0.11943693304E+04  0.00000000000E+00 0. -1.
         23    2    1    2    0    0 -0.63476787984E+00 -0.89008600751E+02 -0.12467409238E+03  0.17843046499E+03  0.91492445516E+02 0.  0.
         24    2    1    2    0    0  0.77306976201E+02  0.13100616359E+00 -0.71296211368E+03  0.72443091464E+03  0.10251238372E+03 0.  0.
        -11    1    4    4    0    0 -0.10680438305E+02  0.32693866564E+02 -0.17468950819E+03  0.17804321089E+03  0.00000000000E+00 0.  1.
         12    1    4    4    0    0  0.87987414506E+02 -0.32562860401E+02 -0.53827260549E+03  0.54638770375E+03  0.00000000000E+00 0. -1.
        -13    1    3    3    0    0 -0.36462768061E+02 -0.57374772611E+01 -0.39047005681E+02  0.53731934197E+02  0.00000000000E+00 0.  1.
         13    1    3    3    0    0  0.35828000181E+02 -0.83271123490E+02 -0.85627086698E+02  0.12469853079E+03  0.00000000000E+00 0. -1.
         21    1    1    2  503  502  0.22242471452E+02 -0.94909770216E+01 -0.95493471179E+02  0.98507914499E+02  0.00000000000E+00 0. -1.
          1    1    1    2  501    0 -0.98914679774E+02  0.98368571610E+02 -0.20569889647E+03  0.24854079296E+03  0.00000000000E+00 0. -1.
<scales pt_clust_5="13000.00000" pt_clust_6="13000.00000" pt_clust_7="13000.00000" pt_clust_8="13000.00000" pt_clust_9="24.18277" pt_clust_10="119.86246"></scales>
<clustering>
<clus scale="   24.183">  2  9  1 -1</clus>
<clus scale="   91.492">  7  8 -1 -1</clus>
<clus scale="  102.512">  5  6 -1 -1</clus>
<clus scale="  128.586">  2  7  1 -1</clus>
<clus scale="  119.862">  1 10  2 -1</clus>
<clus scale="  119.862">  1  5  2 -1</clus>
</clustering>
</event>
<event>
10    4  0.2977685E-005  0.1138144E+03  0.7546771E-02  0.1258901E+00
          2   -1    0    0  503    0 -0.00000000000E+00  0.00000000000E+00  0.87505059637E+03  0.87505059637E+03  0.00000000000E+00 0. -1.
         21   -1    0    0  501  502  0.00000000000E+00 -0.00000000000E+00 -0.25148713343E+03  0.25148713343E+03  0.00000000000E+00 0. -1.
         23    2    1    2    0    0 -0.83947194601E+02 -0.53084606854E+02  0.36926519821E+03  0.39351236465E+03  0.92898264554E+02 0.  0.
         24    2    1    2    0    0 -0.17011748848E+02  0.37028464327E+02 -0.35067346734E+02  0.95380999529E+02  0.78786480406E+02 0.  0.
        -13    1    4    4    0    0 -0.36212714597E+02  0.42721711630E+02 -0.46080572850E+02  0.72525337209E+02  0.00000000000E+00 0.  1.
         14    1    4    4    0    0  0.19200965749E+02 -0.56932473027E+01  0.11013226117E+02  0.22855662319E+02  0.00000000000E+00 0. -1.
        -13    1    3    3    0    0 -0.43502579427E+02  0.57803915234E+01  0.25510394776E+03  0.25885113773E+03  0.00000000000E+00 0. -1.
         13    1    3    3    0    0 -0.40444615174E+02 -0.58864998378E+02  0.11416125045E+03  0.13466122692E+03  0.00000000000E+00 0.  1.
         21    1    1    2  503  502  0.83439535108E+02 -0.22314414023E+02  0.45684333470E+03  0.46493647045E+03  0.00000000000E+00 0. -1.
          1    1    1    2  501    0  0.17519408341E+02  0.38370556550E+02 -0.16747772323E+03  0.17270789518E+03  0.00000000000E+00 0. -1.
<scales pt_clust_5="13000.00000" pt_clust_6="13000.00000" pt_clust_7="13000.00000" pt_clust_8="13000.00000" pt_clust_9="86.74504" pt_clust_10="42.18091"></scales>
<clustering>
<clus scale="   42.181">  2 10  1 -1</clus>
<clus scale="   78.786">  5  6 -1 -1</clus>
<clus scale="   86.745">  1  9  2 -1</clus>
<clus scale="   92.898">  7  8 -1 -1</clus>
<clus scale="  102.620">  2  5  1 -1</clus>
<clus scale="   42.181">  2  5  1 -1</clus>
</clustering>
</event>
<event>
10    4  0.2977685E-005  0.2333184E+03  0.7546771E-02  0.1124751E+00
          4   -1    0    0  503    0 -0.00000000000E+00  0.00000000000E+00  0.60111352263E+03  0.60111352263E+03  0.00000000000E+00 0. -1.
         21   -1    0    0  501  502  0.00000000000E+00 -0.00000000000E+00 -0.23919783953E+03  0.23919783953E+03  0.00000000000E+00 0. -1.
         24    2    1    2    0    0  0.15225038162E+03 -0.21572661200E+03  0.41349141627E+03  0.49701253480E+03  0.79549724038E+02 0.  0.
         23    2    1    2    0    0 -0.78940264289E+02  0.91782523615E+02 -0.64744882484E+02  0.16221091961E+03  0.86399569831E+02 0.  0.
        -11    1    3    3    0    0  0.57964509022E+02 -0.12679529945E+03  0.15935022908E+03  0.21172961006E+03  0.00000000000E+00 0.  1.
         12    1    3    3    0    0  0.94285872597E+02 -0.88931312549E+02  0.25414118719E+03  0.28528292474E+03  0.00000000000E+00 0. -1.
        -11    1    4    4    0    0  0.24878438947E+01  0.33343071560E+02 -0.51087562894E+02  0.61056440043E+02  0.00000000000E+00 0.  1.
         11    1    4    4    0    0 -0.81428108183E+02  0.58439452055E+02 -0.13657319590E+02  0.10115447957E+03  0.00000000000E+00 0. -1.
         21    1    1    2  503  502 -0.21552021946E+02  0.75448841762E+01  0.44399863640E+02  0.49927575732E+02  0.00000000000E+00 0.  1.
          3    1    1    2  501    0 -0.51758095384E+02  0.11639920421E+03 -0.31230714326E+02  0.13116033202E+03  0.00000000000E+00 0. -1.
<scales pt_clust_5="13000.00000" pt_clust_6="13000.00000" pt_clust_7="13000.00000" pt_clust_8="13000.00000" pt_clust_9="22.83451" pt_clust_10="128.80828"></scales>
<clustering>
<clus scale="   22.835">  1  9  2 -1</clus>
<clus scale="   79.550">  5  6 -1 -1</clus>
<clus scale="   86.400">  7  8 -1 -1</clus>
<clus scale="  128.808">  2 10  1 -1</clus>
<clus scale="  230.870">  1  5  2 -1</clus>
<clus scale="  128.808">  2  5  1 -1</clus>
</clustering>
</event>
<event>
10    4  0.2977685E-005  0.4085554E+03  0.7546771E-02  0.1060241E+00
          2   -1    0    0  503    0 -0.00000000000E+00  0.00000000000E+00  0.18156547657E+04  0.18156547657E+04  0.00000000000E+00 0. -1.
         21   -1    0    0  501  502  0.00000000000E+00 -0.00000000000E+00 -0.20554886173E+03  0.20554886173E+03  0.00000000000E+00 0. -1.
         23    2    1    2    0    0 -0.10291294869E+03  0.19558567805E+03  0.18613386675E+03  0.30384747910E+03  0.93982135193E+02 0.  0.
         24    2    1    2    0    0  0.24809091345E+03 -0.42211598362E+03  0.57149801933E+03  0.75732245125E+03  0.84831032662E+02 0.  0.
        -11    1    4    4    0    0  0.56815470438E+02 -0.45872418750E+02  0.62704780612E+02  0.96250537633E+02  0.00000000000E+00 0.  1.
         12    1    4    4    0    0  0.19127544301E+03 -0.37624356487E+03  0.50879323872E+03  0.66107191362E+03  0.00000000000E+00 0. -1.
        -11    1    3    3    0    0 -0.10090095151E+03  0.12293761670E+03  0.88102789645E+02  0.18181518407E+03  0.00000000000E+00 0. -1.
         11    1    3    3    0    0 -0.20119971782E+01  0.72648061348E+02  0.98031077106E+02  0.12203229502E+03  0.00000000000E+00 0.  1.
         21    1    1    2  503  502 -0.82118620788E+02 -0.88221661090E+02  0.23147622530E+03  0.26097465824E+03  0.00000000000E+00 0.  1.
          1    1    1    2  501    0 -0.63059343976E+02  0.31475196666E+03  0.62099779255E+03  0.69905903881E+03  0.00000000000E+00 0. -1.
<scales pt_clust_5="13000.00000" pt_clust_6="13000.00000" pt_clust_7="13000.00000" pt_clust_8="13000.00000" pt_clust_9="120.52605" pt_clust_10="399.65159"></scales>
<clustering>
<clus scale="   84.831">  5  6 -1 -1</clus>
<clus scale="   93.982">  7  8 -1 -1</clus>
<clus scale="  120.526">  1  9  2 -1</clus>
<clus scale="  235.123">  1  7  2 -1</clus>
<clus scale="  399.652">  2 10  1 -1</clus>
<clus scale="  399.652">  2  5  1 -1</clus>
</clustering>
</event>
<event>
10    4  0.2977685E-005  0.1346461E+03  0.7546771E-02  0.1222785E+00
         21   -1    0    0  501  502  0.00000000000E+00  0.00000000000E+00  0.15907914193E+02  0.15907914193E+02  0.00000000000E+00 0. -1.
          2   -1    0    0  503    0 -0.00000000000E+00 -0.00000000000E+00 -0.19559864219E+04  0.19559864219E+04  0.00000000000E+00 0. -1.
         24    2    1    2    0    0 -0.95736156149E+02  0.44888950013E+02 -0.11994461678E+04  0.12067711074E+04  0.80280551579E+02 0.  0.
         23    2    1    2    0    0  0.93363936861E+02 -0.10173432040E+02 -0.51193973279E+03  0.52806169005E+03  0.89143339963E+02 0.  0.
        -11    1    3    3    0    0 -0.30368922188E+02  0.97573517009E+01 -0.10322834091E+03  0.10804428589E+03  0.00000000000E+00 0.  1.
         12    1    3    3    0    0 -0.65367233961E+02  0.35131598312E+02 -0.10962178269E+04  0.10987268215E+04  0.00000000000E+00 0. -1.
        -11    1    4    4    0    0  0.10094984284E+03 -0.31733442801E+02 -0.44160243577E+03  0.45410416584E+03  0.00000000000E+00 0. -1.
         11    1    4    4    0    0 -0.75859059820E+01  0.21560010761E+02 -0.70337297027E+02  0.73957524206E+02  0.00000000000E+00 0.  1.
         21    1    1    2  503  502  0.25386319481E+02 -0.22613446842E+02 -0.16091813634E+03  0.16447030065E+03  0.00000000000E+00 0. -1.
          1    1    1    2  501    0 -0.23014100192E+02 -0.12102071131E+02 -0.67774470830E+02  0.72591237967E+02  0.00000000000E+00 0. -1.
<scales pt_clust_5="13000.00000" pt_clust_6="13000.00000" pt_clust_7="13000.00000" pt_clust_8="13000.00000" pt_clust_9="32.95170" pt_clust_10="26.00209"></scales>
<clustering>
<clus scale="   26.002">  1 10  2 -1</clus>
<clus scale="   32.952">  1  9  2 -1</clus>
<clus scale="   80.281">  5  6 -1 -1</clus>
<clus scale="   89.143">  7  8 -1 -1</clus>
<clus scale="  128.950">  2  5  1 -1</clus>
<clus scale="   26.002">  1  5  2 -1</clus>
</clustering>
</event>
<event>
10    4  0.2977685E-005  0.1511988E+03  0.7546771E-02  0.1201864E+00
         21   -1    0    0  503  502  0.00000000000E+00  0.00000000000E+00  0.30466737448E+03  0.30466737448E+03  0.00000000000E+00 0. -1.
         -1   -1    0    0    0  501 -0.00000000000E+00 -0.00000000000E+00 -0.10138153714E+04  0.10138153714E+04  0.00000000000E+00 0.  1.
         24    2    1    2    0    0  0.67882416460E+02 -0.72243090236E+02 -0.93927363631E+03  0.94739829656E+03  0.74171975179E+02 0.  0.
         23    2    1    2    0    0 -0.11656323391E+03  0.62866071646E+02  0.21138416350E+03  0.26531061096E+03  0.90373255163E+02 0.  0.
        -13    1    3    3    0    0  0.16917498121E+02 -0.35782738033E+02 -0.13487932172E+03  0.14056684357E+03  0.00000000000E+00 0.  1.
         14    1    3    3    0    0  0.50964918339E+02 -0.36460352204E+02 -0.80439431459E+03  0.80683145299E+03  0.00000000000E+00 0. -1.
        -11    1    4    4    0    0 -0.30742971882E+02  0.57176795919E+02  0.13698319911E+03  0.15158731197E+03  0.00000000000E+00 0. -1.
         11    1    4    4    0    0 -0.85820262024E+02  0.56892757271E+01  0.74400964389E+02  0.11372329899E+03  0.00000000000E+00 0.  1.
         21    1    1    2  503  501  0.25443810375E+02 -0.57369285929E+01 -0.35975610003E+02  0.44435845341E+02  0.00000000000E+00 0.  1.
         -2    1    1    2    0  502  0.23237007071E+02  0.15113947183E+02  0.54717085905E+02  0.61337993015E+02  0.00000000000E+00 0.  1.
<scales pt_clust_5="13000.00000" pt_clust_6="13000.00000" pt_clust_7="13000.00000" pt_clust_8="13000.00000" pt_clust_9="26.08256" pt_clust_10="27.78181"></scales>
<clustering>
<clus scale="   26.083">  2  9  1 -1</clus>
<clus scale="   27.782">  1 10  2 -1</clus>
<clus scale="   74.172">  5  6 -1 -1</clus>
<clus scale="   90.373">  7  8 -1 -1</clus>
<clus scale="  142.110">  2  5  1 -1</clus>
<clus scale="   27.782">  1  5  2 -1</clus>
</clustering>
</event>
<event>
10    4  0.2977685E-005  0.1794534E+03  0.7546771E-02  0.1170378E+00
          2   -1    0    0  503    0 -0.00000000000E+00  0.00000000000E+00  0.20713528800E+03  0.20713528800E+03  0.00000000000E+00 0. -1.
         21   -1    0    0  501  502  0.00000000000E+00 -0.00000000000E+00 -0.79708273976E+03  0.79708273976E+03  0.00000000000E+00 0. -1.
         24    2    1    2    0    0 -0.12281293224E+03  0.47942063378E+02  0.64021223870E+02  0.16517488659E+03  0.76174590823E+02 0.  0.
         23    2    1    2    0    0  0.89352000326E+02 -0.19461672413E+03 -0.13858503644E+03  0.27156251535E+03  0.93171552234E+02 0.  0.
        -11    1    3    3    0    0 -0.11702502750E+02  0.18829598250E+02  0.43038556301E+02  0.48413011364E+02  0.00000000000E+00 0.  1.
         12    1    3    3    0    0 -0.11111042949E+03  0.29112465128E+02  0.20982667570E+02  0.11676187522E+03  0.00000000000E+00 0. -1.
        -11    1    4    4    0    0  0.76442341978E+02 -0.58098966184E+02 -0.64903693219E+02  0.11589396409E+03  0.00000000000E+00 0.  1.
         11    1    4    4    0    0  0.12909658348E+02 -0.13651775795E+03 -0.73681343220E+02  0.15566855127E+03  0.00000000000E+00 0. -1.
         21    1    1    2  503  502 -0.16159382276E+02  0.26015874509E+02  0.49652601668E+01  0.31025879045E+02  0.00000000000E+00 0. -1.
          1    1    1    2  501    0  0.49620314192E+02  0.12065878625E+03 -0.52034889935E+03  0.53645474677E+03  0.00000000000E+00 0. -1.
<scales pt_clust_5="13000.00000" pt_clust_6="13000.00000" pt_clust_7="13000.00000" pt_clust_8="13000.00000" pt_clust_9="30.62599" pt_clust_10="131.23048"></scales>
<clustering>
<clus scale="   30.626">  1  9  2 -1</clus>
<clus scale="   76.175">  5  6 -1 -1</clus>
<clus scale="   93.172">  7  8 -1 -1</clus>
<clus scale="  131.230">  2 10  1 -1</clus>
<clus scale="  171.246">  1  5  2 -1</clus>
<clus scale="  131.230">  2  5  1 -1</clus>
</clustering>
</event>
<event>
10    4  0.2977685E-005  0.1115806E+03  0.7546771E-02  0.1265205E+00
         21   -1    0    0  501  502  0.00000000000E+00  0.00000000000E+00  0.53349334557E+02  0.53349334557E+02  0.00000000000E+00 0. -1.
          2   -1    0    0  503    0 -0.00000000000E+00 -0.00000000000E+00 -0.70663914153E+03  0.70663914153E+03  0.00000000000E+00 0. -1.
         24    2    1    2    0    0  0.45904773319E+02  0.66283257515E+01 -0.28381287229E+03  0.29625007537E+03  0.71156010051E+02 0.  0.
         23    2    1    2    0    0 -0.11091067786E+03 -0.63517044441E+01 -0.13914676024E+03  0.19987939198E+03  0.90820855754E+02 0.  0.
        -13    1    3    3    0    0  0.46755453220E+01  0.33866372909E+02 -0.91125969395E+02  0.97327972527E+02  0.00000000000E+00 0.  1.
         14    1    3    3    0    0  0.41229227997E+02 -0.27238047157E+02 -0.19268690289E+03  0.19892210285E+03  0.00000000000E+00 0. -1.
        -13    1    4    4    0    0 -0.32742068892E+01 -0.32329792854E+02 -0.36848584652E+02  0.49129971785E+02  0.00000000000E+00 0.  1.
         13    1    4    4    0    0 -0.10763647097E+03  0.25978088410E+02 -0.10229817559E+03  0.15074942020E+03  0.00000000000E+00 0. -1.
         21    1    1    2  503  502  0.11484100777E+02 -0.37786515271E+02 -0.17128835745E+03  0.17578227073E+03  0.00000000000E+00 0. -1.
          1    1    1    2  501    0  0.53521803760E+02  0.37509893963E+02 -0.59041816991E+02  0.88076737999E+02  0.00000000000E+00 0. -1.
<scales pt_clust_5="13000.00000" pt_clust_6="13000.00000" pt_clust_7="13000.00000" pt_clust_8="13000.00000" pt_clust_9="39.49310" pt_clust_10="63.87291"></scales>
<clustering>
<clus scale="   39.493">  2  9  1 -1</clus>
<clus scale="   63.873">  1 10  2 -1</clus>
<clus scale="   71.156">  5  6 -1 -1</clus>
<clus scale="   90.821">  7  8 -1 -1</clus>
<clus scale="   96.255">  2  5  1 -1</clus>
<clus scale="   63.873">  1  5  2 -1</clus>
</clustering>
</event>
<event>
10    4  0.4708325E-005  0.1759190E+03  0.7546771E-02  0.1186173E+00
         21   -1    0    0  503  502  0.00000000000E+00  0.00000000000E+00  0.57172357908E+03  0.57172357908E+03  0.00000000000E+00 0.  1.
         -1   -1    0    0    0  501 -0.00000000000E+00 -0.00000000000E+00 -0.16011840038E+03  0.16011840038E+03  0.00000000000E+00 0.  1.
         23    2    1    2    0    0  0.68377012922E+00  0.90209371408E+02 -0.55312176746E+02  0.13921399577E+03  0.90459391391E+02 0.  0.
         24    2    1    2    0    0 -0.93987634360E+02  0.77687118573E+02  0.16768453705E+03  0.22264694374E+03  0.81145509937E+02 0.  0.
        -13    1    4    4    0    0 -0.87554302753E+02  0.83085014353E+02  0.10674515641E+03  0.16113163549E+03  0.00000000000E+00 0.  1.
         14    1    4    4    0    0 -0.64333316065E+01 -0.53978957798E+01  0.60939380647E+02  0.61515308241E+02  0.00000000000E+00 0. -1.
        -11    1    3    3    0    0 -0.18568735553E+02  0.95629587202E+02 -0.64878640466E+02  0.11704295740E+03  0.00000000000E+00 0.  1.
         11    1    3    3    0    0  0.19252505682E+02 -0.54202157944E+01  0.95664637197E+01  0.22171038370E+02  0.00000000000E+00 0. -1.
         21    1    1    2  503  501 -0.19981528425E+02 -0.81363442769E+01  0.25538073768E+02  0.33431344397E+02  0.00000000000E+00 0.  1.
         -2    1    1    2    0  502  0.11328539266E+03 -0.15976014570E+03  0.27369474462E+03  0.33654969555E+03  0.00000000000E+00 0.  1.
<scales pt_clust_5="13000.00000" pt_clust_6="13000.00000" pt_clust_7="13000.00000" pt_clust_8="13000.00000" pt_clust_9="21.57456" pt_clust_10="156.08624"></scales>
<clustering>
<clus scale="   21.575">  1  9  2 -1</clus>
<clus scale="   81.146">  5  6 -1 -1</clus>
<clus scale="   90.459">  7  8 -1 -1</clus>
<clus scale="  127.311">  2  7  1 -1</clus>
<clus scale="  156.086">  1 10  2 -1</clus>
<clus scale="   21.575">  1  5  2 -1</clus>
</clustering>
</event>
<event>
10    4  0.2977685E-005  0.1127752E+03  0.7546771E-02  0.1258457E+00
         21   -1    0    0  501  502  0.00000000000E+00  0.00000000000E+00  0.30785694498E+03  0.30785694498E+03  0.00000000000E+00 0.  1.
         -3   -1    0    0    0  501 -0.00000000000E+00 -0.00000000000E+00 -0.21081356487E+03  0.21081356487E+03  0.00000000000E+00 0.  1.
         24    2    1    2    0    0  0.22350896548E+02 -0.10569199366E+03  0.81536871818E+02  0.15748454867E+03  0.80515597880E+02 0.  0.
         23    2    1    2    0    0 -0.27311983785E+02  0.10828021202E+02  0.14628729911E+03  0.17361282482E+03  0.88759498422E+02 0.  0.
        -11    1    3    3    0    0  0.50805422853E+02 -0.65748675216E+02  0.35975610593E+02  0.90544595871E+02  0.00000000000E+00 0.  1.
         12    1    3    3    0    0 -0.28454526306E+02 -0.39943318446E+02  0.45561261226E+02  0.66939952795E+02  0.00000000000E+00 0. -1.
        -11    1    4    4    0    0 -0.55153275060E+02 -0.39801914052E+01  0.12153797960E+03  0.13352605048E+03  0.00000000000E+00 0.  1.
         11    1    4    4    0    0  0.27841291275E+02  0.14808212607E+02  0.24749319516E+02  0.40086774340E+02  0.00000000000E+00 0. -1.
         21    1    1    2  503  502 -0.22254007850E+02  0.97308659649E+01  0.52098515215E+01  0.24840957523E+02  0.00000000000E+00 0.  1.
         -4    1    1    2    0  503  0.27215095087E+02  0.85133106495E+02 -0.13599064234E+03  0.16273217883E+03  0.00000000000E+00 0.  1.
<scales pt_clust_5="13000.00000" pt_clust_6="13000.00000" pt_clust_7="13000.00000" pt_clust_8="13000.00000" pt_clust_9="24.28849" pt_clust_10="89.49798"></scales>
<clustering>
<clus scale="   24.288">  1  9  2 -1</clus>
<clus scale="   80.516">  5  6 -1 -1</clus>
<clus scale="   88.759">  7  8 -1 -1</clus>
<clus scale="   89.498">  1 10  2 -1</clus>
<clus scale="  106.408">  2  5  1 -1</clus>
<clus scale="   24.288">  1  5  2 -1</clus>
</clustering>
</event>
<event>
10    4  0.2977685E-005  0.9242334E+02  0.7546771E-02  0.1304563E+00
          2   -1    0    0  503    0 -0.00000000000E+00  0.00000000000E+00  0.15809918555E+03  0.15809918555E+03  0.00000000000E+00 0. -1.
         21   -1    0    0  501  502  0.00000000000E+00 -0.00000000000E+00 -0.12111166297E+03  0.12111166297E+03  0.00000000000E+00 0.  1.
         24    2    1    2    0    0 -0.92962251760E+01  0.72606268782E+01  0.81629801325E+02  0.11480155642E+03  0.79855096189E+02 0.  0.
         23    2    1    2    0    0  0.17663804334E+01 -0.83563357221E+01  0.34124100156E+01  0.92287485738E+02  0.91828029682E+02 0.  0.
        -13    1    3    3    0    0 -0.23228525476E+02  0.38794506827E+02  0.55236452266E+02  0.71383778372E+02  0.00000000000E+00 0.  1.
         14    1    3    3    0    0  0.13932300300E+02 -0.31533879949E+02  0.26393349059E+02  0.43417778050E+02  0.00000000000E+00 0. -1.
        -13    1    4    4    0    0  0.38584949137E+02  0.55714531577E+01 -0.22640162753E+02  0.45082328686E+02  0.00000000000E+00 0.  1.
         13    1    4    4    0    0 -0.36818568704E+02 -0.13927788880E+02  0.26052572769E+02  0.47205157053E+02  0.00000000000E+00 0. -1.
         21    1    1    2  503  502  0.10428004614E+02  0.21500298343E+02 -0.50352830539E+01  0.24420486983E+02  0.00000000000E+00 0.  1.
          1    1    1    2  501    0 -0.28981598712E+01 -0.20404589499E+02 -0.43019405705E+02  0.47701319378E+02  0.00000000000E+00 0. -1.
<scales pt_clust_5="13000.00000" pt_clust_6="13000.00000" pt_clust_7="13000.00000" pt_clust_8="13000.00000" pt_clust_9="20.11766" pt_clust_10="20.60938"></scales>
<clustering>
<clus scale="   20.609">  2 10  1 -1</clus>
<clus scale="   20.118">  2  9  1 -1</clus>
<clus scale="   79.855">  5  6 -1 -1</clus>
<clus scale="   80.539">  1  5  2 -1</clus>
<clus scale="   91.828">  7  8 -1 -1</clus>
<clus scale="   20.609">  2  5  1 -1</clus>
</clustering>
</event>
<event>
10    4  0.2977685E-005  0.2053365E+03  0.7546771E-02  0.1146429E+00
          2   -1    0    0  503    0 -0.00000000000E+00  0.00000000000E+00  0.69971706879E+03  0.69971706879E+03  0.00000000000E+00 0. -1.
         21   -1    0    0  501  502  0.00000000000E+00 -0.00000000000E+00 -0.24631960573E+03  0.24631960573E+03  0.00000000000E+00 0. -1.
         23    2    1    2    0    0 -0.11208110458E+03 -0.11458610952E+03  0.48758980989E+03  0.52134137199E+03  0.91437699799E+02 0.  0.
         24    2    1    2    0    0  0.12413586102E+03  0.11499082603E+03 -0.13078113676E+03  0.22783754740E+03  0.78572515620E+02 0.  0.
        -13    1    4    4    0    0 -0.25918917581E+01  0.19928619741E+02  0.32106228046E+01  0.20351311664E+02  0.00000000000E+00 0.  1.
         14    1    4    4    0    0  0.12672775277E+03  0.95062206290E+02 -0.13399175957E+03  0.20748623573E+03  0.00000000000E+00 0. -1.
        -11    1    3    3    0    0 -0.84209452709E+02 -0.30387918026E+02  0.31248537304E+03  0.32505655793E+03  0.00000000000E+00 0.  1.
         11    1    3    3    0    0 -0.27871651874E+02 -0.84198191489E+02  0.17510443685E+03  0.19628481406E+03  0.00000000000E+00 0. -1.
         21    1    1    2  503  502 -0.38679328452E+02  0.29720982372E+00  0.14037540235E+03  0.14560711648E+03  0.00000000000E+00 0.  1.
          1    1    1    2  501    0  0.26624572019E+02 -0.70192633865E+00 -0.43786612419E+02  0.51250638658E+02  0.00000000000E+00 0. -1.
<scales pt_clust_5="13000.00000" pt_clust_6="13000.00000" pt_clust_7="13000.00000" pt_clust_8="13000.00000" pt_clust_9="38.33008" pt_clust_10="26.63382"></scales>
<clustering>
<clus scale="   26.634">  2 10  1 -1</clus>
<clus scale="   38.330">  1  9  2 -1</clus>
<clus scale="   78.573">  5  6 -1 -1</clus>
<clus scale="   91.438">  7  8 -1 -1</clus>
<clus scale="  199.940">  2  5  1 -1</clus>
<clus scale="   26.634">  2  5  1 -1</clus>
</clustering>
</event>
<event>
10    4  0.2977685E-005  0.1833158E+03  0.7546771E-02  0.1166185E+00
          2   -1    0    0  503    0 -0.00000000000E+00  0.00000000000E+00  0.96435012278E+03  0.96435012278E+03  0.00000000000E+00 0. -1.
         21   -1    0    0  501  502  0.00000000000E+00 -0.00000000000E+00 -0.11579004178E+03  0.11579004178E+03  0.00000000000E+00 0. -1.
         23    2    1    2    0    0 -0.15518368161E+03  0.90334071798E+02  0.66047695769E+03  0.69041912038E+03  0.90589903317E+02 0.  0.
         24    2    1    2    0    0  0.13028768063E+03  0.12189308650E+01 -0.99999196098E+01  0.15152556710E+03  0.76704847152E+02 0.  0.
        -13    1    4    4    0    0  0.39059515493E+02 -0.26507117618E+02  0.20434542308E+02  0.51437763893E+02  0.00000000000E+00 0.  1.
         14    1    4    4    0    0  0.91228165138E+02  0.27726048483E+02 -0.30434461918E+02  0.10008780321E+03  0.00000000000E+00 0. -1.
        -11    1    3    3    0    0 -0.56489257307E+02  0.84853896630E+02  0.31539238129E+03  0.33145674551E+03  0.00000000000E+00 0.  1.
         11    1    3    3    0    0 -0.98694424305E+02  0.54801751685E+01  0.34508457639E+03  0.35896237487E+03  0.00000000000E+00 0. -1.
         21    1    1    2  503  502  0.27291297292E+01 -0.30189580900E+02  0.15958774063E+03  0.16244108440E+03  0.00000000000E+00 0. -1.
          1    1    1    2  501    0  0.22166871252E+02 -0.61363421763E+02  0.38495302295E+02  0.75754392680E+02  0.00000000000E+00 0. -1.
<scales pt_clust_5="13000.00000" pt_clust_6="13000.00000" pt_clust_7="13000.00000" pt_clust_8="13000.00000" pt_clust_9="30.31269" pt_clust_10="67.33168"></scales>
<clustering>
<clus scale="   30.313">  1  9  2 -1</clus>
<clus scale="   67.332">  2 10  1 -1</clus>
<clus scale="   76.705">  5  6 -1 -1</clus>
<clus scale="   90.590">  7  8 -1 -1</clus>
<clus scale="  176.867">  2  5  1 -1</clus>
<clus scale="   67.332">  2  5  1 -1</clus>
</clustering>
</event>
<event>
10    4  0.2977685E-005  0.1328783E+03  0.7546771E-02  0.1242254E+00
          2   -1    0    0  503    0 -0.00000000000E+00  0.00000000000E+00  0.30935576913E+03  0.30935576913E+03  0.00000000000E+00 0. -1.
         21   -1    0    0  501  502  0.00000000000E+00 -0.00000000000E+00 -0.19751529314E+03  0.19751529314E+03  0.00000000000E+00 0. -1.
         24    2    1    2    0    0  0.11367748694E+02  0.47028862329E+02  0.67318781054E+02  0.11576062177E+03  0.80794576963E+02 0.  0.
         23    2    1    2    0    0 -0.62402217015E+02  0.49252996752E+02 -0.42723805922E+02  0.12826224363E+03  0.91137177764E+02 0.  0.
        -11    1    3    3    0    0  0.21517813801E+02  0.62823928452E+02  0.27766014042E+02  0.71977870438E+02  0.00000000000E+00 0.  1.
         12    1    3    3    0    0 -0.10150065107E+02 -0.15795066124E+02  0.39552767012E+02  0.43782751328E+02  0.00000000000E+00 0. -1.
        -11    1    4    4    0    0 -0.61866049039E+02  0.72297310769E+02 -0.44693621721E+02  0.10512767947E+03  0.00000000000E+00 0. -1.
         11    1    4    4    0    0 -0.53616797596E+00 -0.23044314016E+02  0.19698157991E+01  0.23134564160E+02  0.00000000000E+00 0.  1.
         21    1    1    2  503  502 -0.24866621113E+02 -0.14253666051E+02  0.13739663446E+03  0.14035437650E+03  0.00000000000E+00 0. -1.
          1    1    1    2  501    0  0.75901089435E+02 -0.82028193030E+02 -0.50151133603E+02  0.12249382038E+03  0.00000000000E+00 0. -1.
<scales pt_clust_5="13000.00000" pt_clust_6="13000.00000" pt_clust_7="13000.00000" pt_clust_8="13000.00000" pt_clust_9="28.66210" pt_clust_10="96.69889"></scales>
<clustering>
<clus scale="   28.662">  1  9  2 -1</clus>
<clus scale="   80.795">  5  6 -1 -1</clus>
<clus scale="   89.901">  1  5  2 -1</clus>
<clus scale="   91.137">  7  8 -1 -1</clus>
<clus scale="   96.699">  2 10  1 -1</clus>
<clus scale="   96.699">  2  5  1 -1</clus>
</clustering>
</event>
<event>
10    4  0.2977685E-005  0.1454488E+03  0.7546771E-02  0.1212722E+00
         -1   -1    0    0    0  501 -0.00000000000E+00  0.00000000000E+00  0.63482074321E+02  0.63482074321E+02  0.00000000000E+00 0.  1.
         21   -1    0    0  503  502  0.00000000000E+00 -0.00000000000E+00 -0.11145096328E+04  0.11145096328E+04  0.00000000000E+00 0.  1.
         24    2    1    2    0    0  0.96256861016E+02  0.25360816357E+02 -0.45535813850E+03  0.47885216357E+03  0.10972604958E+03 0.  0.
         23    2    1    2    0    0 -0.10195418419E+03  0.44347315913E+02 -0.55597334477E+03  0.57301540993E+03  0.82939494969E+02 0.  0.
        -11    1    3    3    0    0  0.54293043991E+02 -0.32195289564E+02 -0.31713013158E+03  0.32335088008E+03  0.00000000000E+00 0.  1.
         12    1    3    3    0    0  0.41963817024E+02  0.57556105920E+02 -0.13822800692E+03  0.15550128348E+03  0.00000000000E+00 0. -1.
        -13    1    4    4    0    0 -0.89638824633E+02  0.24473161608E+02 -0.52993836542E+03  0.53802297875E+03  0.00000000000E+00 0.  1.
         13    1    4    4    0    0 -0.12315359553E+02  0.19874154305E+02 -0.26034979345E+02  0.34992431178E+02  0.00000000000E+00 0. -1.
         21    1    1    2  503  501 -0.33179589544E+02 -0.20341612747E+02  0.16074166518E+02  0.42107543276E+02  0.00000000000E+00 0.  1.
         -2    1    1    2    0  502  0.38876912714E+02 -0.49366519522E+02 -0.55770241752E+02  0.84016590368E+02  0.00000000000E+00 0.  1.
<scales pt_clust_5="13000.00000" pt_clust_6="13000.00000" pt_clust_7="13000.00000" pt_clust_8="13000.00000" pt_clust_9="38.91871" pt_clust_10="63.00188"></scales>
<clustering>
<clus scale="   38.919">  1  9  2 -1</clus>
<clus scale="   63.002">  2 10  1 -1</clus>
<clus scale="   82.939">  7  8 -1 -1</clus>
<clus scale="  109.726">  5  6 -1 -1</clus>
<clus scale="  126.469">  2  7  1 -1</clus>
<clus scale="   63.002">  2  5  1 -1</clus>
</clustering>
</event>
<event>
10    4  0.2977685E-005  0.9427870E+02  0.7546771E-02  0.1295802E+00
         21   -1    0    0  501  502  0.00000000000E+00  0.00000000000E+00  0.55135642771E+02  0.55135642771E+02  0.00000000000E+00 0.  1.
          2   -1    0    0  503    0 -0.00000000000E+00 -0.00000000000E+00 -0.39727281505E+03  0.39727281505E+03  0.00000000000E+00 0. -1.
         23    2    1    2    0    0  0.42598441717E+02  0.89941183799E+01 -0.19948589609E+03  0.22331389020E+03  0.90437544299E+02 0.  0.
         24    2    1    2    0    0 -0.13076090606E+02 -0.33665202075E+01 -0.32338884515E+02  0.92035060965E+02  0.85101888294E+02 0.  0.
        -13    1    4    4    0    0  0.15098587452E+01 -0.23021180363E+02  0.22348604085E+02  0.32120313250E+02  0.00000000000E+00 0.  1.
         14    1    4    4    0    0 -0.14585949351E+02  0.19654660156E+02 -0.54687488600E+02  0.59914747715E+02  0.00000000000E+00 0. -1.
        -11    1    3    3    0    0  0.42724668159E+02 -0.35220684869E+02 -0.96880569347E+02  0.11158735873E+03  0.00000000000E+00 0.  1.
         11    1    3    3    0    0 -0.12622644202E+00  0.44214803249E+02 -0.10260532674E+03  0.11172653147E+03  0.00000000000E+00 0. -1.
         21    1    1    2  503  502 -0.24865151797E+02  0.14998709520E+02 -0.11213656168E+03  0.11583542432E+03  0.00000000000E+00 0. -1.
          1    1    1    2  501    0 -0.46571993136E+01 -0.20626307693E+02  0.18241700088E+01  0.21224082329E+02  0.00000000000E+00 0. -1.
<scales pt_clust_5="13000.00000" pt_clust_6="13000.00000" pt_clust_7="13000.00000" pt_clust_8="13000.00000" pt_clust_9="28.76846" pt_clust_10="21.14555"></scales>
<clustering>
<clus scale="   21.146">  1 10  2 -1</clus>
<clus scale="   28.768">  2  9  1 -1</clus>
<clus scale="   85.102">  5  6 -1 -1</clus>
<clus scale="   89.173">  1  5  2 -1</clus>
<clus scale="   90.438">  7  8 -1 -1</clus>
<clus scale="   21.146">  1  5  2 -1</clus>
</clustering>
</event>
<event>
10    4  0.2977685E-005  0.1925152E+03  0.7546771E-02  0.1157174E+00
          2   -1    0    0  503    0 -0.00000000000E+00  0.00000000000E+00  0.75281156166E+03  0.75281156166E+03  0.00000000000E+00 0. -1.
         21   -1    0    0  501  502  0.00000000000E+00 -0.00000000000E+00 -0.34949229173E+03  0.34949229173E+03  0.00000000000E+00 0. -1.
         23    2    1    2    0    0  0.16816846244E+03  0.88997062512E+02  0.56500963876E+03  0.60289814401E+03  0.89717173689E+02 0.  0.
         24    2    1    2    0    0 -0.48977014145E+02 -0.19119722726E+03 -0.98977359605E+02  0.23488058647E+03  0.80107705991E+02 0.  0.
        -11    1    4    4    0    0 -0.48015790166E+02 -0.84496636078E+02 -0.81328066625E+02  0.12672589331E+03  0.00000000000E+00 0.  1.
         12    1    4    4    0    0 -0.96122397821E+00 -0.10670059118E+03 -0.17649292981E+02  0.10815469316E+03  0.00000000000E+00 0. -1.
        -11    1    3    3    0    0  0.14892089425E+03  0.58653127882E+02  0.52621744819E+03  0.55002038592E+03  0.00000000000E+00 0. -1.
         11    1    3    3    0    0  0.19247568198E+02  0.30343934630E+02  0.38792190577E+02  0.52877758085E+02  0.00000000000E+00 0.  1.
         21    1    1    2  503  502 -0.25601492936E+02  0.30282829884E+01  0.69784613911E+02  0.74394215348E+02  0.00000000000E+00 0.  1.
          1    1    1    2  501    0 -0.93589955363E+02  0.99171881758E+02 -0.13249762313E+03  0.19013090757E+03  0.00000000000E+00 0. -1.
<scales pt_clust_5="13000.00000" pt_clust_6="13000.00000" pt_clust_7="13000.00000" pt_clust_8="13000.00000" pt_clust_9="25.77997" pt_clust_10="137.19920"></scales>
<clustering>
<clus scale="   25.780">  1  9  2 -1</clus>
<clus scale="   80.108">  5  6 -1 -1</clus>
<clus scale="   89.717">  7  8 -1 -1</clus>
<clus scale="  137.199">  2 10  1 -1</clus>
<clus scale="  188.229">  2  5  1 -1</clus>
<clus scale="  137.199">  2  5  1 -1</clus>
</clustering>
</event>
<event>
10    4  0.2977685E-005  0.1013610E+03  0.7546771E-02  0.1283059E+00
         -1   -1    0    0    0  501 -0.00000000000E+00  0.00000000000E+00  0.45869663504E+03  0.45869663504E+03  0.00000000000E+00 0.  1.
         21   -1    0    0  503  502  0.00000000000E+00 -0.00000000000E+00 -0.85704440315E+02  0.85704440315E+02  0.00000000000E+00 0. -1.
         24    2    1    2    0    0  0.14628526364E+01  0.26449578948E+02  0.70465336313E+02  0.11064661870E+03  0.81090014452E+02 0.  0.
         23    2    1    2    0    0  0.32371415494E+01 -0.47132403517E+02  0.12127106604E+02  0.10452727987E+03  0.92449678074E+02 0.  0.
        -13    1    3    3    0    0 -0.22658858066E+02 -0.52399189268E+01  0.66705967457E+02  0.70643943078E+02  0.00000000000E+00 0.  1.
         14    1    3    3    0    0  0.24121710703E+02  0.31689497875E+02  0.37593688555E+01  0.40002675623E+02  0.00000000000E+00 0. -1.
        -13    1    4    4    0    0  0.26739754675E+02  0.19525151422E+02  0.26560975920E+01  0.33215973154E+02  0.00000000000E+00 0.  1.
         13    1    4    4    0    0 -0.23502613125E+02 -0.66657554939E+02  0.94710090118E+01  0.71311306718E+02  0.00000000000E+00 0. -1.
         21    1    1    2  503  501 -0.61899573087E+02  0.59245856435E+02  0.14846901426E+03  0.17141959295E+03  0.00000000000E+00 0.  1.
         -2    1    1    2    0  502  0.57199578902E+02 -0.38563031866E+02  0.14193073756E+03  0.15780758384E+03  0.00000000000E+00 0.  1.
<scales pt_clust_5="13000.00000" pt_clust_6="13000.00000" pt_clust_7="13000.00000" pt_clust_8="13000.00000" pt_clust_9="75.67073" pt_clust_10="68.98481"></scales>
<clustering>
<clus scale="   68.985">  2 10  1 -1</clus>
<clus scale="   75.671">  1  9  2 -1</clus>
<clus scale="   81.090">  5  6 -1 -1</clus>
<clus scale="   91.119">  1  5  2 -1</clus>
<clus scale="   92.450">  7  8 -1 -1</clus>
<clus scale="   68.985">  2  5  1 -1</clus>
</clustering>
</event>
<event>
10    4  0.2977685E-005  0.1963554E+03  0.7546771E-02  0.1153798E+00
         21   -1    0    0  501  502  0.00000000000E+00  0.00000000000E+00  0.72179748167E+03  0.72179748167E+03  0.00000000000E+00 0. -1.
          2   -1    0    0  503    0 -0.00000000000E+00 -0.00000000000E+00 -0.18532213920E+03  0.18532213920E+03  0.00000000000E+00 0. -1.
         24    2    1    2    0    0  0.10394815955E+03  0.10552247071E+03  0.14447196894E+03  0.22164226704E+03  0.79453967997E+02 0.  0.
         23    2    1    2    0    0 -0.74336425230E+02 -0.18057722009E+03  0.48233936390E+03  0.52799710443E+03  0.89418363814E+02 0.  0.
        -11    1    3    3    0    0  0.35464332914E+02  0.34403182529E+02  0.34983984343E+01  0.49533187549E+02  0.00000000000E+00 0.  1.
         12    1    3    3    0    0  0.68483826633E+02  0.71119288178E+02  0.14097357050E+03  0.17210907949E+03  0.00000000000E+00 0. -1.
        -11    1    4    4    0    0  0.12638532242E+02 -0.78490803000E+02  0.20671987482E+03  0.22148057544E+03  0.00000000000E+00 0.  1.
         11    1    4    4    0    0 -0.86974957472E+02 -0.10208641709E+03  0.27561948908E+03  0.30651652899E+03  0.00000000000E+00 0. -1.
         21    1    1    2  503  502 -0.10730782589E+02  0.67680563782E+02 -0.10976716941E+03  0.12940108149E+03  0.00000000000E+00 0. -1.
          1    1    1    2  501    0 -0.18880951728E+02  0.73741856020E+01  0.19431179050E+02  0.28079167914E+02  0.00000000000E+00 0. -1.
<scales pt_clust_5="13000.00000" pt_clust_6="13000.00000" pt_clust_7="13000.00000" pt_clust_8="13000.00000" pt_clust_9="68.67042" pt_clust_10="20.26990"></scales>
<clustering>
<clus scale="   20.270">  1 10  2 -1</clus>
<clus scale="   68.670">  2  9  1 -1</clus>
<clus scale="   79.454">  5  6 -1 -1</clus>
<clus scale="   89.418">  7  8 -1 -1</clus>
<clus scale="  192.023">  2  5  1 -1</clus>
<clus scale="   20.270">  1  5  2 -1</clus>
</clustering>
</event>
<event>
10    4  0.2977685E-005  0.2403499E+03  0.7546771E-02  0.1120113E+00
          2   -1    0    0  503    0 -0.00000000000E+00  0.00000000000E+00  0.14773067195E+03  0.14773067195E+03  0.00000000000E+00 0. -1.
         21   -1    0    0  501  502  0.00000000000E+00 -0.00000000000E+00 -0.87926473033E+03  0.87926473033E+03  0.00000000000E+00 0. -1.
         24    2    1    2    0    0 -0.23190045040E+00  0.26737063922E+03 -0.35681686426E+03  0.45314263366E+03  0.80826105447E+02 0.  0.
         23    2    1    2    0    0 -0.94191410867E+02 -0.17123253317E+03 -0.36250070264E+03  0.42155381449E+03  0.90045859434E+02 0.  0.
        -11    1    3    3    0    0 -0.26471512686E+02  0.48911425524E+02 -0.45158426591E+02  0.71640435669E+02  0.00000000000E+00 0.  1.
         12    1    3    3    0    0  0.26239612235E+02  0.21845921370E+03 -0.31165843767E+03  0.38150219799E+03  0.00000000000E+00 0. -1.
        -13    1    4    4    0    0 -0.72835523652E+02 -0.17564502263E+03 -0.34355885713E+03  0.39266891371E+03  0.00000000000E+00 0.  1.
         13    1    4    4    0    0 -0.21355887215E+02  0.44124894584E+01 -0.18941845508E+02  0.28884900782E+02  0.00000000000E+00 0. -1.
         21    1    1    2  503  502  0.10263928879E+02 -0.44750726480E+02  0.17771704966E+02  0.49232197330E+02  0.00000000000E+00 0. -1.
          1    1    1    2  501    0  0.84159382439E+02 -0.51387379573E+02 -0.29988196449E+02  0.10306675680E+03  0.00000000000E+00 0. -1.
<scales pt_clust_5="13000.00000" pt_clust_6="13000.00000" pt_clust_7="13000.00000" pt_clust_8="13000.00000" pt_clust_9="45.91270" pt_clust_10="109.37547"></scales>
<clustering>
<clus scale="   45.913">  1  9  2 -1</clus>
<clus scale="   80.826">  5  6 -1 -1</clus>
<clus scale="   90.046">  7  8 -1 -1</clus>
<clus scale="  109.375">  2 10  1 -1</clus>
<clus scale="  237.050">  1  5  2 -1</clus>
<clus scale="  109.375">  2  5  1 -1</clus>
</clustering>
</event>
<event>
10    4  0.2977685E-005  0.7996305E+03  0.7546771E-02  0.9560552E-01
         -3   -1    0    0    0  501 -0.00000000000E+00  0.00000000000E+00  0.20244575328E+04  0.20244575328E+04  0.00000000000E+00 0.  1.
         21   -1    0    0  503  502  0.00000000000E+00 -0.00000000000E+00 -0.34357063468E+03  0.34357063468E+03  0.00000000000E+00 0.  1.
         24    2    1    2    0    0  0.43875139845E+02  0.48663911460E+03  0.50117409041E+03  0.70450255165E+03  0.80035746005E+02 0.  0.
         23    2    1    2    0    0  0.13725878874E+03  0.23196032046E+03  0.39909775495E+03  0.48994698930E+03  0.90130288829E+02 0.  0.
        -11    1    3    3    0    0  0.41677922221E+02  0.44842483442E+03  0.42489798664E+03  0.61916086793E+03  0.00000000000E+00 0.  1.
         12    1    3    3    0    0  0.21972176248E+01  0.38214280176E+02  0.76276103769E+02  0.85341683724E+02  0.00000000000E+00 0. -1.
        -13    1    4    4    0    0  0.33847556317E+02  0.34502820002E+02  0.24843150309E+02  0.54344123638E+02  0.00000000000E+00 0. -1.
         13    1    4    4    0    0  0.10341123242E+03  0.19745750046E+03  0.37425460464E+03  0.43560286567E+03  0.00000000000E+00 0.  1.
         21    1    1    2  503  501  0.61410616443E+02  0.10965745974E+02  0.20181485404E+03  0.21123623436E+03  0.00000000000E+00 0.  1.
         -4    1    1    2    0  502 -0.24254454503E+03 -0.72956518103E+03  0.57880019870E+03  0.96234239214E+03  0.00000000000E+00 0.  1.
<scales pt_clust_5="13000.00000" pt_clust_6="13000.00000" pt_clust_7="13000.00000" pt_clust_8="13000.00000" pt_clust_9="62.38198" pt_clust_10="756.56014"></scales>
<clustering>
<clus scale="   62.382">  1  9  2 -1</clus>
<clus scale="   80.036">  5  6 -1 -1</clus>
<clus scale="   90.130">  7  8 -1 -1</clus>
<clus scale="  167.224">  5  7 -1 -1</clus>
<clus scale="  756.560">  2 10  1 -1</clus>
<clus scale="  756.560">  2  5  1 -1</clus>
</clustering>
</event>
<event>
10    4  0.2977685E-005  0.1167424E+03  0.7546771E-02  0.1250806E+00
          2   -1    0    0  503    0 -0.00000000000E+00  0.00000000000E+00  0.73118618051E+03  0.73118618051E+03  0.00000000000E+00 0. -1.
         21   -1    0    0  501  502  0.00000000000E+00 -0.00000000000E+00 -0.44236457883E+02  0.44236457883E+02  0.00000000000E+00 0.  1.
         24    2    1    2    0    0  0.40892475646E+02 -0.40744833981E+02  0.37421349201E+03  0.38734041002E+03  0.81636508806E+02 0.  0.
         23    2    1    2    0    0 -0.99053281213E+02  0.41081509112E+02  0.11842539525E+03  0.18263057285E+03  0.88487903060E+02 0.  0.
        -11    1    3    3    0    0  0.36032557007E+02  0.16954181198E+02  0.11377382460E+03  0.12054158033E+03  0.00000000000E+00 0.  1.
         12    1    3    3    0    0  0.48599186395E+01 -0.57699015179E+02  0.26043966741E+03  0.26679882969E+03  0.00000000000E+00 0. -1.
        -13    1    4    4    0    0 -0.75539230677E+02  0.26434986304E+02  0.23007520375E+02  0.83272623748E+02  0.00000000000E+00 0.  1.
         13    1    4    4    0    0 -0.23514050536E+02  0.14646522807E+02  0.95417874879E+02  0.99357949101E+02  0.00000000000E+00 0. -1.
         21    1    1    2  503  502  0.16991538841E+02 -0.12713122271E+02  0.93125107932E+02  0.95512415933E+02  0.00000000000E+00 0. -1.
          1    1    1    2  501    0  0.41169266726E+02  0.12376447141E+02  0.10118572743E+03  0.10993923959E+03  0.00000000000E+00 0. -1.
<scales pt_clust_5="13000.00000" pt_clust_6="13000.00000" pt_clust_7="13000.00000" pt_clust_8="13000.00000" pt_clust_9="21.22112" pt_clust_10="45.16854"></scales>
<clustering>
<clus scale="   21.221">  1  9  2 -1</clus>
<clus scale="   45.169">  2 10  1 -1</clus>
<clus scale="   81.637">  5  6 -1 -1</clus>
<clus scale="   88.488">  7  8 -1 -1</clus>
<clus scale="  111.639">  1  5  2 -1</clus>
<clus scale="   45.169">  2  5  1 -1</clus>
</clustering>
</event>
<event>
10    4  0.2977685E-005  0.8635614E+02  0.7546771E-02  0.1315580E+00
          2   -1    0    0  503    0 -0.00000000000E+00  0.00000000000E+00  0.95299198348E+03  0.95299198348E+03  0.00000000000E+00 0. -1.
         21   -1    0    0  501  502  0.00000000000E+00 -0.00000000000E+00 -0.32700446493E+02  0.32700446493E+02  0.00000000000E+00 0. -1.
         23    2    1    2    0    0  0.13667477447E+02  0.21059329810E+02  0.27326511883E+03  0.28756071847E+03  0.85947928020E+02 0.  0.
         24    2    1    2    0    0  0.10037118269E+02  0.44697639420E+02  0.11230698629E+03  0.14552247142E+03  0.80407137774E+02 0.  0.
        -11    1    4    4    0    0  0.37159004482E+02  0.64025801886E+01  0.80321590606E+02  0.88731857665E+02  0.00000000000E+00 0.  1.
         12    1    4    4    0    0 -0.27121886213E+02  0.38295059231E+02  0.31985395682E+02  0.56790613751E+02  0.00000000000E+00 0. -1.
        -11    1    3    3    0    0 -0.31170764083E+02 -0.47968009398E+01  0.56543588067E+02  0.64744136292E+02  0.00000000000E+00 0.  1.
         11    1    3    3    0    0  0.44838241530E+02  0.25856130750E+02  0.21672153076E+03  0.22281658218E+03  0.00000000000E+00 0. -1.
         21    1    1    2  503  502 -0.64649304010E+02 -0.18385947947E+02  0.17466068669E+03  0.18714681687E+03  0.00000000000E+00 0. -1.
          1    1    1    2  501    0  0.40944708294E+02 -0.47371021283E+02  0.36005874519E+03  0.36546242321E+03  0.00000000000E+00 0. -1.
<scales pt_clust_5="13000.00000" pt_clust_6="13000.00000" pt_clust_7="13000.00000" pt_clust_8="13000.00000" pt_clust_9="62.83411" pt_clust_10="62.61379"></scales>
<clustering>
<clus scale="   62.614">  2 10  1 -1</clus>
<clus scale="   62.834">  1  9  2 -1</clus>
<clus scale="   80.407">  5  6 -1 -1</clus>
<clus scale="   80.843">  2  5  1 -1</clus>
<clus scale="   85.948">  7  8 -1 -1</clus>
<clus scale="   62.614">  2  5  1 -1</clus>
</clustering>
</event>
<event>
10    4  0.2977685E-005  0.2303648E+03  0.7546771E-02  0.1127004E+00
         -1   -1    0    0    0  501 -0.00000000000E+00  0.00000000000E+00  0.53841678587E+03  0.53841678587E+03  0.00000000000E+00 0.  1.
         21   -1    0    0  503  502  0.00000000000E+00 -0.00000000000E+00 -0.59509810860E+03  0.59509810860E+03  0.00000000000E+00 0.  1.
         23    2    1    2    0    0 -0.15518429219E+03  0.14070679051E+03  0.34081558295E+03  0.41000215701E+03  0.89810588068E+02 0.  0.
         24    2    1    2    0    0  0.27612239158E+03 -0.59206864872E+02 -0.33436606239E+02  0.29551815868E+03  0.80398678413E+02 0.  0.
        -11    1    4    4    0    0  0.20685103596E+03 -0.15493776238E+02 -0.46483402363E+02  0.21257496296E+03  0.00000000000E+00 0.  1.
         12    1    4    4    0    0  0.69271355616E+02 -0.43713088633E+02  0.13046796124E+02  0.82943195718E+02  0.00000000000E+00 0. -1.
        -13    1    3    3    0    0 -0.12470608021E+03  0.13535109129E+03  0.22795551733E+03  0.29297652164E+03  0.00000000000E+00 0.  1.
         13    1    3    3    0    0 -0.30478211984E+02  0.53556992223E+01  0.11286006562E+03  0.11702563536E+03  0.00000000000E+00 0. -1.
         21    1    1    2  503  501 -0.43213234385E+01 -0.24818627808E+02  0.13647231377E+02  0.28651091546E+02  0.00000000000E+00 0. -1.
         -2    1    1    2    0  502 -0.11661677595E+03 -0.56681297832E+02 -0.37770753082E+03  0.39934348723E+03  0.00000000000E+00 0.  1.
<scales pt_clust_5="13000.00000" pt_clust_6="13000.00000" pt_clust_7="13000.00000" pt_clust_8="13000.00000" pt_clust_9="25.19202" pt_clust_10="129.97092"></scales>
<clustering>
<clus scale="   25.192">  1  9  2 -1</clus>
<clus scale="   80.399">  5  6 -1 -1</clus>
<clus scale="   89.811">  7  8 -1 -1</clus>
<clus scale="  129.971">  2 10  1 -1</clus>
<clus scale="  226.861">  2  5  1 -1</clus>
<clus scale="  129.971">  2  5  1 -1</clus>
</clustering>
</event>
<event>
10    4  0.2977685E-005  0.1333523E+03  0.7546771E-02  0.1230190E+00
         -1   -1    0    0    0  501 -0.00000000000E+00  0.00000000000E+00  0.38767523798E+03  0.38767523798E+03  0.00000000000E+00 0.  1.
         21   -1    0    0  503  502  0.00000000000E+00 -0.00000000000E+00 -0.13363354677E+03  0.13363354677E+03  0.00000000000E+00 0. -1.
         23    2    1    2    0    0 -0.25596470174E+02 -0.81501145722E+02  0.29831127268E+03  0.32812009333E+03  0.10665629000E+03 0.  0.
         24    2    1    2    0    0  0.48386666980E+02  0.86443151402E+02 -0.65093723540E+02  0.14351954051E+03  0.80913396286E+02 0.  0.
        -13    1    4    4    0    0  0.33589760403E+02  0.33481136607E+02  0.11907804059E+02  0.48898408051E+02  0.00000000000E+00 0.  1.
         14    1    4    4    0    0  0.14796906577E+02  0.52962014795E+02 -0.77001527599E+02  0.94621132460E+02  0.00000000000E+00 0. -1.
        -11    1    3    3    0    0 -0.65341392531E+02 -0.45106774995E+02  0.21183830987E+03  0.22622906148E+03  0.00000000000E+00 0.  1.
         11    1    3    3    0    0  0.39744922357E+02 -0.36394370727E+02  0.86472962815E+02  0.10189103185E+03  0.00000000000E+00 0. -1.
         21    1    1    2  503  501 -0.12068285293E+02  0.16253958925E+02  0.15045006927E+02  0.25222746165E+02  0.00000000000E+00 0. -1.
         -2    1    1    2    0  502 -0.10721911513E+02 -0.21195964604E+02  0.57791351352E+01  0.24446404744E+02  0.00000000000E+00 0.  1.
<scales pt_clust_5="13000.00000" pt_clust_6="13000.00000" pt_clust_7="13000.00000" pt_clust_8="13000.00000" pt_clust_9="20.24437" pt_clust_10="23.39295"></scales>
<clustering>
<clus scale="   20.244">  1  9  2 -1</clus>
<clus scale="   23.393">  2 10  1 -1</clus>
<clus scale="   80.913">  5  6 -1 -1</clus>
<clus scale="  106.656">  7  8 -1 -1</clus>
<clus scale="  113.817">  2  5  1 -1</clus>
<clus scale="   23.393">  2  5  1 -1</clus>
</clustering>
</event>
<event>
10    4  0.2977685E-005  0.1931354E+03  0.7546771E-02  0.1169413E+00
         21   -1    0    0  503  502  0.00000000000E+00  0.00000000000E+00  0.18058688504E+04  0.18058688504E+04  0.00000000000E+00 0.  1.
         -3   -1    0    0    0  501 -0.00000000000E+00 -0.00000000000E+00 -0.83110500740E+02  0.83110500740E+02  0.00000000000E+00 0.  1.
         24    2    1    2    0    0  0.11911201694E+03  0.17196090346E+02  0.53983163239E+02  0.15592199040E+03  0.83151109886E+02 0.  0.
         23    2    1    2    0    0  0.10089226631E+03 -0.98633950111E+02  0.47169655040E+03  0.49846165807E+03  0.77836260122E+02 0.  0.
        -13    1    3    3    0    0  0.11036050752E+03 -0.11286166861E+01  0.14226745778E+02  0.11127944865E+03  0.00000000000E+00 0.  1.
         14    1    3    3    0    0  0.87515094176E+01  0.18324707032E+02  0.39756417460E+02  0.44642541753E+02  0.00000000000E+00 0. -1.
        -13    1    4    4    0    0 -0.10271848956E+02 -0.25793001595E+02  0.67932068829E+02  0.73386346057E+02  0.00000000000E+00 0. -1.
         13    1    4    4    0    0  0.11116411526E+03 -0.72840948516E+02  0.40376448157E+03  0.42507531201E+03  0.00000000000E+00 0.  1.
         21    1    1    2  503  501 -0.17000734068E+02  0.26937922827E+02  0.17318697982E+02  0.36257605339E+02  0.00000000000E+00 0.  1.
         -4    1    1    2    0  502 -0.20300354918E+03  0.54499936938E+02  0.11797599381E+04  0.11983380974E+04  0.00000000000E+00 0.  1.
<scales pt_clust_5="13000.00000" pt_clust_6="13000.00000" pt_clust_7="13000.00000" pt_clust_8="13000.00000" pt_clust_9="31.85399" pt_clust_10="176.75633"></scales>
<clustering>
<clus scale="   31.854">  2  9  1 -1</clus>
<clus scale="   77.836">  7  8 -1 -1</clus>
<clus scale="   83.151">  5  6 -1 -1</clus>
<clus scale="  140.434">  2  5  1 -1</clus>
<clus scale="  176.756">  1 10  2 -1</clus>
<clus scale="  176.756">  1  5  2 -1</clus>
</clustering>
</event>
<event>
10    4  0.2977685E-005  0.1418217E+03  0.7546771E-02  0.1218350E+00
         21   -1    0    0  501  502  0.00000000000E+00  0.00000000000E+00  0.13178745581E+03  0.13178745581E+03  0.00000000000E+00 0.  1.
          2   -1    0    0  503    0 -0.00000000000E+00 -0.00000000000E+00 -0.33931738490E+03  0.33931738490E+03  0.00000000000E+00 0. -1.
         24    2    1    2    0    0 -0.69779475228E+02  0.17823530618E+02 -0.10690624290E+03  0.15035951499E+03  0.77409208562E+02 0.  0.
         23    2    1    2    0    0  0.12598105507E+03 -0.68262518710E+02  0.31262930432E+01  0.17882663580E+03  0.10694949399E+03 0.  0.
        -13    1    3    3    0    0 -0.14354883520E+02  0.41871896615E+02 -0.34924109500E+02  0.56382726356E+02  0.00000000000E+00 0.  1.
         14    1    3    3    0    0 -0.55424591707E+02 -0.24048365997E+02 -0.71982133399E+02  0.93976788633E+02  0.00000000000E+00 0. -1.
        -11    1    4    4    0    0  0.50448188416E+02  0.29007977859E+01 -0.41958244604E+02  0.65680504204E+02  0.00000000000E+00 0. -1.
         11    1    4    4    0    0  0.75532866652E+02 -0.71163316495E+02  0.45084537647E+02  0.11314613159E+03  0.00000000000E+00 0.  1.
         21    1    1    2  503  502 -0.13045290223E+02  0.16693921535E+02 -0.79022655509E+02  0.81813487255E+02  0.00000000000E+00 0. -1.
          1    1    1    2  501    0 -0.43156289617E+02  0.33745066556E+02 -0.24727323726E+02  0.60105202679E+02  0.00000000000E+00 0. -1.
<scales pt_clust_5="13000.00000" pt_clust_6="13000.00000" pt_clust_7="13000.00000" pt_clust_8="13000.00000" pt_clust_9="21.18647" pt_clust_10="58.15758"></scales>
<clustering>
<clus scale="   21.186">  2  9  1 -1</clus>
<clus scale="   58.158">  1 10  2 -1</clus>
<clus scale="   77.409">  5  6 -1 -1</clus>
<clus scale="  106.949">  7  8 -1 -1</clus>
<clus scale="  121.109">  2  5  1 -1</clus>
<clus scale="   58.158">  1  5  2 -1</clus>
</clustering>
</event>
<event>
10    4  0.2977685E-005  0.2555291E+03  0.7546771E-02  0.1110323E+00
          2   -1    0    0  503    0 -0.00000000000E+00  0.00000000000E+00  0.36170500618E+03  0.36170500618E+03  0.00000000000E+00 0. -1.
         21   -1    0    0  501  502  0.00000000000E+00 -0.00000000000E+00 -0.59591819488E+03  0.59591819488E+03  0.00000000000E+00 0. -1.
         24    2    1    2    0    0  0.39778443140E+02 -0.18738568750E+03 -0.20842346876E+01  0.20771417736E+03  0.80281473737E+02 0.  0.
         23    2    1    2    0    0 -0.13085242205E+03  0.22394903220E+03 -0.32316829319E+03  0.42388852870E+03  0.89264851200E+02 0.  0.
        -11    1    3    3    0    0  0.16536894061E+02 -0.16237140031E+02  0.23621769061E+02  0.33092318673E+02  0.00000000000E+00 0.  1.
         12    1    3    3    0    0  0.23241549079E+02 -0.17114854746E+03 -0.25706003748E+02  0.17462185869E+03  0.00000000000E+00 0. -1.
        -11    1    4    4    0    0 -0.65638856152E+02  0.49780406883E+02 -0.61235236080E+02  0.10264649280E+03  0.00000000000E+00 0.  1.
         11    1    4    4    0    0 -0.65213565901E+02  0.17416862532E+03 -0.26193305711E+03  0.32124203590E+03  0.00000000000E+00 0. -1.
         21    1    1    2  503  502  0.36612877247E+02 -0.15636252585E+03 -0.88056620975E+01  0.16083308725E+03  0.00000000000E+00 0. -1.
          1    1    1    2  501    0  0.54461101667E+02  0.11979918114E+03  0.99845001271E+02  0.16518740774E+03  0.00000000000E+00 0. -1.
<scales pt_clust_5="13000.00000" pt_clust_6="13000.00000" pt_clust_7="13000.00000" pt_clust_8="13000.00000" pt_clust_9="145.40040" pt_clust_10="131.59739"></scales>
<clustering>
<clus scale="   80.281">  5  6 -1 -1</clus>
<clus scale="   89.265">  7  8 -1 -1</clus>
<clus scale="  131.597">  2 10  1 -1</clus>
<clus scale="  145.400">  1  9  2 -1</clus>
<clus scale="  252.531">  1  5  2 -1</clus>
<clus scale="  131.597">  2  5  1 -1</clus>
</clustering>
</event>
<event>
10    4  0.2977685E-005  0.1326273E+03  0.7546771E-02  0.1227789E+00
          4   -1    0    0  503    0 -0.00000000000E+00  0.00000000000E+00  0.23520062474E+03  0.23520062474E+03  0.00000000000E+00 0. -1.
         21   -1    0    0  501  502  0.00000000000E+00 -0.00000000000E+00 -0.32355566910E+03  0.32355566910E+03  0.00000000000E+00 0.  1.
         23    2    1    2    0    0 -0.44127456223E+02  0.81100423806E+02  0.87259583280E+02  0.15572209127E+03  0.90059001213E+02 0.  0.
         24    2    1    2    0    0  0.11892507473E+03  0.36958917750E+02 -0.37012048807E+02  0.15214250125E+03  0.79172684231E+02 0.  0.
        -11    1    4    4    0    0  0.11893457103E+03  0.15078973959E+02 -0.46107592044E+02  0.12844733429E+03  0.00000000000E+00 0.  1.
         12    1    4    4    0    0 -0.94962993808E-02  0.21879943791E+02  0.90955432372E+01  0.23695166960E+02  0.00000000000E+00 0. -1.
        -11    1    3    3    0    0 -0.45866224112E+02  0.16403331817E+02  0.20952812292E+01  0.48756230499E+02  0.00000000000E+00 0.  1.
         11    1    3    3    0    0  0.17387678895E+01  0.64697091989E+02  0.85164302051E+02  0.10696586077E+03  0.00000000000E+00 0. -1.
         21    1    1    2  503  502 -0.26541496351E+02  0.12001172582E+02  0.23577344961E+02  0.37474929851E+02  0.00000000000E+00 0. -1.
          3    1    1    2  501    0 -0.48256122155E+02 -0.13006051414E+03 -0.16217992379E+03  0.21341677147E+03  0.00000000000E+00 0. -1.
<scales pt_clust_5="13000.00000" pt_clust_6="13000.00000" pt_clust_7="13000.00000" pt_clust_8="13000.00000" pt_clust_9="29.12867" pt_clust_10="138.51920"></scales>
<clustering>
<clus scale="   29.129">  1  9  2 -1</clus>
<clus scale="   79.173">  5  6 -1 -1</clus>
<clus scale="   90.059">  7  8 -1 -1</clus>
<clus scale="  138.519">  2 10  1 -1</clus>
<clus scale="  138.519">  2  5  1 -1</clus>
<clus scale="  132.627">  2  5  1 -1</clus>
</clustering>
</event>
<event>
10    4  0.2977685E-005  0.4323432E+03  0.7546771E-02  0.1058349E+00
          2   -1    0    0  503    0 -0.00000000000E+00  0.00000000000E+00  0.27671599083E+04  0.27671599083E+04  0.00000000000E+00 0. -1.
         21   -1    0    0  501  502  0.00000000000E+00 -0.00000000000E+00 -0.14683082536E+03  0.14683082536E+03  0.00000000000E+00 0. -1.
         23    2    1    2    0    0 -0.46367001585E+02 -0.18247825894E+03  0.12207222741E+03  0.24198963362E+03  0.90604305922E+02 0.  0.
         24    2    1    2    0    0  0.83319215805E+02  0.48664318551E+03  0.81517526733E+03  0.95635534818E+03  0.79631361860E+02 0.  0.
        -11    1    4    4    0    0  0.44471579212E+02  0.23907155208E+03  0.32577152814E+03  0.40652185294E+03  0.00000000000E+00 0.  1.
         12    1    4    4    0    0  0.38847636593E+02  0.24757163342E+03  0.48940373920E+03  0.54983349524E+03  0.00000000000E+00 0. -1.
        -13    1    3    3    0    0 -0.35828136211E+02 -0.20419297738E+02  0.48609743809E+02  0.63745668540E+02  0.00000000000E+00 0.  1.
         13    1    3    3    0    0 -0.10538865374E+02 -0.16205896121E+03  0.73462483599E+02  0.17824396508E+03  0.00000000000E+00 0. -1.
         21    1    1    2  503  502 -0.25728417983E+02  0.22565291855E+01  0.14871200163E+03  0.15093807619E+03  0.00000000000E+00 0. -1.
          1    1    1    2  501    0 -0.11223796237E+02 -0.30642145575E+03  0.15343695865E+04  0.15647076756E+04  0.00000000000E+00 0. -1.
<scales pt_clust_5="13000.00000" pt_clust_6="13000.00000" pt_clust_7="13000.00000" pt_clust_8="13000.00000" pt_clust_9="25.82718" pt_clust_10="424.94670"></scales>
<clustering>
<clus scale="   25.827">  1  9  2 -1</clus>
<clus scale="   79.631">  5  6 -1 -1</clus>
<clus scale="   90.604">  7  8 -1 -1</clus>
<clus scale="  209.211">  1  7  2 -1</clus>
<clus scale="  424.947">  2 10  1 -1</clus>
<clus scale="  424.947">  2  5  1 -1</clus>
</clustering>
</event>
<event>
10    4  0.2977685E-005  0.1228045E+03  0.7546771E-02  0.1241748E+00
         21   -1    0    0  501  502  0.00000000000E+00  0.00000000000E+00  0.11873540239E+03  0.11873540239E+03  0.00000000000E+00 0. -1.
          2   -1    0    0  503    0 -0.00000000000E+00 -0.00000000000E+00 -0.65512805431E+03  0.65512805431E+03  0.00000000000E+00 0. -1.
         24    2    1    2    0    0  0.58765656605E+02  0.44577156068E+02 -0.45783862445E+03  0.47063964184E+03  0.80280391130E+02 0.  0.
         23    2    1    2    0    0 -0.33714474215E+02 -0.61337367745E+02 -0.61199271404E+02  0.13011797444E+03  0.91029654503E+02 0.  0.
        -11    1    3    3    0    0 -0.12395549422E+01  0.21942059565E+02 -0.25907629019E+02  0.33973456047E+02  0.00000000000E+00 0.  1.
         12    1    3    3    0    0  0.60005211547E+02  0.22635096503E+02 -0.43193099543E+03  0.43666618580E+03  0.00000000000E+00 0. -1.
        -13    1    4    4    0    0 -0.38571264712E+02  0.42639727570E+01 -0.50157416480E+02  0.63416798667E+02  0.00000000000E+00 0. -1.
         13    1    4    4    0    0  0.48567904971E+01 -0.65601340502E+02 -0.11041854924E+02  0.66701175775E+02  0.00000000000E+00 0.  1.
         21    1    1    2  503  502 -0.54364820802E+01  0.28622450337E+02 -0.91223143578E+02  0.95762528815E+02  0.00000000000E+00 0. -1.
          1    1    1    2  501    0 -0.19614700310E+02 -0.11862238660E+02  0.73868387513E+02  0.77343311592E+02  0.00000000000E+00 0. -1.
<scales pt_clust_5="13000.00000" pt_clust_6="13000.00000" pt_clust_7="13000.00000" pt_clust_8="13000.00000" pt_clust_9="28.73575" pt_clust_10="22.92268"></scales>
<clustering>
<clus scale="   22.923">  1 10  2 -1</clus>
<clus scale="   28.736">  2  9  1 -1</clus>
<clus scale="   80.280">  5  6 -1 -1</clus>
<clus scale="   91.030">  7  8 -1 -1</clus>
<clus scale="  115.063">  2  5  1 -1</clus>
<clus scale="   22.923">  1  5  2 -1</clus>
</clustering>
</event>
<event>
10    4  0.2977685E-005  0.3786255E+03  0.7546771E-02  0.1106619E+00
         21   -1    0    0  501  502  0.00000000000E+00  0.00000000000E+00  0.25262775745E+03  0.25262775745E+03  0.00000000000E+00 0.  1.
          2   -1    0    0  503    0 -0.00000000000E+00 -0.00000000000E+00 -0.25061728881E+04  0.25061728881E+04  0.00000000000E+00 0. -1.
         24    2    1    2    0    0  0.31624164283E+02  0.30836148432E+01 -0.38932560502E+03  0.39851207800E+03  0.78916748189E+02 0.  0.
         23    2    1    2    0    0  0.39230254172E+02 -0.30347903785E+03  0.19303097012E+02  0.32027053318E+03  0.92531430400E+02 0.  0.
        -11    1    3    3    0    0  0.22643217198E+02  0.40010070587E+02 -0.18090590033E+03  0.18665600930E+03  0.00000000000E+00 0.  1.
         12    1    3    3    0    0  0.89809470847E+01 -0.36926455744E+02 -0.20841970469E+03  0.21185606871E+03  0.00000000000E+00 0. -1.
        -13    1    4    4    0    0  0.20573212147E+02 -0.14064097331E+03  0.55203734642E+02  0.15248145051E+03  0.00000000000E+00 0.  1.
         13    1    4    4    0    0  0.18657042025E+02 -0.16283806454E+03 -0.35900637630E+02  0.16778908267E+03  0.00000000000E+00 0. -1.
         21    1    1    2  503  502 -0.10400430035E+03  0.36482793043E+03 -0.19212353746E+04  0.19583313504E+04  0.00000000000E+00 0. -1.
          1    1    1    2  501    0  0.33149881894E+02 -0.64432507421E+02  0.37712751945E+02  0.81686683991E+02  0.00000000000E+00 0. -1.
<scales pt_clust_5="13000.00000" pt_clust_6="13000.00000" pt_clust_7="13000.00000" pt_clust_8="13000.00000" pt_clust_9="367.14469" pt_clust_10="72.46008"></scales>
<clustering>
<clus scale="   72.460">  1 10  2 -1</clus>
<clus scale="   78.917">  5  6 -1 -1</clus>
<clus scale="   85.328">  2  5  1 -1</clus>
<clus scale="   92.531">  7  8 -1 -1</clus>
<clus scale="  367.145">  2  9  1 -1</clus>
<clus scale="   72.460">  1  5  2 -1</clus>
</clustering>
</event>
<event>
10    4  0.2977685E-005  0.1893089E+03  0.7546771E-02  0.1182245E+00
         21   -1    0    0  501  502  0.00000000000E+00  0.00000000000E+00  0.18330173836E+03  0.18330173836E+03  0.00000000000E+00 0. -1.
          2   -1    0    0  503    0 -0.00000000000E+00 -0.00000000000E+00 -0.47124398497E+03  0.47124398497E+03  0.00000000000E+00 0. -1.
         24    2    1    2    0    0 -0.73007968876E+02  0.53858305102E+00 -0.66452059239E+02  0.12748761468E+03  0.80664503527E+02 0.  0.
         23    2    1    2    0    0 -0.21818865444E+02 -0.12104202970E+03 -0.15814706087E+03  0.22074558153E+03  0.92687016678E+02 0.  0.
        -13    1    3    3    0    0 -0.35656067510E+02  0.16216610323E+02  0.10474662570E+02  0.40546913034E+02  0.00000000000E+00 0.  1.
         14    1    3    3    0    0 -0.37351901366E+02 -0.15678027272E+02 -0.76926721809E+02  0.86940701649E+02  0.00000000000E+00 0. -1.
        -13    1    4    4    0    0 -0.23936091074E+02 -0.40645294592E+02 -0.12527724938E+03  0.13386323483E+03  0.00000000000E+00 0.  1.
         13    1    4    4    0    0  0.21172256305E+01 -0.80396735104E+02 -0.32869811490E+02  0.86882346694E+02  0.00000000000E+00 0. -1.
         21    1    1    2  503  502 -0.13474775592E+02 -0.29037963843E+02 -0.11108062971E+03  0.11560138070E+03  0.00000000000E+00 0. -1.
          1    1    1    2  501    0  0.10830160991E+03  0.14954141049E+03  0.47737503207E+02  0.19071114643E+03  0.00000000000E+00 0. -1.
<scales pt_clust_5="13000.00000" pt_clust_6="13000.00000" pt_clust_7="13000.00000" pt_clust_8="13000.00000" pt_clust_9="32.01207" pt_clust_10="165.06653"></scales>
<clustering>
<clus scale="   32.012">  2  9  1 -1</clus>
<clus scale="   80.665">  5  6 -1 -1</clus>
<clus scale="   92.687">  7  8 -1 -1</clus>
<clus scale="  111.522">  2  5  1 -1</clus>
<clus scale="  165.067">  1 10  2 -1</clus>
<clus scale="  165.067">  1  5  2 -1</clus>
</clustering>
</event>
<event>
10    4  0.2977685E-005  0.1245867E+03  0.7546771E-02  0.1238449E+00
         21   -1    0    0  501  502  0.00000000000E+00  0.00000000000E+00  0.37413440414E+03  0.37413440414E+03  0.00000000000E+00 0. -1.
          2   -1    0    0  503    0 -0.00000000000E+00 -0.00000000000E+00 -0.59001453596E+03  0.59001453596E+03  0.00000000000E+00 0. -1.
         23    2    1    2    0    0 -0.41751610686E+02  0.11400358821E+02 -0.30971346645E+03  0.32562954525E+03  0.90768960880E+02 0.  0.
         24    2    1    2    0    0  0.10994602220E+02 -0.35841180864E+02  0.33546944401E+03  0.34719732805E+03  0.81245093472E+02 0.  0.
        -13    1    4    4    0    0 -0.32744073620E+02 -0.11792115489E+00  0.11062882578E+03  0.11537298365E+03  0.00000000000E+00 0.  1.
         14    1    4    4    0    0  0.43738675840E+02 -0.35723259710E+02  0.22484061823E+03  0.23182434439E+03  0.00000000000E+00 0. -1.
        -11    1    3    3    0    0  0.11645263476E+02 -0.30466396019E+02 -0.10709102965E+03  0.11194776496E+03  0.00000000000E+00 0.  1.
         11    1    3    3    0    0 -0.53396874161E+02  0.41866754840E+02 -0.20262243680E+03  0.21368178028E+03  0.00000000000E+00 0. -1.
         21    1    1    2  503  502 -0.19280241853E+02  0.83267069228E+02 -0.12415350255E+03  0.15072897777E+03  0.00000000000E+00 0.  1.
          1    1    1    2  501    0  0.50037250318E+02 -0.58826247184E+02 -0.11748260683E+03  0.14059308903E+03  0.00000000000E+00 0. -1.
<scales pt_clust_5="13000.00000" pt_clust_6="13000.00000" pt_clust_7="13000.00000" pt_clust_8="13000.00000" pt_clust_9="82.96631" pt_clust_10="77.22862"></scales>
<clustering>
<clus scale="   77.229">  1 10  2 -1</clus>
<clus scale="   81.245">  5  6 -1 -1</clus>
<clus scale="   82.966">  2  9  1 -1</clus>
<clus scale="   90.769">  7  8 -1 -1</clus>
<clus scale="  117.829">  1  5  2 -1</clus>
<clus scale="   77.229">  1  5  2 -1</clus>
</clustering>
</event>
<event>
10    4  0.2977685E-005  0.9564052E+02  0.7546771E-02  0.1297814E+00
         21   -1    0    0  501  502  0.00000000000E+00  0.00000000000E+00  0.77335188610E+02  0.77335188610E+02  0.00000000000E+00 0.  1.
          2   -1    0    0  503    0 -0.00000000000E+00 -0.00000000000E+00 -0.29927859945E+03  0.29927859945E+03  0.00000000000E+00 0. -1.
         23    2    1    2    0    0 -0.36157406800E+02 -0.12431876238E+02 -0.15790363428E+03  0.18566314238E+03  0.89862868328E+02 0.  0.
         24    2    1    2    0    0 -0.47978019655E+01  0.94343991900E+01 -0.41224872173E+01  0.76349571144E+02  0.75499902790E+02 0.  0.
        -11    1    4    4    0    0 -0.24169614797E+02 -0.42428598236E-02  0.28427199069E+02  0.37313214072E+02  0.00000000000E+00 0.  1.
         12    1    4    4    0    0  0.19371812832E+02  0.94386420498E+01 -0.32549686286E+02  0.39036357072E+02  0.00000000000E+00 0. -1.
        -13    1    3    3    0    0 -0.53526844706E+02 -0.24271301316E+02 -0.15325009701E+03  0.16413351701E+03  0.00000000000E+00 0.  1.
         13    1    3    3    0    0  0.17369437906E+02  0.11839425078E+02 -0.46535372712E+01  0.21529625368E+02  0.00000000000E+00 0. -1.
         21    1    1    2  503  502  0.92452721898E+00 -0.38843483217E+02 -0.31905115135E+02  0.50275315124E+02  0.00000000000E+00 0. -1.
          1    1    1    2  501    0  0.40030681546E+02  0.41840960265E+02 -0.28012174207E+02  0.64325759418E+02  0.00000000000E+00 0. -1.
<scales pt_clust_5="13000.00000" pt_clust_6="13000.00000" pt_clust_7="13000.00000" pt_clust_8="13000.00000" pt_clust_9="38.85448" pt_clust_10="53.22951"></scales>
<clustering>
<clus scale="   38.854">  2  9  1 -1</clus>
<clus scale="   53.230">  1 10  2 -1</clus>
<clus scale="   75.500">  5  6 -1 -1</clus>
<clus scale="   82.292">  1  5  2 -1</clus>
<clus scale="   89.863">  7  8 -1 -1</clus>
<clus scale="   53.230">  1  5  2 -1</clus>
</clustering>
</event>
<event>
10    4  0.2977685E-005  0.2354504E+03  0.7546771E-02  0.1123485E+00
         21   -1    0    0  501  502  0.00000000000E+00  0.00000000000E+00  0.13991138846E+04  0.13991138846E+04  0.00000000000E+00 0.  1.
          2   -1    0    0  503    0 -0.00000000000E+00 -0.00000000000E+00 -0.23366195908E+03  0.23366195908E+03  0.00000000000E+00 0. -1.
         23    2    1    2    0    0 -0.53440687260E+02 -0.19653262448E+03  0.93195322450E+02  0.24159264648E+03  0.90557490964E+02 0.  0.
         24    2    1    2    0    0  0.23146302475E+03  0.12774324779E+03  0.11337990259E+04  0.11670049360E+04  0.80664864341E+02 0.  0.
        -11    1    4    4    0    0  0.22828322327E+03  0.11650898521E+03  0.11198979252E+04  0.11488511377E+04  0.00000000000E+00 0.  1.
         12    1    4    4    0    0  0.31798014787E+01  0.11234262579E+02  0.13901100699E+02  0.18153798330E+02  0.00000000000E+00 0. -1.
        -13    1    3    3    0    0  0.13564642652E+02 -0.88150295478E+02  0.10771791615E+02  0.89835992886E+02  0.00000000000E+00 0.  1.
         13    1    3    3    0    0 -0.67005329912E+02 -0.10838232900E+03  0.82423530836E+02  0.15175665360E+03  0.00000000000E+00 0. -1.
         21    1    1    2  503  502 -0.13845972612E+03  0.37916262625E+02  0.15450311525E+01  0.14356575445E+03  0.00000000000E+00 0. -1.
          1    1    1    2  501    0 -0.39562611364E+02  0.30873114059E+02 -0.63087453997E+02  0.80612506731E+02  0.00000000000E+00 0. -1.
<scales pt_clust_5="13000.00000" pt_clust_6="13000.00000" pt_clust_7="13000.00000" pt_clust_8="13000.00000" pt_clust_9="145.97771" pt_clust_10="50.18318"></scales>
<clustering>
<clus scale="   50.183">  1 10  2 -1</clus>
<clus scale="   80.665">  5  6 -1 -1</clus>
<clus scale="   90.557">  7  8 -1 -1</clus>
<clus scale="  145.978">  2  9  1 -1</clus>
<clus scale="  231.825">  1  5  2 -1</clus>
<clus scale="   50.183">  1  5  2 -1</clus>
</clustering>
</event>
<event>
10    4  0.2977685E-005  0.2863473E+03  0.7546771E-02  0.1105583E+00
         21   -1    0    0  501  502  0.00000000000E+00  0.00000000000E+00  0.11274427168E+03  0.11274427168E+03  0.00000000000E+00 0.  1.
          2   -1    0    0  503    0 -0.00000000000E+00 -0.00000000000E+00 -0.22860390179E+04  0.22860390179E+04  0.00000000000E+00 0. -1.
         23    2    1    2    0    0  0.14341653594E+03  0.10768939871E+03 -0.59476726115E+03  0.62784148594E+03  0.90947936513E+02 0.  0.
         24    2    1    2    0    0 -0.24510028461E+03  0.13261955777E+03 -0.21656488483E+03  0.36197494516E+03  0.80395366543E+02 0.  0.
        -13    1    4    4    0    0 -0.14117749857E+03  0.55885278247E+02 -0.16113770450E+03  0.22140372680E+03  0.00000000000E+00 0.  1.
         14    1    4    4    0    0 -0.10392278604E+03  0.76734279523E+02 -0.55427180325E+02  0.14057121836E+03  0.00000000000E+00 0. -1.
        -11    1    3    3    0    0  0.40877355190E+02 -0.58052656081E+01 -0.20540686985E+03  0.20951525352E+03  0.00000000000E+00 0. -1.
         11    1    3    3    0    0  0.10253918075E+03  0.11349466431E+03 -0.38936039130E+03  0.41832623241E+03  0.00000000000E+00 0.  1.
         21    1    1    2  503  502 -0.26558998042E+02  0.41284991767E+02 -0.24899496410E+03  0.25378794902E+03  0.00000000000E+00 0. -1.
          1    1    1    2  501    0  0.12824274671E+03 -0.28159394824E+03 -0.11129676361E+04  0.11551789094E+04  0.00000000000E+00 0. -1.
<scales pt_clust_5="13000.00000" pt_clust_6="13000.00000" pt_clust_7="13000.00000" pt_clust_8="13000.00000" pt_clust_9="49.09003" pt_clust_10="274.82988"></scales>
<clustering>
<clus scale="   49.090">  2  9  1 -1</clus>
<clus scale="   80.395">  5  6 -1 -1</clus>
<clus scale="   90.948">  7  8 -1 -1</clus>
<clus scale="  202.576">  2  7  1 -1</clus>
<clus scale="  274.830">  1 10  2 -1</clus>
<clus scale="  274.830">  1  5  2 -1</clus>
</clustering>
</event>
<event>
10    4  0.2977685E-005  0.2390452E+03  0.7546771E-02  0.1121102E+00
         21   -1    0    0  501  502  0.00000000000E+00  0.00000000000E+00  0.50708233922E+03  0.50708233922E+03  0.00000000000E+00 0. -1.
          2   -1    0    0  503    0 -0.00000000000E+00 -0.00000000000E+00 -0.73115757976E+03  0.73115757976E+03  0.00000000000E+00 0. -1.
         23    2    1    2    0    0 -0.21817574407E+03  0.55579804921E+02 -0.52140968642E+03  0.57503622693E+03  0.90049048723E+02 0.  0.
         24    2    1    2    0    0  0.16448795259E+03  0.84097966348E+01  0.22570985422E+02  0.18401171083E+03  0.78891375404E+02 0.  0.
        -11    1    4    4    0    0  0.13948453878E+03  0.23165564997E+02  0.43824480367E+02  0.14803095973E+03  0.00000000000E+00 0.  1.
         12    1    4    4    0    0  0.25003413810E+02 -0.14755768362E+02 -0.21253494945E+02  0.35980751097E+02  0.00000000000E+00 0. -1.
        -11    1    3    3    0    0 -0.18360108168E+03  0.36803315271E+02 -0.49042026627E+03  0.52495321580E+03  0.00000000000E+00 0. -1.
         11    1    3    3    0    0 -0.34574662389E+02  0.18776489650E+02 -0.30989420150E+02  0.50083011133E+02  0.00000000000E+00 0.  1.
         21    1    1    2  503  502 -0.24263381103E+02 -0.23776425976E+02 -0.94099524315E+02  0.10004374329E+03  0.00000000000E+00 0. -1.
          1    1    1    2  501    0  0.77951172583E+02 -0.40213175579E+02  0.36886298477E+03  0.37914823794E+03  0.00000000000E+00 0. -1.
<scales pt_clust_5="13000.00000" pt_clust_6="13000.00000" pt_clust_7="13000.00000" pt_clust_8="13000.00000" pt_clust_9="33.97102" pt_clust_10="87.62643"></scales>
<clustering>
<clus scale="   33.971">  2  9  1 -1</clus>
<clus scale="   78.891">  5  6 -1 -1</clus>
<clus scale="   87.626">  1 10  2 -1</clus>
<clus scale="   90.049">  7  8 -1 -1</clus>
<clus scale="  235.069">  1  5  2 -1</clus>
<clus scale="   87.626">  1  5  2 -1</clus>
</clustering>
</event>
<event>
10    4  0.2977685E-005  0.2741785E+03  0.7546771E-02  0.1099486E+00
         21   -1    0    0  501  502  0.00000000000E+00  0.00000000000E+00  0.36286109777E+03  0.36286109777E+03  0.00000000000E+00 0. -1.
          2   -1    0    0  503    0 -0.00000000000E+00 -0.00000000000E+00 -0.91794182851E+03  0.91794182851E+03  0.00000000000E+00 0. -1.
         23    2    1    2    0    0  0.27443418962E+03  0.86616229739E+02 -0.58780843385E+03  0.66089759134E+03  0.91925924782E+02 0.  0.
         24    2    1    2    0    0 -0.18738430104E+03 -0.12284966448E+03  0.22206732943E+03  0.32520807390E+03  0.79003013809E+02 0.  0.
        -13    1    4    4    0    0 -0.39254802280E+02 -0.22079888238E+02  0.96309376299E+02  0.10632006833E+03  0.00000000000E+00 0.  1.
         14    1    4    4    0    0 -0.14812949876E+03 -0.10076977624E+03  0.12575795313E+03  0.21888800557E+03  0.00000000000E+00 0. -1.
        -11    1    3    3    0    0  0.33162519107E+02  0.91100649433E+01 -0.21720042087E+02  0.40675621508E+02  0.00000000000E+00 0.  1.
         11    1    3    3    0    0  0.24127167051E+03  0.77506164796E+02 -0.56608839176E+03  0.62022196983E+03  0.00000000000E+00 0. -1.
         21    1    1    2  503  502 -0.28959432828E+02 -0.15920499707E+01 -0.21782888597E+03  0.21975123876E+03  0.00000000000E+00 0. -1.
          1    1    1    2  501    0 -0.58090455749E+02  0.37825484708E+02  0.28489259648E+02  0.74946022295E+02  0.00000000000E+00 0. -1.
<scales pt_clust_5="13000.00000" pt_clust_6="13000.00000" pt_clust_7="13000.00000" pt_clust_8="13000.00000" pt_clust_9="29.00316" pt_clust_10="70.09977"></scales>
<clustering>
<clus scale="   29.003">  2  9  1 -1</clus>
<clus scale="   70.100">  1 10  2 -1</clus>
<clus scale="   79.003">  5  6 -1 -1</clus>
<clus scale="   91.926">  7  8 -1 -1</clus>
<clus scale="  270.120">  1  5  2 -1</clus>
<clus scale="   70.100">  1  5  2 -1</clus>
</clustering>
</event>
<event>
10    4  0.2977685E-005  0.1589369E+03  0.7546771E-02  0.1215445E+00
          2   -1    0    0  503    0 -0.00000000000E+00  0.00000000000E+00  0.63235978902E+03  0.63235978902E+03  0.00000000000E+00 0. -1.
         21   -1    0    0  501  502  0.00000000000E+00 -0.00000000000E+00 -0.26554931052E+03  0.26554931052E+03  0.00000000000E+00 0. -1.
         24    2    1    2    0    0 -0.45669794305E+02  0.17117589525E+02  0.89296608764E+01  0.93631670804E+02  0.79425493081E+02 0.  0.
         23    2    1    2    0    0 -0.92304747579E+02  0.63187551725E+02  0.27015032095E+03  0.30642234257E+03  0.91654912573E+02 0.  0.
        -11    1    3    3    0    0 -0.17810290872E+02  0.47990296051E+02  0.93994753161E+01  0.52044453232E+02  0.00000000000E+00 0.  1.
         12    1    3    3    0    0 -0.27859503432E+02 -0.30872706526E+02 -0.46981443979E+00  0.41587217571E+02  0.00000000000E+00 0. -1.
        -11    1    4    4    0    0 -0.47399180405E+02  0.11989425326E+02  0.20982147696E+03  0.21544252323E+03  0.00000000000E+00 0.  1.
         11    1    4    4    0    0 -0.44905567175E+02  0.51198126398E+02  0.60328843991E+02  0.90979819341E+02  0.00000000000E+00 0. -1.
         21    1    1    2  503  502  0.92440588597E+01 -0.52213690185E+02  0.26876646315E+03  0.27394731935E+03  0.00000000000E+00 0. -1.
          1    1    1    2  501    0  0.12873048302E+03 -0.28091451065E+02 -0.18103596648E+03  0.22390776682E+03  0.00000000000E+00 0. -1.
<scales pt_clust_5="13000.00000" pt_clust_6="13000.00000" pt_clust_7="13000.00000" pt_clust_8="13000.00000" pt_clust_9="53.02567" pt_clust_10="129.84731"></scales>
<clustering>
<clus scale="   53.026">  1  9  2 -1</clus>
<clus scale="   79.425">  5  6 -1 -1</clus>
<clus scale="   91.488">  1  5  2 -1</clus>
<clus scale="   91.655">  7  8 -1 -1</clus>
<clus scale="  129.847">  2 10  1 -1</clus>
<clus scale="  129.847">  2  5  1 -1</clus>
</clustering>
</event>
<event>
10    4  0.2977685E-005  0.2765391E+03  0.7546771E-02  0.1129368E+00
         21   -1    0    0  501  502  0.00000000000E+00  0.00000000000E+00  0.57321122024E+03  0.57321122024E+03  0.00000000000E+00 0. -1.
          2   -1    0    0  503    0 -0.00000000000E+00 -0.00000000000E+00 -0.31224591675E+03  0.31224591675E+03  0.00000000000E+00 0. -1.
         23    2    1    2    0    0  0.84436279577E+02  0.50555149538E+01  0.10130560167E+03  0.15987351349E+03  0.90231213250E+02 0.  0.
         24    2    1    2    0    0 -0.44631123257E+02 -0.28772734970E+03  0.15465785572E+03  0.33936686053E+03  0.80447801442E+02 0.  0.
        -11    1    4    4    0    0 -0.20368252733E+02 -0.69655363894E+02  0.29925416659E+01  0.72633950355E+02  0.00000000000E+00 0.  1.
         12    1    4    4    0    0 -0.24262870524E+02 -0.21807198581E+03  0.15166531406E+03  0.26673291017E+03  0.00000000000E+00 0. -1.
        -11    1    3    3    0    0  0.88313263908E+02 -0.15125177050E+02  0.45676398016E+02  0.10057005965E+03  0.00000000000E+00 0. -1.
         11    1    3    3    0    0 -0.38769843312E+01  0.20180692004E+02  0.55629203658E+02  0.59303453836E+02  0.00000000000E+00 0.  1.
         21    1    1    2  503  502 -0.31375425828E+01  0.38032769330E+02 -0.10778850466E+03  0.11434464331E+03  0.00000000000E+00 0. -1.
          1    1    1    2  501    0 -0.36667613737E+02  0.24463906542E+03  0.11279035076E+03  0.27187211966E+03  0.00000000000E+00 0. -1.
<scales pt_clust_5="13000.00000" pt_clust_6="13000.00000" pt_clust_7="13000.00000" pt_clust_8="13000.00000" pt_clust_9="38.16197" pt_clust_10="264.57895"></scales>
<clustering>
<clus scale="   38.162">  2  9  1 -1</clus>
<clus scale="   80.448">  5  6 -1 -1</clus>
<clus scale="   90.231">  7  8 -1 -1</clus>
<clus scale="  123.719">  2  7  1 -1</clus>
<clus scale="  264.579">  1 10  2 -1</clus>
<clus scale="  264.579">  1  5  2 -1</clus>
</clustering>
</event>
<event>
10    4  0.2977685E-005  0.1945784E+03  0.7546771E-02  0.1161621E+00
         -1   -1    0    0    0  501 -0.00000000000E+00  0.00000000000E+00  0.28754935960E+03  0.28754935960E+03  0.00000000000E+00 0.  1.
         21   -1    0    0  503  502  0.00000000000E+00 -0.00000000000E+00 -0.69615108504E+03  0.69615108504E+03  0.00000000000E+00 0.  1.
         24    2    1    2    0    0  0.15149937963E+03 -0.39357352818E+02  0.12505354578E+03  0.21598149307E+03  0.80675602171E+02 0.  0.
         23    2    1    2    0    0  0.11615176945E+03 -0.15023232459E+02 -0.26133493583E+03  0.29935479561E+03  0.87180352763E+02 0.  0.
        -13    1    3    3    0    0  0.11196154308E+03 -0.56088165185E+02  0.11877231548E+03  0.17259238780E+03  0.00000000000E+00 0.  1.
         14    1    3    3    0    0  0.39537836552E+02  0.16730812367E+02  0.62812303010E+01  0.43389105265E+02  0.00000000000E+00 0. -1.
        -13    1    4    4    0    0  0.10075868745E+03  0.19610074285E+02 -0.15012117579E+03  0.18186048370E+03  0.00000000000E+00 0.  1.
         13    1    4    4    0    0  0.15393082004E+02 -0.34633306744E+02 -0.11121376003E+03  0.11749431191E+03  0.00000000000E+00 0. -1.
         21    1    1    2  503  501 -0.32026351500E+03  0.26124277651E+02 -0.22824951561E+03  0.39414342351E+03  0.00000000000E+00 0.  1.
         -2    1    1    2    0  502  0.52612365917E+02  0.28256307626E+02 -0.44070819786E+02  0.74220732445E+02  0.00000000000E+00 0.  1.
<scales pt_clust_5="13000.00000" pt_clust_6="13000.00000" pt_clust_7="13000.00000" pt_clust_8="13000.00000" pt_clust_9="177.06555" pt_clust_10="59.72001"></scales>
<clustering>
<clus scale="   59.720">  2 10  1 -1</clus>
<clus scale="   80.676">  5  6 -1 -1</clus>
<clus scale="   87.180">  7  8 -1 -1</clus>
<clus scale="  164.357">  2  7  1 -1</clus>
<clus scale="  177.066">  2  9  1 -1</clus>
<clus scale="   59.720">  2  5  1 -1</clus>
</clustering>
</event>
<event>
10    4  0.2977685E-005  0.1104589E+03  0.7546771E-02  0.1262097E+00
          2   -1    0    0  503    0 -0.00000000000E+00  0.00000000000E+00  0.26998224509E+03  0.26998224509E+03  0.00000000000E+00 0. -1.
         21   -1    0    0  501  502  0.00000000000E+00 -0.00000000000E+00 -0.19465918759E+03  0.19465918759E+03  0.00000000000E+00 0. -1.
         23    2    1    2    0    0 -0.56930617601E+02  0.39658231014E+02 -0.26296197576E+02  0.11706647031E+03  0.90549422732E+02 0.  0.
         24    2    1    2    0    0  0.46013986368E+02 -0.19124014555E+02 -0.94897671360E+02  0.13638943325E+03  0.84341535425E+02 0.  0.
        -11    1    4    4    0    0 -0.95820095404E+01  0.20789361915E+02 -0.50455291203E+01  0.23440773020E+02  0.00000000000E+00 0.  1.
         12    1    4    4    0    0  0.55595995908E+02 -0.39913376470E+02 -0.89852142240E+02  0.11294866023E+03  0.00000000000E+00 0. -1.
        -11    1    3    3    0    0  0.87017246193E+01  0.31590636102E+02 -0.37715434247E+02  0.49961407918E+02  0.00000000000E+00 0.  1.
         11    1    3    3    0    0 -0.65632342220E+02  0.80675949127E+01  0.11419236671E+02  0.67105062395E+02  0.00000000000E+00 0. -1.
         21    1    1    2  503  502 -0.11368784919E+02  0.24433692124E+02  0.61624990197E+02  0.67259898886E+02  0.00000000000E+00 0.  1.
          1    1    1    2  501    0  0.22285416152E+02 -0.44967908583E+02  0.13489193624E+03  0.14392563023E+03  0.00000000000E+00 0. -1.
<scales pt_clust_5="13000.00000" pt_clust_6="13000.00000" pt_clust_7="13000.00000" pt_clust_8="13000.00000" pt_clust_9="26.94911" pt_clust_10="31.91748"></scales>
<clustering>
<clus scale="   26.949">  1  9  2 -1</clus>
<clus scale="   31.917">  2 10  1 -1</clus>
<clus scale="   84.342">  5  6 -1 -1</clus>
<clus scale="   90.549">  7  8 -1 -1</clus>
<clus scale="  105.430">  2  5  1 -1</clus>
<clus scale="   31.917">  2  5  1 -1</clus>
</clustering>
</event>
<event>
10    4  0.2977685E-005  0.1518862E+03  0.7546771E-02  0.1199975E+00
          2   -1    0    0  503    0 -0.00000000000E+00  0.00000000000E+00  0.52591724686E+03  0.52591724686E+03  0.00000000000E+00 0. -1.
         21   -1    0    0  501  502  0.00000000000E+00 -0.00000000000E+00 -0.15780926796E+03  0.15780926796E+03  0.00000000000E+00 0.  1.
         24    2    1    2    0    0 -0.13668673747E+03 -0.31054270202E+02  0.30568961110E+02  0.16460651150E+03  0.80704462990E+02 0.  0.
         23    2    1    2    0    0  0.49525228530E+02  0.12677064386E+03  0.23863419493E+02  0.16536168966E+03  0.90837664048E+02 0.  0.
        -11    1    3    3    0    0 -0.13601697613E+03 -0.48358762729E+02  0.28759811989E+02  0.14719481823E+03  0.00000000000E+00 0.  1.
         12    1    3    3    0    0 -0.66976133907E+00  0.17304492527E+02  0.18091491209E+01  0.17411693267E+02  0.00000000000E+00 0. -1.
        -11    1    4    4    0    0  0.61978492503E+02  0.39499166170E+02  0.23648157577E+02  0.77205913102E+02  0.00000000000E+00 0. -1.
         11    1    4    4    0    0 -0.12453263973E+02  0.87271477693E+02  0.21526191570E+00  0.88155776554E+02  0.00000000000E+00 0.  1.
         21    1    1    2  503  502  0.77621703428E+02 -0.72949570379E+02  0.31122825627E+03  0.32895257433E+03  0.00000000000E+00 0. -1.
          1    1    1    2  501    0  0.95398055147E+01 -0.22766803281E+02  0.24473420281E+01  0.24805739334E+02  0.00000000000E+00 0. -1.
<scales pt_clust_5="13000.00000" pt_clust_6="13000.00000" pt_clust_7="13000.00000" pt_clust_8="13000.00000" pt_clust_9="107.88541" pt_clust_10="24.68472"></scales>
<clustering>
<clus scale="   24.685">  2 10  1 -1</clus>
<clus scale="   80.704">  5  6 -1 -1</clus>
<clus scale="   90.838">  7  8 -1 -1</clus>
<clus scale="  107.885">  1  9  2 -1</clus>
<clus scale="  146.052">  1  5  2 -1</clus>
<clus scale="   24.685">  2  5  1 -1</clus>
</clustering>
</event>
<event>
10    4  0.2977685E-005  0.1403560E+03  0.7546771E-02  0.1216678E+00
         -3   -1    0    0    0  501 -0.00000000000E+00  0.00000000000E+00  0.19229471079E+03  0.19229471079E+03  0.00000000000E+00 0.  1.
         21   -1    0    0  503  502  0.00000000000E+00 -0.00000000000E+00 -0.56395623560E+03  0.56395623560E+03  0.00000000000E+00 0. -1.
         24    2    1    2    0    0  0.83341562683E+02  0.21630728338E+02 -0.70948328313E+02  0.13778244821E+03  0.80849448146E+02 0.  0.
         23    2    1    2    0    0 -0.12769667058E+03  0.65349158737E+02 -0.41663315514E+03  0.45127108635E+03  0.97393301532E+02 0.  0.
        -11    1    3    3    0    0  0.84120748821E+02  0.26697274048E+02 -0.25248665052E+02  0.91796186798E+02  0.00000000000E+00 0.  1.
         12    1    3    3    0    0 -0.77918613814E+00 -0.50665457099E+01 -0.45699663261E+02  0.45986261412E+02  0.00000000000E+00 0. -1.
        -13    1    4    4    0    0 -0.52231335257E+02  0.74388205465E+02 -0.28644945227E+03  0.30052455174E+03  0.00000000000E+00 0. -1.
         13    1    4    4    0    0 -0.75465335321E+02 -0.90390467279E+01 -0.13018370287E+03  0.15074653460E+03  0.00000000000E+00 0.  1.
         21    1    1    2  503  501  0.17963422577E+02 -0.62149868494E+02  0.11379493253E+03  0.13089911143E+03  0.00000000000E+00 0.  1.
         -4    1    1    2    0  502  0.26391685317E+02 -0.24830018581E+02  0.21250261181E+01  0.36298300410E+02  0.00000000000E+00 0.  1.
<scales pt_clust_5="13000.00000" pt_clust_6="13000.00000" pt_clust_7="13000.00000" pt_clust_8="13000.00000" pt_clust_9="65.18209" pt_clust_10="36.23606"></scales>
<clustering>
<clus scale="   36.236">  2 10  1 -1</clus>
<clus scale="   65.182">  1  9  2 -1</clus>
<clus scale="   80.849">  5  6 -1 -1</clus>
<clus scale="   97.393">  7  8 -1 -1</clus>
<clus scale="  129.426">  1  5  2 -1</clus>
<clus scale="   36.236">  2  5  1 -1</clus>
</clustering>
</event>
<event>
10    4  0.2977685E-005  0.1716184E+03  0.7546771E-02  0.1203870E+00
          2   -1    0    0  503    0 -0.00000000000E+00  0.00000000000E+00  0.72910434815E+03  0.72910434815E+03  0.00000000000E+00 0. -1.
         21   -1    0    0  501  502  0.00000000000E+00 -0.00000000000E+00 -0.27857719407E+03  0.27857719407E+03  0.00000000000E+00 0. -1.
         24    2    1    2    0    0 -0.19987155493E+02  0.31197540671E+02  0.40239541979E+01  0.93670916482E+02  0.85937625395E+02 0.  0.
         23    2    1    2    0    0 -0.61158927294E+02 -0.12940870419E+03  0.53379891534E+03  0.56014595208E+03  0.91297198800E+02 0.  0.
        -13    1    3    3    0    0  0.26391514249E+02  0.82441821395E+01 -0.22384107204E+02  0.35574243756E+02  0.00000000000E+00 0.  1.
         14    1    3    3    0    0 -0.46378669742E+02  0.22953358532E+02  0.26408061402E+02  0.58096672726E+02  0.00000000000E+00 0. -1.
        -13    1    4    4    0    0  0.18567576286E+02 -0.44145839259E+02  0.22453016826E+03  0.22958093665E+03  0.00000000000E+00 0.  1.
         13    1    4    4    0    0 -0.79726503581E+02 -0.85262864932E+02  0.30926874708E+03  0.33056501544E+03  0.00000000000E+00 0. -1.
         21    1    1    2  503  502 -0.14541578640E+01 -0.21563758879E+02  0.10810571928E+03  0.11024498543E+03  0.00000000000E+00 0. -1.
          1    1    1    2  501    0  0.82600240651E+02  0.11977492240E+03 -0.19540143473E+03  0.24361968822E+03  0.00000000000E+00 0. -1.
<scales pt_clust_5="13000.00000" pt_clust_6="13000.00000" pt_clust_7="13000.00000" pt_clust_8="13000.00000" pt_clust_9="21.61273" pt_clust_10="145.31933"></scales>
<clustering>
<clus scale="   21.613">  1  9  2 -1</clus>
<clus scale="   85.938">  5  6 -1 -1</clus>
<clus scale="   91.297">  7  8 -1 -1</clus>
<clus scale="   93.057">  1  5  2 -1</clus>
<clus scale="  145.319">  2 10  1 -1</clus>
<clus scale="  145.319">  2  5  1 -1</clus>
</clustering>
</event>
<event>
10    4  0.2977685E-005  0.1248865E+03  0.7546771E-02  0.1240283E+00
          2   -1    0    0  503    0 -0.00000000000E+00  0.00000000000E+00  0.84163454881E+03  0.84163454881E+03  0.00000000000E+00 0. -1.
         21   -1    0    0  501  502  0.00000000000E+00 -0.00000000000E+00 -0.36000564863E+02  0.36000564863E+02  0.00000000000E+00 0.  1.
         23    2    1    2    0    0  0.22860483504E+02 -0.42517704152E+02  0.22519277598E+03  0.24789717488E+03  0.91710774107E+02 0.  0.
         24    2    1    2    0    0 -0.73614938069E+02  0.10256472382E+03  0.28581390326E+03  0.32116031096E+03  0.74267599657E+02 0.  0.
        -13    1    4    4    0    0 -0.80331557359E+02  0.73031615636E+02  0.25851151199E+03  0.28038362617E+03  0.00000000000E+00 0.  1.
         14    1    4    4    0    0  0.67166192903E+01  0.29533108181E+02  0.27302391268E+02  0.40776684790E+02  0.00000000000E+00 0. -1.
        -13    1    3    3    0    0 -0.28402964329E+02 -0.37858158817E+02  0.70908258317E+02  0.85252270758E+02  0.00000000000E+00 0.  1.
         13    1    3    3    0    0  0.51263447833E+02 -0.46595453342E+01  0.15428451766E+03  0.16264490412E+03  0.00000000000E+00 0. -1.
         21    1    1    2  503  502  0.15713807830E+02 -0.43311475009E+02  0.21630233401E+03  0.22115493963E+03  0.00000000000E+00 0. -1.
          1    1    1    2  501    0  0.35040646735E+02 -0.16735544656E+02  0.78324970694E+02  0.87422688204E+02  0.00000000000E+00 0. -1.
<scales pt_clust_5="13000.00000" pt_clust_6="13000.00000" pt_clust_7="13000.00000" pt_clust_8="13000.00000" pt_clust_9="48.25525" pt_clust_10="38.83201"></scales>
<clustering>
<clus scale="   38.832">  2 10  1 -1</clus>
<clus scale="   48.255">  1  9  2 -1</clus>
<clus scale="   74.268">  5  6 -1 -1</clus>
<clus scale="   91.711">  7  8 -1 -1</clus>
<clus scale="  112.701">  2  5  1 -1</clus>
<clus scale="   38.832">  2  5  1 -1</clus>
</clustering>
</event>
<event>
10    4  0.2977685E-005  0.1221951E+03  0.7546771E-02  0.1247187E+00
         21   -1    0    0  501  502  0.00000000000E+00  0.00000000000E+00  0.19126735950E+03  0.19126735950E+03  0.00000000000E+00 0. -1.
         -3   -1    0    0    0  501 -0.00000000000E+00 -0.00000000000E+00 -0.20125377078E+03  0.20125377078E+03  0.00000000000E+00 0.  1.
         24    2    1    2    0    0  0.38088386805E+02  0.72585388314E+02 -0.14057816961E+02  0.10685206290E+03  0.67084851655E+02 0.  0.
         23    2    1    2    0    0 -0.71400329012E+02 -0.44911493686E+02  0.90005784887E+02  0.15392776975E+03  0.92074251227E+02 0.  0.
        -11    1    3    3    0    0  0.28517662067E+02  0.29794124261E+00  0.97590811863E+01  0.30142751771E+02  0.00000000000E+00 0.  1.
         12    1    3    3    0    0  0.95707247385E+01  0.72287447071E+02 -0.23816898147E+02  0.76709311126E+02  0.00000000000E+00 0. -1.
        -13    1    4    4    0    0 -0.32041222584E+02  0.14282890473E+02 -0.48263100323E+01  0.35410932965E+02  0.00000000000E+00 0.  1.
         13    1    4    4    0    0 -0.39359106428E+02 -0.59194384159E+02  0.94832094919E+02  0.11851683678E+03  0.00000000000E+00 0. -1.
         21    1    1    2  503  502  0.33902753822E+01  0.23358253332E+02  0.41542943840E+01  0.23965811644E+02  0.00000000000E+00 0.  1.
         -4    1    1    2    0  503  0.29921666825E+02 -0.51032147960E+02 -0.90088673595E+02  0.10777548599E+03  0.00000000000E+00 0.  1.
<scales pt_clust_5="13000.00000" pt_clust_6="13000.00000" pt_clust_7="13000.00000" pt_clust_8="13000.00000" pt_clust_9="23.60301" pt_clust_10="58.24198"></scales>
<clustering>
<clus scale="   23.603">  1  9  2 -1</clus>
<clus scale="   58.242">  1 10  2 -1</clus>
<clus scale="   67.085">  5  6 -1 -1</clus>
<clus scale="   92.074">  7  8 -1 -1</clus>
<clus scale="  104.663">  2  5  1 -1</clus>
<clus scale="   23.603">  1  5  2 -1</clus>
</clustering>
</event>
<event>
10    4  0.2977685E-005  0.1298423E+03  0.7546771E-02  0.1230411E+00
         21   -1    0    0  501  502  0.00000000000E+00  0.00000000000E+00  0.10430260912E+03  0.10430260912E+03  0.00000000000E+00 0. -1.
          2   -1    0    0  503    0 -0.00000000000E+00 -0.00000000000E+00 -0.55495126807E+03  0.55495126807E+03  0.00000000000E+00 0. -1.
         23    2    1    2    0    0 -0.46846095201E+02 -0.85844997889E+02 -0.17421075666E+03  0.21981239537E+03  0.91674320966E+02 0.  0.
         24    2    1    2    0    0  0.73481769879E+02  0.77968003850E+02 -0.24298393962E+02  0.13666895354E+03  0.81298282788E+02 0.  0.
        -13    1    4    4    0    0  0.59087315354E+02  0.83438638565E+02 -0.44300035190E+02  0.11142625525E+03  0.00000000000E+00 0.  1.
         14    1    4    4    0    0  0.14394454525E+02 -0.54706347151E+01  0.20001641228E+02  0.25242698292E+02  0.00000000000E+00 0. -1.
        -11    1    3    3    0    0 -0.67830542208E+02 -0.72580418749E+02 -0.97539921325E+02  0.13922261273E+03  0.00000000000E+00 0.  1.
         11    1    3    3    0    0  0.20984447007E+02 -0.13264579140E+02 -0.76670835332E+02  0.80589782643E+02  0.00000000000E+00 0. -1.
         21    1    1    2  503  502  0.55836390775E+02 -0.33970769981E+01 -0.19226137843E+03  0.20023406379E+03  0.00000000000E+00 0. -1.
          1    1    1    2  501    0 -0.82472065453E+02  0.11274071037E+02 -0.59878129908E+02  0.10253846449E+03  0.00000000000E+00 0. -1.
<scales pt_clust_5="13000.00000" pt_clust_6="13000.00000" pt_clust_7="13000.00000" pt_clust_8="13000.00000" pt_clust_9="55.93963" pt_clust_10="70.61682"></scales>
<clustering>
<clus scale="   55.940">  2  9  1 -1</clus>
<clus scale="   70.617">  1 10  2 -1</clus>
<clus scale="   81.298">  5  6 -1 -1</clus>
<clus scale="   91.674">  7  8 -1 -1</clus>
<clus scale="  122.737">  1  5  2 -1</clus>
<clus scale="   70.617">  1  5  2 -1</clus>
</clustering>
</event>
<event>
10    4  0.2977685E-005  0.1704096E+03  0.7546771E-02  0.1178806E+00
          4   -1    0    0  503    0 -0.00000000000E+00  0.00000000000E+00  0.16403776029E+03  0.16403776029E+03  0.00000000000E+00 0. -1.
         21   -1    0    0  501  502  0.00000000000E+00 -0.00000000000E+00 -0.46695560791E+03  0.46695560791E+03  0.00000000000E+00 0.  1.
         24    2    1    2    0    0  0.16422852195E+03  0.12002805452E+02 -0.34245024857E+02  0.18616265819E+03  0.79804378427E+02 0.  0.
         23    2    1    2    0    0 -0.10020362600E+03 -0.57297222889E+02 -0.27881393153E+03  0.31494170838E+03  0.90151721281E+02 0.  0.
        -13    1    3    3    0    0  0.73741242763E+02 -0.26934191985E+02  0.81301297430E+01  0.78926045079E+02  0.00000000000E+00 0.  1.
         14    1    3    3    0    0  0.90487279188E+02  0.38936997438E+02 -0.42375154601E+02  0.10723661311E+03  0.00000000000E+00 0. -1.
        -13    1    4    4    0    0 -0.64589518926E+02 -0.56895840942E+02 -0.26157394122E+03  0.27537223788E+03  0.00000000000E+00 0.  1.
         13    1    4    4    0    0 -0.35614107070E+02 -0.40138194668E+00 -0.17239990316E+02  0.39569470504E+02  0.00000000000E+00 0. -1.
         21    1    1    2  503  502 -0.98830359035E+01 -0.18127865464E+02  0.36923924505E+02  0.42304492738E+02  0.00000000000E+00 0.  1.
          3    1    1    2  501    0 -0.54141860052E+02  0.63422282900E+02 -0.26782815732E+02  0.87584508885E+02  0.00000000000E+00 0. -1.
<scales pt_clust_5="13000.00000" pt_clust_6="13000.00000" pt_clust_7="13000.00000" pt_clust_8="13000.00000" pt_clust_9="20.64689" pt_clust_10="81.72415"></scales>
<clustering>
<clus scale="   20.647">  1  9  2 -1</clus>
<clus scale="   79.804">  5  6 -1 -1</clus>
<clus scale="   81.724">  2 10  1 -1</clus>
<clus scale="   90.152">  7  8 -1 -1</clus>
<clus scale="  165.169">  1  5  2 -1</clus>
<clus scale="   81.724">  2  5  1 -1</clus>
</clustering>
</event>
<event>
10    4  0.2977685E-005  0.1143010E+03  0.7546771E-02  0.1258163E+00
         -1   -1    0    0    0  501 -0.00000000000E+00  0.00000000000E+00  0.28771264977E+03  0.28771264977E+03  0.00000000000E+00 0.  1.
         21   -1    0    0  503  502  0.00000000000E+00 -0.00000000000E+00 -0.26783621570E+03  0.26783621570E+03  0.00000000000E+00 0.  1.
         23    2    1    2    0    0  0.27815180172E+02  0.29503202796E+02  0.23162197635E+03  0.25238196100E+03  0.91672193639E+02 0.  0.
         24    2    1    2    0    0 -0.12896116495E+02 -0.54490239005E+01 -0.16867652619E+03  0.19886814517E+03  0.10440673825E+03 0.  0.
        -13    1    4    4    0    0 -0.20604048914E+02  0.46470773671E+02 -0.10240916767E+03  0.11433152348E+03  0.00000000000E+00 0.  1.
         14    1    4    4    0    0  0.77079324185E+01 -0.51919797572E+02 -0.66267358519E+02  0.84536621692E+02  0.00000000000E+00 0. -1.
        -13    1    3    3    0    0  0.28582737330E+02 -0.26588855116E+02  0.13627993214E+03  0.14176092549E+03  0.00000000000E+00 0.  1.
         13    1    3    3    0    0 -0.76755715790E+00  0.56092057912E+02  0.95342044211E+02  0.11062103552E+03  0.00000000000E+00 0. -1.
         21    1    1    2  503  501  0.24768631803E+02 -0.25052573541E+02  0.11282477081E+02  0.36992037677E+02  0.00000000000E+00 0.  1.
         -2    1    1    2    0  502 -0.39687695479E+02  0.99839464590E+00 -0.54351493170E+02  0.67306721612E+02  0.00000000000E+00 0.  1.
<scales pt_clust_5="13000.00000" pt_clust_6="13000.00000" pt_clust_7="13000.00000" pt_clust_8="13000.00000" pt_clust_9="35.22948" pt_clust_10="39.08086"></scales>
<clustering>
<clus scale="   35.229">  1  9  2 -1</clus>
<clus scale="   39.081">  2 10  1 -1</clus>
<clus scale="   91.672">  7  8 -1 -1</clus>
<clus scale="  102.800">  1  7  2 -1</clus>
<clus scale="  104.407">  5  6 -1 -1</clus>
<clus scale="   39.081">  2  5  1 -1</clus>
</clustering>
</event>
<event>
10    4  0.2977685E-005  0.4156995E+03  0.7546771E-02  0.1084153E+00
         21   -1    0    0  501  502  0.00000000000E+00  0.00000000000E+00  0.14492503202E+04  0.14492503202E+04  0.00000000000E+00 0. -1.
          4   -1    0    0  503    0 -0.00000000000E+00 -0.00000000000E+00 -0.19580534434E+03  0.19580534434E+03  0.00000000000E+00 0. -1.
         23    2    1    2    0    0  0.12618099632E+02  0.71006278099E+02  0.11972898536E+03  0.16687862070E+03  0.91172014027E+02 0.  0.
         24    2    1    2    0    0 -0.20618674100E+03 -0.40318605219E+03  0.57621025569E+03  0.73721103737E+03  0.79936787678E+02 0.  0.
        -13    1    4    4    0    0 -0.11164451407E+03 -0.17511874459E+03  0.31933486040E+03  0.38092758537E+03  0.00000000000E+00 0.  1.
         14    1    4    4    0    0 -0.94542226928E+02 -0.22806730760E+03  0.25687539529E+03  0.35628345200E+03  0.00000000000E+00 0. -1.
        -13    1    3    3    0    0  0.52021580659E+02  0.37574596592E+02  0.73153114522E+02  0.97311218920E+02  0.00000000000E+00 0.  1.
         13    1    3    3    0    0 -0.39403481027E+02  0.33431681507E+02  0.46575870838E+02  0.69567401775E+02  0.00000000000E+00 0. -1.
         21    1    1    2  503  502  0.32598244397E+02 -0.88432870100E+01 -0.28442261584E+02  0.44156670016E+02  0.00000000000E+00 0.  1.
          3    1    1    2  501    0  0.16097039697E+03  0.34102306110E+03  0.58594799638E+03  0.69680933645E+03  0.00000000000E+00 0. -1.
<scales pt_clust_5="13000.00000" pt_clust_6="13000.00000" pt_clust_7="13000.00000" pt_clust_8="13000.00000" pt_clust_9="33.77646" pt_clust_10="407.94138"></scales>
<clustering>
<clus scale="   33.776">  2  9  1 -1</clus>
<clus scale="   79.937">  5  6 -1 -1</clus>
<clus scale="   91.172">  7  8 -1 -1</clus>
<clus scale="  116.079">  2  7  1 -1</clus>
<clus scale="  407.941">  1 10  2 -1</clus>
<clus scale="  407.941">  1  5  2 -1</clus>
</clustering>
</event>
<event>
10    4  0.2977685E-005  0.1707919E+03  0.7546771E-02  0.1178681E+00
         -1   -1    0    0    0  501 -0.00000000000E+00  0.00000000000E+00  0.88289444149E+03  0.88289444149E+03  0.00000000000E+00 0.  1.
         21   -1    0    0  503  502  0.00000000000E+00 -0.00000000000E+00 -0.87619140390E+02  0.87619140390E+02  0.00000000000E+00 0.  1.
         23    2    1    2    0    0  0.97410827843E+02 -0.99920677731E+01  0.20031568413E+03  0.24065892111E+03  0.90562863251E+02 0.  0.
         24    2    1    2    0    0 -0.19591809491E+03  0.72283427127E+02  0.21491703686E+03  0.30967630143E+03  0.78110723868E+02 0.  0.
        -11    1    4    4    0    0 -0.18495112921E+03  0.56645044178E+02  0.21672359898E+03  0.29049044662E+03  0.00000000000E+00 0.  1.
         12    1    4    4    0    0 -0.10966965703E+02  0.15638382949E+02 -0.18065621163E+01  0.19185854807E+02  0.00000000000E+00 0. -1.
        -13    1    3    3    0    0  0.20730038726E+02 -0.39600472345E+02  0.37801674498E+02  0.58539717375E+02  0.00000000000E+00 0.  1.
         13    1    3    3    0    0  0.76680789118E+02  0.29608404572E+02  0.16251400963E+03  0.18211920373E+03  0.00000000000E+00 0. -1.
         21    1    1    2  503  501  0.66193067421E+02  0.20941209648E+02  0.26834754929E+03  0.27718308687E+03  0.00000000000E+00 0.  1.
         -2    1    1    2    0  502  0.32314199643E+02 -0.83232569002E+02  0.11169503082E+03  0.14299527248E+03  0.00000000000E+00 0.  1.
<scales pt_clust_5="13000.00000" pt_clust_6="13000.00000" pt_clust_7="13000.00000" pt_clust_8="13000.00000" pt_clust_9="69.42663" pt_clust_10="91.36276"></scales>
<clustering>
<clus scale="   69.427">  1  9  2 -1</clus>
<clus scale="   78.111">  5  6 -1 -1</clus>
<clus scale="   90.563">  7  8 -1 -1</clus>
<clus scale="   91.363">  2 10  1 -1</clus>
<clus scale="  164.528">  2  5  1 -1</clus>
<clus scale="   91.363">  2  5  1 -1</clus>
</clustering>
</event>
<event>
10    4  0.2977685E-005  0.1236226E+03  0.7546771E-02  0.1241392E+00
         -3   -1    0    0    0  501 -0.00000000000E+00  0.00000000000E+00  0.56105718663E+03  0.56105718663E+03  0.00000000000E+00 0.  1.
         21   -1    0    0  503  502  0.00000000000E+00 -0.00000000000E+00 -0.63254553742E+02  0.63254553742E+02  0.00000000000E+00 0. -1.
         23    2    1    2    0    0  0.98825034733E+02  0.23265096779E+02  0.17645154069E+03  0.22403559976E+03  0.93536899303E+02 0.  0.
         24    2    1    2    0    0 -0.67373083118E+02 -0.31303915014E+00  0.11984026375E+03  0.15898033794E+03  0.79836261893E+02 0.  0.
        -13    1    4    4    0    0 -0.12726368437E+02 -0.29146179283E+02  0.78341205645E+02  0.84550604506E+02  0.00000000000E+00 0.  1.
         14    1    4    4    0    0 -0.54646714681E+02  0.28833140132E+02  0.41499058106E+02  0.74429733433E+02  0.00000000000E+00 0. -1.
        -13    1    3    3    0    0  0.64687968090E+02  0.30027978835E+02  0.17525976034E+03  0.18921468316E+03  0.00000000000E+00 0.  1.
         13    1    3    3    0    0  0.34137066643E+02 -0.67628820564E+01  0.11917803493E+01  0.34820916604E+02  0.00000000000E+00 0. -1.
         21    1    1    2  503  501 -0.36385367438E+02  0.26999346284E+01  0.21052420676E+03  0.21366241187E+03  0.00000000000E+00 0.  1.
         -4    1    1    2    0  502  0.49334158219E+01 -0.25651992257E+02 -0.90133783195E+01  0.27633390801E+02  0.00000000000E+00 0.  1.
<scales pt_clust_5="13000.00000" pt_clust_6="13000.00000" pt_clust_7="13000.00000" pt_clust_8="13000.00000" pt_clust_9="36.25799" pt_clust_10="26.12208"></scales>
<clustering>
<clus scale="   26.122">  2 10  1 -1</clus>
<clus scale="   36.258">  1  9  2 -1</clus>
<clus scale="   79.836">  5  6 -1 -1</clus>
<clus scale="   93.537">  7  8 -1 -1</clus>
<clus scale="  113.610">  2  5  1 -1</clus>
<clus scale="   26.122">  2  5  1 -1</clus>
</clustering>
</event>
<event>
10    4  0.2977685E-005  0.1331538E+03  0.7546771E-02  0.1238332E+00
          2   -1    0    0  503    0 -0.00000000000E+00  0.00000000000E+00  0.17580320194E+03  0.17580320194E+03  0.00000000000E+00 0. -1.
         21   -1    0    0  501  502  0.00000000000E+00 -0.00000000000E+00 -0.38289342980E+03  0.38289342980E+03  0.00000000000E+00 0.  1.
         23    2    1    2    0    0  0.37989361471E+02  0.37156570164E+02  0.82599293589E+02  0.13337374115E+03  0.90233636946E+02 0.  0.
         24    2    1    2    0    0  0.10614319798E+03 -0.17401236349E+02 -0.19243653840E+03  0.23451833074E+03  0.79986527851E+02 0.  0.
        -11    1    4    4    0    0  0.10911779200E+03  0.57314166326E+01 -0.17044344970E+03  0.20246113507E+03  0.00000000000E+00 0.  1.
         12    1    4    4    0    0 -0.29745940252E+01 -0.23132652981E+02 -0.21993088701E+02  0.32057195669E+02  0.00000000000E+00 0. -1.
        -13    1    3    3    0    0  0.43352038321E+02 -0.19214034880E+02  0.30167829262E+02  0.56202102144E+02  0.00000000000E+00 0.  1.
         13    1    3    3    0    0 -0.53626768508E+01  0.56370605044E+02  0.52431464326E+02  0.77171639010E+02  0.00000000000E+00 0. -1.
         21    1    1    2  503  502 -0.37398768968E+02 -0.58044152458E+01  0.96922792489E+01  0.39067882380E+02  0.00000000000E+00 0.  1.
          1    1    1    2  501    0 -0.10673379048E+03 -0.13950918570E+02 -0.10694526230E+03  0.15173667747E+03  0.00000000000E+00 0. -1.
<scales pt_clust_5="13000.00000" pt_clust_6="13000.00000" pt_clust_7="13000.00000" pt_clust_8="13000.00000" pt_clust_9="37.84652" pt_clust_10="106.45237"></scales>
<clustering>
<clus scale="   37.847">  1  9  2 -1</clus>
<clus scale="   79.987">  5  6 -1 -1</clus>
<clus scale="   90.234">  7  8 -1 -1</clus>
<clus scale="   96.749">  1  7  2 -1</clus>
<clus scale="  106.452">  2 10  1 -1</clus>
<clus scale="  106.452">  2  5  1 -1</clus>
</clustering>
</event>
<event>
10    4  0.2977685E-005  0.1321484E+03  0.7546771E-02  0.1232184E+00
         21   -1    0    0  501  502  0.00000000000E+00  0.00000000000E+00  0.42344064932E+03  0.42344064932E+03  0.00000000000E+00 0. -1.
          2   -1    0    0  503    0 -0.00000000000E+00 -0.00000000000E+00 -0.14129806932E+03  0.14129806932E+03  0.00000000000E+00 0. -1.
         23    2    1    2    0    0  0.61949683898E+02  0.26225838656E+02  0.10932046157E+03  0.15864932022E+03  0.93236717768E+02 0.  0.
         24    2    1    2    0    0 -0.44794651764E+01  0.40000213705E+02 -0.11873172530E+02  0.91250787873E+02  0.81028706992E+02 0.  0.
        -13    1    4    4    0    0  0.18215009227E+02 -0.11056013593E+02  0.18000138098E+02  0.27893134805E+02  0.00000000000E+00 0.  1.
         14    1    4    4    0    0 -0.22694474403E+02  0.51056227298E+02 -0.29873310628E+02  0.63357653068E+02  0.00000000000E+00 0. -1.
        -13    1    3    3    0    0  0.11978857369E+02 -0.33740456402E+02  0.24536328950E+02  0.43404410610E+02  0.00000000000E+00 0.  1.
         13    1    3    3    0    0  0.49970826529E+02  0.59966295058E+02  0.84784132621E+02  0.11524490961E+03  0.00000000000E+00 0. -1.
         21    1    1    2  503  502 -0.63360466228E+02  0.63952045412E+02  0.15161246630E+01  0.90037277985E+02  0.00000000000E+00 0. -1.
          1    1    1    2  501    0  0.58902475060E+01 -0.13017809777E+03  0.18317916629E+03  0.22480133256E+03  0.00000000000E+00 0. -1.
<scales pt_clust_5="13000.00000" pt_clust_6="13000.00000" pt_clust_7="13000.00000" pt_clust_8="13000.00000" pt_clust_9="90.02451" pt_clust_10="104.39136"></scales>
<clustering>
<clus scale="   81.029">  5  6 -1 -1</clus>
<clus scale="   90.025">  2  9  1 -1</clus>
<clus scale="   93.237">  7  8 -1 -1</clus>
<clus scale="  112.247">  2  7  1 -1</clus>
<clus scale="  104.391">  1 10  2 -1</clus>
<clus scale="  104.391">  1  5  2 -1</clus>
</clustering>
</event>
<event>
10    4  0.2977685E-005  0.1072342E+03  0.7546771E-02  0.1271496E+00
         -1   -1    0    0    0  501 -0.00000000000E+00  0.00000000000E+00  0.44577551208E+03  0.44577551208E+03  0.00000000000E+00 0.  1.
         21   -1    0    0  503  502  0.00000000000E+00 -0.00000000000E+00 -0.59644682012E+02  0.59644682012E+02  0.00000000000E+00 0.  1.
         23    2    1    2    0    0  0.20491378160E+02  0.49239574860E+02  0.14284100312E+03  0.17838446310E+03  0.92590670116E+02 0.  0.
         24    2    1    2    0    0 -0.63870973030E+02 -0.43822687464E+02  0.54381129703E+02  0.12346916944E+03  0.79293123290E+02 0.  0.
        -11    1    4    4    0    0 -0.46162645425E+02 -0.65640437021E+02  0.51200184934E+02  0.95189893068E+02  0.00000000000E+00 0.  1.
         12    1    4    4    0    0 -0.17708327605E+02  0.21817749557E+02  0.31809447689E+01  0.28279276369E+02  0.00000000000E+00 0. -1.
        -13    1    3    3    0    0  0.24609120089E+02  0.75837673243E+02  0.11147837248E+03  0.13705615275E+03  0.00000000000E+00 0.  1.
         13    1    3    3    0    0 -0.41177419294E+01 -0.26598098384E+02  0.31362630638E+02  0.41328310355E+02  0.00000000000E+00 0. -1.
         21    1    1    2  503  501 -0.50724171340E+01 -0.21033145857E+02  0.87007825902E+02  0.89657595375E+02  0.00000000000E+00 0.  1.
         -2    1    1    2    0  502  0.48452012004E+02  0.15616258461E+02  0.10190087134E+03  0.11390896618E+03  0.00000000000E+00 0.  1.
<scales pt_clust_5="13000.00000" pt_clust_6="13000.00000" pt_clust_7="13000.00000" pt_clust_8="13000.00000" pt_clust_9="21.63614" pt_clust_10="47.82711"></scales>
<clustering>
<clus scale="   21.636">  1  9  2 -1</clus>
<clus scale="   47.827">  2 10  1 -1</clus>
<clus scale="   79.293">  5  6 -1 -1</clus>
<clus scale="   92.591">  7  8 -1 -1</clus>
<clus scale="   95.987">  2  5  1 -1</clus>
<clus scale="   47.827">  2  5  1 -1</clus>
</clustering>
</event>
<event>
10    4  0.2977685E-005  0.1145612E+03  0.7546771E-02  0.1256231E+00
         21   -1    0    0  501  502  0.00000000000E+00  0.00000000000E+00  0.43550636890E+03  0.43550636890E+03  0.00000000000E+00 0.  1.
          2   -1    0    0  503    0 -0.00000000000E+00 -0.00000000000E+00 -0.89442743468E+02  0.89442743468E+02  0.00000000000E+00 0. -1.
         24    2    1    2    0    0 -0.57741664998E+02 -0.18509280653E+02  0.60171356934E+01  0.10075920834E+03  0.80246612365E+02 0.  0.
         23    2    1    2    0    0  0.11129476508E+03  0.34239357678E+02  0.26893193140E+03  0.30691386485E+03  0.91174987594E+02 0.  0.
        -13    1    3    3    0    0  0.31983497624E+01  0.23072314253E+02 -0.98623933632E+01  0.25294820201E+02  0.00000000000E+00 0.  1.
         14    1    3    3    0    0 -0.60940014760E+02 -0.41581594906E+02  0.15879529057E+02  0.75464388137E+02  0.00000000000E+00 0. -1.
        -11    1    4    4    0    0  0.78939618884E+02  0.52461618476E+02  0.24510570122E+03  0.26279362552E+03  0.00000000000E+00 0.  1.
         11    1    4    4    0    0  0.32355146198E+02 -0.18222260798E+02  0.23826230176E+02  0.44120239329E+02  0.00000000000E+00 0. -1.
         21    1    1    2  503  502 -0.11196442158E+02 -0.37884364052E+02  0.53123295019E+02  0.66201735856E+02  0.00000000000E+00 0.  1.
          1    1    1    2  501    0 -0.42356657926E+02  0.22154287028E+02  0.17991263326E+02  0.51074303328E+02  0.00000000000E+00 0. -1.
<scales pt_clust_5="13000.00000" pt_clust_6="13000.00000" pt_clust_7="13000.00000" pt_clust_8="13000.00000" pt_clust_9="39.50424" pt_clust_10="47.23338"></scales>
<clustering>
<clus scale="   39.504">  1  9  2 -1</clus>
<clus scale="   47.233">  1 10  2 -1</clus>
<clus scale="   80.247">  5  6 -1 -1</clus>
<clus scale="   91.175">  7  8 -1 -1</clus>
<clus scale="  106.070">  2  5  1 -1</clus>
<clus scale="   39.504">  1  5  2 -1</clus>
</clustering>
</event>
<event>
10    4  0.2977685E-005  0.1330450E+03  0.7546771E-02  0.1225121E+00
         21   -1    0    0  501  502  0.00000000000E+00  0.00000000000E+00  0.99841404253E+03  0.99841404253E+03  0.00000000000E+00 0. -1.
          4   -1    0    0  503    0 -0.00000000000E+00 -0.00000000000E+00 -0.15575711623E+03  0.15575711623E+03  0.00000000000E+00 0. -1.
         24    2    1    2    0    0 -0.49144823635E+02 -0.98539827649E+02 -0.94285803716E+02  0.16687206287E+03  0.82650839443E+02 0.  0.
         23    2    1    2    0    0  0.49707890638E+02  0.12608216790E+02  0.40642629234E+03  0.41968757058E+03  0.91244091685E+02 0.  0.
        -11    1    3    3    0    0 -0.13826940669E+02 -0.16908332429E+02  0.14602965300E+02  0.26273990739E+02  0.00000000000E+00 0.  1.
         12    1    3    3    0    0 -0.35317882966E+02 -0.81631495220E+02 -0.10888876902E+03  0.14059807213E+03  0.00000000000E+00 0. -1.
        -11    1    4    4    0    0  0.27793172579E+02  0.49613665018E+02  0.16667664582E+03  0.17611098904E+03  0.00000000000E+00 0.  1.
         11    1    4    4    0    0  0.21914718059E+02 -0.37005448228E+02  0.23974964653E+03  0.24357658154E+03  0.00000000000E+00 0. -1.
         21    1    1    2  503  502 -0.16681304742E+02  0.20175159028E+02 -0.59861296037E+01  0.26853988853E+02  0.00000000000E+00 0.  1.
          3    1    1    2  501    0  0.16118237738E+02  0.65756451832E+02  0.53650256727E+03  0.54075753646E+03  0.00000000000E+00 0. -1.
<scales pt_clust_5="13000.00000" pt_clust_6="13000.00000" pt_clust_7="13000.00000" pt_clust_8="13000.00000" pt_clust_9="26.17829" pt_clust_10="67.94240"></scales>
<clustering>
<clus scale="   26.178">  2  9  1 -1</clus>
<clus scale="   67.942">  1 10  2 -1</clus>
<clus scale="   82.651">  5  6 -1 -1</clus>
<clus scale="   91.244">  7  8 -1 -1</clus>
<clus scale="  127.305">  2  5  1 -1</clus>
<clus scale="   67.942">  1  5  2 -1</clus>
</clustering>
</event>
<event>
10    4  0.2977685E-005  0.1451959E+03  0.7546771E-02  0.1226754E+00
         21   -1    0    0  501  502  0.00000000000E+00  0.00000000000E+00  0.10757259510E+03  0.10757259510E+03  0.00000000000E+00 0. -1.
          2   -1    0    0  503    0 -0.00000000000E+00 -0.00000000000E+00 -0.72215969710E+03  0.72215969710E+03  0.00000000000E+00 0. -1.
         24    2    1    2    0    0  0.33055478942E+02  0.36375075566E+02 -0.10483659115E+02  0.94413453415E+02  0.79926105040E+02 0.  0.
         23    2    1    2    0    0 -0.42815318590E+01 -0.16644547960E+03 -0.28041911945E+03  0.33902477803E+03  0.92630925594E+02 0.  0.
        -13    1    3    3    0    0  0.49212532968E+02  0.38928324666E+02 -0.29494396875E+02  0.69334027068E+02  0.00000000000E+00 0.  1.
         14    1    3    3    0    0 -0.16157054026E+02 -0.25532491001E+01  0.19010737759E+02  0.25079426347E+02  0.00000000000E+00 0. -1.
        -11    1    4    4    0    0  0.28700513532E+02 -0.13348658825E+03 -0.24497505807E+03  0.28045528663E+03  0.00000000000E+00 0. -1.
         11    1    4    4    0    0 -0.32982045391E+02 -0.32958891346E+02 -0.35444061375E+02  0.58569491407E+02  0.00000000000E+00 0.  1.
         21    1    1    2  503  502 -0.16679243419E+02  0.31146365679E+02 -0.28842356462E+03  0.29057950011E+03  0.00000000000E+00 0.  1.
          1    1    1    2  501    0 -0.12094703664E+02  0.98924038351E+02 -0.35260758812E+02  0.10571456065E+03  0.00000000000E+00 0. -1.
<scales pt_clust_5="13000.00000" pt_clust_6="13000.00000" pt_clust_7="13000.00000" pt_clust_8="13000.00000" pt_clust_9="35.33119" pt_clust_10="111.80951"></scales>
<clustering>
<clus scale="   35.331">  2  9  1 -1</clus>
<clus scale="   79.926">  5  6 -1 -1</clus>
<clus scale="   92.631">  7  8 -1 -1</clus>
<clus scale="   94.675">  2  5  1 -1</clus>
<clus scale="  111.810">  1 10  2 -1</clus>
<clus scale="  111.810">  1  5  2 -1</clus>
</clustering>
</event>
<event>
10    4  0.2977685E-005  0.1699413E+03  0.7546771E-02  0.1184691E+00
         21   -1    0    0  501  502  0.00000000000E+00  0.00000000000E+00  0.31085061582E+03  0.31085061582E+03  0.00000000000E+00 0. -1.
         -1   -1    0    0    0  501 -0.00000000000E+00 -0.00000000000E+00 -0.40934452730E+03  0.40934452730E+03  0.00000000000E+00 0.  1.
         24    2    1    2    0    0  0.12190649836E+03 -0.14496701677E+02  0.16124073313E+03  0.21749372099E+03  0.78953124991E+02 0.  0.
         23    2    1    2    0    0 -0.12737590275E+03 -0.12817724680E+03 -0.28290807979E+03  0.34816782860E+03  0.92357068309E+02 0.  0.
        -11    1    3    3    0    0  0.57180898971E+02 -0.45468806030E+02  0.94972218006E+02  0.11981982191E+03  0.00000000000E+00 0.  1.
         12    1    3    3    0    0  0.64725599392E+02  0.30972104353E+02  0.66268515125E+02  0.97673899080E+02  0.00000000000E+00 0. -1.
        -11    1    4    4    0    0 -0.47948241654E+02 -0.96173850677E+02 -0.10268934286E+03  0.14863897392E+03  0.00000000000E+00 0.  1.
         11    1    4    4    0    0 -0.79427661099E+02 -0.32003396123E+02 -0.18021873692E+03  0.19952885468E+03  0.00000000000E+00 0. -1.
         21    1    1    2  503  502 -0.92862645459E+01  0.52930472184E+02 -0.15160593051E+02  0.55836486069E+02  0.00000000000E+00 0.  1.
         -2    1    1    2    0  503  0.14755668936E+02  0.89743476293E+02  0.38334028225E+02  0.98697107470E+02  0.00000000000E+00 0.  1.
<scales pt_clust_5="13000.00000" pt_clust_6="13000.00000" pt_clust_7="13000.00000" pt_clust_8="13000.00000" pt_clust_9="41.80566" pt_clust_10="152.66976"></scales>
<clustering>
<clus scale="   41.806">  9 10 -1 -1</clus>
<clus scale="   78.953">  5  6 -1 -1</clus>
<clus scale="   92.357">  7  8 -1 -1</clus>
<clus scale="  145.962">  2  5  1 -1</clus>
<clus scale="  152.670">  1  9  2 -1</clus>
<clus scale="  152.670">  1  5  2 -1</clus>
</clustering>
</event>
<event>
10    4  0.2977685E-005  0.1259339E+03  0.7546771E-02  0.1245241E+00
         21   -1    0    0  501  502  0.00000000000E+00  0.00000000000E+00  0.23951276873E+03  0.23951276873E+03  0.00000000000E+00 0. -1.
          2   -1    0    0  503    0 -0.00000000000E+00 -0.00000000000E+00 -0.28717436293E+03  0.28717436293E+03  0.00000000000E+00 0. -1.
         23    2    1    2    0    0  0.23544511894E+02  0.27478013934E+02 -0.14755002576E+03  0.17739747847E+03  0.91594049890E+02 0.  0.
         24    2    1    2    0    0  0.75291753321E+02  0.95226580793E+01  0.53224814293E+02  0.12332746345E+03  0.81346501156E+02 0.  0.
        -13    1    4    4    0    0  0.85412698992E+02 -0.67657776600E+01  0.25089144058E+02  0.89278049072E+02  0.00000000000E+00 0.  1.
         14    1    4    4    0    0 -0.10120945672E+02  0.16288435739E+02  0.28135670235E+02  0.34049414381E+02  0.00000000000E+00 0. -1.
        -13    1    3    3    0    0  0.28057426867E+02  0.59199470225E+02 -0.11004942302E+03  0.12807291667E+03  0.00000000000E+00 0.  1.
         13    1    3    3    0    0 -0.45129149737E+01 -0.31721456291E+02 -0.37500602738E+02  0.49324561797E+02  0.00000000000E+00 0. -1.
         21    1    1    2  503  502 -0.10954381624E+03 -0.60383700491E+02 -0.43321790345E+02  0.13237377565E+03  0.00000000000E+00 0. -1.
          1    1    1    2  501    0  0.10707551029E+02  0.23383028477E+02  0.89985407611E+02  0.93588414094E+02  0.00000000000E+00 0. -1.
<scales pt_clust_5="13000.00000" pt_clust_6="13000.00000" pt_clust_7="13000.00000" pt_clust_8="13000.00000" pt_clust_9="96.13576" pt_clust_10="25.71804"></scales>
<clustering>
<clus scale="   25.718">  1 10  2 -1</clus>
<clus scale="   81.347">  5  6 -1 -1</clus>
<clus scale="   91.594">  7  8 -1 -1</clus>
<clus scale="   99.430">  2  7  1 -1</clus>
<clus scale="   96.136">  2  9  1 -1</clus>
<clus scale="   25.718">  1  5  2 -1</clus>
</clustering>
</event>
<event>
10    4  0.2977685E-005  0.1474669E+03  0.7546771E-02  0.1225690E+00
         21   -1    0    0  501  502  0.00000000000E+00  0.00000000000E+00  0.10873172650E+03  0.10873172650E+03  0.00000000000E+00 0. -1.
          2   -1    0    0  503    0 -0.00000000000E+00 -0.00000000000E+00 -0.73887973077E+03  0.73887973077E+03  0.00000000000E+00 0. -1.
         23    2    1    2    0    0  0.11321015241E+02  0.15885593206E+02 -0.43096258334E+02  0.10221061994E+03  0.90604668135E+02 0.  0.
         24    2    1    2    0    0 -0.11495652582E+03  0.89403312036E+02 -0.47069097345E+03  0.49853549803E+03  0.76024307136E+02 0.  0.
        -11    1    4    4    0    0 -0.74390474427E+02  0.46516235032E+02 -0.38233926419E+03  0.39227670814E+03  0.00000000000E+00 0.  1.
         12    1    4    4    0    0 -0.40566051390E+02  0.42887077004E+02 -0.88351709256E+02  0.10625878989E+03  0.00000000000E+00 0. -1.
        -11    1    3    3    0    0  0.16369170917E+01  0.41636745308E+02  0.96039420634E+01  0.42761358264E+02  0.00000000000E+00 0.  1.
         11    1    3    3    0    0  0.96840981496E+01 -0.25751152102E+02 -0.52700200397E+02  0.59449261673E+02  0.00000000000E+00 0. -1.
         21    1    1    2  503  502  0.99305754301E+01 -0.24094363603E+02 -0.12002597792E+03  0.12282259589E+03  0.00000000000E+00 0.  1.
          1    1    1    2  501    0  0.93704935146E+02 -0.81194541639E+02  0.36652054328E+01  0.12404274341E+03  0.00000000000E+00 0. -1.
<scales pt_clust_5="13000.00000" pt_clust_6="13000.00000" pt_clust_7="13000.00000" pt_clust_8="13000.00000" pt_clust_9="26.06060" pt_clust_10="126.35973"></scales>
<clustering>
<clus scale="   26.061">  2  9  1 -1</clus>
<clus scale="   76.024">  5  6 -1 -1</clus>
<clus scale="   90.605">  7  8 -1 -1</clus>
<clus scale="   92.388">  2  7  1 -1</clus>
<clus scale="  126.360">  1 10  2 -1</clus>
<clus scale="  126.360">  1  5  2 -1</clus>
</clustering>
</event>
<event>
10    4  0.2977685E-005  0.1618775E+03  0.7546771E-02  0.1219268E+00
          2   -1    0    0  503    0 -0.00000000000E+00  0.00000000000E+00  0.86654268630E+03  0.86654268630E+03  0.00000000000E+00 0. -1.
         21   -1    0    0  501  502  0.00000000000E+00 -0.00000000000E+00 -0.10872739595E+03  0.10872739595E+03  0.00000000000E+00 0. -1.
         24    2    1    2    0    0  0.95756387661E+01 -0.11554128327E+02  0.19378974389E+03  0.21008784129E+03  0.79732336494E+02 0.  0.
         23    2    1    2    0    0  0.33541035160E+02  0.85292926716E+02  0.57734561367E+02  0.14225614258E+03  0.92215216408E+02 0.  0.
        -11    1    3    3    0    0  0.37076277059E+02  0.63546173918E+01  0.49827928356E+02  0.62432795284E+02  0.00000000000E+00 0.  1.
         12    1    3    3    0    0 -0.27500638293E+02 -0.17908745718E+02  0.14396181554E+03  0.14765504601E+03  0.00000000000E+00 0. -1.
        -13    1    4    4    0    0 -0.26085638866E+02  0.17377955364E+00  0.11322009380E+02  0.28437275727E+02  0.00000000000E+00 0.  1.
         13    1    4    4    0    0  0.59626674026E+02  0.85119147162E+02  0.46412551988E+02  0.11381886685E+03  0.00000000000E+00 0. -1.
         21    1    1    2  503  502 -0.48214298453E+01 -0.14201648189E+03  0.52377950191E+03  0.54271253342E+03  0.00000000000E+00 0. -1.
          1    1    1    2  501    0 -0.38295244081E+02  0.68277683498E+02 -0.17488516822E+02  0.80213564961E+02  0.00000000000E+00 0. -1.
<scales pt_clust_5="13000.00000" pt_clust_6="13000.00000" pt_clust_7="13000.00000" pt_clust_8="13000.00000" pt_clust_9="133.04388" pt_clust_10="78.28389"></scales>
<clustering>
<clus scale="   78.284">  2 10  1 -1</clus>
<clus scale="   79.732">  5  6 -1 -1</clus>
<clus scale="   79.884">  1  5  2 -1</clus>
<clus scale="   92.215">  7  8 -1 -1</clus>
<clus scale="  133.044">  1  9  2 -1</clus>
<clus scale="   78.284">  2  5  1 -1</clus>
</clustering>
</event>
<event>
10    4  0.2977685E-005  0.1414219E+03  0.7546771E-02  0.1213937E+00
          2   -1    0    0  503    0 -0.00000000000E+00  0.00000000000E+00  0.12583044039E+04  0.12583044039E+04  0.00000000000E+00 0. -1.
         21   -1    0    0  501  502  0.00000000000E+00 -0.00000000000E+00 -0.72554244181E+02  0.72554244181E+02  0.00000000000E+00 0.  1.
         23    2    1    2    0    0  0.10257112256E+03 -0.55917021674E+02  0.41228547357E+03  0.43825417615E+03  0.91868725365E+02 0.  0.
         24    2    1    2    0    0 -0.84655972152E+02 -0.52988279406E+02  0.14318493024E+03  0.19207606906E+03  0.80105559628E+02 0.  0.
        -11    1    4    4    0    0 -0.45318987811E+01 -0.45582856131E+02  0.37220887393E+02  0.59023125450E+02  0.00000000000E+00 0.  1.
         12    1    4    4    0    0 -0.80124073371E+02 -0.74054232750E+01  0.10596404284E+03  0.13305294361E+03  0.00000000000E+00 0. -1.
        -11    1    3    3    0    0  0.74078547944E+02 -0.74061998013E+02  0.36762391978E+03  0.38225666405E+03  0.00000000000E+00 0.  1.
         11    1    3    3    0    0  0.28492574618E+02  0.18144976339E+02  0.44661553791E+02  0.55997512103E+02  0.00000000000E+00 0. -1.
         21    1    1    2  503  502  0.71379400456E+02  0.36347425330E+02  0.56001085627E+03  0.56571045004E+03  0.00000000000E+00 0.  1.
          1    1    1    2  501    0 -0.89294550866E+02  0.72557875750E+02  0.70268899625E+02  0.13481795282E+03  0.00000000000E+00 0. -1.
<scales pt_clust_5="13000.00000" pt_clust_6="13000.00000" pt_clust_7="13000.00000" pt_clust_8="13000.00000" pt_clust_9="80.10090" pt_clust_10="110.79604"></scales>
<clustering>
<clus scale="   80.101">  1  9  2 -1</clus>
<clus scale="   80.106">  5  6 -1 -1</clus>
<clus scale="   91.869">  7  8 -1 -1</clus>
<clus scale="  110.796">  2 10  1 -1</clus>
<clus scale="  134.079">  2  5  1 -1</clus>
<clus scale="  110.796">  2  5  1 -1</clus>
</clustering>
</event>
<event>
10    4  0.2977685E-005  0.2573562E+03  0.7546771E-02  0.1150905E+00
         21   -1    0    0  501  502  0.00000000000E+00  0.00000000000E+00  0.50558990214E+03  0.50558990214E+03  0.00000000000E+00 0. -1.
          2   -1    0    0  503    0 -0.00000000000E+00 -0.00000000000E+00 -0.13550992386E+04  0.13550992386E+04  0.00000000000E+00 0. -1.
         24    2    1    2    0    0 -0.92011799692E+01  0.42190000936E+02 -0.32665585574E+03  0.33917840397E+03  0.80456719649E+02 0.  0.
         23    2    1    2    0    0  0.54105191982E+02 -0.46993981289E+02  0.57919183989E+02  0.13023218826E+03  0.92032520928E+02 0.  0.
        -13    1    3    3    0    0 -0.19772531409E+02 -0.39781912804E+01 -0.18386489026E+02  0.27291793325E+02  0.00000000000E+00 0.  1.
         14    1    3    3    0    0  0.10571351440E+02  0.46168192217E+02 -0.30826936671E+03  0.31188661064E+03  0.00000000000E+00 0. -1.
        -13    1    4    4    0    0  0.21123175324E+02 -0.12811151125E+02  0.75610664002E+02  0.79544243285E+02  0.00000000000E+00 0. -1.
         13    1    4    4    0    0  0.32982016658E+02 -0.34182830163E+02 -0.17691480013E+02  0.50687944975E+02  0.00000000000E+00 0.  1.
         21    1    1    2  503  502 -0.25378078191E+03  0.15219419331E+03 -0.92005120420E+03  0.96646881796E+03  0.00000000000E+00 0. -1.
          1    1    1    2  501    0  0.20887676990E+03 -0.14739021296E+03  0.33927853944E+03  0.42480973059E+03  0.00000000000E+00 0. -1.
<scales pt_clust_5="13000.00000" pt_clust_6="13000.00000" pt_clust_7="13000.00000" pt_clust_8="13000.00000" pt_clust_9="257.35625" pt_clust_10="13000.00000"></scales>
<clustering>
<clus scale="   80.457">  5  6 -1 -1</clus>
<clus scale="   91.312">  2  5  1 -1</clus>
<clus scale="   92.033">  7  8 -1 -1</clus>
<clus scale="  115.899">  2  7  1 -1</clus>
<clus scale="  257.356">  2  9  1 -1</clus>
<clus scale="  257.356">  1  5  2 -1</clus>
</clustering>
</event>
<event>
10    4  0.2977685E-005  0.9737027E+02  0.7546771E-02  0.1290698E+00
         21   -1    0    0  503  502  0.00000000000E+00  0.00000000000E+00  0.39526891330E+02  0.39526891330E+02  0.00000000000E+00 0.  1.
          2   -1    0    0  502    0 -0.00000000000E+00 -0.00000000000E+00 -0.56327580645E+03  0.56327580645E+03  0.00000000000E+00 0. -1.
         24    2    1    2    0    0  0.46023861109E+02 -0.14430439639E+02 -0.25234457803E+03  0.26925309286E+03  0.80579206813E+02 0.  0.
         23    2    1    2    0    0  0.95772283459E+01  0.35572694398E+02 -0.64754848425E+02  0.11661598942E+03  0.89715989126E+02 0.  0.
        -13    1    3    3    0    0  0.44962589782E+02  0.13203298633E+02 -0.22685241729E+03  0.23164192368E+03  0.00000000000E+00 0.  1.
         14    1    3    3    0    0  0.10612713267E+01 -0.27633738272E+02 -0.25492160745E+02  0.37611169181E+02  0.00000000000E+00 0. -1.
        -13    1    4    4    0    0  0.81134429711E+01 -0.30156921553E+02 -0.21632207843E+02  0.37989739280E+02  0.00000000000E+00 0. -1.
         13    1    4    4    0    0  0.14637853748E+01  0.65729615951E+02 -0.43122640582E+02  0.78626250142E+02  0.00000000000E+00 0.  1.
         21    1    1    2  503  501 -0.21283729959E+02 -0.32530498163E+01 -0.12162276578E+03  0.12351387230E+03  0.00000000000E+00 0. -1.
          1    1    1    2  501    0 -0.34317359496E+02 -0.17889204943E+02 -0.85026722886E+02  0.93419743208E+02  0.00000000000E+00 0. -1.
<scales pt_clust_5="13000.00000" pt_clust_6="13000.00000" pt_clust_7="13000.00000" pt_clust_8="13000.00000" pt_clust_9="21.32913" pt_clust_10="66.00141"></scales>
<clustering>
<clus scale="   21.329">  9 10 -1 -1</clus>
<clus scale="   66.001">  1  9  2 -1</clus>
<clus scale="   80.579">  5  6 -1 -1</clus>
<clus scale="   89.023">  2  5  1 -1</clus>
<clus scale="   89.716">  7  8 -1 -1</clus>
<clus scale="   66.001">  1  5  2 -1</clus>
</clustering>
</event>
<event>
10    4  0.2977685E-005  0.1348857E+03  0.7546771E-02  0.1223684E+00
         21   -1    0    0  501  502  0.00000000000E+00  0.00000000000E+00  0.17207928771E+03  0.17207928771E+03  0.00000000000E+00 0.  1.
          2   -1    0    0  503    0 -0.00000000000E+00 -0.00000000000E+00 -0.34038928999E+03  0.34038928999E+03  0.00000000000E+00 0. -1.
         24    2    1    2    0    0 -0.15905384978E+01  0.80961814923E+02 -0.19468218349E+03  0.22572550141E+03  0.80582281743E+02 0.  0.
         23    2    1    2    0    0 -0.55890065231E+02 -0.13920371258E+03 -0.10357082760E+02  0.17734474031E+03  0.94034646627E+02 0.  0.
        -11    1    3    3    0    0 -0.36169403051E+02  0.16859031935E+02 -0.87108874378E+02  0.95814449172E+02  0.00000000000E+00 0.  1.
         12    1    3    3    0    0  0.34578864554E+02  0.64102782988E+02 -0.10757330911E+03  0.12991105224E+03  0.00000000000E+00 0. -1.
        -13    1    4    4    0    0 -0.63172859398E+01 -0.74504569437E+02  0.36631678606E+02  0.83262950021E+02  0.00000000000E+00 0.  1.
         13    1    4    4    0    0 -0.49572779291E+02 -0.64699143141E+02 -0.46988761366E+02  0.94081790292E+02  0.00000000000E+00 0. -1.
         21    1    1    2  503  502  0.22698257137E+02  0.33396585349E+01 -0.14065411205E+02  0.26910964096E+02  0.00000000000E+00 0.  1.
          1    1    1    2  501    0  0.34782346591E+02  0.54902239120E+02  0.50794675173E+02  0.82487371886E+02  0.00000000000E+00 0. -1.
<scales pt_clust_5="13000.00000" pt_clust_6="13000.00000" pt_clust_7="13000.00000" pt_clust_8="13000.00000" pt_clust_9="22.94263" pt_clust_10="65.73994"></scales>
<clustering>
<clus scale="   22.943">  2  9  1 -1</clus>
<clus scale="   65.740">  1 10  2 -1</clus>
<clus scale="   80.582">  5  6 -1 -1</clus>
<clus scale="   94.035">  7  8 -1 -1</clus>
<clus scale="  125.877">  2  5  1 -1</clus>
<clus scale="   65.740">  1  5  2 -1</clus>
</clustering>
</event>
<event>
10    4  0.2977685E-005  0.1168659E+03  0.7546771E-02  0.1251726E+00
         -1   -1    0    0    0  501 -0.00000000000E+00  0.00000000000E+00  0.19480154797E+03  0.19480154797E+03  0.00000000000E+00 0.  1.
         21   -1    0    0  503  502  0.00000000000E+00 -0.00000000000E+00 -0.43946160900E+03  0.43946160900E+03  0.00000000000E+00 0.  1.
         23    2    1    2    0    0  0.54938905812E+02  0.66291732089E+02 -0.48529150974E+02  0.13427551610E+03  0.90895316789E+02 0.  0.
         24    2    1    2    0    0 -0.58240568241E+02 -0.90467480310E+00 -0.32861931693E+03  0.34340373280E+03  0.80886871735E+02 0.  0.
        -11    1    4    4    0    0 -0.70140563751E+02  0.21853417899E+02 -0.22715430576E+03  0.23873908180E+03  0.00000000000E+00 0.  1.
         12    1    4    4    0    0  0.11899995510E+02 -0.22758092702E+02 -0.10146501117E+03  0.10466465100E+03  0.00000000000E+00 0. -1.
        -13    1    3    3    0    0  0.14301115149E+02 -0.22630490294E+02 -0.16250537091E+02  0.31316783698E+02  0.00000000000E+00 0. -1.
         13    1    3    3    0    0  0.40637790664E+02  0.88922222382E+02 -0.32278613883E+02  0.10295873240E+03  0.00000000000E+00 0.  1.
         21    1    1    2  503  501  0.19051363347E+01 -0.27188295474E+02  0.11290224178E+02  0.29500883329E+02  0.00000000000E+00 0. -1.
         -2    1    1    2    0  502  0.13965260939E+01 -0.38198761812E+02  0.12119818269E+03  0.12708302474E+03  0.00000000000E+00 0.  1.
<scales pt_clust_5="13000.00000" pt_clust_6="13000.00000" pt_clust_7="13000.00000" pt_clust_8="13000.00000" pt_clust_9="27.25496" pt_clust_10="57.61696"></scales>
<clustering>
<clus scale="   27.255">  1  9  2 -1</clus>
<clus scale="   57.617">  2 10  1 -1</clus>
<clus scale="   80.887">  5  6 -1 -1</clus>
<clus scale="   90.895">  7  8 -1 -1</clus>
<clus scale="  109.263">  2  5  1 -1</clus>
<clus scale="   57.617">  2  5  1 -1</clus>
</clustering>
</event>
<event>
10    4  0.2977685E-005  0.1202033E+03  0.7546771E-02  0.1246458E+00
          2   -1    0    0  503    0 -0.00000000000E+00  0.00000000000E+00  0.47983487890E+03  0.47983487890E+03  0.00000000000E+00 0. -1.
         21   -1    0    0  501  502  0.00000000000E+00 -0.00000000000E+00 -0.89420967056E+02  0.89420967056E+02  0.00000000000E+00 0.  1.
         23    2    1    2    0    0 -0.82268731926E+02  0.98152596685E+00  0.20968421663E+03  0.24302267317E+03  0.91232896064E+02 0.  0.
         24    2    1    2    0    0  0.89848416135E+02 -0.89974806913E+01  0.45761335826E+02  0.12872830046E+03  0.79518444042E+02 0.  0.
        -11    1    4    4    0    0  0.20226497687E+02 -0.52962029751E+01 -0.22806673991E+02  0.30940351536E+02  0.00000000000E+00 0.  1.
         12    1    4    4    0    0  0.69621918448E+02 -0.37012777161E+01  0.68568009817E+02  0.97787948927E+02  0.00000000000E+00 0. -1.
        -11    1    3    3    0    0 -0.47405177472E+02  0.99619673283E+01  0.24335408535E+02  0.54209812329E+02  0.00000000000E+00 0.  1.
         11    1    3    3    0    0 -0.34863554455E+02 -0.89804413615E+01  0.18534880809E+03  0.18881286084E+03  0.00000000000E+00 0. -1.
         21    1    1    2  503  502  0.14081971664E+02 -0.18831076300E+02  0.15556203197E+03  0.15732913637E+03  0.00000000000E+00 0. -1.
          1    1    1    2  501    0 -0.21661655873E+02  0.26847031025E+02 -0.20593672574E+02  0.40175735962E+02  0.00000000000E+00 0. -1.
<scales pt_clust_5="13000.00000" pt_clust_6="13000.00000" pt_clust_7="13000.00000" pt_clust_8="13000.00000" pt_clust_9="23.51407" pt_clust_10="33.78481"></scales>
<clustering>
<clus scale="   23.514">  1  9  2 -1</clus>
<clus scale="   33.785">  2 10  1 -1</clus>
<clus scale="   79.518">  5  6 -1 -1</clus>
<clus scale="   91.233">  7  8 -1 -1</clus>
<clus scale="  111.573">  2  5  1 -1</clus>
<clus scale="   33.785">  2  5  1 -1</clus>
</clustering>
</event>
<event>
10    4  0.2977685E-005  0.1106829E+03  0.7546771E-02  0.1265244E+00
          4   -1    0    0  503    0 -0.00000000000E+00  0.00000000000E+00  0.41187412964E+03  0.41187412964E+03  0.00000000000E+00 0. -1.
         21   -1    0    0  501  502  0.00000000000E+00 -0.00000000000E+00 -0.88419684750E+02  0.88419684750E+02  0.00000000000E+00 0.  1.
         24    2    1    2    0    0  0.55055745779E+02 -0.10397345883E+02  0.37761016014E+02  0.10523086839E+03  0.80674663850E+02 0.  0.
         23    2    1    2    0    0  0.47113041157E+02  0.27148589863E+02  0.27095368165E+02  0.10924760122E+03  0.90797548527E+02 0.  0.
        -11    1    3    3    0    0  0.64749056015E+02 -0.11977737566E+02  0.54731160637E+02  0.85623632233E+02  0.00000000000E+00 0.  1.
         12    1    3    3    0    0 -0.96933102367E+01  0.15803916828E+01 -0.16970144623E+02  0.19607236158E+02  0.00000000000E+00 0. -1.
        -11    1    4    4    0    0  0.68077668760E+02 -0.37969148678E+01  0.13733827959E+02  0.69552883310E+02  0.00000000000E+00 0. -1.
         11    1    4    4    0    0 -0.20964627603E+02  0.30945504731E+02  0.13361540206E+02  0.39694717914E+02  0.00000000000E+00 0.  1.
         21    1    1    2  503  502 -0.17237122171E+01 -0.19954591876E+02  0.59701720288E+02  0.62971837563E+02  0.00000000000E+00 0. -1.
          3    1    1    2  501    0 -0.10044507472E+03  0.32033478958E+01  0.19889634043E+03  0.22284350721E+03  0.00000000000E+00 0. -1.
<scales pt_clust_5="13000.00000" pt_clust_6="13000.00000" pt_clust_7="13000.00000" pt_clust_8="13000.00000" pt_clust_9="20.02890" pt_clust_10="63.29706"></scales>
<clustering>
<clus scale="   20.029">  1  9  2 -1</clus>
<clus scale="   80.675">  5  6 -1 -1</clus>
<clus scale="   90.798">  7  8 -1 -1</clus>
<clus scale="   98.541">  1  5  2 -1</clus>
<clus scale="   63.297">  2 10  1 -1</clus>
<clus scale="   63.297">  2  5  1 -1</clus>
</clustering>
</event>
<event>
10    4  0.2977685E-005  0.2475122E+03  0.7546771E-02  0.1114887E+00
         21   -1    0    0  503  502  0.00000000000E+00  0.00000000000E+00  0.85091461598E+02  0.85091461598E+02  0.00000000000E+00 0.  1.
          2   -1    0    0  502    0 -0.00000000000E+00 -0.00000000000E+00 -0.70250173426E+03  0.70250173426E+03  0.00000000000E+00 0. -1.
         24    2    1    2    0    0  0.82097541486E+02  0.22855774819E+02 -0.90164472177E+02  0.14939795942E+03  0.83232959062E+02 0.  0.
         23    2    1    2    0    0  0.84523852372E+02 -0.30008145875E+02 -0.64689741170E+02  0.14256460200E+03  0.89972955342E+02 0.  0.
        -11    1    3    3    0    0 -0.11104193989E+02  0.21742496557E+02 -0.29021712134E+02  0.37924913393E+02  0.00000000000E+00 0.  1.
         12    1    3    3    0    0  0.93201735475E+02  0.11132782618E+01 -0.61142760042E+02  0.11147304602E+03  0.00000000000E+00 0. -1.
        -13    1    4    4    0    0 -0.68068306540E+01 -0.34432720741E+02 -0.23755113970E+02  0.42382197216E+02  0.00000000000E+00 0. -1.
         13    1    4    4    0    0  0.91330683026E+02  0.44245748657E+01 -0.40934627201E+02  0.10018240479E+03  0.00000000000E+00 0.  1.
         21    1    1    2  503  501 -0.18837368450E+02  0.22605486966E+02 -0.78010394641E+02  0.83375512971E+02  0.00000000000E+00 0. -1.
          1    1    1    2  501    0 -0.14778402541E+03 -0.15453115910E+02 -0.38454566467E+03  0.41225512146E+03  0.00000000000E+00 0. -1.
<scales pt_clust_5="13000.00000" pt_clust_6="13000.00000" pt_clust_7="13000.00000" pt_clust_8="13000.00000" pt_clust_9="27.71137" pt_clust_10="178.02149"></scales>
<clustering>
<clus scale="   27.711">  9 10 -1 -1</clus>
<clus scale="   83.233">  5  6 -1 -1</clus>
<clus scale="   89.973">  7  8 -1 -1</clus>
<clus scale="  106.311">  5  7 -1 -1</clus>
<clus scale="  178.021">  1  9  2 -1</clus>
<clus scale="  178.021">  1  5  2 -1</clus>
</clustering>
</event>
<event>
10    4  0.2977685E-005  0.1180550E+03  0.7546771E-02  0.1249977E+00
          2   -1    0    0  503    0 -0.00000000000E+00  0.00000000000E+00  0.26064934987E+03  0.26064934987E+03  0.00000000000E+00 0. -1.
         21   -1    0    0  501  502  0.00000000000E+00 -0.00000000000E+00 -0.50734440434E+03  0.50734440434E+03  0.00000000000E+00 0. -1.
         24    2    1    2    0    0 -0.60413995999E+01 -0.90147724026E+02 -0.13582807423E+03  0.18180173548E+03  0.80246461711E+02 0.  0.
         23    2    1    2    0    0  0.58256484331E+02  0.31715146964E+02 -0.25744433719E+03  0.28108174155E+03  0.91267136277E+02 0.  0.
        -13    1    3    3    0    0  0.20901931866E+02 -0.10595223005E+02 -0.73682260839E+02  0.77318982589E+02  0.00000000000E+00 0.  1.
         14    1    3    3    0    0 -0.26943331466E+02 -0.79552501021E+02 -0.62145813395E+02  0.10448275289E+03  0.00000000000E+00 0. -1.
        -13    1    4    4    0    0  0.74192287304E+02  0.56542030085E+00 -0.20521524406E+03  0.21821574552E+03  0.00000000000E+00 0. -1.
         13    1    4    4    0    0 -0.15935802973E+02  0.31149726663E+02 -0.52229093129E+02  0.62865996029E+02  0.00000000000E+00 0.  1.
         21    1    1    2  503  502 -0.25206232857E+02 -0.62535742351E+01  0.20938550441E+03  0.21098993062E+03  0.00000000000E+00 0. -1.
          1    1    1    2  501    0 -0.27008851874E+02  0.64686151297E+02 -0.62808147459E+02  0.94120346559E+02  0.00000000000E+00 0. -1.
<scales pt_clust_5="13000.00000" pt_clust_6="13000.00000" pt_clust_7="13000.00000" pt_clust_8="13000.00000" pt_clust_9="25.97039" pt_clust_10="71.76445"></scales>
<clustering>
<clus scale="   25.970">  1  9  2 -1</clus>
<clus scale="   71.764">  2 10  1 -1</clus>
<clus scale="   80.246">  5  6 -1 -1</clus>
<clus scale="   91.267">  7  8 -1 -1</clus>
<clus scale="  109.758">  1  5  2 -1</clus>
<clus scale="   71.764">  2  5  1 -1</clus>
</clustering>
</event>
<event>
10    4  0.2977685E-005  0.9290505E+02  0.7546771E-02  0.1303668E+00
         21   -1    0    0  503  502  0.00000000000E+00  0.00000000000E+00  0.60517847025E+03  0.60517847025E+03  0.00000000000E+00 0. -1.
         -3   -1    0    0    0  501 -0.00000000000E+00 -0.00000000000E+00 -0.26965553328E+02  0.26965553328E+02  0.00000000000E+00 0.  1.
         24    2    1    2    0    0  0.18948671658E+02  0.26568672452E+02  0.13772498558E+03  0.16083920308E+03  0.76394574933E+02 0.  0.
         23    2    1    2    0    0 -0.17930135262E+02 -0.17440859521E+02  0.28060925926E+03  0.29552997889E+03  0.89278993679E+02 0.  0.
        -11    1    3    3    0    0 -0.15544160438E+02  0.29765228802E+02  0.11402587414E+03  0.11886753023E+03  0.00000000000E+00 0.  1.
         12    1    3    3    0    0  0.34492832096E+02 -0.31965563502E+01  0.23699111443E+02  0.41971672848E+02  0.00000000000E+00 0. -1.
        -11    1    4    4    0    0 -0.51525622402E+02 -0.33543562490E+01  0.11656311174E+03  0.12748764837E+03  0.00000000000E+00 0. -1.
         11    1    4    4    0    0  0.33595487140E+02 -0.14086503272E+02  0.16404614752E+03  0.16804233052E+03  0.00000000000E+00 0.  1.
         21    1    1    2  503  501 -0.20678043890E+02 -0.52656678313E+01  0.83279952728E+01  0.22905550902E+02  0.00000000000E+00 0.  1.
         -4    1    1    2    0  502  0.19659507495E+02 -0.38621450988E+01  0.15155067681E+03  0.15286929071E+03  0.00000000000E+00 0.  1.
<scales pt_clust_5="13000.00000" pt_clust_6="13000.00000" pt_clust_7="13000.00000" pt_clust_8="13000.00000" pt_clust_9="20.71611" pt_clust_10="20.03528"></scales>
<clustering>
<clus scale="   20.035">  1 10  2 -1</clus>
<clus scale="   20.716">  2  9  1 -1</clus>
<clus scale="   76.395">  5  6 -1 -1</clus>
<clus scale="   80.602">  2  5  1 -1</clus>
<clus scale="   89.279">  7  8 -1 -1</clus>
<clus scale="   20.035">  1  5  2 -1</clus>
</clustering>
</event>
<event>
10    4  0.2977685E-005  0.2462963E+03  0.7546771E-02  0.1116141E+00
          2   -1    0    0  503    0 -0.00000000000E+00  0.00000000000E+00  0.56226098075E+03  0.56226098075E+03  0.00000000000E+00 0. -1.
         21   -1    0    0  501  502  0.00000000000E+00 -0.00000000000E+00 -0.25121266087E+03  0.25121266087E+03  0.00000000000E+00 0. -1.
         24    2    1    2    0    0  0.20498200260E+03 -0.27172011700E+01  0.95079844727E+02  0.24013766710E+03  0.81246031982E+02 0.  0.
         23    2    1    2    0    0 -0.24666741430E+03 -0.16289401273E+03  0.10837163277E+03  0.32734240122E+03  0.89606719523E+02 0.  0.
        -11    1    3    3    0    0  0.13550871644E+03 -0.35239312110E+02  0.82181393029E+02  0.16235209487E+03  0.00000000000E+00 0.  1.
         12    1    3    3    0    0  0.69473286164E+02  0.32522110941E+02  0.12898451697E+02  0.77785572227E+02  0.00000000000E+00 0. -1.
        -11    1    4    4    0    0 -0.10781450143E+03 -0.46222281775E+02  0.24837858767E+01  0.11733130547E+03  0.00000000000E+00 0.  1.
         11    1    4    4    0    0 -0.13885291287E+03 -0.11667173096E+03  0.10588784690E+03  0.21001109575E+03  0.00000000000E+00 0. -1.
         21    1    1    2  503  502 -0.37169179675E+01 -0.19990903273E+02  0.37141594554E+02  0.42343237227E+02  0.00000000000E+00 0. -1.
          1    1    1    2  501    0  0.45402329667E+02  0.18560211717E+03  0.70455247831E+02  0.20365033608E+03  0.00000000000E+00 0. -1.
<scales pt_clust_5="13000.00000" pt_clust_6="13000.00000" pt_clust_7="13000.00000" pt_clust_8="13000.00000" pt_clust_9="20.33351" pt_clust_10="185.75002"></scales>
<clustering>
<clus scale="   20.334">  1  9  2 -1</clus>
<clus scale="   81.246">  5  6 -1 -1</clus>
<clus scale="   89.607">  7  8 -1 -1</clus>
<clus scale="  185.750">  2 10  1 -1</clus>
<clus scale="  243.379">  1  5  2 -1</clus>
<clus scale="  185.750">  2  5  1 -1</clus>
</clustering>
</event>
<event>
10    4  0.2977685E-005  0.9764207E+02  0.7546771E-02  0.1290897E+00
         -1   -1    0    0    0  501 -0.00000000000E+00  0.00000000000E+00  0.48971686242E+03  0.48971686242E+03  0.00000000000E+00 0.  1.
         21   -1    0    0  503  502  0.00000000000E+00 -0.00000000000E+00 -0.20121735353E+03  0.20121735353E+03  0.00000000000E+00 0.  1.
         23    2    1    2    0    0  0.16766761267E+02 -0.57117990542E+02  0.18770549389E+03  0.21759294470E+03  0.92572933527E+02 0.  0.
         24    2    1    2    0    0  0.21048074020E+02  0.14143490632E+02  0.10358996320E+02  0.86728776965E+02  0.82289198574E+02 0.  0.
        -13    1    4    4    0    0  0.19813772898E+02  0.38132852063E+02 -0.20508307314E+02  0.47616075770E+02  0.00000000000E+00 0.  1.
         14    1    4    4    0    0  0.12343011225E+01 -0.23989361431E+02  0.30867303633E+02  0.39112701195E+02  0.00000000000E+00 0. -1.
        -11    1    3    3    0    0  0.27975451509E+01  0.21744899129E+02  0.82543191842E+02  0.85405183780E+02  0.00000000000E+00 0.  1.
         11    1    3    3    0    0  0.13969216117E+02 -0.78862889671E+02  0.10516230205E+03  0.13218776092E+03  0.00000000000E+00 0. -1.
         21    1    1    2  503  501 -0.18850419230E+02  0.27599039236E+02  0.23633366847E+03  0.23868524907E+03  0.00000000000E+00 0.  1.
         -2    1    1    2    0  502 -0.18964416058E+02  0.15375460675E+02 -0.14589864978E+03  0.14792724521E+03  0.00000000000E+00 0.  1.
<scales pt_clust_5="13000.00000" pt_clust_6="13000.00000" pt_clust_7="13000.00000" pt_clust_8="13000.00000" pt_clust_9="33.92906" pt_clust_10="24.41421"></scales>
<clustering>
<clus scale="   24.414">  2 10  1 -1</clus>
<clus scale="   33.929">  1  9  2 -1</clus>
<clus scale="   82.289">  5  6 -1 -1</clus>
<clus scale="   87.953">  2  5  1 -1</clus>
<clus scale="   92.573">  7  8 -1 -1</clus>
<clus scale="   24.414">  2  5  1 -1</clus>
</clustering>
</event>
<event>
10    4  0.2977685E-005  0.1697679E+03  0.7546771E-02  0.1182294E+00
         21   -1    0    0  503  502  0.00000000000E+00  0.00000000000E+00  0.48925999474E+03  0.48925999474E+03  0.00000000000E+00 0.  1.
         -1   -1    0    0    0  501 -0.00000000000E+00 -0.00000000000E+00 -0.16096888442E+03  0.16096888442E+03  0.00000000000E+00 0.  1.
         24    2    1    2    0    0 -0.10789609004E+03 -0.82538115576E+02  0.13571068901E+02  0.15896683658E+03  0.81438163375E+02 0.  0.
         23    2    1    2    0    0  0.37783999356E+02  0.14951495752E+03  0.96699299863E+02  0.21148824315E+03  0.10767622423E+03 0.  0.
        -13    1    3    3    0    0  0.92484277025E+01 -0.18948541611E+02  0.14644103736E+02  0.25671587765E+02  0.00000000000E+00 0.  1.
         14    1    3    3    0    0 -0.11714451774E+03 -0.63589573965E+02 -0.10730348350E+01  0.13329524882E+03  0.00000000000E+00 0. -1.
        -13    1    4    4    0    0 -0.27855071688E+02  0.76669310259E+01  0.29701704364E+02  0.41435227672E+02  0.00000000000E+00 0. -1.
         13    1    4    4    0    0  0.65639071044E+02  0.14184802650E+03  0.66997595499E+02  0.17005301547E+03  0.00000000000E+00 0.  1.
         21    1    1    2  503  501  0.29710177003E+02 -0.21762529044E+01 -0.15855350002E+02  0.33746448968E+02  0.00000000000E+00 0.  1.
         -2    1    1    2    0  502  0.40401913679E+02 -0.64800589044E+02  0.23387609156E+03  0.24602735046E+03  0.00000000000E+00 0.  1.
<scales pt_clust_5="13000.00000" pt_clust_6="13000.00000" pt_clust_7="13000.00000" pt_clust_8="13000.00000" pt_clust_9="29.78977" pt_clust_10="77.15503"></scales>
<clustering>
<clus scale="   29.790">  2  9  1 -1</clus>
<clus scale="   77.155">  1 10  2 -1</clus>
<clus scale="   81.438">  5  6 -1 -1</clus>
<clus scale="  107.676">  7  8 -1 -1</clus>
<clus scale="  154.464">  2  5  1 -1</clus>
<clus scale="   77.155">  1  5  2 -1</clus>
</clustering>
</event>
<event>
10    4  0.2977685E-005  0.8983992E+02  0.7546771E-02  0.1305852E+00
         -3   -1    0    0    0  501 -0.00000000000E+00  0.00000000000E+00  0.45339580254E+03  0.45339580254E+03  0.00000000000E+00 0.  1.
         21   -1    0    0  503  502  0.00000000000E+00 -0.00000000000E+00 -0.46302834094E+02  0.46302834094E+02  0.00000000000E+00 0.  1.
         24    2    1    2    0    0  0.42774589498E+02 -0.86618352261E+01  0.24463616901E+03  0.26142962854E+03  0.81202848432E+02 0.  0.
         23    2    1    2    0    0 -0.76763208795E+01  0.30853155043E+02  0.56843563951E+02  0.10757323999E+03  0.85615232994E+02 0.  0.
        -13    1    3    3    0    0  0.63856233574E+02  0.70910242957E+01  0.14951149253E+03  0.16273164287E+03  0.00000000000E+00 0.  1.
         14    1    3    3    0    0 -0.21081644076E+02 -0.15752859522E+02  0.95124676472E+02  0.98697985663E+02  0.00000000000E+00 0. -1.
        -11    1    4    4    0    0  0.38499355716E+02  0.11092678596E+02  0.17266041105E+02  0.43627561064E+02  0.00000000000E+00 0.  1.
         11    1    4    4    0    0 -0.46175676595E+02  0.19760476447E+02  0.39577522847E+02  0.63945678925E+02  0.00000000000E+00 0. -1.
         21    1    1    2  503  501 -0.20492618812E+02  0.38240891719E+01  0.97602701009E+02  0.99804099756E+02  0.00000000000E+00 0. -1.
         -4    1    1    2    0  502 -0.14605649807E+02 -0.26015408989E+02  0.80105344801E+01  0.30891668356E+02  0.00000000000E+00 0.  1.
<scales pt_clust_5="13000.00000" pt_clust_6="13000.00000" pt_clust_7="13000.00000" pt_clust_8="13000.00000" pt_clust_9="20.84637" pt_clust_10="30.22168"></scales>
<clustering>
<clus scale="   20.846">  1  9  2 -1</clus>
<clus scale="   30.222">  2 10  1 -1</clus>
<clus scale="   81.203">  5  6 -1 -1</clus>
<clus scale="   85.615">  7  8 -1 -1</clus>
<clus scale="   85.645">  1  5  2 -1</clus>
<clus scale="   30.222">  2  5  1 -1</clus>
</clustering>
</event>
<event>
10    4  0.2977685E-005  0.2495298E+03  0.7546771E-02  0.1149656E+00
         21   -1    0    0  501  502  0.00000000000E+00  0.00000000000E+00  0.64505938225E+03  0.64505938225E+03  0.00000000000E+00 0.  1.
          2   -1    0    0  503    0 -0.00000000000E+00 -0.00000000000E+00 -0.87248900186E+03  0.87248900186E+03  0.00000000000E+00 0. -1.
         23    2    1    2    0    0  0.11698974809E+02 -0.37442938444E+02 -0.34217328276E+03  0.35739225191E+03  0.95434934062E+02 0.  0.
         24    2    1    2    0    0  0.87459325716E+02  0.21847499235E+03  0.52649761781E+03  0.58225079950E+03  0.80223413194E+02 0.  0.
        -11    1    4    4    0    0  0.90340369975E+02  0.13798941572E+03  0.39499061129E+03  0.42804210576E+03  0.00000000000E+00 0.  1.
         12    1    4    4    0    0 -0.28810442584E+01  0.80485576627E+02  0.13150700652E+03  0.15420869374E+03  0.00000000000E+00 0. -1.
        -11    1    3    3    0    0  0.49664144320E+02 -0.19619266462E+02 -0.12072738628E+03  0.13200963845E+03  0.00000000000E+00 0. -1.
         11    1    3    3    0    0 -0.37965169511E+02 -0.17823671982E+02 -0.22144589648E+03  0.22538261345E+03  0.00000000000E+00 0.  1.
         21    1    1    2  503  502  0.10565553833E+03 -0.23645057808E+01 -0.22367226796E+03  0.24738222880E+03  0.00000000000E+00 0. -1.
          1    1    1    2  501    0 -0.20481383886E+03 -0.17866754812E+03 -0.18808168670E+03  0.33052310390E+03  0.00000000000E+00 0. -1.
<scales pt_clust_5="13000.00000" pt_clust_6="13000.00000" pt_clust_7="13000.00000" pt_clust_8="13000.00000" pt_clust_9="112.58252" pt_clust_10="236.28245"></scales>
<clustering>
<clus scale="   80.223">  5  6 -1 -1</clus>
<clus scale="   95.435">  7  8 -1 -1</clus>
<clus scale="  103.183">  2  7  1 -1</clus>
<clus scale="  112.583">  2  9  1 -1</clus>
<clus scale="  236.282">  1 10  2 -1</clus>
<clus scale="  236.282">  1  5  2 -1</clus>
</clustering>
</event>
<event>
10    4  0.2977685E-005  0.1769895E+03  0.7546771E-02  0.1195171E+00
         21   -1    0    0  503  502  0.00000000000E+00  0.00000000000E+00  0.29219823210E+03  0.29219823210E+03  0.00000000000E+00 0. -1.
          2   -1    0    0  502    0 -0.00000000000E+00 -0.00000000000E+00 -0.38157079495E+03  0.38157079495E+03  0.00000000000E+00 0. -1.
         23    2    1    2    0    0 -0.22593754411E+02 -0.18908305941E+02 -0.21840897816E+02  0.10479935606E+03  0.98172697031E+02 0.  0.
         24    2    1    2    0    0  0.81850842085E+02 -0.13381941395E+03  0.19133717447E+03  0.26034082766E+03  0.80995285743E+02 0.  0.
        -11    1    4    4    0    0  0.33393117631E+02 -0.89579175360E+02  0.16278725313E+03  0.18878352350E+03  0.00000000000E+00 0.  1.
         12    1    4    4    0    0  0.48457724455E+02 -0.44240238593E+02  0.28549921334E+02  0.71557304158E+02  0.00000000000E+00 0. -1.
        -13    1    3    3    0    0  0.35893157152E+02 -0.11545764291E+02 -0.25849762020E+02  0.45714697854E+02  0.00000000000E+00 0. -1.
         13    1    3    3    0    0 -0.58486911562E+02 -0.73625416494E+01  0.40088642046E+01  0.59084658211E+02  0.00000000000E+00 0.  1.
         21    1    1    2  503  501 -0.79977016933E+01  0.68395528352E+02 -0.94897126828E+02  0.11724920559E+03  0.00000000000E+00 0. -1.
          1    1    1    2  501    0 -0.51259385981E+02  0.84332191542E+02 -0.16397171268E+03  0.19137963773E+03  0.00000000000E+00 0. -1.
<scales pt_clust_5="13000.00000" pt_clust_6="13000.00000" pt_clust_7="13000.00000" pt_clust_8="13000.00000" pt_clust_9="31.27200" pt_clust_10="161.76094"></scales>
<clustering>
<clus scale="   31.272">  9 10 -1 -1</clus>
<clus scale="   80.995">  5  6 -1 -1</clus>
<clus scale="   98.173">  7  8 -1 -1</clus>
<clus scale="  102.498">  2  7  1 -1</clus>
<clus scale="  161.761">  1  9  2 -1</clus>
<clus scale="  161.761">  1  5  2 -1</clus>
</clustering>
</event>
<event>
10    4  0.2977685E-005  0.2231826E+03  0.7546771E-02  0.1155666E+00
         21   -1    0    0  503  502  0.00000000000E+00  0.00000000000E+00  0.14271679977E+03  0.14271679977E+03  0.00000000000E+00 0. -1.
          2   -1    0    0  502    0 -0.00000000000E+00 -0.00000000000E+00 -0.70018709890E+03  0.70018709890E+03  0.00000000000E+00 0. -1.
         24    2    1    2    0    0  0.88726034791E+02  0.37602087651E+02 -0.33480335588E+02  0.12955333779E+03  0.79855545939E+02 0.  0.
         23    2    1    2    0    0 -0.25435079112E+03  0.13755026774E+02 -0.40994574884E+03  0.49513200901E+03  0.11052901724E+03 0.  0.
        -11    1    3    3    0    0  0.69655942554E+02  0.22847833068E+02  0.15528888748E+02  0.74934105684E+02  0.00000000000E+00 0.  1.
         12    1    3    3    0    0  0.19070092237E+02  0.14754254583E+02 -0.49009224337E+02  0.54619232110E+02  0.00000000000E+00 0. -1.
        -13    1    4    4    0    0 -0.49119280220E+02 -0.29671560309E+02 -0.15313041013E+03  0.16352989845E+03  0.00000000000E+00 0.  1.
         13    1    4    4    0    0 -0.20523151090E+03  0.43426587083E+02 -0.25681533871E+03  0.33160211056E+03  0.00000000000E+00 0. -1.
         21    1    1    2  503  501  0.55660440443E+02 -0.69055373686E+01 -0.74372888043E+02  0.93150939622E+02  0.00000000000E+00 0.  1.
          1    1    1    2  501    0  0.10996431589E+03 -0.44451577056E+02 -0.39671326655E+02  0.12506761223E+03  0.00000000000E+00 0. -1.
<scales pt_clust_5="13000.00000" pt_clust_6="13000.00000" pt_clust_7="13000.00000" pt_clust_8="13000.00000" pt_clust_9="46.35524" pt_clust_10="205.27529"></scales>
<clustering>
<clus scale="   46.355">  9 10 -1 -1</clus>
<clus scale="   79.856">  5  6 -1 -1</clus>
<clus scale="  110.529">  7  8 -1 -1</clus>
<clus scale="  125.153">  2  5  1 -1</clus>
<clus scale="  205.275">  1  9  2 -1</clus>
<clus scale="  205.275">  1  5  2 -1</clus>
</clustering>
</event>
<event>
10    4  0.2977685E-005  0.1363012E+03  0.7546771E-02  0.1221245E+00
         21   -1    0    0  503  502  0.00000000000E+00  0.00000000000E+00  0.17393167498E+03  0.17393167498E+03  0.00000000000E+00 0.  1.
         -1   -1    0    0    0  501 -0.00000000000E+00 -0.00000000000E+00 -0.26030170165E+03  0.26030170165E+03  0.00000000000E+00 0.  1.
         24    2    1    2    0    0  0.81776171587E+02 -0.12665167665E+02  0.27346664553E+02  0.11768195516E+03  0.79078782220E+02 0.  0.
         23    2    1    2    0    0 -0.11129254345E+03  0.59068213436E+02  0.21972838230E+02  0.15718646288E+03  0.91376662374E+02 0.  0.
        -13    1    3    3    0    0  0.61604392810E+02 -0.45038219786E+02  0.18751030345E+02  0.78582081888E+02  0.00000000000E+00 0.  1.
         14    1    3    3    0    0  0.20171778777E+02  0.32373052121E+02  0.85956342082E+01  0.39099873275E+02  0.00000000000E+00 0. -1.
        -11    1    4    4    0    0 -0.80952495751E+02 -0.75955704187E+01  0.20831856902E+02  0.83934292874E+02  0.00000000000E+00 0.  1.
         11    1    4    4    0    0 -0.30340047701E+02  0.66663783855E+02  0.11409813278E+01  0.73252170007E+02  0.00000000000E+00 0. -1.
         21    1    1    2  503  501  0.22297882860E+02  0.81592564934E+01 -0.19226803573E+02  0.30552234324E+02  0.00000000000E+00 0.  1.
         -2    1    1    2    0  502  0.72184890059E+01 -0.54562302264E+02 -0.11646272588E+03  0.12881272426E+03  0.00000000000E+00 0.  1.
<scales pt_clust_5="13000.00000" pt_clust_6="13000.00000" pt_clust_7="13000.00000" pt_clust_8="13000.00000" pt_clust_9="23.74382" pt_clust_10="53.72164"></scales>
<clustering>
<clus scale="   23.744">  2  9  1 -1</clus>
<clus scale="   53.722">  1 10  2 -1</clus>
<clus scale="   79.079">  5  6 -1 -1</clus>
<clus scale="   91.377">  7  8 -1 -1</clus>
<clus scale="  128.381">  2  5  1 -1</clus>
<clus scale="   53.722">  1  5  2 -1</clus>
</clustering>
</event>
<event>
10    4  0.2977685E-005  0.1118199E+03  0.7546771E-02  0.1262911E+00
         21   -1    0    0  501  502  0.00000000000E+00  0.00000000000E+00  0.82622976881E+02  0.82622976881E+02  0.00000000000E+00 0. -1.
          2   -1    0    0  503    0 -0.00000000000E+00 -0.00000000000E+00 -0.46278630568E+03  0.46278630568E+03  0.00000000000E+00 0. -1.
         23    2    1    2    0    0 -0.39765561355E+02  0.72935283847E+01 -0.31708268209E+03  0.33303912319E+03  0.93483340034E+02 0.  0.
         24    2    1    2    0    0  0.48888955699E+02  0.12374732472E+02 -0.40561381945E+02  0.10211658936E+03  0.78989291194E+02 0.  0.
        -11    1    4    4    0    0 -0.13458480315E+02 -0.18933014952E+02 -0.48050397471E+01  0.23720837981E+02  0.00000000000E+00 0.  1.
         12    1    4    4    0    0  0.62347436014E+02  0.31307747424E+02 -0.35756342197E+02  0.78395751375E+02  0.00000000000E+00 0. -1.
        -13    1    3    3    0    0 -0.65796808680E+02 -0.64265775592E+01 -0.26595385984E+03  0.27404739826E+03  0.00000000000E+00 0. -1.
         13    1    3    3    0    0  0.26031247325E+02  0.13720105944E+02 -0.51128822254E+02  0.58991724924E+02  0.00000000000E+00 0.  1.
         21    1    1    2  503  502 -0.41423790285E+02  0.81986378998E+01 -0.45268972917E+02  0.61906606868E+02  0.00000000000E+00 0. -1.
          1    1    1    2  501    0  0.32300395940E+02 -0.27866898757E+02  0.22749708159E+02  0.48346963147E+02  0.00000000000E+00 0. -1.
<scales pt_clust_5="13000.00000" pt_clust_6="13000.00000" pt_clust_7="13000.00000" pt_clust_8="13000.00000" pt_clust_9="42.22734" pt_clust_10="41.51667"></scales>
<clustering>
<clus scale="   42.227">  2  9  1 -1</clus>
<clus scale="   41.517">  1 10  2 -1</clus>
<clus scale="   78.989">  5  6 -1 -1</clus>
<clus scale="   93.483">  7  8 -1 -1</clus>
<clus scale="  100.019">  1  5  2 -1</clus>
<clus scale="   41.517">  1  5  2 -1</clus>
</clustering>
</event>
<event>
10    4  0.2977685E-005  0.1050951E+03  0.7546771E-02  0.1274851E+00
          2   -1    0    0  503    0 -0.00000000000E+00  0.00000000000E+00  0.39781477040E+03  0.39781477040E+03  0.00000000000E+00 0. -1.
         21   -1    0    0  501  502  0.00000000000E+00 -0.00000000000E+00 -0.63660509589E+02  0.63660509589E+02  0.00000000000E+00 0.  1.
         24    2    1    2    0    0  0.88034886255E+01 -0.63721253290E+02  0.22224376877E+03  0.24538541296E+03  0.81754563202E+02 0.  0.
         23    2    1    2    0    0 -0.84550905906E+01  0.47360489694E+02  0.29484018963E+02  0.10850957679E+03  0.92685038384E+02 0.  0.
        -11    1    3    3    0    0  0.44825760661E+02 -0.41748273857E+02  0.11868671206E+03  0.13356198115E+03  0.00000000000E+00 0.  1.
         12    1    3    3    0    0 -0.36022272036E+02 -0.21972979433E+02  0.10355705671E+03  0.11182343181E+03  0.00000000000E+00 0. -1.
        -11    1    4    4    0    0  0.25645097502E+02  0.29142037721E+02 -0.21616124576E+02  0.44431815517E+02  0.00000000000E+00 0.  1.
         11    1    4    4    0    0 -0.34100188092E+02  0.18218451972E+02  0.51100143539E+02  0.64077761274E+02  0.00000000000E+00 0. -1.
         21    1    1    2  503  502 -0.20546772764E+02  0.19920067066E+02  0.82232410207E+02  0.87069789430E+02  0.00000000000E+00 0. -1.
          1    1    1    2  501    0  0.20198374729E+02 -0.35593034695E+01  0.19406286889E+00  0.20510500805E+02  0.00000000000E+00 0. -1.
<scales pt_clust_5="13000.00000" pt_clust_6="13000.00000" pt_clust_7="13000.00000" pt_clust_8="13000.00000" pt_clust_9="27.85507" pt_clust_10="20.50958"></scales>
<clustering>
<clus scale="   20.510">  2 10  1 -1</clus>
<clus scale="   27.855">  1  9  2 -1</clus>
<clus scale="   81.755">  5  6 -1 -1</clus>
<clus scale="   92.685">  7  8 -1 -1</clus>
<clus scale="   95.594">  1  5  2 -1</clus>
<clus scale="   20.510">  2  5  1 -1</clus>
</clustering>
</event>
<event>
10    4  0.2977685E-005  0.9650584E+02  0.7546771E-02  0.1290082E+00
         21   -1    0    0  501  502  0.00000000000E+00  0.00000000000E+00  0.52269395142E+02  0.52269395142E+02  0.00000000000E+00 0. -1.
          2   -1    0    0  503    0 -0.00000000000E+00 -0.00000000000E+00 -0.99309300987E+03  0.99309300987E+03  0.00000000000E+00 0. -1.
         24    2    1    2    0    0 -0.52258454609E+02 -0.37957348484E+02 -0.44027022566E+03  0.45226719762E+03  0.80845779499E+02 0.  0.
         23    2    1    2    0    0  0.35549083773E+02 -0.32562677136E+02 -0.16062682087E+03  0.18650180110E+03  0.81595838946E+02 0.  0.
        -13    1    3    3    0    0 -0.71724088099E+02 -0.17506623964E+02 -0.34926116067E+03  0.35697925017E+03  0.00000000000E+00 0.  1.
         14    1    3    3    0    0  0.19465633491E+02 -0.20450724521E+02 -0.91009064983E+02  0.95287947453E+02  0.00000000000E+00 0. -1.
        -13    1    4    4    0    0  0.60725600566E+02 -0.32915131417E+02 -0.12596497187E+03  0.14365994076E+03  0.00000000000E+00 0. -1.
         13    1    4    4    0    0 -0.25176516794E+02  0.35245428028E+00 -0.34661848994E+02  0.42841860342E+02  0.00000000000E+00 0.  1.
         21    1    1    2  503  502  0.27592397067E+02 -0.28909915340E+02 -0.29369606987E+03  0.29640260633E+03  0.00000000000E+00 0. -1.
          1    1    1    2  501    0 -0.10883026231E+02  0.99429940961E+02 -0.46230498335E+02  0.11019079996E+03  0.00000000000E+00 0. -1.
<scales pt_clust_5="13000.00000" pt_clust_6="13000.00000" pt_clust_7="13000.00000" pt_clust_8="13000.00000" pt_clust_9="39.96403" pt_clust_10="96.50584"></scales>
<clustering>
<clus scale="   39.964">  2  9  1 -1</clus>
<clus scale="   80.846">  5  6 -1 -1</clus>
<clus scale="   81.596">  7  8 -1 -1</clus>
<clus scale="   96.506">  1 10  2 -1</clus>
<clus scale="   92.496">  2  5  1 -1</clus>
<clus scale="   96.506">  1  5  2 -1</clus>
</clustering>
</event>
<event>
10    4  0.2977685E-005  0.2101504E+03  0.7546771E-02  0.1142260E+00
         21   -1    0    0  501  502  0.00000000000E+00  0.00000000000E+00  0.28200561739E+03  0.28200561739E+03  0.00000000000E+00 0. -1.
          2   -1    0    0  503    0 -0.00000000000E+00 -0.00000000000E+00 -0.93217825785E+03  0.93217825785E+03  0.00000000000E+00 0. -1.
         24    2    1    2    0    0 -0.44295445992E+02  0.16240259874E+03 -0.43617846676E+03  0.47453638054E+03  0.81218415269E+02 0.  0.
         23    2    1    2    0    0  0.13194211662E+03 -0.23011932042E+03  0.17570029917E+03  0.33094371366E+03  0.91046816052E+02 0.  0.
        -11    1    3    3    0    0 -0.35156460307E+01  0.13664680242E+03 -0.35055601095E+03  0.37626350500E+03  0.00000000000E+00 0.  1.
         12    1    3    3    0    0 -0.40779799962E+02  0.25755796323E+02 -0.85622455806E+02  0.98272875542E+02  0.00000000000E+00 0. -1.
        -13    1    4    4    0    0  0.30280738269E+02 -0.10120049556E+03  0.26058906146E+02  0.10880041360E+03  0.00000000000E+00 0.  1.
         13    1    4    4    0    0  0.10166137835E+03 -0.12891882486E+03  0.14964139303E+03  0.22214330005E+03  0.00000000000E+00 0. -1.
         21    1    1    2  503  502 -0.38767060765E+01  0.26349303139E+02 -0.13038007691E+03  0.13307245801E+03  0.00000000000E+00 0. -1.
          1    1    1    2  501    0 -0.83769964555E+02  0.41367418531E+02 -0.25931439597E+03  0.27563132303E+03  0.00000000000E+00 0. -1.
<scales pt_clust_5="13000.00000" pt_clust_6="13000.00000" pt_clust_7="13000.00000" pt_clust_8="13000.00000" pt_clust_9="26.63296" pt_clust_10="98.75914"></scales>
<clustering>
<clus scale="   26.633">  2  9  1 -1</clus>
<clus scale="   81.218">  5  6 -1 -1</clus>
<clus scale="   91.047">  7  8 -1 -1</clus>
<clus scale="   98.759">  1 10  2 -1</clus>
<clus scale="  206.083">  2  5  1 -1</clus>
<clus scale="   98.759">  1  5  2 -1</clus>
</clustering>
</event>
<event>
10    4  0.2977685E-005  0.1654886E+03  0.7546771E-02  0.1184141E+00
          2   -1    0    0  503    0 -0.00000000000E+00  0.00000000000E+00  0.70660226085E+03  0.70660226085E+03  0.00000000000E+00 0. -1.
         21   -1    0    0  501  502  0.00000000000E+00 -0.00000000000E+00 -0.13685920947E+03  0.13685920947E+03  0.00000000000E+00 0.  1.
         23    2    1    2    0    0 -0.12140283511E+03  0.87255644444E+02  0.54349701959E+03  0.57088234138E+03  0.90362832739E+02 0.  0.
         24    2    1    2    0    0  0.87232033420E+02 -0.64638562420E+02  0.81962326816E+02  0.15776402636E+03  0.79900523087E+02 0.  0.
        -11    1    4    4    0    0  0.82111183501E+02 -0.32099670145E+02  0.24455485207E+02  0.91491562650E+02  0.00000000000E+00 0.  1.
         12    1    4    4    0    0  0.51208499193E+01 -0.32538892274E+02  0.57506841608E+02  0.66272463709E+02  0.00000000000E+00 0. -1.
        -11    1    3    3    0    0 -0.13178520071E+03  0.59232549054E+02  0.46279648497E+03  0.48482617554E+03  0.00000000000E+00 0. -1.
         11    1    3    3    0    0  0.10382365602E+02  0.28023095390E+02  0.80700534618E+02  0.86056165836E+02  0.00000000000E+00 0.  1.
         21    1    1    2  503  502  0.26944838917E+02 -0.27879348164E+01  0.21615077279E+02  0.34655569402E+02  0.00000000000E+00 0. -1.
          1    1    1    2  501    0  0.72259627751E+01 -0.19829147208E+02 -0.77331372301E+02  0.80159533176E+02  0.00000000000E+00 0. -1.
<scales pt_clust_5="13000.00000" pt_clust_6="13000.00000" pt_clust_7="13000.00000" pt_clust_8="13000.00000" pt_clust_9="28.20460" pt_clust_10="21.10473"></scales>
<clustering>
<clus scale="   21.105">  2 10  1 -1</clus>
<clus scale="   28.205">  2  9  1 -1</clus>
<clus scale="   79.901">  5  6 -1 -1</clus>
<clus scale="   90.363">  7  8 -1 -1</clus>
<clus scale="  160.016">  2  5  1 -1</clus>
<clus scale="   21.105">  2  5  1 -1</clus>
</clustering>
</event>
<event>
10    4  0.2977685E-005  0.1103073E+03  0.7546771E-02  0.1268929E+00
         21   -1    0    0  501  502  0.00000000000E+00  0.00000000000E+00  0.40624291249E+03  0.40624291249E+03  0.00000000000E+00 0.  1.
          2   -1    0    0  503    0 -0.00000000000E+00 -0.00000000000E+00 -0.19651346802E+03  0.19651346802E+03  0.00000000000E+00 0. -1.
         24    2    1    2    0    0  0.24819332496E+02 -0.18368157940E+01 -0.12042223210E+03  0.14125418532E+03  0.69511565427E+02 0.  0.
         23    2    1    2    0    0 -0.56519522651E+02  0.44768914139E+02  0.11925987151E+03  0.16683231947E+03  0.91713650850E+02 0.  0.
        -13    1    3    3    0    0  0.46902708251E+01 -0.30243582499E+02 -0.24482557624E+02  0.39192710427E+02  0.00000000000E+00 0.  1.
         14    1    3    3    0    0  0.20129061671E+02  0.28406766705E+02 -0.95939674473E+02  0.10206147489E+03  0.00000000000E+00 0. -1.
        -11    1    4    4    0    0  0.14126714758E+02  0.32036399712E+02  0.10563893977E+02  0.36571721758E+02  0.00000000000E+00 0. -1.
         11    1    4    4    0    0 -0.70646237409E+02  0.12732514426E+02  0.10869597753E+03  0.13026059771E+03  0.00000000000E+00 0.  1.
         21    1    1    2  503  502  0.42927652994E+02 -0.11104552049E+02 -0.28631040289E+02  0.52780971342E+02  0.00000000000E+00 0. -1.
          1    1    1    2  501    0 -0.11227462839E+02 -0.31827546295E+02  0.23952284535E+03  0.24188890439E+03  0.00000000000E+00 0. -1.
<scales pt_clust_5="13000.00000" pt_clust_6="13000.00000" pt_clust_7="13000.00000" pt_clust_8="13000.00000" pt_clust_9="44.19732" pt_clust_10="33.74979"></scales>
<clustering>
<clus scale="   33.750">  1 10  2 -1</clus>
<clus scale="   44.197">  2  9  1 -1</clus>
<clus scale="   69.512">  5  6 -1 -1</clus>
<clus scale="   91.714">  7  8 -1 -1</clus>
<clus scale="   92.672">  2  5  1 -1</clus>
<clus scale="   33.750">  1  5  2 -1</clus>
</clustering>
</event>
<event>
10    4  0.2977685E-005  0.1235409E+03  0.7546771E-02  0.1243284E+00
         21   -1    0    0  503  502  0.00000000000E+00  0.00000000000E+00  0.38160867506E+03  0.38160867506E+03  0.00000000000E+00 0.  1.
         -1   -1    0    0    0  501 -0.00000000000E+00 -0.00000000000E+00 -0.10427328320E+03  0.10427328320E+03  0.00000000000E+00 0.  1.
         24    2    1    2    0    0 -0.44443611247E+02  0.84710307760E+02  0.12571035558E+02  0.11935103674E+03  0.70253599296E+02 0.  0.
         23    2    1    2    0    0  0.14571592241E+02 -0.94254075404E+02  0.17879727779E+03  0.22194423360E+03  0.90524108699E+02 0.  0.
        -11    1    3    3    0    0 -0.43482854642E+02  0.57901129037E+02 -0.21919950281E+02  0.75655691206E+02  0.00000000000E+00 0.  1.
         12    1    3    3    0    0 -0.96075660474E+00  0.26809178723E+02  0.34490985839E+02  0.43695345532E+02  0.00000000000E+00 0. -1.
        -13    1    4    4    0    0 -0.19903987715E+02 -0.77673107508E+02  0.16076543382E+03  0.17965189971E+03  0.00000000000E+00 0.  1.
         13    1    4    4    0    0  0.34475579956E+02 -0.16580967896E+02  0.18031843966E+02  0.42292333897E+02  0.00000000000E+00 0. -1.
         21    1    1    2  503  501  0.56745487165E+01 -0.21978279656E+02 -0.20723272422E+02  0.30735961017E+02  0.00000000000E+00 0.  1.
         -2    1    1    2    0  502  0.24197470290E+02  0.31522047300E+02  0.10669035094E+03  0.11385072691E+03  0.00000000000E+00 0.  1.
<scales pt_clust_5="13000.00000" pt_clust_6="13000.00000" pt_clust_7="13000.00000" pt_clust_8="13000.00000" pt_clust_9="22.69901" pt_clust_10="39.10993"></scales>
<clustering>
<clus scale="   22.699">  2  9  1 -1</clus>
<clus scale="   39.110">  1 10  2 -1</clus>
<clus scale="   70.254">  5  6 -1 -1</clus>
<clus scale="   90.524">  7  8 -1 -1</clus>
<clus scale="  109.560">  2  5  1 -1</clus>
<clus scale="   39.110">  1  5  2 -1</clus>
</clustering>
</event>
<event>
10    4  0.2977685E-005  0.1513692E+03  0.7546771E-02  0.1200817E+00
         21   -1    0    0  503  502  0.00000000000E+00  0.00000000000E+00  0.15363099620E+04  0.15363099620E+04  0.00000000000E+00 0.  1.
         -1   -1    0    0    0  501 -0.00000000000E+00 -0.00000000000E+00 -0.34734840419E+02  0.34734840419E+02  0.00000000000E+00 0.  1.
         23    2    1    2    0    0  0.16110348100E+03 -0.54531506427E+02  0.58484012789E+03  0.61580874176E+03  0.90853808130E+02 0.  0.
         24    2    1    2    0    0 -0.74225421188E+02 -0.69932801233E+01  0.66120181890E+03  0.67013324082E+03  0.79576353388E+02 0.  0.
        -11    1    4    4    0    0 -0.90799506887E+02 -0.67221766331E+01  0.51406923956E+03  0.52206984320E+03  0.00000000000E+00 0.  1.
         12    1    4    4    0    0  0.16574085699E+02 -0.27110349018E+00  0.14713257934E+03  0.14806339762E+03  0.00000000000E+00 0. -1.
        -13    1    3    3    0    0  0.15712357584E+03 -0.22694165944E+02  0.44927861655E+03  0.47650196069E+03  0.00000000000E+00 0.  1.
         13    1    3    3    0    0  0.39799051531E+01 -0.31837340483E+02  0.13556151134E+03  0.13930678107E+03  0.00000000000E+00 0. -1.
         21    1    1    2  503  501 -0.22303757838E+02 -0.77739461052E+01  0.19015379584E+02  0.30322871112E+02  0.00000000000E+00 0. -1.
         -2    1    1    2    0  502 -0.64574301972E+02  0.69298732656E+02  0.23651779516E+03  0.25477994869E+03  0.00000000000E+00 0.  1.
<scales pt_clust_5="13000.00000" pt_clust_6="13000.00000" pt_clust_7="13000.00000" pt_clust_8="13000.00000" pt_clust_9="23.61973" pt_clust_10="97.94539"></scales>
<clustering>
<clus scale="   23.620">  2  9  1 -1</clus>
<clus scale="   79.576">  5  6 -1 -1</clus>
<clus scale="   90.854">  7  8 -1 -1</clus>
<clus scale="   97.945">  1 10  2 -1</clus>
<clus scale="  144.881">  1  5  2 -1</clus>
<clus scale="   97.945">  1  5  2 -1</clus>
</clustering>
</event>
<event>
10    4  0.2977685E-005  0.1923513E+03  0.7546771E-02  0.1157978E+00
         -1   -1    0    0    0  501 -0.00000000000E+00  0.00000000000E+00  0.29665285363E+03  0.29665285363E+03  0.00000000000E+00 0.  1.
         21   -1    0    0  503  502  0.00000000000E+00 -0.00000000000E+00 -0.52094627504E+03  0.52094627504E+03  0.00000000000E+00 0. -1.
         23    2    1    2    0    0  0.93317635231E+02  0.18610579756E+03 -0.18417051429E+03  0.29395299178E+03  0.95634900083E+02 0.  0.
         24    2    1    2    0    0  0.14229673959E+02 -0.13847710088E+03 -0.22056470084E+03  0.27289402581E+03  0.80274348183E+02 0.  0.
        -13    1    4    4    0    0 -0.61619799552E+01 -0.21540154233E+02  0.14266437366E-01  0.22404205964E+02  0.00000000000E+00 0.  1.
         14    1    4    4    0    0  0.20391653914E+02 -0.11693694665E+03 -0.22057896728E+03  0.25048981984E+03  0.00000000000E+00 0. -1.
        -11    1    3    3    0    0  0.81843129845E+02  0.16769079232E+03 -0.10985137653E+03  0.21653134797E+03  0.00000000000E+00 0. -1.
         11    1    3    3    0    0  0.11474505385E+02  0.18415005242E+02 -0.74319137767E+02  0.77421643811E+02  0.00000000000E+00 0.  1.
         21    1    1    2  503  501 -0.11549620525E+02 -0.21493344096E+02  0.14201742803E+03  0.14409825619E+03  0.00000000000E+00 0.  1.
         -2    1    1    2    0  502 -0.95997688664E+02 -0.26135352581E+02  0.38424365698E+02  0.10665385489E+03  0.00000000000E+00 0.  1.
<scales pt_clust_5="13000.00000" pt_clust_6="13000.00000" pt_clust_7="13000.00000" pt_clust_8="13000.00000" pt_clust_9="24.39995" pt_clust_10="107.74628"></scales>
<clustering>
<clus scale="   24.400">  1  9  2 -1</clus>
<clus scale="   80.274">  5  6 -1 -1</clus>
<clus scale="   95.635">  7  8 -1 -1</clus>
<clus scale="  107.746">  2 10  1 -1</clus>
<clus scale="  185.194">  2  5  1 -1</clus>
<clus scale="  107.746">  2  5  1 -1</clus>
</clustering>
</event>
<event>
10    4  0.2977685E-005  0.1433642E+03  0.7546771E-02  0.1225609E+00
          2   -1    0    0  503    0 -0.00000000000E+00  0.00000000000E+00  0.77391645769E+03  0.77391645769E+03  0.00000000000E+00 0. -1.
         21   -1    0    0  501  502  0.00000000000E+00 -0.00000000000E+00 -0.12337727583E+03  0.12337727583E+03  0.00000000000E+00 0. -1.
         24    2    1    2    0    0  0.41563444533E+02 -0.56586647053E+02  0.33965123914E+03  0.35605607260E+03  0.80519525838E+02 0.  0.
         23    2    1    2    0    0  0.69992513802E+02 -0.32917757373E+01  0.88374042173E+02  0.14515471404E+03  0.91379056153E+02 0.  0.
        -13    1    3    3    0    0  0.11619881770E+02 -0.38395951265E+02  0.49118526115E+02  0.63418454203E+02  0.00000000000E+00 0.  1.
         14    1    3    3    0    0  0.29943562764E+02 -0.18190695788E+02  0.29053271302E+03  0.29263761840E+03  0.00000000000E+00 0. -1.
        -11    1    4    4    0    0  0.75126569310E+01  0.36042850202E+02  0.49572145302E+02  0.61748883833E+02  0.00000000000E+00 0.  1.
         11    1    4    4    0    0  0.62479856871E+02 -0.39334625939E+02  0.38801896871E+02  0.83405830211E+02  0.00000000000E+00 0. -1.
         21    1    1    2  503  502  0.12826591458E+02  0.33743240854E+02  0.26084419498E+03  0.26333025236E+03  0.00000000000E+00 0. -1.
          1    1    1    2  501    0 -0.12438254979E+03  0.26135181936E+02 -0.38330294437E+02  0.13275269451E+03  0.00000000000E+00 0. -1.
<scales pt_clust_5="13000.00000" pt_clust_6="13000.00000" pt_clust_7="13000.00000" pt_clust_8="13000.00000" pt_clust_9="36.09886" pt_clust_10="110.46795"></scales>
<clustering>
<clus scale="   36.099">  1  9  2 -1</clus>
<clus scale="   80.520">  5  6 -1 -1</clus>
<clus scale="   91.379">  7  8 -1 -1</clus>
<clus scale="  100.718">  1  5  2 -1</clus>
<clus scale="  110.468">  2 10  1 -1</clus>
<clus scale="  110.468">  2  5  1 -1</clus>
</clustering>
</event>
<event>
10    4  0.2977685E-005  0.1481366E+03  0.7546771E-02  0.1204968E+00
         21   -1    0    0  501  502  0.00000000000E+00  0.00000000000E+00  0.10066843790E+03  0.10066843790E+03  0.00000000000E+00 0. -1.
          2   -1    0    0  503    0 -0.00000000000E+00 -0.00000000000E+00 -0.50432320780E+03  0.50432320780E+03  0.00000000000E+00 0. -1.
         23    2    1    2    0    0  0.12538351828E+03  0.16729618306E+02 -0.19851347758E+03  0.25282094128E+03  0.92249231884E+02 0.  0.
         24    2    1    2    0    0 -0.64750229394E+02 -0.72694905163E+02 -0.24619144930E+02  0.12890749252E+03  0.80832529881E+02 0.  0.
        -11    1    4    4    0    0 -0.25165522835E+02 -0.43901015084E+02  0.27345647548E+02  0.57518580518E+02  0.00000000000E+00 0.  1.
         12    1    4    4    0    0 -0.39584706559E+02 -0.28793890079E+02 -0.51964792478E+02  0.71388912000E+02  0.00000000000E+00 0. -1.
        -11    1    3    3    0    0  0.10571886741E+03  0.24951172217E+01 -0.20228052560E+03  0.22825449738E+03  0.00000000000E+00 0. -1.
         11    1    3    3    0    0  0.19664650877E+02  0.14234501084E+02  0.37670480214E+01  0.24566443903E+02  0.00000000000E+00 0.  1.
         21    1    1    2  503  502  0.10648185255E+02  0.48310310610E+02 -0.11870459154E+03  0.12860034997E+03  0.00000000000E+00 0. -1.
          1    1    1    2  501    0 -0.71281474145E+02  0.76549762480E+01 -0.61817555855E+02  0.94662861934E+02  0.00000000000E+00 0. -1.
<scales pt_clust_5="13000.00000" pt_clust_6="13000.00000" pt_clust_7="13000.00000" pt_clust_8="13000.00000" pt_clust_9="49.46989" pt_clust_10="71.29548"></scales>
<clustering>
<clus scale="   49.470">  2  9  1 -1</clus>
<clus scale="   71.295">  1 10  2 -1</clus>
<clus scale="   80.833">  5  6 -1 -1</clus>
<clus scale="   92.249">  7  8 -1 -1</clus>
<clus scale="  141.310">  1  5  2 -1</clus>
<clus scale="   71.295">  1  5  2 -1</clus>
</clustering>
</event>
<event>
10    4  0.2977685E-005  0.1748093E+03  0.7546771E-02  0.1195686E+00
         21   -1    0    0  501  502  0.00000000000E+00  0.00000000000E+00  0.12695061283E+03  0.12695061283E+03  0.00000000000E+00 0. -1.
          2   -1    0    0  503    0 -0.00000000000E+00 -0.00000000000E+00 -0.64282748618E+03  0.64282748618E+03  0.00000000000E+00 0. -1.
         23    2    1    2    0    0  0.60295280031E+02  0.22556467396E+02 -0.13208389710E+03  0.17272749312E+03  0.90798215797E+02 0.  0.
         24    2    1    2    0    0 -0.16268724380E+03 -0.14081056449E+02 -0.14311904665E+02  0.18252287407E+03  0.80276730734E+02 0.  0.
        -11    1    4    4    0    0 -0.38103933831E+02  0.23267504786E+02  0.18594213640E+02  0.48363533093E+02  0.00000000000E+00 0.  1.
         12    1    4    4    0    0 -0.12458330997E+03 -0.37348561235E+02 -0.32906118305E+02  0.13415934098E+03  0.00000000000E+00 0. -1.
        -13    1    3    3    0    0  0.83879514703E+02  0.19743062054E+02 -0.91389962155E+02  0.12560926187E+03  0.00000000000E+00 0. -1.
         13    1    3    3    0    0 -0.23584234672E+02  0.28134053422E+01 -0.40693934942E+02  0.47118231245E+02  0.00000000000E+00 0.  1.
         21    1    1    2  503  502 -0.27573314941E+02 -0.44878116139E+02 -0.11429610474E+03  0.12584884808E+03  0.00000000000E+00 0. -1.
          1    1    1    2  501    0  0.12996527871E+03  0.36402705191E+02 -0.25518496685E+03  0.28867888375E+03  0.00000000000E+00 0. -1.
<scales pt_clust_5="13000.00000" pt_clust_6="13000.00000" pt_clust_7="13000.00000" pt_clust_8="13000.00000" pt_clust_9="52.67194" pt_clust_10="155.28672"></scales>
<clustering>
<clus scale="   52.672">  2  9  1 -1</clus>
<clus scale="   80.277">  5  6 -1 -1</clus>
<clus scale="   90.798">  7  8 -1 -1</clus>
<clus scale="  105.189">  2  7  1 -1</clus>
<clus scale="  155.287">  1 10  2 -1</clus>
<clus scale="  155.287">  1  5  2 -1</clus>
</clustering>
</event>
<event>
10    4  0.2977685E-005  0.1945710E+03  0.7546771E-02  0.1181176E+00
         21   -1    0    0  501  502  0.00000000000E+00  0.00000000000E+00  0.10046532809E+04  0.10046532809E+04  0.00000000000E+00 0. -1.
          2   -1    0    0  503    0 -0.00000000000E+00 -0.00000000000E+00 -0.17323115714E+03  0.17323115714E+03  0.00000000000E+00 0. -1.
         23    2    1    2    0    0 -0.48522911641E+02 -0.19426475240E+02  0.45885220722E+03  0.47075869158E+03  0.91304636993E+02 0.  0.
         24    2    1    2    0    0  0.12928509145E+03 -0.19963838266E+02  0.18830745401E+03  0.24373102121E+03  0.82655452057E+02 0.  0.
        -13    1    4    4    0    0  0.92707640969E+01 -0.26400135383E+02  0.12209591663E+02  0.30528484138E+02  0.00000000000E+00 0.  1.
         14    1    4    4    0    0  0.12001432735E+03  0.64362971168E+01  0.17609786235E+03  0.21320253707E+03  0.00000000000E+00 0. -1.
        -13    1    3    3    0    0  0.22696771635E+02  0.13343693208E+02  0.96870759081E+02  0.10038496678E+03  0.00000000000E+00 0.  1.
         13    1    3    3    0    0 -0.71219683275E+02 -0.32770168448E+02  0.36198144814E+03  0.37037372480E+03  0.00000000000E+00 0. -1.
         21    1    1    2  503  502  0.81724301765E+02  0.16548192843E+03 -0.39480447275E+01  0.18460421770E+03  0.00000000000E+00 0. -1.
          1    1    1    2  501    0 -0.16248648157E+03 -0.12609161493E+03  0.18821050722E+03  0.27879050751E+03  0.00000000000E+00 0. -1.
<scales pt_clust_5="13000.00000" pt_clust_6="13000.00000" pt_clust_7="13000.00000" pt_clust_8="13000.00000" pt_clust_9="13000.00000" pt_clust_10="194.57099"></scales>
<clustering>
<clus scale="   82.655">  5  6 -1 -1</clus>
<clus scale="   91.305">  7  8 -1 -1</clus>
<clus scale="  105.207">  2  7  1 -1</clus>
<clus scale="  148.560">  2  5  1 -1</clus>
<clus scale="  194.571">  1 10  2 -1</clus>
<clus scale="  194.571">  1  5  2 -1</clus>
</clustering>
</event>
<event>
10    4  0.2977685E-005  0.1166375E+03  0.7546771E-02  0.1252347E+00
          2   -1    0    0  503    0 -0.00000000000E+00  0.00000000000E+00  0.13446728828E+04  0.13446728828E+04  0.00000000000E+00 0. -1.
         21   -1    0    0  501  502  0.00000000000E+00 -0.00000000000E+00 -0.69050601156E+02  0.69050601156E+02  0.00000000000E+00 0.  1.
         23    2    1    2    0    0  0.20295257480E+02 -0.10977045070E+03  0.46441759919E+03  0.48631608704E+03  0.91423086575E+02 0.  0.
         24    2    1    2    0    0  0.74977126734E+02  0.18673852290E+02  0.13098376577E+03  0.17223530010E+03  0.80857710895E+02 0.  0.
        -13    1    4    4    0    0  0.44704690227E+02 -0.29984696230E+02  0.53824420573E+02  0.76122661450E+02  0.00000000000E+00 0.  1.
         14    1    4    4    0    0  0.30272436507E+02  0.48658548520E+02  0.77159345200E+02  0.96112638648E+02  0.00000000000E+00 0. -1.
        -11    1    3    3    0    0 -0.13621253105E+02 -0.58386907083E+02  0.98932061755E+02  0.11568112334E+03  0.00000000000E+00 0. -1.
         11    1    3    3    0    0  0.33916510585E+02 -0.51383543622E+02  0.36548553743E+03  0.37063496370E+03  0.00000000000E+00 0.  1.
         21    1    1    2  503  502 -0.85651892373E+02  0.53545508038E+02  0.70299384012E+03  0.71021384620E+03  0.00000000000E+00 0. -1.
          1    1    1    2  501    0 -0.96204918416E+01  0.37551090377E+02 -0.22772923465E+02  0.44958250577E+02  0.00000000000E+00 0. -1.
<scales pt_clust_5="13000.00000" pt_clust_6="13000.00000" pt_clust_7="13000.00000" pt_clust_8="13000.00000" pt_clust_9="103.92724" pt_clust_10="38.76388"></scales>
<clustering>
<clus scale="   38.764">  2 10  1 -1</clus>
<clus scale="   80.858">  5  6 -1 -1</clus>
<clus scale="   91.423">  7  8 -1 -1</clus>
<clus scale="  103.927">  1  9  2 -1</clus>
<clus scale="  108.555">  2  5  1 -1</clus>
<clus scale="   38.764">  2  5  1 -1</clus>
</clustering>
</event>
<event>
10    4  0.2977685E-005  0.3507991E+03  0.7546771E-02  0.1076121E+00
         21   -1    0    0  501  502  0.00000000000E+00  0.00000000000E+00  0.88685350815E+03  0.88685350815E+03  0.00000000000E+00 0.  1.
          2   -1    0    0  503    0 -0.00000000000E+00 -0.00000000000E+00 -0.51531068252E+03  0.51531068252E+03  0.00000000000E+00 0. -1.
         23    2    1    2    0    0  0.20430709238E+03 -0.85052015141E+02 -0.78413541573E+02  0.25230129982E+03  0.92368983507E+02 0.  0.
         24    2    1    2    0    0  0.19715107463E+03  0.15930667741E+03  0.11391442760E+03  0.28945683663E+03  0.81003702141E+02 0.  0.
        -11    1    4    4    0    0  0.14515889866E+03  0.10340066096E+03  0.11675220253E+03  0.21305839421E+03  0.00000000000E+00 0.  1.
         12    1    4    4    0    0  0.51992175967E+02  0.55906016452E+02 -0.28377749323E+01  0.76398442418E+02  0.00000000000E+00 0. -1.
        -11    1    3    3    0    0  0.12001297952E+03  0.28069246440E-01 -0.37360940787E+02  0.12569389777E+03  0.00000000000E+00 0.  1.
         11    1    3    3    0    0  0.84294112857E+02 -0.85080084387E+02 -0.41052600786E+02  0.12660740205E+03  0.00000000000E+00 0. -1.
         21    1    1    2  503  502 -0.37614401121E+02  0.28094278520E+03  0.11241967603E+03  0.30492929555E+03  0.00000000000E+00 0.  1.
          1    1    1    2  501    0 -0.36384376588E+03 -0.35519744747E+03  0.22362226357E+03  0.55547675867E+03  0.00000000000E+00 0. -1.
<scales pt_clust_5="13000.00000" pt_clust_6="13000.00000" pt_clust_7="13000.00000" pt_clust_8="13000.00000" pt_clust_9="258.21854" pt_clust_10="341.31881"></scales>
<clustering>
<clus scale="   81.004">  5  6 -1 -1</clus>
<clus scale="   92.369">  7  8 -1 -1</clus>
<clus scale="  239.807">  2  7  1 -1</clus>
<clus scale="  258.219">  2  9  1 -1</clus>
<clus scale="  341.319">  1 10  2 -1</clus>
<clus scale="  341.319">  1  5  2 -1</clus>
</clustering>
</event>
<event>
10    4  0.2977685E-005  0.1291886E+03  0.7546771E-02  0.1250002E+00
         21   -1    0    0  503  502  0.00000000000E+00  0.00000000000E+00  0.16627943396E+03  0.16627943396E+03  0.00000000000E+00 0.  1.
         -1   -1    0    0    0  501 -0.00000000000E+00 -0.00000000000E+00 -0.26267251126E+03  0.26267251126E+03  0.00000000000E+00 0.  1.
         24    2    1    2    0    0  0.62378394854E+01 -0.20745010832E+02  0.17768214918E+01  0.84561468188E+02  0.81720368891E+02 0.  0.
         23    2    1    2    0    0  0.68599996891E+02  0.58570562030E+02  0.60448624497E+02  0.14098444322E+03  0.89922781972E+02 0.  0.
        -11    1    3    3    0    0  0.16698571500E+02 -0.48648951864E+02  0.12427504690E+02  0.52915079896E+02  0.00000000000E+00 0.  1.
         12    1    3    3    0    0 -0.10460732014E+02  0.27903941032E+02 -0.10650683198E+02  0.31646388292E+02  0.00000000000E+00 0. -1.
        -13    1    4    4    0    0  0.89400545890E+02  0.54669263507E+02  0.41949799744E+02  0.11287591274E+03  0.00000000000E+00 0.  1.
         13    1    4    4    0    0 -0.20800548999E+02  0.39012985232E+01  0.18498824752E+02  0.28108530486E+02  0.00000000000E+00 0. -1.
         21    1    1    2  503  501  0.69779277152E+01  0.21562836951E+02 -0.50674731253E+02  0.55511942860E+02  0.00000000000E+00 0.  1.
         -2    1    1    2    0  502 -0.81815764092E+02 -0.59388388148E+02 -0.10794379203E+03  0.14789409096E+03  0.00000000000E+00 0.  1.
<scales pt_clust_5="13000.00000" pt_clust_6="13000.00000" pt_clust_7="13000.00000" pt_clust_8="13000.00000" pt_clust_9="22.66379" pt_clust_10="92.75554"></scales>
<clustering>
<clus scale="   22.664">  2  9  1 -1</clus>
<clus scale="   81.720">  5  6 -1 -1</clus>
<clus scale="   83.714">  2  5  1 -1</clus>
<clus scale="   89.923">  7  8 -1 -1</clus>
<clus scale="   92.756">  1 10  2 -1</clus>
<clus scale="   92.756">  1  5  2 -1</clus>
</clustering>
</event>
<event>
10    4  0.2977685E-005  0.1120360E+03  0.7546771E-02  0.1259774E+00
         -3   -1    0    0    0  501 -0.00000000000E+00  0.00000000000E+00  0.14313075667E+03  0.14313075667E+03  0.00000000000E+00 0.  1.
         21   -1    0    0  503  502  0.00000000000E+00 -0.00000000000E+00 -0.39241969524E+03  0.39241969524E+03  0.00000000000E+00 0.  1.
         23    2    1    2    0    0  0.15910080733E+02 -0.64481692098E+02  0.81053274653E+02  0.13576529428E+03  0.86322433434E+02 0.  0.
         24    2    1    2    0    0 -0.29234372477E+02  0.11616555413E+03 -0.24520042737E+03  0.28382242535E+03  0.77992532005E+02 0.  0.
        -13    1    4    4    0    0  0.90098993054E+01  0.99712753110E+02 -0.15568585848E+03  0.18509969732E+03  0.00000000000E+00 0.  1.
         14    1    4    4    0    0 -0.38244271782E+02  0.16452801021E+02 -0.89514568894E+02  0.98722728031E+02  0.00000000000E+00 0. -1.
        -11    1    3    3    0    0  0.41902151456E+02 -0.59927823276E+01  0.47053892796E+02  0.63291172875E+02  0.00000000000E+00 0.  1.
         11    1    3    3    0    0 -0.25992070723E+02 -0.58488909770E+02  0.33999381857E+02  0.72474121404E+02  0.00000000000E+00 0. -1.
         21    1    1    2  503  501 -0.22326225642E+02 -0.25119458466E+02 -0.44185712399E+02  0.55514184901E+02  0.00000000000E+00 0.  1.
         -4    1    1    2    0  502  0.35650517386E+02 -0.26564403568E+02 -0.40956073452E+02  0.60448547372E+02  0.00000000000E+00 0.  1.
<scales pt_clust_5="13000.00000" pt_clust_6="13000.00000" pt_clust_7="13000.00000" pt_clust_8="13000.00000" pt_clust_9="33.60725" pt_clust_10="44.30896"></scales>
<clustering>
<clus scale="   33.607">  2  9  1 -1</clus>
<clus scale="   44.309">  2 10  1 -1</clus>
<clus scale="   77.993">  5  6 -1 -1</clus>
<clus scale="   86.322">  7  8 -1 -1</clus>
<clus scale="  105.751">  2  5  1 -1</clus>
<clus scale="   33.607">  2  5  1 -1</clus>
</clustering>
</event>
<event>
10    4  0.2977685E-005  0.9469768E+02  0.7546771E-02  0.1311915E+00
         21   -1    0    0  501  502  0.00000000000E+00  0.00000000000E+00  0.42047745616E+02  0.42047745616E+02  0.00000000000E+00 0.  1.
          2   -1    0    0  503    0 -0.00000000000E+00 -0.00000000000E+00 -0.48636258581E+03  0.48636258581E+03  0.00000000000E+00 0. -1.
         24    2    1    2    0    0 -0.60639796877E+01 -0.33644211267E+02 -0.20390853808E+03  0.21523591243E+03  0.59825590624E+02 0.  0.
         23    2    1    2    0    0 -0.17505680249E+02 -0.15314581034E+02 -0.97761037681E+02  0.13548113925E+03  0.90867669554E+02 0.  0.
        -11    1    3    3    0    0  0.16188221274E+02 -0.26595172024E+02 -0.17654383469E+03  0.17926819921E+03  0.00000000000E+00 0.  1.
         12    1    3    3    0    0 -0.22252200961E+02 -0.70490392432E+01 -0.27364703395E+02  0.35967713213E+02  0.00000000000E+00 0. -1.
        -11    1    4    4    0    0 -0.16942296576E+02 -0.52498497031E+02 -0.69727159907E+02  0.88910125590E+02  0.00000000000E+00 0.  1.
         11    1    4    4    0    0 -0.56338367320E+00  0.37183915997E+02 -0.28033877774E+02  0.46571013657E+02  0.00000000000E+00 0. -1.
         21    1    1    2  503  502  0.10011342520E+02 -0.21565095420E+02 -0.76314113423E+02  0.79931997517E+02  0.00000000000E+00 0.  1.
          1    1    1    2  501    0  0.13558317417E+02  0.70523887721E+02 -0.66331151008E+02  0.97761282236E+02  0.00000000000E+00 0. -1.
<scales pt_clust_5="13000.00000" pt_clust_6="13000.00000" pt_clust_7="13000.00000" pt_clust_8="13000.00000" pt_clust_9="23.77562" pt_clust_10="67.99654"></scales>
<clustering>
<clus scale="   23.776">  2  9  1 -1</clus>
<clus scale="   59.826">  5  6 -1 -1</clus>
<clus scale="   67.997">  1 10  2 -1</clus>
<clus scale="   65.497">  2  5  1 -1</clus>
<clus scale="   90.868">  7  8 -1 -1</clus>
<clus scale="   67.997">  1  5  2 -1</clus>
</clustering>
</event>
<event>
10    4  0.2977685E-005  0.1598338E+03  0.7546771E-02  0.1206974E+00
         21   -1    0    0  501  502  0.00000000000E+00  0.00000000000E+00  0.48914469464E+03  0.48914469464E+03  0.00000000000E+00 0.  1.
          2   -1    0    0  503    0 -0.00000000000E+00 -0.00000000000E+00 -0.18741017073E+03  0.18741017073E+03  0.00000000000E+00 0. -1.
         23    2    1    2    0    0  0.44139120334E+02  0.61800501264E+01 -0.19378701193E+02  0.10349815586E+03  0.91377673659E+02 0.  0.
         24    2    1    2    0    0  0.35134763177E+02  0.12703239737E+03  0.32251813571E+03  0.35763820092E+03  0.80718358060E+02 0.  0.
        -13    1    4    4    0    0  0.31701174692E+02  0.13821046313E+03  0.30737005742E+03  0.33850177074E+03  0.00000000000E+00 0.  1.
         14    1    4    4    0    0  0.34335884855E+01 -0.11178065761E+02  0.15148078294E+02  0.19136430180E+02  0.00000000000E+00 0. -1.
        -13    1    3    3    0    0  0.73145949199E+01  0.23161465198E+02 -0.48046316743E+02  0.53836839818E+02  0.00000000000E+00 0.  1.
         13    1    3    3    0    0  0.36824525414E+02 -0.16981415072E+02  0.28667615550E+02  0.49661316043E+02  0.00000000000E+00 0. -1.
         21    1    1    2  503  502  0.33497523695E+02  0.80538151518E+01 -0.36617786442E+01  0.34646163641E+02  0.00000000000E+00 0.  1.
          1    1    1    2  501    0 -0.11277140721E+03 -0.14126626265E+03  0.22568680283E+01  0.18077234495E+03  0.00000000000E+00 0. -1.
<scales pt_clust_5="13000.00000" pt_clust_6="13000.00000" pt_clust_7="13000.00000" pt_clust_8="13000.00000" pt_clust_9="34.45211" pt_clust_10="137.95436"></scales>
<clustering>
<clus scale="   34.452">  2  9  1 -1</clus>
<clus scale="   80.718">  5  6 -1 -1</clus>
<clus scale="   91.378">  7  8 -1 -1</clus>
<clus scale="  107.753">  2  7  1 -1</clus>
<clus scale="  137.954">  1 10  2 -1</clus>
<clus scale="  137.954">  1  5  2 -1</clus>
</clustering>
</event>
<event>
10    4  0.2977685E-005  0.1081317E+03  0.7546771E-02  0.1267919E+00
         21   -1    0    0  501  502  0.00000000000E+00  0.00000000000E+00  0.71685067902E+03  0.71685067902E+03  0.00000000000E+00 0.  1.
          2   -1    0    0  503    0 -0.00000000000E+00 -0.00000000000E+00 -0.25458940715E+03  0.25458940715E+03  0.00000000000E+00 0. -1.
         24    2    1    2    0    0  0.91436748559E+02 -0.16694332439E+02 -0.14403997365E+03  0.18898699834E+03  0.79556217926E+02 0.  0.
         23    2    1    2    0    0 -0.12078775163E+03  0.93862776274E+01  0.19477698082E+03  0.24611482007E+03  0.89200051823E+02 0.  0.
        -13    1    3    3    0    0  0.21986478934E+02 -0.29025095091E+02 -0.10390354405E+02  0.37865827149E+02  0.00000000000E+00 0.  1.
         14    1    3    3    0    0  0.69450269625E+02  0.12330762652E+02 -0.13364961925E+03  0.15112117120E+03  0.00000000000E+00 0. -1.
        -11    1    4    4    0    0 -0.78020953224E+02 -0.29404514631E+02  0.70917142692E+02  0.10945837451E+03  0.00000000000E+00 0. -1.
         11    1    4    4    0    0 -0.42766798408E+02  0.38790792259E+02  0.12385983813E+03  0.13665644556E+03  0.00000000000E+00 0.  1.
         21    1    1    2  503  502 -0.46105758705E+02  0.68676975667E+00 -0.50361637682E+02  0.68282554056E+02  0.00000000000E+00 0. -1.
          1    1    1    2  501    0  0.75456761778E+02  0.66212850547E+01  0.46188590238E+03  0.46805571371E+03  0.00000000000E+00 0. -1.
<scales pt_clust_5="13000.00000" pt_clust_6="13000.00000" pt_clust_7="13000.00000" pt_clust_8="13000.00000" pt_clust_9="46.11087" pt_clust_10="75.02209"></scales>
<clustering>
<clus scale="   46.111">  2  9  1 -1</clus>
<clus scale="   75.022">  1 10  2 -1</clus>
<clus scale="   79.556">  5  6 -1 -1</clus>
<clus scale="   89.200">  7  8 -1 -1</clus>
<clus scale="  100.325">  2  5  1 -1</clus>
<clus scale="   75.022">  1  5  2 -1</clus>
</clustering>
</event>
<event>
10    4  0.2977685E-005  0.1565910E+03  0.7546771E-02  0.1203886E+00
          2   -1    0    0  503    0 -0.00000000000E+00  0.00000000000E+00  0.24255503628E+03  0.24255503628E+03  0.00000000000E+00 0. -1.
         21   -1    0    0  501  502  0.00000000000E+00 -0.00000000000E+00 -0.30658569833E+03  0.30658569833E+03  0.00000000000E+00 0. -1.
         24    2    1    2    0    0  0.21444304980E+02  0.86771992950E+02 -0.56082604507E+02  0.13221234994E+03  0.79659337004E+02 0.  0.
         23    2    1    2    0    0 -0.90972571171E+02  0.21507095134E+02  0.13554235758E+03  0.18617588084E+03  0.86897434144E+02 0.  0.
        -13    1    3    3    0    0 -0.22887254544E+02  0.11464237568E+01 -0.15096807152E+02  0.27441834745E+02  0.00000000000E+00 0.  1.
         14    1    3    3    0    0  0.44331559524E+02  0.85625569193E+02 -0.40985797355E+02  0.10477051520E+03  0.00000000000E+00 0. -1.
        -11    1    4    4    0    0 -0.40478059021E+01  0.36746327811E+02  0.57549878891E+02  0.68400774123E+02  0.00000000000E+00 0.  1.
         11    1    4    4    0    0 -0.86924765269E+02 -0.15239232678E+02  0.77992478688E+02  0.11777510671E+03  0.00000000000E+00 0. -1.
         21    1    1    2  503  502  0.83411635723E+01  0.20220965059E+02  0.76266057798E+01  0.23165222930E+02  0.00000000000E+00 0.  1.
          1    1    1    2  501    0  0.61187102619E+02 -0.12850005314E+03 -0.15111702091E+03  0.20758728090E+03  0.00000000000E+00 0. -1.
<scales pt_clust_5="13000.00000" pt_clust_6="13000.00000" pt_clust_7="13000.00000" pt_clust_8="13000.00000" pt_clust_9="21.87378" pt_clust_10="130.26732"></scales>
<clustering>
<clus scale="   21.874">  1  9  2 -1</clus>
<clus scale="   79.659">  5  6 -1 -1</clus>
<clus scale="   86.897">  7  8 -1 -1</clus>
<clus scale="  122.459">  1  5  2 -1</clus>
<clus scale="  130.267">  2 10  1 -1</clus>
<clus scale="  130.267">  2  5  1 -1</clus>
</clustering>
</event>
<event>
10    4  0.2977685E-005  0.1443432E+03  0.7546771E-02  0.1220032E+00
          2   -1    0    0  503    0 -0.00000000000E+00  0.00000000000E+00  0.70979599623E+03  0.70979599623E+03  0.00000000000E+00 0. -1.
         21   -1    0    0  501  502  0.00000000000E+00 -0.00000000000E+00 -0.18457594344E+03  0.18457594344E+03  0.00000000000E+00 0. -1.
         23    2    1    2    0    0 -0.52229486690E+02 -0.30663474647E+02  0.61020242718E+02  0.12518699206E+03  0.90995302095E+02 0.  0.
         24    2    1    2    0    0 -0.44456558754E+02  0.21286431926E+02  0.27331000120E+03  0.28915888919E+03  0.80529551352E+02 0.  0.
        -11    1    4    4    0    0  0.59375689977E+01 -0.25107228315E+02  0.68456875987E+02  0.73157169909E+02  0.00000000000E+00 0.  1.
         12    1    4    4    0    0 -0.50394127752E+02  0.46393660241E+02  0.20485312521E+03  0.21600171928E+03  0.00000000000E+00 0. -1.
        -13    1    3    3    0    0  0.17437866117E+02 -0.23976563948E+02 -0.36803820239E+01  0.29874738582E+02  0.00000000000E+00 0.  1.
         13    1    3    3    0    0 -0.69667352807E+02 -0.66869106985E+01  0.64700624742E+02  0.95312253482E+02  0.00000000000E+00 0. -1.
         21    1    1    2  503  502 -0.28527315668E+02  0.30836394162E+02  0.30583339311E+03  0.30870496479E+03  0.00000000000E+00 0. -1.
          1    1    1    2  501    0  0.12521336111E+03 -0.21459351441E+02 -0.11494358423E+03  0.17132109363E+03  0.00000000000E+00 0. -1.
<scales pt_clust_5="13000.00000" pt_clust_6="13000.00000" pt_clust_7="13000.00000" pt_clust_8="13000.00000" pt_clust_9="42.00822" pt_clust_10="119.79125"></scales>
<clustering>
<clus scale="   42.008">  1  9  2 -1</clus>
<clus scale="   80.530">  5  6 -1 -1</clus>
<clus scale="   90.995">  7  8 -1 -1</clus>
<clus scale="  110.881">  1  7  2 -1</clus>
<clus scale="  119.791">  2 10  1 -1</clus>
<clus scale="  119.791">  2  5  1 -1</clus>
</clustering>
</event>
<event>
10    4  0.2977685E-005  0.9099167E+02  0.7546771E-02  0.1306402E+00
         -1   -1    0    0    0  501 -0.00000000000E+00  0.00000000000E+00  0.25522920009E+03  0.25522920009E+03  0.00000000000E+00 0.  1.
         21   -1    0    0  503  502  0.00000000000E+00 -0.00000000000E+00 -0.19238293832E+03  0.19238293832E+03  0.00000000000E+00 0.  1.
         23    2    1    2    0    0  0.27878196363E+02  0.25052176739E+01  0.12709854631E+03  0.15849517080E+03  0.90461089674E+02 0.  0.
         24    2    1    2    0    0  0.11268611970E+02 -0.17368072889E+02 -0.37582531428E+01  0.83706152252E+02  0.81018293530E+02 0.  0.
        -13    1    4    4    0    0  0.43150213644E+02 -0.23842802760E+02 -0.10686338087E+02  0.50444206830E+02  0.00000000000E+00 0.  1.
         14    1    4    4    0    0 -0.31881601674E+02  0.64747298711E+01  0.69280849439E+01  0.33261945421E+02  0.00000000000E+00 0. -1.
        -11    1    3    3    0    0 -0.21910341238E+02 -0.17423912518E+02  0.10045665541E+02  0.29741741320E+02  0.00000000000E+00 0. -1.
         11    1    3    3    0    0  0.49788537600E+02  0.19929130192E+02  0.11705288077E+03  0.12875342948E+03  0.00000000000E+00 0.  1.
         21    1    1    2  503  501 -0.21331941229E+02  0.17194514345E+01  0.69924699493E+02  0.73126409928E+02  0.00000000000E+00 0.  1.
         -2    1    1    2    0  502 -0.17814867104E+02  0.13143403781E+02 -0.13041873089E+03  0.13228440543E+03  0.00000000000E+00 0.  1.
<scales pt_clust_5="13000.00000" pt_clust_6="13000.00000" pt_clust_7="13000.00000" pt_clust_8="13000.00000" pt_clust_9="21.40113" pt_clust_10="22.23105"></scales>
<clustering>
<clus scale="   21.401">  1  9  2 -1</clus>
<clus scale="   22.231">  2 10  1 -1</clus>
<clus scale="   81.018">  5  6 -1 -1</clus>
<clus scale="   81.610">  2  5  1 -1</clus>
<clus scale="   90.461">  7  8 -1 -1</clus>
<clus scale="   22.231">  2  5  1 -1</clus>
</clustering>
</event>
<event>
10    4  0.2977685E-005  0.4371492E+03  0.7546771E-02  0.1056101E+00
          2   -1    0    0  503    0 -0.00000000000E+00  0.00000000000E+00  0.42347565533E+03  0.42347565533E+03  0.00000000000E+00 0. -1.
         21   -1    0    0  501  502  0.00000000000E+00 -0.00000000000E+00 -0.12633606234E+04  0.12633606234E+04  0.00000000000E+00 0. -1.
         23    2    1    2    0    0 -0.18050750538E+03 -0.54288919348E+02 -0.72623059917E+02  0.22173896834E+03  0.91453895417E+02 0.  0.
         24    2    1    2    0    0 -0.36204957478E+02 -0.31246486208E+03  0.96382702324E+02  0.33895894826E+03  0.81599352435E+02 0.  0.
        -11    1    4    4    0    0  0.18713453295E+02 -0.13979736031E+03  0.64049448456E+02  0.15490586539E+03  0.00000000000E+00 0.  1.
         12    1    4    4    0    0 -0.54918410773E+02 -0.17266750177E+03  0.32333253868E+02  0.18405308287E+03  0.00000000000E+00 0. -1.
        -13    1    3    3    0    0 -0.13237456655E+03 -0.78155179579E+02 -0.67099528776E+02  0.16773075069E+03  0.00000000000E+00 0.  1.
         13    1    3    3    0    0 -0.48132938834E+02  0.23866260231E+02 -0.55235311410E+01  0.54008217656E+02  0.00000000000E+00 0. -1.
         21    1    1    2  503  502 -0.23233935152E+02 -0.30734965870E+02  0.71981518419E+02  0.81644306988E+02  0.00000000000E+00 0.  1.
          1    1    1    2  501    0  0.23994639801E+03  0.39748874729E+03 -0.93562612890E+03  0.10444940551E+04  0.00000000000E+00 0. -1.
<scales pt_clust_5="13000.00000" pt_clust_6="13000.00000" pt_clust_7="13000.00000" pt_clust_8="13000.00000" pt_clust_9="38.52861" pt_clust_10="429.46591"></scales>
<clustering>
<clus scale="   38.529">  1  9  2 -1</clus>
<clus scale="   81.599">  5  6 -1 -1</clus>
<clus scale="   91.454">  7  8 -1 -1</clus>
<clus scale="  215.603">  1  7  2 -1</clus>
<clus scale="  429.466">  2 10  1 -1</clus>
<clus scale="  429.466">  2  5  1 -1</clus>
</clustering>
</event>
<event>
10    4  0.2977685E-005  0.1633273E+03  0.7546771E-02  0.1186738E+00
          2   -1    0    0  503    0 -0.00000000000E+00  0.00000000000E+00  0.76816647521E+03  0.76816647521E+03  0.00000000000E+00 0. -1.
         21   -1    0    0  501  502  0.00000000000E+00 -0.00000000000E+00 -0.63022521082E+02  0.63022521082E+02  0.00000000000E+00 0. -1.
         23    2    1    2    0    0 -0.65113371377E+02 -0.91355767726E+02  0.29237435112E+03  0.32616664606E+03  0.91193707995E+02 0.  0.
         24    2    1    2    0    0  0.10629417053E+03  0.10275105139E+03  0.13017489909E+03  0.21242125465E+03  0.79505067905E+02 0.  0.
        -11    1    4    4    0    0  0.84215913704E+01  0.29003351855E+02 -0.42748381445E+01  0.30502325505E+02  0.00000000000E+00 0.  1.
         12    1    4    4    0    0  0.97872579164E+02  0.73747699533E+02  0.13444973723E+03  0.18191892914E+03  0.00000000000E+00 0. -1.
        -11    1    3    3    0    0  0.22721572775E+02 -0.10178428132E+02  0.46497906452E+02  0.52743962432E+02  0.00000000000E+00 0.  1.
         11    1    3    3    0    0 -0.87834944152E+02 -0.81177339594E+02  0.24587644467E+03  0.27342268363E+03  0.00000000000E+00 0. -1.
         21    1    1    2  503  502 -0.30591748282E+02 -0.37082564815E+02  0.17689763145E+03  0.18331323926E+03  0.00000000000E+00 0. -1.
          1    1    1    2  501    0 -0.10589050876E+02  0.25687281152E+02  0.10569707247E+03  0.10928785632E+03  0.00000000000E+00 0. -1.
<scales pt_clust_5="13000.00000" pt_clust_6="13000.00000" pt_clust_7="13000.00000" pt_clust_8="13000.00000" pt_clust_9="47.40488" pt_clust_10="27.78426"></scales>
<clustering>
<clus scale="   27.784">  2 10  1 -1</clus>
<clus scale="   47.405">  1  9  2 -1</clus>
<clus scale="   79.505">  5  6 -1 -1</clus>
<clus scale="   91.194">  7  8 -1 -1</clus>
<clus scale="  157.100">  2  5  1 -1</clus>
<clus scale="   27.784">  2  5  1 -1</clus>
</clustering>
</event>
<event>
10    4  0.2977685E-005  0.2924298E+03  0.7546771E-02  0.1089569E+00
          2   -1    0    0  503    0 -0.00000000000E+00  0.00000000000E+00  0.57558405642E+03  0.57558405642E+03  0.00000000000E+00 0. -1.
         21   -1    0    0  501  502  0.00000000000E+00 -0.00000000000E+00 -0.39539524415E+03  0.39539524415E+03  0.00000000000E+00 0. -1.
         23    2    1    2    0    0 -0.11765422018E+03 -0.26848538067E+03  0.34718392299E+03  0.46373604785E+03  0.92668929704E+02 0.  0.
         24    2    1    2    0    0  0.10334765115E+03  0.20187239729E+03 -0.16190586034E+03  0.28996712023E+03  0.80213598700E+02 0.  0.
        -13    1    4    4    0    0 -0.24363595274E+01  0.76247220888E+02 -0.48932709961E+02  0.90631035771E+02  0.00000000000E+00 0.  1.
         14    1    4    4    0    0  0.10578401067E+03  0.12562517640E+03 -0.11297315038E+03  0.19933608446E+03  0.00000000000E+00 0. -1.
        -13    1    3    3    0    0  0.81623012157E+01 -0.76335769950E+02  0.71443446437E+02  0.10487105880E+03  0.00000000000E+00 0.  1.
         13    1    3    3    0    0 -0.12581652139E+03 -0.19214961072E+03  0.27574047656E+03  0.35886498905E+03  0.00000000000E+00 0. -1.
         21    1    1    2  503  502  0.25665965714E+02 -0.72355120741E+01  0.91416819401E+02  0.95226725767E+02  0.00000000000E+00 0. -1.
          1    1    1    2  501    0 -0.11359396684E+02  0.73848495457E+02 -0.96506069786E+02  0.12204940672E+03  0.00000000000E+00 0. -1.
<scales pt_clust_5="13000.00000" pt_clust_6="13000.00000" pt_clust_7="13000.00000" pt_clust_8="13000.00000" pt_clust_9="26.66635" pt_clust_10="74.42709"></scales>
<clustering>
<clus scale="   26.666">  1  9  2 -1</clus>
<clus scale="   74.427">  2 10  1 -1</clus>
<clus scale="   80.214">  5  6 -1 -1</clus>
<clus scale="   92.669">  7  8 -1 -1</clus>
<clus scale="  288.725">  2  5  1 -1</clus>
<clus scale="   74.427">  2  5  1 -1</clus>
</clustering>
</event>
<event>
10    4  0.2977685E-005  0.1877047E+03  0.7546771E-02  0.1161612E+00
         21   -1    0    0  501  502  0.00000000000E+00  0.00000000000E+00  0.22439401063E+03  0.22439401063E+03  0.00000000000E+00 0. -1.
          2   -1    0    0  503    0 -0.00000000000E+00 -0.00000000000E+00 -0.74708830983E+03  0.74708830983E+03  0.00000000000E+00 0. -1.
         24    2    1    2    0    0  0.65246682378E+02 -0.13895891806E+03 -0.16555850847E+03  0.23996279270E+03  0.81276144608E+02 0.  0.
         23    2    1    2    0    0  0.52907273234E+02  0.16677659785E+03  0.86518180629E+02  0.21541742447E+03  0.91135383013E+02 0.  0.
        -13    1    3    3    0    0  0.84544445701E+02 -0.11717845746E+03 -0.14090726689E+03  0.20182520173E+03  0.00000000000E+00 0.  1.
         14    1    3    3    0    0 -0.19297763323E+02 -0.21780460595E+02 -0.24651241586E+02  0.38137590966E+02  0.00000000000E+00 0. -1.
        -11    1    4    4    0    0  0.41627126537E+02  0.79197928420E+02 -0.32073233654E+01  0.89528858213E+02  0.00000000000E+00 0. -1.
         11    1    4    4    0    0  0.11280146697E+02  0.87578669426E+02  0.89725503994E+02  0.12588856626E+03  0.00000000000E+00 0.  1.
         21    1    1    2  503  502  0.53226423664E+02 -0.56765099327E+02 -0.72896990415E+02  0.10662691916E+03  0.00000000000E+00 0.  1.
          1    1    1    2  501    0 -0.17138037928E+03  0.28947419538E+02 -0.37075698094E+03  0.40947518413E+03  0.00000000000E+00 0. -1.
<scales pt_clust_5="13000.00000" pt_clust_6="13000.00000" pt_clust_7="13000.00000" pt_clust_8="13000.00000" pt_clust_9="77.81599" pt_clust_10="139.87155"></scales>
<clustering>
<clus scale="   77.816">  2  9  1 -1</clus>
<clus scale="   81.276">  5  6 -1 -1</clus>
<clus scale="   91.135">  7  8 -1 -1</clus>
<clus scale="  139.872">  1 10  2 -1</clus>
<clus scale="  183.121">  2  5  1 -1</clus>
<clus scale="  139.872">  1  5  2 -1</clus>
</clustering>
</event>
<event>
10    4  0.2977685E-005  0.1259650E+03  0.7546771E-02  0.1236214E+00
          4   -1    0    0  503    0 -0.00000000000E+00  0.00000000000E+00  0.19589475495E+03  0.19589475495E+03  0.00000000000E+00 0. -1.
         21   -1    0    0  501  502  0.00000000000E+00 -0.00000000000E+00 -0.67093544741E+03  0.67093544741E+03  0.00000000000E+00 0. -1.
         24    2    1    2    0    0  0.71212115511E+02 -0.14187742648E+02  0.12859306039E+03  0.16846208647E+03  0.81060730077E+02 0.  0.
         23    2    1    2    0    0 -0.30885663733E+02  0.35254818945E+01 -0.13506488534E+03  0.16555746887E+03  0.90556054463E+02 0.  0.
        -11    1    3    3    0    0  0.60757667198E+02  0.19565785187E+02  0.46152136220E+02  0.78767593279E+02  0.00000000000E+00 0.  1.
         12    1    3    3    0    0  0.10454448313E+02 -0.33753527835E+02  0.82440924172E+02  0.89694493193E+02  0.00000000000E+00 0. -1.
        -13    1    4    4    0    0  0.15094186061E+02 -0.33287482107E+02 -0.45531279087E+02  0.58386542055E+02  0.00000000000E+00 0. -1.
         13    1    4    4    0    0 -0.45979849793E+02  0.36812964002E+02 -0.89533606249E+02  0.10717092681E+03  0.00000000000E+00 0.  1.
         21    1    1    2  503  502  0.28797762117E+02 -0.30531047660E+02  0.13488042880E+02  0.44083821011E+02  0.00000000000E+00 0. -1.
          3    1    1    2  501    0 -0.69124213896E+02  0.41193308414E+02 -0.48205691039E+03  0.48872682601E+03  0.00000000000E+00 0. -1.
<scales pt_clust_5="13000.00000" pt_clust_6="13000.00000" pt_clust_7="13000.00000" pt_clust_8="13000.00000" pt_clust_9="41.96970" pt_clust_10="79.66239"></scales>
<clustering>
<clus scale="   41.970">  1  9  2 -1</clus>
<clus scale="   79.662">  2 10  1 -1</clus>
<clus scale="   81.061">  5  6 -1 -1</clus>
<clus scale="   90.556">  7  8 -1 -1</clus>
<clus scale="  119.321">  1  5  2 -1</clus>
<clus scale="   79.662">  2  5  1 -1</clus>
</clustering>
</event>
<event>
10    4  0.2977685E-005  0.1657800E+03  0.7546771E-02  0.1186485E+00
         21   -1    0    0  501  502  0.00000000000E+00  0.00000000000E+00  0.48899243433E+03  0.48899243433E+03  0.00000000000E+00 0. -1.
          2   -1    0    0  503    0 -0.00000000000E+00 -0.00000000000E+00 -0.44102090549E+03  0.44102090549E+03  0.00000000000E+00 0. -1.
         24    2    1    2    0    0 -0.87459101982E+02 -0.83824291035E+02 -0.19864521503E+03  0.24665383775E+03  0.81869334514E+02 0.  0.
         23    2    1    2    0    0  0.98813013680E+02 -0.10173131464E+03  0.28473237928E+03  0.33069241504E+03  0.90397309164E+02 0.  0.
        -11    1    3    3    0    0 -0.53710031502E+02 -0.89816087855E+02 -0.11104670668E+03  0.15258790314E+03  0.00000000000E+00 0.  1.
         12    1    3    3    0    0 -0.33749070480E+02  0.59917968204E+01 -0.87598508350E+02  0.94065934602E+02  0.00000000000E+00 0. -1.
        -13    1    4    4    0    0  0.22660502012E+02  0.87049105939E+00  0.50902107182E+01  0.23241479111E+02  0.00000000000E+00 0.  1.
         13    1    4    4    0    0  0.76152511668E+02 -0.10260180570E+03  0.27964216856E+03  0.30745093593E+03  0.00000000000E+00 0. -1.
         21    1    1    2  503  502 -0.22761262589E+02  0.15960078470E+02 -0.14778692672E+03  0.15037877141E+03  0.00000000000E+00 0.  1.
          1    1    1    2  501    0  0.11407350891E+02  0.16959552720E+03  0.10967129131E+03  0.20228831563E+03  0.00000000000E+00 0. -1.
<scales pt_clust_5="13000.00000" pt_clust_6="13000.00000" pt_clust_7="13000.00000" pt_clust_8="13000.00000" pt_clust_9="27.79927" pt_clust_10="138.96529"></scales>
<clustering>
<clus scale="   27.799">  2  9  1 -1</clus>
<clus scale="   81.869">  5  6 -1 -1</clus>
<clus scale="   90.397">  7  8 -1 -1</clus>
<clus scale="  151.074">  2  5  1 -1</clus>
<clus scale="  138.965">  1 10  2 -1</clus>
<clus scale="  138.965">  1  5  2 -1</clus>
</clustering>
</event>
<event>
10    4  0.2977685E-005  0.2159772E+03  0.7546771E-02  0.1180983E+00
         21   -1    0    0  501  502  0.00000000000E+00  0.00000000000E+00  0.93838016860E+02  0.93838016860E+02  0.00000000000E+00 0. -1.
          2   -1    0    0  503    0 -0.00000000000E+00 -0.00000000000E+00 -0.10543568944E+04  0.10543568944E+04  0.00000000000E+00 0. -1.
         24    2    1    2    0    0 -0.25962344653E+02 -0.19129741898E+02 -0.39503765068E+03  0.40277173091E+03  0.71626331782E+02 0.  0.
         23    2    1    2    0    0  0.19002974307E+03  0.69227556307E+02 -0.16179356963E+03  0.27381810806E+03  0.88856284645E+02 0.  0.
        -13    1    3    3    0    0 -0.32862543034E+01 -0.43570660445E+02 -0.26209365261E+03  0.26571090429E+03  0.00000000000E+00 0.  1.
         14    1    3    3    0    0 -0.22676090350E+02  0.24440918546E+02 -0.13294399807E+03  0.13706082663E+03  0.00000000000E+00 0. -1.
        -13    1    4    4    0    0  0.68888958608E+02  0.28093311801E+02 -0.11625232566E+03  0.13802002032E+03  0.00000000000E+00 0.  1.
         13    1    4    4    0    0  0.12114078446E+03  0.41134244505E+02 -0.45541243970E+02  0.13579808774E+03  0.00000000000E+00 0. -1.
         21    1    1    2  503  502  0.23223584459E+02 -0.11789046041E+02 -0.15887123442E+03  0.16099188057E+03  0.00000000000E+00 0. -1.
          1    1    1    2  501    0 -0.18729098288E+03 -0.38308768367E+02 -0.24481642285E+03  0.31061319177E+03  0.00000000000E+00 0. -1.
<scales pt_clust_5="13000.00000" pt_clust_6="13000.00000" pt_clust_7="13000.00000" pt_clust_8="13000.00000" pt_clust_9="26.04451" pt_clust_10="196.85215"></scales>
<clustering>
<clus scale="   26.045">  2  9  1 -1</clus>
<clus scale="   71.626">  5  6 -1 -1</clus>
<clus scale="   77.257">  2  5  1 -1</clus>
<clus scale="   88.856">  7  8 -1 -1</clus>
<clus scale="  196.852">  1 10  2 -1</clus>
<clus scale="  196.852">  1  5  2 -1</clus>
</clustering>
</event>
<event>
10    4  0.2977685E-005  0.9395533E+02  0.7546771E-02  0.1298844E+00
         21   -1    0    0  501  502  0.00000000000E+00  0.00000000000E+00  0.92903922404E+02  0.92903922404E+02  0.00000000000E+00 0. -1.
          2   -1    0    0  503    0 -0.00000000000E+00 -0.00000000000E+00 -0.51958947055E+03  0.51958947055E+03  0.00000000000E+00 0. -1.
         24    2    1    2    0    0  0.31723091720E+02  0.44198190721E+01 -0.30407538852E+03  0.31694996027E+03  0.83483807201E+02 0.  0.
         23    2    1    2    0    0  0.22867069255E+02  0.36808515861E+02 -0.78878992179E+02  0.12901195560E+03  0.92436029684E+02 0.  0.
        -13    1    3    3    0    0  0.52893592515E+02 -0.19146396724E+02 -0.22078926956E+03  0.22784252936E+03  0.00000000000E+00 0.  1.
         14    1    3    3    0    0 -0.21170500795E+02  0.23566215796E+02 -0.83286118963E+02  0.89107430907E+02  0.00000000000E+00 0. -1.
        -11    1    4    4    0    0  0.17502132214E+02 -0.28932124627E+02 -0.14336031130E+02  0.36727568066E+02  0.00000000000E+00 0.  1.
         11    1    4    4    0    0  0.53649370414E+01  0.65740640488E+02 -0.64542961048E+02  0.92284387532E+02  0.00000000000E+00 0. -1.
         21    1    1    2  503  502 -0.40013096795E+02 -0.19846149864E+02 -0.97287668695E+02  0.10705049304E+03  0.00000000000E+00 0.  1.
          1    1    1    2  501    0 -0.14577064180E+02 -0.21382185069E+02  0.53556501242E+02  0.59480984051E+02  0.00000000000E+00 0. -1.
<scales pt_clust_5="13000.00000" pt_clust_6="13000.00000" pt_clust_7="13000.00000" pt_clust_8="13000.00000" pt_clust_9="47.72145" pt_clust_10="25.87834"></scales>
<clustering>
<clus scale="   25.878">  1 10  2 -1</clus>
<clus scale="   47.721">  2  9  1 -1</clus>
<clus scale="   83.484">  5  6 -1 -1</clus>
<clus scale="   85.163">  2  5  1 -1</clus>
<clus scale="   92.436">  7  8 -1 -1</clus>
<clus scale="   25.878">  1  5  2 -1</clus>
</clustering>
</event>
<event>
10    4  0.2977685E-005  0.1031334E+03  0.7546771E-02  0.1278661E+00
          2   -1    0    0  503    0 -0.00000000000E+00  0.00000000000E+00  0.49127580922E+03  0.49127580922E+03  0.00000000000E+00 0. -1.
         21   -1    0    0  501  502  0.00000000000E+00 -0.00000000000E+00 -0.55173220490E+03  0.55173220490E+03  0.00000000000E+00 0. -1.
         24    2    1    2    0    0  0.52497144311E+02 -0.81345588696E+02  0.13334872831E+03  0.18218575433E+03  0.77696272611E+02 0.  0.
         23    2    1    2    0    0 -0.44346337935E+02 -0.18035803397E+01 -0.38099392395E+02  0.10606929108E+03  0.88483219985E+02 0.  0.
        -11    1    3    3    0    0  0.26852963732E+02  0.49861999326E+01  0.92173564373E+01  0.28825396973E+02  0.00000000000E+00 0.  1.
         12    1    3    3    0    0  0.25644180578E+02 -0.86331788629E+02  0.12413137188E+03  0.15336035736E+03  0.00000000000E+00 0. -1.
        -13    1    4    4    0    0 -0.85030811536E+01 -0.37193387568E+02 -0.40501158520E+02  0.55641659836E+02  0.00000000000E+00 0. -1.
         13    1    4    4    0    0 -0.35843256781E+02  0.35389807228E+02  0.24017661242E+01  0.50427631244E+02  0.00000000000E+00 0.  1.
         21    1    1    2  503  502 -0.53308538787E+02  0.23743943093E+02  0.29357429382E+03  0.29931829402E+03  0.00000000000E+00 0. -1.
          1    1    1    2  501    0  0.45157732411E+02  0.59405225942E+02 -0.44928002542E+03  0.45543467469E+03  0.00000000000E+00 0. -1.
<scales pt_clust_5="13000.00000" pt_clust_6="13000.00000" pt_clust_7="13000.00000" pt_clust_8="13000.00000" pt_clust_9="58.35731" pt_clust_10="74.41480"></scales>
<clustering>
<clus scale="   58.357">  1  9  2 -1</clus>
<clus scale="   74.415">  2 10  1 -1</clus>
<clus scale="   77.696">  5  6 -1 -1</clus>
<clus scale="   88.483">  7  8 -1 -1</clus>
<clus scale="   94.042">  1  5  2 -1</clus>
<clus scale="   74.415">  2  5  1 -1</clus>
</clustering>
</event>
<event>
10    4  0.2977685E-005  0.2957278E+03  0.7546771E-02  0.1107728E+00
         21   -1    0    0  501  502  0.00000000000E+00  0.00000000000E+00  0.81819626992E+02  0.81819626992E+02  0.00000000000E+00 0. -1.
          2   -1    0    0  503    0 -0.00000000000E+00 -0.00000000000E+00 -0.20528984713E+04  0.20528984713E+04  0.00000000000E+00 0. -1.
         23    2    1    2    0    0 -0.10041633128E+03  0.12051699784E+03 -0.43927891198E+03  0.47515602949E+03  0.90551109828E+02 0.  0.
         24    2    1    2    0    0  0.14252224261E+03 -0.31034222537E+03 -0.62864316986E+03  0.72006000885E+03  0.81665750770E+02 0.  0.
        -11    1    4    4    0    0  0.68723896021E+02 -0.65887894584E+02 -0.18954071323E+03  0.21210815757E+03  0.00000000000E+00 0.  1.
         12    1    4    4    0    0  0.73798346591E+02 -0.24445433078E+03 -0.43910245663E+03  0.50795185128E+03  0.00000000000E+00 0. -1.
        -13    1    3    3    0    0 -0.11402555143E+01  0.66454164921E+02 -0.19431736855E+03  0.20536965681E+03  0.00000000000E+00 0.  1.
         13    1    3    3    0    0 -0.99276075763E+02  0.54062832919E+02 -0.24496154343E+03  0.26978637267E+03  0.00000000000E+00 0. -1.
         21    1    1    2  503  502  0.38185096461E+02 -0.13249207534E+02 -0.14068385397E+03  0.14637482659E+03  0.00000000000E+00 0. -1.
          1    1    1    2  501    0 -0.80291007796E+02  0.20307443506E+03 -0.76247290847E+03  0.79312723333E+03  0.00000000000E+00 0. -1.
<scales pt_clust_5="13000.00000" pt_clust_6="13000.00000" pt_clust_7="13000.00000" pt_clust_8="13000.00000" pt_clust_9="40.41835" pt_clust_10="284.22832"></scales>
<clustering>
<clus scale="   40.418">  2  9  1 -1</clus>
<clus scale="   81.666">  5  6 -1 -1</clus>
<clus scale="   90.551">  7  8 -1 -1</clus>
<clus scale="  174.069">  2  7  1 -1</clus>
<clus scale="  284.228">  1 10  2 -1</clus>
<clus scale="  284.228">  1  5  2 -1</clus>
</clustering>
</event>
<event>
10    4  0.2977685E-005  0.1403110E+03  0.7546771E-02  0.1230459E+00
         -3   -1    0    0    0  501 -0.00000000000E+00  0.00000000000E+00  0.74826677846E+03  0.74826677846E+03  0.00000000000E+00 0.  1.
         21   -1    0    0  503  502  0.00000000000E+00 -0.00000000000E+00 -0.15559440542E+03  0.15559440542E+03  0.00000000000E+00 0. -1.
         23    2    1    2    0    0  0.21387057931E+02 -0.82897718341E+02  0.40786790667E+03  0.42723245114E+03  0.94031378061E+02 0.  0.
         24    2    1    2    0    0  0.11281331503E+02 -0.66340221376E+02 -0.94419145207E+02  0.14245036273E+03  0.82757703248E+02 0.  0.
        -13    1    4    4    0    0 -0.20572581465E+02  0.10672965306E+02 -0.17536797982E+02  0.29063423405E+02  0.00000000000E+00 0.  1.
         14    1    4    4    0    0  0.31853912968E+02 -0.77013186682E+02 -0.76882347225E+02  0.11338693932E+03  0.00000000000E+00 0. -1.
        -11    1    3    3    0    0  0.20347556745E+02  0.48245697318E+01  0.17924707011E+02  0.27542597191E+02  0.00000000000E+00 0.  1.
         11    1    3    3    0    0  0.10395011867E+01 -0.87722288073E+02  0.38994319966E+03  0.39968985395E+03  0.00000000000E+00 0. -1.
         21    1    1    2  503  501 -0.23108829946E+02  0.13050364874E+03  0.28328739585E+03  0.31275704469E+03  0.00000000000E+00 0.  1.
         -4    1    1    2    0  502 -0.95595594885E+01  0.18734290979E+02 -0.40637842773E+01  0.21421325327E+02  0.00000000000E+00 0.  1.
<scales pt_clust_5="13000.00000" pt_clust_6="13000.00000" pt_clust_7="13000.00000" pt_clust_8="13000.00000" pt_clust_9="104.14063" pt_clust_10="21.03233"></scales>
<clustering>
<clus scale="   21.032">  2 10  1 -1</clus>
<clus scale="   82.758">  5  6 -1 -1</clus>
<clus scale="   94.031">  7  8 -1 -1</clus>
<clus scale="   97.168">  2  5  1 -1</clus>
<clus scale="  104.141">  2  9  1 -1</clus>
<clus scale="   21.032">  2  5  1 -1</clus>
</clustering>
</event>
<event>
10    4  0.2977685E-005  0.1721383E+03  0.7546771E-02  0.1176998E+00
          2   -1    0    0  503    0 -0.00000000000E+00  0.00000000000E+00  0.13327382715E+04  0.13327382715E+04  0.00000000000E+00 0. -1.
         21   -1    0    0  501  502  0.00000000000E+00 -0.00000000000E+00 -0.53295679843E+02  0.53295679843E+02  0.00000000000E+00 0.  1.
         23    2    1    2    0    0  0.11274860566E+03 -0.79140372196E+01  0.47202854153E+03  0.49385023897E+03  0.91116598081E+02 0.  0.
         24    2    1    2    0    0 -0.18077869093E+03  0.32139190060E+02  0.48869462271E+03  0.52826822754E+03  0.80814746992E+02 0.  0.
        -13    1    4    4    0    0 -0.12718223005E+03  0.41847671713E+02  0.25170684064E+03  0.28510152734E+03  0.00000000000E+00 0.  1.
         14    1    4    4    0    0 -0.53596460884E+02 -0.97084816527E+01  0.23698778207E+03  0.24316670020E+03  0.00000000000E+00 0. -1.
        -13    1    3    3    0    0  0.99379881911E+02  0.29909625667E+02  0.36800229673E+03  0.38235668823E+03  0.00000000000E+00 0. -1.
         13    1    3    3    0    0  0.13368723753E+02 -0.37823662886E+02  0.10402624480E+03  0.11149355074E+03  0.00000000000E+00 0.  1.
         21    1    1    2  503  502  0.31994117893E+02 -0.41561343521E+02  0.31964105376E+03  0.32391568673E+03  0.00000000000E+00 0.  1.
          1    1    1    2  501    0  0.36035967379E+02  0.17336190680E+02 -0.92162636261E+00  0.39999798092E+02  0.00000000000E+00 0. -1.
<scales pt_clust_5="13000.00000" pt_clust_6="13000.00000" pt_clust_7="13000.00000" pt_clust_8="13000.00000" pt_clust_9="53.04752" pt_clust_10="39.98918"></scales>
<clustering>
<clus scale="   39.989">  2 10  1 -1</clus>
<clus scale="   53.048">  1  9  2 -1</clus>
<clus scale="   80.815">  5  6 -1 -1</clus>
<clus scale="   91.117">  7  8 -1 -1</clus>
<clus scale="  166.914">  2  5  1 -1</clus>
<clus scale="   39.989">  2  5  1 -1</clus>
</clustering>
</event>
<event>
10    4  0.2977685E-005  0.1018520E+03  0.7546771E-02  0.1281338E+00
         21   -1    0    0  501  502  0.00000000000E+00  0.00000000000E+00  0.19738228197E+03  0.19738228197E+03  0.00000000000E+00 0.  1.
          4   -1    0    0  503    0 -0.00000000000E+00 -0.00000000000E+00 -0.26336771311E+03  0.26336771311E+03  0.00000000000E+00 0. -1.
         24    2    1    2    0    0  0.88373661445E+01  0.45499046400E+02 -0.17812031302E+03  0.20086847867E+03  0.80455189710E+02 0.  0.
         23    2    1    2    0    0 -0.14763416049E+02 -0.43327985462E+02  0.14052527826E+03  0.17343566768E+03  0.90759595726E+02 0.  0.
        -13    1    3    3    0    0 -0.23881178333E+01  0.49880825533E+02 -0.45055643920E+02  0.67259281231E+02  0.00000000000E+00 0.  1.
         14    1    3    3    0    0  0.11225483978E+02 -0.43817791338E+01 -0.13306466910E+03  0.13360919744E+03  0.00000000000E+00 0. -1.
        -13    1    4    4    0    0 -0.35691716114E+02 -0.53871469893E+01  0.12033558359E+03  0.12563268934E+03  0.00000000000E+00 0.  1.
         13    1    4    4    0    0  0.20928300065E+02 -0.37940838473E+02  0.20189694667E+02  0.47802978342E+02  0.00000000000E+00 0. -1.
         21    1    1    2  503  502 -0.24223592184E+02 -0.25004415091E+00 -0.45630361880E+02  0.51662122156E+02  0.00000000000E+00 0. -1.
          3    1    1    2  501    0  0.30149642088E+02 -0.19210167864E+01  0.17239965507E+02  0.34783726571E+02  0.00000000000E+00 0. -1.
<scales pt_clust_5="13000.00000" pt_clust_6="13000.00000" pt_clust_7="13000.00000" pt_clust_8="13000.00000" pt_clust_9="24.22488" pt_clust_10="29.22393"></scales>
<clustering>
<clus scale="   24.225">  2  9  1 -1</clus>
<clus scale="   29.224">  1 10  2 -1</clus>
<clus scale="   80.455">  5  6 -1 -1</clus>
<clus scale="   90.760">  7  8 -1 -1</clus>
<clus scale="   92.788">  2  5  1 -1</clus>
<clus scale="   29.224">  1  5  2 -1</clus>
</clustering>
</event>
<event>
10    4  0.2977685E-005  0.1041314E+03  0.7546771E-02  0.1273631E+00
          4   -1    0    0  503    0 -0.00000000000E+00  0.00000000000E+00  0.18143083180E+03  0.18143083180E+03  0.00000000000E+00 0. -1.
         21   -1    0    0  501  502  0.00000000000E+00 -0.00000000000E+00 -0.14698430091E+03  0.14698430091E+03  0.00000000000E+00 0.  1.
         23    2    1    2    0    0  0.26864112780E+02  0.15610604155E+02  0.33110576285E+02  0.10194381636E+03  0.91273544441E+02 0.  0.
         24    2    1    2    0    0 -0.67244278132E+02 -0.56441631773E+02 -0.36848735427E+02  0.12912665920E+03  0.87226223548E+02 0.  0.
        -11    1    4    4    0    0 -0.11175270148E+02 -0.61696971121E+02 -0.37015318552E+02  0.72811652336E+02  0.00000000000E+00 0.  1.
         12    1    4    4    0    0 -0.56069007984E+02  0.52553393482E+01  0.16658312539E+00  0.56315006862E+02  0.00000000000E+00 0. -1.
        -11    1    3    3    0    0 -0.12062901458E+02 -0.32097879646E+02  0.17124699090E+02  0.38328093982E+02  0.00000000000E+00 0.  1.
         11    1    3    3    0    0  0.38927014238E+02  0.47708483801E+02  0.15985877195E+02  0.63615722379E+02  0.00000000000E+00 0. -1.
         21    1    1    2  503  502  0.18453310349E+02 -0.18572270352E+02  0.12512152637E+02  0.29017371564E+02  0.00000000000E+00 0. -1.
          3    1    1    2  501    0  0.21926855004E+02  0.59403297970E+02  0.25672537391E+02  0.68327285590E+02  0.00000000000E+00 0. -1.
<scales pt_clust_5="13000.00000" pt_clust_6="13000.00000" pt_clust_7="13000.00000" pt_clust_8="13000.00000" pt_clust_9="26.18117" pt_clust_10="60.49344"></scales>
<clustering>
<clus scale="   26.181">  1  9  2 -1</clus>
<clus scale="   60.493">  2 10  1 -1</clus>
<clus scale="   87.226">  5  6 -1 -1</clus>
<clus scale="   91.274">  7  8 -1 -1</clus>
<clus scale="  100.603">  2  5  1 -1</clus>
<clus scale="   60.493">  2  5  1 -1</clus>
</clustering>
</event>
<event>
10    4  0.2977685E-005  0.1287284E+03  0.7546771E-02  0.1249142E+00
          2   -1    0    0  503    0 -0.00000000000E+00  0.00000000000E+00  0.66856417435E+03  0.66856417435E+03  0.00000000000E+00 0. -1.
         21   -1    0    0  501  502  0.00000000000E+00 -0.00000000000E+00 -0.95070969784E+02  0.95070969784E+02  0.00000000000E+00 0.  1.
         24    2    1    2    0    0  0.22119652492E+01  0.22634398015E+02  0.14420187356E+02  0.87281968766E+02  0.83024041726E+02 0.  0.
         23    2    1    2    0    0  0.40549470423E+02  0.64646072940E+02  0.77487211137E+02  0.14114216634E+03  0.89963708964E+02 0.  0.
        -11    1    3    3    0    0 -0.31925589793E+02  0.33027368779E+02 -0.57462330797E+01  0.46293299372E+02  0.00000000000E+00 0.  1.
         12    1    3    3    0    0  0.34137555042E+02 -0.10392970763E+02  0.20166420436E+02  0.40988669395E+02  0.00000000000E+00 0. -1.
        -11    1    4    4    0    0  0.29055562108E+02 -0.16541665778E+02  0.98686506258E+01  0.34860330768E+02  0.00000000000E+00 0. -1.
         11    1    4    4    0    0  0.11493908315E+02  0.81187738717E+02  0.67618560511E+02  0.10628183557E+03  0.00000000000E+00 0.  1.
         21    1    1    2  503  502  0.53019865822E+02 -0.11767648492E+03  0.31841124818E+03  0.34357616950E+03  0.00000000000E+00 0. -1.
          1    1    1    2  501    0 -0.95781301495E+02  0.30396013968E+02  0.16317455789E+03  0.19163483954E+03  0.00000000000E+00 0. -1.
<scales pt_clust_5="13000.00000" pt_clust_6="13000.00000" pt_clust_7="13000.00000" pt_clust_8="13000.00000" pt_clust_9="92.07348" pt_clust_10="102.04965"></scales>
<clustering>
<clus scale="   83.024">  5  6 -1 -1</clus>
<clus scale="   86.083">  1  5  2 -1</clus>
<clus scale="   89.964">  7  8 -1 -1</clus>
<clus scale="  102.050">  2 10  1 -1</clus>
<clus scale="   92.073">  1  9  2 -1</clus>
<clus scale="  102.050">  2  5  1 -1</clus>
</clustering>
</event>
<event>
10    4  0.2977685E-005  0.9447442E+02  0.7546771E-02  0.1298775E+00
          2   -1    0    0  503    0 -0.00000000000E+00  0.00000000000E+00  0.14005680445E+04  0.14005680445E+04  0.00000000000E+00 0. -1.
         21   -1    0    0  501  502  0.00000000000E+00 -0.00000000000E+00 -0.18823277998E+02  0.18823277998E+02  0.00000000000E+00 0. -1.
         24    2    1    2    0    0  0.61152486583E+01  0.17198303122E+02  0.23781013551E+03  0.25135271248E+03  0.79318015748E+02 0.  0.
         23    2    1    2    0    0  0.22041368051E+02 -0.39679730734E+02  0.30291399112E+03  0.31937324445E+03  0.90454852395E+02 0.  0.
        -11    1    3    3    0    0  0.68219667546E+01  0.21601179189E+02  0.12258422033E+02  0.25756923020E+02  0.00000000000E+00 0.  1.
         12    1    3    3    0    0 -0.70671809625E+00 -0.44028760665E+01  0.22555171348E+03  0.22559578946E+03  0.00000000000E+00 0. -1.
        -11    1    4    4    0    0 -0.30396392288E+02 -0.51620153837E+01  0.16482122484E+03  0.16768012174E+03  0.00000000000E+00 0.  1.
         11    1    4    4    0    0  0.52437760339E+02 -0.34517715350E+02  0.13809276627E+03  0.15169312272E+03  0.00000000000E+00 0. -1.
         21    1    1    2  503  502  0.22138935637E+02 -0.31740899668E+02  0.23787886481E+03  0.24100616487E+03  0.00000000000E+00 0. -1.
          1    1    1    2  501    0 -0.50295552345E+02  0.54222327279E+02  0.60314177503E+03  0.60765920066E+03  0.00000000000E+00 0. -1.
<scales pt_clust_5="13000.00000" pt_clust_6="13000.00000" pt_clust_7="13000.00000" pt_clust_8="13000.00000" pt_clust_9="38.69906" pt_clust_10="54.04635"></scales>
<clustering>
<clus scale="   38.699">  1  9  2 -1</clus>
<clus scale="   54.046">  2 10  1 -1</clus>
<clus scale="   79.318">  5  6 -1 -1</clus>
<clus scale="   83.873">  1  5  2 -1</clus>
<clus scale="   90.455">  7  8 -1 -1</clus>
<clus scale="   54.046">  2  5  1 -1</clus>
</clustering>
</event>
<event>
10    4  0.2977685E-005  0.1864139E+03  0.7546771E-02  0.1163280E+00
         21   -1    0    0  501  502  0.00000000000E+00  0.00000000000E+00  0.69429947698E+03  0.69429947698E+03  0.00000000000E+00 0. -1.
          2   -1    0    0  503    0 -0.00000000000E+00 -0.00000000000E+00 -0.13838708307E+03  0.13838708307E+03  0.00000000000E+00 0. -1.
         23    2    1    2    0    0 -0.14605199788E+03 -0.25680279002E+02  0.86341156039E+02  0.19464123865E+03  0.91868132351E+02 0.  0.
         24    2    1    2    0    0  0.15138253631E+03 -0.36691716379E+02  0.42524145974E+03  0.45949283426E+03  0.77720083038E+02 0.  0.
        -11    1    4    4    0    0  0.28586330394E+02  0.15307568808E+02  0.38116093686E+02  0.50043346671E+02  0.00000000000E+00 0.  1.
         12    1    4    4    0    0  0.12279620592E+03 -0.51999285187E+02  0.38712536605E+03  0.40944948759E+03  0.00000000000E+00 0. -1.
        -11    1    3    3    0    0 -0.15047521984E+01 -0.29765338878E+02  0.13300870559E+02  0.32636679294E+02  0.00000000000E+00 0.  1.
         11    1    3    3    0    0 -0.14454724568E+03  0.40850598753E+01  0.73040285480E+02  0.16200455936E+03  0.00000000000E+00 0. -1.
         21    1    1    2  503  502 -0.36911481403E+02 -0.27989598358E+00 -0.49277694414E+02  0.61569691959E+02  0.00000000000E+00 0.  1.
          1    1    1    2  501    0  0.31580942976E+02  0.62651891365E+02  0.93607472548E+02  0.11698279518E+03  0.00000000000E+00 0. -1.
<scales pt_clust_5="13000.00000" pt_clust_6="13000.00000" pt_clust_7="13000.00000" pt_clust_8="13000.00000" pt_clust_9="36.91254" pt_clust_10="67.94317"></scales>
<clustering>
<clus scale="   36.913">  2  9  1 -1</clus>
<clus scale="   67.943">  1 10  2 -1</clus>
<clus scale="   77.720">  5  6 -1 -1</clus>
<clus scale="   91.868">  7  8 -1 -1</clus>
<clus scale="  179.863">  1  5  2 -1</clus>
<clus scale="   67.943">  1  5  2 -1</clus>
</clustering>
</event>
<event>
10    4  0.2977685E-005  0.2051932E+03  0.7546771E-02  0.1146460E+00
         -3   -1    0    0    0  501 -0.00000000000E+00  0.00000000000E+00  0.33603979097E+03  0.33603979097E+03  0.00000000000E+00 0.  1.
         21   -1    0    0  503  502  0.00000000000E+00 -0.00000000000E+00 -0.88966371619E+03  0.88966371619E+03  0.00000000000E+00 0.  1.
         23    2    1    2    0    0 -0.14961335100E+03 -0.10689298092E+02  0.95563430718E+02  0.20076271235E+03  0.93139043836E+02 0.  0.
         24    2    1    2    0    0  0.23685675153E+03  0.87499669835E+02 -0.15604132377E+03  0.30783168418E+03  0.81572900507E+02 0.  0.
        -11    1    4    4    0    0  0.18954605061E+03  0.44149007582E+02 -0.14505434893E+03  0.24272948794E+03  0.00000000000E+00 0.  1.
         12    1    4    4    0    0  0.47310700922E+02  0.43350662253E+02 -0.10986974835E+02  0.65102196242E+02  0.00000000000E+00 0. -1.
        -13    1    3    3    0    0 -0.10698723273E+03  0.15240807475E+02  0.19525656467E+02  0.10981712726E+03  0.00000000000E+00 0.  1.
         13    1    3    3    0    0 -0.42626118275E+02 -0.25930105567E+02  0.76037774252E+02  0.90945585089E+02  0.00000000000E+00 0. -1.
         21    1    1    2  503  501  0.40993361647E+01 -0.88581307068E+02  0.90228546221E+02  0.12650945843E+03  0.00000000000E+00 0.  1.
         -4    1    1    2    0  502 -0.91342736694E+02  0.11770935325E+02 -0.58337457839E+03  0.59059965220E+03  0.00000000000E+00 0.  1.
<scales pt_clust_5="13000.00000" pt_clust_6="13000.00000" pt_clust_7="13000.00000" pt_clust_8="13000.00000" pt_clust_9="88.67611" pt_clust_10="91.86435"></scales>
<clustering>
<clus scale="   81.573">  5  6 -1 -1</clus>
<clus scale="   88.676">  1  9  2 -1</clus>
<clus scale="   91.864">  2 10  1 -1</clus>
<clus scale="   93.139">  7  8 -1 -1</clus>
<clus scale="  200.209">  2  5  1 -1</clus>
<clus scale="   91.864">  2  5  1 -1</clus>
</clustering>
</event>
<event>
10    4  0.2977685E-005  0.2000370E+03  0.7546771E-02  0.1180428E+00
          2   -1    0    0  503    0 -0.00000000000E+00  0.00000000000E+00  0.16985737017E+03  0.16985737017E+03  0.00000000000E+00 0. -1.
         21   -1    0    0  501  502  0.00000000000E+00 -0.00000000000E+00 -0.80153589640E+03  0.80153589640E+03  0.00000000000E+00 0. -1.
         24    2    1    2    0    0 -0.59606114622E+01 -0.54911963466E+02 -0.84456297269E+02  0.13105591554E+03  0.83617786561E+02 0.  0.
         23    2    1    2    0    0 -0.14912765379E+03 -0.94187441645E+02 -0.57064783185E+03  0.60360912454E+03  0.87147552714E+02 0.  0.
        -11    1    3    3    0    0  0.26460584512E+02  0.93291513829E+01 -0.27466385754E+02  0.39263188161E+02  0.00000000000E+00 0.  1.
         12    1    3    3    0    0 -0.32421195974E+02 -0.64241114849E+02 -0.56989911515E+02  0.91792727380E+02  0.00000000000E+00 0. -1.
        -11    1    4    4    0    0 -0.50124881939E+02 -0.27281402227E+02 -0.33033625580E+03  0.33522950436E+03  0.00000000000E+00 0. -1.
         11    1    4    4    0    0 -0.99002771853E+02 -0.66906039418E+02 -0.24031157606E+03  0.26837962019E+03  0.00000000000E+00 0.  1.
         21    1    1    2  503  502 -0.26264825380E+01  0.20069748120E+02  0.25988985825E+02  0.32941168533E+02  0.00000000000E+00 0. -1.
          1    1    1    2  501    0  0.15771474779E+03  0.12902965699E+03 -0.25633829361E+01  0.20378705795E+03  0.00000000000E+00 0. -1.
<scales pt_clust_5="13000.00000" pt_clust_6="13000.00000" pt_clust_7="13000.00000" pt_clust_8="13000.00000" pt_clust_9="20.24088" pt_clust_10="180.05595"></scales>
<clustering>
<clus scale="   20.241">  1  9  2 -1</clus>
<clus scale="   83.618">  5  6 -1 -1</clus>
<clus scale="   87.148">  7  8 -1 -1</clus>
<clus scale="   98.455">  1  5  2 -1</clus>
<clus scale="  180.056">  2 10  1 -1</clus>
<clus scale="  180.056">  2  5  1 -1</clus>
</clustering>
</event>
<event>
10    4  0.2977685E-005  0.9808898E+02  0.7546771E-02  0.1290146E+00
         21   -1    0    0  503  502  0.00000000000E+00  0.00000000000E+00  0.56730940467E+02  0.56730940467E+02  0.00000000000E+00 0. -1.
         -1   -1    0    0    0  501 -0.00000000000E+00 -0.00000000000E+00 -0.89728759461E+03  0.89728759461E+03  0.00000000000E+00 0.  1.
         24    2    1    2    0    0 -0.39561610311E+02  0.32532313017E+00 -0.68456946188E+03  0.69025617404E+03  0.79075981244E+02 0.  0.
         23    2    1    2    0    0  0.23888279239E+02 -0.48371532858E+02 -0.45286264322E+02  0.11443180343E+03  0.90185014414E+02 0.  0.
        -13    1    3    3    0    0 -0.87066934610E+01 -0.35984904695E+02 -0.20419314110E+03  0.20752242951E+03  0.00000000000E+00 0.  1.
         14    1    3    3    0    0 -0.30854916850E+02  0.36310227825E+02 -0.48037632078E+03  0.48273374453E+03  0.00000000000E+00 0. -1.
        -11    1    4    4    0    0 -0.20758839164E+02  0.68845962400E+01  0.10352597466E+02  0.24197176346E+02  0.00000000000E+00 0. -1.
         11    1    4    4    0    0  0.44647118404E+02 -0.55256129098E+02 -0.55638861787E+02  0.90234627087E+02  0.00000000000E+00 0.  1.
         21    1    1    2  503  501  0.35842086614E+02  0.47839918924E+02 -0.11416257779E+03  0.12886584956E+03  0.00000000000E+00 0. -1.
         -2    1    1    2    0  502 -0.20168755543E+02  0.20629080376E+00  0.34616498436E+01  0.20464708052E+02  0.00000000000E+00 0.  1.
<scales pt_clust_5="13000.00000" pt_clust_6="13000.00000" pt_clust_7="13000.00000" pt_clust_8="13000.00000" pt_clust_9="57.88008" pt_clust_10="20.16981"></scales>
<clustering>
<clus scale="   20.170">  1 10  2 -1</clus>
<clus scale="   57.880">  1  9  2 -1</clus>
<clus scale="   79.076">  5  6 -1 -1</clus>
<clus scale="   87.984">  2  5  1 -1</clus>
<clus scale="   90.185">  7  8 -1 -1</clus>
<clus scale="   20.170">  1  5  2 -1</clus>
</clustering>
</event>
<event>
10    4  0.2977685E-005  0.1639876E+03  0.7546771E-02  0.1201136E+00
          2   -1    0    0  503    0 -0.00000000000E+00  0.00000000000E+00  0.18241876205E+04  0.18241876205E+04  0.00000000000E+00 0. -1.
         21   -1    0    0  501  502  0.00000000000E+00 -0.00000000000E+00 -0.52014362140E+02  0.52014362140E+02  0.00000000000E+00 0. -1.
         23    2    1    2    0    0 -0.32298315221E+02 -0.56532964724E+02  0.78947218757E+02  0.13743935953E+03  0.91748334760E+02 0.  0.
         24    2    1    2    0    0 -0.76793091590E+01 -0.11012329471E+03  0.70422889620E+03  0.71717084645E+03  0.78800843484E+02 0.  0.
        -13    1    4    4    0    0 -0.40043424768E+02 -0.33511537977E+02  0.29298980582E+03  0.29760632614E+03  0.00000000000E+00 0.  1.
         14    1    4    4    0    0  0.32364115609E+02 -0.76611756736E+02  0.41123909038E+03  0.41956452031E+03  0.00000000000E+00 0. -1.
        -11    1    3    3    0    0 -0.41116350371E+02 -0.88219083731E+01 -0.30501063553E+01  0.42162583934E+02  0.00000000000E+00 0. -1.
         11    1    3    3    0    0  0.88180351497E+01 -0.47711056351E+02  0.81997325112E+02  0.95276775594E+02  0.00000000000E+00 0.  1.
         21    1    1    2  503  502 -0.57290302998E+02  0.18742845758E+02  0.45594139500E+03  0.45990871786E+03  0.00000000000E+00 0.  1.
          1    1    1    2  501    0  0.97267927378E+02  0.14791341368E+03  0.53305574843E+03  0.56168305883E+03  0.00000000000E+00 0. -1.
<scales pt_clust_5="13000.00000" pt_clust_6="13000.00000" pt_clust_7="13000.00000" pt_clust_8="13000.00000" pt_clust_9="60.27830" pt_clust_10="143.81361"></scales>
<clustering>
<clus scale="   60.278">  1  9  2 -1</clus>
<clus scale="   78.801">  5  6 -1 -1</clus>
<clus scale="   91.748">  7  8 -1 -1</clus>
<clus scale="  113.159">  1  7  2 -1</clus>
<clus scale="  143.814">  2 10  1 -1</clus>
<clus scale="  143.814">  2  5  1 -1</clus>
</clustering>
</event>
<event>
10    4  0.2977685E-005  0.1759871E+03  0.7546771E-02  0.1172063E+00
         -3   -1    0    0    0  501 -0.00000000000E+00  0.00000000000E+00  0.54814673776E+03  0.54814673776E+03  0.00000000000E+00 0.  1.
         21   -1    0    0  503  502  0.00000000000E+00 -0.00000000000E+00 -0.15572769211E+03  0.15572769211E+03  0.00000000000E+00 0.  1.
         23    2    1    2    0    0 -0.16259775760E+03 -0.22722393493E+01  0.19282982421E+03  0.26578903960E+03  0.83769198508E+02 0.  0.
         24    2    1    2    0    0  0.11908531291E+03  0.95302776752E+02  0.71373262339E+02  0.18926906813E+03  0.86398533364E+02 0.  0.
        -13    1    4    4    0    0 -0.18437036477E+01  0.30994535419E+02  0.36528048677E+02  0.47941201582E+02  0.00000000000E+00 0.  1.
         14    1    4    4    0    0  0.12092901655E+03  0.64308241333E+02  0.34845213662E+02  0.14132786655E+03  0.00000000000E+00 0. -1.
        -11    1    3    3    0    0 -0.80361688080E+02 -0.66737838691E+01  0.15592892023E+03  0.17554591555E+03  0.00000000000E+00 0. -1.
         11    1    3    3    0    0 -0.82236069516E+02  0.44015445198E+01  0.36900903983E+02  0.90243124050E+02  0.00000000000E+00 0.  1.
         21    1    1    2  503  501 -0.22730266672E+02  0.18831279494E+02  0.11432239549E+03  0.11807155551E+03  0.00000000000E+00 0. -1.
         -4    1    1    2    0  502  0.66242711362E+02 -0.11186181690E+03  0.13893563603E+02  0.13074476662E+03  0.00000000000E+00 0.  1.
<scales pt_clust_5="13000.00000" pt_clust_6="13000.00000" pt_clust_7="13000.00000" pt_clust_8="13000.00000" pt_clust_9="29.51749" pt_clust_10="125.36361"></scales>
<clustering>
<clus scale="   29.517">  1  9  2 -1</clus>
<clus scale="   83.769">  7  8 -1 -1</clus>
<clus scale="   86.399">  5  6 -1 -1</clus>
<clus scale="  125.364">  2 10  1 -1</clus>
<clus scale="  174.711">  1  7  2 -1</clus>
<clus scale="  125.364">  2  5  1 -1</clus>
</clustering>
</event>
<event>
10    4  0.2977685E-005  0.1237384E+03  0.7546771E-02  0.1239799E+00
          2   -1    0    0  503    0 -0.00000000000E+00  0.00000000000E+00  0.10313959216E+04  0.10313959216E+04  0.00000000000E+00 0. -1.
         21   -1    0    0  501  502  0.00000000000E+00 -0.00000000000E+00 -0.35627836207E+02  0.35627836207E+02  0.00000000000E+00 0.  1.
         24    2    1    2    0    0  0.68015302275E+02  0.49417623635E+02  0.60961557780E+03  0.62077349663E+03  0.81611264876E+02 0.  0.
         23    2    1    2    0    0 -0.71605708984E+02 -0.54471396465E+02  0.16709223397E+03  0.21046196193E+03  0.90994022743E+02 0.  0.
        -13    1    3    3    0    0  0.41320522413E+02  0.71267566641E+02  0.44905858087E+03  0.45655236357E+03  0.00000000000E+00 0.  1.
         14    1    3    3    0    0  0.26694779862E+02 -0.21849943006E+02  0.16055699694E+03  0.16422113307E+03  0.00000000000E+00 0. -1.
        -11    1    4    4    0    0 -0.24891344754E+02 -0.11839189313E+02 -0.41869438723E+01  0.27879669048E+02  0.00000000000E+00 0.  1.
         11    1    4    4    0    0 -0.46714364230E+02 -0.42632207153E+02  0.17127917784E+03  0.18258229288E+03  0.00000000000E+00 0. -1.
         21    1    1    2  503  502 -0.24203131824E+02  0.22281750200E+02  0.18742474693E+03  0.19029005161E+03  0.00000000000E+00 0.  1.
          1    1    1    2  501    0  0.27793538533E+02 -0.17227977370E+02  0.31635526703E+02  0.45498247639E+02  0.00000000000E+00 0. -1.
<scales pt_clust_5="13000.00000" pt_clust_6="13000.00000" pt_clust_7="13000.00000" pt_clust_8="13000.00000" pt_clust_9="31.29596" pt_clust_10="32.69991"></scales>
<clustering>
<clus scale="   32.700">  2 10  1 -1</clus>
<clus scale="   31.296">  1  9  2 -1</clus>
<clus scale="   81.611">  5  6 -1 -1</clus>
<clus scale="   90.994">  7  8 -1 -1</clus>
<clus scale="  117.011">  1  5  2 -1</clus>
<clus scale="   32.700">  2  5  1 -1</clus>
</clustering>
</event>
<event>
10    4  0.2977685E-005  0.2138715E+03  0.7546771E-02  0.1139012E+00
         21   -1    0    0  501  502  0.00000000000E+00  0.00000000000E+00  0.60453326301E+03  0.60453326301E+03  0.00000000000E+00 0. -1.
          2   -1    0    0  503    0 -0.00000000000E+00 -0.00000000000E+00 -0.14148696748E+03  0.14148696748E+03  0.00000000000E+00 0. -1.
         23    2    1    2    0    0  0.16314634052E+03  0.12748646609E+03  0.10581356909E+03  0.24842427703E+03  0.87456175053E+02 0.  0.
         24    2    1    2    0    0 -0.14800570028E+03 -0.10080257871E+03  0.35544822737E+03  0.40622610289E+03  0.81297952848E+02 0.  0.
        -13    1    4    4    0    0 -0.79724179195E+02 -0.35701608713E+02  0.94216732202E+02  0.12848090224E+03  0.00000000000E+00 0.  1.
         14    1    4    4    0    0 -0.68281521082E+02 -0.65100969993E+02  0.26123149517E+03  0.27774520065E+03  0.00000000000E+00 0. -1.
        -11    1    3    3    0    0  0.10030445162E+03  0.75802289528E+02  0.15200487511E+02  0.12664132396E+03  0.00000000000E+00 0. -1.
         11    1    3    3    0    0  0.62841888899E+02  0.51684176561E+02  0.90613081577E+02  0.12178295308E+03  0.00000000000E+00 0.  1.
         21    1    1    2  503  502 -0.30394463374E+02  0.23780942371E+02  0.20970342851E+01  0.38649116117E+02  0.00000000000E+00 0. -1.
          1    1    1    2  501    0  0.15253823131E+02 -0.50464829753E+02 -0.31253522109E+00  0.52720734445E+02  0.00000000000E+00 0. -1.
<scales pt_clust_5="13000.00000" pt_clust_6="13000.00000" pt_clust_7="13000.00000" pt_clust_8="13000.00000" pt_clust_9="38.59218" pt_clust_10="46.17626"></scales>
<clustering>
<clus scale="   38.592">  2  9  1 -1</clus>
<clus scale="   46.176">  1 10  2 -1</clus>
<clus scale="   81.298">  5  6 -1 -1</clus>
<clus scale="   87.456">  7  8 -1 -1</clus>
<clus scale="  211.428">  1  5  2 -1</clus>
<clus scale="   46.176">  1  5  2 -1</clus>
</clustering>
</event>
<event>
10    4  0.2977685E-005  0.9219683E+02  0.7546771E-02  0.1302903E+00
         21   -1    0    0  503  502  0.00000000000E+00  0.00000000000E+00  0.24371513944E+03  0.24371513944E+03  0.00000000000E+00 0.  1.
         -1   -1    0    0    0  501 -0.00000000000E+00 -0.00000000000E+00 -0.84070945513E+02  0.84070945513E+02  0.00000000000E+00 0.  1.
         23    2    1    2    0    0 -0.68450480864E+00  0.27061691967E+02  0.33949022422E+02  0.10020169677E+03  0.90305261165E+02 0.  0.
         24    2    1    2    0    0  0.17378486229E+02 -0.13638924047E+02  0.54874346482E+02  0.10074556959E+03  0.81550253572E+02 0.  0.
        -11    1    4    4    0    0  0.14488865671E+02  0.28678956558E+02  0.48020911121E+02  0.57779041897E+02  0.00000000000E+00 0.  1.
         12    1    4    4    0    0  0.28896205571E+01 -0.42317880605E+02  0.68534353614E+01  0.42966527694E+02  0.00000000000E+00 0. -1.
        -13    1    3    3    0    0 -0.33169701221E+02  0.43887316807E+02  0.85675608790E+01  0.55675207723E+02  0.00000000000E+00 0. -1.
         13    1    3    3    0    0  0.32485196412E+02 -0.16825624840E+02  0.25381461543E+02  0.44526489052E+02  0.00000000000E+00 0.  1.
         21    1    1    2  503  501 -0.13957739876E+02 -0.40901120339E+02 -0.74365610662E+01  0.43852281445E+02  0.00000000000E+00 0.  1.
         -2    1    1    2    0  502 -0.27362415438E+01  0.27478352419E+02  0.78257386093E+02  0.82986537146E+02  0.00000000000E+00 0.  1.
<scales pt_clust_5="13000.00000" pt_clust_6="13000.00000" pt_clust_7="13000.00000" pt_clust_8="13000.00000" pt_clust_9="40.43274" pt_clust_10="27.61425"></scales>
<clustering>
<clus scale="   27.614">  1 10  2 -1</clus>
<clus scale="   40.433">  2  9  1 -1</clus>
<clus scale="   81.550">  5  6 -1 -1</clus>
<clus scale="   83.640">  1  5  2 -1</clus>
<clus scale="   90.305">  7  8 -1 -1</clus>
<clus scale="   27.614">  1  5  2 -1</clus>
</clustering>
</event>
<event>
10    4  0.2977685E-005  0.2169897E+03  0.7546771E-02  0.1155510E+00
         21   -1    0    0  503  502  0.00000000000E+00  0.00000000000E+00  0.12711385185E+04  0.12711385185E+04  0.00000000000E+00 0.  1.
         -1   -1    0    0    0  501 -0.00000000000E+00 -0.00000000000E+00 -0.30411189321E+03  0.30411189321E+03  0.00000000000E+00 0.  1.
         24    2    1    2    0    0  0.16271142446E+02  0.11000935376E+03  0.62701920373E+03  0.64174281095E+03  0.79460339595E+02 0.  0.
         23    2    1    2    0    0 -0.20008123491E+03  0.95039244506E+01 -0.42608840874E+01  0.21931660318E+03  0.89212062835E+02 0.  0.
        -13    1    3    3    0    0 -0.91769938176E+01  0.10817484489E+03  0.54985399043E+03  0.56046893319E+03  0.00000000000E+00 0.  1.
         14    1    3    3    0    0  0.25448136263E+02  0.18345088700E+01  0.77165213304E+02  0.81273877761E+02  0.00000000000E+00 0. -1.
        -11    1    4    4    0    0 -0.17970328125E+03  0.34590023970E+02 -0.18627297250E+02  0.18394758833E+03  0.00000000000E+00 0.  1.
         11    1    4    4    0    0 -0.20377953664E+02 -0.25086099519E+02  0.14366413163E+02  0.35369014854E+02  0.00000000000E+00 0. -1.
         21    1    1    2  503  501  0.49054437987E+01 -0.21307532640E+03 -0.93019699713E+02  0.23254638813E+03  0.00000000000E+00 0.  1.
         -2    1    1    2    0  502  0.17890464867E+03  0.93562048187E+02  0.43728800535E+03  0.48164460944E+03  0.00000000000E+00 0.  1.
<scales pt_clust_5="13000.00000" pt_clust_6="13000.00000" pt_clust_7="13000.00000" pt_clust_8="13000.00000" pt_clust_9="153.35439" pt_clust_10="197.80226"></scales>
<clustering>
<clus scale="   79.460">  5  6 -1 -1</clus>
<clus scale="   89.212">  7  8 -1 -1</clus>
<clus scale="  136.678">  2  5  1 -1</clus>
<clus scale="  153.354">  2  9  1 -1</clus>
<clus scale="  197.802">  1 10  2 -1</clus>
<clus scale="  197.802">  1  5  2 -1</clus>
</clustering>
</event>
<event>
10    4  0.2977685E-005  0.1420584E+03  0.7546771E-02  0.1215775E+00
          2   -1    0    0  503    0 -0.00000000000E+00  0.00000000000E+00  0.11816866561E+03  0.11816866561E+03  0.00000000000E+00 0. -1.
         21   -1    0    0  501  502  0.00000000000E+00 -0.00000000000E+00 -0.70400560502E+03  0.70400560502E+03  0.00000000000E+00 0.  1.
         24    2    1    2    0    0 -0.13279536770E+03 -0.25977812753E+02 -0.34961619159E+02  0.16090736126E+03  0.79745894290E+02 0.  0.
         23    2    1    2    0    0  0.38559285475E+02  0.73990252767E+02 -0.80793464008E+02  0.15440443328E+03  0.10174364447E+03 0.  0.
        -11    1    3    3    0    0 -0.52216473838E+02 -0.38956728470E+02 -0.44262902694E+02  0.78761611132E+02  0.00000000000E+00 0.  1.
         12    1    3    3    0    0 -0.80578893860E+02  0.12978915717E+02  0.93012835348E+01  0.82145750129E+02  0.00000000000E+00 0. -1.
        -11    1    4    4    0    0 -0.99538097179E+01  0.76106531690E+02 -0.71633586961E+02  0.10498882452E+03  0.00000000000E+00 0.  1.
         11    1    4    4    0    0  0.48513095193E+02 -0.21162789231E+01 -0.91598770472E+01  0.49415608761E+02  0.00000000000E+00 0. -1.
         21    1    1    2  503  502  0.35916680681E+02 -0.15276836814E+02 -0.78433974198E+01  0.39810910279E+02  0.00000000000E+00 0. -1.
          1    1    1    2  501    0  0.58319401541E+02 -0.32735603200E+02 -0.46223845882E+03  0.46705156581E+03  0.00000000000E+00 0. -1.
<scales pt_clust_5="13000.00000" pt_clust_6="13000.00000" pt_clust_7="13000.00000" pt_clust_8="13000.00000" pt_clust_9="39.03063" pt_clust_10="67.79258"></scales>
<clustering>
<clus scale="   39.031">  1  9  2 -1</clus>
<clus scale="   67.793">  2 10  1 -1</clus>
<clus scale="   79.746">  5  6 -1 -1</clus>
<clus scale="  101.744">  7  8 -1 -1</clus>
<clus scale="  127.233">  1  5  2 -1</clus>
<clus scale="   67.793">  2  5  1 -1</clus>
</clustering>
</event>
<event>
10    4  0.2977685E-005  0.4156955E+03  0.7546771E-02  0.1067121E+00
          2   -1    0    0  503    0 -0.00000000000E+00  0.00000000000E+00  0.24392086023E+04  0.24392086023E+04  0.00000000000E+00 0. -1.
         21   -1    0    0  501  502  0.00000000000E+00 -0.00000000000E+00 -0.16936937816E+03  0.16936937816E+03  0.00000000000E+00 0. -1.
         24    2    1    2    0    0 -0.24520966411E+03 -0.36198922801E+03  0.10847379729E+04  0.11723551813E+04  0.81217120620E+02 0.  0.
         23    2    1    2    0    0 -0.10223345416E+03  0.93329602020E+02  0.44048100537E+02  0.17030467109E+03  0.88889549856E+02 0.  0.
        -11    1    3    3    0    0 -0.73076635991E+02 -0.66877474816E+02  0.18343345108E+03  0.20847211406E+03  0.00000000000E+00 0.  1.
         12    1    3    3    0    0 -0.17213302812E+03 -0.29511175320E+03  0.90130452181E+03  0.96388306722E+03  0.00000000000E+00 0. -1.
        -11    1    4    4    0    0 -0.58848650979E+02  0.95462809086E+02  0.55865380081E+02  0.12528867599E+03  0.00000000000E+00 0.  1.
         11    1    4    4    0    0 -0.43384803178E+02 -0.21332070654E+01 -0.11817279544E+02  0.45015995101E+02  0.00000000000E+00 0. -1.
         21    1    1    2  503  502  0.35057000640E+03  0.19985932129E+03  0.11250213700E+04  0.11952054889E+04  0.00000000000E+00 0. -1.
          1    1    1    2  501    0 -0.31268881314E+01  0.68800304702E+02  0.16031780784E+02  0.70712639263E+02  0.00000000000E+00 0. -1.
<scales pt_clust_5="13000.00000" pt_clust_6="13000.00000" pt_clust_7="13000.00000" pt_clust_8="13000.00000" pt_clust_9="407.68432" pt_clust_10="68.87132"></scales>
<clustering>
<clus scale="   68.871">  2 10  1 -1</clus>
<clus scale="   81.217">  5  6 -1 -1</clus>
<clus scale="   88.890">  7  8 -1 -1</clus>
<clus scale="  184.371">  2  7  1 -1</clus>
<clus scale="  407.684">  1  9  2 -1</clus>
<clus scale="   68.871">  2  5  1 -1</clus>
</clustering>
</event>
<event>
10    4  0.2977685E-005  0.3769704E+03  0.7546771E-02  0.1052059E+00
         21   -1    0    0  501  502  0.00000000000E+00  0.00000000000E+00  0.13266582645E+03  0.13266582645E+03  0.00000000000E+00 0. -1.
          2   -1    0    0  503    0 -0.00000000000E+00 -0.00000000000E+00 -0.98604456127E+03  0.98604456127E+03  0.00000000000E+00 0. -1.
         24    2    1    2    0    0 -0.82352327573E+02  0.16605701575E+03 -0.33146826768E+03  0.38873761170E+03  0.82999276699E+02 0.  0.
         23    2    1    2    0    0  0.15795950741E+01  0.12538264166E+03 -0.10018024156E+03  0.18812123016E+03  0.98133656248E+02 0.  0.
        -13    1    3    3    0    0 -0.36629367213E+02  0.41787031853E+02 -0.39594488277E+02  0.68231884595E+02  0.00000000000E+00 0.  1.
         14    1    3    3    0    0 -0.45722960360E+02  0.12426998390E+03 -0.29187377940E+03  0.32050572710E+03  0.00000000000E+00 0. -1.
        -13    1    4    4    0    0 -0.36329125961E+02  0.30902050746E+02 -0.36567287557E+01  0.47834232497E+02  0.00000000000E+00 0.  1.
         13    1    4    4    0    0  0.37908721035E+02  0.94480590909E+02 -0.96523512803E+02  0.14028699766E+03  0.00000000000E+00 0. -1.
         21    1    1    2  503  502 -0.27892891198E+02 -0.21862107678E+02 -0.11032759818E+03  0.11587986906E+03  0.00000000000E+00 0.  1.
          1    1    1    2  501    0  0.10866562370E+03 -0.26957754973E+03 -0.31140262740E+03  0.42597167680E+03  0.00000000000E+00 0. -1.
<scales pt_clust_5="13000.00000" pt_clust_6="13000.00000" pt_clust_7="13000.00000" pt_clust_8="13000.00000" pt_clust_9="35.43960" pt_clust_10="295.16487"></scales>
<clustering>
<clus scale="   35.440">  2  9  1 -1</clus>
<clus scale="   82.999">  5  6 -1 -1</clus>
<clus scale="   98.134">  7  8 -1 -1</clus>
<clus scale="  152.187">  5  7 -1 -1</clus>
<clus scale="  295.165">  1 10  2 -1</clus>
<clus scale="  295.165">  1  5  2 -1</clus>
</clustering>
</event>
<event>
10    4  0.2977685E-005  0.1954369E+03  0.7546771E-02  0.1154634E+00
         21   -1    0    0  501  502  0.00000000000E+00  0.00000000000E+00  0.20196022319E+03  0.20196022319E+03  0.00000000000E+00 0.  1.
          2   -1    0    0  503    0 -0.00000000000E+00 -0.00000000000E+00 -0.70425356587E+03  0.70425356587E+03  0.00000000000E+00 0. -1.
         23    2    1    2    0    0 -0.17601811738E+03 -0.39498018400E+02 -0.73398780938E+02  0.21486199681E+03  0.90751449169E+02 0.  0.
         24    2    1    2    0    0  0.18314486426E+03 -0.59335461273E+02 -0.31066672807E+02  0.21102223608E+03  0.80638128019E+02 0.  0.
        -13    1    4    4    0    0  0.95949482308E+02 -0.31713389960E+02  0.24524171196E+02  0.10398787059E+03  0.00000000000E+00 0.  1.
         14    1    4    4    0    0  0.87195381953E+02 -0.27622071313E+02 -0.55590844002E+02  0.10703436548E+03  0.00000000000E+00 0. -1.
        -11    1    3    3    0    0 -0.70877006760E+02 -0.60986601975E+02 -0.45467206486E+02  0.10397202784E+03  0.00000000000E+00 0. -1.
         11    1    3    3    0    0 -0.10514111062E+03  0.21488583575E+02 -0.27931574452E+02  0.11088996897E+03  0.00000000000E+00 0.  1.
         21    1    1    2  503  502  0.44636253512E+02 -0.84924938171E+01 -0.34836331790E+03  0.35131398895E+03  0.00000000000E+00 0.  1.
          1    1    1    2  501    0 -0.51763000390E+02  0.10732597349E+03 -0.49464571036E+02  0.12901556721E+03  0.00000000000E+00 0. -1.
<scales pt_clust_5="13000.00000" pt_clust_6="13000.00000" pt_clust_7="13000.00000" pt_clust_8="13000.00000" pt_clust_9="45.43696" pt_clust_10="112.72365"></scales>
<clustering>
<clus scale="   45.437">  2  9  1 -1</clus>
<clus scale="   80.638">  5  6 -1 -1</clus>
<clus scale="   90.751">  7  8 -1 -1</clus>
<clus scale="  112.724">  1 10  2 -1</clus>
<clus scale="  190.951">  1  5  2 -1</clus>
<clus scale="  112.724">  1  5  2 -1</clus>
</clustering>
</event>
<event>
10    4  0.2977685E-005  0.1149421E+03  0.7546771E-02  0.1254911E+00
         21   -1    0    0  501  502  0.00000000000E+00  0.00000000000E+00  0.32668988498E+02  0.32668988498E+02  0.00000000000E+00 0.  1.
          2   -1    0    0  503    0 -0.00000000000E+00 -0.00000000000E+00 -0.73662205842E+03  0.73662205842E+03  0.00000000000E+00 0. -1.
         23    2    1    2    0    0 -0.32643474926E+02  0.78522436389E+02 -0.24390203197E+03  0.27336111144E+03  0.89480313923E+02 0.  0.
         24    2    1    2    0    0  0.13397041237E+02 -0.59199652424E+02 -0.14232387512E+03  0.17422916538E+03  0.80097672119E+02 0.  0.
        -11    1    4    4    0    0  0.40270246278E+01 -0.62249296541E+02 -0.46258586909E+02  0.77659826874E+02  0.00000000000E+00 0.  1.
         12    1    4    4    0    0  0.93700166095E+01  0.30496441170E+01 -0.96065288213E+02  0.96569338509E+02  0.00000000000E+00 0. -1.
        -13    1    3    3    0    0 -0.38031679513E+02  0.52075410148E+02 -0.23684068801E+03  0.24546235656E+03  0.00000000000E+00 0.  1.
         13    1    3    3    0    0  0.53882045861E+01  0.26447026241E+02 -0.70613439539E+01  0.27898754884E+02  0.00000000000E+00 0. -1.
         21    1    1    2  503  502 -0.10359434342E+02 -0.17878850611E+02 -0.14070818657E+03  0.14221731592E+03  0.00000000000E+00 0. -1.
          1    1    1    2  501    0  0.29605868031E+02 -0.14439333540E+01 -0.17701897626E+03  0.17948345417E+03  0.00000000000E+00 0. -1.
<scales pt_clust_5="13000.00000" pt_clust_6="13000.00000" pt_clust_7="13000.00000" pt_clust_8="13000.00000" pt_clust_9="20.66328" pt_clust_10="27.36133"></scales>
<clustering>
<clus scale="   20.663">  2  9  1 -1</clus>
<clus scale="   27.361">  1 10  2 -1</clus>
<clus scale="   80.098">  5  6 -1 -1</clus>
<clus scale="   89.480">  7  8 -1 -1</clus>
<clus scale="  107.799">  1  5  2 -1</clus>
<clus scale="   27.361">  1  5  2 -1</clus>
</clustering>
</event>
<event>
10    4  0.2977685E-005  0.1398277E+03  0.7546771E-02  0.1216242E+00
         21   -1    0    0  501  502  0.00000000000E+00  0.00000000000E+00  0.30170878187E+03  0.30170878187E+03  0.00000000000E+00 0.  1.
          4   -1    0    0  503    0 -0.00000000000E+00 -0.00000000000E+00 -0.13867888345E+03  0.13867888345E+03  0.00000000000E+00 0. -1.
         24    2    1    2    0    0 -0.12545463277E+03 -0.21571776270E+01 -0.40269905541E+02  0.15396587958E+03  0.79626054043E+02 0.  0.
         23    2    1    2    0    0  0.86487537905E+02 -0.20508176299E+02  0.17588635895E+03  0.21742995137E+03  0.91864536015E+02 0.  0.
        -13    1    3    3    0    0 -0.25587010811E+02  0.10945094780E+02  0.22063632144E+02  0.35514702383E+02  0.00000000000E+00 0.  1.
         14    1    3    3    0    0 -0.99867621963E+02 -0.13102272407E+02 -0.62333537685E+02  0.11845117720E+03  0.00000000000E+00 0. -1.
        -11    1    4    4    0    0  0.48134408806E+02  0.40136312040E+00  0.14553692651E+02  0.50288093753E+02  0.00000000000E+00 0. -1.
         11    1    4    4    0    0  0.38353129099E+02 -0.20909539419E+02  0.16133266630E+03  0.16714185761E+03  0.00000000000E+00 0.  1.
         21    1    1    2  503  502  0.20438290729E+02 -0.21604361317E+01 -0.78985269905E+01  0.22017673374E+02  0.00000000000E+00 0.  1.
          3    1    1    2  501    0  0.18528804140E+02  0.24825790058E+02  0.35311972005E+02  0.46974161001E+02  0.00000000000E+00 0. -1.
<scales pt_clust_5="13000.00000" pt_clust_6="13000.00000" pt_clust_7="13000.00000" pt_clust_8="13000.00000" pt_clust_9="20.55216" pt_clust_10="31.48358"></scales>
<clustering>
<clus scale="   20.552">  2  9  1 -1</clus>
<clus scale="   31.484">  1 10  2 -1</clus>
<clus scale="   79.626">  5  6 -1 -1</clus>
<clus scale="   91.865">  7  8 -1 -1</clus>
<clus scale="  132.110">  2  5  1 -1</clus>
<clus scale="   31.484">  1  5  2 -1</clus>
</clustering>
</event>
<event>
10    4  0.2977685E-005  0.1089178E+03  0.7546771E-02  0.1266365E+00
          2   -1    0    0  503    0 -0.00000000000E+00  0.00000000000E+00  0.51612098738E+03  0.51612098738E+03  0.00000000000E+00 0. -1.
         21   -1    0    0  501  502  0.00000000000E+00 -0.00000000000E+00 -0.63824039096E+02  0.63824039096E+02  0.00000000000E+00 0. -1.
         23    2    1    2    0    0  0.34077503638E+02  0.54987796519E+02  0.25020757340E+03  0.27387406947E+03  0.90654520672E+02 0.  0.
         24    2    1    2    0    0  0.12058540581E+02 -0.37414751329E+02  0.57515708012E+02  0.10698394431E+03  0.81192583744E+02 0.  0.
        -11    1    4    4    0    0 -0.11474809900E+02  0.22129309900E+02  0.84543433696E+01  0.26322111251E+02  0.00000000000E+00 0.  1.
         12    1    4    4    0    0  0.23533350481E+02 -0.59544061230E+02  0.49061364643E+02  0.80661833064E+02  0.00000000000E+00 0. -1.
        -11    1    3    3    0    0 -0.85851802829E+01  0.43923676649E+02  0.43117518135E+02  0.62145917492E+02  0.00000000000E+00 0. -1.
         11    1    3    3    0    0  0.42662683921E+02  0.11064119870E+02  0.20709005527E+03  0.21172815197E+03  0.00000000000E+00 0.  1.
         21    1    1    2  503  502 -0.31200965695E+02  0.53491945100E+02  0.84964615534E+02  0.10513740697E+03  0.00000000000E+00 0.  1.
          1    1    1    2  501    0 -0.14935078524E+02 -0.71064990290E+02  0.59609051341E+02  0.93949605732E+02  0.00000000000E+00 0. -1.
<scales pt_clust_5="13000.00000" pt_clust_6="13000.00000" pt_clust_7="13000.00000" pt_clust_8="13000.00000" pt_clust_9="61.92648" pt_clust_10="64.68705"></scales>
<clustering>
<clus scale="   61.926">  1  9  2 -1</clus>
<clus scale="   64.687">  2 10  1 -1</clus>
<clus scale="   81.193">  5  6 -1 -1</clus>
<clus scale="   90.655">  7  8 -1 -1</clus>
<clus scale="  101.179">  2  5  1 -1</clus>
<clus scale="   64.687">  2  5  1 -1</clus>
</clustering>
</event>
<event>
10    4  0.2977685E-005  0.1122487E+03  0.7546771E-02  0.1258277E+00
         21   -1    0    0  501  502  0.00000000000E+00  0.00000000000E+00  0.29636325294E+03  0.29636325294E+03  0.00000000000E+00 0. -1.
          2   -1    0    0  503    0 -0.00000000000E+00 -0.00000000000E+00 -0.31620693068E+03  0.31620693068E+03  0.00000000000E+00 0. -1.
         24    2    1    2    0    0  0.63172713566E+02 -0.38442237456E+02 -0.12769727230E+03  0.17139262947E+03  0.87179370972E+02 0.  0.
         23    2    1    2    0    0 -0.54238277776E+01  0.48841877384E+02  0.11794058837E+03  0.15746915573E+03  0.92041326188E+02 0.  0.
        -11    1    3    3    0    0 -0.21643940732E+02 -0.36161208929E+01 -0.17697364080E+02  0.28191012684E+02  0.00000000000E+00 0.  1.
         12    1    3    3    0    0  0.84816654298E+02 -0.34826116563E+02 -0.10999990822E+03  0.14320161679E+03  0.00000000000E+00 0. -1.
        -13    1    4    4    0    0 -0.48715398532E+02  0.29229141618E+02  0.64054637378E+02  0.85618510519E+02  0.00000000000E+00 0.  1.
         13    1    4    4    0    0  0.43291570755E+02  0.19612735767E+02  0.53885950994E+02  0.71850645211E+02  0.00000000000E+00 0. -1.
         21    1    1    2  503  502  0.52243166815E+01  0.20345843444E+02 -0.13707088490E+03  0.13867110124E+03  0.00000000000E+00 0. -1.
          1    1    1    2  501    0 -0.62973202470E+02 -0.30745483373E+02  0.12698389110E+03  0.14503729719E+03  0.00000000000E+00 0. -1.
<scales pt_clust_5="13000.00000" pt_clust_6="13000.00000" pt_clust_7="13000.00000" pt_clust_8="13000.00000" pt_clust_9="21.00588" pt_clust_10="69.39315"></scales>
<clustering>
<clus scale="   21.006">  2  9  1 -1</clus>
<clus scale="   69.393">  1 10  2 -1</clus>
<clus scale="   87.179">  5  6 -1 -1</clus>
<clus scale="   92.041">  7  8 -1 -1</clus>
<clus scale="  108.298">  2  5  1 -1</clus>
<clus scale="   69.393">  1  5  2 -1</clus>
</clustering>
</event>
<event>
10    4  0.2977685E-005  0.1388677E+03  0.7546771E-02  0.1216447E+00
          2   -1    0    0  503    0 -0.00000000000E+00  0.00000000000E+00  0.45299266281E+03  0.45299266281E+03  0.00000000000E+00 0. -1.
         21   -1    0    0  501  502  0.00000000000E+00 -0.00000000000E+00 -0.35401957138E+03  0.35401957138E+03  0.00000000000E+00 0.  1.
         24    2    1    2    0    0 -0.41442647029E+02  0.83959380533E+02  0.39053047408E+03  0.40960666664E+03  0.80603347354E+02 0.  0.
         23    2    1    2    0    0  0.54546612663E+02 -0.50358749826E+02 -0.21348583021E+03  0.24256190390E+03  0.88026932727E+02 0.  0.
        -13    1    3    3    0    0 -0.92788653688E+00  0.21910754790E+02  0.14376392298E+02  0.26222562888E+02  0.00000000000E+00 0.  1.
         14    1    3    3    0    0 -0.40514760493E+02  0.62048625743E+02  0.37615408178E+03  0.38338410375E+03  0.00000000000E+00 0. -1.
        -13    1    4    4    0    0  0.39805418640E+02 -0.48402022967E+01 -0.17937284893E+03  0.18380021177E+03  0.00000000000E+00 0. -1.
         13    1    4    4    0    0  0.14741194023E+02 -0.45518547529E+02 -0.34112981274E+02  0.58761692128E+02  0.00000000000E+00 0.  1.
         21    1    1    2  503  502 -0.31442130800E+02 -0.59037396305E-01  0.27994736692E+02  0.42098887837E+02  0.00000000000E+00 0. -1.
          1    1    1    2  501    0  0.18338165166E+02 -0.33541593311E+02 -0.10606628914E+03  0.11274477582E+03  0.00000000000E+00 0. -1.
<scales pt_clust_5="13000.00000" pt_clust_6="13000.00000" pt_clust_7="13000.00000" pt_clust_8="13000.00000" pt_clust_9="31.44219" pt_clust_10="38.10785"></scales>
<clustering>
<clus scale="   31.442">  1  9  2 -1</clus>
<clus scale="   38.108">  2 10  1 -1</clus>
<clus scale="   80.603">  5  6 -1 -1</clus>
<clus scale="   88.027">  7  8 -1 -1</clus>
<clus scale="  134.285">  1  5  2 -1</clus>
<clus scale="   38.108">  2  5  1 -1</clus>
</clustering>
</event>
<event>
10    4  0.2977685E-005  0.1024840E+03  0.7546771E-02  0.1281202E+00
         21   -1    0    0  501  502  0.00000000000E+00  0.00000000000E+00  0.53208927264E+02  0.53208927264E+02  0.00000000000E+00 0. -1.
          2   -1    0    0  503    0 -0.00000000000E+00 -0.00000000000E+00 -0.67166699601E+03  0.67166699601E+03  0.00000000000E+00 0. -1.
         24    2    1    2    0    0  0.33079550371E+02 -0.14523608345E+02 -0.28270943407E+03  0.29590459326E+03  0.79559489369E+02 0.  0.
         23    2    1    2    0    0 -0.53345600404E+02 -0.28307213950E+02 -0.51851175588E+02  0.12177684161E+03  0.92162917161E+02 0.  0.
        -13    1    3    3    0    0  0.31034474130E+02 -0.56195170303E+01 -0.31658772131E+02  0.44687754575E+02  0.00000000000E+00 0.  1.
         14    1    3    3    0    0  0.20450762409E+01 -0.89040913151E+01 -0.25105066194E+03  0.25121683868E+03  0.00000000000E+00 0. -1.
        -11    1    4    4    0    0 -0.59910861690E+02  0.20993477685E+01 -0.64625691214E+02  0.88148729851E+02  0.00000000000E+00 0.  1.
         11    1    4    4    0    0  0.65652612866E+01 -0.30406561718E+02  0.12774515626E+02  0.33628111763E+02  0.00000000000E+00 0. -1.
         21    1    1    2  503  502  0.87544962158E+01 -0.36087596606E+02 -0.10326592767E+03  0.10973972686E+03  0.00000000000E+00 0. -1.
          1    1    1    2  501    0  0.11511553817E+02  0.78918418902E+02 -0.18063153142E+03  0.19745476154E+03  0.00000000000E+00 0. -1.
<scales pt_clust_5="13000.00000" pt_clust_6="13000.00000" pt_clust_7="13000.00000" pt_clust_8="13000.00000" pt_clust_9="37.13429" pt_clust_10="68.38924"></scales>
<clustering>
<clus scale="   37.134">  2  9  1 -1</clus>
<clus scale="   68.389">  1 10  2 -1</clus>
<clus scale="   79.559">  5  6 -1 -1</clus>
<clus scale="   91.316">  2  5  1 -1</clus>
<clus scale="   92.163">  7  8 -1 -1</clus>
<clus scale="   68.389">  1  5  2 -1</clus>
</clustering>
</event>
<event>
10    4  0.2977685E-005  0.1341809E+03  0.7546771E-02  0.1221437E+00
         21   -1    0    0  501  502  0.00000000000E+00  0.00000000000E+00  0.16872891945E+03  0.16872891945E+03  0.00000000000E+00 0. -1.
          4   -1    0    0  503    0 -0.00000000000E+00 -0.00000000000E+00 -0.19577418212E+03  0.19577418212E+03  0.00000000000E+00 0. -1.
         24    2    1    2    0    0  0.73118879999E+02  0.10644581615E+03 -0.51110584254E+02  0.16012018148E+03  0.79681229333E+02 0.  0.
         23    2    1    2    0    0 -0.59711658113E+02 -0.63491781901E+02  0.42486141958E+02  0.12533332944E+03  0.79414625387E+02 0.  0.
        -13    1    3    3    0    0 -0.15948334749E+02  0.15524870202E+02 -0.17951258467E+02  0.28594031836E+02  0.00000000000E+00 0.  1.
         14    1    3    3    0    0  0.89067214748E+02  0.90920945945E+02 -0.33159325787E+02  0.13152614965E+03  0.00000000000E+00 0. -1.
        -13    1    4    4    0    0 -0.43073101580E+02  0.77010006997E+01  0.24064647388E+02  0.49937007774E+02  0.00000000000E+00 0. -1.
         13    1    4    4    0    0 -0.16638556534E+02 -0.71192782601E+02  0.18421494570E+02  0.75396321662E+02  0.00000000000E+00 0.  1.
         21    1    1    2  503  502 -0.20728165151E+02 -0.70065919952E+01 -0.32982218029E+02  0.39579993279E+02  0.00000000000E+00 0. -1.
          3    1    1    2  501    0  0.73209432652E+01 -0.35947442250E+02  0.14561397656E+02  0.39469597367E+02  0.00000000000E+00 0. -1.
<scales pt_clust_5="13000.00000" pt_clust_6="13000.00000" pt_clust_7="13000.00000" pt_clust_8="13000.00000" pt_clust_9="21.88034" pt_clust_10="36.93737"></scales>
<clustering>
<clus scale="   21.880">  2  9  1 -1</clus>
<clus scale="   36.937">  1 10  2 -1</clus>
<clus scale="   79.415">  7  8 -1 -1</clus>
<clus scale="   79.681">  5  6 -1 -1</clus>
<clus scale="  134.023">  1  7  2 -1</clus>
<clus scale="   36.937">  1  5  2 -1</clus>
</clustering>
</event>
<event>
10    4  0.2977685E-005  0.1134018E+03  0.7546771E-02  0.1258876E+00
          2   -1    0    0  503    0 -0.00000000000E+00  0.00000000000E+00  0.55393457815E+03  0.55393457815E+03  0.00000000000E+00 0. -1.
         21   -1    0    0  501  502  0.00000000000E+00 -0.00000000000E+00 -0.84920402280E+02  0.84920402280E+02  0.00000000000E+00 0. -1.
         23    2    1    2    0    0 -0.49819608990E+02 -0.32626634494E+02  0.22857605820E+03  0.25355225454E+03  0.92169629930E+02 0.  0.
         24    2    1    2    0    0  0.79824351604E+02 -0.14926160569E+02  0.36392080722E+02  0.11969903609E+03  0.80054720799E+02 0.  0.
        -13    1    4    4    0    0  0.68048141530E+02 -0.41923592731E+02  0.41095204322E+02  0.89871869967E+02  0.00000000000E+00 0.  1.
         14    1    4    4    0    0  0.11776210073E+02  0.26997432162E+02 -0.47031235994E+01  0.29827166118E+02  0.00000000000E+00 0. -1.
        -11    1    3    3    0    0 -0.36653734085E+02 -0.17177768305E+02  0.22968431559E+03  0.23322404845E+03  0.00000000000E+00 0. -1.
         11    1    3    3    0    0 -0.13165874905E+02 -0.15448866189E+02 -0.11082573874E+01  0.20328206094E+02  0.00000000000E+00 0.  1.
         21    1    1    2  503  502 -0.14396354774E+02  0.60871793638E+02  0.22662222495E+03  0.23509628481E+03  0.00000000000E+00 0. -1.
          1    1    1    2  501    0 -0.15608387840E+02 -0.13318998576E+02 -0.22576188009E+02  0.30507404986E+02  0.00000000000E+00 0. -1.
<scales pt_clust_5="13000.00000" pt_clust_6="13000.00000" pt_clust_7="13000.00000" pt_clust_8="13000.00000" pt_clust_9="61.88521" pt_clust_10="20.51871"></scales>
<clustering>
<clus scale="   20.519">  2 10  1 -1</clus>
<clus scale="   61.885">  1  9  2 -1</clus>
<clus scale="   80.055">  5  6 -1 -1</clus>
<clus scale="   92.170">  7  8 -1 -1</clus>
<clus scale="  103.795">  2  5  1 -1</clus>
<clus scale="   20.519">  2  5  1 -1</clus>
</clustering>
</event>
<event>
10    4  0.2977685E-005  0.2734665E+03  0.7546771E-02  0.1138043E+00
          2   -1    0    0  503    0 -0.00000000000E+00  0.00000000000E+00  0.26131684039E+03  0.26131684039E+03  0.00000000000E+00 0. -1.
         21   -1    0    0  501  502  0.00000000000E+00 -0.00000000000E+00 -0.71964685548E+03  0.71964685548E+03  0.00000000000E+00 0. -1.
         24    2    1    2    0    0  0.40835728563E+02  0.54004943394E+02  0.28086861213E+02  0.10727628884E+03  0.78327771174E+02 0.  0.
         23    2    1    2    0    0 -0.11682065523E+03 -0.19153049603E+01 -0.19796533262E+03  0.24585487829E+03  0.87198706308E+02 0.  0.
        -11    1    3    3    0    0 -0.22392064911E+02  0.20974088760E+02  0.19476008464E+00  0.30681507489E+02  0.00000000000E+00 0.  1.
         12    1    3    3    0    0  0.63227793474E+02  0.33030854634E+02  0.27892101128E+02  0.76594781355E+02  0.00000000000E+00 0. -1.
        -11    1    4    4    0    0 -0.38016205884E+02  0.36942473783E+02 -0.10684989721E+03  0.11927648055E+03  0.00000000000E+00 0.  1.
         11    1    4    4    0    0 -0.78804449346E+02 -0.38857778744E+02 -0.91115435403E+02  0.12657839774E+03  0.00000000000E+00 0. -1.
         21    1    1    2  503  502 -0.16522593288E+03  0.14967032549E+03 -0.38738192484E+02  0.22627740228E+03  0.00000000000E+00 0. -1.
          1    1    1    2  501    0  0.24121085954E+03 -0.20175996393E+03 -0.24971335121E+03  0.40155512645E+03  0.00000000000E+00 0. -1.
<scales pt_clust_5="13000.00000" pt_clust_6="13000.00000" pt_clust_7="13000.00000" pt_clust_8="13000.00000" pt_clust_9="273.46654" pt_clust_10="13000.00000"></scales>
<clustering>
<clus scale="   78.328">  5  6 -1 -1</clus>
<clus scale="   87.199">  7  8 -1 -1</clus>
<clus scale="  103.534">  1  5  2 -1</clus>
<clus scale="  141.842">  1  7  2 -1</clus>
<clus scale="  273.467">  1  9  2 -1</clus>
<clus scale="  273.467">  2  5  1 -1</clus>
</clustering>
</event>
<event>
10    4  0.2977685E-005  0.1450285E+03  0.7546771E-02  0.1208192E+00
          2   -1    0    0  503    0 -0.00000000000E+00  0.00000000000E+00  0.13008870085E+04  0.13008870085E+04  0.00000000000E+00 0. -1.
         21   -1    0    0  501  502  0.00000000000E+00 -0.00000000000E+00 -0.62409781379E+02  0.62409781379E+02  0.00000000000E+00 0. -1.
         23    2    1    2    0    0  0.67422696922E+02 -0.92168968064E+02  0.21467358365E+03  0.25904074501E+03  0.89310813010E+02 0.  0.
         24    2    1    2    0    0 -0.63740225033E+02  0.11173729471E+03  0.17917696364E+03  0.23524668061E+03  0.81783721609E+02 0.  0.
        -13    1    4    4    0    0 -0.85971348063E+01  0.46413968586E+02  0.12604604361E+03  0.13459484505E+03  0.00000000000E+00 0.  1.
         14    1    4    4    0    0 -0.55143090226E+02  0.65323326129E+02  0.53130920032E+02  0.10065183555E+03  0.00000000000E+00 0. -1.
        -13    1    3    3    0    0  0.78384412418E+02 -0.39365793341E+02  0.15861909387E+03  0.18125616882E+03  0.00000000000E+00 0. -1.
         13    1    3    3    0    0 -0.10961715496E+02 -0.52803174723E+02  0.56054489782E+02  0.77784576184E+02  0.00000000000E+00 0.  1.
         21    1    1    2  503  502 -0.78761637341E+02  0.43370046464E+02  0.23599401146E+03  0.25254213488E+03  0.00000000000E+00 0. -1.
          1    1    1    2  501    0  0.75079165452E+02 -0.62938373115E+02  0.60863266841E+03  0.61646722942E+03  0.00000000000E+00 0. -1.
<scales pt_clust_5="13000.00000" pt_clust_6="13000.00000" pt_clust_7="13000.00000" pt_clust_8="13000.00000" pt_clust_9="89.91305" pt_clust_10="47.89557"></scales>
<clustering>
<clus scale="   81.784">  5  6 -1 -1</clus>
<clus scale="   89.311">  7  8 -1 -1</clus>
<clus scale="   89.913">  1  9  2 -1</clus>
<clus scale="   47.896">  2 10  1 -1</clus>
<clus scale="  140.518">  2  5  1 -1</clus>
<clus scale="   47.896">  2  5  1 -1</clus>
</clustering>
</event>
<event>
10    4  0.2977685E-005  0.2254361E+03  0.7546771E-02  0.1160957E+00
         21   -1    0    0  501  502  0.00000000000E+00  0.00000000000E+00  0.19785792694E+03  0.19785792694E+03  0.00000000000E+00 0. -1.
          2   -1    0    0  503    0 -0.00000000000E+00 -0.00000000000E+00 -0.54382924817E+03  0.54382924817E+03  0.00000000000E+00 0. -1.
         23    2    1    2    0    0  0.53629808390E+02  0.26537928661E+02  0.28291926340E+02  0.11301894689E+03  0.91610213705E+02 0.  0.
         24    2    1    2    0    0 -0.22693110801E+03  0.25403195505E+02 -0.13413871912E+03  0.27578482883E+03  0.76948201530E+02 0.  0.
        -13    1    4    4    0    0 -0.89986140728E+02 -0.20355632096E+02 -0.78190952254E+02  0.12093668714E+03  0.00000000000E+00 0.  1.
         14    1    4    4    0    0 -0.13694496728E+03  0.45758827602E+02 -0.55947766869E+02  0.15484814169E+03  0.00000000000E+00 0. -1.
        -13    1    3    3    0    0 -0.12948801595E+02  0.38119535715E+02  0.19940148167E+02  0.44926383950E+02  0.00000000000E+00 0.  1.
         13    1    3    3    0    0  0.66578609985E+02 -0.11581607053E+02  0.83517781730E+01  0.68092562943E+02  0.00000000000E+00 0. -1.
         21    1    1    2  503  502 -0.21347151763E+02 -0.59856515085E+02 -0.52791766580E+02  0.82616426364E+02  0.00000000000E+00 0.  1.
          1    1    1    2  501    0  0.19464845138E+03  0.79153909188E+01 -0.18733276187E+03  0.27026697303E+03  0.00000000000E+00 0. -1.
<scales pt_clust_5="13000.00000" pt_clust_6="13000.00000" pt_clust_7="13000.00000" pt_clust_8="13000.00000" pt_clust_9="63.54922" pt_clust_10="211.89724"></scales>
<clustering>
<clus scale="   63.549">  2  9  1 -1</clus>
<clus scale="   76.948">  5  6 -1 -1</clus>
<clus scale="   91.610">  7  8 -1 -1</clus>
<clus scale="  107.324">  2  7  1 -1</clus>
<clus scale="  211.897">  1 10  2 -1</clus>
<clus scale="  211.897">  1  5  2 -1</clus>
</clustering>
</event>
<event>
10    4  0.2977685E-005  0.2389239E+03  0.7546771E-02  0.1164663E+00
         21   -1    0    0  503  502  0.00000000000E+00  0.00000000000E+00  0.47002819424E+03  0.47002819424E+03  0.00000000000E+00 0.  1.
         -1   -1    0    0    0  501 -0.00000000000E+00 -0.00000000000E+00 -0.18628488367E+03  0.18628488367E+03  0.00000000000E+00 0.  1.
         24    2    1    2    0    0  0.12498199968E+02 -0.14421875642E+02  0.55881041380E+02  0.99744620548E+02  0.80387206961E+02 0.  0.
         23    2    1    2    0    0  0.13365494698E+03  0.16140504439E+03  0.16162512505E+03  0.28037564613E+03  0.92588275113E+02 0.  0.
        -11    1    3    3    0    0  0.15489390816E+02 -0.46166940515E+02  0.44267803183E+02  0.65809923439E+02  0.00000000000E+00 0.  1.
         12    1    3    3    0    0 -0.29911908483E+01  0.31745064873E+02  0.11613238197E+02  0.33934697109E+02  0.00000000000E+00 0. -1.
        -11    1    4    4    0    0  0.11906016442E+03  0.13625768635E+03  0.17185692550E+03  0.24955216426E+03  0.00000000000E+00 0.  1.
         11    1    4    4    0    0  0.14594782557E+02  0.25147358036E+02 -0.10231800454E+02  0.30823481871E+02  0.00000000000E+00 0. -1.
         21    1    1    2  503  501  0.23595040297E+02  0.19222842159E+02  0.48195188939E+01  0.30813492980E+02  0.00000000000E+00 0. -1.
         -2    1    1    2    0  502 -0.16974818724E+03 -0.16620601091E+03  0.61417625255E+02  0.24537931825E+03  0.00000000000E+00 0.  1.
<scales pt_clust_5="13000.00000" pt_clust_6="13000.00000" pt_clust_7="13000.00000" pt_clust_8="13000.00000" pt_clust_9="30.43425" pt_clust_10="220.25464"></scales>
<clustering>
<clus scale="   30.434">  2  9  1 -1</clus>
<clus scale="   80.387">  5  6 -1 -1</clus>
<clus scale="   82.738">  2  5  1 -1</clus>
<clus scale="   92.588">  7  8 -1 -1</clus>
<clus scale="  220.255">  1 10  2 -1</clus>
<clus scale="  220.255">  1  5  2 -1</clus>
</clustering>
</event>
<event>
10    4  0.2977685E-005  0.2147156E+03  0.7546771E-02  0.1159749E+00
          2   -1    0    0  503    0 -0.00000000000E+00  0.00000000000E+00  0.94933447682E+03  0.94933447682E+03  0.00000000000E+00 0. -1.
         21   -1    0    0  501  502  0.00000000000E+00 -0.00000000000E+00 -0.25590651926E+03  0.25590651926E+03  0.00000000000E+00 0. -1.
         23    2    1    2    0    0  0.70214834488E+02 -0.97140989549E+02  0.69168448917E+03  0.70896047792E+03  0.99151560034E+02 0.  0.
         24    2    1    2    0    0 -0.17861795664E+03 -0.94074266677E+02 -0.26998482900E+02  0.21884945326E+03  0.80073859826E+02 0.  0.
        -11    1    4    4    0    0 -0.29214614439E+02  0.21153484004E+01 -0.28901189801E+02  0.41149084651E+02  0.00000000000E+00 0.  1.
         12    1    4    4    0    0 -0.14940334220E+03 -0.96189615078E+02  0.19027069008E+01  0.17770036861E+03  0.00000000000E+00 0. -1.
        -13    1    3    3    0    0  0.63385202030E+02 -0.13429489355E+02  0.20234512168E+03  0.21246548728E+03  0.00000000000E+00 0.  1.
         13    1    3    3    0    0  0.68296324578E+01 -0.83711500193E+02  0.48933936750E+03  0.49649499063E+03  0.00000000000E+00 0. -1.
         21    1    1    2  503  502 -0.27868758193E+02  0.41198071084E+02  0.53739810362E+02  0.73225104725E+02  0.00000000000E+00 0.  1.
          1    1    1    2  501    0  0.13627188035E+03  0.15001718514E+03 -0.24997859072E+02  0.20420596017E+03  0.00000000000E+00 0. -1.
<scales pt_clust_5="13000.00000" pt_clust_6="13000.00000" pt_clust_7="13000.00000" pt_clust_8="13000.00000" pt_clust_9="49.73881" pt_clust_10="199.22599"></scales>
<clustering>
<clus scale="   49.739">  1  9  2 -1</clus>
<clus scale="   80.074">  5  6 -1 -1</clus>
<clus scale="   99.152">  7  8 -1 -1</clus>
<clus scale="  127.758">  1  7  2 -1</clus>
<clus scale="  199.226">  2 10  1 -1</clus>
<clus scale="  199.226">  2  5  1 -1</clus>
</clustering>
</event>
<event>
10    4  0.2977685E-005  0.1435618E+03  0.7546771E-02  0.1218804E+00
          2   -1    0    0  502    0 -0.00000000000E+00  0.00000000000E+00  0.77538617226E+03  0.77538617226E+03  0.00000000000E+00 0. -1.
         21   -1    0    0  503  502  0.00000000000E+00 -0.00000000000E+00 -0.19613872654E+03  0.19613872654E+03  0.00000000000E+00 0. -1.
         24    2    1    2    0    0 -0.80898625542E+02  0.17359269189E+02  0.27086186032E+03  0.29451756258E+03  0.80799229257E+02 0.  0.
         23    2    1    2    0    0 -0.57351258893E+02  0.89198403086E+02 -0.13587520941E+03  0.19569246965E+03  0.92671182874E+02 0.  0.
        -11    1    3    3    0    0 -0.87497030697E+02  0.35861026617E+02  0.20439642769E+03  0.22521022016E+03  0.00000000000E+00 0.  1.
         12    1    3    3    0    0  0.65984051556E+01 -0.18501757428E+02  0.66465432628E+02  0.69307342417E+02  0.00000000000E+00 0. -1.
        -11    1    4    4    0    0  0.22020201667E+02  0.29949553032E+02 -0.16758927781E+02  0.40776545570E+02  0.00000000000E+00 0.  1.
         11    1    4    4    0    0 -0.79371460560E+02  0.59248850054E+02 -0.11911628162E+03  0.15491592408E+03  0.00000000000E+00 0. -1.
         21    1    1    2  503  501  0.47634115412E+01 -0.30887324948E+02  0.62714324520E+02  0.70069989525E+02  0.00000000000E+00 0. -1.
          1    1    1    2  501    0  0.13348647289E+03 -0.75670347327E+02  0.38154647029E+03  0.41124487705E+03  0.00000000000E+00 0. -1.
<scales pt_clust_5="13000.00000" pt_clust_6="13000.00000" pt_clust_7="13000.00000" pt_clust_8="13000.00000" pt_clust_9="27.92539" pt_clust_10="125.90005"></scales>
<clustering>
<clus scale="   27.925">  9 10 -1 -1</clus>
<clus scale="   80.799">  5  6 -1 -1</clus>
<clus scale="   92.671">  7  8 -1 -1</clus>
<clus scale="  115.648">  1  5  2 -1</clus>
<clus scale="  125.900">  2  9  1 -1</clus>
<clus scale="  125.900">  2  5  1 -1</clus>
</clustering>
</event>
<event>
10    4  0.2977685E-005  0.3032566E+03  0.7546771E-02  0.1135201E+00
         21   -1    0    0  501  502  0.00000000000E+00  0.00000000000E+00  0.91152602271E+02  0.91152602271E+02  0.00000000000E+00 0. -1.
          2   -1    0    0  503    0 -0.00000000000E+00 -0.00000000000E+00 -0.17955188452E+04  0.17955188452E+04  0.00000000000E+00 0. -1.
         24    2    1    2    0    0  0.31646420628E+01 -0.27122565070E+02 -0.26569407441E+03  0.27867504882E+03  0.79503416052E+02 0.  0.
         23    2    1    2    0    0 -0.26447639678E+03  0.77228446649E+02 -0.46327201459E+03  0.54664587557E+03  0.91042607298E+02 0.  0.
        -11    1    3    3    0    0  0.32518628997E+02 -0.81960152539E+00 -0.51704612364E+02  0.61086004275E+02  0.00000000000E+00 0.  1.
         12    1    3    3    0    0 -0.29353986935E+02 -0.26302963545E+02 -0.21398946205E+03  0.21758904455E+03  0.00000000000E+00 0. -1.
        -11    1    4    4    0    0 -0.14492064156E+03 -0.25206086121E+01 -0.20469269296E+03  0.25081356497E+03  0.00000000000E+00 0. -1.
         11    1    4    4    0    0 -0.11955575522E+03  0.79749055261E+02 -0.25857932163E+03  0.29583231060E+03  0.00000000000E+00 0.  1.
         21    1    1    2  503  502 -0.17704942894E+02  0.79393269883E+02 -0.40704929893E+03  0.41509744406E+03  0.00000000000E+00 0.  1.
          1    1    1    2  501    0  0.27901669761E+03 -0.12949915146E+03 -0.56835085500E+03  0.64625307903E+03  0.00000000000E+00 0. -1.
<scales pt_clust_5="13000.00000" pt_clust_6="13000.00000" pt_clust_7="13000.00000" pt_clust_8="13000.00000" pt_clust_9="81.34345" pt_clust_10="289.26781"></scales>
<clustering>
<clus scale="   79.503">  5  6 -1 -1</clus>
<clus scale="   81.343">  2  9  1 -1</clus>
<clus scale="   81.343">  2  5  1 -1</clus>
<clus scale="   91.043">  7  8 -1 -1</clus>
<clus scale="  289.268">  1 10  2 -1</clus>
<clus scale="  289.268">  1  5  2 -1</clus>
</clustering>
</event>
<event>
10    4  0.2977685E-005  0.3196383E+03  0.7546771E-02  0.1076137E+00
         21   -1    0    0  501  502  0.00000000000E+00  0.00000000000E+00  0.15868786725E+03  0.15868786725E+03  0.00000000000E+00 0.  1.
          2   -1    0    0  503    0 -0.00000000000E+00 -0.00000000000E+00 -0.12697412543E+04  0.12697412543E+04  0.00000000000E+00 0. -1.
         23    2    1    2    0    0  0.12144911541E+03  0.23940354376E+03 -0.51270347993E+03  0.58580237086E+03  0.90750289141E+02 0.  0.
         24    2    1    2    0    0 -0.15356477760E+03 -0.37707577660E+03 -0.35324376172E+03  0.54499380759E+03  0.80428930767E+02 0.  0.
        -11    1    4    4    0    0 -0.70635212367E+02 -0.24715703784E+03 -0.18422956426E+03  0.31625380144E+03  0.00000000000E+00 0.  1.
         12    1    4    4    0    0 -0.82929565236E+02 -0.12991873876E+03 -0.16901419746E+03  0.22874000615E+03  0.00000000000E+00 0. -1.
        -13    1    3    3    0    0  0.68386031814E+02  0.17689387834E+03 -0.42684310250E+03  0.46707935909E+03  0.00000000000E+00 0.  1.
         13    1    3    3    0    0  0.53063083592E+02  0.62509665414E+02 -0.85860377436E+02  0.11872301177E+03  0.00000000000E+00 0. -1.
         21    1    1    2  503  502  0.15868283091E+02  0.62239202145E+02 -0.33593617266E+02  0.72484838503E+02  0.00000000000E+00 0.  1.
          1    1    1    2  501    0  0.16247379106E+02  0.75433030693E+02 -0.21151252816E+03  0.22514810462E+03  0.00000000000E+00 0. -1.
<scales pt_clust_5="13000.00000" pt_clust_6="13000.00000" pt_clust_7="13000.00000" pt_clust_8="13000.00000" pt_clust_9="64.23022" pt_clust_10="80.30579"></scales>
<clustering>
<clus scale="   64.230">  1  9  2 -1</clus>
<clus scale="   80.306">  1 10  2 -1</clus>
<clus scale="   80.429">  5  6 -1 -1</clus>
<clus scale="   90.750">  7  8 -1 -1</clus>
<clus scale="  316.863">  1  5  2 -1</clus>
<clus scale="   64.230">  1  5  2 -1</clus>
</clustering>
</event>
<event>
10    4  0.2977685E-005  0.2404818E+03  0.7546771E-02  0.1129023E+00
         21   -1    0    0  501  502  0.00000000000E+00  0.00000000000E+00  0.59428055388E+03  0.59428055388E+03  0.00000000000E+00 0. -1.
          2   -1    0    0  503    0 -0.00000000000E+00 -0.00000000000E+00 -0.30875079963E+03  0.30875079963E+03  0.00000000000E+00 0. -1.
         24    2    1    2    0    0  0.15086656473E+03 -0.89470218741E+02  0.16086446236E+03  0.25174158487E+03  0.82041513333E+02 0.  0.
         23    2    1    2    0    0 -0.63216010346E+02  0.25693069626E+03  0.13702338799E+03  0.31123248376E+03  0.89892176796E+02 0.  0.
        -13    1    3    3    0    0  0.10632645059E+03 -0.34099378982E+02  0.55603277598E+02  0.12473895230E+03  0.00000000000E+00 0.  1.
         14    1    3    3    0    0  0.44540114142E+02 -0.55370839759E+02  0.10526118476E+03  0.12700263257E+03  0.00000000000E+00 0. -1.
        -11    1    4    4    0    0 -0.56039840639E+01  0.42276592725E+02 -0.11195440781E+02  0.44091414404E+02  0.00000000000E+00 0.  1.
         11    1    4    4    0    0 -0.57612026282E+02  0.21465410353E+03  0.14821882877E+03  0.26714106936E+03  0.00000000000E+00 0. -1.
         21    1    1    2  503  502 -0.62557661911E+01  0.27548335972E+02 -0.10543419562E+03  0.10915317234E+03  0.00000000000E+00 0.  1.
          1    1    1    2  501    0 -0.81394788191E+02 -0.19500881349E+03  0.93076099526E+02  0.23090411254E+03  0.00000000000E+00 0. -1.
<scales pt_clust_5="13000.00000" pt_clust_6="13000.00000" pt_clust_7="13000.00000" pt_clust_8="13000.00000" pt_clust_9="28.24970" pt_clust_10="223.04907"></scales>
<clustering>
<clus scale="   28.250">  2  9  1 -1</clus>
<clus scale="   82.042">  5  6 -1 -1</clus>
<clus scale="   89.892">  7  8 -1 -1</clus>
<clus scale="  189.735">  2  5  1 -1</clus>
<clus scale="  223.049">  1 10  2 -1</clus>
<clus scale="  223.049">  1  5  2 -1</clus>
</clustering>
</event>
<event>
10    4  0.2977685E-005  0.1075037E+03  0.7546771E-02  0.1275232E+00
         21   -1    0    0  501  502  0.00000000000E+00  0.00000000000E+00  0.80063094640E+02  0.80063094640E+02  0.00000000000E+00 0. -1.
          2   -1    0    0  503    0 -0.00000000000E+00 -0.00000000000E+00 -0.68646373372E+03  0.68646373372E+03  0.00000000000E+00 0. -1.
         24    2    1    2    0    0  0.46180953285E+02 -0.93832854318E+01 -0.29616951846E+03  0.30941998563E+03  0.76181476395E+02 0.  0.
         23    2    1    2    0    0 -0.25522193796E+02  0.32039655299E+02 -0.22221433675E+03  0.24608361577E+03  0.97468008109E+02 0.  0.
        -11    1    3    3    0    0  0.66406011995E+00 -0.34770281225E+02 -0.83399247254E+02  0.90359547779E+02  0.00000000000E+00 0.  1.
         12    1    3    3    0    0  0.45516893165E+02  0.25386995794E+02 -0.21277027121E+03  0.21906043785E+03  0.00000000000E+00 0. -1.
        -11    1    4    4    0    0  0.18602935265E+02 -0.16596016943E+02 -0.15896355914E+02  0.29566723020E+02  0.00000000000E+00 0. -1.
         11    1    4    4    0    0 -0.44125129061E+02  0.48635672243E+02 -0.20631798083E+03  0.21651689274E+03  0.00000000000E+00 0.  1.
         21    1    1    2  503  502  0.11109027922E+02 -0.26142722906E+02 -0.14388399789E+03  0.14666102861E+03  0.00000000000E+00 0.  1.
          1    1    1    2  501    0 -0.31767787411E+02  0.34863530386E+01  0.55867214027E+02  0.64362198359E+02  0.00000000000E+00 0. -1.
<scales pt_clust_5="13000.00000" pt_clust_6="13000.00000" pt_clust_7="13000.00000" pt_clust_8="13000.00000" pt_clust_9="28.40515" pt_clust_10="31.85006"></scales>
<clustering>
<clus scale="   28.405">  2  9  1 -1</clus>
<clus scale="   31.850">  1 10  2 -1</clus>
<clus scale="   76.181">  5  6 -1 -1</clus>
<clus scale="   88.660">  2  5  1 -1</clus>
<clus scale="   97.468">  7  8 -1 -1</clus>
<clus scale="   31.850">  1  5  2 -1</clus>
</clustering>
</event>
<event>
10    4  0.2977685E-005  0.1375791E+03  0.7546771E-02  0.1233436E+00
         21   -1    0    0  503  502  0.00000000000E+00  0.00000000000E+00  0.80008131108E+02  0.80008131108E+02  0.00000000000E+00 0. -1.
          2   -1    0    0  502    0 -0.00000000000E+00 -0.00000000000E+00 -0.51522800944E+03  0.51522800944E+03  0.00000000000E+00 0. -1.
         24    2    1    2    0    0 -0.14992668721E+02  0.49736446409E+02 -0.68097643171E+02  0.11847150931E+03  0.81851788588E+02 0.  0.
         23    2    1    2    0    0  0.79929743586E+02  0.36703083868E+02 -0.33350392718E+03  0.35682083667E+03  0.91435002915E+02 0.  0.
        -11    1    3    3    0    0 -0.34892326461E+02 -0.13703245173E+01 -0.49464727378E+02  0.60548422686E+02  0.00000000000E+00 0.  1.
         12    1    3    3    0    0  0.19899657740E+02  0.51106770926E+02 -0.18632915793E+02  0.57923086620E+02  0.00000000000E+00 0. -1.
        -13    1    4    4    0    0 -0.20501060972E+02  0.19802930944E+01 -0.55863269844E+02  0.59539230591E+02  0.00000000000E+00 0.  1.
         13    1    4    4    0    0  0.10043080456E+03  0.34722790774E+02 -0.27764065734E+03  0.29728160608E+03  0.00000000000E+00 0. -1.
         21    1    1    2  503  501 -0.15664179765E+02 -0.50626193755E+02 -0.24383195886E+02  0.58334537484E+02  0.00000000000E+00 0.  1.
          1    1    1    2  501    0 -0.49272895100E+02 -0.35813336522E+02 -0.92351120956E+01  0.61609257095E+02  0.00000000000E+00 0. -1.
<scales pt_clust_5="13000.00000" pt_clust_6="13000.00000" pt_clust_7="13000.00000" pt_clust_8="13000.00000" pt_clust_9="36.93098" pt_clust_10="110.16058"></scales>
<clustering>
<clus scale="   36.931">  9 10 -1 -1</clus>
<clus scale="   81.852">  5  6 -1 -1</clus>
<clus scale="   91.435">  7  8 -1 -1</clus>
<clus scale="   96.944">  2  5  1 -1</clus>
<clus scale="  110.161">  1  9  2 -1</clus>
<clus scale="  110.161">  1  5  2 -1</clus>
</clustering>
</event>
<event>
10    4  0.2977685E-005  0.1688956E+03  0.7546771E-02  0.1191539E+00
          2   -1    0    0  503    0 -0.00000000000E+00  0.00000000000E+00  0.13043613253E+04  0.13043613253E+04  0.00000000000E+00 0. -1.
         21   -1    0    0  501  502  0.00000000000E+00 -0.00000000000E+00 -0.95005119806E+02  0.95005119806E+02  0.00000000000E+00 0. -1.
         23    2    1    2    0    0  0.59301739532E+02 -0.43989298626E+02  0.87279450993E+02  0.15057829323E+03  0.98001862846E+02 0.  0.
         24    2    1    2    0    0 -0.11964054337E+03 -0.33529969850E+02  0.76515308056E+03  0.77924962346E+03  0.79577763697E+02 0.  0.
        -11    1    4    4    0    0 -0.36695708791E+02 -0.50439026127E+02  0.35742542576E+03  0.36282723903E+03  0.00000000000E+00 0.  1.
         12    1    4    4    0    0 -0.82944834577E+02  0.16909056277E+02  0.40772765480E+03  0.41642238443E+03  0.00000000000E+00 0. -1.
        -13    1    3    3    0    0  0.80049342949E+02 -0.51855040291E+02  0.85882463199E+02  0.12834578293E+03  0.00000000000E+00 0.  1.
         13    1    3    3    0    0 -0.20747603417E+02  0.78657416649E+01  0.13969877940E+01  0.22232510303E+02  0.00000000000E+00 0. -1.
         21    1    1    2  503  502  0.23958541625E+02 -0.81919044182E+02  0.27238431446E+03  0.28544343797E+03  0.00000000000E+00 0. -1.
          1    1    1    2  501    0  0.36380262210E+02  0.15943831266E+03  0.84539359466E+02  0.18409509043E+03  0.00000000000E+00 0. -1.
<scales pt_clust_5="13000.00000" pt_clust_6="13000.00000" pt_clust_7="13000.00000" pt_clust_8="13000.00000" pt_clust_9="85.35070" pt_clust_10="148.97347"></scales>
<clustering>
<clus scale="   79.578">  5  6 -1 -1</clus>
<clus scale="   85.351">  1  9  2 -1</clus>
<clus scale="   98.002">  7  8 -1 -1</clus>
<clus scale="  127.748">  1  7  2 -1</clus>
<clus scale="  148.973">  2 10  1 -1</clus>
<clus scale="  148.973">  2  5  1 -1</clus>
</clustering>
</event>
<event>
10    4  0.2977685E-005  0.1418931E+03  0.7546771E-02  0.1213223E+00
          2   -1    0    0  503    0 -0.00000000000E+00  0.00000000000E+00  0.27887582533E+03  0.27887582533E+03  0.00000000000E+00 0. -1.
         21   -1    0    0  501  502  0.00000000000E+00 -0.00000000000E+00 -0.15733940677E+03  0.15733940677E+03  0.00000000000E+00 0. -1.
         23    2    1    2    0    0  0.10415913638E+03 -0.38999301596E+02  0.54995915016E+02  0.15528161141E+03  0.93368929292E+02 0.  0.
         24    2    1    2    0    0 -0.10538132770E+03  0.20858171033E+02  0.11669570618E+02  0.13573782065E+03  0.82147973493E+02 0.  0.
        -11    1    4    4    0    0 -0.56965889865E+02  0.42899141595E+02  0.32805713765E+02  0.78496266238E+02  0.00000000000E+00 0.  1.
         12    1    4    4    0    0 -0.48415437837E+02 -0.22040970562E+02 -0.21136143146E+02  0.57241554411E+02  0.00000000000E+00 0. -1.
        -11    1    3    3    0    0  0.57196434471E+02 -0.48055962737E+02  0.72739708064E+02  0.10426827322E+03  0.00000000000E+00 0. -1.
         11    1    3    3    0    0  0.46962701912E+02  0.90566611409E+01 -0.17743793048E+02  0.51013338193E+02  0.00000000000E+00 0.  1.
         21    1    1    2  503  502 -0.19665875034E+02 -0.13396660973E+02  0.90290920631E+02  0.93373805291E+02  0.00000000000E+00 0. -1.
          1    1    1    2  501    0  0.20888066354E+02  0.31537791537E+02 -0.35419987705E+02  0.51821994751E+02  0.00000000000E+00 0. -1.
<scales pt_clust_5="13000.00000" pt_clust_6="13000.00000" pt_clust_7="13000.00000" pt_clust_8="13000.00000" pt_clust_9="23.79532" pt_clust_10="36.86409"></scales>
<clustering>
<clus scale="   23.795">  1  9  2 -1</clus>
<clus scale="   36.864">  2 10  1 -1</clus>
<clus scale="   82.148">  5  6 -1 -1</clus>
<clus scale="   93.369">  7  8 -1 -1</clus>
<clus scale="  134.775">  2  5  1 -1</clus>
<clus scale="   36.864">  2  5  1 -1</clus>
</clustering>
</event>
<event>
10    4  0.2977685E-005  0.1624499E+03  0.7546771E-02  0.1199564E+00
         21   -1    0    0  503  502  0.00000000000E+00  0.00000000000E+00  0.15423512872E+03  0.15423512872E+03  0.00000000000E+00 0.  1.
          2   -1    0    0  502    0 -0.00000000000E+00 -0.00000000000E+00 -0.79274024062E+03  0.79274024062E+03  0.00000000000E+00 0. -1.
         23    2    1    2    0    0 -0.63163581050E+02 -0.44804107484E+02 -0.15367074971E+03  0.19483802853E+03  0.91378947393E+02 0.  0.
         24    2    1    2    0    0 -0.96488275939E+01  0.72427704671E+02  0.57051192189E+02  0.12559588054E+03  0.84738506001E+02 0.  0.
        -13    1    4    4    0    0 -0.85409258685E+01  0.72863332372E+02  0.76569107198E+02  0.10604169367E+03  0.00000000000E+00 0.  1.
         14    1    4    4    0    0 -0.11079017254E+01 -0.43562770017E+00 -0.19517915009E+02  0.19554186867E+02  0.00000000000E+00 0. -1.
        -11    1    3    3    0    0 -0.63564371641E+01  0.19616956079E+02 -0.22366324001E+01  0.20742029402E+02  0.00000000000E+00 0.  1.
         11    1    3    3    0    0 -0.56807143886E+02 -0.64421063563E+02 -0.15143411731E+03  0.17409599913E+03  0.00000000000E+00 0. -1.
         21    1    1    2  503  501 -0.52111064624E+02  0.79127325115E+02 -0.48349722753E+02  0.10636913239E+03  0.00000000000E+00 0.  1.
          1    1    1    2  501    0  0.12492347327E+03 -0.10675092230E+03 -0.49353583163E+03  0.52017232788E+03  0.00000000000E+00 0. -1.
<scales pt_clust_5="13000.00000" pt_clust_6="13000.00000" pt_clust_7="13000.00000" pt_clust_8="13000.00000" pt_clust_9="94.74543" pt_clust_10="138.59787"></scales>
<clustering>
<clus scale="   84.739">  5  6 -1 -1</clus>
<clus scale="   91.379">  7  8 -1 -1</clus>
<clus scale="   94.745">  1  9  2 -1</clus>
<clus scale="  120.442">  2  7  1 -1</clus>
<clus scale="  138.598">  1 10  2 -1</clus>
<clus scale="   94.745">  1  5  2 -1</clus>
</clustering>
</event>
<event>
10    4  0.2977685E-005  0.2180379E+03  0.7546771E-02  0.1156111E+00
         21   -1    0    0  503  502  0.00000000000E+00  0.00000000000E+00  0.23493484725E+03  0.23493484725E+03  0.00000000000E+00 0.  1.
         -3   -1    0    0    0  501 -0.00000000000E+00 -0.00000000000E+00 -0.57555440194E+03  0.57555440194E+03  0.00000000000E+00 0.  1.
         24    2    1    2    0    0  0.80901349132E+02 -0.57268048314E+02 -0.24494485881E+03  0.27816176097E+03  0.86898353039E+02 0.  0.
         23    2    1    2    0    0  0.16123065684E+03 -0.62387507345E+02  0.46282810674E+02  0.20102372905E+03  0.91547339121E+02 0.  0.
        -11    1    3    3    0    0  0.33210368048E+01 -0.52784700500E+02 -0.11815926233E+03  0.12945603565E+03  0.00000000000E+00 0.  1.
         12    1    3    3    0    0  0.77580312327E+02 -0.44833478142E+01 -0.12678559648E+03  0.14870572532E+03  0.00000000000E+00 0. -1.
        -13    1    4    4    0    0  0.13855714747E+03 -0.61039370801E+02  0.21873512628E+01  0.15142216617E+03  0.00000000000E+00 0.  1.
         13    1    4    4    0    0  0.22673509368E+02 -0.13481365449E+01  0.44095459412E+02  0.49601562878E+02  0.00000000000E+00 0. -1.
         21    1    1    2  503  501 -0.17141639591E+02 -0.25184075545E+02 -0.24433001837E+02  0.39051825151E+02  0.00000000000E+00 0. -1.
         -4    1    1    2    0  502 -0.22499036638E+03  0.14483963120E+03 -0.11752450471E+03  0.29225193402E+03  0.00000000000E+00 0.  1.
<scales pt_clust_5="13000.00000" pt_clust_6="13000.00000" pt_clust_7="13000.00000" pt_clust_8="13000.00000" pt_clust_9="30.46430" pt_clust_10="197.88794"></scales>
<clustering>
<clus scale="   30.464">  2  9  1 -1</clus>
<clus scale="   86.898">  5  6 -1 -1</clus>
<clus scale="   91.547">  7  8 -1 -1</clus>
<clus scale="  132.831">  2  5  1 -1</clus>
<clus scale="  197.888">  1 10  2 -1</clus>
<clus scale="  197.888">  1  5  2 -1</clus>
</clustering>
</event>
<event>
10    4  0.2977685E-005  0.9588105E+02  0.7546771E-02  0.1300034E+00
          2   -1    0    0  503    0 -0.00000000000E+00  0.00000000000E+00  0.68035300066E+02  0.68035300066E+02  0.00000000000E+00 0. -1.
         21   -1    0    0  501  502  0.00000000000E+00 -0.00000000000E+00 -0.51395263898E+03  0.51395263898E+03  0.00000000000E+00 0. -1.
         23    2    1    2    0    0 -0.34533243520E+02  0.15351549508E+02 -0.59893641504E+01  0.10019610251E+03  0.92602221864E+02 0.  0.
         24    2    1    2    0    0 -0.34451575663E+02 -0.25603956484E+02 -0.19695599341E+03  0.21485270726E+03  0.74347487000E+02 0.  0.
        -13    1    4    4    0    0 -0.16819558918E+02 -0.35068465727E+02 -0.18957454546E+03  0.19352313334E+03  0.00000000000E+00 0.  1.
         14    1    4    4    0    0 -0.17632016746E+02  0.94645092433E+01 -0.73814479472E+01  0.21329573918E+02  0.00000000000E+00 0. -1.
        -11    1    3    3    0    0 -0.40047988714E+02 -0.30849758059E+02 -0.15149704305E+02  0.52773691484E+02  0.00000000000E+00 0. -1.
         11    1    3    3    0    0  0.55147451933E+01  0.46201307567E+02  0.91603401549E+01  0.47422411022E+02  0.00000000000E+00 0.  1.
         21    1    1    2  503  502  0.26345642378E+02  0.12066774344E+02 -0.10875038904E+02  0.30951032076E+02  0.00000000000E+00 0. -1.
          1    1    1    2  501    0  0.42639176806E+02 -0.18143673684E+01 -0.23209694245E+03  0.23598809721E+03  0.00000000000E+00 0. -1.
<scales pt_clust_5="13000.00000" pt_clust_6="13000.00000" pt_clust_7="13000.00000" pt_clust_8="13000.00000" pt_clust_9="28.97758" pt_clust_10="43.54579"></scales>
<clustering>
<clus scale="   28.978">  1  9  2 -1</clus>
<clus scale="   43.546">  2 10  1 -1</clus>
<clus scale="   74.347">  5  6 -1 -1</clus>
<clus scale="   78.394">  2  5  1 -1</clus>
<clus scale="   92.602">  7  8 -1 -1</clus>
<clus scale="   43.546">  2  5  1 -1</clus>
</clustering>
</event>
<event>
10    4  0.2977685E-005  0.5834610E+03  0.7546771E-02  0.1041336E+00
          2   -1    0    0  503    0 -0.00000000000E+00  0.00000000000E+00  0.15702970642E+04  0.15702970642E+04  0.00000000000E+00 0. -1.
         21   -1    0    0  501  502  0.00000000000E+00 -0.00000000000E+00 -0.50576414352E+03  0.50576414352E+03  0.00000000000E+00 0. -1.
         23    2    1    2    0    0  0.81677611408E+02 -0.66058251353E+02  0.51669986051E+03  0.53496839616E+03  0.90429609425E+02 0.  0.
         24    2    1    2    0    0  0.29829657485E+03 -0.40168095597E+03  0.73466448850E+03  0.89304222941E+03  0.86394883475E+02 0.  0.
        -13    1    4    4    0    0  0.16562582749E+03 -0.26430650661E+03  0.39425525094E+03  0.50271965056E+03  0.00000000000E+00 0.  1.
         14    1    4    4    0    0  0.13267074735E+03 -0.13737444936E+03  0.34040923756E+03  0.39032257885E+03  0.00000000000E+00 0. -1.
        -11    1    3    3    0    0  0.57497693091E+02 -0.88515990829E+02  0.38696043942E+03  0.40109780231E+03  0.00000000000E+00 0.  1.
         11    1    3    3    0    0  0.24179918317E+02  0.22457739476E+02  0.12973942108E+03  0.13387059384E+03  0.00000000000E+00 0. -1.
         21    1    1    2  503  502 -0.30359555547E+02 -0.63879128170E+01 -0.42447440334E+01  0.31313350109E+02  0.00000000000E+00 0. -1.
          1    1    1    2  501    0 -0.34961463071E+03  0.47412712014E+03 -0.18258668432E+03  0.61673723201E+03  0.00000000000E+00 0. -1.
<scales pt_clust_5="13000.00000" pt_clust_6="13000.00000" pt_clust_7="13000.00000" pt_clust_8="13000.00000" pt_clust_9="31.02431" pt_clust_10="577.02917"></scales>
<clustering>
<clus scale="   31.024">  2  9  1 -1</clus>
<clus scale="   86.395">  5  6 -1 -1</clus>
<clus scale="   90.430">  7  8 -1 -1</clus>
<clus scale="  138.332">  1  7  2 -1</clus>
<clus scale="  577.029">  2 10  1 -1</clus>
<clus scale="   31.024">  2  5  1 -1</clus>
</clustering>
</event>
<event>
10    4  0.2977685E-005  0.1750549E+03  0.7546771E-02  0.1173551E+00
          2   -1    0    0  503    0 -0.00000000000E+00  0.00000000000E+00  0.24155050930E+03  0.24155050930E+03  0.00000000000E+00 0. -1.
         21   -1    0    0  501  502  0.00000000000E+00 -0.00000000000E+00 -0.25849892705E+03  0.25849892705E+03  0.00000000000E+00 0.  1.
         24    2    1    2    0    0  0.12720381588E+03  0.64947993357E+02  0.61353296170E+02  0.17716603772E+03  0.84997207935E+02 0.  0.
         23    2    1    2    0    0 -0.16865067515E+03 -0.53874186995E+01  0.28413010863E+01  0.19209526484E+03  0.91762973329E+02 0.  0.
        -11    1    3    3    0    0  0.10921023080E+03  0.81301409298E+02  0.33534554857E+02  0.14021897173E+03  0.00000000000E+00 0.  1.
         12    1    3    3    0    0  0.17993585079E+02 -0.16353415940E+02  0.27818741313E+02  0.36947065989E+02  0.00000000000E+00 0. -1.
        -13    1    4    4    0    0 -0.97331192056E+02 -0.24825350781E+02  0.41492019344E+02  0.10867955952E+03  0.00000000000E+00 0. -1.
         13    1    4    4    0    0 -0.71319483090E+02  0.19437932081E+02 -0.38650718258E+02  0.83415705318E+02  0.00000000000E+00 0.  1.
         21    1    1    2  503  502  0.33598853339E+02 -0.36765594025E+02 -0.40001042845E+01  0.49965915222E+02  0.00000000000E+00 0. -1.
          1    1    1    2  501    0  0.78480059279E+01 -0.22794980633E+02 -0.77142910721E+02  0.80822218564E+02  0.00000000000E+00 0. -1.
<scales pt_clust_5="13000.00000" pt_clust_6="13000.00000" pt_clust_7="13000.00000" pt_clust_8="13000.00000" pt_clust_9="53.15008" pt_clust_10="24.10814"></scales>
<clustering>
<clus scale="   24.108">  2 10  1 -1</clus>
<clus scale="   53.150">  2  9  1 -1</clus>
<clus scale="   84.997">  5  6 -1 -1</clus>
<clus scale="   91.763">  7  8 -1 -1</clus>
<clus scale="  171.605">  1  5  2 -1</clus>
<clus scale="   24.108">  2  5  1 -1</clus>
</clustering>
</event>
<event>
10    4  0.2977685E-005  0.9515412E+02  0.7546771E-02  0.1296840E+00
         21   -1    0    0  501  502  0.00000000000E+00  0.00000000000E+00  0.17092670839E+03  0.17092670839E+03  0.00000000000E+00 0.  1.
          2   -1    0    0  503    0 -0.00000000000E+00 -0.00000000000E+00 -0.30323873143E+03  0.30323873143E+03  0.00000000000E+00 0. -1.
         24    2    1    2    0    0 -0.15074809727E+02 -0.72254145025E+01 -0.85258592884E+02  0.11891247499E+03  0.81189239091E+02 0.  0.
         23    2    1    2    0    0  0.77935011800E+02  0.53979362113E+02  0.10627242668E+03  0.16937773533E+03  0.91691607887E+02 0.  0.
        -13    1    3    3    0    0 -0.27171860673E+02  0.27300943579E+02 -0.18373742720E+02  0.42676058326E+02  0.00000000000E+00 0.  1.
         14    1    3    3    0    0  0.12097050945E+02 -0.34526358082E+02 -0.66884850164E+02  0.76236416662E+02  0.00000000000E+00 0. -1.
        -13    1    4    4    0    0  0.62869575345E+02  0.31619594285E+02  0.12000741837E+03  0.13911923918E+03  0.00000000000E+00 0.  1.
         13    1    4    4    0    0  0.15065436455E+02  0.22359767827E+02 -0.13734991689E+02  0.30258496156E+02  0.00000000000E+00 0. -1.
         21    1    1    2  503  502  0.12407015602E+02 -0.15732579676E+02 -0.53087744499E+02  0.56742900132E+02  0.00000000000E+00 0. -1.
          1    1    1    2  501    0 -0.75267217675E+02 -0.31021367934E+02 -0.10023811233E+03  0.12913232937E+03  0.00000000000E+00 0. -1.
<scales pt_clust_5="13000.00000" pt_clust_6="13000.00000" pt_clust_7="13000.00000" pt_clust_8="13000.00000" pt_clust_9="20.03617" pt_clust_10="79.38099"></scales>
<clustering>
<clus scale="   20.036">  2  9  1 -1</clus>
<clus scale="   79.381">  1 10  2 -1</clus>
<clus scale="   81.189">  5  6 -1 -1</clus>
<clus scale="   85.080">  2  5  1 -1</clus>
<clus scale="   91.692">  7  8 -1 -1</clus>
<clus scale="   79.381">  1  5  2 -1</clus>
</clustering>
</event>
<event>
10    4  0.2977685E-005  0.1041617E+03  0.7546771E-02  0.1277757E+00
          2   -1    0    0  503    0 -0.00000000000E+00  0.00000000000E+00  0.20434975873E+03  0.20434975873E+03  0.00000000000E+00 0. -1.
         21   -1    0    0  501  502  0.00000000000E+00 -0.00000000000E+00 -0.18968315166E+03  0.18968315166E+03  0.00000000000E+00 0.  1.
         24    2    1    2    0    0  0.27739311142E+02  0.38144605663E+02  0.80938659570E+02  0.12387767901E+03  0.81056353364E+02 0.  0.
         23    2    1    2    0    0  0.19112776664E+02 -0.87230052182E+02 -0.87167411270E+02  0.15609825658E+03  0.93777011489E+02 0.  0.
        -13    1    3    3    0    0  0.43142549581E+02 -0.47595192333E+01  0.20039343954E+02  0.47806986035E+02  0.00000000000E+00 0.  1.
         14    1    3    3    0    0 -0.15403238438E+02  0.42904124896E+02  0.60899315616E+02  0.76070692977E+02  0.00000000000E+00 0. -1.
        -11    1    4    4    0    0 -0.20370414142E+02 -0.61951026423E+02 -0.10243642635E+02  0.66013753580E+02  0.00000000000E+00 0. -1.
         11    1    4    4    0    0  0.39483190806E+02 -0.25279025759E+02 -0.76923768635E+02  0.90084502999E+02  0.00000000000E+00 0.  1.
         21    1    1    2  503  502 -0.42026846514E+02 -0.37551643450E+01  0.39530911031E+02  0.57819114609E+02  0.00000000000E+00 0. -1.
          1    1    1    2  501    0 -0.48252412928E+01  0.52840610864E+02 -0.18635552260E+02  0.56237860184E+02  0.00000000000E+00 0. -1.
<scales pt_clust_5="13000.00000" pt_clust_6="13000.00000" pt_clust_7="13000.00000" pt_clust_8="13000.00000" pt_clust_9="42.19428" pt_clust_10="53.31450"></scales>
<clustering>
<clus scale="   42.194">  1  9  2 -1</clus>
<clus scale="   53.314">  2 10  1 -1</clus>
<clus scale="   81.056">  5  6 -1 -1</clus>
<clus scale="   92.874">  1  5  2 -1</clus>
<clus scale="   93.777">  7  8 -1 -1</clus>
<clus scale="   53.314">  2  5  1 -1</clus>
</clustering>
</event>
<event>
10    4  0.2977685E-005  0.1159617E+03  0.7546771E-02  0.1253115E+00
          4   -1    0    0  503    0 -0.00000000000E+00  0.00000000000E+00  0.63022403925E+03  0.63022403925E+03  0.00000000000E+00 0. -1.
         21   -1    0    0  501  502  0.00000000000E+00 -0.00000000000E+00 -0.10885375729E+03  0.10885375729E+03  0.00000000000E+00 0. -1.
         24    2    1    2    0    0  0.77866560937E+02 -0.13192190690E+02  0.34814629340E+03  0.36605797534E+03  0.80965205462E+02 0.  0.
         23    2    1    2    0    0 -0.32125642963E+02 -0.19082534946E+02 -0.33517929733E+02  0.10337668731E+03  0.90371941391E+02 0.  0.
        -11    1    3    3    0    0  0.62466744163E+01  0.22880367677E+02  0.31591367183E+02  0.39503754844E+02  0.00000000000E+00 0.  1.
         12    1    3    3    0    0  0.71619886520E+02 -0.36072558367E+02  0.31655492622E+03  0.32655422050E+03  0.00000000000E+00 0. -1.
        -11    1    4    4    0    0 -0.39558062819E+02  0.15738589838E+02  0.13258540639E+02  0.44590721501E+02  0.00000000000E+00 0.  1.
         11    1    4    4    0    0  0.74324198560E+01 -0.34821124784E+02 -0.46776470372E+02  0.58785965813E+02  0.00000000000E+00 0. -1.
         21    1    1    2  503  502 -0.31388140790E+01  0.43042859202E+02  0.21964596607E+03  0.22384568411E+03  0.00000000000E+00 0. -1.
          3    1    1    2  501    0 -0.42602103894E+02 -0.10768133566E+02 -0.12904047788E+02  0.45797449776E+02  0.00000000000E+00 0. -1.
<scales pt_clust_5="13000.00000" pt_clust_6="13000.00000" pt_clust_7="13000.00000" pt_clust_8="13000.00000" pt_clust_9="43.15715" pt_clust_10="43.67329"></scales>
<clustering>
<clus scale="   43.157">  1  9  2 -1</clus>
<clus scale="   43.673">  2 10  1 -1</clus>
<clus scale="   80.965">  5  6 -1 -1</clus>
<clus scale="   90.372">  7  8 -1 -1</clus>
<clus scale="  108.791">  1  5  2 -1</clus>
<clus scale="   43.673">  2  5  1 -1</clus>
</clustering>
</event>
<event>
10    4  0.2977685E-005  0.9588373E+02  0.7546771E-02  0.1294361E+00
         -3   -1    0    0    0  501 -0.00000000000E+00  0.00000000000E+00  0.55397831437E+02  0.55397831437E+02  0.00000000000E+00 0.  1.
         21   -1    0    0  503  502  0.00000000000E+00 -0.00000000000E+00 -0.44094894888E+03  0.44094894888E+03  0.00000000000E+00 0. -1.
         24    2    1    2    0    0  0.59898446597E+02 -0.21581458491E+02 -0.77121925922E+02  0.12853858544E+03  0.80751428674E+02 0.  0.
         23    2    1    2    0    0 -0.94211985720E+01 -0.11660879077E+02 -0.19849948710E+03  0.21854093128E+03  0.90185127283E+02 0.  0.
        -11    1    3    3    0    0  0.50964275686E+02  0.23020674446E+02 -0.53013292411E+02  0.77056589728E+02  0.00000000000E+00 0.  1.
         12    1    3    3    0    0  0.89341709111E+01 -0.44602132938E+02 -0.24108633510E+02  0.51481995709E+02  0.00000000000E+00 0. -1.
        -11    1    4    4    0    0  0.22226469618E+02  0.26467314523E+02 -0.42045228813E+02  0.54427345661E+02  0.00000000000E+00 0.  1.
         11    1    4    4    0    0 -0.31647668190E+02 -0.38128193600E+02 -0.15645425829E+03  0.16411358562E+03  0.00000000000E+00 0. -1.
         21    1    1    2  503  501 -0.30546014936E+02  0.18752199456E+02  0.77705943957E+00  0.35851190137E+02  0.00000000000E+00 0. -1.
         -4    1    1    2    0  502 -0.19931233090E+02  0.14490138112E+02 -0.11070676386E+03  0.11341607346E+03  0.00000000000E+00 0.  1.
<scales pt_clust_5="13000.00000" pt_clust_6="13000.00000" pt_clust_7="13000.00000" pt_clust_8="13000.00000" pt_clust_9="37.15287" pt_clust_10="24.64180"></scales>
<clustering>
<clus scale="   24.642">  2 10  1 -1</clus>
<clus scale="   37.153">  1  9  2 -1</clus>
<clus scale="   80.751">  5  6 -1 -1</clus>
<clus scale="   87.070">  1  5  2 -1</clus>
<clus scale="   90.185">  7  8 -1 -1</clus>
<clus scale="   24.642">  2  5  1 -1</clus>
</clustering>
</event>
<event>
10    4  0.2977685E-005  0.2239914E+03  0.7546771E-02  0.1151245E+00
         21   -1    0    0  501  502  0.00000000000E+00  0.00000000000E+00  0.12828900793E+03  0.12828900793E+03  0.00000000000E+00 0. -1.
          2   -1    0    0  503    0 -0.00000000000E+00 -0.00000000000E+00 -0.87392021028E+03  0.87392021028E+03  0.00000000000E+00 0. -1.
         24    2    1    2    0    0 -0.17989019724E+02 -0.96207872790E+02 -0.12873388601E+03  0.18297194716E+03  0.85596497736E+02 0.  0.
         23    2    1    2    0    0 -0.26885584195E+02  0.24926628048E+03 -0.20178973659E+03  0.33465214455E+03  0.91741194856E+02 0.  0.
        -11    1    3    3    0    0 -0.28200308622E+02 -0.72179131585E+02 -0.13541679392E+03  0.15602176937E+03  0.00000000000E+00 0.  1.
         12    1    3    3    0    0  0.10211288898E+02 -0.24028741204E+02  0.66829079107E+01  0.26950177791E+02  0.00000000000E+00 0. -1.
        -11    1    4    4    0    0  0.17691507731E+02  0.15801076153E+02 -0.13900162527E+01  0.23761220478E+02  0.00000000000E+00 0.  1.
         11    1    4    4    0    0 -0.44577091926E+02  0.23346520433E+03 -0.20039972034E+03  0.31089092407E+03  0.00000000000E+00 0. -1.
         21    1    1    2  503  502 -0.72535954737E+02 -0.29214905689E+02 -0.10944750025E+03  0.13451293899E+03  0.00000000000E+00 0.  1.
          1    1    1    2  501    0  0.11741055866E+03 -0.12384350200E+03 -0.30566007949E+03  0.35007218751E+03  0.00000000000E+00 0. -1.
<scales pt_clust_5="13000.00000" pt_clust_6="13000.00000" pt_clust_7="13000.00000" pt_clust_8="13000.00000" pt_clust_9="78.19831" pt_clust_10="204.34220"></scales>
<clustering>
<clus scale="   78.198">  2  9  1 -1</clus>
<clus scale="   85.596">  5  6 -1 -1</clus>
<clus scale="   91.741">  7  8 -1 -1</clus>
<clus scale="  137.387">  2  5  1 -1</clus>
<clus scale="  204.342">  1 10  2 -1</clus>
<clus scale="  204.342">  1  5  2 -1</clus>
</clustering>
</event>
<event>
10    4  0.2977685E-005  0.1211911E+03  0.7546771E-02  0.1245651E+00
         21   -1    0    0  503  502  0.00000000000E+00  0.00000000000E+00  0.34788355858E+03  0.34788355858E+03  0.00000000000E+00 0.  1.
         -1   -1    0    0    0  501 -0.00000000000E+00 -0.00000000000E+00 -0.11999076141E+03  0.11999076141E+03  0.00000000000E+00 0.  1.
         23    2    1    2    0    0  0.30354801623E+02  0.48628995520E+02  0.74799916418E+02  0.13305621711E+03  0.93929421524E+02 0.  0.
         24    2    1    2    0    0 -0.28699170376E+02 -0.10785444938E+03  0.15399050558E+03  0.20627158642E+03  0.79866556993E+02 0.  0.
        -13    1    4    4    0    0 -0.26701866573E+02 -0.10319116293E+03  0.82984367173E+02  0.13508445869E+03  0.00000000000E+00 0.  1.
         14    1    4    4    0    0 -0.19973038025E+01 -0.46632864479E+01  0.71006138406E+02  0.71187127729E+02  0.00000000000E+00 0. -1.
        -11    1    3    3    0    0 -0.15625197157E+02 -0.13790780908E+02 -0.53811913754E+01  0.21524164208E+02  0.00000000000E+00 0. -1.
         11    1    3    3    0    0  0.45979998780E+02  0.62419776428E+02  0.80181107793E+02  0.11153205290E+03  0.00000000000E+00 0.  1.
         21    1    1    2  503  501 -0.53582067090E+02  0.15529362159E+02 -0.17891452564E+02  0.58585860731E+02  0.00000000000E+00 0. -1.
         -2    1    1    2    0  502  0.51926435843E+02  0.43696091699E+02  0.16993827731E+02  0.69960655729E+02  0.00000000000E+00 0.  1.
<scales pt_clust_5="13000.00000" pt_clust_6="13000.00000" pt_clust_7="13000.00000" pt_clust_8="13000.00000" pt_clust_9="55.78709" pt_clust_10="59.74358"></scales>
<clustering>
<clus scale="   55.787">  2  9  1 -1</clus>
<clus scale="   59.744">  1 10  2 -1</clus>
<clus scale="   79.867">  5  6 -1 -1</clus>
<clus scale="   93.929">  7  8 -1 -1</clus>
<clus scale="  110.649">  1  5  2 -1</clus>
<clus scale="   59.744">  1  5  2 -1</clus>
</clustering>
</event>
<event>
10    4  0.2977685E-005  0.1431014E+03  0.7546771E-02  0.1223102E+00
         -3   -1    0    0    0  501 -0.00000000000E+00  0.00000000000E+00  0.53602527968E+03  0.53602527968E+03  0.00000000000E+00 0.  1.
         21   -1    0    0  503  502  0.00000000000E+00 -0.00000000000E+00 -0.95945941250E+02  0.95945941250E+02  0.00000000000E+00 0.  1.
         23    2    1    2    0    0 -0.22535541091E+02  0.54601178563E+02  0.16068406269E+03  0.19386014620E+03  0.90957401940E+02 0.  0.
         24    2    1    2    0    0 -0.74410346885E+02 -0.42559033133E+02  0.44878204430E+02  0.12704674709E+03  0.82332567612E+02 0.  0.
        -13    1    4    4    0    0 -0.88835863889E+02 -0.32888273388E+02  0.52246575618E+02  0.10818111620E+03  0.00000000000E+00 0.  1.
         14    1    4    4    0    0  0.14425517005E+02 -0.96707597452E+01 -0.73683711881E+01  0.18865630890E+02  0.00000000000E+00 0. -1.
        -13    1    3    3    0    0 -0.54765561247E+02  0.32946135235E+02  0.67739876517E+02  0.93131119376E+02  0.00000000000E+00 0.  1.
         13    1    3    3    0    0  0.32230020156E+02  0.21655043327E+02  0.92944186174E+02  0.10072902682E+03  0.00000000000E+00 0. -1.
         21    1    1    2  503  501  0.13784621846E+03  0.27579861091E+02  0.20003876713E+03  0.24449486096E+03  0.00000000000E+00 0.  1.
         -4    1    1    2    0  502 -0.40900330486E+02 -0.39622006520E+02  0.34478304179E+02  0.66569466677E+02  0.00000000000E+00 0.  1.
<scales pt_clust_5="13000.00000" pt_clust_6="13000.00000" pt_clust_7="13000.00000" pt_clust_8="13000.00000" pt_clust_9="117.04423" pt_clust_10="56.94507"></scales>
<clustering>
<clus scale="   56.945">  2 10  1 -1</clus>
<clus scale="   82.333">  5  6 -1 -1</clus>
<clus scale="   90.957">  7  8 -1 -1</clus>
<clus scale="  106.708">  1  7  2 -1</clus>
<clus scale="  117.044">  1  9  2 -1</clus>
<clus scale="   56.945">  2  5  1 -1</clus>
</clustering>
</event>
<event>
10    4  0.2977685E-005  0.2310817E+03  0.7546771E-02  0.1126559E+00
         -1   -1    0    0    0  501 -0.00000000000E+00  0.00000000000E+00  0.83706298075E+03  0.83706298075E+03  0.00000000000E+00 0.  1.
         21   -1    0    0  503  502  0.00000000000E+00 -0.00000000000E+00 -0.17271880919E+03  0.17271880919E+03  0.00000000000E+00 0.  1.
         23    2    1    2    0    0  0.24614047161E+03 -0.28744961477E+02  0.63215876212E+03  0.68509653038E+03  0.91220342259E+02 0.  0.
         24    2    1    2    0    0 -0.13288262547E+03  0.81307735935E+02  0.35307512160E+01  0.17561297765E+03  0.80985873108E+02 0.  0.
        -11    1    4    4    0    0 -0.13145111769E+03  0.94167118852E+02 -0.15635394672E+01  0.16170741254E+03  0.00000000000E+00 0.  1.
         12    1    4    4    0    0 -0.14315077719E+01 -0.12859382917E+02  0.50942906832E+01  0.13905565111E+02  0.00000000000E+00 0. -1.
        -11    1    3    3    0    0  0.21815135049E+03 -0.24744959775E+01  0.58458171506E+03  0.62396467562E+03  0.00000000000E+00 0. -1.
         11    1    3    3    0    0  0.27989121118E+02 -0.26270465500E+02  0.47577047064E+02  0.61131854755E+02  0.00000000000E+00 0.  1.
         21    1    1    2  503  501 -0.22539313733E+02 -0.18806470008E+02  0.42125008074E+02  0.51344135819E+02  0.00000000000E+00 0. -1.
         -2    1    1    2    0  502 -0.90718532406E+02 -0.33756304449E+02 -0.13470349845E+02  0.97728146083E+02  0.00000000000E+00 0.  1.
<scales pt_clust_5="13000.00000" pt_clust_6="13000.00000" pt_clust_7="13000.00000" pt_clust_8="13000.00000" pt_clust_9="29.35479" pt_clust_10="98.27238"></scales>
<clustering>
<clus scale="   29.355">  1  9  2 -1</clus>
<clus scale="   80.986">  5  6 -1 -1</clus>
<clus scale="   91.220">  7  8 -1 -1</clus>
<clus scale="   98.272">  2 10  1 -1</clus>
<clus scale="  227.236">  2  5  1 -1</clus>
<clus scale="   98.272">  2  5  1 -1</clus>
</clustering>
</event>
<event>
10    4  0.2977685E-005  0.5469126E+03  0.7546771E-02  0.1056957E+00
          2   -1    0    0  503    0 -0.00000000000E+00  0.00000000000E+00  0.43383588950E+03  0.43383588950E+03  0.00000000000E+00 0. -1.
         21   -1    0    0  501  502  0.00000000000E+00 -0.00000000000E+00 -0.92703355748E+03  0.92703355748E+03  0.00000000000E+00 0. -1.
         23    2    1    2    0    0  0.34297728745E+02 -0.45684587852E+02 -0.12416180632E+03  0.16438632472E+03  0.91341632581E+02 0.  0.
         24    2    1    2    0    0 -0.42737654629E+03  0.37728228193E+03 -0.13735257889E+03  0.59192902648E+03  0.80756478888E+02 0.  0.
        -11    1    4    4    0    0 -0.20212533653E+02  0.91676457685E+01  0.88470279336E+01  0.23892721672E+02  0.00000000000E+00 0.  1.
         12    1    4    4    0    0 -0.40716401264E+03  0.36811463617E+03 -0.14619960682E+03  0.56803630481E+03  0.00000000000E+00 0. -1.
        -11    1    3    3    0    0  0.36579618954E-02 -0.61445172189E+02 -0.43357845657E+02  0.75202473222E+02  0.00000000000E+00 0. -1.
         11    1    3    3    0    0  0.34294070783E+02  0.15760584337E+02 -0.80803960658E+02  0.89183851496E+02  0.00000000000E+00 0.  1.
         21    1    1    2  503  502  0.10953620072E+02  0.20959310773E+02  0.16099909302E+02  0.28609117084E+02  0.00000000000E+00 0.  1.
          1    1    1    2  501    0  0.38212519747E+03 -0.35255700486E+03 -0.24778319208E+03  0.57594497870E+03  0.00000000000E+00 0. -1.
<scales pt_clust_5="13000.00000" pt_clust_6="13000.00000" pt_clust_7="13000.00000" pt_clust_8="13000.00000" pt_clust_9="23.64899" pt_clust_10="540.91750"></scales>
<clustering>
<clus scale="   23.649">  1  9  2 -1</clus>
<clus scale="   80.756">  5  6 -1 -1</clus>
<clus scale="   91.342">  7  8 -1 -1</clus>
<clus scale="  107.476">  1  7  2 -1</clus>
<clus scale="  540.917">  2 10  1 -1</clus>
<clus scale="  540.917">  2  5  1 -1</clus>
</clustering>
</event>
<event>
10    4  0.2977685E-005  0.1196539E+03  0.7546771E-02  0.1246667E+00
          2   -1    0    0  503    0 -0.00000000000E+00  0.00000000000E+00  0.86090124918E+03  0.86090124918E+03  0.00000000000E+00 0. -1.
         21   -1    0    0  501  502  0.00000000000E+00 -0.00000000000E+00 -0.14746722609E+03  0.14746722609E+03  0.00000000000E+00 0.  1.
         24    2    1    2    0    0  0.42922630666E+02 -0.27001954458E+02  0.49308043828E+03  0.50214783375E+03  0.80328516482E+02 0.  0.
         23    2    1    2    0    0  0.63289048093E+02  0.78083566484E+02 -0.92811032319E+02  0.16369926472E+03  0.89894463607E+02 0.  0.
        -13    1    3    3    0    0  0.62601927783E+02 -0.37206231605E+02  0.37604587582E+03  0.38303238212E+03  0.00000000000E+00 0.  1.
         14    1    3    3    0    0 -0.19679297117E+02  0.10204277147E+02  0.11703456246E+03  0.11911545163E+03  0.00000000000E+00 0. -1.
        -13    1    4    4    0    0  0.66528165390E+02  0.38076357547E+02 -0.96673499125E+02  0.12337573192E+03  0.00000000000E+00 0.  1.
         13    1    4    4    0    0 -0.32391172963E+01  0.40007208936E+02  0.38624668054E+01  0.40323532801E+02  0.00000000000E+00 0. -1.
         21    1    1    2  503  502 -0.62277104610E+02 -0.62207307172E+02  0.24789990152E+03  0.26306377173E+03  0.00000000000E+00 0. -1.
          1    1    1    2  501    0 -0.43934574149E+02  0.11125695146E+02  0.65264715614E+02  0.79457605063E+02  0.00000000000E+00 0. -1.
<scales pt_clust_5="13000.00000" pt_clust_6="13000.00000" pt_clust_7="13000.00000" pt_clust_8="13000.00000" pt_clust_9="89.30279" pt_clust_10="45.32141"></scales>
<clustering>
<clus scale="   45.321">  2 10  1 -1</clus>
<clus scale="   80.329">  5  6 -1 -1</clus>
<clus scale="   89.303">  1  9  2 -1</clus>
<clus scale="   89.894">  7  8 -1 -1</clus>
<clus scale="  112.644">  1  5  2 -1</clus>
<clus scale="   45.321">  2  5  1 -1</clus>
</clustering>
</event>
<event>
10    4  0.2977685E-005  0.1141453E+03  0.7546771E-02  0.1259640E+00
          2   -1    0    0  503    0 -0.00000000000E+00  0.00000000000E+00  0.13543268883E+04  0.13543268883E+04  0.00000000000E+00 0. -1.
         21   -1    0    0  501  502  0.00000000000E+00 -0.00000000000E+00 -0.41124174964E+02  0.41124174964E+02  0.00000000000E+00 0. -1.
         23    2    1    2    0    0 -0.76071598715E+01 -0.10255031654E+02  0.51080917006E+03  0.52004829427E+03  0.96753220123E+02 0.  0.
         24    2    1    2    0    0  0.45845103517E+01  0.40418967439E+02  0.48146876540E+02  0.10177027614E+03  0.79902169694E+02 0.  0.
        -13    1    4    4    0    0 -0.19630194721E+02  0.20438012550E+02 -0.14399728896E+02  0.31786932757E+02  0.00000000000E+00 0.  1.
         14    1    4    4    0    0  0.24214705073E+02  0.19980954889E+02  0.62546605437E+02  0.69983343387E+02  0.00000000000E+00 0. -1.
        -11    1    3    3    0    0  0.43692926852E+02  0.34351674998E+01  0.26157278247E+03  0.26521914102E+03  0.00000000000E+00 0.  1.
         11    1    3    3    0    0 -0.51300086724E+02 -0.13690199154E+02  0.24923638759E+03  0.25482915326E+03  0.00000000000E+00 0. -1.
         21    1    1    2  503  502  0.17882720254E+01 -0.83004541696E+02  0.66303826664E+03  0.66821605405E+03  0.00000000000E+00 0. -1.
          1    1    1    2  501    0  0.12343774944E+01  0.52840605911E+02  0.91208400102E+02  0.10541643880E+03  0.00000000000E+00 0. -1.
<scales pt_clust_5="13000.00000" pt_clust_6="13000.00000" pt_clust_7="13000.00000" pt_clust_8="13000.00000" pt_clust_9="79.00586" pt_clust_10="52.85502"></scales>
<clustering>
<clus scale="   52.855">  2 10  1 -1</clus>
<clus scale="   79.006">  1  9  2 -1</clus>
<clus scale="   79.902">  5  6 -1 -1</clus>
<clus scale="   96.753">  7  8 -1 -1</clus>
<clus scale="  100.261">  2  5  1 -1</clus>
<clus scale="   52.855">  2  5  1 -1</clus>
</clustering>
</event>
<event>
10    4  0.2977685E-005  0.2118747E+03  0.7546771E-02  0.1141029E+00
         21   -1    0    0  503  502  0.00000000000E+00  0.00000000000E+00  0.38159513620E+03  0.38159513620E+03  0.00000000000E+00 0.  1.
         -3   -1    0    0    0  501 -0.00000000000E+00 -0.00000000000E+00 -0.21187190306E+03  0.21187190306E+03  0.00000000000E+00 0.  1.
         24    2    1    2    0    0  0.11816852423E+03 -0.18597673694E+03  0.67397747691E+02  0.24449376970E+03  0.81753288780E+02 0.  0.
         23    2    1    2    0    0 -0.95771778111E+02  0.12160446349E+03  0.13858408862E+03  0.22767572427E+03  0.93117166938E+02 0.  0.
        -11    1    3    3    0    0  0.79370319144E+02 -0.16419415632E+03  0.26930627286E+02  0.18434919912E+03  0.00000000000E+00 0.  1.
         12    1    3    3    0    0  0.38798205084E+02 -0.21782580625E+02  0.40467120406E+02  0.60144570581E+02  0.00000000000E+00 0. -1.
        -11    1    4    4    0    0 -0.11417031724E+03  0.10593144618E+03  0.12654651654E+03  0.20067474549E+03  0.00000000000E+00 0.  1.
         11    1    4    4    0    0  0.18398539125E+02  0.15673017313E+02  0.12037572080E+02  0.27000978782E+02  0.00000000000E+00 0. -1.
         21    1    1    2  503  501  0.29810906880E+02  0.87774822800E+01 -0.32459954259E+02  0.44937545490E+02  0.00000000000E+00 0. -1.
         -4    1    1    2    0  502 -0.52207652997E+02  0.55594791174E+02 -0.37986489137E+01  0.76359999808E+02  0.00000000000E+00 0.  1.
<scales pt_clust_5="13000.00000" pt_clust_6="13000.00000" pt_clust_7="13000.00000" pt_clust_8="13000.00000" pt_clust_9="31.07627" pt_clust_10="73.30500"></scales>
<clustering>
<clus scale="   31.076">  2  9  1 -1</clus>
<clus scale="   73.305">  1 10  2 -1</clus>
<clus scale="   81.753">  5  6 -1 -1</clus>
<clus scale="   93.117">  7  8 -1 -1</clus>
<clus scale="  207.132">  2  5  1 -1</clus>
<clus scale="   73.305">  1  5  2 -1</clus>
</clustering>
</event>
<event>
10    4  0.2977685E-005  0.9492712E+02  0.7546771E-02  0.1296775E+00
         -1   -1    0    0    0  501 -0.00000000000E+00  0.00000000000E+00  0.13908222336E+03  0.13908222336E+03  0.00000000000E+00 0.  1.
         21   -1    0    0  503  502  0.00000000000E+00 -0.00000000000E+00 -0.28298441320E+03  0.28298441320E+03  0.00000000000E+00 0.  1.
         24    2    1    2    0    0  0.19976586492E+02 -0.15906150584E+01  0.27751989744E+02  0.88479985090E+02  0.81590077599E+02 0.  0.
         23    2    1    2    0    0  0.62332284100E+01  0.16992678688E+02 -0.20743444371E+03  0.22729695787E+03  0.91144140550E+02 0.  0.
        -11    1    3    3    0    0  0.50844072495E+02  0.75060498961E+01  0.12631209881E+02  0.52924549653E+02  0.00000000000E+00 0.  1.
         12    1    3    3    0    0 -0.30867486003E+02 -0.90966649545E+01  0.15120779862E+02  0.35555435437E+02  0.00000000000E+00 0. -1.
        -13    1    4    4    0    0 -0.12336768427E+02  0.51694716070E+02 -0.12970139815E+03  0.14016772883E+03  0.00000000000E+00 0.  1.
         13    1    4    4    0    0  0.18569996837E+02 -0.34702037383E+02 -0.77733045561E+02  0.87129229040E+02  0.00000000000E+00 0. -1.
         21    1    1    2  503  501  0.25565556685E+02  0.23203325461E+02  0.55030651098E+01  0.34961060148E+02  0.00000000000E+00 0. -1.
         -2    1    1    2    0  502 -0.51775371587E+02 -0.38605389090E+02  0.30277199016E+02  0.71328633451E+02  0.00000000000E+00 0.  1.
<scales pt_clust_5="13000.00000" pt_clust_6="13000.00000" pt_clust_7="13000.00000" pt_clust_8="13000.00000" pt_clust_9="34.52524" pt_clust_10="49.91443"></scales>
<clustering>
<clus scale="   34.525">  1  9  2 -1</clus>
<clus scale="   49.914">  2 10  1 -1</clus>
<clus scale="   81.590">  5  6 -1 -1</clus>
<clus scale="   85.795">  1  5  2 -1</clus>
<clus scale="   91.144">  7  8 -1 -1</clus>
<clus scale="   49.914">  2  5  1 -1</clus>
</clustering>
</event>
<event>
10    4  0.2977685E-005  0.9449490E+02  0.7546771E-02  0.1296362E+00
         21   -1    0    0  501  502  0.00000000000E+00  0.00000000000E+00  0.11802878739E+03  0.11802878739E+03  0.00000000000E+00 0. -1.
          2   -1    0    0  503    0 -0.00000000000E+00 -0.00000000000E+00 -0.35750780782E+03  0.35750780782E+03  0.00000000000E+00 0. -1.
         24    2    1    2    0    0  0.10503170566E+02 -0.12013952396E+02 -0.14343772589E+03  0.16709986637E+03  0.84221924038E+02 0.  0.
         23    2    1    2    0    0 -0.53427583596E+01 -0.65096737754E+02 -0.13162876012E+03  0.17301147562E+03  0.91327486937E+02 0.  0.
        -13    1    3    3    0    0 -0.12535406498E+02  0.31076416659E+02 -0.36625695778E+02  0.49641934689E+02  0.00000000000E+00 0.  1.
         14    1    3    3    0    0  0.23038577064E+02 -0.43090369055E+02 -0.10681203012E+03  0.11745793169E+03  0.00000000000E+00 0. -1.
        -13    1    4    4    0    0 -0.26626697520E+02 -0.70777787845E+02 -0.13065493185E+03  0.15096088066E+03  0.00000000000E+00 0.  1.
         13    1    4    4    0    0  0.21283939160E+02  0.56810500906E+01 -0.97382827083E+00  0.22050594954E+02  0.00000000000E+00 0. -1.
         21    1    1    2  503  502  0.13621906555E+02  0.25041064879E+02 -0.35372238090E+02  0.45429137081E+02  0.00000000000E+00 0. -1.
          1    1    1    2  501    0 -0.18782318761E+02  0.52069625271E+02  0.70959703678E+02  0.89996116138E+02  0.00000000000E+00 0. -1.
<scales pt_clust_5="13000.00000" pt_clust_6="13000.00000" pt_clust_7="13000.00000" pt_clust_8="13000.00000" pt_clust_9="28.50634" pt_clust_10="55.92556"></scales>
<clustering>
<clus scale="   28.506">  2  9  1 -1</clus>
<clus scale="   55.926">  1 10  2 -1</clus>
<clus scale="   84.222">  5  6 -1 -1</clus>
<clus scale="   87.647">  2  5  1 -1</clus>
<clus scale="   91.327">  7  8 -1 -1</clus>
<clus scale="   55.926">  1  5  2 -1</clus>
</clustering>
</event>
<event>
10    4  0.3156796E-005  0.1449301E+03  0.7546771E-02  0.1227874E+00
         21   -1    0    0  503  502  0.00000000000E+00  0.00000000000E+00  0.25243176123E+03  0.25243176123E+03  0.00000000000E+00 0.  1.
         -1   -1    0    0    0  501 -0.00000000000E+00 -0.00000000000E+00 -0.64375156466E+03  0.64375156466E+03  0.00000000000E+00 0.  1.
         24    2    1    2    0    0  0.17646428069E+02  0.45105434506E+02 -0.13143663463E+03  0.16101764962E+03  0.79405276398E+02 0.  0.
         23    2    1    2    0    0 -0.23149459596E+02  0.15081658587E+03 -0.35085038065E+03  0.39342673270E+03  0.91690044965E+02 0.  0.
        -11    1    3    3    0    0  0.20127029703E+02  0.43767947434E+02 -0.24504046097E+02  0.54047930787E+02  0.00000000000E+00 0.  1.
         12    1    3    3    0    0 -0.24806016341E+01  0.13374870717E+01 -0.10693258854E+03  0.10696971883E+03  0.00000000000E+00 0. -1.
        -11    1    4    4    0    0  0.51276718851E+01  0.14568139111E+03 -0.31774259488E+03  0.34958506452E+03  0.00000000000E+00 0.  1.
         11    1    4    4    0    0 -0.28277131481E+02  0.51351947615E+01 -0.33107785772E+02  0.43841668179E+02  0.00000000000E+00 0. -1.
         21    1    1    2  503  501  0.56843017488E+02 -0.96746337576E+02 -0.79803805423E+02  0.13769397166E+03  0.00000000000E+00 0.  1.
         -2    1    1    2    0  502 -0.51339985961E+02 -0.99175682802E+02  0.17077101728E+03  0.20404497191E+03  0.00000000000E+00 0.  1.
<scales pt_clust_5="13000.00000" pt_clust_6="13000.00000" pt_clust_7="13000.00000" pt_clust_8="13000.00000" pt_clust_9="105.99007" pt_clust_10="112.23939"></scales>
<clustering>
<clus scale="   79.405">  5  6 -1 -1</clus>
<clus scale="   91.690">  7  8 -1 -1</clus>
<clus scale="   93.011">  2  5  1 -1</clus>
<clus scale="  105.990">  2  9  1 -1</clus>
<clus scale="  112.239">  1 10  2 -1</clus>
<clus scale="  112.239">  1  5  2 -1</clus>
</clustering>
</event>
<event>
10    4  0.2977685E-005  0.1411358E+03  0.7546771E-02  0.1229257E+00
         21   -1    0    0  501  502  0.00000000000E+00  0.00000000000E+00  0.66861786320E+02  0.66861786320E+02  0.00000000000E+00 0. -1.
          2   -1    0    0  503    0 -0.00000000000E+00 -0.00000000000E+00 -0.11056390538E+04  0.11056390538E+04  0.00000000000E+00 0. -1.
         23    2    1    2    0    0  0.27161794944E+02  0.19963189098E+02 -0.59891179176E+02  0.11624400250E+03  0.93751921320E+02 0.  0.
         24    2    1    2    0    0  0.55924449499E+02  0.11349447418E+03 -0.55260315645E+03  0.57251307471E+03  0.79952688974E+02 0.  0.
        -11    1    4    4    0    0 -0.64541434472E+01  0.69088290065E+02 -0.20010374407E+03  0.21179319201E+03  0.00000000000E+00 0.  1.
         12    1    4    4    0    0  0.62378592946E+02  0.44406184119E+02 -0.35249941239E+03  0.36071988271E+03  0.00000000000E+00 0. -1.
        -11    1    3    3    0    0  0.19335970667E+02 -0.19700979309E+02 -0.69420305677E+02  0.74707343599E+02  0.00000000000E+00 0.  1.
         11    1    3    3    0    0  0.78258242767E+01  0.39664168407E+02  0.95291265011E+01  0.41536658904E+02  0.00000000000E+00 0. -1.
         21    1    1    2  503  502 -0.40808194283E+02 -0.27400075504E+02 -0.33215356358E+03  0.33577084843E+03  0.00000000000E+00 0.  1.
          1    1    1    2  501    0 -0.42278050159E+02 -0.10605758778E+03 -0.94129368312E+02  0.14797291451E+03  0.00000000000E+00 0. -1.
<scales pt_clust_5="13000.00000" pt_clust_6="13000.00000" pt_clust_7="13000.00000" pt_clust_8="13000.00000" pt_clust_9="49.15356" pt_clust_10="116.30511"></scales>
<clustering>
<clus scale="   49.154">  2  9  1 -1</clus>
<clus scale="   79.953">  5  6 -1 -1</clus>
<clus scale="   93.752">  7  8 -1 -1</clus>
<clus scale="   97.874">  2  7  1 -1</clus>
<clus scale="  116.305">  1 10  2 -1</clus>
<clus scale="  116.305">  1  5  2 -1</clus>
</clustering>
</event>
<event>
10    4  0.2977685E-005  0.1598182E+03  0.7546771E-02  0.1207411E+00
          2   -1    0    0  503    0 -0.00000000000E+00  0.00000000000E+00  0.93331278368E+03  0.93331278368E+03  0.00000000000E+00 0. -1.
         21   -1    0    0  501  502  0.00000000000E+00 -0.00000000000E+00 -0.11386207127E+03  0.11386207127E+03  0.00000000000E+00 0.  1.
         24    2    1    2    0    0 -0.84642147872E+02 -0.12335513327E+02 -0.18005747148E+02  0.11674804701E+03  0.77391481864E+02 0.  0.
         23    2    1    2    0    0  0.16136316409E+03 -0.88377948264E+02  0.57573676911E+03  0.61135369289E+03  0.91824713631E+02 0.  0.
        -11    1    3    3    0    0 -0.62634299872E+02 -0.14579048181E+02 -0.47450079491E+02  0.79919423234E+02  0.00000000000E+00 0.  1.
         12    1    3    3    0    0 -0.22007848000E+02  0.22435348543E+01  0.29444332343E+02  0.36828623778E+02  0.00000000000E+00 0. -1.
        -11    1    4    4    0    0  0.15738466023E+03 -0.64468074226E+02  0.55128555298E+03  0.57692445328E+03  0.00000000000E+00 0. -1.
         11    1    4    4    0    0  0.39785038596E+01 -0.23909874038E+02  0.24451216137E+02  0.34429239608E+02  0.00000000000E+00 0.  1.
         21    1    1    2  503  502  0.24039064544E+02  0.58358901853E+02  0.48956663020E+02  0.79877361647E+02  0.00000000000E+00 0.  1.
          1    1    1    2  501    0 -0.10076008076E+03  0.42354559738E+02  0.21276302743E+03  0.23919575340E+03  0.00000000000E+00 0. -1.
<scales pt_clust_5="13000.00000" pt_clust_6="13000.00000" pt_clust_7="13000.00000" pt_clust_8="13000.00000" pt_clust_9="63.11607" pt_clust_10="130.80545"></scales>
<clustering>
<clus scale="   63.116">  2  9  1 -1</clus>
<clus scale="   77.391">  5  6 -1 -1</clus>
<clus scale="   91.825">  7  8 -1 -1</clus>
<clus scale="  106.777">  1  5  2 -1</clus>
<clus scale="  130.805">  2 10  1 -1</clus>
<clus scale="   63.116">  2  5  1 -1</clus>
</clustering>
</event>
<event>
10    4  0.2977685E-005  0.1297790E+03  0.7546771E-02  0.1231403E+00
         21   -1    0    0  501  502  0.00000000000E+00  0.00000000000E+00  0.56237504983E+02  0.56237504983E+02  0.00000000000E+00 0.  1.
          2   -1    0    0  503    0 -0.00000000000E+00 -0.00000000000E+00 -0.58287893347E+03  0.58287893347E+03  0.00000000000E+00 0. -1.
         23    2    1    2    0    0 -0.53974600117E+02 -0.62760216572E+02 -0.26144225596E+03  0.28974427622E+03  0.93528552641E+02 0.  0.
         24    2    1    2    0    0  0.10850647980E+03  0.13622238725E+02 -0.15228942523E+03  0.20386090128E+03  0.80049837515E+02 0.  0.
        -13    1    4    4    0    0  0.50208498748E+02  0.17649408640E+02 -0.16002544191E+02  0.55574062227E+02  0.00000000000E+00 0.  1.
         14    1    4    4    0    0  0.58297981055E+02 -0.40271699142E+01 -0.13628688104E+03  0.14828683905E+03  0.00000000000E+00 0. -1.
        -13    1    3    3    0    0  0.57168355740E+01 -0.64756542555E+02 -0.14369295678E+03  0.15771416500E+03  0.00000000000E+00 0.  1.
         13    1    3    3    0    0 -0.59691435691E+02  0.19963259821E+01 -0.11774929918E+03  0.13203011122E+03  0.00000000000E+00 0. -1.
         21    1    1    2  503  502 -0.30028864078E+02  0.30456107683E+02 -0.10547153762E+03  0.11381367414E+03  0.00000000000E+00 0. -1.
          1    1    1    2  501    0 -0.24503015608E+02  0.18681870164E+02 -0.74382096758E+01  0.31697586815E+02  0.00000000000E+00 0. -1.
<scales pt_clust_5="13000.00000" pt_clust_6="13000.00000" pt_clust_7="13000.00000" pt_clust_8="13000.00000" pt_clust_9="45.65709" pt_clust_10="30.81250"></scales>
<clustering>
<clus scale="   30.812">  1 10  2 -1</clus>
<clus scale="   45.657">  2  9  1 -1</clus>
<clus scale="   80.050">  5  6 -1 -1</clus>
<clus scale="   93.529">  7  8 -1 -1</clus>
<clus scale="  120.428">  1  5  2 -1</clus>
<clus scale="   30.812">  1  5  2 -1</clus>
</clustering>
</event>
<event>
10    4  0.2977685E-005  0.1049048E+03  0.7546771E-02  0.1273471E+00
         -3   -1    0    0    0  501 -0.00000000000E+00  0.00000000000E+00  0.48490645631E+03  0.48490645631E+03  0.00000000000E+00 0.  1.
         21   -1    0    0  503  502  0.00000000000E+00 -0.00000000000E+00 -0.90009339928E+02  0.90009339928E+02  0.00000000000E+00 0.  1.
         23    2    1    2    0    0 -0.94577499351E+02 -0.21884349541E+01  0.11561147601E+03  0.17416547774E+03  0.89542769780E+02 0.  0.
         24    2    1    2    0    0  0.23511482736E+02 -0.99338704759E+01  0.83422069169E+02  0.11985377880E+03  0.82184031695E+02 0.  0.
        -13    1    4    4    0    0  0.22266939212E+02 -0.38084690610E+02  0.80145887467E+02  0.91485646517E+02  0.00000000000E+00 0.  1.
         14    1    4    4    0    0  0.12445435241E+01  0.28150820134E+02  0.32761817020E+01  0.28368132285E+02  0.00000000000E+00 0. -1.
        -11    1    3    3    0    0 -0.10384066917E+03  0.17555326930E+02  0.10854966906E+03  0.15124187493E+03  0.00000000000E+00 0.  1.
         11    1    3    3    0    0  0.92631698225E+01 -0.19743761884E+02  0.70618069462E+01  0.22923602811E+02  0.00000000000E+00 0. -1.
         21    1    1    2  503  501  0.59690978784E+02  0.57390783987E+02  0.21504230508E+03  0.23043417283E+03  0.00000000000E+00 0.  1.
         -4    1    1    2    0  502  0.11375037831E+02 -0.45268478557E+02 -0.19178733874E+02  0.50462366865E+02  0.00000000000E+00 0.  1.
<scales pt_clust_5="13000.00000" pt_clust_6="13000.00000" pt_clust_7="13000.00000" pt_clust_8="13000.00000" pt_clust_9="79.77392" pt_clust_10="46.67576"></scales>
<clustering>
<clus scale="   46.676">  2 10  1 -1</clus>
<clus scale="   79.774">  1  9  2 -1</clus>
<clus scale="   82.184">  5  6 -1 -1</clus>
<clus scale="   89.543">  7  8 -1 -1</clus>
<clus scale="   98.698">  2  5  1 -1</clus>
<clus scale="   46.676">  2  5  1 -1</clus>
</clustering>
</event>
<event>
10    4  0.2977685E-005  0.1147544E+03  0.7546771E-02  0.1267015E+00
          2   -1    0    0  503    0 -0.00000000000E+00  0.00000000000E+00  0.58076129679E+03  0.58076129679E+03  0.00000000000E+00 0. -1.
         21   -1    0    0  501  502  0.00000000000E+00 -0.00000000000E+00 -0.16783373100E+03  0.16783373100E+03  0.00000000000E+00 0.  1.
         24    2    1    2    0    0 -0.14514831141E+02 -0.25515280308E+01  0.34152859003E+03  0.35098950701E+03  0.79590612551E+02 0.  0.
         23    2    1    2    0    0 -0.88600497877E+01 -0.69945112940E+02 -0.63040943568E+02  0.14543279221E+03  0.11047948758E+03 0.  0.
        -13    1    3    3    0    0 -0.37917671983E+02  0.52441241847E+01  0.84333040309E+02  0.92613780696E+02  0.00000000000E+00 0.  1.
         14    1    3    3    0    0  0.23402840842E+02 -0.77956522155E+01  0.25719554972E+03  0.25837572631E+03  0.00000000000E+00 0. -1.
        -13    1    4    4    0    0 -0.36060912673E+02 -0.21057438742E+02  0.19204461075E+02  0.45963207833E+02  0.00000000000E+00 0. -1.
         13    1    4    4    0    0  0.27200862885E+02 -0.48887674198E+02 -0.82245404643E+02  0.99469584372E+02  0.00000000000E+00 0.  1.
         21    1    1    2  503  502  0.23917482423E+02  0.34108545323E+02  0.18446678291E+03  0.18911222284E+03  0.00000000000E+00 0. -1.
          1    1    1    2  501    0 -0.54260149394E+00  0.38388095648E+02 -0.50026863584E+02  0.63060505738E+02  0.00000000000E+00 0. -1.
<scales pt_clust_5="13000.00000" pt_clust_6="13000.00000" pt_clust_7="13000.00000" pt_clust_8="13000.00000" pt_clust_9="42.31069" pt_clust_10="38.39193"></scales>
<clustering>
<clus scale="   38.392">  2 10  1 -1</clus>
<clus scale="   42.311">  1  9  2 -1</clus>
<clus scale="   79.591">  5  6 -1 -1</clus>
<clus scale="   85.426">  1  5  2 -1</clus>
<clus scale="  110.479">  7  8 -1 -1</clus>
<clus scale="   38.392">  2  5  1 -1</clus>
</clustering>
</event>
<event>
10    4  0.2977685E-005  0.1741479E+03  0.7546771E-02  0.1174942E+00
          2   -1    0    0  503    0 -0.00000000000E+00  0.00000000000E+00  0.51698723651E+03  0.51698723651E+03  0.00000000000E+00 0. -1.
         21   -1    0    0  501  502  0.00000000000E+00 -0.00000000000E+00 -0.24657390790E+03  0.24657390790E+03  0.00000000000E+00 0.  1.
         24    2    1    2    0    0 -0.50019330098E+02 -0.10876019583E+03  0.85752751507E+02  0.16793937808E+03  0.80742719412E+02 0.  0.
         23    2    1    2    0    0  0.12105829194E+03  0.14498973406E+03 -0.14087024473E+03  0.25267851673E+03  0.91240747139E+02 0.  0.
        -11    1    3    3    0    0 -0.61379911428E+02 -0.58920479076E+02  0.79492138361E+02  0.11643932516E+03  0.00000000000E+00 0.  1.
         12    1    3    3    0    0  0.11360581330E+02 -0.49839716750E+02  0.62606131456E+01  0.51500052921E+02  0.00000000000E+00 0. -1.
        -13    1    4    4    0    0  0.12295584398E+02  0.23313958402E+02  0.12093591631E+02  0.28999603628E+02  0.00000000000E+00 0. -1.
         13    1    4    4    0    0  0.10876270754E+03  0.12167577565E+03 -0.15296383636E+03  0.22367891311E+03  0.00000000000E+00 0.  1.
         21    1    1    2  503  502 -0.21259329660E+02 -0.51567830205E+02  0.17166741907E+03  0.18050180880E+03  0.00000000000E+00 0. -1.
          1    1    1    2  501    0 -0.49779632180E+02  0.15338291975E+02  0.15386340276E+03  0.16244144080E+03  0.00000000000E+00 0. -1.
<scales pt_clust_5="13000.00000" pt_clust_6="13000.00000" pt_clust_7="13000.00000" pt_clust_8="13000.00000" pt_clust_9="55.87351" pt_clust_10="52.08913"></scales>
<clustering>
<clus scale="   52.089">  2 10  1 -1</clus>
<clus scale="   55.874">  1  9  2 -1</clus>
<clus scale="   80.743">  5  6 -1 -1</clus>
<clus scale="   91.241">  7  8 -1 -1</clus>
<clus scale="  168.885">  1  5  2 -1</clus>
<clus scale="   52.089">  2  5  1 -1</clus>
</clustering>
</event>
<event>
10    4  0.2977685E-005  0.2434303E+03  0.7546771E-02  0.1138254E+00
         21   -1    0    0  501  502  0.00000000000E+00  0.00000000000E+00  0.47714923496E+03  0.47714923496E+03  0.00000000000E+00 0.  1.
          2   -1    0    0  503    0 -0.00000000000E+00 -0.00000000000E+00 -0.98541982306E+03  0.98541982306E+03  0.00000000000E+00 0. -1.
         23    2    1    2    0    0 -0.95983115973E+02  0.64096602337E+02 -0.96978865397E+02  0.17572746706E+03  0.90300107204E+02 0.  0.
         24    2    1    2    0    0 -0.23069086119E+02  0.13692665859E+03 -0.79843565973E+03  0.81451508531E+03  0.81573457121E+02 0.  0.
        -11    1    4    4    0    0 -0.17987919147E+02  0.56219381190E+02 -0.15229823160E+03  0.16333687705E+03  0.00000000000E+00 0.  1.
         12    1    4    4    0    0 -0.50811669721E+01  0.80707277403E+02 -0.64613742813E+03  0.65117820826E+03  0.00000000000E+00 0. -1.
        -13    1    3    3    0    0  0.17340851202E+02  0.14624841166E+02 -0.18519101040E+02  0.29283923966E+02  0.00000000000E+00 0. -1.
         13    1    3    3    0    0 -0.11332396718E+03  0.49471761171E+02 -0.78459764357E+02  0.14644354309E+03  0.00000000000E+00 0.  1.
         21    1    1    2  503  502  0.96993612735E+02 -0.22061478002E+03  0.34839351331E+03  0.42362327862E+03  0.00000000000E+00 0.  1.
          1    1    1    2  501    0  0.22058589358E+02  0.19591519087E+02  0.38750423726E+02  0.48703227034E+02  0.00000000000E+00 0. -1.
<scales pt_clust_5="13000.00000" pt_clust_6="13000.00000" pt_clust_7="13000.00000" pt_clust_8="13000.00000" pt_clust_9="229.35577" pt_clust_10="29.50269"></scales>
<clustering>
<clus scale="   29.503">  1 10  2 -1</clus>
<clus scale="   81.573">  5  6 -1 -1</clus>
<clus scale="   90.300">  7  8 -1 -1</clus>
<clus scale="  146.034">  2  7  1 -1</clus>
<clus scale="  229.356">  1  9  2 -1</clus>
<clus scale="   29.503">  1  5  2 -1</clus>
</clustering>
</event>
<event>
10    4  0.2977685E-005  0.2650238E+03  0.7546771E-02  0.1147592E+00
          2   -1    0    0  503    0 -0.00000000000E+00  0.00000000000E+00  0.50612834967E+03  0.50612834967E+03  0.00000000000E+00 0. -1.
         21   -1    0    0  501  502  0.00000000000E+00 -0.00000000000E+00 -0.73268173156E+03  0.73268173156E+03  0.00000000000E+00 0.  1.
         24    2    1    2    0    0  0.17934222045E+01  0.38689541867E+02  0.67216500674E+02  0.11269150859E+03  0.81738737031E+02 0.  0.
         23    2    1    2    0    0 -0.29609989806E+03 -0.81372477676E+02 -0.37284530797E+03  0.49292136688E+03  0.98291507753E+02 0.  0.
        -13    1    3    3    0    0 -0.24810801912E+02  0.10188827702E+02  0.68622605502E+02  0.73678016310E+02  0.00000000000E+00 0.  1.
         14    1    3    3    0    0  0.26604224117E+02  0.28500714165E+02 -0.14061048285E+01  0.39013492276E+02  0.00000000000E+00 0. -1.
        -13    1    4    4    0    0 -0.25117603235E+03 -0.58562021507E+02 -0.24593052247E+03  0.35637161991E+03  0.00000000000E+00 0.  1.
         13    1    4    4    0    0 -0.44923865713E+02 -0.22810456168E+02 -0.12691478550E+03  0.13654974698E+03  0.00000000000E+00 0. -1.
         21    1    1    2  503  502  0.91409287761E+02  0.44845609196E+01  0.31012202499E+03  0.32334415034E+03  0.00000000000E+00 0. -1.
          1    1    1    2  501    0  0.20289718810E+03  0.38198374889E+02 -0.23104659957E+03  0.30985305543E+03  0.00000000000E+00 0. -1.
<scales pt_clust_5="13000.00000" pt_clust_6="13000.00000" pt_clust_7="13000.00000" pt_clust_8="13000.00000" pt_clust_9="98.78393" pt_clust_10="246.12277"></scales>
<clustering>
<clus scale="   81.739">  5  6 -1 -1</clus>
<clus scale="   90.451">  1  5  2 -1</clus>
<clus scale="   98.292">  7  8 -1 -1</clus>
<clus scale="   98.784">  1  9  2 -1</clus>
<clus scale="  246.123">  2 10  1 -1</clus>
<clus scale="  246.123">  2  5  1 -1</clus>
</clustering>
</event>
<event>
10    4  0.2977685E-005  0.9511872E+02  0.7546771E-02  0.1297878E+00
         21   -1    0    0  501  502  0.00000000000E+00  0.00000000000E+00  0.60007161226E+02  0.60007161226E+02  0.00000000000E+00 0.  1.
          2   -1    0    0  503    0 -0.00000000000E+00 -0.00000000000E+00 -0.68923204356E+03  0.68923204356E+03  0.00000000000E+00 0. -1.
         24    2    1    2    0    0  0.11667051877E+02 -0.29611546356E+02 -0.34541514918E+03  0.35581772042E+03  0.79256930976E+02 0.  0.
         23    2    1    2    0    0 -0.27087271254E+01 -0.22014807527E+02 -0.72507344690E+00  0.94022598863E+02  0.91365936827E+02 0.  0.
        -13    1    3    3    0    0  0.11432804140E+02 -0.54192127607E+02 -0.28931095280E+03  0.29456463317E+03  0.00000000000E+00 0.  1.
         14    1    3    3    0    0  0.23424773756E+00  0.24580581250E+02 -0.56104196377E+02  0.61253087250E+02  0.00000000000E+00 0. -1.
        -13    1    4    4    0    0 -0.23854783755E+02 -0.27167842952E+02 -0.36992197141E+02  0.51725864401E+02  0.00000000000E+00 0. -1.
         13    1    4    4    0    0  0.21146056630E+02  0.51530354248E+01  0.36267123695E+02  0.42296734462E+02  0.00000000000E+00 0.  1.
         21    1    1    2  503  502  0.10947366409E+02  0.61632836109E+02 -0.25954804273E+03  0.26698995824E+03  0.00000000000E+00 0. -1.
          1    1    1    2  501    0 -0.19905691160E+02 -0.10006482226E+02 -0.23536616977E+02  0.32408927256E+02  0.00000000000E+00 0. -1.
<scales pt_clust_5="13000.00000" pt_clust_6="13000.00000" pt_clust_7="13000.00000" pt_clust_8="13000.00000" pt_clust_9="61.71632" pt_clust_10="22.27928"></scales>
<clustering>
<clus scale="   22.279">  1 10  2 -1</clus>
<clus scale="   61.716">  2  9  1 -1</clus>
<clus scale="   79.257">  5  6 -1 -1</clus>
<clus scale="   83.555">  2  5  1 -1</clus>
<clus scale="   91.366">  7  8 -1 -1</clus>
<clus scale="   22.279">  1  5  2 -1</clus>
</clustering>
</event>
<event>
10    4  0.2977685E-005  0.1320744E+03  0.7546771E-02  0.1243440E+00
          2   -1    0    0  503    0 -0.00000000000E+00  0.00000000000E+00  0.12984693475E+04  0.12984693475E+04  0.00000000000E+00 0. -1.
         21   -1    0    0  501  502  0.00000000000E+00 -0.00000000000E+00 -0.28723409165E+02  0.28723409165E+02  0.00000000000E+00 0. -1.
         24    2    1    2    0    0  0.29162869890E+02  0.13513967387E+02  0.43592573406E+03  0.44396070448E+03  0.77696597147E+02 0.  0.
         23    2    1    2    0    0  0.30769381108E+02  0.78047448222E+02  0.34215157625E+03  0.36397646329E+03  0.91504129486E+02 0.  0.
        -11    1    3    3    0    0 -0.58277977442E-01 -0.21704187232E+02  0.40982019253E+02  0.46374573225E+02  0.00000000000E+00 0.  1.
         12    1    3    3    0    0  0.29221147867E+02  0.35218154620E+02  0.39494371481E+03  0.39758613125E+03  0.00000000000E+00 0. -1.
        -13    1    4    4    0    0 -0.17892285627E+02  0.54170128163E+02  0.25531593344E+03  0.26161185474E+03  0.00000000000E+00 0.  1.
         13    1    4    4    0    0  0.48661666735E+02  0.23877320059E+02  0.86835642807E+02  0.10236460855E+03  0.00000000000E+00 0. -1.
         21    1    1    2  503  502  0.37276459883E+02 -0.32206428071E+02  0.20390552130E+03  0.20977190014E+03  0.00000000000E+00 0. -1.
          1    1    1    2  501    0 -0.97208710880E+02 -0.59354987538E+02  0.28776310675E+03  0.30948368878E+03  0.00000000000E+00 0. -1.
<scales pt_clust_5="13000.00000" pt_clust_6="13000.00000" pt_clust_7="13000.00000" pt_clust_8="13000.00000" pt_clust_9="49.26244" pt_clust_10="95.23995"></scales>
<clustering>
<clus scale="   49.262">  1  9  2 -1</clus>
<clus scale="   77.697">  5  6 -1 -1</clus>
<clus scale="   89.384">  1  5  2 -1</clus>
<clus scale="   91.504">  7  8 -1 -1</clus>
<clus scale="   95.240">  2 10  1 -1</clus>
<clus scale="   95.240">  2  5  1 -1</clus>
</clustering>
</event>
<event>
10    4  0.2977685E-005  0.1423600E+03  0.7546771E-02  0.1212081E+00
         -3   -1    0    0    0  501 -0.00000000000E+00  0.00000000000E+00  0.64457858939E+03  0.64457858939E+03  0.00000000000E+00 0.  1.
         21   -1    0    0  503  502  0.00000000000E+00 -0.00000000000E+00 -0.14833199471E+03  0.14833199471E+03  0.00000000000E+00 0.  1.
         24    2    1    2    0    0 -0.60884194548E+02 -0.25490380209E+02  0.32838697692E+03  0.34483275977E+03  0.81944987460E+02 0.  0.
         23    2    1    2    0    0  0.10425264498E+03  0.31624578169E+02 -0.30814178265E+02  0.14527126072E+03  0.91024709161E+02 0.  0.
        -11    1    3    3    0    0 -0.68912072006E+02 -0.60378416534E+01  0.14969366970E+03  0.16490459044E+03  0.00000000000E+00 0.  1.
         12    1    3    3    0    0  0.80278774578E+01 -0.19452538555E+02  0.17869330722E+03  0.17992816933E+03  0.00000000000E+00 0. -1.
        -13    1    4    4    0    0  0.54279210290E+02 -0.20476844973E+02  0.14804463735E+02  0.59872414317E+02  0.00000000000E+00 0.  1.
         13    1    4    4    0    0  0.49973434692E+02  0.52101423142E+02 -0.45618642000E+02  0.85398846399E+02  0.00000000000E+00 0. -1.
         21    1    1    2  503  501 -0.44972137802E+02 -0.30762104519E+02  0.24463975368E+03  0.25063401472E+03  0.00000000000E+00 0.  1.
         -4    1    1    2    0  502  0.16036873682E+01  0.24627906558E+02 -0.45965957657E+02  0.52172548893E+02  0.00000000000E+00 0.  1.
<scales pt_clust_5="13000.00000" pt_clust_6="13000.00000" pt_clust_7="13000.00000" pt_clust_8="13000.00000" pt_clust_9="54.03009" pt_clust_10="24.68006"></scales>
<clustering>
<clus scale="   24.680">  2 10  1 -1</clus>
<clus scale="   54.030">  1  9  2 -1</clus>
<clus scale="   81.945">  5  6 -1 -1</clus>
<clus scale="   91.025">  7  8 -1 -1</clus>
<clus scale="  136.733">  1  5  2 -1</clus>
<clus scale="   24.680">  2  5  1 -1</clus>
</clustering>
</event>
<event>
10    4  0.2977685E-005  0.9368790E+02  0.7546771E-02  0.1301052E+00
          2   -1    0    0  503    0 -0.00000000000E+00  0.00000000000E+00  0.13388102113E+03  0.13388102113E+03  0.00000000000E+00 0. -1.
         21   -1    0    0  501  502  0.00000000000E+00 -0.00000000000E+00 -0.29033393451E+03  0.29033393451E+03  0.00000000000E+00 0.  1.
         24    2    1    2    0    0 -0.15378740974E+02  0.17891395305E+02 -0.87060597167E+01  0.84757896732E+02  0.80941323703E+02 0.  0.
         23    2    1    2    0    0  0.33119876105E+01  0.25175785552E+02 -0.19466920981E+03  0.21695377521E+03  0.92347441173E+02 0.  0.
        -11    1    3    3    0    0 -0.14236084961E+01  0.46696028156E+02 -0.19997155255E+02  0.50817633996E+02  0.00000000000E+00 0.  1.
         12    1    3    3    0    0 -0.13955132477E+02 -0.28804632851E+02  0.11291095538E+02  0.33940262736E+02  0.00000000000E+00 0. -1.
        -11    1    4    4    0    0 -0.20685090555E+02  0.44507126604E+02 -0.17154388055E+03  0.17842662426E+03  0.00000000000E+00 0.  1.
         11    1    4    4    0    0  0.23997078165E+02 -0.19331341051E+02 -0.23125329256E+02  0.38527150952E+02  0.00000000000E+00 0. -1.
         21    1    1    2  503  502  0.43267497017E+02 -0.61523186632E+02  0.41336650682E+02  0.85824806910E+02  0.00000000000E+00 0. -1.
          1    1    1    2  501    0 -0.31200743654E+02  0.18456005775E+02  0.55857054648E+01  0.36678476785E+02  0.00000000000E+00 0. -1.
<scales pt_clust_5="13000.00000" pt_clust_6="13000.00000" pt_clust_7="13000.00000" pt_clust_8="13000.00000" pt_clust_9="72.54926" pt_clust_10="36.25068"></scales>
<clustering>
<clus scale="   36.251">  2 10  1 -1</clus>
<clus scale="   72.549">  1  9  2 -1</clus>
<clus scale="   80.941">  5  6 -1 -1</clus>
<clus scale="   82.467">  1  5  2 -1</clus>
<clus scale="   92.347">  7  8 -1 -1</clus>
<clus scale="   36.251">  2  5  1 -1</clus>
</clustering>
</event>
<event>
10    4  0.2977685E-005  0.1785182E+03  0.7546771E-02  0.1170510E+00
         21   -1    0    0  501  502  0.00000000000E+00  0.00000000000E+00  0.12120740907E+03  0.12120740907E+03  0.00000000000E+00 0. -1.
          2   -1    0    0  503    0 -0.00000000000E+00 -0.00000000000E+00 -0.79255765578E+03  0.79255765578E+03  0.00000000000E+00 0. -1.
         23    2    1    2    0    0 -0.11378103402E+03 -0.12303414488E+03 -0.20628287625E+03  0.28125339669E+03  0.92018061321E+02 0.  0.
         24    2    1    2    0    0  0.53443751107E+02  0.10914414907E+03  0.18831232913E+01  0.14645033246E+03  0.81703573452E+02 0.  0.
        -11    1    4    4    0    0 -0.12164669539E+02  0.65631518011E+02 -0.74893770834E+01  0.67168192699E+02  0.00000000000E+00 0.  1.
         12    1    4    4    0    0  0.65608420646E+02  0.43512631058E+02  0.93725003748E+01  0.79282139757E+02  0.00000000000E+00 0. -1.
        -13    1    3    3    0    0 -0.83911596876E+02 -0.36929554726E+02 -0.62275663423E+02  0.11082962762E+03  0.00000000000E+00 0. -1.
         13    1    3    3    0    0 -0.29869437141E+02 -0.86104590150E+02 -0.14400721283E+03  0.17042376908E+03  0.00000000000E+00 0.  1.
         21    1    1    2  503  502 -0.33348939089E+02  0.45461772280E+01 -0.64603388660E+02  0.72845159703E+02  0.00000000000E+00 0. -1.
          1    1    1    2  501    0  0.93686221999E+02  0.93438185786E+01 -0.40234710509E+03  0.41321617601E+03  0.00000000000E+00 0. -1.
<scales pt_clust_5="13000.00000" pt_clust_6="13000.00000" pt_clust_7="13000.00000" pt_clust_8="13000.00000" pt_clust_9="33.65738" pt_clust_10="75.83890"></scales>
<clustering>
<clus scale="   33.657">  2  9  1 -1</clus>
<clus scale="   75.839">  1 10  2 -1</clus>
<clus scale="   81.704">  5  6 -1 -1</clus>
<clus scale="   92.018">  7  8 -1 -1</clus>
<clus scale="  173.427">  1  5  2 -1</clus>
<clus scale="   75.839">  1  5  2 -1</clus>
</clustering>
</event>
<event>
10    4  0.2977685E-005  0.2829976E+03  0.7546771E-02  0.1128441E+00
          2   -1    0    0  503    0 -0.00000000000E+00  0.00000000000E+00  0.16607036569E+03  0.16607036569E+03  0.00000000000E+00 0. -1.
         21   -1    0    0  501  502  0.00000000000E+00 -0.00000000000E+00 -0.84283227973E+03  0.84283227973E+03  0.00000000000E+00 0.  1.
         23    2    1    2    0    0 -0.59598670884E+02 -0.17659880960E+02 -0.45458497782E+02  0.12276927408E+03  0.95613527655E+02 0.  0.
         24    2    1    2    0    0 -0.20051280100E+03  0.14878433279E+03 -0.36662906461E+03  0.45090593297E+03  0.80976097208E+02 0.  0.
        -11    1    4    4    0    0 -0.20048669718E+03  0.15398054702E+03 -0.33947428686E+03  0.42325845065E+03  0.00000000000E+00 0.  1.
         12    1    4    4    0    0 -0.26103818751E-01 -0.51962142320E+01 -0.27154777751E+02  0.27647482317E+02  0.00000000000E+00 0. -1.
        -13    1    3    3    0    0 -0.81083903897E+02 -0.28815880208E+02 -0.21473887958E+02  0.88690936895E+02  0.00000000000E+00 0.  1.
         13    1    3    3    0    0  0.21485233013E+02  0.11155999247E+02 -0.23984609824E+02  0.34078337184E+02  0.00000000000E+00 0. -1.
         21    1    1    2  503  502 -0.29308040423E+02 -0.47702037205E+01 -0.23554204317E+02  0.37901406544E+02  0.00000000000E+00 0. -1.
          1    1    1    2  501    0  0.28941951231E+03 -0.12635424811E+03 -0.24112014733E+03  0.39732603183E+03  0.00000000000E+00 0. -1.
<scales pt_clust_5="13000.00000" pt_clust_6="13000.00000" pt_clust_7="13000.00000" pt_clust_8="13000.00000" pt_clust_9="29.69370" pt_clust_10="271.16523"></scales>
<clustering>
<clus scale="   29.694">  1  9  2 -1</clus>
<clus scale="   80.976">  5  6 -1 -1</clus>
<clus scale="   95.614">  7  8 -1 -1</clus>
<clus scale="  118.105">  1  7  2 -1</clus>
<clus scale="  271.165">  2 10  1 -1</clus>
<clus scale="  271.165">  2  5  1 -1</clus>
</clustering>
</event>
<event>
10    4  0.2977685E-005  0.1510185E+03  0.7546771E-02  0.1202897E+00
          2   -1    0    0  503    0 -0.00000000000E+00  0.00000000000E+00  0.33100526410E+03  0.33100526410E+03  0.00000000000E+00 0. -1.
         21   -1    0    0  501  502  0.00000000000E+00 -0.00000000000E+00 -0.13553329787E+03  0.13553329787E+03  0.00000000000E+00 0. -1.
         24    2    1    2    0    0 -0.79604354235E+02  0.10275735400E+03  0.14899598526E+03  0.21104665120E+03  0.73789961000E+02 0.  0.
         23    2    1    2    0    0  0.23049491280E+02 -0.10043293149E+03  0.59099516717E+02  0.15136441325E+03  0.93810340290E+02 0.  0.
        -13    1    3    3    0    0 -0.44351449266E+02  0.82374802829E+02  0.54795625824E+02  0.10842149142E+03  0.00000000000E+00 0.  1.
         14    1    3    3    0    0 -0.35252904968E+02  0.20382551172E+02  0.94200359438E+02  0.10262515978E+03  0.00000000000E+00 0. -1.
        -11    1    4    4    0    0  0.51132969831E+02 -0.24096951414E+02  0.35189951145E+02  0.66585105939E+02  0.00000000000E+00 0.  1.
         11    1    4    4    0    0 -0.28083478551E+02 -0.76335980080E+02  0.23909565572E+02  0.84779307311E+02  0.00000000000E+00 0. -1.
         21    1    1    2  503  502 -0.13748724408E+02  0.15439646348E+02  0.16027862706E+02  0.26159175926E+02  0.00000000000E+00 0. -1.
          1    1    1    2  501    0  0.70303587363E+02 -0.17764068854E+02 -0.28651398459E+02  0.77968321593E+02  0.00000000000E+00 0. -1.
<scales pt_clust_5="13000.00000" pt_clust_6="13000.00000" pt_clust_7="13000.00000" pt_clust_8="13000.00000" pt_clust_9="20.67390" pt_clust_10="71.15759"></scales>
<clustering>
<clus scale="   20.674">  1  9  2 -1</clus>
<clus scale="   71.158">  2 10  1 -1</clus>
<clus scale="   73.790">  5  6 -1 -1</clus>
<clus scale="   93.810">  7  8 -1 -1</clus>
<clus scale="  139.467">  1  5  2 -1</clus>
<clus scale="   71.158">  2  5  1 -1</clus>
</clustering>
</event>
<event>
10    4  0.2977685E-005  0.2550434E+03  0.7546771E-02  0.1110677E+00
          2   -1    0    0  503    0 -0.00000000000E+00  0.00000000000E+00  0.36508005290E+03  0.36508005290E+03  0.00000000000E+00 0. -1.
         21   -1    0    0  501  502  0.00000000000E+00 -0.00000000000E+00 -0.52527644966E+03  0.52527644966E+03  0.00000000000E+00 0. -1.
         23    2    1    2    0    0 -0.26951304943E+03  0.44169854079E+02  0.53339746439E+02  0.29280563949E+03  0.91113962379E+02 0.  0.
         24    2    1    2    0    0  0.20362952293E+03 -0.37496473014E+02 -0.25710737253E+03  0.33997152636E+03  0.81274040342E+02 0.  0.
        -13    1    4    4    0    0  0.68280557965E+02 -0.50342244417E+02 -0.79153317479E+02  0.11602510003E+03  0.00000000000E+00 0.  1.
         14    1    4    4    0    0  0.13534896496E+03  0.12845771403E+02 -0.17795405505E+03  0.22394642633E+03  0.00000000000E+00 0. -1.
        -13    1    3    3    0    0 -0.24679846926E+03  0.26637336967E+02  0.20322522568E+02  0.24906231564E+03  0.00000000000E+00 0. -1.
         13    1    3    3    0    0 -0.22714580175E+02  0.17532517112E+02  0.33017223872E+02  0.43743323845E+02  0.00000000000E+00 0.  1.
         21    1    1    2  503  502  0.46382306686E+02  0.49600848827E+02  0.13346396998E+03  0.14974709967E+03  0.00000000000E+00 0. -1.
          1    1    1    2  501    0  0.19501219821E+02 -0.56274229893E+02 -0.89892740649E+02  0.10783223704E+03  0.00000000000E+00 0. -1.
<scales pt_clust_5="13000.00000" pt_clust_6="13000.00000" pt_clust_7="13000.00000" pt_clust_8="13000.00000" pt_clust_9="67.38552" pt_clust_10="59.55742"></scales>
<clustering>
<clus scale="   59.557">  2 10  1 -1</clus>
<clus scale="   67.386">  1  9  2 -1</clus>
<clus scale="   81.274">  5  6 -1 -1</clus>
<clus scale="   91.114">  7  8 -1 -1</clus>
<clus scale="  251.696">  2  5  1 -1</clus>
<clus scale="   59.557">  2  5  1 -1</clus>
</clustering>
</event>
<event>
10    4  0.2977685E-005  0.1330013E+03  0.7546771E-02  0.1239490E+00
         21   -1    0    0  501  502  0.00000000000E+00  0.00000000000E+00  0.10899534911E+03  0.10899534911E+03  0.00000000000E+00 0. -1.
          2   -1    0    0  503    0 -0.00000000000E+00 -0.00000000000E+00 -0.38075494822E+03  0.38075494822E+03  0.00000000000E+00 0. -1.
         23    2    1    2    0    0  0.29904368703E+02 -0.14114694260E+02 -0.10153131592E+03  0.13745507283E+03  0.86555144688E+02 0.  0.
         24    2    1    2    0    0  0.73060276717E+02 -0.38391386375E+02 -0.58518975334E+02  0.12931907339E+03  0.80543464581E+02 0.  0.
        -11    1    4    4    0    0  0.70223048139E+02 -0.45289285568E+02 -0.74330547775E+02  0.11183660496E+03  0.00000000000E+00 0.  1.
         12    1    4    4    0    0  0.28372285781E+01  0.68978991935E+01  0.15811572440E+02  0.17482468428E+02  0.00000000000E+00 0. -1.
        -13    1    3    3    0    0 -0.34027379740E+01  0.20081155144E+02  0.47778247474E+01  0.20920301789E+02  0.00000000000E+00 0.  1.
         13    1    3    3    0    0  0.33307106677E+02 -0.34195849403E+02 -0.10630914067E+03  0.11653477104E+03  0.00000000000E+00 0. -1.
         21    1    1    2  503  502  0.21141181229E+02  0.27410018336E+02 -0.87454592512E+02  0.94056176832E+02  0.00000000000E+00 0.  1.
          1    1    1    2  501    0 -0.12410582665E+03  0.25096062299E+02 -0.24254715342E+02  0.12891997428E+03  0.00000000000E+00 0. -1.
<scales pt_clust_5="13000.00000" pt_clust_6="13000.00000" pt_clust_7="13000.00000" pt_clust_8="13000.00000" pt_clust_9="34.61587" pt_clust_10="105.83996"></scales>
<clustering>
<clus scale="   34.616">  2  9  1 -1</clus>
<clus scale="   80.543">  5  6 -1 -1</clus>
<clus scale="   86.555">  7  8 -1 -1</clus>
<clus scale="   94.820">  2  7  1 -1</clus>
<clus scale="  105.840">  1 10  2 -1</clus>
<clus scale="  105.840">  1  5  2 -1</clus>
</clustering>
</event>
<event>
10    4  0.2977685E-005  0.1194646E+03  0.7546771E-02  0.1247736E+00
         21   -1    0    0  503  502  0.00000000000E+00  0.00000000000E+00  0.61528774451E+02  0.61528774451E+02  0.00000000000E+00 0.  1.
         -3   -1    0    0    0  501 -0.00000000000E+00 -0.00000000000E+00 -0.16810498031E+04  0.16810498031E+04  0.00000000000E+00 0.  1.
         24    2    1    2    0    0  0.47078021538E+01  0.64275684734E+02 -0.99896497711E+03  0.10040775131E+04  0.78019867513E+02 0.  0.
         23    2    1    2    0    0  0.59631078335E+02 -0.11095284233E+03 -0.51769746829E+03  0.54033694116E+03  0.89927429575E+02 0.  0.
        -11    1    3    3    0    0  0.23745737992E+02  0.49952513405E+02 -0.32361554195E+03  0.32830798446E+03  0.00000000000E+00 0.  1.
         12    1    3    3    0    0 -0.19037935839E+02  0.14323171329E+02 -0.67534943516E+03  0.67576952861E+03  0.00000000000E+00 0. -1.
        -11    1    4    4    0    0  0.45382526157E+02 -0.18186783135E+02 -0.28939357685E+03  0.29349442087E+03  0.00000000000E+00 0.  1.
         11    1    4    4    0    0  0.14248552178E+02 -0.92766059198E+02 -0.22830389144E+03  0.24684252029E+03  0.00000000000E+00 0. -1.
         21    1    1    2  503  501 -0.23098666278E+02  0.18052439083E+01 -0.12956829292E+03  0.13162351545E+03  0.00000000000E+00 0. -1.
         -4    1    1    2    0  502 -0.41240214211E+02  0.44871913690E+02  0.26709709653E+02  0.66540607873E+02  0.00000000000E+00 0.  1.
<scales pt_clust_5="13000.00000" pt_clust_6="13000.00000" pt_clust_7="13000.00000" pt_clust_8="13000.00000" pt_clust_9="23.16910" pt_clust_10="61.16278"></scales>
<clustering>
<clus scale="   23.169">  2  9  1 -1</clus>
<clus scale="   61.163">  1 10  2 -1</clus>
<clus scale="   78.020">  5  6 -1 -1</clus>
<clus scale="   89.927">  7  8 -1 -1</clus>
<clus scale="  110.779">  2  5  1 -1</clus>
<clus scale="   61.163">  1  5  2 -1</clus>
</clustering>
</event>
<event>
10    4  0.2977685E-005  0.1132558E+03  0.7546771E-02  0.1258624E+00
         -1   -1    0    0    0  501 -0.00000000000E+00  0.00000000000E+00  0.37690715638E+03  0.37690715638E+03  0.00000000000E+00 0.  1.
         21   -1    0    0  503  502  0.00000000000E+00 -0.00000000000E+00 -0.23815856467E+03  0.23815856467E+03  0.00000000000E+00 0.  1.
         24    2    1    2    0    0  0.41838696223E+02 -0.11144754808E+03 -0.88314452848E+02  0.16879865631E+03  0.80762066068E+02 0.  0.
         23    2    1    2    0    0 -0.47195665457E+02 -0.33835637236E+01 -0.68718737864E+02  0.12387540457E+03  0.91564029964E+02 0.  0.
        -13    1    3    3    0    0  0.29791128983E+02 -0.12053956012E+03 -0.62775917189E+02  0.13913343487E+03  0.00000000000E+00 0.  1.
         14    1    3    3    0    0  0.12047567240E+02  0.90920120411E+01 -0.25538535659E+02  0.29665221438E+02  0.00000000000E+00 0. -1.
        -11    1    4    4    0    0  0.79900305251E+01  0.21901279048E+02  0.92341590887E+01  0.25075412376E+02  0.00000000000E+00 0. -1.
         11    1    4    4    0    0 -0.55185695982E+02 -0.25284842772E+02 -0.77952896953E+02  0.98799992198E+02  0.00000000000E+00 0.  1.
         21    1    1    2  503  501 -0.15280101820E+01  0.90822530216E+02  0.27589980554E+03  0.29046819018E+03  0.00000000000E+00 0.  1.
         -2    1    1    2    0  502  0.68849794161E+01  0.24008581589E+02  0.19881976879E+02  0.31923469989E+02  0.00000000000E+00 0.  1.
<scales pt_clust_5="13000.00000" pt_clust_6="13000.00000" pt_clust_7="13000.00000" pt_clust_8="13000.00000" pt_clust_9="91.58529" pt_clust_10="24.97630"></scales>
<clustering>
<clus scale="   24.976">  2 10  1 -1</clus>
<clus scale="   80.762">  5  6 -1 -1</clus>
<clus scale="   91.564">  7  8 -1 -1</clus>
<clus scale="   91.585">  1  9  2 -1</clus>
<clus scale="  104.716">  1  5  2 -1</clus>
<clus scale="   24.976">  2  5  1 -1</clus>
</clustering>
</event>
<event>
10    4  0.2977685E-005  0.1359781E+03  0.7546771E-02  0.1239020E+00
          2   -1    0    0  503    0 -0.00000000000E+00  0.00000000000E+00  0.15614084852E+03  0.15614084852E+03  0.00000000000E+00 0. -1.
         21   -1    0    0  501  502  0.00000000000E+00 -0.00000000000E+00 -0.35272554476E+03  0.35272554476E+03  0.00000000000E+00 0. -1.
         24    2    1    2    0    0  0.31120853332E+02  0.32896416055E+01 -0.13739326811E+02  0.88738011277E+02  0.81892223624E+02 0.  0.
         23    2    1    2    0    0  0.38789393704E+02 -0.91311611392E+02 -0.21773200768E+03  0.25610934980E+03  0.91336435478E+02 0.  0.
        -13    1    3    3    0    0  0.45296043206E+02  0.80122532982E+01 -0.38388994217E+02  0.59913626247E+02  0.00000000000E+00 0.  1.
         14    1    3    3    0    0 -0.14175189874E+02 -0.47226116926E+01  0.24649667405E+02  0.28824385030E+02  0.00000000000E+00 0. -1.
        -13    1    4    4    0    0  0.41233789258E+02 -0.52869678556E+02 -0.20477001571E+03  0.21546737020E+03  0.00000000000E+00 0. -1.
         13    1    4    4    0    0 -0.24443955545E+01 -0.38441932836E+02 -0.12961991973E+02  0.40641979599E+02  0.00000000000E+00 0.  1.
         21    1    1    2  503  502 -0.99272565812E+02  0.60054422536E+02  0.10030293039E+02  0.11645678498E+03  0.00000000000E+00 0. -1.
          1    1    1    2  501    0  0.29362318776E+02  0.27967547251E+02  0.24856345215E+02  0.47562247220E+02  0.00000000000E+00 0. -1.
<scales pt_clust_5="13000.00000" pt_clust_6="13000.00000" pt_clust_7="13000.00000" pt_clust_8="13000.00000" pt_clust_9="100.73586" pt_clust_10="40.55035"></scales>
<clustering>
<clus scale="   40.550">  2 10  1 -1</clus>
<clus scale="   81.892">  5  6 -1 -1</clus>
<clus scale="   89.580">  1  5  2 -1</clus>
<clus scale="   91.336">  7  8 -1 -1</clus>
<clus scale="  100.736">  1  9  2 -1</clus>
<clus scale="   40.550">  2  5  1 -1</clus>
</clustering>
</event>
<event>
10    4  0.2977685E-005  0.2400356E+03  0.7546771E-02  0.1162325E+00
          4   -1    0    0  503    0 -0.00000000000E+00  0.00000000000E+00  0.28051542449E+03  0.28051542449E+03  0.00000000000E+00 0. -1.
         21   -1    0    0  501  502  0.00000000000E+00 -0.00000000000E+00 -0.59985086027E+03  0.59985086027E+03  0.00000000000E+00 0. -1.
         24    2    1    2    0    0  0.46934284933E+02 -0.54128610861E+01  0.37740803880E+02  0.96323272017E+02  0.74977851978E+02 0.  0.
         23    2    1    2    0    0 -0.21560619181E+03 -0.86192170090E+02 -0.42552440106E+03  0.49305581684E+03  0.90099403382E+02 0.  0.
        -13    1    3    3    0    0  0.75005770750E+01  0.20376089972E+02  0.43732562359E+02  0.48826024920E+02  0.00000000000E+00 0.  1.
         14    1    3    3    0    0  0.39433707858E+02 -0.25788951058E+02 -0.59917584790E+01  0.47497247097E+02  0.00000000000E+00 0. -1.
        -11    1    4    4    0    0 -0.21050641928E+03 -0.64052196932E+02 -0.41069439516E+03  0.46592437445E+03  0.00000000000E+00 0. -1.
         11    1    4    4    0    0 -0.50997725368E+01 -0.22139973158E+02 -0.14830005902E+02  0.27131442394E+02  0.00000000000E+00 0.  1.
         21    1    1    2  503  502 -0.28107810655E+02  0.76300957468E+02  0.42989354358E+02  0.91978093688E+02  0.00000000000E+00 0. -1.
          3    1    1    2  501    0  0.19677971754E+03  0.15304073708E+02  0.25458807047E+02  0.19900910221E+03  0.00000000000E+00 0. -1.
<scales pt_clust_5="13000.00000" pt_clust_6="13000.00000" pt_clust_7="13000.00000" pt_clust_8="13000.00000" pt_clust_9="81.31350" pt_clust_10="222.48424"></scales>
<clustering>
<clus scale="   74.978">  5  6 -1 -1</clus>
<clus scale="   81.313">  1  9  2 -1</clus>
<clus scale="   86.130">  1  5  2 -1</clus>
<clus scale="   90.099">  7  8 -1 -1</clus>
<clus scale="  222.484">  2 10  1 -1</clus>
<clus scale="  222.484">  2  5  1 -1</clus>
</clustering>
</event>
<event>
10    4  0.2977685E-005  0.1222995E+03  0.7546771E-02  0.1242385E+00
          2   -1    0    0  503    0 -0.00000000000E+00  0.00000000000E+00  0.48769276715E+03  0.48769276715E+03  0.00000000000E+00 0. -1.
         21   -1    0    0  501  502  0.00000000000E+00 -0.00000000000E+00 -0.13789879376E+03  0.13789879376E+03  0.00000000000E+00 0. -1.
         24    2    1    2    0    0  0.65367517268E+01  0.88157266648E+02  0.21912022274E+03  0.24956635509E+03  0.80344637629E+02 0.  0.
         23    2    1    2    0    0  0.35326814011E+01 -0.71906267236E+02  0.99564145996E+02  0.15258852437E+03  0.90483410051E+02 0.  0.
        -11    1    3    3    0    0 -0.84269285181E+01  0.85413252588E+02  0.11065360982E+03  0.14003805985E+03  0.00000000000E+00 0.  1.
         12    1    3    3    0    0  0.14963680245E+02  0.27440140603E+01  0.10846661292E+03  0.10952829524E+03  0.00000000000E+00 0. -1.
        -11    1    4    4    0    0 -0.38473560378E+02 -0.23723945000E+02  0.17274558006E+02  0.48388539644E+02  0.00000000000E+00 0.  1.
         11    1    4    4    0    0  0.42006241780E+02 -0.48182322235E+02  0.82289587990E+02  0.10419998472E+03  0.00000000000E+00 0. -1.
         21    1    1    2  503  502  0.19732095940E+02 -0.66869584148E+02  0.10685208269E+03  0.12758630204E+03  0.00000000000E+00 0.  1.
          1    1    1    2  501    0 -0.29801529068E+02  0.50618584736E+02 -0.75742478024E+02  0.95850379408E+02  0.00000000000E+00 0. -1.
<scales pt_clust_5="13000.00000" pt_clust_6="13000.00000" pt_clust_7="13000.00000" pt_clust_8="13000.00000" pt_clust_9="58.45070" pt_clust_10="58.73987"></scales>
<clustering>
<clus scale="   58.740">  2 10  1 -1</clus>
<clus scale="   58.451">  2  9  1 -1</clus>
<clus scale="   80.345">  5  6 -1 -1</clus>
<clus scale="   90.483">  7  8 -1 -1</clus>
<clus scale="  115.001">  1  5  2 -1</clus>
<clus scale="   58.740">  2  5  1 -1</clus>
</clustering>
</event>
<event>
10    4  0.2977685E-005  0.9578166E+02  0.7546771E-02  0.1295453E+00
         -3   -1    0    0    0  501 -0.00000000000E+00  0.00000000000E+00  0.12484617815E+03  0.12484617815E+03  0.00000000000E+00 0.  1.
         21   -1    0    0  503  502  0.00000000000E+00 -0.00000000000E+00 -0.34347840145E+03  0.34347840145E+03  0.00000000000E+00 0. -1.
         24    2    1    2    0    0 -0.20184548449E+01  0.25411351883E+02  0.87165328747E+01  0.84829142348E+02  0.80437519116E+02 0.  0.
         23    2    1    2    0    0 -0.50010940025E+02  0.21143820280E+02 -0.26087035204E+03  0.28163747769E+03  0.91204018572E+02 0.  0.
        -11    1    3    3    0    0 -0.21578221246E+02  0.48458793298E+02  0.12109794421E+02  0.54410673594E+02  0.00000000000E+00 0.  1.
         12    1    3    3    0    0  0.19559766401E+02 -0.23047441415E+02 -0.33932615460E+01  0.30418468754E+02  0.00000000000E+00 0. -1.
        -13    1    4    4    0    0  0.38250632356E+01  0.31120987091E+02 -0.26797600992E+02  0.41246313353E+02  0.00000000000E+00 0.  1.
         13    1    4    4    0    0 -0.53836003261E+02 -0.99771668113E+01 -0.23407275105E+03  0.24039116433E+03  0.00000000000E+00 0. -1.
         21    1    1    2  503  501  0.30829720557E+02  0.12277150339E+02  0.16430266757E+02  0.37029093369E+02  0.00000000000E+00 0. -1.
         -4    1    1    2    0  502  0.21199674313E+02 -0.58832322502E+02  0.17091329110E+02  0.64828866199E+02  0.00000000000E+00 0.  1.
<scales pt_clust_5="13000.00000" pt_clust_6="13000.00000" pt_clust_7="13000.00000" pt_clust_8="13000.00000" pt_clust_9="33.18434" pt_clust_10="63.60200"></scales>
<clustering>
<clus scale="   33.184">  1  9  2 -1</clus>
<clus scale="   63.602">  2 10  1 -1</clus>
<clus scale="   80.438">  5  6 -1 -1</clus>
<clus scale="   85.593">  1  5  2 -1</clus>
<clus scale="   91.204">  7  8 -1 -1</clus>
<clus scale="   63.602">  2  5  1 -1</clus>
</clustering>
</event>
<event>
10    4  0.2977685E-005  0.1896818E+03  0.7546771E-02  0.1159498E+00
         -1   -1    0    0    0  501 -0.00000000000E+00  0.00000000000E+00  0.54601725805E+03  0.54601725805E+03  0.00000000000E+00 0.  1.
         21   -1    0    0  501  502  0.00000000000E+00 -0.00000000000E+00 -0.11552508424E+03  0.11552508424E+03  0.00000000000E+00 0.  1.
         24    2    1    2    0    0  0.85932039550E+02 -0.15131203385E+03  0.15785036831E+03  0.24941054991E+03  0.83721183832E+02 0.  0.
         23    2    1    2    0    0  0.70350858234E+01  0.17207154122E+03  0.12612770448E+03  0.23197138752E+03  0.90798783378E+02 0.  0.
        -11    1    3    3    0    0  0.84864657491E+02 -0.96316790401E+02  0.14355077046E+03  0.19257662866E+03  0.00000000000E+00 0.  1.
         12    1    3    3    0    0  0.10673820587E+01 -0.54995243449E+02  0.14299597845E+02  0.56833921253E+02  0.00000000000E+00 0. -1.
        -13    1    4    4    0    0  0.35167317597E+02  0.14856343792E+03  0.12130501308E+03  0.19499420892E+03  0.00000000000E+00 0.  1.
         13    1    4    4    0    0 -0.28132231773E+02  0.23508103301E+02  0.48226913969E+01  0.36977178606E+02  0.00000000000E+00 0. -1.
         21    1    1    2  503  502 -0.20421383865E+02  0.13466618250E+02  0.38623639594E+02  0.45718358036E+02  0.00000000000E+00 0.  1.
         -2    1    1    2    0  503 -0.72545741508E+02 -0.34226125620E+02  0.10789046143E+03  0.13444204682E+03  0.00000000000E+00 0.  1.
<scales pt_clust_5="13000.00000" pt_clust_6="13000.00000" pt_clust_7="13000.00000" pt_clust_8="13000.00000" pt_clust_9="24.18200" pt_clust_10="104.83988"></scales>
<clustering>
<clus scale="   24.182">  9 10 -1 -1</clus>
<clus scale="   83.721">  5  6 -1 -1</clus>
<clus scale="   90.799">  7  8 -1 -1</clus>
<clus scale="  104.840">  2  9  1 -1</clus>
<clus scale="  186.397">  1  5  2 -1</clus>
<clus scale="  104.840">  2  5  1 -1</clus>
</clustering>
</event>
<event>
10    4  0.2977685E-005  0.2747040E+03  0.7546771E-02  0.1145483E+00
         -1   -1    0    0    0  501 -0.00000000000E+00  0.00000000000E+00  0.75280980205E+02  0.75280980205E+02  0.00000000000E+00 0.  1.
         21   -1    0    0  503  502  0.00000000000E+00 -0.00000000000E+00 -0.15709070002E+04  0.15709070002E+04  0.00000000000E+00 0.  1.
         24    2    1    2    0    0 -0.15966703854E+02 -0.13511752430E+02 -0.12010653902E+03  0.14653030573E+03  0.81289892944E+02 0.  0.
         23    2    1    2    0    0 -0.36267173682E+01  0.25358890929E+03 -0.72687304494E+03  0.77499088036E+03  0.89140076174E+02 0.  0.
        -11    1    3    3    0    0 -0.12475723661E+02  0.32974245397E+02 -0.36120355050E+02  0.50473999141E+02  0.00000000000E+00 0.  1.
         12    1    3    3    0    0 -0.34909801931E+01 -0.46485997827E+02 -0.83986183975E+02  0.96056306588E+02  0.00000000000E+00 0. -1.
        -11    1    4    4    0    0  0.29839987170E+01  0.19635609880E+03 -0.43197511705E+03  0.47451778000E+03  0.00000000000E+00 0. -1.
         11    1    4    4    0    0 -0.66107160853E+01  0.57232810483E+02 -0.29489792789E+03  0.30047310035E+03  0.00000000000E+00 0.  1.
         21    1    1    2  503  501 -0.44945784158E+02  0.23820643121E+02 -0.87417987619E+02  0.10114074902E+03  0.00000000000E+00 0. -1.
         -2    1    1    2    0  502  0.64539205381E+02 -0.26389779998E+03 -0.56122844838E+03  0.62352604528E+03  0.00000000000E+00 0.  1.
<scales pt_clust_5="13000.00000" pt_clust_6="13000.00000" pt_clust_7="13000.00000" pt_clust_8="13000.00000" pt_clust_9="50.86793" pt_clust_10="259.83921"></scales>
<clustering>
<clus scale="   50.868">  1  9  2 -1</clus>
<clus scale="   81.290">  5  6 -1 -1</clus>
<clus scale="   85.410">  1  5  2 -1</clus>
<clus scale="   89.140">  7  8 -1 -1</clus>
<clus scale="  259.839">  2 10  1 -1</clus>
<clus scale="  259.839">  2  5  1 -1</clus>
</clustering>
</event>
<event>
10    4  0.2977685E-005  0.1174894E+03  0.7546771E-02  0.1251141E+00
         21   -1    0    0  501  502  0.00000000000E+00  0.00000000000E+00  0.20632060971E+03  0.20632060971E+03  0.00000000000E+00 0.  1.
          2   -1    0    0  503    0 -0.00000000000E+00 -0.00000000000E+00 -0.78769583024E+03  0.78769583024E+03  0.00000000000E+00 0. -1.
         24    2    1    2    0    0  0.28184364823E+02  0.26338256497E+02 -0.40528202593E+03  0.41517823117E+03  0.81433291224E+02 0.  0.
         23    2    1    2    0    0 -0.93660901160E+02 -0.34117435224E+02  0.12211789435E+03  0.18288873799E+03  0.92731583464E+02 0.  0.
        -13    1    3    3    0    0 -0.44473103853E+01 -0.26915705903E+02 -0.10653956107E+03  0.10997686969E+03  0.00000000000E+00 0.  1.
         14    1    3    3    0    0  0.32631675208E+02  0.53253962400E+02 -0.29874246486E+03  0.30520136148E+03  0.00000000000E+00 0. -1.
        -11    1    4    4    0    0 -0.59614068598E+02 -0.28487964233E+02  0.13146677992E+03  0.14713570438E+03  0.00000000000E+00 0.  1.
         11    1    4    4    0    0 -0.34046832562E+02 -0.56294709917E+01 -0.93488855700E+01  0.35753033613E+02  0.00000000000E+00 0. -1.
         21    1    1    2  503  502  0.45345330687E+02 -0.17531167263E+02 -0.33980341468E+03  0.34326360347E+03  0.00000000000E+00 0.  1.
          1    1    1    2  501    0  0.20131205650E+02  0.25310345990E+02  0.41592325727E+02  0.52685867312E+02  0.00000000000E+00 0. -1.
<scales pt_clust_5="13000.00000" pt_clust_6="13000.00000" pt_clust_7="13000.00000" pt_clust_8="13000.00000" pt_clust_9="48.72230" pt_clust_10="32.34005"></scales>
<clustering>
<clus scale="   32.340">  1 10  2 -1</clus>
<clus scale="   48.722">  2  9  1 -1</clus>
<clus scale="   81.433">  5  6 -1 -1</clus>
<clus scale="   92.732">  7  8 -1 -1</clus>
<clus scale="  108.793">  2  5  1 -1</clus>
<clus scale="   32.340">  1  5  2 -1</clus>
</clustering>
</event>
<event>
10    4  0.2977685E-005  0.1256438E+03  0.7546771E-02  0.1237063E+00
         21   -1    0    0  503  502  0.00000000000E+00  0.00000000000E+00  0.14333051329E+03  0.14333051329E+03  0.00000000000E+00 0. -1.
         -1   -1    0    0    0  501 -0.00000000000E+00 -0.00000000000E+00 -0.29746509605E+03  0.29746509605E+03  0.00000000000E+00 0.  1.
         23    2    1    2    0    0  0.58319761762E+02 -0.67853723288E+02 -0.12813381755E+03  0.18039706437E+03  0.90108286283E+02 0.  0.
         24    2    1    2    0    0 -0.62590218487E+02  0.74195853180E+02 -0.58185424469E+02  0.13822525897E+03  0.79360686226E+02 0.  0.
        -13    1    4    4    0    0 -0.81705442892E+02  0.62105462585E+02 -0.50101884270E+02  0.11420624628E+03  0.00000000000E+00 0.  1.
         14    1    4    4    0    0  0.19115224405E+02  0.12090390595E+02 -0.80835401993E+01  0.24019012697E+02  0.00000000000E+00 0. -1.
        -13    1    3    3    0    0 -0.22130652270E+02 -0.31911819119E+02 -0.41158109741E+02  0.56587277429E+02  0.00000000000E+00 0.  1.
         13    1    3    3    0    0  0.80450414031E+02 -0.35941904170E+02 -0.86975707810E+02  0.12380978694E+03  0.00000000000E+00 0. -1.
         21    1    1    2  503  501  0.88638585141E+01  0.38469982658E+02 -0.26976212085E+02  0.47814470319E+02  0.00000000000E+00 0.  1.
         -2    1    1    2    0  502 -0.45934017884E+01 -0.44812112550E+02  0.59160871339E+02  0.74358815676E+02  0.00000000000E+00 0.  1.
<scales pt_clust_5="13000.00000" pt_clust_6="13000.00000" pt_clust_7="13000.00000" pt_clust_8="13000.00000" pt_clust_9="39.47794" pt_clust_10="43.90255"></scales>
<clustering>
<clus scale="   39.478">  2  9  1 -1</clus>
<clus scale="   43.903">  1 10  2 -1</clus>
<clus scale="   79.361">  5  6 -1 -1</clus>
<clus scale="   90.108">  7  8 -1 -1</clus>
<clus scale="  118.174">  1  5  2 -1</clus>
<clus scale="   43.903">  1  5  2 -1</clus>
</clustering>
</event>
<event>
10    4  0.2977685E-005  0.9796651E+02  0.7546771E-02  0.1292626E+00
         21   -1    0    0  503  502  0.00000000000E+00  0.00000000000E+00  0.22475623891E+03  0.22475623891E+03  0.00000000000E+00 0.  1.
         -1   -1    0    0    0  501 -0.00000000000E+00 -0.00000000000E+00 -0.34629061725E+03  0.34629061725E+03  0.00000000000E+00 0.  1.
         23    2    1    2    0    0  0.46052730321E+02  0.31343456354E+02 -0.11086868900E+03  0.15661079361E+03  0.95560495230E+02 0.  0.
         24    2    1    2    0    0  0.17220221509E+02  0.15655058615E+01  0.15696582191E+03  0.17770938301E+03  0.81506863043E+02 0.  0.
        -13    1    4    4    0    0  0.19225242806E+02 -0.28207704885E+02  0.13843822242E+03  0.14258480285E+03  0.00000000000E+00 0.  1.
         14    1    4    4    0    0 -0.20050212962E+01  0.29773210746E+02  0.18527599489E+02  0.35124580159E+02  0.00000000000E+00 0. -1.
        -11    1    3    3    0    0  0.59794969493E+02  0.58033520149E+01 -0.11252842445E+03  0.12756082306E+03  0.00000000000E+00 0.  1.
         11    1    3    3    0    0 -0.13742239172E+02  0.25540104340E+02  0.16597354499E+01  0.29049970549E+02  0.00000000000E+00 0. -1.
         21    1    1    2  503  501 -0.27591548447E+02 -0.20646485504E+02 -0.18984236795E+03  0.19294479930E+03  0.00000000000E+00 0. -1.
         -2    1    1    2    0  502 -0.35681403384E+02 -0.12262476712E+02  0.22210856696E+02  0.43781880244E+02  0.00000000000E+00 0.  1.
<scales pt_clust_5="13000.00000" pt_clust_6="13000.00000" pt_clust_7="13000.00000" pt_clust_8="13000.00000" pt_clust_9="34.46115" pt_clust_10="40.02060"></scales>
<clustering>
<clus scale="   34.461">  2  9  1 -1</clus>
<clus scale="   40.021">  1 10  2 -1</clus>
<clus scale="   81.507">  5  6 -1 -1</clus>
<clus scale="   84.315">  1  5  2 -1</clus>
<clus scale="   95.560">  7  8 -1 -1</clus>
<clus scale="   40.021">  1  5  2 -1</clus>
</clustering>
</event>
<event>
10    4  0.2977685E-005  0.2035025E+03  0.7546771E-02  0.1147597E+00
          2   -1    0    0  503    0 -0.00000000000E+00  0.00000000000E+00  0.22724519769E+04  0.22724519769E+04  0.00000000000E+00 0. -1.
         21   -1    0    0  501  502  0.00000000000E+00 -0.00000000000E+00 -0.80315781702E+02  0.80315781702E+02  0.00000000000E+00 0.  1.
         24    2    1    2    0    0  0.13993501824E+03  0.12318449874E+03  0.18194447561E+04  0.18307373700E+04  0.80398178496E+02 0.  0.
         23    2    1    2    0    0 -0.16392149412E+03 -0.52956342436E+02  0.22063115286E+03  0.29381434984E+03  0.89298018561E+02 0.  0.
        -13    1    3    3    0    0  0.64315297844E+02  0.59968912850E+02  0.50470967634E+03  0.51231297606E+03  0.00000000000E+00 0.  1.
         14    1    3    3    0    0  0.75619720393E+02  0.63215585889E+02  0.13147350798E+04  0.13184243939E+04  0.00000000000E+00 0. -1.
        -13    1    4    4    0    0 -0.27297230654E+02  0.36472710111E+01 -0.78696536267E+00  0.27551056271E+02  0.00000000000E+00 0.  1.
         13    1    4    4    0    0 -0.13662426347E+03 -0.56603613447E+02  0.22141811822E+03  0.26626329356E+03  0.00000000000E+00 0. -1.
         21    1    1    2  503  502  0.31222228397E+02 -0.49937437569E+02  0.18202258454E+03  0.19131334637E+03  0.00000000000E+00 0.  1.
          1    1    1    2  501    0 -0.72357525138E+01 -0.20290718733E+02 -0.29962298379E+02  0.36902692386E+02  0.00000000000E+00 0. -1.
<scales pt_clust_5="13000.00000" pt_clust_6="13000.00000" pt_clust_7="13000.00000" pt_clust_8="13000.00000" pt_clust_9="60.24250" pt_clust_10="21.54227"></scales>
<clustering>
<clus scale="   21.542">  2 10  1 -1</clus>
<clus scale="   60.242">  2  9  1 -1</clus>
<clus scale="   80.398">  5  6 -1 -1</clus>
<clus scale="   89.298">  7  8 -1 -1</clus>
<clus scale="  199.757">  1  5  2 -1</clus>
<clus scale="   21.542">  2  5  1 -1</clus>
</clustering>
</event>
<event>
10    4  0.2977685E-005  0.1600045E+03  0.7546771E-02  0.1209737E+00
         -1   -1    0    0    0  501 -0.00000000000E+00  0.00000000000E+00  0.22352853190E+03  0.22352853190E+03  0.00000000000E+00 0.  1.
         21   -1    0    0  503  502  0.00000000000E+00 -0.00000000000E+00 -0.27246664203E+03  0.27246664203E+03  0.00000000000E+00 0.  1.
         24    2    1    2    0    0  0.66276301400E+02  0.35623026979E+01 -0.79474878114E+02  0.13062109320E+03  0.79626475550E+02 0.  0.
         23    2    1    2    0    0 -0.53565497929E+02 -0.12436496091E+03 -0.72299439283E+02  0.17849736077E+03  0.91094417015E+02 0.  0.
        -13    1    3    3    0    0  0.12535458565E+02 -0.30359148973E+02 -0.58506944714E+01  0.33362348143E+02  0.00000000000E+00 0.  1.
         14    1    3    3    0    0  0.53740842835E+02  0.33921451671E+02 -0.73624183642E+02  0.97258745052E+02  0.00000000000E+00 0. -1.
        -11    1    4    4    0    0 -0.19133574335E+02 -0.27032972253E+02 -0.67448071899E+02  0.75140652503E+02  0.00000000000E+00 0.  1.
         11    1    4    4    0    0 -0.34431923594E+02 -0.97331988661E+02 -0.48513673831E+01  0.10335670827E+03  0.00000000000E+00 0. -1.
         21    1    1    2  503  501 -0.29402300658E+02 -0.43946585286E+01  0.19120792689E+02  0.35347036943E+02  0.00000000000E+00 0.  1.
         -2    1    1    2    0  502  0.16691497188E+02  0.12519731674E+03  0.83715414573E+02  0.15152968302E+03  0.00000000000E+00 0.  1.
<scales pt_clust_5="13000.00000" pt_clust_6="13000.00000" pt_clust_7="13000.00000" pt_clust_8="13000.00000" pt_clust_9="29.72891" pt_clust_10="131.54183"></scales>
<clustering>
<clus scale="   29.729">  1  9  2 -1</clus>
<clus scale="   79.626">  5  6 -1 -1</clus>
<clus scale="   91.094">  7  8 -1 -1</clus>
<clus scale="  101.236">  1  5  2 -1</clus>
<clus scale="  131.542">  2 10  1 -1</clus>
<clus scale="  131.542">  2  5  1 -1</clus>
</clustering>
</event>
<event>
10    4  0.3359251E-005  0.1355992E+03  0.7546771E-02  0.1221937E+00
         21   -1    0    0  503  502  0.00000000000E+00  0.00000000000E+00  0.10793568294E+03  0.10793568294E+03  0.00000000000E+00 0.  1.
         -3   -1    0    0    0  501 -0.00000000000E+00 -0.00000000000E+00 -0.78629674844E+03  0.78629674844E+03  0.00000000000E+00 0.  1.
         24    2    1    2    0    0 -0.53776640327E+02 -0.10978203950E+03 -0.64197162647E+03  0.65835451669E+03  0.79743822444E+02 0.  0.
         23    2    1    2    0    0 -0.18599262222E+02  0.72917647152E+02  0.74595615500E+01  0.11811209869E+03  0.90729857138E+02 0.  0.
        -13    1    3    3    0    0 -0.33062221379E+02 -0.11515748770E+03 -0.59185676871E+03  0.60386156702E+03  0.00000000000E+00 0.  1.
         14    1    3    3    0    0 -0.20714418948E+02  0.53754482070E+01 -0.50114857758E+02  0.54492949671E+02  0.00000000000E+00 0. -1.
        -11    1    4    4    0    0  0.23438056148E+02 -0.46146439941E+01  0.17120130668E+02  0.29389390761E+02  0.00000000000E+00 0.  1.
         11    1    4    4    0    0 -0.42037318370E+02  0.77532291146E+02 -0.96605691177E+01  0.88722707926E+02  0.00000000000E+00 0. -1.
         21    1    1    2  503  501 -0.12977933077E+01  0.20411700543E+02 -0.36603885800E+02  0.41930492988E+02  0.00000000000E+00 0.  1.
         -4    1    1    2    0  502  0.73673695856E+02  0.16452691802E+02 -0.72451147824E+01  0.75835323016E+02  0.00000000000E+00 0.  1.
<scales pt_clust_5="13000.00000" pt_clust_6="13000.00000" pt_clust_7="13000.00000" pt_clust_8="13000.00000" pt_clust_9="20.45292" pt_clust_10="75.67373"></scales>
<clustering>
<clus scale="   20.453">  2  9  1 -1</clus>
<clus scale="   75.674">  1 10  2 -1</clus>
<clus scale="   79.744">  5  6 -1 -1</clus>
<clus scale="   90.730">  7  8 -1 -1</clus>
<clus scale="  128.508">  2  5  1 -1</clus>
<clus scale="   75.674">  1  5  2 -1</clus>
</clustering>
</event>
<event>
10    4  0.2977685E-005  0.3061869E+03  0.7546771E-02  0.1082506E+00
         21   -1    0    0  501  502  0.00000000000E+00  0.00000000000E+00  0.20787321582E+03  0.20787321582E+03  0.00000000000E+00 0. -1.
          2   -1    0    0  503    0 -0.00000000000E+00 -0.00000000000E+00 -0.12040882533E+04  0.12040882533E+04  0.00000000000E+00 0. -1.
         23    2    1    2    0    0 -0.14432916575E+03 -0.19719985273E+03 -0.36794517005E+03  0.45072043662E+03  0.89702696831E+02 0.  0.
         24    2    1    2    0    0 -0.22760172498E+02  0.41196974307E+03 -0.45030150447E+03  0.61601072431E+03  0.80378310975E+02 0.  0.
        -11    1    4    4    0    0 -0.19733592321E+02  0.23347146420E+03 -0.31200367215E+03  0.39018537991E+03  0.00000000000E+00 0.  1.
         12    1    4    4    0    0 -0.30265801772E+01  0.17849827887E+03 -0.13829783232E+03  0.22582534440E+03  0.00000000000E+00 0. -1.
        -11    1    3    3    0    0 -0.46396222560E+01 -0.69993487792E+02 -0.11997779137E+03  0.13897944039E+03  0.00000000000E+00 0.  1.
         11    1    3    3    0    0 -0.13968954349E+03 -0.12720636494E+03 -0.24796737868E+03  0.31174099623E+03  0.00000000000E+00 0. -1.
         21    1    1    2  503  502 -0.10698435253E+02 -0.39262300135E+02 -0.50226409830E+02  0.64642686927E+02  0.00000000000E+00 0. -1.
          1    1    1    2  501    0  0.17778777350E+03 -0.17550759020E+03 -0.12774195317E+03  0.28058762129E+03  0.00000000000E+00 0. -1.
<scales pt_clust_5="13000.00000" pt_clust_6="13000.00000" pt_clust_7="13000.00000" pt_clust_8="13000.00000" pt_clust_9="40.69379" pt_clust_10="253.45697"></scales>
<clustering>
<clus scale="   40.694">  2  9  1 -1</clus>
<clus scale="   80.378">  5  6 -1 -1</clus>
<clus scale="   89.703">  7  8 -1 -1</clus>
<clus scale="  253.457">  1 10  2 -1</clus>
<clus scale="  303.586">  1  5  2 -1</clus>
<clus scale="  253.457">  1  5  2 -1</clus>
</clustering>
</event>
<event>
10    4  0.2977685E-005  0.1561904E+03  0.7546771E-02  0.1196108E+00
         21   -1    0    0  503  502  0.00000000000E+00  0.00000000000E+00  0.38472069842E+03  0.38472069842E+03  0.00000000000E+00 0.  1.
         -3   -1    0    0    0  501 -0.00000000000E+00 -0.00000000000E+00 -0.17477762284E+03  0.17477762284E+03  0.00000000000E+00 0.  1.
         23    2    1    2    0    0 -0.34220333374E+02  0.10297878313E+03  0.53792634112E+02  0.15460372191E+03  0.96088513115E+02 0.  0.
         24    2    1    2    0    0  0.55032622077E+02 -0.14591026153E+03  0.15851720342E+03  0.23586681209E+03  0.78657837202E+02 0.  0.
        -11    1    4    4    0    0  0.68024227582E+02 -0.14662765525E+03  0.14609672823E+03  0.21787890862E+03  0.00000000000E+00 0.  1.
         12    1    4    4    0    0 -0.12991605505E+02  0.71739371877E+00  0.12420475192E+02  0.17987903473E+02  0.00000000000E+00 0. -1.
        -11    1    3    3    0    0  0.79173067559E+01  0.91056292589E+02  0.61465053381E+02  0.11014483625E+03  0.00000000000E+00 0. -1.
         11    1    3    3    0    0 -0.42137640130E+02  0.11922490543E+02 -0.76724192688E+01  0.44458885657E+02  0.00000000000E+00 0.  1.
         21    1    1    2  503  501 -0.58132737065E+02 -0.41981466417E+02  0.18290713455E+02  0.74002762380E+02  0.00000000000E+00 0.  1.
         -4    1    1    2    0  502  0.37320448362E+02  0.84912944812E+02 -0.20657475403E+02  0.95025024876E+02  0.00000000000E+00 0.  1.
<scales pt_clust_5="13000.00000" pt_clust_6="13000.00000" pt_clust_7="13000.00000" pt_clust_8="13000.00000" pt_clust_9="71.70675" pt_clust_10="69.89213"></scales>
<clustering>
<clus scale="   71.707">  2  9  1 -1</clus>
<clus scale="   69.892">  1 10  2 -1</clus>
<clus scale="   78.658">  5  6 -1 -1</clus>
<clus scale="   96.089">  7  8 -1 -1</clus>
<clus scale="  146.115">  1  5  2 -1</clus>
<clus scale="   69.892">  1  5  2 -1</clus>
</clustering>
</event>
<event>
10    4  0.2977685E-005  0.2390786E+03  0.7546771E-02  0.1121137E+00
         21   -1    0    0  501  502  0.00000000000E+00  0.00000000000E+00  0.15460674532E+03  0.15460674532E+03  0.00000000000E+00 0. -1.
          2   -1    0    0  503    0 -0.00000000000E+00 -0.00000000000E+00 -0.85969813806E+03  0.85969813806E+03  0.00000000000E+00 0. -1.
         24    2    1    2    0    0  0.90608248410E+02 -0.22625680613E+03 -0.48786487182E+03  0.55120804308E+03  0.80101039957E+02 0.  0.
         23    2    1    2    0    0 -0.41595358965E+02  0.14169499541E+03 -0.31230478070E+02  0.17675516124E+03  0.91974989282E+02 0.  0.
        -13    1    3    3    0    0  0.20397231735E+02 -0.14302305829E+03 -0.23444297773E+03  0.27538182960E+03  0.00000000000E+00 0.  1.
         14    1    3    3    0    0  0.70211016676E+02 -0.83233747845E+02 -0.25342189408E+03  0.27582621348E+03  0.00000000000E+00 0. -1.
        -13    1    4    4    0    0 -0.18994224855E+02  0.63059024441E+02  0.32124007752E+02  0.73274641011E+02  0.00000000000E+00 0.  1.
         13    1    4    4    0    0 -0.22601134109E+02  0.78635970968E+02 -0.63354485822E+02  0.10348052023E+03  0.00000000000E+00 0. -1.
         21    1    1    2  503  502 -0.98586775064E-01 -0.22975085861E+02 -0.16470483140E+03  0.16629956638E+03  0.00000000000E+00 0. -1.
          1    1    1    2  501    0 -0.48914302671E+02  0.10753689658E+03 -0.21291211454E+02  0.12004211269E+03  0.00000000000E+00 0. -1.
<scales pt_clust_5="13000.00000" pt_clust_6="13000.00000" pt_clust_7="13000.00000" pt_clust_8="13000.00000" pt_clust_9="22.97530" pt_clust_10="116.01825"></scales>
<clustering>
<clus scale="   22.975">  2  9  1 -1</clus>
<clus scale="   80.101">  5  6 -1 -1</clus>
<clus scale="   91.975">  7  8 -1 -1</clus>
<clus scale="  116.018">  1 10  2 -1</clus>
<clus scale="  234.767">  2  5  1 -1</clus>
<clus scale="  116.018">  1  5  2 -1</clus>
</clustering>
</event>
<event>
10    4  0.2977685E-005  0.1679702E+03  0.7546771E-02  0.1181369E+00
         -1   -1    0    0    0  501 -0.00000000000E+00  0.00000000000E+00  0.74488653412E+03  0.74488653412E+03  0.00000000000E+00 0.  1.
         21   -1    0    0  503  502  0.00000000000E+00 -0.00000000000E+00 -0.63071997104E+02  0.63071997104E+02  0.00000000000E+00 0. -1.
         23    2    1    2    0    0  0.11271313041E+03 -0.57989257837E+02  0.44344882283E+03  0.47004873919E+03  0.90730121548E+02 0.  0.
         24    2    1    2    0    0 -0.10621711698E+03  0.10682256816E+03  0.14965767948E+03  0.22719635067E+03  0.80793710909E+02 0.  0.
        -13    1    4    4    0    0 -0.45433715909E+02 -0.28770440894E+01  0.40375734256E+02  0.60849813809E+02  0.00000000000E+00 0.  1.
         14    1    4    4    0    0 -0.60783401072E+02  0.10969961225E+03  0.10928194522E+03  0.16634653686E+03  0.00000000000E+00 0. -1.
        -11    1    3    3    0    0  0.64448012448E+02 -0.15373105039E+01  0.10237321384E+03  0.12098009978E+03  0.00000000000E+00 0. -1.
         11    1    3    3    0    0  0.48265117960E+02 -0.56451947334E+02  0.34107560899E+03  0.34906863941E+03  0.00000000000E+00 0.  1.
         21    1    1    2  503  501  0.50176465520E+01 -0.31341342196E+02  0.83216391175E+02  0.89064158155E+02  0.00000000000E+00 0. -1.
         -2    1    1    2    0  502 -0.11513659980E+02 -0.17491968125E+02  0.54916435397E+01  0.21649283217E+02  0.00000000000E+00 0.  1.
<scales pt_clust_5="13000.00000" pt_clust_6="13000.00000" pt_clust_7="13000.00000" pt_clust_8="13000.00000" pt_clust_9="32.57067" pt_clust_10="20.94119"></scales>
<clustering>
<clus scale="   20.941">  2 10  1 -1</clus>
<clus scale="   32.571">  1  9  2 -1</clus>
<clus scale="   80.794">  5  6 -1 -1</clus>
<clus scale="   90.730">  7  8 -1 -1</clus>
<clus scale="  162.818">  2  5  1 -1</clus>
<clus scale="   20.941">  2  5  1 -1</clus>
</clustering>
</event>
<event>
10    4  0.2977685E-005  0.1210986E+03  0.7546771E-02  0.1244728E+00
         -1   -1    0    0    0  501 -0.00000000000E+00  0.00000000000E+00  0.10390795297E+03  0.10390795297E+03  0.00000000000E+00 0.  1.
         21   -1    0    0  503  502  0.00000000000E+00 -0.00000000000E+00 -0.47233206518E+03  0.47233206518E+03  0.00000000000E+00 0. -1.
         24    2    1    2    0    0  0.67488508826E+02  0.26658733016E+02 -0.62696408007E+01  0.10634677423E+03  0.77491555180E+02 0.  0.
         23    2    1    2    0    0 -0.97712770936E+02 -0.11899064734E+02 -0.37185734442E+03  0.39480589868E+03  0.88906915861E+02 0.  0.
        -11    1    3    3    0    0  0.65094532315E+02  0.50357440719E+02 -0.61270509211E+01  0.82527030275E+02  0.00000000000E+00 0.  1.
         12    1    3    3    0    0  0.23939765103E+01 -0.23698707702E+02 -0.14258987960E+00  0.23819743957E+02  0.00000000000E+00 0. -1.
        -11    1    4    4    0    0 -0.62545283542E+02 -0.37122338553E+02 -0.31535517819E+03  0.32363385009E+03  0.00000000000E+00 0. -1.
         11    1    4    4    0    0 -0.35167487394E+02  0.25223273819E+02 -0.56502166230E+02  0.71172048590E+02  0.00000000000E+00 0.  1.
         21    1    1    2  503  501  0.71162080318E+01  0.21299346104E+02 -0.13676577742E+02  0.26293560808E+02  0.00000000000E+00 0. -1.
         -2    1    1    2    0  502  0.23108054078E+02 -0.36059014387E+02  0.23379450755E+02  0.48793784434E+02  0.00000000000E+00 0.  1.
<scales pt_clust_5="13000.00000" pt_clust_6="13000.00000" pt_clust_7="13000.00000" pt_clust_8="13000.00000" pt_clust_9="22.45668" pt_clust_10="38.16848"></scales>
<clustering>
<clus scale="   22.457">  1  9  2 -1</clus>
<clus scale="   38.168">  2 10  1 -1</clus>
<clus scale="   77.492">  5  6 -1 -1</clus>
<clus scale="   88.907">  7  8 -1 -1</clus>
<clus scale="  112.984">  1  5  2 -1</clus>
<clus scale="   38.168">  2  5  1 -1</clus>
</clustering>
</event>
<event>
10    4  0.2977685E-005  0.1429721E+03  0.7546771E-02  0.1229909E+00
          2   -1    0    0  503    0 -0.00000000000E+00  0.00000000000E+00  0.78355932243E+03  0.78355932243E+03  0.00000000000E+00 0. -1.
         21   -1    0    0  501  502  0.00000000000E+00 -0.00000000000E+00 -0.73657224424E+02  0.73657224424E+02  0.00000000000E+00 0.  1.
         23    2    1    2    0    0  0.57929120523E+02 -0.42162054839E+02  0.18447956596E+03  0.20604915670E+03  0.57359592467E+02 0.  0.
         24    2    1    2    0    0  0.91832039950E+02 -0.34066470975E+02  0.68374859521E+02  0.14859288737E+03  0.88380296198E+02 0.  0.
        -11    1    4    4    0    0  0.24495732263E+02 -0.15669564412E+02 -0.20502914853E+02  0.35580130206E+02  0.00000000000E+00 0.  1.
         12    1    4    4    0    0  0.67336307686E+02 -0.18396906563E+02  0.88877774374E+02  0.11301275716E+03  0.00000000000E+00 0. -1.
        -13    1    3    3    0    0  0.32805524682E+02 -0.53609932249E+02  0.11107233461E+03  0.12762167058E+03  0.00000000000E+00 0.  1.
         13    1    3    3    0    0  0.25123595841E+02  0.11447877410E+02  0.73407231353E+02  0.78427486127E+02  0.00000000000E+00 0. -1.
         21    1    1    2  503  502 -0.21993699171E+02 -0.33125189241E+02  0.10899698984E+03  0.11602303547E+03  0.00000000000E+00 0. -1.
          1    1    1    2  501    0 -0.12776746130E+03  0.10935371506E+03  0.34805068268E+03  0.38655146731E+03  0.00000000000E+00 0. -1.
<scales pt_clust_5="13000.00000" pt_clust_6="13000.00000" pt_clust_7="13000.00000" pt_clust_8="13000.00000" pt_clust_9="39.76180" pt_clust_10="112.38302"></scales>
<clustering>
<clus scale="   39.762">  1  9  2 -1</clus>
<clus scale="   57.360">  7  8 -1 -1</clus>
<clus scale="   88.380">  5  6 -1 -1</clus>
<clus scale="   92.891">  1  7  2 -1</clus>
<clus scale="  112.383">  2 10  1 -1</clus>
<clus scale="  112.383">  2  5  1 -1</clus>
</clustering>
</event>
<event>
10    4  0.2977685E-005  0.9825673E+02  0.7546771E-02  0.1289668E+00
          2   -1    0    0  503    0 -0.00000000000E+00  0.00000000000E+00  0.62308023019E+03  0.62308023019E+03  0.00000000000E+00 0. -1.
         21   -1    0    0  501  502  0.00000000000E+00 -0.00000000000E+00 -0.82392975691E+02  0.82392975691E+02  0.00000000000E+00 0.  1.
         23    2    1    2    0    0 -0.73101521096E+02 -0.15426899004E+01  0.26293615637E+03  0.28676959473E+03  0.88063419504E+02 0.  0.
         24    2    1    2    0    0  0.49631055682E+02 -0.13967531037E+02 -0.34716572745E+02  0.98818645884E+02  0.76821551272E+02 0.  0.
        -11    1    4    4    0    0  0.56456296822E+02  0.79131833642E+01 -0.46017578944E+02  0.73263561841E+02  0.00000000000E+00 0.  1.
         12    1    4    4    0    0 -0.68252411403E+01 -0.21880714402E+02  0.11301006198E+02  0.25555084043E+02  0.00000000000E+00 0. -1.
        -13    1    3    3    0    0 -0.82457171111E+02 -0.27411845317E+02  0.20354935800E+03  0.22132088801E+03  0.00000000000E+00 0. -1.
         13    1    3    3    0    0  0.93556500151E+01  0.25869155416E+02  0.59386798375E+02  0.65448706713E+02  0.00000000000E+00 0.  1.
         21    1    1    2  503  502  0.43705046088E+02  0.48202805030E+01  0.23620401361E+03  0.24026173687E+03  0.00000000000E+00 0.  1.
          1    1    1    2  501    0 -0.20234580674E+02  0.10689940435E+02  0.76263657267E+02  0.79623228403E+02  0.00000000000E+00 0. -1.
<scales pt_clust_5="13000.00000" pt_clust_6="13000.00000" pt_clust_7="13000.00000" pt_clust_8="13000.00000" pt_clust_9="43.49515" pt_clust_10="22.88479"></scales>
<clustering>
<clus scale="   22.885">  2 10  1 -1</clus>
<clus scale="   43.495">  1  9  2 -1</clus>
<clus scale="   76.822">  5  6 -1 -1</clus>
<clus scale="   88.063">  7  8 -1 -1</clus>
<clus scale="   88.322">  2  5  1 -1</clus>
<clus scale="   22.885">  2  5  1 -1</clus>
</clustering>
</event>
<event>
10    4  0.2977685E-005  0.1164604E+03  0.7546771E-02  0.1251943E+00
         21   -1    0    0  501  502  0.00000000000E+00  0.00000000000E+00  0.57050345103E+03  0.57050345103E+03  0.00000000000E+00 0.  1.
          2   -1    0    0  503    0 -0.00000000000E+00 -0.00000000000E+00 -0.83968739245E+02  0.83968739245E+02  0.00000000000E+00 0. -1.
         24    2    1    2    0    0 -0.68154792825E+02 -0.24942461783E+02  0.16845633847E+03  0.20039868838E+03  0.80714894215E+02 0.  0.
         23    2    1    2    0    0  0.75855384282E+02  0.16494355099E+02  0.21777531956E+03  0.24788064384E+03  0.89401458068E+02 0.  0.
        -11    1    3    3    0    0 -0.48686454602E+02 -0.50235062760E+02  0.14432372019E+03  0.16038475178E+03  0.00000000000E+00 0.  1.
         12    1    3    3    0    0 -0.19468338223E+02  0.25292600977E+02  0.24132618274E+02  0.40013936598E+02  0.00000000000E+00 0. -1.
        -13    1    4    4    0    0  0.66167957024E+02 -0.25141268658E+02  0.99431641395E+02  0.12205299356E+03  0.00000000000E+00 0. -1.
         13    1    4    4    0    0  0.96874272572E+01  0.41635623756E+02  0.11834367817E+03  0.12582765028E+03  0.00000000000E+00 0.  1.
         21    1    1    2  503  502 -0.52995885285E+02  0.40219029762E+02  0.12804749635E+03  0.14429932617E+03  0.00000000000E+00 0.  1.
          1    1    1    2  501    0  0.45295293828E+02 -0.31770923078E+02 -0.27744442586E+02  0.61893531897E+02  0.00000000000E+00 0. -1.
<scales pt_clust_5="13000.00000" pt_clust_6="13000.00000" pt_clust_7="13000.00000" pt_clust_8="13000.00000" pt_clust_9="52.92785" pt_clust_10="55.32683"></scales>
<clustering>
<clus scale="   55.327">  1 10  2 -1</clus>
<clus scale="   52.928">  1  9  2 -1</clus>
<clus scale="   80.715">  5  6 -1 -1</clus>
<clus scale="   89.401">  7  8 -1 -1</clus>
<clus scale="  109.933">  2  5  1 -1</clus>
<clus scale="   55.327">  1  5  2 -1</clus>
</clustering>
</event>
<event>
10    4  0.2977685E-005  0.6525367E+03  0.7546771E-02  0.1041041E+00
         21   -1    0    0  501  502  0.00000000000E+00  0.00000000000E+00  0.36029547671E+03  0.36029547671E+03  0.00000000000E+00 0.  1.
          2   -1    0    0  503    0 -0.00000000000E+00 -0.00000000000E+00 -0.16857057247E+04  0.16857057247E+04  0.00000000000E+00 0. -1.
         24    2    1    2    0    0  0.96871464477E+01  0.99127205430E+00 -0.24035411126E+03  0.26010005709E+03  0.98929861377E+02 0.  0.
         23    2    1    2    0    0  0.42510396442E+03  0.48202933831E+03 -0.25428177342E+03  0.69782619259E+03  0.96106769863E+02 0.  0.
        -11    1    3    3    0    0 -0.21765297224E+02  0.38687326059E+02 -0.15900262185E+03  0.16508261906E+03  0.00000000000E+00 0.  1.
         12    1    3    3    0    0  0.31452443671E+02 -0.37696054004E+02 -0.81351489410E+02  0.95017438030E+02  0.00000000000E+00 0. -1.
        -13    1    4    4    0    0  0.42813797064E+01  0.19783251816E+02 -0.24596803756E+02  0.31854513332E+02  0.00000000000E+00 0. -1.
         13    1    4    4    0    0  0.42082258472E+03  0.46224608649E+03 -0.22968496967E+03  0.66597167926E+03  0.00000000000E+00 0.  1.
         21    1    1    2  503  502  0.18050740803E+02 -0.15863991725E+02 -0.12854885141E+03  0.13077577251E+03  0.00000000000E+00 0.  1.
          1    1    1    2  501    0 -0.45284185168E+03 -0.46715661864E+03 -0.70222551190E+03  0.95729917921E+03  0.00000000000E+00 0. -1.
<scales pt_clust_5="13000.00000" pt_clust_6="13000.00000" pt_clust_7="13000.00000" pt_clust_8="13000.00000" pt_clust_9="24.03114" pt_clust_10="645.42084"></scales>
<clustering>
<clus scale="   24.031">  2  9  1 -1</clus>
<clus scale="   96.107">  7  8 -1 -1</clus>
<clus scale="   98.930">  5  6 -1 -1</clus>
<clus scale="   99.740">  2  5  1 -1</clus>
<clus scale="  645.421">  1 10  2 -1</clus>
<clus scale="  645.421">  1  5  2 -1</clus>
</clustering>
</event>
<event>
10    4  0.2977685E-005  0.9888781E+02  0.7546771E-02  0.1290527E+00
          2   -1    0    0  503    0 -0.00000000000E+00  0.00000000000E+00  0.29909554375E+03  0.29909554375E+03  0.00000000000E+00 0. -1.
         21   -1    0    0  501  502  0.00000000000E+00 -0.00000000000E+00 -0.18897730878E+03  0.18897730878E+03  0.00000000000E+00 0. -1.
         24    2    1    2    0    0  0.15658609839E+02 -0.20946668455E+02  0.65554415594E+02  0.10456722384E+03  0.77155478848E+02 0.  0.
         23    2    1    2    0    0 -0.68002879779E+02  0.58112168268E+02 -0.77313137588E+02  0.14980478080E+03  0.91993126633E+02 0.  0.
        -13    1    3    3    0    0  0.28427802528E+02  0.21723518650E+02  0.38003524887E+02  0.52195010518E+02  0.00000000000E+00 0.  1.
         14    1    3    3    0    0 -0.12769192689E+02 -0.42670187105E+02  0.27550890707E+02  0.52372213322E+02  0.00000000000E+00 0. -1.
        -11    1    4    4    0    0 -0.75024473198E+02  0.19818866448E+02 -0.79132509630E+02  0.11083056043E+03  0.00000000000E+00 0. -1.
         11    1    4    4    0    0  0.70215934192E+01  0.38293301820E+02  0.18193720419E+01  0.38974220365E+02  0.00000000000E+00 0.  1.
         21    1    1    2  503  502  0.25243714940E+02  0.44441889054E+02  0.13715121541E+03  0.14636523677E+03  0.00000000000E+00 0. -1.
          1    1    1    2  501    0  0.27100555000E+02 -0.81607388866E+02 -0.15274258439E+02  0.87335611120E+02  0.00000000000E+00 0. -1.
<scales pt_clust_5="13000.00000" pt_clust_6="13000.00000" pt_clust_7="13000.00000" pt_clust_8="13000.00000" pt_clust_9="51.11092" pt_clust_10="78.63488"></scales>
<clustering>
<clus scale="   51.111">  1  9  2 -1</clus>
<clus scale="   77.155">  5  6 -1 -1</clus>
<clus scale="   78.635">  2 10  1 -1</clus>
<clus scale="   85.259">  1  5  2 -1</clus>
<clus scale="   91.993">  7  8 -1 -1</clus>
<clus scale="   78.635">  2  5  1 -1</clus>
</clustering>
</event>
<event>
10    4  0.2977685E-005  0.9829734E+02  0.7546771E-02  0.1291491E+00
         -1   -1    0    0    0  501 -0.00000000000E+00  0.00000000000E+00  0.80145752078E+03  0.80145752078E+03  0.00000000000E+00 0.  1.
         21   -1    0    0  501  502  0.00000000000E+00 -0.00000000000E+00 -0.24072486570E+02  0.24072486570E+02  0.00000000000E+00 0.  1.
         24    2    1    2    0    0  0.38551472744E+02 -0.17674025341E+00  0.35155762245E+03  0.36310848285E+03  0.82272480970E+02 0.  0.
         23    2    1    2    0    0  0.12997993147E+02  0.34393504481E+02  0.31749575203E+03  0.33364388877E+03  0.95722677460E+02 0.  0.
        -13    1    3    3    0    0 -0.66586588330E+01  0.33212297117E+02  0.15597145663E+03  0.15960729839E+03  0.00000000000E+00 0.  1.
         14    1    3    3    0    0  0.45210131577E+02 -0.33389037371E+02  0.19558616583E+03  0.20350118446E+03  0.00000000000E+00 0. -1.
        -11    1    4    4    0    0  0.43161918282E+02 -0.99211717263E+01  0.95527876966E+02  0.10529461580E+03  0.00000000000E+00 0.  1.
         11    1    4    4    0    0 -0.30163925135E+02  0.44314676207E+02  0.22196787507E+03  0.22834927298E+03  0.00000000000E+00 0. -1.
         21    1    1    2  503  502 -0.44635918299E+02 -0.12014103176E+02  0.68030297452E+02  0.82248557731E+02  0.00000000000E+00 0.  1.
         -2    1    1    2    0  503 -0.69135475927E+01 -0.22202661051E+02  0.40301362270E+02  0.46529077993E+02  0.00000000000E+00 0.  1.
<scales pt_clust_5="13000.00000" pt_clust_6="13000.00000" pt_clust_7="13000.00000" pt_clust_8="13000.00000" pt_clust_9="22.65014" pt_clust_10="69.62708"></scales>
<clustering>
<clus scale="   22.650">  9 10 -1 -1</clus>
<clus scale="   69.627">  2  9  1 -1</clus>
<clus scale="   82.272">  5  6 -1 -1</clus>
<clus scale="   85.254">  1  5  2 -1</clus>
<clus scale="   95.723">  7  8 -1 -1</clus>
<clus scale="   69.627">  2  5  1 -1</clus>
</clustering>
</event>
<event>
10    4  0.2977685E-005  0.1088276E+03  0.7546771E-02  0.1266825E+00
         21   -1    0    0  501  502  0.00000000000E+00  0.00000000000E+00  0.14699668647E+03  0.14699668647E+03  0.00000000000E+00 0.  1.
          2   -1    0    0  503    0 -0.00000000000E+00 -0.00000000000E+00 -0.31404390733E+03  0.31404390733E+03  0.00000000000E+00 0. -1.
         23    2    1    2    0    0  0.37328603397E+02  0.88397921352E+01 -0.18357944769E+03  0.20867852180E+03  0.91508170606E+02 0.  0.
         24    2    1    2    0    0 -0.65852794062E+02 -0.44610323394E+01 -0.76242869750E+01  0.10512127720E+03  0.81460799610E+02 0.  0.
        -13    1    4    4    0    0 -0.36121935699E+02 -0.29577605997E+02  0.26218831288E+02  0.53544898256E+02  0.00000000000E+00 0.  1.
         14    1    4    4    0    0 -0.29730858363E+02  0.25116573657E+02 -0.33843118263E+02  0.51576378945E+02  0.00000000000E+00 0. -1.
        -13    1    3    3    0    0 -0.22174828413E+02 -0.50218142189E+01 -0.11328294486E+03  0.11554205827E+03  0.00000000000E+00 0.  1.
         13    1    3    3    0    0  0.59503431810E+02  0.13861606354E+02 -0.70296502835E+02  0.93136463529E+02  0.00000000000E+00 0. -1.
         21    1    1    2  503  502  0.22585453623E+02  0.18631889937E+02 -0.56240293700E+02  0.63405210145E+02  0.00000000000E+00 0. -1.
          1    1    1    2  501    0  0.59387370421E+01 -0.23010649733E+02  0.80396807499E+02  0.83835584657E+02  0.00000000000E+00 0. -1.
<scales pt_clust_5="13000.00000" pt_clust_6="13000.00000" pt_clust_7="13000.00000" pt_clust_8="13000.00000" pt_clust_9="28.74784" pt_clust_10="23.76465"></scales>
<clustering>
<clus scale="   23.765">  1 10  2 -1</clus>
<clus scale="   28.748">  2  9  1 -1</clus>
<clus scale="   81.461">  5  6 -1 -1</clus>
<clus scale="   91.508">  7  8 -1 -1</clus>
<clus scale="  100.526">  1  5  2 -1</clus>
<clus scale="   23.765">  1  5  2 -1</clus>
</clustering>
</event>
<event>
10    4  0.2977685E-005  0.8349214E+02  0.7546771E-02  0.1321663E+00
          2   -1    0    0  503    0 -0.00000000000E+00  0.00000000000E+00  0.70967607906E+03  0.70967607906E+03  0.00000000000E+00 0. -1.
         21   -1    0    0  501  502  0.00000000000E+00 -0.00000000000E+00 -0.26887019217E+02  0.26887019217E+02  0.00000000000E+00 0.  1.
         24    2    1    2    0    0  0.73799400279E+01 -0.29934505930E+02  0.33472195112E+03  0.34528548284E+03  0.78947716489E+02 0.  0.
         23    2    1    2    0    0 -0.49882766239E+01  0.21206094716E+01  0.92304416712E+02  0.12376570131E+03  0.82270672710E+02 0.  0.
        -13    1    3    3    0    0  0.16915004894E+02  0.21254254167E+02  0.62797040291E+02  0.68420238088E+02  0.00000000000E+00 0.  1.
         14    1    3    3    0    0 -0.95350648663E+01 -0.51188760097E+02  0.27192491083E+03  0.27686524475E+03  0.00000000000E+00 0. -1.
        -11    1    4    4    0    0 -0.18716268800E+02 -0.34044286660E+02  0.67289674345E+02  0.77699500934E+02  0.00000000000E+00 0. -1.
         11    1    4    4    0    0  0.13727992176E+02  0.36164896132E+02  0.25014742367E+02  0.46066200376E+02  0.00000000000E+00 0.  1.
         21    1    1    2  503  502 -0.25704513407E+02  0.19990271249E+02  0.22845509121E+03  0.23076408225E+03  0.00000000000E+00 0. -1.
          1    1    1    2  501    0  0.23312850003E+02  0.78236252090E+01  0.27307600807E+02  0.36747831888E+02  0.00000000000E+00 0. -1.
<scales pt_clust_5="13000.00000" pt_clust_6="13000.00000" pt_clust_7="13000.00000" pt_clust_8="13000.00000" pt_clust_9="31.87231" pt_clust_10="24.59061"></scales>
<clustering>
<clus scale="   24.591">  2 10  1 -1</clus>
<clus scale="   31.872">  1  9  2 -1</clus>
<clus scale="   78.948">  5  6 -1 -1</clus>
<clus scale="   80.220">  1  5  2 -1</clus>
<clus scale="   82.271">  7  8 -1 -1</clus>
<clus scale="   24.591">  2  5  1 -1</clus>
</clustering>
</event>
<event>
10    4  0.2977685E-005  0.1178751E+03  0.7546771E-02  0.1249209E+00
         21   -1    0    0  503  502  0.00000000000E+00  0.00000000000E+00  0.38893526695E+03  0.38893526695E+03  0.00000000000E+00 0. -1.
         -3   -1    0    0    0  501 -0.00000000000E+00 -0.00000000000E+00 -0.30438619267E+03  0.30438619267E+03  0.00000000000E+00 0.  1.
         23    2    1    2    0    0  0.69170161259E+02 -0.10860591020E+02  0.18256951664E+02  0.11445876826E+03  0.88685002687E+02 0.  0.
         24    2    1    2    0    0 -0.35060468026E+02  0.72367487377E+02  0.24149052092E+03  0.26700397955E+03  0.80666992984E+02 0.  0.
        -11    1    4    4    0    0 -0.21880215848E+02 -0.12743870921E+02  0.34367518596E+02  0.42688129803E+02  0.00000000000E+00 0.  1.
         12    1    4    4    0    0 -0.13180252178E+02  0.85111358299E+02  0.20712300232E+03  0.22431584975E+03  0.00000000000E+00 0. -1.
        -11    1    3    3    0    0  0.52571881628E+02 -0.37127123749E+02  0.40682418982E+02  0.76139905897E+02  0.00000000000E+00 0.  1.
         11    1    3    3    0    0  0.16598279631E+02  0.26266532729E+02 -0.22425467318E+02  0.38318862362E+02  0.00000000000E+00 0. -1.
         21    1    1    2  503  501  0.25378685184E+02 -0.14273313689E+02 -0.22116506132E+03  0.22307350693E+03  0.00000000000E+00 0.  1.
         -4    1    1    2    0  502 -0.59488378417E+02 -0.47233582668E+02  0.45966663018E+02  0.88785204890E+02  0.00000000000E+00 0.  1.
<scales pt_clust_5="13000.00000" pt_clust_6="13000.00000" pt_clust_7="13000.00000" pt_clust_8="13000.00000" pt_clust_9="29.11709" pt_clust_10="73.43302"></scales>
<clustering>
<clus scale="   29.117">  2  9  1 -1</clus>
<clus scale="   73.433">  1 10  2 -1</clus>
<clus scale="   80.667">  5  6 -1 -1</clus>
<clus scale="   88.685">  7  8 -1 -1</clus>
<clus scale="  111.967">  1  5  2 -1</clus>
<clus scale="   73.433">  1  5  2 -1</clus>
</clustering>
</event>
<event>
10    4  0.2977685E-005  0.1453775E+03  0.7546771E-02  0.1208615E+00
          2   -1    0    0  503    0 -0.00000000000E+00  0.00000000000E+00  0.65024909141E+03  0.65024909141E+03  0.00000000000E+00 0. -1.
         21   -1    0    0  501  502  0.00000000000E+00 -0.00000000000E+00 -0.10422221564E+03  0.10422221564E+03  0.00000000000E+00 0.  1.
         23    2    1    2    0    0 -0.23403186191E+02 -0.13230806808E+03  0.32250006658E+03  0.36133574181E+03  0.92217630425E+02 0.  0.
         24    2    1    2    0    0  0.50104384990E+02  0.13758479070E+03  0.36038911331E+02  0.17094309032E+03  0.80515296499E+02 0.  0.
        -13    1    4    4    0    0  0.62891018992E+02  0.13647269355E+03  0.21911264661E+02  0.15185578643E+03  0.00000000000E+00 0.  1.
         14    1    4    4    0    0 -0.12786634002E+02  0.11120971528E+01  0.14127646670E+02  0.19087303885E+02  0.00000000000E+00 0. -1.
        -13    1    3    3    0    0 -0.13521551772E+01 -0.46332639146E+02  0.22399784183E+03  0.22874346967E+03  0.00000000000E+00 0.  1.
         13    1    3    3    0    0 -0.22051031013E+02 -0.85975428935E+02  0.98502224753E+02  0.13259227214E+03  0.00000000000E+00 0. -1.
         21    1    1    2  503  502 -0.33065574502E+01  0.53652373390E+02  0.10688851996E+03  0.11964391415E+03  0.00000000000E+00 0.  1.
          1    1    1    2  501    0 -0.23394641350E+02 -0.58929096011E+02  0.80599377893E+02  0.10254856078E+03  0.00000000000E+00 0. -1.
<scales pt_clust_5="13000.00000" pt_clust_6="13000.00000" pt_clust_7="13000.00000" pt_clust_8="13000.00000" pt_clust_9="53.75417" pt_clust_10="55.24505"></scales>
<clustering>
<clus scale="   53.754">  1  9  2 -1</clus>
<clus scale="   55.245">  2 10  1 -1</clus>
<clus scale="   80.515">  5  6 -1 -1</clus>
<clus scale="   92.218">  7  8 -1 -1</clus>
<clus scale="  138.251">  2  5  1 -1</clus>
<clus scale="   55.245">  2  5  1 -1</clus>
</clustering>
</event>
<event>
10    4  0.2977685E-005  0.3093038E+03  0.7546771E-02  0.1112259E+00
         21   -1    0    0  501  502  0.00000000000E+00  0.00000000000E+00  0.44957950496E+03  0.44957950496E+03  0.00000000000E+00 0. -1.
          2   -1    0    0  503    0 -0.00000000000E+00 -0.00000000000E+00 -0.58009142259E+03  0.58009142259E+03  0.00000000000E+00 0. -1.
         24    2    1    2    0    0 -0.87123330474E+02 -0.68132585605E+02  0.16778593718E+03  0.21611173152E+03  0.79496137334E+02 0.  0.
         23    2    1    2    0    0  0.83760992457E+02 -0.24431092822E+03 -0.38253705331E+03  0.47039391569E+03  0.90730949846E+02 0.  0.
        -11    1    3    3    0    0 -0.12082261562E+02  0.16000291478E+02  0.45870560786E+02  0.50060950037E+02  0.00000000000E+00 0.  1.
         12    1    3    3    0    0 -0.75041068912E+02 -0.84132877082E+02  0.12191537639E+03  0.16605078148E+03  0.00000000000E+00 0. -1.
        -13    1    4    4    0    0 -0.20072651813E+00 -0.10804776774E+03 -0.20232187782E+03  0.22936543474E+03  0.00000000000E+00 0.  1.
         13    1    4    4    0    0  0.83961718975E+02 -0.13626316048E+03 -0.18021517548E+03  0.24102848095E+03  0.00000000000E+00 0. -1.
         21    1    1    2  503  502  0.20047904931E+02  0.49651209004E+01 -0.73173734907E+01  0.21911523737E+02  0.00000000000E+00 0.  1.
          1    1    1    2  501    0 -0.16685566914E+02  0.30747839292E+03  0.91556571996E+02  0.32125375661E+03  0.00000000000E+00 0. -1.
<scales pt_clust_5="13000.00000" pt_clust_6="13000.00000" pt_clust_7="13000.00000" pt_clust_8="13000.00000" pt_clust_9="20.65359" pt_clust_10="295.69708"></scales>
<clustering>
<clus scale="   20.654">  2  9  1 -1</clus>
<clus scale="   79.496">  5  6 -1 -1</clus>
<clus scale="   90.731">  7  8 -1 -1</clus>
<clus scale="  135.554">  2  5  1 -1</clus>
<clus scale="  295.697">  1 10  2 -1</clus>
<clus scale="  295.697">  1  5  2 -1</clus>
</clustering>
</event>
<event>
10    4  0.2977685E-005  0.2559822E+03  0.7546771E-02  0.1110161E+00
          2   -1    0    0  503    0 -0.00000000000E+00  0.00000000000E+00  0.12497696038E+04  0.12497696038E+04  0.00000000000E+00 0. -1.
         21   -1    0    0  501  502  0.00000000000E+00 -0.00000000000E+00 -0.55150568600E+03  0.55150568600E+03  0.00000000000E+00 0. -1.
         23    2    1    2    0    0  0.17335036354E+03  0.18479337787E+03  0.10143123466E+04  0.10494944077E+04  0.91706239194E+02 0.  0.
         24    2    1    2    0    0 -0.16685313248E+03 -0.56252395549E+02  0.11559450712E+03  0.22554096834E+03  0.80637078933E+02 0.  0.
        -13    1    4    4    0    0 -0.11132832150E+03 -0.75437021905E+02  0.87348806407E+02  0.16035757987E+03  0.00000000000E+00 0.  1.
         14    1    4    4    0    0 -0.55524810988E+02  0.19184626356E+02  0.28245700714E+02  0.65183388470E+02  0.00000000000E+00 0. -1.
        -13    1    3    3    0    0  0.14989956417E+03  0.14824264188E+03  0.94063585408E+03  0.96397176836E+03  0.00000000000E+00 0. -1.
         13    1    3    3    0    0  0.23450799373E+02  0.36550735989E+02  0.73676492556E+02  0.85522639388E+02  0.00000000000E+00 0.  1.
         21    1    1    2  503  502  0.14554459816E+02  0.24776785286E+02  0.28680348387E+02  0.40599061236E+02  0.00000000000E+00 0.  1.
          1    1    1    2  501    0 -0.21051690874E+02 -0.15331776761E+03 -0.46032328431E+03  0.48564085251E+03  0.00000000000E+00 0. -1.
<scales pt_clust_5="13000.00000" pt_clust_6="13000.00000" pt_clust_7="13000.00000" pt_clust_8="13000.00000" pt_clust_9="28.73537" pt_clust_10="154.48000"></scales>
<clustering>
<clus scale="   28.735">  1  9  2 -1</clus>
<clus scale="   80.637">  5  6 -1 -1</clus>
<clus scale="   91.706">  7  8 -1 -1</clus>
<clus scale="  154.480">  2 10  1 -1</clus>
<clus scale="  252.228">  2  5  1 -1</clus>
<clus scale="  154.480">  2  5  1 -1</clus>
</clustering>
</event>
<event>
10    4  0.2977685E-005  0.1154661E+03  0.7546771E-02  0.1256524E+00
         21   -1    0    0  503  502  0.00000000000E+00  0.00000000000E+00  0.80255754583E+02  0.80255754583E+02  0.00000000000E+00 0. -1.
         -1   -1    0    0    0  501 -0.00000000000E+00 -0.00000000000E+00 -0.62328645969E+03  0.62328645969E+03  0.00000000000E+00 0.  1.
         24    2    1    2    0    0 -0.96114166032E+02  0.20111443727E+01 -0.16085992315E+03  0.20471652574E+03  0.82407301990E+02 0.  0.
         23    2    1    2    0    0  0.25982629263E+01 -0.40881069261E+02 -0.10280959728E+02  0.10629602854E+03  0.97545552212E+02 0.  0.
        -13    1    3    3    0    0  0.16060284080E+01 -0.24390728286E+02 -0.22055288616E+02  0.32922981480E+02  0.00000000000E+00 0.  1.
         14    1    3    3    0    0 -0.97720194440E+02  0.26401872659E+02 -0.13880463454E+03  0.17179354426E+03  0.00000000000E+00 0. -1.
        -13    1    4    4    0    0  0.10924320219E+02  0.30902165996E+02 -0.91230419144E+01  0.34022265199E+02  0.00000000000E+00 0.  1.
         13    1    4    4    0    0 -0.83260572927E+01 -0.71783235257E+02 -0.11579178139E+01  0.72273763342E+02  0.00000000000E+00 0. -1.
         21    1    1    2  503  501  0.31610094382E+02  0.61621854426E+00 -0.23844855955E+03  0.24053543054E+03  0.00000000000E+00 0.  1.
         -2    1    1    2    0  502  0.61905808724E+02  0.38253706344E+02 -0.13344126268E+03  0.15199422945E+03  0.00000000000E+00 0.  1.
<scales pt_clust_5="13000.00000" pt_clust_6="13000.00000" pt_clust_7="13000.00000" pt_clust_8="13000.00000" pt_clust_9="31.61610" pt_clust_10="83.10705"></scales>
<clustering>
<clus scale="   31.616">  2  9  1 -1</clus>
<clus scale="   82.407">  5  6 -1 -1</clus>
<clus scale="   83.107">  1 10  2 -1</clus>
<clus scale="   97.546">  7  8 -1 -1</clus>
<clus scale="  102.996">  2  5  1 -1</clus>
<clus scale="   83.107">  1  5  2 -1</clus>
</clustering>
</event>
<event>
10    4  0.2977685E-005  0.1894695E+03  0.7546771E-02  0.1160038E+00
         21   -1    0    0  503  502  0.00000000000E+00  0.00000000000E+00  0.33018251350E+03  0.33018251350E+03  0.00000000000E+00 0.  1.
         -3   -1    0    0    0  501 -0.00000000000E+00 -0.00000000000E+00 -0.40547588951E+03  0.40547588951E+03  0.00000000000E+00 0.  1.
         24    2    1    2    0    0 -0.14082185197E+03  0.25640317468E+02 -0.16497288342E+03  0.23249384284E+03  0.79681332966E+02 0.  0.
         23    2    1    2    0    0  0.84842310020E+02 -0.19862858257E+03  0.96626374089E+01  0.23427098489E+03  0.90210844229E+02 0.  0.
        -13    1    3    3    0    0 -0.68988145736E+02  0.84389810666E+01 -0.13679199640E+03  0.15343608093E+03  0.00000000000E+00 0.  1.
         14    1    3    3    0    0 -0.71833706230E+02  0.17201336402E+02 -0.28180887029E+02  0.79057761911E+02  0.00000000000E+00 0. -1.
        -13    1    4    4    0    0  0.62682478425E+02 -0.13908461838E+03 -0.35111593355E+02  0.15654535496E+03  0.00000000000E+00 0.  1.
         13    1    4    4    0    0  0.22159831595E+02 -0.59543964194E+02  0.44774230764E+02  0.77725629935E+02  0.00000000000E+00 0. -1.
         21    1    1    2  503  501  0.97714858874E+01  0.10743944815E+03 -0.47801200104E+02  0.11799860883E+03  0.00000000000E+00 0.  1.
         -4    1    1    2    0  502  0.46208056058E+02  0.65548816951E+02  0.12781807011E+03  0.15089496644E+03  0.00000000000E+00 0.  1.
<scales pt_clust_5="13000.00000" pt_clust_6="13000.00000" pt_clust_7="13000.00000" pt_clust_8="13000.00000" pt_clust_9="120.88456" pt_clust_10="80.19870"></scales>
<clustering>
<clus scale="   79.681">  5  6 -1 -1</clus>
<clus scale="   80.199">  1 10  2 -1</clus>
<clus scale="   90.211">  7  8 -1 -1</clus>
<clus scale="  120.885">  2  9  1 -1</clus>
<clus scale="  184.688">  2  5  1 -1</clus>
<clus scale="   80.199">  1  5  2 -1</clus>
</clustering>
</event>
<event>
10    4  0.2977685E-005  0.3356234E+03  0.7546771E-02  0.1070071E+00
          2   -1    0    0  503    0 -0.00000000000E+00  0.00000000000E+00  0.14854140049E+04  0.14854140049E+04  0.00000000000E+00 0. -1.
         21   -1    0    0  501  502  0.00000000000E+00 -0.00000000000E+00 -0.23177250367E+03  0.23177250367E+03  0.00000000000E+00 0.  1.
         24    2    1    2    0    0 -0.12661182081E+02  0.31024242432E+03  0.43359979274E+03  0.53926399437E+03  0.79913753376E+02 0.  0.
         23    2    1    2    0    0  0.31073983696E+03 -0.15887378094E+02  0.15822601843E+03  0.36119787183E+03  0.92826583750E+02 0.  0.
        -13    1    3    3    0    0 -0.28073825814E+02  0.51042210386E+02  0.54552086418E+02  0.79808377189E+02  0.00000000000E+00 0.  1.
         14    1    3    3    0    0  0.15412643734E+02  0.25920021393E+03  0.37904770632E+03  0.45945561718E+03  0.00000000000E+00 0. -1.
        -13    1    4    4    0    0  0.86482552267E+02  0.87631611653E+01  0.23107625730E+01  0.86956106536E+02  0.00000000000E+00 0. -1.
         13    1    4    4    0    0  0.22425728469E+03 -0.24650539259E+02  0.15591525585E+03  0.27424176529E+03  0.00000000000E+00 0.  1.
         21    1    1    2  503  502  0.21630976836E+02  0.75736290316E+01  0.10360255943E+03  0.10610725393E+03  0.00000000000E+00 0. -1.
          1    1    1    2  501    0 -0.31970963171E+03 -0.30192867526E+03  0.55821313063E+03  0.71061738844E+03  0.00000000000E+00 0. -1.
<scales pt_clust_5="13000.00000" pt_clust_6="13000.00000" pt_clust_7="13000.00000" pt_clust_8="13000.00000" pt_clust_9="22.91853" pt_clust_10="322.53124"></scales>
<clustering>
<clus scale="   22.919">  1  9  2 -1</clus>
<clus scale="   79.914">  5  6 -1 -1</clus>
<clus scale="   92.827">  7  8 -1 -1</clus>
<clus scale="  322.994">  1  5  2 -1</clus>
<clus scale="  322.531">  2 10  1 -1</clus>
<clus scale="  322.531">  2  5  1 -1</clus>
</clustering>
</event>
<event>
10    4  0.2977685E-005  0.1136532E+03  0.7546771E-02  0.1259038E+00
          2   -1    0    0  503    0 -0.00000000000E+00  0.00000000000E+00  0.57722963377E+03  0.57722963377E+03  0.00000000000E+00 0. -1.
         21   -1    0    0  501  502  0.00000000000E+00 -0.00000000000E+00 -0.13753408004E+03  0.13753408004E+03  0.00000000000E+00 0.  1.
         23    2    1    2    0    0 -0.33187129990E+02  0.60136456795E+02  0.20923954112E+03  0.23941307603E+03  0.93913025581E+02 0.  0.
         24    2    1    2    0    0  0.56326773086E+01 -0.93204979876E+02 -0.82341571705E+02  0.14820702043E+03  0.80413252311E+02 0.  0.
        -13    1    4    4    0    0 -0.42280755340E+01 -0.41275316854E+02 -0.85728230980E+02  0.95241052026E+02  0.00000000000E+00 0.  1.
         14    1    4    4    0    0  0.98607528427E+01 -0.51929663022E+02  0.33866592745E+01  0.52965968406E+02  0.00000000000E+00 0. -1.
        -11    1    3    3    0    0 -0.35041695158E+02 -0.17028808865E+02  0.76977224020E+02  0.86275105034E+02  0.00000000000E+00 0.  1.
         11    1    3    3    0    0  0.18545651677E+01  0.77165265660E+02  0.13226231710E+03  0.15313797099E+03  0.00000000000E+00 0. -1.
         21    1    1    2  503  502 -0.67599589425E+01 -0.23933660991E+02  0.47340701875E+02  0.53475781690E+02  0.00000000000E+00 0. -1.
          1    1    1    2  501    0  0.34314411624E+02  0.57002184072E+02  0.26545688245E+03  0.27366783566E+03  0.00000000000E+00 0. -1.
<scales pt_clust_5="13000.00000" pt_clust_6="13000.00000" pt_clust_7="13000.00000" pt_clust_8="13000.00000" pt_clust_9="24.87001" pt_clust_10="54.36132"></scales>
<clustering>
<clus scale="   24.870">  1  9  2 -1</clus>
<clus scale="   54.361">  2 10  1 -1</clus>
<clus scale="   80.413">  5  6 -1 -1</clus>
<clus scale="   93.913">  7  8 -1 -1</clus>
<clus scale="  102.780">  2  5  1 -1</clus>
<clus scale="   54.361">  2  5  1 -1</clus>
</clustering>
</event>
<event>
10    4  0.2977685E-005  0.2318622E+03  0.7546771E-02  0.1126072E+00
          2   -1    0    0  503    0 -0.00000000000E+00  0.00000000000E+00  0.16724534669E+04  0.16724534669E+04  0.00000000000E+00 0. -1.
         21   -1    0    0  501  502  0.00000000000E+00 -0.00000000000E+00 -0.11229314499E+03  0.11229314499E+03  0.00000000000E+00 0. -1.
         23    2    1    2    0    0 -0.19836237639E+03 -0.10179877206E+02  0.90347040124E+03  0.92953901912E+03  0.91283951929E+02 0.  0.
         24    2    1    2    0    0  0.28038016471E+03 -0.10634394411E+02  0.29607568138E+03  0.41568630975E+03  0.80051058096E+02 0.  0.
        -13    1    4    4    0    0  0.20006281633E+03  0.25495112741E+02  0.22780983156E+03  0.30425721127E+03  0.00000000000E+00 0.  1.
         14    1    4    4    0    0  0.80317348370E+02 -0.36129507152E+02  0.68265849824E+02  0.11142909848E+03  0.00000000000E+00 0. -1.
        -13    1    3    3    0    0 -0.45524929160E+02 -0.42574825891E+02  0.26487261308E+03  0.27210776567E+03  0.00000000000E+00 0.  1.
         13    1    3    3    0    0 -0.15283744723E+03  0.32394948685E+02  0.63859778816E+03  0.65743125346E+03  0.00000000000E+00 0. -1.
         21    1    1    2  503  502 -0.15473903948E+03  0.15480989585E+02  0.32065018960E+03  0.35637112041E+03  0.00000000000E+00 0.  1.
          1    1    1    2  501    0  0.72721251166E+02  0.53332820320E+01  0.39964049644E+02  0.83150162552E+02  0.00000000000E+00 0. -1.
<scales pt_clust_5="13000.00000" pt_clust_6="13000.00000" pt_clust_7="13000.00000" pt_clust_8="13000.00000" pt_clust_9="141.38867" pt_clust_10="72.91656"></scales>
<clustering>
<clus scale="   72.917">  2 10  1 -1</clus>
<clus scale="   80.051">  5  6 -1 -1</clus>
<clus scale="   91.284">  7  8 -1 -1</clus>
<clus scale="  141.389">  2  9  1 -1</clus>
<clus scale="  227.674">  2  5  1 -1</clus>
<clus scale="   72.917">  2  5  1 -1</clus>
</clustering>
</event>
<event>
10    4  0.2977685E-005  0.3005647E+03  0.7546771E-02  0.1085336E+00
         21   -1    0    0  501  502  0.00000000000E+00  0.00000000000E+00  0.31371909311E+03  0.31371909311E+03  0.00000000000E+00 0. -1.
          4   -1    0    0  503    0 -0.00000000000E+00 -0.00000000000E+00 -0.10478461282E+04  0.10478461282E+04  0.00000000000E+00 0. -1.
         23    2    1    2    0    0  0.11161349281E+03  0.29389421261E+03 -0.63760172314E+03  0.71670373775E+03  0.91087377650E+02 0.  0.
         24    2    1    2    0    0 -0.10237827069E+03 -0.26618903163E+03 -0.77410313362E+02  0.30631296950E+03  0.80606251611E+02 0.  0.
        -11    1    4    4    0    0 -0.79582343905E+02 -0.11334894374E+03 -0.13730276495E+02  0.13917561928E+03  0.00000000000E+00 0.  1.
         12    1    4    4    0    0 -0.22795926788E+02 -0.15284008789E+03 -0.63680036867E+02  0.16713735022E+03  0.00000000000E+00 0. -1.
        -11    1    3    3    0    0  0.60726383288E+02  0.69957780342E+02 -0.24418742223E+03  0.26116906752E+03  0.00000000000E+00 0. -1.
         11    1    3    3    0    0  0.50887109518E+02  0.22393643227E+03 -0.39341430092E+03  0.45553467023E+03  0.00000000000E+00 0.  1.
         21    1    1    2  503  502 -0.31179584242E+02 -0.29805432704E+02 -0.17544619303E+03  0.18067068644E+03  0.00000000000E+00 0. -1.
          3    1    1    2  501    0  0.21944362129E+02  0.21002517202E+01  0.15633119447E+03  0.15787782761E+03  0.00000000000E+00 0. -1.
<scales pt_clust_5="13000.00000" pt_clust_6="13000.00000" pt_clust_7="13000.00000" pt_clust_8="13000.00000" pt_clust_9="42.84568" pt_clust_10="22.04464"></scales>
<clustering>
<clus scale="   22.045">  1 10  2 -1</clus>
<clus scale="   42.846">  2  9  1 -1</clus>
<clus scale="   80.606">  5  6 -1 -1</clus>
<clus scale="   91.087">  7  8 -1 -1</clus>
<clus scale="  297.556">  1  5  2 -1</clus>
<clus scale="   22.045">  1  5  2 -1</clus>
</clustering>
</event>
<event>
10    4  0.2977685E-005  0.2976279E+03  0.7546771E-02  0.1086953E+00
         21   -1    0    0  501  502  0.00000000000E+00  0.00000000000E+00  0.17236895229E+03  0.17236895229E+03  0.00000000000E+00 0. -1.
          2   -1    0    0  503    0 -0.00000000000E+00 -0.00000000000E+00 -0.18951793504E+04  0.18951793504E+04  0.00000000000E+00 0. -1.
         24    2    1    2    0    0 -0.92803585916E+02  0.21313393777E+03 -0.13418962139E+04  0.13639143085E+04  0.74419158301E+02 0.  0.
         23    2    1    2    0    0  0.15652661352E+03 -0.23093894026E+03 -0.61529909183E+01  0.29296922124E+03  0.89217321353E+02 0.  0.
        -13    1    3    3    0    0 -0.53312382320E+02  0.69348815350E+02 -0.34439527988E+03  0.35533023668E+03  0.00000000000E+00 0.  1.
         14    1    3    3    0    0 -0.39491203596E+02  0.14378512242E+03 -0.99750093405E+03  0.10085840719E+04  0.00000000000E+00 0. -1.
        -13    1    4    4    0    0  0.13513830216E+03 -0.16648134725E+03 -0.38320107741E+02  0.21782293348E+03  0.00000000000E+00 0. -1.
         13    1    4    4    0    0  0.21388311356E+02 -0.64457593007E+02  0.32167116822E+02  0.75146287756E+02  0.00000000000E+00 0.  1.
         21    1    1    2  503  502  0.30589661537E+01  0.72325086740E+02 -0.24006499332E+03  0.25074185224E+03  0.00000000000E+00 0. -1.
          1    1    1    2  501    0 -0.66781993755E+02 -0.54520084252E+02 -0.13469619992E+03  0.15992292065E+03  0.00000000000E+00 0. -1.
<scales pt_clust_5="13000.00000" pt_clust_6="13000.00000" pt_clust_7="13000.00000" pt_clust_8="13000.00000" pt_clust_9="72.38975" pt_clust_10="82.05732"></scales>
<clustering>
<clus scale="   72.390">  2  9  1 -1</clus>
<clus scale="   74.419">  5  6 -1 -1</clus>
<clus scale="   82.057">  1 10  2 -1</clus>
<clus scale="   89.217">  7  8 -1 -1</clus>
<clus scale="  293.532">  2  5  1 -1</clus>
<clus scale="   82.057">  1  5  2 -1</clus>
</clustering>
</event>
<event>
10    4  0.2977685E-005  0.1575779E+03  0.7546771E-02  0.1201014E+00
          2   -1    0    0  503    0 -0.00000000000E+00  0.00000000000E+00  0.18818301643E+04  0.18818301643E+04  0.00000000000E+00 0. -1.
         21   -1    0    0  501  502  0.00000000000E+00 -0.00000000000E+00 -0.42024897273E+02  0.42024897273E+02  0.00000000000E+00 0.  1.
         23    2    1    2    0    0 -0.82241932549E+02  0.55962905349E+02  0.34092488825E+03  0.36693362469E+03  0.92276341807E+02 0.  0.
         24    2    1    2    0    0 -0.68204497108E+02 -0.11898446107E+03  0.26667314022E+03  0.31048005542E+03  0.80462076125E+02 0.  0.
        -13    1    4    4    0    0 -0.73170743780E+02 -0.10485851140E+03  0.17034215666E+03  0.21299228976E+03  0.00000000000E+00 0.  1.
         14    1    4    4    0    0  0.49662466718E+01 -0.14125949662E+02  0.96330983557E+02  0.97487765658E+02  0.00000000000E+00 0. -1.
        -13    1    3    3    0    0 -0.31694597866E+02 -0.17530322427E+02  0.44487951626E+02  0.57367565559E+02  0.00000000000E+00 0. -1.
         13    1    3    3    0    0 -0.50547334682E+02  0.73493227776E+02  0.29643693662E+03  0.30956605913E+03  0.00000000000E+00 0.  1.
         21    1    1    2  503  502  0.44048761134E+02 -0.23400124871E+02  0.27802558034E+03  0.28246430310E+03  0.00000000000E+00 0. -1.
          1    1    1    2  501    0  0.10639766852E+03  0.86421680588E+02  0.95418165826E+03  0.96397707841E+03  0.00000000000E+00 0. -1.
<scales pt_clust_5="13000.00000" pt_clust_6="13000.00000" pt_clust_7="13000.00000" pt_clust_8="13000.00000" pt_clust_9="49.87844" pt_clust_10="135.48679"></scales>
<clustering>
<clus scale="   49.878">  1  9  2 -1</clus>
<clus scale="   80.462">  5  6 -1 -1</clus>
<clus scale="   92.276">  7  8 -1 -1</clus>
<clus scale="  127.875">  1  7  2 -1</clus>
<clus scale="  135.487">  2 10  1 -1</clus>
<clus scale="  135.487">  2  5  1 -1</clus>
</clustering>
</event>
<event>
10    4  0.2977685E-005  0.3048970E+03  0.7546771E-02  0.1083022E+00
          2   -1    0    0  503    0 -0.00000000000E+00  0.00000000000E+00  0.83276830199E+03  0.83276830199E+03  0.00000000000E+00 0. -1.
         21   -1    0    0  501  502  0.00000000000E+00 -0.00000000000E+00 -0.26229378554E+03  0.26229378554E+03  0.00000000000E+00 0. -1.
         23    2    1    2    0    0  0.26472718864E+03 -0.21314184668E+02  0.26918477997E+03  0.38880878070E+03  0.90427005438E+02 0.  0.
         24    2    1    2    0    0 -0.29385953015E+03  0.16917466722E+03  0.23390135457E+03  0.42053693500E+03  0.84663915231E+02 0.  0.
        -11    1    4    4    0    0 -0.11042342080E+03  0.37643031139E+02  0.12127350001E+03  0.16827831547E+03  0.00000000000E+00 0.  1.
         12    1    4    4    0    0 -0.18343610935E+03  0.13153163608E+03  0.11262785457E+03  0.25225861953E+03  0.00000000000E+00 0. -1.
        -11    1    3    3    0    0  0.19401032811E+03 -0.12207619725E+02  0.24661912429E+03  0.31402233337E+03  0.00000000000E+00 0. -1.
         11    1    3    3    0    0  0.70716860530E+02 -0.91065649427E+01  0.22565655684E+02  0.74786447333E+02  0.00000000000E+00 0.  1.
         21    1    1    2  503  502  0.22128116039E+02 -0.73155361974E+01  0.12972935703E+03  0.13180620875E+03  0.00000000000E+00 0. -1.
          1    1    1    2  501    0  0.70042254704E+01 -0.14054494635E+03 -0.62340975120E+02  0.15391016308E+03  0.00000000000E+00 0. -1.
<scales pt_clust_5="13000.00000" pt_clust_6="13000.00000" pt_clust_7="13000.00000" pt_clust_8="13000.00000" pt_clust_9="23.30602" pt_clust_10="141.27485"></scales>
<clustering>
<clus scale="   23.306">  1  9  2 -1</clus>
<clus scale="   84.664">  5  6 -1 -1</clus>
<clus scale="   90.427">  7  8 -1 -1</clus>
<clus scale="  141.275">  2 10  1 -1</clus>
<clus scale="  303.238">  2  5  1 -1</clus>
<clus scale="  141.275">  2  5  1 -1</clus>
</clustering>
</event>
<event>
10    4  0.2977685E-005  0.1594230E+03  0.7546771E-02  0.1189504E+00
         21   -1    0    0  503  502  0.00000000000E+00  0.00000000000E+00  0.20045945432E+03  0.20045945432E+03  0.00000000000E+00 0. -1.
         -1   -1    0    0    0  501 -0.00000000000E+00 -0.00000000000E+00 -0.75568373601E+03  0.75568373601E+03  0.00000000000E+00 0.  1.
         24    2    1    2    0    0  0.17357496059E+03  0.95250682509E+01 -0.53056443822E+03  0.56468350909E+03  0.84556776533E+02 0.  0.
         23    2    1    2    0    0 -0.16645489637E+03  0.15822614457E+02  0.92453403571E+02  0.20935033901E+03  0.85570701510E+02 0.  0.
        -11    1    3    3    0    0  0.10828235026E+03  0.46369117218E+02 -0.34457209530E+03  0.36414981981E+03  0.00000000000E+00 0.  1.
         12    1    3    3    0    0  0.65292610328E+02 -0.36844048967E+02 -0.18599234293E+03  0.20053368928E+03  0.00000000000E+00 0. -1.
        -13    1    4    4    0    0 -0.64098633454E+02  0.40826733950E+02  0.12351693661E+02  0.76993644881E+02  0.00000000000E+00 0.  1.
         13    1    4    4    0    0 -0.10235626291E+03 -0.25004119492E+02  0.80101709910E+02  0.13235669412E+03  0.00000000000E+00 0. -1.
         21    1    1    2  503  501 -0.52439183538E+02  0.15891726965E+02 -0.10671334625E+03  0.11995896475E+03  0.00000000000E+00 0.  1.
         -2    1    1    2    0  502  0.45319119321E+02 -0.41239409674E+02 -0.10399900790E+02  0.62150377494E+02  0.00000000000E+00 0.  1.
<scales pt_clust_5="13000.00000" pt_clust_6="13000.00000" pt_clust_7="13000.00000" pt_clust_8="13000.00000" pt_clust_9="54.79430" pt_clust_10="58.49488"></scales>
<clustering>
<clus scale="   54.794">  2  9  1 -1</clus>
<clus scale="   58.495">  1 10  2 -1</clus>
<clus scale="   84.557">  5  6 -1 -1</clus>
<clus scale="   85.571">  7  8 -1 -1</clus>
<clus scale="  158.881">  2  5  1 -1</clus>
<clus scale="   58.495">  1  5  2 -1</clus>
</clustering>
</event>
<event>
10    4  0.2977685E-005  0.1842500E+03  0.7546771E-02  0.1164744E+00
         21   -1    0    0  501  502  0.00000000000E+00  0.00000000000E+00  0.83007391332E+02  0.83007391332E+02  0.00000000000E+00 0. -1.
          2   -1    0    0  503    0 -0.00000000000E+00 -0.00000000000E+00 -0.77384677053E+03  0.77384677053E+03  0.00000000000E+00 0. -1.
         24    2    1    2    0    0 -0.21669175072E+02 -0.17133929247E+03 -0.22840956420E+03  0.29901951102E+03  0.86110583928E+02 0.  0.
         23    2    1    2    0    0 -0.16762132082E+02  0.15207681112E+03 -0.15609519547E+03  0.23813962362E+03  0.94532770715E+02 0.  0.
        -11    1    3    3    0    0  0.29089674623E+02 -0.10136369290E+03 -0.10967836716E+03  0.15215173884E+03  0.00000000000E+00 0.  1.
         12    1    3    3    0    0 -0.50758849695E+02 -0.69975599563E+02 -0.11873119704E+03  0.14686777219E+03  0.00000000000E+00 0. -1.
        -13    1    4    4    0    0  0.34661081347E+02  0.51173268056E+02 -0.30164620684E+02  0.68774982840E+02  0.00000000000E+00 0. -1.
         13    1    4    4    0    0 -0.51423213429E+02  0.10090354306E+03 -0.12593057478E+03  0.16936464078E+03  0.00000000000E+00 0.  1.
         21    1    1    2  503  502 -0.35347511367E+01  0.42296647239E+02 -0.16929411826E+03  0.17453366240E+03  0.00000000000E+00 0. -1.
          1    1    1    2  501    0  0.41966058291E+02 -0.23034165889E+02 -0.13704050127E+03  0.14516136482E+03  0.00000000000E+00 0. -1.
<scales pt_clust_5="13000.00000" pt_clust_6="13000.00000" pt_clust_7="13000.00000" pt_clust_8="13000.00000" pt_clust_9="42.44409" pt_clust_10="43.17880"></scales>
<clustering>
<clus scale="   42.444">  2  9  1 -1</clus>
<clus scale="   43.179">  1 10  2 -1</clus>
<clus scale="   86.111">  5  6 -1 -1</clus>
<clus scale="   94.533">  7  8 -1 -1</clus>
<clus scale="  180.074">  2  5  1 -1</clus>
<clus scale="   43.179">  1  5  2 -1</clus>
</clustering>
</event>
<event>
10    4  0.2977685E-005  0.1835458E+03  0.7546771E-02  0.1175703E+00
          2   -1    0    0  503    0 -0.00000000000E+00  0.00000000000E+00  0.62088433600E+03  0.62088433600E+03  0.00000000000E+00 0. -1.
         21   -1    0    0  501  502  0.00000000000E+00 -0.00000000000E+00 -0.35115001773E+03  0.35115001773E+03  0.00000000000E+00 0.  1.
         23    2    1    2    0    0 -0.77416294538E+01  0.10344265932E+03  0.28728648750E+03  0.31985121405E+03  0.94926058787E+02 0.  0.
         24    2    1    2    0    0  0.65778072724E+02  0.79053277668E+02 -0.23551210228E+03  0.26920332351E+03  0.80176701771E+02 0.  0.
        -11    1    4    4    0    0  0.45893556566E+02  0.70472202670E+02 -0.23261846237E+03  0.24735379301E+03  0.00000000000E+00 0.  1.
         12    1    4    4    0    0  0.19884516158E+02  0.85810749982E+01 -0.28936399112E+01  0.21849530496E+02  0.00000000000E+00 0. -1.
        -11    1    3    3    0    0  0.40054347865E+02  0.56893558369E+02  0.18577663325E+03  0.19837889310E+03  0.00000000000E+00 0.  1.
         11    1    3    3    0    0 -0.47795977319E+02  0.46549100952E+02  0.10150985426E+03  0.12147232096E+03  0.00000000000E+00 0. -1.
         21    1    1    2  503  502  0.51956026128E+02  0.34835325752E+02  0.11347661842E+02  0.63574350178E+02  0.00000000000E+00 0.  1.
          1    1    1    2  501    0 -0.10999246940E+03 -0.21733126274E+03  0.20661227121E+03  0.31940546599E+03  0.00000000000E+00 0. -1.
<scales pt_clust_5="13000.00000" pt_clust_6="13000.00000" pt_clust_7="13000.00000" pt_clust_8="13000.00000" pt_clust_9="62.55341" pt_clust_10="165.10840"></scales>
<clustering>
<clus scale="   62.553">  2  9  1 -1</clus>
<clus scale="   80.177">  5  6 -1 -1</clus>
<clus scale="   94.926">  7  8 -1 -1</clus>
<clus scale="  141.781">  1  7  2 -1</clus>
<clus scale="  165.108">  2 10  1 -1</clus>
<clus scale="   62.553">  2  5  1 -1</clus>
</clustering>
</event>
<event>
10    4  0.3450888E-005  0.5384032E+03  0.7546771E-02  0.1064077E+00
         21   -1    0    0  503  502  0.00000000000E+00  0.00000000000E+00  0.94209851919E+03  0.94209851919E+03  0.00000000000E+00 0. -1.
          2   -1    0    0  502    0 -0.00000000000E+00 -0.00000000000E+00 -0.73426728128E+03  0.73426728128E+03  0.00000000000E+00 0. -1.
         24    2    1    2    0    0 -0.36511015268E+02  0.25564794754E+02 -0.15276970742E+03  0.17849840385E+03  0.80848523205E+02 0.  0.
         23    2    1    2    0    0 -0.34337547039E+03  0.39361593513E+03  0.66297643934E+03  0.84898443737E+03  0.91632951078E+02 0.  0.
        -11    1    3    3    0    0 -0.36011963385E+02 -0.21652478555E+02 -0.49399505921E+02  0.64853700894E+02  0.00000000000E+00 0.  1.
         12    1    3    3    0    0 -0.49905188314E+00  0.47217273309E+02 -0.10337020150E+03  0.11364470295E+03  0.00000000000E+00 0. -1.
        -11    1    4    4    0    0 -0.37513621979E+02  0.14102254233E+02  0.29881449656E+02  0.49990463511E+02  0.00000000000E+00 0.  1.
         11    1    4    4    0    0 -0.30586184841E+03  0.37951368089E+03  0.63309498969E+03  0.79899397386E+03  0.00000000000E+00 0. -1.
         21    1    1    2  503  501 -0.12588694473E+01 -0.24246240205E+02 -0.55567326317E+01  0.24906669667E+02  0.00000000000E+00 0. -1.
          1    1    1    2  501    0  0.38114535510E+03 -0.39493448968E+03 -0.29681876138E+03  0.62397628958E+03  0.00000000000E+00 0. -1.
<scales pt_clust_5="13000.00000" pt_clust_6="13000.00000" pt_clust_7="13000.00000" pt_clust_8="13000.00000" pt_clust_9="20.59859" pt_clust_10="20.59859"></scales>
<clustering>
<clus scale="   20.599">  9 10 -1 -1</clus>
<clus scale="   80.849">  5  6 -1 -1</clus>
<clus scale="   91.633">  7  8 -1 -1</clus>
<clus scale="   92.321">  2  5  1 -1</clus>
<clus scale="  537.292">  2  7  1 -1</clus>
<clus scale="  538.403">  1  5  2 -1</clus>
</clustering>
</event>
<event>
10    4  0.2977685E-005  0.1549036E+03  0.7546771E-02  0.1196122E+00
          4   -1    0    0  503    0 -0.00000000000E+00  0.00000000000E+00  0.93232527038E+03  0.93232527038E+03  0.00000000000E+00 0. -1.
         21   -1    0    0  501  502  0.00000000000E+00 -0.00000000000E+00 -0.11412691266E+03  0.11412691266E+03  0.00000000000E+00 0.  1.
         24    2    1    2    0    0  0.80381476318E+02  0.60150560609E+02  0.16551565228E+03  0.20894999328E+03  0.78647294085E+02 0.  0.
         23    2    1    2    0    0 -0.18635795167E+02 -0.15815601281E+03  0.74035745075E+02  0.19646828509E+03  0.88078818383E+02 0.  0.
        -13    1    3    3    0    0  0.38614982898E+02  0.41717315800E+02  0.26669735970E+02  0.62791131209E+02  0.00000000000E+00 0.  1.
         14    1    3    3    0    0  0.41766493419E+02  0.18433244808E+02  0.13884591631E+03  0.14615886208E+03  0.00000000000E+00 0. -1.
        -11    1    4    4    0    0  0.29528367888E+02 -0.85957282565E+02  0.16590633392E+02  0.92389545147E+02  0.00000000000E+00 0.  1.
         11    1    4    4    0    0 -0.48164163055E+02 -0.72198730241E+02  0.57445111683E+02  0.10407873994E+03  0.00000000000E+00 0. -1.
         21    1    1    2  503  502 -0.23843001037E+02  0.10808932832E+03  0.58992824947E+03  0.60022256798E+03  0.00000000000E+00 0. -1.
          3    1    1    2  501    0 -0.37902680114E+02 -0.10083876122E+02 -0.11281289109E+02  0.40811336678E+02  0.00000000000E+00 0. -1.
<scales pt_clust_5="13000.00000" pt_clust_6="13000.00000" pt_clust_7="13000.00000" pt_clust_8="13000.00000" pt_clust_9="110.61319" pt_clust_10="39.22114"></scales>
<clustering>
<clus scale="   39.221">  2 10  1 -1</clus>
<clus scale="   78.647">  5  6 -1 -1</clus>
<clus scale="   88.079">  7  8 -1 -1</clus>
<clus scale="  110.613">  1  9  2 -1</clus>
<clus scale="  149.742">  1  5  2 -1</clus>
<clus scale="   39.221">  2  5  1 -1</clus>
</clustering>
</event>
<event>
10    4  0.2977685E-005  0.1673749E+03  0.7546771E-02  0.1211806E+00
         21   -1    0    0  501  502  0.00000000000E+00  0.00000000000E+00  0.18805790832E+03  0.18805790832E+03  0.00000000000E+00 0.  1.
          2   -1    0    0  503    0 -0.00000000000E+00 -0.00000000000E+00 -0.52790075079E+03  0.52790075079E+03  0.00000000000E+00 0. -1.
         23    2    1    2    0    0  0.14247408635E+03 -0.14429768194E+02 -0.15558726058E+03  0.22937832316E+03  0.88881584080E+02 0.  0.
         24    2    1    2    0    0  0.46238962025E+02  0.41766075743E+00  0.65170715374E+02  0.11448080460E+03  0.81978146049E+02 0.  0.
        -13    1    4    4    0    0  0.60391001976E+02 -0.59720999742E+01  0.15775574192E+02  0.62702534549E+02  0.00000000000E+00 0.  1.
         14    1    4    4    0    0 -0.14152039950E+02  0.63897607316E+01  0.49395141183E+02  0.51778270050E+02  0.00000000000E+00 0. -1.
        -11    1    3    3    0    0  0.12600800258E+03 -0.44650158350E+02 -0.11677097622E+03  0.17750243447E+03  0.00000000000E+00 0.  1.
         11    1    3    3    0    0  0.16466083774E+02  0.30220390156E+02 -0.38816284357E+02  0.51875888690E+02  0.00000000000E+00 0. -1.
         21    1    1    2  503  502 -0.13606151358E+03  0.40614266245E+02 -0.27367604626E+03  0.30831936754E+03  0.00000000000E+00 0. -1.
          1    1    1    2  501    0 -0.52651534797E+02 -0.26602158808E+02  0.24249748993E+02  0.63780163813E+02  0.00000000000E+00 0. -1.
<scales pt_clust_5="13000.00000" pt_clust_6="13000.00000" pt_clust_7="13000.00000" pt_clust_8="13000.00000" pt_clust_9="141.82530" pt_clust_10="58.99033"></scales>
<clustering>
<clus scale="   58.990">  1 10  2 -1</clus>
<clus scale="   81.978">  5  6 -1 -1</clus>
<clus scale="   84.626">  1  5  2 -1</clus>
<clus scale="   88.882">  7  8 -1 -1</clus>
<clus scale="  141.825">  2  9  1 -1</clus>
<clus scale="   58.990">  1  5  2 -1</clus>
</clustering>
</event>
<event>
10    4  0.2977685E-005  0.1008002E+03  0.7546771E-02  0.1284094E+00
          2   -1    0    0  503    0 -0.00000000000E+00  0.00000000000E+00  0.46866612579E+03  0.46866612579E+03  0.00000000000E+00 0. -1.
         21   -1    0    0  501  502  0.00000000000E+00 -0.00000000000E+00 -0.21742879584E+03  0.21742879584E+03  0.00000000000E+00 0. -1.
         23    2    1    2    0    0  0.36239039081E+02 -0.78177381895E+00  0.86814170105E+02  0.13160837003E+03  0.92033601518E+02 0.  0.
         24    2    1    2    0    0  0.89791426499E+01  0.17388133417E+02 -0.16521551404E+03  0.18504795175E+03  0.81016085948E+02 0.  0.
        -11    1    4    4    0    0 -0.33592559428E+02  0.21050340939E+02 -0.65490370555E+02  0.76554330629E+02  0.00000000000E+00 0.  1.
         12    1    4    4    0    0  0.42571702078E+02 -0.36622075227E+01 -0.99725143481E+02  0.10849362112E+03  0.00000000000E+00 0. -1.
        -13    1    3    3    0    0 -0.19611490113E+02  0.22044591975E+02  0.49584802997E+01  0.29919243083E+02  0.00000000000E+00 0.  1.
         13    1    3    3    0    0  0.55850529194E+02 -0.22826365794E+02  0.81855689805E+02  0.10168912695E+03  0.00000000000E+00 0. -1.
         21    1    1    2  503  502  0.12532500183E+02 -0.77824027427E+02  0.12039927778E+03  0.14390840454E+03  0.00000000000E+00 0. -1.
          1    1    1    2  501    0 -0.57750681915E+02  0.61217667829E+02  0.20923939610E+03  0.22553019531E+03  0.00000000000E+00 0. -1.
<scales pt_clust_5="13000.00000" pt_clust_6="13000.00000" pt_clust_7="13000.00000" pt_clust_8="13000.00000" pt_clust_9="78.82666" pt_clust_10="50.84650"></scales>
<clustering>
<clus scale="   78.827">  1  9  2 -1</clus>
<clus scale="   50.846">  2 10  1 -1</clus>
<clus scale="   81.016">  5  6 -1 -1</clus>
<clus scale="   90.852">  2  5  1 -1</clus>
<clus scale="   92.034">  7  8 -1 -1</clus>
<clus scale="   50.846">  2  5  1 -1</clus>
</clustering>
</event>
<event>
10    4  0.2977685E-005  0.1006251E+03  0.7546771E-02  0.1285119E+00
          2   -1    0    0  503    0 -0.00000000000E+00  0.00000000000E+00  0.83519874598E+03  0.83519874598E+03  0.00000000000E+00 0. -1.
         21   -1    0    0  501  502  0.00000000000E+00 -0.00000000000E+00 -0.31217167747E+02  0.31217167747E+02  0.00000000000E+00 0. -1.
         24    2    1    2    0    0 -0.26132085699E+02 -0.32131633380E+02  0.22023813890E+03  0.23811868002E+03  0.80500560140E+02 0.  0.
         23    2    1    2    0    0  0.15058378455E+02  0.49976806057E+02  0.13739829466E+03  0.17373753536E+03  0.92639105739E+02 0.  0.
        -13    1    3    3    0    0  0.27650090588E+02 -0.21630201376E+02  0.99980756437E+02  0.10596482803E+03  0.00000000000E+00 0.  1.
         14    1    3    3    0    0 -0.53782176287E+02 -0.10501432004E+02  0.12025738246E+03  0.13215385199E+03  0.00000000000E+00 0. -1.
        -11    1    4    4    0    0 -0.24724323693E+02 -0.61856532432E+01  0.72268321673E+01  0.26491160626E+02  0.00000000000E+00 0.  1.
         11    1    4    4    0    0  0.39782702148E+02  0.56162459301E+02  0.13017146250E+03  0.14724637474E+03  0.00000000000E+00 0. -1.
         21    1    1    2  503  502  0.20074988269E+01  0.33485528647E+02  0.15501860617E+03  0.15860668000E+03  0.00000000000E+00 0.  1.
          1    1    1    2  501    0  0.90662084173E+01 -0.51330701325E+02  0.29132653850E+03  0.29595301834E+03  0.00000000000E+00 0. -1.
<scales pt_clust_5="13000.00000" pt_clust_6="13000.00000" pt_clust_7="13000.00000" pt_clust_8="13000.00000" pt_clust_9="33.54565" pt_clust_10="38.15278"></scales>
<clustering>
<clus scale="   33.546">  1  9  2 -1</clus>
<clus scale="   38.153">  2 10  1 -1</clus>
<clus scale="   80.501">  5  6 -1 -1</clus>
<clus scale="   89.575">  1  5  2 -1</clus>
<clus scale="   92.639">  7  8 -1 -1</clus>
<clus scale="   38.153">  2  5  1 -1</clus>
</clustering>
</event>
<event>
10    4  0.2977685E-005  0.2827220E+03  0.7546771E-02  0.1094546E+00
         -3   -1    0    0    0  501 -0.00000000000E+00  0.00000000000E+00  0.15270845707E+04  0.15270845707E+04  0.00000000000E+00 0.  1.
         21   -1    0    0  503  502  0.00000000000E+00 -0.00000000000E+00 -0.18078573475E+03  0.18078573475E+03  0.00000000000E+00 0.  1.
         23    2    1    2    0    0 -0.82940230260E+02 -0.20311303915E+03  0.64624252996E+03  0.68826164186E+03  0.89110558586E+02 0.  0.
         24    2    1    2    0    0  0.10709089480E+03  0.24778727858E+03  0.20302981999E+02  0.28253942685E+03  0.80927878174E+02 0.  0.
        -13    1    4    4    0    0  0.11999508323E+03  0.23354374980E+03  0.18022864883E+02  0.26318496676E+03  0.00000000000E+00 0.  1.
         14    1    4    4    0    0 -0.12904188425E+02  0.14243528787E+02  0.22801171160E+01  0.19354460088E+02  0.00000000000E+00 0. -1.
        -13    1    3    3    0    0 -0.35227088377E+02 -0.14903650572E+03  0.52801351752E+03  0.54977368296E+03  0.00000000000E+00 0.  1.
         13    1    3    3    0    0 -0.47713141882E+02 -0.54076533428E+02  0.11822901244E+03  0.13848795889E+03  0.00000000000E+00 0. -1.
         21    1    1    2  503  501  0.30867366558E+02 -0.81033633862E+02  0.66350881704E+03  0.66915109985E+03  0.00000000000E+00 0.  1.
         -4    1    1    2    0  502 -0.55018031103E+02  0.36359394430E+02  0.16244506911E+02  0.67918136860E+02  0.00000000000E+00 0.  1.
<scales pt_clust_5="13000.00000" pt_clust_6="13000.00000" pt_clust_7="13000.00000" pt_clust_8="13000.00000" pt_clust_9="85.74123" pt_clust_10="65.94687"></scales>
<clustering>
<clus scale="   65.947">  2 10  1 -1</clus>
<clus scale="   80.928">  5  6 -1 -1</clus>
<clus scale="   85.741">  1  9  2 -1</clus>
<clus scale="   89.111">  7  8 -1 -1</clus>
<clus scale="  280.250">  2  5  1 -1</clus>
<clus scale="   65.947">  2  5  1 -1</clus>
</clustering>
</event>
<event>
10    4  0.2977685E-005  0.2764862E+03  0.7546771E-02  0.1097624E+00
         21   -1    0    0  503  502  0.00000000000E+00  0.00000000000E+00  0.79153424334E+03  0.79153424334E+03  0.00000000000E+00 0.  1.
         -1   -1    0    0    0  501 -0.00000000000E+00 -0.00000000000E+00 -0.21290944916E+03  0.21290944916E+03  0.00000000000E+00 0.  1.
         24    2    1    2    0    0  0.12011147165E+03 -0.17176876552E+02 -0.11745246674E+02  0.14638474035E+03  0.81047706179E+02 0.  0.
         23    2    1    2    0    0  0.12778509475E+03  0.75784713242E+02  0.12628336761E+02  0.17515798642E+03  0.91915679379E+02 0.  0.
        -11    1    3    3    0    0  0.10798066169E+03 -0.43900468540E+02 -0.91499204934E+01  0.11692217703E+03  0.00000000000E+00 0.  1.
         12    1    3    3    0    0  0.12130809960E+02  0.26723591988E+02 -0.25953261802E+01  0.29462563314E+02  0.00000000000E+00 0. -1.
        -13    1    4    4    0    0  0.37449010383E+02 -0.16289484406E+01  0.38149099175E+02  0.53483040485E+02  0.00000000000E+00 0.  1.
         13    1    4    4    0    0  0.90336084371E+02  0.77413661683E+02 -0.25520762414E+02  0.12167494594E+03  0.00000000000E+00 0. -1.
         21    1    1    2  503  501 -0.59290720472E+02 -0.83268263232E+02  0.35409321133E+02  0.10817954159E+03  0.00000000000E+00 0.  1.
         -2    1    1    2    0  502 -0.18860584593E+03  0.24660426542E+02  0.54233238296E+03  0.57472142413E+03  0.00000000000E+00 0.  1.
<scales pt_clust_5="13000.00000" pt_clust_6="13000.00000" pt_clust_7="13000.00000" pt_clust_8="13000.00000" pt_clust_9="102.22032" pt_clust_10="194.79035"></scales>
<clustering>
<clus scale="   81.048">  5  6 -1 -1</clus>
<clus scale="   91.916">  7  8 -1 -1</clus>
<clus scale="  102.220">  2  9  1 -1</clus>
<clus scale="  129.891">  5  7 -1 -1</clus>
<clus scale="  194.790">  1 10  2 -1</clus>
<clus scale="  194.790">  1  5  2 -1</clus>
</clustering>
</event>
<event>
10    4  0.2977685E-005  0.1160932E+03  0.7546771E-02  0.1253133E+00
         -3   -1    0    0    0  501 -0.00000000000E+00  0.00000000000E+00  0.20010883119E+03  0.20010883119E+03  0.00000000000E+00 0.  1.
         21   -1    0    0  503  502  0.00000000000E+00 -0.00000000000E+00 -0.22272604576E+03  0.22272604576E+03  0.00000000000E+00 0.  1.
         23    2    1    2    0    0 -0.52227681430E+02  0.58197838658E+01 -0.37029344417E+02  0.11106944228E+03  0.90573992227E+02 0.  0.
         24    2    1    2    0    0  0.69665835517E+02 -0.64482629301E+02 -0.97510377199E+02  0.15808893339E+03  0.80451843229E+02 0.  0.
        -11    1    4    4    0    0  0.57560363715E+02 -0.10869278787E+02 -0.82376782663E+02  0.10108051748E+03  0.00000000000E+00 0.  1.
         12    1    4    4    0    0  0.12105471802E+02 -0.53613350514E+02 -0.15133594537E+02  0.57008415909E+02  0.00000000000E+00 0. -1.
        -11    1    3    3    0    0 -0.51667689955E+02 -0.28869432118E+02  0.15218737671E+01  0.59205661857E+02  0.00000000000E+00 0.  1.
         11    1    3    3    0    0 -0.55999147454E+00  0.34689215984E+02 -0.38551218184E+02  0.51863780420E+02  0.00000000000E+00 0. -1.
         21    1    1    2  503  501 -0.22847513130E+02  0.79782694807E+02  0.94506079652E+02  0.12577235920E+03  0.00000000000E+00 0.  1.
         -4    1    1    2    0  502  0.54093590424E+01 -0.21119849372E+02  0.17416427389E+02  0.27904142089E+02  0.00000000000E+00 0.  1.
<scales pt_clust_5="13000.00000" pt_clust_6="13000.00000" pt_clust_7="13000.00000" pt_clust_8="13000.00000" pt_clust_9="81.42317" pt_clust_10="21.80160"></scales>
<clustering>
<clus scale="   21.802">  2 10  1 -1</clus>
<clus scale="   80.452">  5  6 -1 -1</clus>
<clus scale="   81.423">  1  9  2 -1</clus>
<clus scale="   90.574">  7  8 -1 -1</clus>
<clus scale="  108.381">  2  5  1 -1</clus>
<clus scale="   21.802">  2  5  1 -1</clus>
</clustering>
</event>
<event>
10    4  0.2977685E-005  0.9668273E+02  0.7546771E-02  0.1294576E+00
         21   -1    0    0  501  502  0.00000000000E+00  0.00000000000E+00  0.79155189101E+02  0.79155189101E+02  0.00000000000E+00 0. -1.
          2   -1    0    0  503    0 -0.00000000000E+00 -0.00000000000E+00 -0.23518687774E+03  0.23518687774E+03  0.00000000000E+00 0. -1.
         24    2    1    2    0    0  0.39866640374E+00  0.45210074468E+02 -0.57474616581E+02  0.10739226392E+03  0.78648948051E+02 0.  0.
         23    2    1    2    0    0 -0.45142668609E+02  0.52725256138E+01 -0.43150901269E+02  0.11092999409E+03  0.91530340611E+02 0.  0.
        -13    1    3    3    0    0  0.18532210388E+02  0.13960252355E+02  0.14146165462E+02  0.27174353073E+02  0.00000000000E+00 0.  1.
         14    1    3    3    0    0 -0.18133543984E+02  0.31249822112E+02 -0.71620782043E+02  0.80217910842E+02  0.00000000000E+00 0. -1.
        -13    1    4    4    0    0 -0.35712264535E+02 -0.30883299566E+02  0.76890348110E+01  0.47835815940E+02  0.00000000000E+00 0. -1.
         13    1    4    4    0    0 -0.94304040739E+01  0.36155825180E+02 -0.50839936080E+02  0.63094178147E+02  0.00000000000E+00 0.  1.
         21    1    1    2  503  502  0.48631341133E+02 -0.30404392510E+02 -0.35333000497E+02  0.67363605518E+02  0.00000000000E+00 0. -1.
          1    1    1    2  501    0 -0.38873389277E+01 -0.20078207572E+02 -0.20073170296E+02  0.28656203324E+02  0.00000000000E+00 0. -1.
<scales pt_clust_5="13000.00000" pt_clust_6="13000.00000" pt_clust_7="13000.00000" pt_clust_8="13000.00000" pt_clust_9="59.06675" pt_clust_10="20.45107"></scales>
<clustering>
<clus scale="   20.451">  1 10  2 -1</clus>
<clus scale="   59.067">  2  9  1 -1</clus>
<clus scale="   78.649">  5  6 -1 -1</clus>
<clus scale="   84.590">  2  5  1 -1</clus>
<clus scale="   91.530">  7  8 -1 -1</clus>
<clus scale="   20.451">  1  5  2 -1</clus>
</clustering>
</event>
<event>
10    4  0.2977685E-005  0.1105656E+03  0.7546771E-02  0.1262509E+00
          2   -1    0    0  503    0 -0.00000000000E+00  0.00000000000E+00  0.35489171918E+03  0.35489171918E+03  0.00000000000E+00 0. -1.
         21   -1    0    0  501  502  0.00000000000E+00 -0.00000000000E+00 -0.10581721448E+03  0.10581721448E+03  0.00000000000E+00 0.  1.
         24    2    1    2    0    0 -0.22790847706E+02 -0.43258487396E+02  0.22746526393E+03  0.24729965810E+03  0.83820970718E+02 0.  0.
         23    2    1    2    0    0 -0.13241057488E+02  0.45619987982E+02 -0.46773343024E+02  0.11322875151E+03  0.91523197306E+02 0.  0.
        -13    1    3    3    0    0 -0.20938232574E+02 -0.30752673938E+02  0.25884069863E+02  0.45322418408E+02  0.00000000000E+00 0.  1.
         14    1    3    3    0    0 -0.18526151320E+01 -0.12505813457E+02  0.20158119407E+03  0.20197723970E+03  0.00000000000E+00 0. -1.
        -11    1    4    4    0    0 -0.25667942943E+02  0.65548945136E+02 -0.53927402004E+02  0.88677348800E+02  0.00000000000E+00 0.  1.
         11    1    4    4    0    0  0.12426885455E+02 -0.19928957154E+02  0.71540589793E+01  0.24551402715E+02  0.00000000000E+00 0. -1.
         21    1    1    2  503  502 -0.48419485325E+01 -0.25131428610E+02  0.31603663988E+02  0.40667244154E+02  0.00000000000E+00 0.  1.
          1    1    1    2  501    0  0.40873853727E+02  0.22769928024E+02  0.36778919811E+02  0.59513279889E+02  0.00000000000E+00 0. -1.
<scales pt_clust_5="13000.00000" pt_clust_6="13000.00000" pt_clust_7="13000.00000" pt_clust_8="13000.00000" pt_clust_9="25.59362" pt_clust_10="44.40085"></scales>
<clustering>
<clus scale="   25.594">  1  9  2 -1</clus>
<clus scale="   44.401">  2 10  1 -1</clus>
<clus scale="   83.821">  5  6 -1 -1</clus>
<clus scale="   91.523">  7  8 -1 -1</clus>
<clus scale="  104.279">  1  5  2 -1</clus>
<clus scale="   44.401">  2  5  1 -1</clus>
</clustering>
</event>
<event>
10    4  0.2977685E-005  0.1370409E+03  0.7546771E-02  0.1234613E+00
          2   -1    0    0  503    0 -0.00000000000E+00  0.00000000000E+00  0.40473654244E+03  0.40473654244E+03  0.00000000000E+00 0. -1.
         21   -1    0    0  501  502  0.00000000000E+00 -0.00000000000E+00 -0.13548645877E+03  0.13548645877E+03  0.00000000000E+00 0.  1.
         23    2    1    2    0    0  0.22958580694E+02  0.62017580528E+01  0.17317480631E+03  0.19713073033E+03  0.91134258466E+02 0.  0.
         24    2    1    2    0    0  0.30540450974E+02  0.75667592500E+02  0.12680304023E+03  0.17081842208E+03  0.80259694798E+02 0.  0.
        -13    1    4    4    0    0  0.47178011997E+02  0.24964450765E+02  0.32579802344E+02  0.62533448160E+02  0.00000000000E+00 0.  1.
         14    1    4    4    0    0 -0.16637561023E+02  0.50703141736E+02  0.94223237889E+02  0.10828497392E+03  0.00000000000E+00 0. -1.
        -11    1    3    3    0    0 -0.25454188621E+02  0.34034412308E+01  0.11136184899E+02  0.27991315522E+02  0.00000000000E+00 0.  1.
         11    1    3    3    0    0  0.48412769315E+02  0.27983168219E+01  0.16203862142E+03  0.16913941480E+03  0.00000000000E+00 0. -1.
         21    1    1    2  503  502  0.82306041294E+00  0.23157365952E+02  0.31145973153E+02  0.38820261075E+02  0.00000000000E+00 0. -1.
          1    1    1    2  501    0 -0.54322092081E+02 -0.10502671651E+03 -0.61873736036E+02  0.13345358773E+03  0.00000000000E+00 0. -1.
<scales pt_clust_5="13000.00000" pt_clust_6="13000.00000" pt_clust_7="13000.00000" pt_clust_8="13000.00000" pt_clust_9="23.17199" pt_clust_10="111.07921"></scales>
<clustering>
<clus scale="   23.172">  1  9  2 -1</clus>
<clus scale="   80.260">  5  6 -1 -1</clus>
<clus scale="   91.134">  7  8 -1 -1</clus>
<clus scale="   95.752">  1  7  2 -1</clus>
<clus scale="  111.079">  2 10  1 -1</clus>
<clus scale="  111.079">  2  5  1 -1</clus>
</clustering>
</event>
<event>
10    4  0.2977685E-005  0.1295845E+03  0.7546771E-02  0.1242929E+00
         -3   -1    0    0    0  501 -0.00000000000E+00  0.00000000000E+00  0.16437486126E+03  0.16437486126E+03  0.00000000000E+00 0.  1.
         21   -1    0    0  503  502  0.00000000000E+00 -0.00000000000E+00 -0.28617253928E+03  0.28617253928E+03  0.00000000000E+00 0.  1.
         23    2    1    2    0    0 -0.39330700058E+02 -0.16041057085E+02 -0.63727259797E+01  0.98477408045E+02  0.88616977940E+02 0.  0.
         24    2    1    2    0    0  0.41928857089E+02 -0.10464875583E+03 -0.59758026145E+02  0.15050902187E+03  0.79828270829E+02 0.  0.
        -13    1    4    4    0    0  0.62366009516E+02 -0.98272595298E+02 -0.46558998247E+02  0.12535853560E+03  0.00000000000E+00 0.  1.
         14    1    4    4    0    0 -0.20437152428E+02 -0.63761605305E+01 -0.13199027897E+02  0.25150486276E+02  0.00000000000E+00 0. -1.
        -11    1    3    3    0    0 -0.59704879620E+02 -0.30052348822E+02  0.11689335165E+02  0.67856148408E+02  0.00000000000E+00 0.  1.
         11    1    3    3    0    0  0.20374179562E+02  0.14011291737E+02 -0.18062061145E+02  0.30621259637E+02  0.00000000000E+00 0. -1.
         21    1    1    2  503  501  0.96630122123E+01  0.22859765949E+02  0.50747848028E+02  0.56491475319E+02  0.00000000000E+00 0.  1.
         -4    1    1    2    0  502 -0.12261169243E+02  0.97830046965E+02 -0.10641477392E+03  0.14506949531E+03  0.00000000000E+00 0.  1.
<scales pt_clust_5="13000.00000" pt_clust_6="13000.00000" pt_clust_7="13000.00000" pt_clust_8="13000.00000" pt_clust_9="24.81819" pt_clust_10="102.07634"></scales>
<clustering>
<clus scale="   24.818">  1  9  2 -1</clus>
<clus scale="   79.828">  5  6 -1 -1</clus>
<clus scale="   88.617">  7  8 -1 -1</clus>
<clus scale="   95.617">  1  7  2 -1</clus>
<clus scale="  102.076">  2 10  1 -1</clus>
<clus scale="  102.076">  2  5  1 -1</clus>
</clustering>
</event>
<event>
10    4  0.2977685E-005  0.1141764E+03  0.7546771E-02  0.1257772E+00
         21   -1    0    0  503  502  0.00000000000E+00  0.00000000000E+00  0.21818398552E+03  0.21818398552E+03  0.00000000000E+00 0. -1.
         -1   -1    0    0    0  501 -0.00000000000E+00 -0.00000000000E+00 -0.25069497695E+03  0.25069497695E+03  0.00000000000E+00 0.  1.
         24    2    1    2    0    0  0.46215827989E+02  0.14060753609E+02 -0.12288789256E+03  0.15463195885E+03  0.80473604441E+02 0.  0.
         23    2    1    2    0    0 -0.48243880560E+02 -0.42472519495E+02  0.15437733936E+03  0.19150397952E+03  0.93327511163E+02 0.  0.
        -13    1    3    3    0    0  0.63164694551E+02  0.18742263764E+02 -0.11988032320E+03  0.13679306627E+03  0.00000000000E+00 0.  1.
         14    1    3    3    0    0 -0.16948866562E+02 -0.46815101551E+01 -0.30075693571E+01  0.17838892580E+02  0.00000000000E+00 0. -1.
        -11    1    4    4    0    0 -0.73185217920E+02 -0.28165091455E+02  0.13714676671E+03  0.15798286020E+03  0.00000000000E+00 0. -1.
         11    1    4    4    0    0  0.24941337359E+02 -0.14307428040E+02  0.17230572649E+02  0.33521119316E+02  0.00000000000E+00 0.  1.
         21    1    1    2  503  501  0.21439182208E+02  0.58523410812E+01 -0.83997535002E+02  0.86887710962E+02  0.00000000000E+00 0.  1.
         -2    1    1    2    0  502 -0.19411129637E+02  0.22559424805E+02  0.19997096771E+02  0.35855313143E+02  0.00000000000E+00 0.  1.
<scales pt_clust_5="13000.00000" pt_clust_6="13000.00000" pt_clust_7="13000.00000" pt_clust_8="13000.00000" pt_clust_9="22.22360" pt_clust_10="29.31877"></scales>
<clustering>
<clus scale="   22.224">  2  9  1 -1</clus>
<clus scale="   29.319">  1 10  2 -1</clus>
<clus scale="   80.474">  5  6 -1 -1</clus>
<clus scale="   93.328">  7  8 -1 -1</clus>
<clus scale="  103.934">  2  5  1 -1</clus>
<clus scale="   29.319">  1  5  2 -1</clus>
</clustering>
</event>
<event>
10    4  0.2977685E-005  0.1812238E+03  0.7546771E-02  0.1167630E+00
         21   -1    0    0  501  502  0.00000000000E+00  0.00000000000E+00  0.10489825064E+03  0.10489825064E+03  0.00000000000E+00 0.  1.
          2   -1    0    0  503    0 -0.00000000000E+00 -0.00000000000E+00 -0.79405810719E+03  0.79405810719E+03  0.00000000000E+00 0. -1.
         24    2    1    2    0    0  0.32573847235E+02 -0.17004726653E+03 -0.20317655192E+03  0.27888458280E+03  0.80738905701E+02 0.  0.
         23    2    1    2    0    0 -0.31276236154E+02  0.12466663464E+03 -0.50663348698E+02  0.16459152884E+03  0.89462974031E+02 0.  0.
        -11    1    3    3    0    0  0.30879396374E+02 -0.13217743192E+03 -0.98939412468E+02  0.16796850291E+03  0.00000000000E+00 0.  1.
         12    1    3    3    0    0  0.16944508606E+01 -0.37869834615E+02 -0.10423713946E+03  0.11091607990E+03  0.00000000000E+00 0. -1.
        -11    1    4    4    0    0  0.28012214788E+02  0.34907520051E+02  0.20368815207E+01  0.44803660785E+02  0.00000000000E+00 0. -1.
         11    1    4    4    0    0 -0.59288450942E+02  0.89759114592E+02 -0.52700230219E+02  0.11978786805E+03  0.00000000000E+00 0.  1.
         21    1    1    2  503  502  0.10705694655E+02 -0.35088217814E+02 -0.52104399868E+02  0.63723334917E+02  0.00000000000E+00 0.  1.
          1    1    1    2  501    0 -0.12003305736E+02  0.80468849705E+02 -0.38321555606E+03  0.39175691127E+03  0.00000000000E+00 0. -1.
<scales pt_clust_5="13000.00000" pt_clust_6="13000.00000" pt_clust_7="13000.00000" pt_clust_8="13000.00000" pt_clust_9="36.68508" pt_clust_10="62.32559"></scales>
<clustering>
<clus scale="   36.685">  2  9  1 -1</clus>
<clus scale="   62.326">  1 10  2 -1</clus>
<clus scale="   80.739">  5  6 -1 -1</clus>
<clus scale="   89.463">  7  8 -1 -1</clus>
<clus scale="  177.080">  2  5  1 -1</clus>
<clus scale="   62.326">  1  5  2 -1</clus>
</clustering>
</event>
<event>
10    4  0.1124867E-004  0.1010198E+03  0.7546771E-02  0.1287914E+00
         21   -1    0    0  503  502  0.00000000000E+00  0.00000000000E+00  0.18060374996E+03  0.18060374996E+03  0.00000000000E+00 0.  1.
         -1   -1    0    0    0  501 -0.00000000000E+00 -0.00000000000E+00 -0.46212618919E+03  0.46212618919E+03  0.00000000000E+00 0.  1.
         23    2    1    2    0    0  0.11316457401E+01  0.15224051189E+02 -0.37800015617E+03  0.39080841653E+03  0.98051251965E+02 0.  0.
         24    2    1    2    0    0 -0.15238587323E+02 -0.31039213972E+02 -0.48196105127E+01  0.87649274071E+02  0.80396015151E+02 0.  0.
        -11    1    4    4    0    0  0.16439045177E+02 -0.47654307409E+02 -0.10327631271E+02  0.51457119902E+02  0.00000000000E+00 0.  1.
         12    1    4    4    0    0 -0.31677632500E+02  0.16615093437E+02  0.55080207579E+01  0.36192154169E+02  0.00000000000E+00 0. -1.
        -13    1    3    3    0    0  0.41609001152E+02  0.29575405733E+02 -0.26605118760E+03  0.27090449983E+03  0.00000000000E+00 0.  1.
         13    1    3    3    0    0 -0.40477355412E+02 -0.14351354545E+02 -0.11194896857E+03  0.11990391671E+03  0.00000000000E+00 0. -1.
         21    1    1    2  503  501  0.25020896251E+02 -0.97264916229E+01 -0.23953835123E+02  0.35978272688E+02  0.00000000000E+00 0.  1.
         -2    1    1    2    0  502 -0.10913954668E+02  0.25541654406E+02  0.12525116257E+03  0.12829397586E+03  0.00000000000E+00 0.  1.
<scales pt_clust_5="13000.00000" pt_clust_6="13000.00000" pt_clust_7="13000.00000" pt_clust_8="13000.00000" pt_clust_9="26.84492" pt_clust_10="27.70970"></scales>
<clustering>
<clus scale="   26.845">  2  9  1 -1</clus>
<clus scale="   27.710">  1 10  2 -1</clus>
<clus scale="   80.396">  5  6 -1 -1</clus>
<clus scale="   83.991">  1  5  2 -1</clus>
<clus scale="   98.051">  7  8 -1 -1</clus>
<clus scale="   27.710">  1  5  2 -1</clus>
</clustering>
</event>
<event>
10    4  0.2977685E-005  0.1155528E+03  0.7546771E-02  0.1254356E+00
         21   -1    0    0  501  502  0.00000000000E+00  0.00000000000E+00  0.57122374178E+03  0.57122374178E+03  0.00000000000E+00 0.  1.
          4   -1    0    0  503    0 -0.00000000000E+00 -0.00000000000E+00 -0.31808802575E+03  0.31808802575E+03  0.00000000000E+00 0. -1.
         23    2    1    2    0    0 -0.42103459724E+02 -0.48845821443E+02 -0.38286728490E+02  0.11841537723E+03  0.91639033135E+02 0.  0.
         24    2    1    2    0    0  0.32600375643E+02  0.11421237894E+03  0.49916075665E+03  0.51944327111E+03  0.80948124929E+02 0.  0.
        -11    1    4    4    0    0  0.45132995753E+02  0.11862307331E+03  0.47707802951E+03  0.49367182122E+03  0.00000000000E+00 0.  1.
         12    1    4    4    0    0 -0.12532620110E+02 -0.44106943630E+01  0.22082727135E+02  0.25771449887E+02  0.00000000000E+00 0. -1.
        -11    1    3    3    0    0 -0.65853143902E+02 -0.50373083403E+02 -0.44111253658E+02  0.93914252340E+02  0.00000000000E+00 0. -1.
         11    1    3    3    0    0  0.23749684178E+02  0.15272619597E+01  0.58245251686E+01  0.24501124894E+02  0.00000000000E+00 0.  1.
         21    1    1    2  503  502  0.29953736885E+02 -0.30006862894E+02 -0.28079723678E+01  0.42491444820E+02  0.00000000000E+00 0.  1.
          3    1    1    2  501    0 -0.20450652804E+02 -0.35359694605E+02 -0.20493033975E+03  0.20896167437E+03  0.00000000000E+00 0. -1.
<scales pt_clust_5="13000.00000" pt_clust_6="13000.00000" pt_clust_7="13000.00000" pt_clust_8="13000.00000" pt_clust_9="42.78938" pt_clust_10="40.84775"></scales>
<clustering>
<clus scale="   40.848">  1 10  2 -1</clus>
<clus scale="   42.789">  2  9  1 -1</clus>
<clus scale="   80.948">  5  6 -1 -1</clus>
<clus scale="   91.639">  7  8 -1 -1</clus>
<clus scale="  107.272">  1  5  2 -1</clus>
<clus scale="   40.848">  1  5  2 -1</clus>
</clustering>
</event>
<event>
10    4  0.2977685E-005  0.1761527E+03  0.7546771E-02  0.1180778E+00
         21   -1    0    0  503  502  0.00000000000E+00  0.00000000000E+00  0.39086117418E+03  0.39086117418E+03  0.00000000000E+00 0.  1.
         -1   -1    0    0    0  501 -0.00000000000E+00 -0.00000000000E+00 -0.36113571805E+03  0.36113571805E+03  0.00000000000E+00 0.  1.
         24    2    1    2    0    0  0.97480757614E+02  0.67173797418E+02 -0.55149664097E+02  0.15331166512E+03  0.80300461070E+02 0.  0.
         23    2    1    2    0    0  0.12032777607E+03 -0.66781627340E+02 -0.10152693143E+03  0.19234635418E+03  0.88038870492E+02 0.  0.
        -11    1    3    3    0    0  0.82144769579E+02  0.83937039242E+02 -0.56943252421E+02  0.13052097043E+03  0.00000000000E+00 0.  1.
         12    1    3    3    0    0  0.15335988035E+02 -0.16763241824E+02  0.17935883238E+01  0.22790694692E+02  0.00000000000E+00 0. -1.
        -11    1    4    4    0    0  0.91321167292E+02 -0.53303075724E+02 -0.11624077598E+03  0.15713908323E+03  0.00000000000E+00 0.  1.
         11    1    4    4    0    0  0.29006608777E+02 -0.13478551617E+02  0.14713844552E+02  0.35207270952E+02  0.00000000000E+00 0. -1.
         21    1    1    2  503  501 -0.10381987767E+03  0.12427776429E+03  0.10223512651E+02  0.16225920593E+03  0.00000000000E+00 0.  1.
         -2    1    1    2    0  502 -0.11398865601E+03 -0.12466993437E+03  0.17617853901E+03  0.24407966700E+03  0.00000000000E+00 0.  1.
<scales pt_clust_5="13000.00000" pt_clust_6="13000.00000" pt_clust_7="13000.00000" pt_clust_8="13000.00000" pt_clust_9="152.57429" pt_clust_10="153.72203"></scales>
<clustering>
<clus scale="   80.300">  5  6 -1 -1</clus>
<clus scale="   88.039">  7  8 -1 -1</clus>
<clus scale="  143.049">  2  5  1 -1</clus>
<clus scale="  153.722">  1 10  2 -1</clus>
<clus scale="  152.574">  1  9  2 -1</clus>
<clus scale="  153.722">  1  5  2 -1</clus>
</clustering>
</event>
<event>
10    4  0.2977685E-005  0.1702855E+03  0.7546771E-02  0.1179070E+00
         21   -1    0    0  501  502  0.00000000000E+00  0.00000000000E+00  0.13642954427E+03  0.13642954427E+03  0.00000000000E+00 0.  1.
          2   -1    0    0  503    0 -0.00000000000E+00 -0.00000000000E+00 -0.11222216707E+04  0.11222216707E+04  0.00000000000E+00 0. -1.
         24    2    1    2    0    0 -0.62343805167E+02 -0.14512595282E+03 -0.10392085199E+03  0.20428230785E+03  0.77352605620E+02 0.  0.
         23    2    1    2    0    0  0.59621036262E+02  0.11122145479E+03 -0.15915899234E+02  0.15518502186E+03  0.88905540833E+02 0.  0.
        -13    1    3    3    0    0 -0.71156101616E+02 -0.69899878718E+02 -0.65755128493E+02  0.11946932981E+03  0.00000000000E+00 0.  1.
         14    1    3    3    0    0  0.88122964487E+01 -0.75226074103E+02 -0.38165723496E+02  0.84812978038E+02  0.00000000000E+00 0. -1.
        -11    1    4    4    0    0  0.54843776873E+02  0.79820167956E+02  0.28160108498E+02  0.10085678353E+03  0.00000000000E+00 0.  1.
         11    1    4    4    0    0  0.47772593888E+01  0.31401286835E+02 -0.44076007731E+02  0.54328238327E+02  0.00000000000E+00 0. -1.
         21    1    1    2  503  502  0.92351688377E+02 -0.61543343124E+02 -0.41852010155E+03  0.43298440252E+03  0.00000000000E+00 0.  1.
          1    1    1    2  501    0 -0.89628919472E+02  0.95447841155E+02 -0.44743527365E+03  0.46619948273E+03  0.00000000000E+00 0. -1.
<scales pt_clust_5="13000.00000" pt_clust_6="13000.00000" pt_clust_7="13000.00000" pt_clust_8="13000.00000" pt_clust_9="110.97936" pt_clust_10="62.27477"></scales>
<clustering>
<clus scale="   77.353">  5  6 -1 -1</clus>
<clus scale="   88.906">  7  8 -1 -1</clus>
<clus scale="  110.979">  2  9  1 -1</clus>
<clus scale="   62.275">  1 10  2 -1</clus>
<clus scale="  164.549">  2  5  1 -1</clus>
<clus scale="   62.275">  1  5  2 -1</clus>
</clustering>
</event>
<event>
10    4  0.2977685E-005  0.1337925E+03  0.7546771E-02  0.1223710E+00
          2   -1    0    0  503    0 -0.00000000000E+00  0.00000000000E+00  0.66090776646E+03  0.66090776646E+03  0.00000000000E+00 0. -1.
         21   -1    0    0  501  502  0.00000000000E+00 -0.00000000000E+00 -0.11546795429E+03  0.11546795429E+03  0.00000000000E+00 0.  1.
         24    2    1    2    0    0  0.66666448781E+02  0.79516448876E+02  0.45643207239E+03  0.47472825688E+03  0.79179543645E+02 0.  0.
         23    2    1    2    0    0 -0.38701614838E+02 -0.89065676681E+02  0.84255031132E+02  0.15517428192E+03  0.86888651419E+02 0.  0.
        -11    1    3    3    0    0 -0.77188700853E+01  0.41103538197E+02  0.21929138862E+03  0.22324380155E+03  0.00000000000E+00 0.  1.
         12    1    3    3    0    0  0.74385318866E+02  0.38412910679E+02  0.23714068377E+03  0.25148445532E+03  0.00000000000E+00 0. -1.
        -13    1    4    4    0    0 -0.43346985488E+02 -0.26848652848E+01  0.22710665017E+02  0.49009631278E+02  0.00000000000E+00 0. -1.
         13    1    4    4    0    0  0.46453706498E+01 -0.86380811396E+02  0.61544366115E+02  0.10616465064E+03  0.00000000000E+00 0.  1.
         21    1    1    2  503  502 -0.61715096693E+02  0.87479057435E+01  0.56870016130E+02  0.84376997750E+02  0.00000000000E+00 0.  1.
          1    1    1    2  501    0  0.33750262750E+02  0.80132206173E+00 -0.52117307486E+02  0.62096184201E+02  0.00000000000E+00 0. -1.
<scales pt_clust_5="13000.00000" pt_clust_6="13000.00000" pt_clust_7="13000.00000" pt_clust_8="13000.00000" pt_clust_9="54.49917" pt_clust_10="33.75977"></scales>
<clustering>
<clus scale="   33.760">  2 10  1 -1</clus>
<clus scale="   54.499">  2  9  1 -1</clus>
<clus scale="   79.180">  5  6 -1 -1</clus>
<clus scale="   86.889">  7  8 -1 -1</clus>
<clus scale="  128.919">  1  5  2 -1</clus>
<clus scale="   33.760">  2  5  1 -1</clus>
</clustering>
</event>
<event>
10    4  0.2977685E-005  0.1189511E+03  0.7546771E-02  0.1248933E+00
         21   -1    0    0  501  502  0.00000000000E+00  0.00000000000E+00  0.90336975462E+02  0.90336975462E+02  0.00000000000E+00 0.  1.
          2   -1    0    0  503    0 -0.00000000000E+00 -0.00000000000E+00 -0.93100668883E+03  0.93100668883E+03  0.00000000000E+00 0. -1.
         23    2    1    2    0    0 -0.39583646994E+02 -0.33019077741E+02 -0.45676454942E+03  0.46929890848E+03  0.94607014999E+02 0.  0.
         24    2    1    2    0    0  0.72019835839E+02  0.19879922755E+02  0.43256519570E+02  0.11940562735E+03  0.82489449478E+02 0.  0.
        -13    1    4    4    0    0  0.46700181027E+02  0.37114217783E+02  0.59909192946E+02  0.84542790757E+02  0.00000000000E+00 0.  1.
         14    1    4    4    0    0  0.25319654812E+02 -0.17234295028E+02 -0.16652673376E+02  0.34862836595E+02  0.00000000000E+00 0. -1.
        -11    1    3    3    0    0 -0.28671721728E+02  0.30979952044E+02 -0.15624897842E+03  0.16185045046E+03  0.00000000000E+00 0. -1.
         11    1    3    3    0    0 -0.10911925266E+02 -0.63999029784E+02 -0.30051557100E+03  0.30744845802E+03  0.00000000000E+00 0.  1.
         21    1    1    2  503  502 -0.27006343914E+02 -0.20541249961E+02 -0.18494639134E+03  0.18803311738E+03  0.00000000000E+00 0.  1.
          1    1    1    2  501    0 -0.54298449310E+01  0.33680404946E+02 -0.24221529218E+03  0.24460601108E+03  0.00000000000E+00 0. -1.
<scales pt_clust_5="13000.00000" pt_clust_6="13000.00000" pt_clust_7="13000.00000" pt_clust_8="13000.00000" pt_clust_9="33.93060" pt_clust_10="30.50281"></scales>
<clustering>
<clus scale="   33.931">  2  9  1 -1</clus>
<clus scale="   30.503">  1 10  2 -1</clus>
<clus scale="   82.489">  5  6 -1 -1</clus>
<clus scale="   94.607">  7  8 -1 -1</clus>
<clus scale="  109.560">  1  5  2 -1</clus>
<clus scale="   30.503">  1  5  2 -1</clus>
</clustering>
</event>
<event>
10    4  0.2977685E-005  0.1496246E+03  0.7546771E-02  0.1203023E+00
         21   -1    0    0  501  502  0.00000000000E+00  0.00000000000E+00  0.59095236890E+02  0.59095236890E+02  0.00000000000E+00 0.  1.
          2   -1    0    0  503    0 -0.00000000000E+00 -0.00000000000E+00 -0.10054249267E+04  0.10054249267E+04  0.00000000000E+00 0. -1.
         23    2    1    2    0    0  0.63495758654E+02  0.95557820088E+02 -0.72066726945E+03  0.73535673034E+03  0.90692884265E+02 0.  0.
         24    2    1    2    0    0 -0.41960535703E+02 -0.13651256425E+03 -0.16951858432E+03  0.23542122817E+03  0.79311017466E+02 0.  0.
        -13    1    4    4    0    0 -0.63398223031E+02 -0.86750057831E+02 -0.95953626428E+02  0.14405556442E+03  0.00000000000E+00 0.  1.
         14    1    4    4    0    0  0.21437687327E+02 -0.49762506418E+02 -0.73564957891E+02  0.91365663750E+02  0.00000000000E+00 0. -1.
        -13    1    3    3    0    0  0.27752918495E+02 -0.82013747565E+01 -0.74255431486E+02  0.79695395965E+02  0.00000000000E+00 0.  1.
         13    1    3    3    0    0  0.35742840160E+02  0.10375919484E+03 -0.64641183796E+03  0.65566133438E+03  0.00000000000E+00 0. -1.
         21    1    1    2  503  502  0.17511015343E+02  0.28911168575E+02 -0.30301924656E+02  0.45394911218E+02  0.00000000000E+00 0.  1.
          1    1    1    2  501    0 -0.39046238294E+02  0.12043575587E+02 -0.25841911357E+02  0.48347293827E+02  0.00000000000E+00 0. -1.
<scales pt_clust_5="13000.00000" pt_clust_6="13000.00000" pt_clust_7="13000.00000" pt_clust_8="13000.00000" pt_clust_9="33.80076" pt_clust_10="39.71906"></scales>
<clustering>
<clus scale="   33.801">  1  9  2 -1</clus>
<clus scale="   39.719">  1 10  2 -1</clus>
<clus scale="   79.311">  5  6 -1 -1</clus>
<clus scale="   90.693">  7  8 -1 -1</clus>
<clus scale="  143.012">  1  5  2 -1</clus>
<clus scale="   33.801">  1  5  2 -1</clus>
</clustering>
</event>
<event>
10    4  0.2977685E-005  0.3569942E+03  0.7546771E-02  0.1097952E+00
          2   -1    0    0  503    0 -0.00000000000E+00  0.00000000000E+00  0.23673091352E+04  0.23673091352E+04  0.00000000000E+00 0. -1.
         21   -1    0    0  501  502  0.00000000000E+00 -0.00000000000E+00 -0.12083743992E+03  0.12083743992E+03  0.00000000000E+00 0. -1.
         24    2    1    2    0    0 -0.75942352003E+02 -0.91816398302E+02  0.40545874898E+03  0.42921982615E+03  0.75069102862E+02 0.  0.
         23    2    1    2    0    0  0.67494981735E+02 -0.29316114254E+03  0.57259779626E+03  0.65327716365E+03  0.91672177936E+02 0.  0.
        -13    1    3    3    0    0 -0.88009323836E+02 -0.62010072456E+02  0.28896299004E+03  0.30836747524E+03  0.00000000000E+00 0.  1.
         14    1    3    3    0    0  0.12066971833E+02 -0.29806325846E+02  0.11649575894E+03  0.12085235091E+03  0.00000000000E+00 0. -1.
        -13    1    4    4    0    0 -0.14290481821E+02 -0.62200687875E+02  0.17470790142E+03  0.18599998457E+03  0.00000000000E+00 0.  1.
         13    1    4    4    0    0  0.81785463556E+02 -0.23096045466E+03  0.39788989484E+03  0.46727717908E+03  0.00000000000E+00 0. -1.
         21    1    1    2  503  502  0.96181188465E+02  0.91140403092E+01  0.76613201743E+03  0.77219955638E+03  0.00000000000E+00 0. -1.
          1    1    1    2  501    0 -0.87733818196E+02  0.37586350053E+03  0.50228313264E+03  0.63345002898E+03  0.00000000000E+00 0. -1.
<scales pt_clust_5="13000.00000" pt_clust_6="13000.00000" pt_clust_7="13000.00000" pt_clust_8="13000.00000" pt_clust_9="96.61204" pt_clust_10="345.02326"></scales>
<clustering>
<clus scale="   75.069">  5  6 -1 -1</clus>
<clus scale="   91.672">  7  8 -1 -1</clus>
<clus scale="   96.612">  1  9  2 -1</clus>
<clus scale="  127.348">  1  5  2 -1</clus>
<clus scale="  345.023">  2 10  1 -1</clus>
<clus scale="  345.023">  2  5  1 -1</clus>
</clustering>
</event>
<event>
10    4  0.2977685E-005  0.1751113E+03  0.7546771E-02  0.1173251E+00
          2   -1    0    0  503    0 -0.00000000000E+00  0.00000000000E+00  0.55919320630E+03  0.55919320630E+03  0.00000000000E+00 0. -1.
         21   -1    0    0  501  502  0.00000000000E+00 -0.00000000000E+00 -0.42891360792E+03  0.42891360792E+03  0.00000000000E+00 0. -1.
         23    2    1    2    0    0 -0.10060385171E+03 -0.17966154589E+02  0.60569387168E+02  0.14838275023E+03  0.88909348303E+02 0.  0.
         24    2    1    2    0    0  0.16638046422E+03  0.17853685770E+03  0.13275783723E+03  0.29020473721E+03  0.83882523314E+02 0.  0.
        -13    1    4    4    0    0  0.93717876698E+01  0.18245499724E+02 -0.11441295448E+02  0.23486845379E+02  0.00000000000E+00 0.  1.
         14    1    4    4    0    0  0.15700867655E+03  0.16029135798E+03  0.14419913268E+03  0.26671789183E+03  0.00000000000E+00 0. -1.
        -11    1    3    3    0    0 -0.20846753288E+02 -0.35813596900E+02  0.51574193585E+02  0.66159642453E+02  0.00000000000E+00 0.  1.
         11    1    3    3    0    0 -0.79757098420E+02  0.17847442311E+02  0.89951935828E+01  0.82223107780E+02  0.00000000000E+00 0. -1.
         21    1    1    2  503  502 -0.10054267533E+02 -0.35217087346E+02  0.22632925977E+03  0.22927334203E+03  0.00000000000E+00 0. -1.
          1    1    1    2  501    0 -0.55722344980E+02 -0.12535361577E+03 -0.28937688579E+03  0.32024598475E+03  0.00000000000E+00 0. -1.
<scales pt_clust_5="13000.00000" pt_clust_6="13000.00000" pt_clust_7="13000.00000" pt_clust_8="13000.00000" pt_clust_9="36.62419" pt_clust_10="138.86981"></scales>
<clustering>
<clus scale="   36.624">  1  9  2 -1</clus>
<clus scale="   83.883">  5  6 -1 -1</clus>
<clus scale="   88.909">  7  8 -1 -1</clus>
<clus scale="  138.870">  2 10  1 -1</clus>
<clus scale="  172.613">  2  5  1 -1</clus>
<clus scale="  138.870">  2  5  1 -1</clus>
</clustering>
</event>
<event>
10    4  0.2977685E-005  0.1152229E+03  0.7546771E-02  0.1257090E+00
         21   -1    0    0  503  502  0.00000000000E+00  0.00000000000E+00  0.20912992424E+03  0.20912992424E+03  0.00000000000E+00 0.  1.
         -3   -1    0    0    0  501 -0.00000000000E+00 -0.00000000000E+00 -0.48951868603E+03  0.48951868603E+03  0.00000000000E+00 0.  1.
         24    2    1    2    0    0  0.17334188854E+02  0.61293075506E+02  0.14404603171E+02  0.10365736449E+03  0.80498704412E+02 0.  0.
         23    2    1    2    0    0 -0.98363656940E+02  0.10571450500E+02  0.89453268522E+02  0.16443750912E+03  0.96180260892E+02 0.  0.
        -13    1    3    3    0    0  0.36430856862E+02 -0.20282735323E+01  0.62400807754E+01  0.37017020859E+02  0.00000000000E+00 0.  1.
         14    1    3    3    0    0 -0.19096668008E+02  0.63321349039E+02  0.81645223955E+01  0.66640343629E+02  0.00000000000E+00 0. -1.
        -13    1    4    4    0    0 -0.94624597671E+02 -0.26391552114E+02  0.49939293114E+02  0.11020100500E+03  0.00000000000E+00 0.  1.
         13    1    4    4    0    0 -0.37390592693E+01  0.36963002614E+02  0.39513975408E+02  0.54236504119E+02  0.00000000000E+00 0. -1.
         21    1    1    2  503  501  0.61086576906E+02 -0.23251157860E+02 -0.37052602679E+03  0.37624689068E+03  0.00000000000E+00 0.  1.
         -4    1    1    2    0  502  0.19942891181E+02 -0.48613368147E+02 -0.13720606696E+02  0.54306845971E+02  0.00000000000E+00 0.  1.
<scales pt_clust_5="13000.00000" pt_clust_6="13000.00000" pt_clust_7="13000.00000" pt_clust_8="13000.00000" pt_clust_9="65.90880" pt_clust_10="52.54501"></scales>
<clustering>
<clus scale="   52.545">  1 10  2 -1</clus>
<clus scale="   65.909">  2  9  1 -1</clus>
<clus scale="   80.499">  5  6 -1 -1</clus>
<clus scale="   96.180">  7  8 -1 -1</clus>
<clus scale="  102.497">  2  5  1 -1</clus>
<clus scale="   52.545">  1  5  2 -1</clus>
</clustering>
</event>
<event>
10    4  0.2977685E-005  0.1148723E+03  0.7546771E-02  0.1264948E+00
         21   -1    0    0  503  502  0.00000000000E+00  0.00000000000E+00  0.14939928646E+03  0.14939928646E+03  0.00000000000E+00 0. -1.
         -1   -1    0    0    0  501 -0.00000000000E+00 -0.00000000000E+00 -0.46146653695E+03  0.46146653695E+03  0.00000000000E+00 0.  1.
         23    2    1    2    0    0  0.48012678281E+02  0.16761260066E+02 -0.20671117733E+03  0.23909807120E+03  0.10886790024E+03 0.  0.
         24    2    1    2    0    0 -0.71253564946E+02 -0.99136103695E+01  0.96003264666E+02  0.14459914210E+03  0.80727534834E+02 0.  0.
        -13    1    4    4    0    0 -0.66306915994E+02 -0.28561989739E+02  0.34263075243E+02  0.79914658803E+02  0.00000000000E+00 0.  1.
         14    1    4    4    0    0 -0.49466489525E+01  0.18648379369E+02  0.61740189424E+02  0.64684483294E+02  0.00000000000E+00 0. -1.
        -11    1    3    3    0    0  0.64197461199E+02 -0.29563725657E+02 -0.11215536291E+03  0.13256754252E+03  0.00000000000E+00 0. -1.
         11    1    3    3    0    0 -0.16184782918E+02  0.46324985723E+02 -0.94555814418E+02  0.10653052868E+03  0.00000000000E+00 0.  1.
         21    1    1    2  503  501 -0.33099464184E+02  0.61089166564E+01 -0.13512223350E+03  0.13925125269E+03  0.00000000000E+00 0.  1.
         -2    1    1    2    0  502  0.56340350849E+02 -0.12956566353E+02 -0.66237104331E+02  0.87917357420E+02  0.00000000000E+00 0.  1.
<scales pt_clust_5="13000.00000" pt_clust_6="13000.00000" pt_clust_7="13000.00000" pt_clust_8="13000.00000" pt_clust_9="33.65848" pt_clust_10="49.81959"></scales>
<clustering>
<clus scale="   33.658">  2  9  1 -1</clus>
<clus scale="   49.820">  1 10  2 -1</clus>
<clus scale="   80.728">  5  6 -1 -1</clus>
<clus scale="   88.659">  1  5  2 -1</clus>
<clus scale="  108.868">  7  8 -1 -1</clus>
<clus scale="   49.820">  1  5  2 -1</clus>
</clustering>
</event>
<event>
10    4  0.2977685E-005  0.1017201E+03  0.7546771E-02  0.1288680E+00
         21   -1    0    0  501  502  0.00000000000E+00  0.00000000000E+00  0.35745125349E+03  0.35745125349E+03  0.00000000000E+00 0. -1.
          2   -1    0    0  503    0 -0.00000000000E+00 -0.00000000000E+00 -0.73953541546E+02  0.73953541546E+02  0.00000000000E+00 0. -1.
         23    2    1    2    0    0 -0.47200889252E+01 -0.85427770453E+01  0.11594441124E+03  0.15372707364E+03  0.10046715081E+03 0.  0.
         24    2    1    2    0    0  0.98082732995E+01  0.14487013676E+02  0.15280720239E+03  0.17314375692E+03  0.79515053084E+02 0.  0.
        -13    1    4    4    0    0  0.26632605756E+02 -0.55608637225E+00  0.98268540752E+01  0.28393167883E+02  0.00000000000E+00 0.  1.
         14    1    4    4    0    0 -0.16824332457E+02  0.15043100048E+02  0.14298034831E+03  0.14475058903E+03  0.00000000000E+00 0. -1.
        -13    1    3    3    0    0  0.23806886344E+02 -0.33794699677E+02  0.12036351271E+02  0.43054887244E+02  0.00000000000E+00 0. -1.
         13    1    3    3    0    0 -0.28526975270E+02  0.25251922632E+02  0.10390805997E+03  0.11067218639E+03  0.00000000000E+00 0.  1.
         21    1    1    2  503  502  0.11291035573E+02 -0.22153375527E+02 -0.38888744890E+02  0.46158357972E+02  0.00000000000E+00 0. -1.
          1    1    1    2  501    0 -0.16379219947E+02  0.16209138896E+02  0.53634843208E+02  0.58375606513E+02  0.00000000000E+00 0. -1.
<scales pt_clust_5="13000.00000" pt_clust_6="13000.00000" pt_clust_7="13000.00000" pt_clust_8="13000.00000" pt_clust_9="24.60116" pt_clust_10="23.04376"></scales>
<clustering>
<clus scale="   23.044">  1 10  2 -1</clus>
<clus scale="   24.601">  2  9  1 -1</clus>
<clus scale="   79.515">  5  6 -1 -1</clus>
<clus scale="   81.092">  1  5  2 -1</clus>
<clus scale="  100.467">  7  8 -1 -1</clus>
<clus scale="   23.044">  1  5  2 -1</clus>
</clustering>
</event>
<event>
10    4  0.2977685E-005  0.1084788E+03  0.7546771E-02  0.1265680E+00
         21   -1    0    0  501  502  0.00000000000E+00  0.00000000000E+00  0.16081224394E+03  0.16081224394E+03  0.00000000000E+00 0. -1.
          2   -1    0    0  503    0 -0.00000000000E+00 -0.00000000000E+00 -0.27749460498E+03  0.27749460498E+03  0.00000000000E+00 0. -1.
         23    2    1    2    0    0 -0.28170819228E+02 -0.28478214350E+02 -0.14735833519E+03  0.17782372208E+03  0.91116373042E+02 0.  0.
         24    2    1    2    0    0  0.17948075761E+02  0.45037565116E+01  0.54925863087E+02  0.10327366650E+03  0.85476210196E+02 0.  0.
        -13    1    4    4    0    0  0.49087489803E+02  0.13270317042E+01  0.12717361619E+02  0.50725476389E+02  0.00000000000E+00 0.  1.
         14    1    4    4    0    0 -0.31139414042E+02  0.31767248074E+01  0.42208501468E+02  0.52548190107E+02  0.00000000000E+00 0. -1.
        -13    1    3    3    0    0  0.23027521101E+02 -0.39900110916E+02 -0.81591641503E+02  0.93698887626E+02  0.00000000000E+00 0.  1.
         13    1    3    3    0    0 -0.51198340329E+02  0.11421896566E+02 -0.65766693690E+02  0.84124834457E+02  0.00000000000E+00 0. -1.
         21    1    1    2  503  502 -0.60543336742E+02  0.13778696405E+01 -0.50056087518E+02  0.78568479979E+02  0.00000000000E+00 0. -1.
          1    1    1    2  501    0  0.70766080209E+02  0.22596588198E+02  0.25806198579E+02  0.78640980356E+02  0.00000000000E+00 0. -1.
<scales pt_clust_5="13000.00000" pt_clust_6="13000.00000" pt_clust_7="13000.00000" pt_clust_8="13000.00000" pt_clust_9="60.55901" pt_clust_10="67.23566"></scales>
<clustering>
<clus scale="   60.559">  2  9  1 -1</clus>
<clus scale="   67.236">  1 10  2 -1</clus>
<clus scale="   85.476">  5  6 -1 -1</clus>
<clus scale="   91.116">  7  8 -1 -1</clus>
<clus scale="  103.786">  1  5  2 -1</clus>
<clus scale="   67.236">  1  5  2 -1</clus>
</clustering>
</event>
<event>
10    4  0.2977685E-005  0.1113930E+03  0.7546771E-02  0.1266651E+00
         21   -1    0    0  501  502  0.00000000000E+00  0.00000000000E+00  0.30591745946E+03  0.30591745946E+03  0.00000000000E+00 0.  1.
          2   -1    0    0  503    0 -0.00000000000E+00 -0.00000000000E+00 -0.18267038759E+03  0.18267038759E+03  0.00000000000E+00 0. -1.
         24    2    1    2    0    0 -0.17963489037E+02 -0.55004539913E+02 -0.57659180174E+02  0.10993080622E+03  0.73566396868E+02 0.  0.
         23    2    1    2    0    0 -0.68454105884E+02  0.10819040509E+02  0.21853968801E+03  0.24806526043E+03  0.94729942187E+02 0.  0.
        -11    1    3    3    0    0 -0.22967828937E+02 -0.70935176434E+02 -0.55801498646E+02  0.93129628330E+02  0.00000000000E+00 0.  1.
         12    1    3    3    0    0  0.50043399001E+01  0.15930636521E+02 -0.18576815283E+01  0.16801177889E+02  0.00000000000E+00 0. -1.
        -13    1    4    4    0    0 -0.21913258992E+02  0.44475471826E+02  0.51771048182E+02  0.71683331002E+02  0.00000000000E+00 0. -1.
         13    1    4    4    0    0 -0.46540846892E+02 -0.33656431317E+02  0.16676863983E+03  0.17638192942E+03  0.00000000000E+00 0.  1.
         21    1    1    2  503  502  0.19739012495E+02 -0.19207843354E+02 -0.25963278219E+02  0.37850517519E+02  0.00000000000E+00 0. -1.
          1    1    1    2  501    0  0.66678582426E+02  0.63393342758E+02 -0.11670157737E+02  0.92741262888E+02  0.00000000000E+00 0. -1.
<scales pt_clust_5="13000.00000" pt_clust_6="13000.00000" pt_clust_7="13000.00000" pt_clust_8="13000.00000" pt_clust_9="27.54215" pt_clust_10="92.86520"></scales>
<clustering>
<clus scale="   27.542">  2  9  1 -1</clus>
<clus scale="   73.566">  5  6 -1 -1</clus>
<clus scale="   92.865">  1 10  2 -1</clus>
<clus scale="   94.057">  2  5  1 -1</clus>
<clus scale="   94.730">  7  8 -1 -1</clus>
<clus scale="   92.865">  1  5  2 -1</clus>
</clustering>
</event>
<event>
10    4  0.2977685E-005  0.9261537E+02  0.7546771E-02  0.1301062E+00
         21   -1    0    0  501  502  0.00000000000E+00  0.00000000000E+00  0.13677895428E+03  0.13677895428E+03  0.00000000000E+00 0.  1.
          2   -1    0    0  503    0 -0.00000000000E+00 -0.00000000000E+00 -0.52363838827E+03  0.52363838827E+03  0.00000000000E+00 0. -1.
         23    2    1    2    0    0 -0.18995100786E+02 -0.78385136471E+01 -0.45369269418E+03  0.46319473807E+03  0.91049703270E+02 0.  0.
         24    2    1    2    0    0 -0.19047915414E+02 -0.41079800266E-01  0.51644854788E+01  0.85945858815E+02  0.83649231724E+02 0.  0.
        -11    1    4    4    0    0 -0.52159818718E+02  0.45655469162E+01  0.30100761441E+01  0.52445700164E+02  0.00000000000E+00 0.  1.
         12    1    4    4    0    0  0.33111903303E+02 -0.46066267165E+01  0.21544093347E+01  0.33500158651E+02  0.00000000000E+00 0. -1.
        -11    1    3    3    0    0 -0.53215955887E+02 -0.19530696449E+02 -0.25334793268E+03  0.25961232840E+03  0.00000000000E+00 0. -1.
         11    1    3    3    0    0  0.34220855101E+02  0.11692182802E+02 -0.20034476151E+03  0.20358240967E+03  0.00000000000E+00 0.  1.
         21    1    1    2  503  502  0.20308483395E+02 -0.12614084087E+02 -0.16165165807E+02  0.28859352050E+02  0.00000000000E+00 0. -1.
          1    1    1    2  501    0  0.17734532805E+02  0.20493677534E+02  0.77833940523E+02  0.82417393614E+02  0.00000000000E+00 0. -1.
<scales pt_clust_5="13000.00000" pt_clust_6="13000.00000" pt_clust_7="13000.00000" pt_clust_8="13000.00000" pt_clust_9="23.90710" pt_clust_10="32.78852"></scales>
<clustering>
<clus scale="   23.907">  1  9  2 -1</clus>
<clus scale="   32.789">  1 10  2 -1</clus>
<clus scale="   83.649">  5  6 -1 -1</clus>
<clus scale="   85.351">  1  5  2 -1</clus>
<clus scale="   91.050">  7  8 -1 -1</clus>
<clus scale="   23.907">  1  5  2 -1</clus>
</clustering>
</event>
<event>
10    4  0.2977685E-005  0.3123468E+03  0.7546771E-02  0.1090906E+00
         21   -1    0    0  501  502  0.00000000000E+00  0.00000000000E+00  0.64659214546E+03  0.64659214546E+03  0.00000000000E+00 0. -1.
          2   -1    0    0  503    0 -0.00000000000E+00 -0.00000000000E+00 -0.14138843493E+04  0.14138843493E+04  0.00000000000E+00 0. -1.
         23    2    1    2    0    0  0.65396216921E+02  0.19911135855E+03  0.30320278887E+03  0.37961967145E+03  0.90868946758E+02 0.  0.
         24    2    1    2    0    0 -0.12573326496E+03 -0.49229470449E+03 -0.12108779099E+04  0.13160093479E+04  0.86558425909E+02 0.  0.
        -13    1    4    4    0    0 -0.20220614069E+02 -0.76454118873E+02 -0.28133411667E+03  0.29223790091E+03  0.00000000000E+00 0.  1.
         14    1    4    4    0    0 -0.10551265090E+03 -0.41584058562E+03 -0.92954379327E+03  0.10237714470E+04  0.00000000000E+00 0. -1.
        -11    1    3    3    0    0  0.53150996223E+02  0.95480795129E+02  0.22185063506E+03  0.24730409401E+03  0.00000000000E+00 0. -1.
         11    1    3    3    0    0  0.12245220698E+02  0.10363056342E+03  0.81352153812E+02  0.13231557744E+03  0.00000000000E+00 0.  1.
         21    1    1    2  503  502 -0.14444390720E+02  0.16591731465E+02 -0.25573422533E+02  0.33733157521E+02  0.00000000000E+00 0.  1.
          1    1    1    2  501    0  0.74781438764E+02  0.27659161448E+03  0.16595633974E+03  0.33111431785E+03  0.00000000000E+00 0. -1.
<scales pt_clust_5="13000.00000" pt_clust_6="13000.00000" pt_clust_7="13000.00000" pt_clust_8="13000.00000" pt_clust_9="21.99832" pt_clust_10="300.11353"></scales>
<clustering>
<clus scale="   21.998">  2  9  1 -1</clus>
<clus scale="   86.558">  5  6 -1 -1</clus>
<clus scale="   90.869">  7  8 -1 -1</clus>
<clus scale="  228.713">  2  7  1 -1</clus>
<clus scale="  300.114">  1 10  2 -1</clus>
<clus scale="  300.114">  1  5  2 -1</clus>
</clustering>
</event>
<event>
10    4  0.2977685E-005  0.1344508E+03  0.7546771E-02  0.1229866E+00
         21   -1    0    0  501  502  0.00000000000E+00  0.00000000000E+00  0.77565350956E+02  0.77565350956E+02  0.00000000000E+00 0. -1.
          2   -1    0    0  503    0 -0.00000000000E+00 -0.00000000000E+00 -0.59488912060E+03  0.59488912060E+03  0.00000000000E+00 0. -1.
         24    2    1    2    0    0  0.51400853179E+02 -0.57390377103E+02 -0.12871590388E+03  0.17025847434E+03  0.80526151548E+02 0.  0.
         23    2    1    2    0    0 -0.80994371167E+02  0.57664010116E+02 -0.13153344724E+03  0.19811592910E+03  0.10983463659E+03 0.  0.
        -13    1    3    3    0    0  0.49862519007E+02 -0.20484609916E+02 -0.23608380505E+02  0.58849347280E+02  0.00000000000E+00 0.  1.
         14    1    3    3    0    0  0.15383341715E+01 -0.36905767187E+02 -0.10510752337E+03  0.11140912706E+03  0.00000000000E+00 0. -1.
        -13    1    4    4    0    0 -0.34745138256E+02 -0.19463600619E+02 -0.12968406611E+01  0.39846432427E+02  0.00000000000E+00 0.  1.
         13    1    4    4    0    0 -0.46249232911E+02  0.77127610735E+02 -0.13023660658E+03  0.15826949667E+03  0.00000000000E+00 0. -1.
         21    1    1    2  503  502 -0.37547717847E+02  0.24401594021E+02 -0.21803982439E+03  0.22259073189E+03  0.00000000000E+00 0. -1.
          1    1    1    2  501    0  0.67141235836E+02 -0.24675227034E+02 -0.39034594146E+02  0.81489336228E+02  0.00000000000E+00 0. -1.
<scales pt_clust_5="13000.00000" pt_clust_6="13000.00000" pt_clust_7="13000.00000" pt_clust_8="13000.00000" pt_clust_9="44.78023" pt_clust_10="64.52761"></scales>
<clustering>
<clus scale="   44.780">  2  9  1 -1</clus>
<clus scale="   64.528">  1 10  2 -1</clus>
<clus scale="   80.526">  5  6 -1 -1</clus>
<clus scale="  109.835">  7  8 -1 -1</clus>
<clus scale="  111.794">  2  5  1 -1</clus>
<clus scale="   64.528">  1  5  2 -1</clus>
</clustering>
</event>
<event>
10    4  0.2977685E-005  0.2914319E+03  0.7546771E-02  0.1090012E+00
          2   -1    0    0  503    0 -0.00000000000E+00  0.00000000000E+00  0.12615295777E+03  0.12615295777E+03  0.00000000000E+00 0. -1.
         21   -1    0    0  501  502  0.00000000000E+00 -0.00000000000E+00 -0.13057127493E+04  0.13057127493E+04  0.00000000000E+00 0. -1.
         24    2    1    2    0    0 -0.22341121626E+03 -0.15297554371E+03 -0.36130105863E+03  0.45863455259E+03  0.80579832074E+02 0.  0.
         23    2    1    2    0    0  0.27510418530E+03  0.14241717155E+03 -0.79334794392E+03  0.85654779699E+03  0.91149354805E+02 0.  0.
        -13    1    3    3    0    0 -0.43036407730E+01 -0.27484109616E+02 -0.55331047202E+02  0.61930787091E+02  0.00000000000E+00 0.  1.
         14    1    3    3    0    0 -0.21910757548E+03 -0.12549143409E+03 -0.30597001143E+03  0.39670376549E+03  0.00000000000E+00 0. -1.
        -11    1    4    4    0    0  0.63299396200E+02  0.70871550034E+02 -0.30499413068E+03  0.31945423759E+03  0.00000000000E+00 0.  1.
         11    1    4    4    0    0  0.21180478910E+03  0.71545621516E+02 -0.48835381324E+03  0.53709355940E+03  0.00000000000E+00 0. -1.
         21    1    1    2  503  502  0.28619631805E+02  0.73606921998E+01 -0.20923077851E+02  0.36208262884E+02  0.00000000000E+00 0.  1.
          1    1    1    2  501    0 -0.80312600845E+02  0.31976799596E+01 -0.39877111250E+01  0.80475094605E+02  0.00000000000E+00 0. -1.
<scales pt_clust_5="13000.00000" pt_clust_6="13000.00000" pt_clust_7="13000.00000" pt_clust_8="13000.00000" pt_clust_9="29.55103" pt_clust_10="71.29513"></scales>
<clustering>
<clus scale="   29.551">  1  9  2 -1</clus>
<clus scale="   71.295">  2 10  1 -1</clus>
<clus scale="   80.580">  5  6 -1 -1</clus>
<clus scale="   91.149">  7  8 -1 -1</clus>
<clus scale="  288.301">  1  5  2 -1</clus>
<clus scale="   71.295">  2  5  1 -1</clus>
</clustering>
</event>
<event>
10    4  0.2977685E-005  0.1824024E+03  0.7546771E-02  0.1166173E+00
          2   -1    0    0  503    0 -0.00000000000E+00  0.00000000000E+00  0.10135576381E+04  0.10135576381E+04  0.00000000000E+00 0. -1.
         21   -1    0    0  501  502  0.00000000000E+00 -0.00000000000E+00 -0.12277535724E+03  0.12277535724E+03  0.00000000000E+00 0.  1.
         24    2    1    2    0    0 -0.10310775455E+03 -0.73691595367E+02  0.70003156811E+03  0.71629932730E+03  0.83539629284E+02 0.  0.
         23    2    1    2    0    0  0.88098772510E+02  0.97683723897E+02 -0.50873708470E+01  0.15914476166E+03  0.89429694107E+02 0.  0.
        -13    1    3    3    0    0 -0.58600111579E+02 -0.47523564058E+01  0.16830504660E+03  0.17827828437E+03  0.00000000000E+00 0.  1.
         14    1    3    3    0    0 -0.44507642972E+02 -0.68939238962E+02  0.53172652151E+03  0.53802104292E+03  0.00000000000E+00 0. -1.
        -11    1    4    4    0    0  0.17505344349E+02  0.41679721502E+02 -0.42057519438E+02  0.61745212013E+02  0.00000000000E+00 0.  1.
         11    1    4    4    0    0  0.70593428161E+02  0.56004002395E+02  0.36970148591E+02  0.97399549643E+02  0.00000000000E+00 0. -1.
         21    1    1    2  503  502 -0.14446424089E+02 -0.49634594453E+02  0.21230354988E+03  0.21850649745E+03  0.00000000000E+00 0. -1.
          1    1    1    2  501    0  0.29455406130E+02  0.25642465924E+02 -0.16465466265E+02  0.42382408948E+02  0.00000000000E+00 0. -1.
<scales pt_clust_5="13000.00000" pt_clust_6="13000.00000" pt_clust_7="13000.00000" pt_clust_8="13000.00000" pt_clust_9="50.60760" pt_clust_10="39.05326"></scales>
<clustering>
<clus scale="   39.053">  2 10  1 -1</clus>
<clus scale="   50.608">  1  9  2 -1</clus>
<clus scale="   83.540">  5  6 -1 -1</clus>
<clus scale="   89.430">  7  8 -1 -1</clus>
<clus scale="  179.588">  1  5  2 -1</clus>
<clus scale="   39.053">  2  5  1 -1</clus>
</clustering>
</event>
<event>
10    4  0.2977685E-005  0.1684010E+03  0.7546771E-02  0.1196558E+00
          2   -1    0    0  503    0 -0.00000000000E+00  0.00000000000E+00  0.19967668034E+03  0.19967668034E+03  0.00000000000E+00 0. -1.
         21   -1    0    0  501  502  0.00000000000E+00 -0.00000000000E+00 -0.49470520726E+03  0.49470520726E+03  0.00000000000E+00 0. -1.
         23    2    1    2    0    0 -0.45636658798E+02 -0.47325775961E+02 -0.71887072619E+02  0.13365202783E+03  0.91502347710E+02 0.  0.
         24    2    1    2    0    0  0.48484266420E+02  0.20910889446E+03 -0.30625275339E+02  0.23164342370E+03  0.81507756828E+02 0.  0.
        -11    1    4    4    0    0 -0.20498541555E+02  0.22934027619E+02 -0.82210784789E+01  0.31839377507E+02  0.00000000000E+00 0.  1.
         12    1    4    4    0    0  0.68982807975E+02  0.18617486684E+03 -0.22404196860E+02  0.19980404620E+03  0.00000000000E+00 0. -1.
        -13    1    3    3    0    0 -0.70700392765E+02 -0.16652823084E+02 -0.51993161273E+02  0.89326092901E+02  0.00000000000E+00 0. -1.
         13    1    3    3    0    0  0.25063733967E+02 -0.30672952877E+02 -0.19893911345E+02  0.44325934927E+02  0.00000000000E+00 0.  1.
         21    1    1    2  503  502 -0.53538464146E+01 -0.25601390164E+02  0.46864328176E+02  0.53668986437E+02  0.00000000000E+00 0. -1.
          1    1    1    2  501    0  0.25062387921E+01 -0.13618172834E+03 -0.23938050713E+03  0.27541744963E+03  0.00000000000E+00 0. -1.
<scales pt_clust_5="13000.00000" pt_clust_6="13000.00000" pt_clust_7="13000.00000" pt_clust_8="13000.00000" pt_clust_9="26.15521" pt_clust_10="147.36145"></scales>
<clustering>
<clus scale="   26.155">  1  9  2 -1</clus>
<clus scale="   81.508">  5  6 -1 -1</clus>
<clus scale="   91.502">  7  8 -1 -1</clus>
<clus scale="  115.439">  1  7  2 -1</clus>
<clus scale="  147.361">  2 10  1 -1</clus>
<clus scale="  147.361">  2  5  1 -1</clus>
</clustering>
</event>
<event>
10    4  0.2977685E-005  0.9576355E+02  0.7546771E-02  0.1295375E+00
          2   -1    0    0  503    0 -0.00000000000E+00  0.00000000000E+00  0.27206500093E+03  0.27206500093E+03  0.00000000000E+00 0. -1.
         21   -1    0    0  501  502  0.00000000000E+00 -0.00000000000E+00 -0.11188035228E+03  0.11188035228E+03  0.00000000000E+00 0. -1.
         24    2    1    2    0    0 -0.14679078705E+02  0.67627452668E+01  0.12605266371E+03  0.15101318430E+03  0.81575104828E+02 0.  0.
         23    2    1    2    0    0 -0.13719443982E+02  0.19701307257E+02 -0.54349181135E+02  0.10954296450E+03  0.92029685047E+02 0.  0.
        -11    1    3    3    0    0 -0.28515064710E+02  0.18699952789E+02  0.13001009730E+02  0.36494155747E+02  0.00000000000E+00 0.  1.
         12    1    3    3    0    0  0.13835986004E+02 -0.11937207522E+02  0.11305165398E+03  0.11451902855E+03  0.00000000000E+00 0. -1.
        -11    1    4    4    0    0  0.23360091951E+02  0.12025152791E+02  0.15200269781E+02  0.30353688360E+02  0.00000000000E+00 0.  1.
         11    1    4    4    0    0 -0.37079535933E+02  0.76761544660E+01 -0.69549450916E+02  0.79189276137E+02  0.00000000000E+00 0. -1.
         21    1    1    2  503  502  0.14064670968E+02 -0.53160237263E+02  0.64412448349E+02  0.84692321361E+02  0.00000000000E+00 0. -1.
          1    1    1    2  501    0  0.14333851719E+02  0.26696184739E+02  0.24068717724E+02  0.38696883048E+02  0.00000000000E+00 0. -1.
<scales pt_clust_5="13000.00000" pt_clust_6="13000.00000" pt_clust_7="13000.00000" pt_clust_8="13000.00000" pt_clust_9="52.88024" pt_clust_10="30.30093"></scales>
<clustering>
<clus scale="   30.301">  2 10  1 -1</clus>
<clus scale="   52.880">  1  9  2 -1</clus>
<clus scale="   81.575">  5  6 -1 -1</clus>
<clus scale="   85.765">  1  5  2 -1</clus>
<clus scale="   92.030">  7  8 -1 -1</clus>
<clus scale="   30.301">  2  5  1 -1</clus>
</clustering>
</event>
<event>
10    4  0.2977685E-005  0.9453934E+02  0.7546771E-02  0.1296446E+00
         21   -1    0    0  501  502  0.00000000000E+00  0.00000000000E+00  0.30940031146E+03  0.30940031146E+03  0.00000000000E+00 0. -1.
          2   -1    0    0  503    0 -0.00000000000E+00 -0.00000000000E+00 -0.16788673915E+03  0.16788673915E+03  0.00000000000E+00 0. -1.
         23    2    1    2    0    0  0.18495188520E+02  0.12375729285E+02 -0.11693822071E+03  0.15042651896E+03  0.91969339831E+02 0.  0.
         24    2    1    2    0    0  0.16617378574E+02 -0.48558396876E+02  0.16614859594E+03  0.19338202799E+03  0.84600222452E+02 0.  0.
        -13    1    4    4    0    0 -0.16531848185E+02 -0.61258902736E+02  0.10703650252E+03  0.12442977152E+03  0.00000000000E+00 0.  1.
         14    1    4    4    0    0  0.33149226759E+02  0.12700505861E+02  0.59112093421E+02  0.68952256470E+02  0.00000000000E+00 0. -1.
        -11    1    3    3    0    0  0.25631052243E+01  0.29766649379E+02 -0.12258596641E+03  0.12617425285E+03  0.00000000000E+00 0.  1.
         11    1    3    3    0    0  0.15932083296E+02 -0.17390920094E+02  0.56477456917E+01  0.24252266106E+02  0.00000000000E+00 0. -1.
         21    1    1    2  503  502 -0.16169009756E+02  0.46872392916E+02  0.13017419123E+02  0.51263157284E+02  0.00000000000E+00 0. -1.
          1    1    1    2  501    0 -0.18943557338E+02 -0.10689725325E+02  0.79285777964E+02  0.82215346374E+02  0.00000000000E+00 0. -1.
<scales pt_clust_5="13000.00000" pt_clust_6="13000.00000" pt_clust_7="13000.00000" pt_clust_8="13000.00000" pt_clust_9="49.12286" pt_clust_10="21.75152"></scales>
<clustering>
<clus scale="   21.752">  1 10  2 -1</clus>
<clus scale="   49.123">  1  9  2 -1</clus>
<clus scale="   84.600">  5  6 -1 -1</clus>
<clus scale="   87.387">  1  5  2 -1</clus>
<clus scale="   91.969">  7  8 -1 -1</clus>
<clus scale="   21.752">  1  5  2 -1</clus>
</clustering>
</event>
<event>
10    4  0.2977685E-005  0.9535817E+02  0.7546771E-02  0.1297545E+00
         21   -1    0    0  503  502  0.00000000000E+00  0.00000000000E+00  0.27848289150E+03  0.27848289150E+03  0.00000000000E+00 0.  1.
         -3   -1    0    0    0  501 -0.00000000000E+00 -0.00000000000E+00 -0.13857203665E+03  0.13857203665E+03  0.00000000000E+00 0.  1.
         24    2    1    2    0    0  0.29683955542E+02  0.77510808776E+01 -0.25323047495E+02  0.90332189056E+02  0.81101363575E+02 0.  0.
         23    2    1    2    0    0  0.40477246311E+02 -0.28910570230E+02  0.27424070252E+02  0.10924689536E+03  0.93319751267E+02 0.  0.
        -13    1    3    3    0    0  0.48931340121E+02 -0.58171028616E+01 -0.39228531390E+02  0.62984064705E+02  0.00000000000E+00 0.  1.
         14    1    3    3    0    0 -0.19247384580E+02  0.13568183739E+02  0.13905483895E+02  0.27348124351E+02  0.00000000000E+00 0. -1.
        -11    1    4    4    0    0  0.41691636606E+02  0.26490860738E+02  0.56906123271E+01  0.49722644079E+02  0.00000000000E+00 0.  1.
         11    1    4    4    0    0 -0.12143902952E+01 -0.55401430969E+02  0.21733457925E+02  0.59524251281E+02  0.00000000000E+00 0. -1.
         21    1    1    2  503  501 -0.34562900251E+02  0.17617732603E+02 -0.28004764756E+02  0.47846059659E+02  0.00000000000E+00 0.  1.
         -4    1    1    2    0  502 -0.35598301602E+02  0.35417567496E+01  0.16581459685E+03  0.16962978408E+03  0.00000000000E+00 0.  1.
<scales pt_clust_5="13000.00000" pt_clust_6="13000.00000" pt_clust_7="13000.00000" pt_clust_8="13000.00000" pt_clust_9="41.79509" pt_clust_10="35.77406"></scales>
<clustering>
<clus scale="   35.774">  1 10  2 -1</clus>
<clus scale="   41.795">  2  9  1 -1</clus>
<clus scale="   81.101">  5  6 -1 -1</clus>
<clus scale="   83.439">  2  5  1 -1</clus>
<clus scale="   93.320">  7  8 -1 -1</clus>
<clus scale="   35.774">  1  5  2 -1</clus>
</clustering>
</event>
<event>
10    4  0.2977685E-005  0.1514883E+03  0.7546771E-02  0.1211537E+00
         -3   -1    0    0    0  501 -0.00000000000E+00  0.00000000000E+00  0.57230253317E+03  0.57230253317E+03  0.00000000000E+00 0.  1.
         21   -1    0    0  503  502  0.00000000000E+00 -0.00000000000E+00 -0.12841738444E+03  0.12841738444E+03  0.00000000000E+00 0.  1.
         23    2    1    2    0    0 -0.51399521143E+02 -0.97894504998E+00  0.89757900400E+02  0.13776848148E+03  0.90998926902E+02 0.  0.
         24    2    1    2    0    0  0.65059064622E+02 -0.12399582793E+03  0.21066590121E+03  0.26539209704E+03  0.80281978073E+02 0.  0.
        -11    1    4    4    0    0  0.72316885106E+02 -0.96900322252E+02  0.20305432139E+03  0.23632702292E+03  0.00000000000E+00 0.  1.
         12    1    4    4    0    0 -0.72578204838E+01 -0.27095505681E+02  0.76115798131E+01  0.29065074119E+02  0.00000000000E+00 0. -1.
        -13    1    3    3    0    0 -0.56583552546E+02  0.35785631477E+02  0.51592370354E+02  0.84522674577E+02  0.00000000000E+00 0.  1.
         13    1    3    3    0    0  0.51840314025E+01 -0.36764576527E+02  0.38165530046E+02  0.53245806900E+02  0.00000000000E+00 0. -1.
         21    1    1    2  503  501 -0.68481859553E+02 -0.72263910957E+00  0.14506369705E+03  0.16041746631E+03  0.00000000000E+00 0. -1.
         -4    1    1    2    0  502  0.54822316074E+02  0.12569741209E+03 -0.16023499281E+01  0.13714187279E+03  0.00000000000E+00 0.  1.
<scales pt_clust_5="13000.00000" pt_clust_6="13000.00000" pt_clust_7="13000.00000" pt_clust_8="13000.00000" pt_clust_9="68.48567" pt_clust_10="128.46599"></scales>
<clustering>
<clus scale="   68.486">  1  9  2 -1</clus>
<clus scale="   80.282">  5  6 -1 -1</clus>
<clus scale="   90.999">  7  8 -1 -1</clus>
<clus scale="  114.794">  1  7  2 -1</clus>
<clus scale="  128.466">  2 10  1 -1</clus>
<clus scale="  128.466">  2  5  1 -1</clus>
</clustering>
</event>
<event>
10    4  0.2977685E-005  0.5406996E+03  0.7546771E-02  0.1033854E+00
          2   -1    0    0  503    0 -0.00000000000E+00  0.00000000000E+00  0.11016770006E+04  0.11016770006E+04  0.00000000000E+00 0. -1.
         21   -1    0    0  501  502  0.00000000000E+00 -0.00000000000E+00 -0.59027901795E+03  0.59027901795E+03  0.00000000000E+00 0. -1.
         23    2    1    2    0    0  0.14665438385E+03  0.16143662297E+03  0.15813478804E+03  0.28374762134E+03  0.89088775311E+02 0.  0.
         24    2    1    2    0    0 -0.28751989528E+03 -0.56153881097E+03  0.26441048135E+03  0.68855007337E+03  0.78706889675E+02 0.  0.
        -11    1    4    4    0    0 -0.27048802979E+02 -0.23048309411E+02  0.27400562666E+01  0.35642253262E+02  0.00000000000E+00 0.  1.
         12    1    4    4    0    0 -0.26047109231E+03 -0.53849050156E+03  0.26167042508E+03  0.65290782011E+03  0.00000000000E+00 0. -1.
        -11    1    3    3    0    0  0.83838728732E+02  0.12206628835E+03  0.14722293008E+03  0.20881499546E+03  0.00000000000E+00 0. -1.
         11    1    3    3    0    0  0.62815655123E+02  0.39370334622E+02  0.10911857954E+02  0.74932625877E+02  0.00000000000E+00 0.  1.
         21    1    1    2  503  502 -0.82694900089E+02 -0.41056325529E+02  0.19326567606E+03  0.21418611045E+03  0.00000000000E+00 0. -1.
          1    1    1    2  501    0  0.22356041152E+03  0.44115851353E+03 -0.10441296285E+03  0.50547221335E+03  0.00000000000E+00 0. -1.
<scales pt_clust_5="13000.00000" pt_clust_6="13000.00000" pt_clust_7="13000.00000" pt_clust_8="13000.00000" pt_clust_9="92.32588" pt_clust_10="534.94048"></scales>
<clustering>
<clus scale="   78.707">  5  6 -1 -1</clus>
<clus scale="   89.089">  7  8 -1 -1</clus>
<clus scale="   92.326">  1  9  2 -1</clus>
<clus scale="  216.316">  1  7  2 -1</clus>
<clus scale="  534.940">  2 10  1 -1</clus>
<clus scale="  534.940">  2  5  1 -1</clus>
</clustering>
</event>
<event>
10    4  0.2977685E-005  0.1066961E+03  0.7546771E-02  0.1270951E+00
          2   -1    0    0  503    0 -0.00000000000E+00  0.00000000000E+00  0.33811450830E+03  0.33811450830E+03  0.00000000000E+00 0. -1.
         21   -1    0    0  501  502  0.00000000000E+00 -0.00000000000E+00 -0.90689194342E+02  0.90689194342E+02  0.00000000000E+00 0.  1.
         23    2    1    2    0    0 -0.58639222583E+02 -0.23284157655E+02  0.13895119129E+03  0.17683894702E+03  0.89352499692E+02 0.  0.
         24    2    1    2    0    0  0.26962623695E+02 -0.17149258363E+02 -0.13893911151E+02  0.86670358517E+02  0.79357609209E+02 0.  0.
        -13    1    4    4    0    0  0.16202018738E+02  0.22661211167E+02 -0.31306146694E+02  0.41905974796E+02  0.00000000000E+00 0.  1.
         14    1    4    4    0    0  0.10760604957E+02 -0.39810469530E+02  0.17412235544E+02  0.44764383721E+02  0.00000000000E+00 0. -1.
        -13    1    3    3    0    0 -0.16419034107E+02  0.29332462697E+02  0.81748745596E+02  0.88390245250E+02  0.00000000000E+00 0.  1.
         13    1    3    3    0    0 -0.42220188476E+02 -0.52616620352E+02  0.57202445690E+02  0.88448701772E+02  0.00000000000E+00 0. -1.
         21    1    1    2  503  502 -0.27246538654E+02 -0.14220313702E+02  0.35299202067E+02  0.46804111539E+02  0.00000000000E+00 0. -1.
          1    1    1    2  501    0  0.58923137541E+02  0.54653729719E+02  0.87068831761E+02  0.11849028557E+03  0.00000000000E+00 0. -1.
<scales pt_clust_5="13000.00000" pt_clust_6="13000.00000" pt_clust_7="13000.00000" pt_clust_8="13000.00000" pt_clust_9="30.73420" pt_clust_10="70.16639"></scales>
<clustering>
<clus scale="   30.734">  1  9  2 -1</clus>
<clus scale="   70.166">  2 10  1 -1</clus>
<clus scale="   79.358">  5  6 -1 -1</clus>
<clus scale="   89.352">  7  8 -1 -1</clus>
<clus scale="   98.478">  2  5  1 -1</clus>
<clus scale="   70.166">  2  5  1 -1</clus>
</clustering>
</event>
<event>
10    4  0.2977685E-005  0.1876232E+03  0.7546771E-02  0.1178959E+00
          2   -1    0    0  503    0 -0.00000000000E+00  0.00000000000E+00  0.13137681767E+04  0.13137681767E+04  0.00000000000E+00 0. -1.
         21   -1    0    0  501  502  0.00000000000E+00 -0.00000000000E+00 -0.81632888869E+02  0.81632888869E+02  0.00000000000E+00 0.  1.
         24    2    1    2    0    0 -0.14854487390E+01 -0.10590940291E+03  0.37382034185E+03  0.39688562830E+03  0.80978674896E+02 0.  0.
         23    2    1    2    0    0  0.13699609210E+03  0.33080464737E+02  0.10466730607E+03  0.19922490945E+03  0.94196991398E+02 0.  0.
        -11    1    3    3    0    0  0.47071855216E+01 -0.10613123839E+03  0.23466106979E+03  0.25758846060E+03  0.00000000000E+00 0.  1.
         12    1    3    3    0    0 -0.61926342606E+01  0.22183548097E+00  0.13915927206E+03  0.13929716770E+03  0.00000000000E+00 0. -1.
        -13    1    4    4    0    0  0.31370734730E+02 -0.14837434124E+02 -0.10010960121E+02  0.36117748704E+02  0.00000000000E+00 0. -1.
         13    1    4    4    0    0  0.10562535737E+03  0.47917898861E+02  0.11467826619E+03  0.16310716075E+03  0.00000000000E+00 0.  1.
         21    1    1    2  503  502  0.20417071444E+02  0.76142992943E+02  0.10022918270E+03  0.12751667046E+03  0.00000000000E+00 0.  1.
          1    1    1    2  501    0 -0.15592771481E+03 -0.33140547730E+01  0.65341845723E+03  0.67177385738E+03  0.00000000000E+00 0. -1.
<scales pt_clust_5="13000.00000" pt_clust_6="13000.00000" pt_clust_7="13000.00000" pt_clust_8="13000.00000" pt_clust_9="78.83281" pt_clust_10="162.26346"></scales>
<clustering>
<clus scale="   78.833">  2  9  1 -1</clus>
<clus scale="   80.979">  5  6 -1 -1</clus>
<clus scale="   94.197">  7  8 -1 -1</clus>
<clus scale="  123.326">  1  5  2 -1</clus>
<clus scale="  162.263">  2 10  1 -1</clus>
<clus scale="   78.833">  2  5  1 -1</clus>
</clustering>
</event>
<event>
10    4  0.2977685E-005  0.3437102E+03  0.7546771E-02  0.1065227E+00
         21   -1    0    0  501  502  0.00000000000E+00  0.00000000000E+00  0.50268643598E+03  0.50268643598E+03  0.00000000000E+00 0. -1.
          2   -1    0    0  503    0 -0.00000000000E+00 -0.00000000000E+00 -0.26269396458E+03  0.26269396458E+03  0.00000000000E+00 0. -1.
         24    2    1    2    0    0  0.18713863844E+03 -0.91353638354E+02  0.15820734506E+03  0.27402249437E+03  0.81807127760E+02 0.  0.
         23    2    1    2    0    0  0.80362378867E+01 -0.77515067133E+02  0.52529507576E+02  0.13164537683E+03  0.92184539497E+02 0.  0.
        -11    1    3    3    0    0  0.98905899018E+02 -0.67914528584E+02  0.43955619094E+02  0.12777658824E+03  0.00000000000E+00 0.  1.
         12    1    3    3    0    0  0.88232739423E+02 -0.23439109769E+02  0.11425172596E+03  0.14624590612E+03  0.00000000000E+00 0. -1.
        -11    1    4    4    0    0  0.33110800397E+02 -0.87585488719E+02  0.42403898926E+02  0.10278926783E+03  0.00000000000E+00 0. -1.
         11    1    4    4    0    0 -0.25074562510E+02  0.10070421585E+02  0.10125608650E+02  0.28856108998E+02  0.00000000000E+00 0.  1.
         21    1    1    2  503  502  0.50018002706E+02  0.83828012881E+02  0.22128913180E+02  0.10009308236E+03  0.00000000000E+00 0.  1.
          1    1    1    2  501    0 -0.24519287903E+03  0.85040692606E+02  0.71267055802E+01  0.25961944700E+03  0.00000000000E+00 0. -1.
<scales pt_clust_5="13000.00000" pt_clust_6="13000.00000" pt_clust_7="13000.00000" pt_clust_8="13000.00000" pt_clust_9="97.61627" pt_clust_10="254.14607"></scales>
<clustering>
<clus scale="   81.807">  5  6 -1 -1</clus>
<clus scale="   92.185">  7  8 -1 -1</clus>
<clus scale="   97.616">  2  9  1 -1</clus>
<clus scale="  112.370">  5  7 -1 -1</clus>
<clus scale="  254.146">  1 10  2 -1</clus>
<clus scale="  254.146">  1  5  2 -1</clus>
</clustering>
</event>
<event>
10    4  0.2977685E-005  0.3383872E+03  0.7546771E-02  0.1101976E+00
          2   -1    0    0  503    0 -0.00000000000E+00  0.00000000000E+00  0.17902318218E+04  0.17902318218E+04  0.00000000000E+00 0. -1.
         21   -1    0    0  501  502  0.00000000000E+00 -0.00000000000E+00 -0.29134804710E+03  0.29134804710E+03  0.00000000000E+00 0.  1.
         23    2    1    2    0    0  0.67524228491E+01 -0.40886506053E+03  0.18202253671E+03  0.45708044247E+03  0.92596404259E+02 0.  0.
         24    2    1    2    0    0  0.31049062609E+02  0.11608057304E+03 -0.29008998523E+02  0.14672702485E+03  0.79047796288E+02 0.  0.
        -11    1    4    4    0    0 -0.38219615594E+01  0.38408162503E+02 -0.45853098974E+02  0.59935807515E+02  0.00000000000E+00 0.  1.
         12    1    4    4    0    0  0.34871024168E+02  0.77672410541E+02  0.16844100452E+02  0.86791217331E+02  0.00000000000E+00 0. -1.
        -11    1    3    3    0    0 -0.35193238055E+02 -0.20388502426E+03  0.11845216911E+03  0.23840843838E+03  0.00000000000E+00 0. -1.
         11    1    3    3    0    0  0.41945660904E+02 -0.20498003626E+03  0.63570367604E+02  0.21867200409E+03  0.00000000000E+00 0.  1.
         21    1    1    2  503  502  0.97109119638E+01  0.31461892159E+03  0.13799258240E+04  0.14153708515E+04  0.00000000000E+00 0.  1.
          1    1    1    2  501    0 -0.47512397422E+02 -0.21834434109E+02 -0.34055587429E+02  0.62401550115E+02  0.00000000000E+00 0. -1.
<scales pt_clust_5="13000.00000" pt_clust_6="13000.00000" pt_clust_7="13000.00000" pt_clust_8="13000.00000" pt_clust_9="325.47169" pt_clust_10="52.28930"></scales>
<clustering>
<clus scale="   52.289">  2 10  1 -1</clus>
<clus scale="   79.048">  5  6 -1 -1</clus>
<clus scale="   92.596">  7  8 -1 -1</clus>
<clus scale="  134.707">  2  5  1 -1</clus>
<clus scale="  325.472">  1  9  2 -1</clus>
<clus scale="   52.289">  2  5  1 -1</clus>
</clustering>
</event>
<event>
10    4  0.2977685E-005  0.8946362E+02  0.7546771E-02  0.1305474E+00
         21   -1    0    0  503  502  0.00000000000E+00  0.00000000000E+00  0.15519980998E+03  0.15519980998E+03  0.00000000000E+00 0. -1.
         -3   -1    0    0    0  501 -0.00000000000E+00 -0.00000000000E+00 -0.99989564383E+02  0.99989564383E+02  0.00000000000E+00 0.  1.
         23    2    1    2    0    0 -0.12552298879E+02  0.27208981890E+02 -0.24591794780E+01  0.87849604635E+02  0.82544633794E+02 0.  0.
         24    2    1    2    0    0  0.47916897215E+02  0.23406551802E+01  0.55458661395E+02  0.10869174364E+03  0.80229198592E+02 0.  0.
        -13    1    4    4    0    0  0.40874869298E+02  0.16587011906E+02 -0.66245724203E+01  0.44606825306E+02  0.00000000000E+00 0.  1.
         14    1    4    4    0    0  0.70420279172E+01 -0.14246356726E+02  0.62083233815E+02  0.64084918336E+02  0.00000000000E+00 0. -1.
        -13    1    3    3    0    0 -0.23198910656E+02 -0.17028049414E+02 -0.24033810500E+02  0.37493572378E+02  0.00000000000E+00 0.  1.
         13    1    3    3    0    0  0.10646611778E+02  0.44237031304E+02  0.21574631022E+02  0.50356032257E+02  0.00000000000E+00 0. -1.
         21    1    1    2  503  501 -0.20562730718E+02  0.22131246545E+01 -0.79585106455E+01  0.22159912161E+02  0.00000000000E+00 0. -1.
         -4    1    1    2    0  502 -0.14801867619E+02 -0.31762761725E+02  0.10169274324E+02  0.36488113923E+02  0.00000000000E+00 0.  1.
<scales pt_clust_5="13000.00000" pt_clust_6="13000.00000" pt_clust_7="13000.00000" pt_clust_8="13000.00000" pt_clust_9="20.68148" pt_clust_10="36.20460"></scales>
<clustering>
<clus scale="   20.681">  2  9  1 -1</clus>
<clus scale="   36.205">  1 10  2 -1</clus>
<clus scale="   80.229">  5  6 -1 -1</clus>
<clus scale="   82.545">  7  8 -1 -1</clus>
<clus scale="   87.332">  1  5  2 -1</clus>
<clus scale="   36.205">  1  5  2 -1</clus>
</clustering>
</event>
<event>
10    4  0.2977685E-005  0.1004712E+03  0.7546771E-02  0.1284170E+00
          4   -1    0    0  503    0 -0.00000000000E+00  0.00000000000E+00  0.33273914194E+03  0.33273914194E+03  0.00000000000E+00 0. -1.
         21   -1    0    0  501  502  0.00000000000E+00 -0.00000000000E+00 -0.85691826579E+02  0.85691826579E+02  0.00000000000E+00 0.  1.
         23    2    1    2    0    0  0.12653001470E+01  0.13692538464E+01  0.85458358277E+02  0.12601200698E+03  0.92587359084E+02 0.  0.
         24    2    1    2    0    0  0.15308265607E+02 -0.54593119895E+02  0.76584188294E+01  0.10072202468E+03  0.82894650860E+02 0.  0.
        -13    1    4    4    0    0 -0.40979849424E+01 -0.55562856738E+02 -0.26290943142E+02  0.61605504793E+02  0.00000000000E+00 0.  1.
         14    1    4    4    0    0  0.19406250549E+02  0.96973684351E+00  0.33949361971E+02  0.39116519888E+02  0.00000000000E+00 0. -1.
        -11    1    3    3    0    0  0.35484557789E+02  0.31155557096E+02  0.42344295698E+02  0.63426035330E+02  0.00000000000E+00 0.  1.
         11    1    3    3    0    0 -0.34219257642E+02 -0.29786303250E+02  0.43114062579E+02  0.62585971646E+02  0.00000000000E+00 0. -1.
         21    1    1    2  503  502 -0.62962907169E+01  0.82520288390E+02  0.10414573780E+03  0.13302471941E+03  0.00000000000E+00 0.  1.
          3    1    1    2  501    0 -0.10277275037E+02 -0.29296422341E+02  0.49784800452E+02  0.58672217448E+02  0.00000000000E+00 0. -1.
<scales pt_clust_5="13000.00000" pt_clust_6="13000.00000" pt_clust_7="13000.00000" pt_clust_8="13000.00000" pt_clust_9="77.73923" pt_clust_10="31.04680"></scales>
<clustering>
<clus scale="   31.047">  2 10  1 -1</clus>
<clus scale="   77.739">  1  9  2 -1</clus>
<clus scale="   82.895">  5  6 -1 -1</clus>
<clus scale="   91.616">  2  5  1 -1</clus>
<clus scale="   92.587">  7  8 -1 -1</clus>
<clus scale="   31.047">  2  5  1 -1</clus>
</clustering>
</event>
<event>
10    4  0.2977685E-005  0.1043832E+03  0.7546771E-02  0.1274812E+00
         21   -1    0    0  503  502  0.00000000000E+00  0.00000000000E+00  0.31064458862E+03  0.31064458862E+03  0.00000000000E+00 0. -1.
         -3   -1    0    0    0  501 -0.00000000000E+00 -0.00000000000E+00 -0.47337269313E+03  0.47337269313E+03  0.00000000000E+00 0.  1.
         23    2    1    2    0    0  0.29925592379E+02 -0.44259565075E+02 -0.12829956220E+03  0.16557697199E+03  0.90002810035E+02 0.  0.
         24    2    1    2    0    0  0.39027701970E+02  0.90963801232E+02  0.24417006548E+03  0.27596000646E+03  0.82081237986E+02 0.  0.
        -11    1    4    4    0    0  0.25171493818E+02  0.58991694220E+02  0.57732555284E+02  0.86294101928E+02  0.00000000000E+00 0.  1.
         12    1    4    4    0    0  0.13856208153E+02  0.31972107013E+02  0.18643751020E+03  0.18966590453E+03  0.00000000000E+00 0. -1.
        -13    1    3    3    0    0  0.39028186218E+02 -0.67557615682E+02 -0.83574149430E+02  0.11433227545E+03  0.00000000000E+00 0.  1.
         13    1    3    3    0    0 -0.91025938384E+01  0.23298050607E+02 -0.44725412768E+02  0.51244696545E+02  0.00000000000E+00 0. -1.
         21    1    1    2  503  501 -0.42435612978E+02 -0.61945062005E+01 -0.28965848230E+03  0.29281596528E+03  0.00000000000E+00 0.  1.
         -4    1    1    2    0  502 -0.26517681372E+02 -0.40509729957E+02  0.11059874507E+02  0.49664338017E+02  0.00000000000E+00 0.  1.
<scales pt_clust_5="13000.00000" pt_clust_6="13000.00000" pt_clust_7="13000.00000" pt_clust_8="13000.00000" pt_clust_9="42.88535" pt_clust_10="51.54202"></scales>
<clustering>
<clus scale="   42.885">  2  9  1 -1</clus>
<clus scale="   51.542">  1 10  2 -1</clus>
<clus scale="   82.081">  5  6 -1 -1</clus>
<clus scale="   90.003">  7  8 -1 -1</clus>
<clus scale="   97.635">  1  5  2 -1</clus>
<clus scale="   51.542">  1  5  2 -1</clus>
</clustering>
</event>
<event>
10    4  0.2977685E-005  0.9526277E+02  0.7546771E-02  0.1295789E+00
          2   -1    0    0  503    0 -0.00000000000E+00  0.00000000000E+00  0.35169515376E+03  0.35169515376E+03  0.00000000000E+00 0. -1.
         21   -1    0    0  501  502  0.00000000000E+00 -0.00000000000E+00 -0.10214158935E+03  0.10214158935E+03  0.00000000000E+00 0.  1.
         24    2    1    2    0    0  0.11228348503E+02 -0.22868282628E+02  0.11346816522E+03  0.14163836195E+03  0.80853985049E+02 0.  0.
         23    2    1    2    0    0 -0.47806868335E+02  0.78560346428E+01 -0.25289827510E+02  0.10547107285E+03  0.90207305090E+02 0.  0.
        -11    1    3    3    0    0  0.25582681469E+01 -0.35086426163E+02  0.92860090331E+01  0.36384502203E+02  0.00000000000E+00 0.  1.
         12    1    3    3    0    0  0.86700803562E+01  0.12218143535E+02  0.10418215619E+03  0.10525385975E+03  0.00000000000E+00 0. -1.
        -11    1    4    4    0    0 -0.51807785821E+02 -0.26786292508E+02 -0.36545757712E+02  0.68826917298E+02  0.00000000000E+00 0.  1.
         11    1    4    4    0    0  0.40009174861E+01  0.34642327151E+02  0.11255930202E+02  0.36644155549E+02  0.00000000000E+00 0. -1.
         21    1    1    2  503  502  0.22009185592E+02  0.35674599256E+02  0.17363940826E+03  0.17862733661E+03  0.00000000000E+00 0. -1.
          1    1    1    2  501    0  0.14569334240E+02 -0.20662351270E+02 -0.12264181567E+02  0.28099971703E+02  0.00000000000E+00 0. -1.
<scales pt_clust_5="13000.00000" pt_clust_6="13000.00000" pt_clust_7="13000.00000" pt_clust_8="13000.00000" pt_clust_9="41.62124" pt_clust_10="25.28237"></scales>
<clustering>
<clus scale="   25.282">  2 10  1 -1</clus>
<clus scale="   41.621">  1  9  2 -1</clus>
<clus scale="   80.854">  5  6 -1 -1</clus>
<clus scale="   86.458">  1  5  2 -1</clus>
<clus scale="   90.207">  7  8 -1 -1</clus>
<clus scale="   25.282">  2  5  1 -1</clus>
</clustering>
</event>
<event>
10    4  0.2977685E-005  0.2094207E+03  0.7546771E-02  0.1174167E+00
         21   -1    0    0  501  502  0.00000000000E+00  0.00000000000E+00  0.58421087626E+02  0.58421087626E+02  0.00000000000E+00 0. -1.
          2   -1    0    0  503    0 -0.00000000000E+00 -0.00000000000E+00 -0.20147062828E+04  0.20147062828E+04  0.00000000000E+00 0. -1.
         23    2    1    2    0    0  0.28190371062E+02 -0.86021860210E+01 -0.17145054927E+03  0.19789888647E+03  0.94339725448E+02 0.  0.
         24    2    1    2    0    0 -0.17126415340E+03  0.51121612632E+00 -0.81447669838E+03  0.83628467999E+03  0.81658448463E+02 0.  0.
        -13    1    4    4    0    0 -0.24761262127E+02 -0.13093930825E+02 -0.46057364758E+02  0.53905954913E+02  0.00000000000E+00 0.  1.
         14    1    4    4    0    0 -0.14650289128E+03  0.13605146951E+02 -0.76841933362E+03  0.78237872508E+03  0.00000000000E+00 0. -1.
        -13    1    3    3    0    0 -0.88350216150E+01 -0.38778629393E+02 -0.33793552936E+02  0.52190458176E+02  0.00000000000E+00 0.  1.
         13    1    3    3    0    0  0.37025392677E+02  0.30176443372E+02 -0.13765699633E+03  0.14570842830E+03  0.00000000000E+00 0. -1.
         21    1    1    2  503  502 -0.39555181414E+02  0.11385721969E+03 -0.60606262725E+03  0.61793202458E+03  0.00000000000E+00 0.  1.
          1    1    1    2  501    0  0.18262896376E+03 -0.10576624979E+03 -0.36429532023E+03  0.42101177934E+03  0.00000000000E+00 0. -1.
<scales pt_clust_5="13000.00000" pt_clust_6="13000.00000" pt_clust_7="13000.00000" pt_clust_8="13000.00000" pt_clust_9="114.99718" pt_clust_10="192.84433"></scales>
<clustering>
<clus scale="   81.658">  5  6 -1 -1</clus>
<clus scale="   94.340">  7  8 -1 -1</clus>
<clus scale="   98.837">  2  7  1 -1</clus>
<clus scale="  114.997">  2  9  1 -1</clus>
<clus scale="  192.844">  1 10  2 -1</clus>
<clus scale="  192.844">  1  5  2 -1</clus>
</clustering>
</event>
<event>
10    4  0.2977685E-005  0.1192175E+03  0.7546771E-02  0.1249203E+00
          2   -1    0    0  503    0 -0.00000000000E+00  0.00000000000E+00  0.33936887194E+03  0.33936887194E+03  0.00000000000E+00 0. -1.
         21   -1    0    0  501  502  0.00000000000E+00 -0.00000000000E+00 -0.10869432786E+03  0.10869432786E+03  0.00000000000E+00 0. -1.
         24    2    1    2    0    0 -0.51349881729E+02 -0.66230480383E+02  0.18503106462E+03  0.21740773921E+03  0.77500601982E+02 0.  0.
         23    2    1    2    0    0  0.72184245108E+02 -0.59030165152E+01 -0.81691946422E+01  0.11753699158E+03  0.92210616534E+02 0.  0.
        -13    1    3    3    0    0  0.16053036510E+02 -0.26341936655E+02  0.84591988915E+02  0.90041113923E+02  0.00000000000E+00 0.  1.
         14    1    3    3    0    0 -0.67402918239E+02 -0.39888543728E+02  0.10043907571E+03  0.12736662528E+03  0.00000000000E+00 0. -1.
        -11    1    4    4    0    0  0.16915587884E+02  0.19880950861E+02  0.34385168286E+02  0.43170929092E+02  0.00000000000E+00 0.  1.
         11    1    4    4    0    0  0.55268657225E+02 -0.25783967376E+02 -0.42554362928E+02  0.74366062484E+02  0.00000000000E+00 0. -1.
         21    1    1    2  503  502 -0.32462015613E+02  0.51867304353E+02  0.63173410914E+02  0.87948164080E+02  0.00000000000E+00 0. -1.
          1    1    1    2  501    0  0.11627652234E+02  0.20266192545E+02 -0.93607368161E+01  0.25170304935E+02  0.00000000000E+00 0. -1.
<scales pt_clust_5="13000.00000" pt_clust_6="13000.00000" pt_clust_7="13000.00000" pt_clust_8="13000.00000" pt_clust_9="62.74213" pt_clust_10="23.36495"></scales>
<clustering>
<clus scale="   23.365">  2 10  1 -1</clus>
<clus scale="   62.742">  1  9  2 -1</clus>
<clus scale="   77.501">  5  6 -1 -1</clus>
<clus scale="   92.211">  7  8 -1 -1</clus>
<clus scale="  108.242">  1  5  2 -1</clus>
<clus scale="   23.365">  2  5  1 -1</clus>
</clustering>
</event>
<event>
10    4  0.2977685E-005  0.9394200E+02  0.7546771E-02  0.1299270E+00
          2   -1    0    0  503    0 -0.00000000000E+00  0.00000000000E+00  0.57082186581E+03  0.57082186581E+03  0.00000000000E+00 0. -1.
         21   -1    0    0  501  502  0.00000000000E+00 -0.00000000000E+00 -0.53881481432E+02  0.53881481432E+02  0.00000000000E+00 0. -1.
         23    2    1    2    0    0 -0.54259664944E+01  0.50049837336E+01  0.33991905216E+03  0.35189888494E+03  0.90737931573E+02 0.  0.
         24    2    1    2    0    0  0.28917909139E+02  0.10550447955E+02  0.12821090633E+01  0.86619921027E+02  0.80955601993E+02 0.  0.
        -11    1    4    4    0    0  0.11989119174E+02 -0.24185246927E+02  0.28577196453E+02  0.39310574972E+02  0.00000000000E+00 0.  1.
         12    1    4    4    0    0  0.16928789965E+02  0.34735694881E+02 -0.27295087390E+02  0.47309346056E+02  0.00000000000E+00 0. -1.
        -11    1    3    3    0    0 -0.46695093863E+02 -0.36528963734E+01  0.21540619075E+03  0.22043956645E+03  0.00000000000E+00 0. -1.
         11    1    3    3    0    0  0.41269127368E+02  0.86578801070E+01  0.12451286141E+03  0.13145931849E+03  0.00000000000E+00 0.  1.
         21    1    1    2  503  502 -0.20196764109E+02  0.94923602724E+01  0.14350465787E+03  0.14522947708E+03  0.00000000000E+00 0. -1.
          1    1    1    2  501    0 -0.32951785360E+01 -0.25047791961E+02  0.32234565289E+02  0.40955064193E+02  0.00000000000E+00 0. -1.
<scales pt_clust_5="13000.00000" pt_clust_6="13000.00000" pt_clust_7="13000.00000" pt_clust_8="13000.00000" pt_clust_9="22.31623" pt_clust_10="24.74943"></scales>
<clustering>
<clus scale="   22.316">  1  9  2 -1</clus>
<clus scale="   24.749">  2 10  1 -1</clus>
<clus scale="   80.956">  5  6 -1 -1</clus>
<clus scale="   84.531">  2  5  1 -1</clus>
<clus scale="   90.738">  7  8 -1 -1</clus>
<clus scale="   24.749">  2  5  1 -1</clus>
</clustering>
</event>
<event>
10    4  0.2977685E-005  0.9371383E+02  0.7546771E-02  0.1300645E+00
          4   -1    0    0  503    0 -0.00000000000E+00  0.00000000000E+00  0.66788103664E+02  0.66788103664E+02  0.00000000000E+00 0. -1.
         21   -1    0    0  501  502  0.00000000000E+00 -0.00000000000E+00 -0.51018040157E+03  0.51018040157E+03  0.00000000000E+00 0. -1.
         24    2    1    2    0    0 -0.27341272322E+02 -0.13311584549E+02  0.76318921078E+01  0.83792429984E+02  0.77705740394E+02 0.  0.
         23    2    1    2    0    0 -0.16862027316E+02  0.41804146161E+01 -0.18191847607E+03  0.20328385989E+03  0.89040394894E+02 0.  0.
        -13    1    3    3    0    0 -0.11118561740E+02 -0.45645113713E+02  0.85176892075E+00  0.46987491222E+02  0.00000000000E+00 0.  1.
         14    1    3    3    0    0 -0.16222710582E+02  0.32333529164E+02  0.67801231870E+01  0.36804938762E+02  0.00000000000E+00 0. -1.
        -11    1    4    4    0    0 -0.12404017419E+02  0.45966430642E+02 -0.11214153383E+03  0.12182978291E+03  0.00000000000E+00 0.  1.
         11    1    4    4    0    0 -0.44580098973E+01 -0.41786016026E+02 -0.69776942238E+02  0.81454076974E+02  0.00000000000E+00 0. -1.
         21    1    1    2  503  502  0.11466590595E+01 -0.21937128465E+02 -0.78994643715E+01  0.23344249177E+02  0.00000000000E+00 0. -1.
          3    1    1    2  501    0  0.43056640579E+02  0.31068298397E+02 -0.26120624958E+03  0.26654796619E+03  0.00000000000E+00 0. -1.
<scales pt_clust_5="13000.00000" pt_clust_6="13000.00000" pt_clust_7="13000.00000" pt_clust_8="13000.00000" pt_clust_9="21.96708" pt_clust_10="52.56356"></scales>
<clustering>
<clus scale="   21.967">  1  9  2 -1</clus>
<clus scale="   52.564">  2 10  1 -1</clus>
<clus scale="   77.706">  5  6 -1 -1</clus>
<clus scale="   83.020">  1  5  2 -1</clus>
<clus scale="   89.040">  7  8 -1 -1</clus>
<clus scale="   52.564">  2  5  1 -1</clus>
</clustering>
</event>
<event>
10    4  0.2977685E-005  0.9514804E+02  0.7546771E-02  0.1296262E+00
          2   -1    0    0  503    0 -0.00000000000E+00  0.00000000000E+00  0.18131812275E+03  0.18131812275E+03  0.00000000000E+00 0. -1.
         21   -1    0    0  501  502  0.00000000000E+00 -0.00000000000E+00 -0.10133487368E+03  0.10133487368E+03  0.00000000000E+00 0.  1.
         24    2    1    2    0    0 -0.18622221606E+02  0.41541467313E+02  0.84448958602E+02  0.12611011449E+03  0.81851412469E+02 0.  0.
         23    2    1    2    0    0 -0.18396457757E+02 -0.13338028391E+02 -0.18704852601E+02  0.96024745098E+02  0.91403213844E+02 0.  0.
        -13    1    3    3    0    0  0.18228120391E+02  0.45911517859E+02  0.23381470139E+02  0.54651852585E+02  0.00000000000E+00 0.  1.
         14    1    3    3    0    0 -0.36850341998E+02 -0.43700505455E+01  0.61067488463E+02  0.71458261904E+02  0.00000000000E+00 0. -1.
        -11    1    4    4    0    0  0.27083508958E+02 -0.32159320930E+02  0.31665704389E+01  0.42163557114E+02  0.00000000000E+00 0. -1.
         11    1    4    4    0    0 -0.45479966715E+02  0.18821292540E+02 -0.21871423040E+02  0.53861187984E+02  0.00000000000E+00 0.  1.
         21    1    1    2  503  502  0.19534055742E+02 -0.16767197028E+02  0.25961915185E+02  0.36561445129E+02  0.00000000000E+00 0. -1.
          1    1    1    2  501    0  0.17484623622E+02 -0.11436241895E+02 -0.11722772118E+02  0.23956691717E+02  0.00000000000E+00 0. -1.
<scales pt_clust_5="13000.00000" pt_clust_6="13000.00000" pt_clust_7="13000.00000" pt_clust_8="13000.00000" pt_clust_9="27.05879" pt_clust_10="20.89258"></scales>
<clustering>
<clus scale="   20.893">  2 10  1 -1</clus>
<clus scale="   27.059">  1  9  2 -1</clus>
<clus scale="   81.851">  5  6 -1 -1</clus>
<clus scale="   86.013">  1  5  2 -1</clus>
<clus scale="   91.403">  7  8 -1 -1</clus>
<clus scale="   20.893">  2  5  1 -1</clus>
</clustering>
</event>
<event>
10    4  0.2977685E-005  0.3101061E+03  0.7546771E-02  0.1120078E+00
          2   -1    0    0  503    0 -0.00000000000E+00  0.00000000000E+00  0.22556616980E+03  0.22556616980E+03  0.00000000000E+00 0. -1.
         21   -1    0    0  501  502  0.00000000000E+00 -0.00000000000E+00 -0.69265275417E+03  0.69265275417E+03  0.00000000000E+00 0. -1.
         24    2    1    2    0    0 -0.33182855033E+02  0.44965944107E+02 -0.50217464174E+01  0.11320836547E+03  0.98325368432E+02 0.  0.
         23    2    1    2    0    0 -0.32293574214E+01 -0.30959111347E+03 -0.26128713914E+03  0.41507439900E+03  0.90325529831E+02 0.  0.
        -13    1    3    3    0    0 -0.14334720696E+02  0.73012395630E+02 -0.18753923207E+02  0.76733328931E+02  0.00000000000E+00 0.  1.
         14    1    3    3    0    0 -0.18848134336E+02 -0.28046451523E+02  0.13732176790E+02  0.36475036537E+02  0.00000000000E+00 0. -1.
        -13    1    4    4    0    0  0.55670023972E+01 -0.12062612001E+03 -0.47896689858E+02  0.12990667898E+03  0.00000000000E+00 0.  1.
         13    1    4    4    0    0 -0.87963598185E+01 -0.18896499346E+03 -0.21339044928E+03  0.28516772002E+03  0.00000000000E+00 0. -1.
         21    1    1    2  503  502  0.84966029817E+01 -0.19416451669E+02  0.19969589500E+02  0.29120016526E+02  0.00000000000E+00 0. -1.
          1    1    1    2  501    0  0.27915609472E+02  0.28404162103E+03 -0.22074728832E+03  0.36081614298E+03  0.00000000000E+00 0. -1.
<scales pt_clust_5="13000.00000" pt_clust_6="13000.00000" pt_clust_7="13000.00000" pt_clust_8="13000.00000" pt_clust_9="21.19412" pt_clust_10="296.65984"></scales>
<clustering>
<clus scale="   21.194">  1  9  2 -1</clus>
<clus scale="   90.326">  7  8 -1 -1</clus>
<clus scale="   98.325">  5  6 -1 -1</clus>
<clus scale="  110.462">  1  5  2 -1</clus>
<clus scale="  296.660">  2 10  1 -1</clus>
<clus scale="  296.660">  2  5  1 -1</clus>
</clustering>
</event>
<event>
10    4  0.2977685E-005  0.1244671E+03  0.7546771E-02  0.1238999E+00
         21   -1    0    0  501  502  0.00000000000E+00  0.00000000000E+00  0.42135120787E+03  0.42135120787E+03  0.00000000000E+00 0.  1.
          2   -1    0    0  503    0 -0.00000000000E+00 -0.00000000000E+00 -0.33426820805E+03  0.33426820805E+03  0.00000000000E+00 0. -1.
         24    2    1    2    0    0  0.90296874351E+02 -0.58420437368E+02 -0.12299872840E+03  0.18181940977E+03  0.79769277053E+02 0.  0.
         23    2    1    2    0    0 -0.12322255213E+03  0.15250926456E+02  0.33683242344E+03  0.37023352426E+03  0.90556020746E+02 0.  0.
        -11    1    3    3    0    0  0.58486651736E+02  0.60857318658E+01 -0.75203823275E+02  0.95463813033E+02  0.00000000000E+00 0.  1.
         12    1    3    3    0    0  0.31810222614E+02 -0.64506169233E+02 -0.47794905125E+02  0.86355596738E+02  0.00000000000E+00 0. -1.
        -13    1    4    4    0    0 -0.12626594084E+03 -0.96647611358E+01  0.30030048064E+03  0.32590930348E+03  0.00000000000E+00 0.  1.
         13    1    4    4    0    0  0.30433887013E+01  0.24915687592E+02  0.36531942805E+02  0.44324220784E+02  0.00000000000E+00 0. -1.
         21    1    1    2  503  502 -0.24252841783E+02  0.19825794735E+02 -0.13737323848E+03  0.14089950007E+03  0.00000000000E+00 0. -1.
          1    1    1    2  501    0  0.57178519567E+02  0.23343716177E+02  0.10622543248E+02  0.62666981815E+02  0.00000000000E+00 0. -1.
<scales pt_clust_5="13000.00000" pt_clust_6="13000.00000" pt_clust_7="13000.00000" pt_clust_8="13000.00000" pt_clust_9="31.32511" pt_clust_10="59.87771"></scales>
<clustering>
<clus scale="   31.325">  2  9  1 -1</clus>
<clus scale="   59.878">  1 10  2 -1</clus>
<clus scale="   79.769">  5  6 -1 -1</clus>
<clus scale="   90.556">  7  8 -1 -1</clus>
<clus scale="  116.854">  2  5  1 -1</clus>
<clus scale="   59.878">  1  5  2 -1</clus>
</clustering>
</event>
<event>
10    4  0.2977685E-005  0.2432374E+03  0.7546771E-02  0.1118841E+00
         21   -1    0    0  503  502  0.00000000000E+00  0.00000000000E+00  0.14154527336E+03  0.14154527336E+03  0.00000000000E+00 0.  1.
          2   -1    0    0  502    0 -0.00000000000E+00 -0.00000000000E+00 -0.81652028790E+03  0.81652028790E+03  0.00000000000E+00 0. -1.
         24    2    1    2    0    0 -0.18679062848E+03 -0.90811535258E+02 -0.27550271885E+03  0.35390384419E+03  0.78795361640E+02 0.  0.
         23    2    1    2    0    0  0.14194540356E+03  0.22614005078E+03 -0.28633139297E+03  0.40361175946E+03  0.98127292914E+02 0.  0.
        -13    1    3    3    0    0 -0.56210016782E+01 -0.24413411347E+02 -0.57819976411E+02  0.63013966592E+02  0.00000000000E+00 0.  1.
         14    1    3    3    0    0 -0.18116962680E+03 -0.66398123911E+02 -0.21768274243E+03  0.29088987759E+03  0.00000000000E+00 0. -1.
        -11    1    4    4    0    0  0.46287324849E+02  0.15985989401E+03 -0.14680506204E+03  0.22192212237E+03  0.00000000000E+00 0. -1.
         11    1    4    4    0    0  0.95658078712E+02  0.66280156769E+02 -0.13952633093E+03  0.18168963709E+03  0.00000000000E+00 0.  1.
         21    1    1    2  503  501  0.26655928085E+02  0.23019648147E+01 -0.17669648830E+02  0.32063281707E+02  0.00000000000E+00 0. -1.
          1    1    1    2  501    0  0.18189296830E+02 -0.13763048034E+03 -0.95471253897E+02  0.16848667591E+03  0.00000000000E+00 0. -1.
<scales pt_clust_5="13000.00000" pt_clust_6="13000.00000" pt_clust_7="13000.00000" pt_clust_8="13000.00000" pt_clust_9="26.75514" pt_clust_10="139.34554"></scales>
<clustering>
<clus scale="   26.755">  1  9  2 -1</clus>
<clus scale="   78.795">  5  6 -1 -1</clus>
<clus scale="   98.127">  7  8 -1 -1</clus>
<clus scale="  139.346">  1 10  2 -1</clus>
<clus scale="  236.102">  2  5  1 -1</clus>
<clus scale="   26.755">  1  5  2 -1</clus>
</clustering>
</event>
<event>
10    4  0.2977685E-005  0.1379889E+03  0.7546771E-02  0.1218831E+00
          2   -1    0    0  503    0 -0.00000000000E+00  0.00000000000E+00  0.16577430202E+04  0.16577430202E+04  0.00000000000E+00 0. -1.
         21   -1    0    0  501  502  0.00000000000E+00 -0.00000000000E+00 -0.14477238186E+03  0.14477238186E+03  0.00000000000E+00 0. -1.
         24    2    1    2    0    0 -0.30715063523E+02 -0.83007046099E+02  0.94937551882E+03  0.95693639453E+03  0.81115982456E+02 0.  0.
         23    2    1    2    0    0  0.80028930704E+02  0.10226335539E+03  0.58639201631E+03  0.60778077114E+03  0.93163541006E+02 0.  0.
        -13    1    3    3    0    0 -0.23829465469E+02 -0.66912245759E+02  0.34148063298E+03  0.34878949921E+03  0.00000000000E+00 0.  1.
         14    1    3    3    0    0 -0.68855980542E+01 -0.16094800340E+02  0.60789488584E+03  0.60814689532E+03  0.00000000000E+00 0. -1.
        -11    1    4    4    0    0  0.68414829139E+01  0.80416887331E+02  0.24506914115E+03  0.25801659947E+03  0.00000000000E+00 0.  1.
         11    1    4    4    0    0  0.73187447790E+02  0.21846468064E+02  0.34132287516E+03  0.34976417167E+03  0.00000000000E+00 0. -1.
         21    1    1    2  503  502 -0.25850367937E+02  0.10086459756E+02  0.10291604633E+03  0.10659123221E+03  0.00000000000E+00 0.  1.
          1    1    1    2  501    0 -0.23463499244E+02 -0.29342769052E+02 -0.12571294309E+03  0.13120700420E+03  0.00000000000E+00 0. -1.
<scales pt_clust_5="13000.00000" pt_clust_6="13000.00000" pt_clust_7="13000.00000" pt_clust_8="13000.00000" pt_clust_9="27.74848" pt_clust_10="37.58504"></scales>
<clustering>
<clus scale="   27.748">  1  9  2 -1</clus>
<clus scale="   37.585">  2 10  1 -1</clus>
<clus scale="   81.116">  5  6 -1 -1</clus>
<clus scale="   93.164">  7  8 -1 -1</clus>
<clus scale="  130.159">  1  5  2 -1</clus>
<clus scale="   37.585">  2  5  1 -1</clus>
</clustering>
</event>
<event>
10    4  0.2977685E-005  0.1692968E+03  0.7546771E-02  0.1180178E+00
         21   -1    0    0  501  502  0.00000000000E+00  0.00000000000E+00  0.47371541565E+03  0.47371541565E+03  0.00000000000E+00 0. -1.
          2   -1    0    0  503    0 -0.00000000000E+00 -0.00000000000E+00 -0.18385139180E+03  0.18385139180E+03  0.00000000000E+00 0. -1.
         23    2    1    2    0    0 -0.88134706930E+02 -0.10099802003E+03  0.11149510826E+03  0.19641418878E+03  0.90438088063E+02 0.  0.
         24    2    1    2    0    0  0.58948026740E+02  0.16470201427E+03  0.24360509594E+03  0.31006355172E+03  0.78704129336E+02 0.  0.
        -11    1    4    4    0    0 -0.19007399521E+02  0.41833293164E+02  0.66835447525E+02  0.81106613167E+02  0.00000000000E+00 0.  1.
         12    1    4    4    0    0  0.77955426261E+02  0.12286872111E+03  0.17676964842E+03  0.22895693855E+03  0.00000000000E+00 0. -1.
        -11    1    3    3    0    0 -0.29750853020E+02  0.24634110120E+01 -0.47215861031E+01  0.30223749346E+02  0.00000000000E+00 0. -1.
         11    1    3    3    0    0 -0.58383853910E+02 -0.10346143104E+03  0.11621669436E+03  0.16619043943E+03  0.00000000000E+00 0.  1.
         21    1    1    2  503  502  0.20700300319E+02  0.29812954841E+01 -0.79639879323E+02  0.82340153841E+02  0.00000000000E+00 0.  1.
          1    1    1    2  501    0  0.84863798701E+01 -0.66685289729E+02  0.14403698973E+02  0.68748913109E+02  0.00000000000E+00 0. -1.
<scales pt_clust_5="13000.00000" pt_clust_6="13000.00000" pt_clust_7="13000.00000" pt_clust_8="13000.00000" pt_clust_9="20.91388" pt_clust_10="67.35911"></scales>
<clustering>
<clus scale="   20.914">  2  9  1 -1</clus>
<clus scale="   67.359">  1 10  2 -1</clus>
<clus scale="   78.704">  5  6 -1 -1</clus>
<clus scale="   90.438">  7  8 -1 -1</clus>
<clus scale="  163.330">  1  5  2 -1</clus>
<clus scale="   67.359">  1  5  2 -1</clus>
</clustering>
</event>
<event>
10    4  0.2977685E-005  0.9455729E+02  0.7546771E-02  0.1299187E+00
         21   -1    0    0  503  502  0.00000000000E+00  0.00000000000E+00  0.28098326948E+03  0.28098326948E+03  0.00000000000E+00 0.  1.
         -3   -1    0    0    0  501 -0.00000000000E+00 -0.00000000000E+00 -0.22774541435E+03  0.22774541435E+03  0.00000000000E+00 0.  1.
         24    2    1    2    0    0  0.63418398128E+02  0.21710979910E+02 -0.67819745890E+02  0.12375611875E+03  0.78884720486E+02 0.  0.
         23    2    1    2    0    0 -0.24440346928E+01  0.87222359783E+01  0.21742110450E+03  0.23585080363E+03  0.90948414976E+02 0.  0.
        -13    1    3    3    0    0  0.35882869720E+02  0.27908499905E+02 -0.80784677545E+02  0.92696433762E+02  0.00000000000E+00 0.  1.
         14    1    3    3    0    0  0.27535528408E+02 -0.61975199955E+01  0.12964931655E+02  0.31059684989E+02  0.00000000000E+00 0. -1.
        -11    1    4    4    0    0 -0.17363895362E+02  0.38701855191E+02  0.52159506511E+02  0.67230592566E+02  0.00000000000E+00 0. -1.
         11    1    4    4    0    0  0.14919860669E+02 -0.29979619213E+02  0.16526159799E+03  0.16862021107E+03  0.00000000000E+00 0.  1.
         21    1    1    2  503  501 -0.46361560993E+02 -0.75568526396E+01 -0.10936315744E+03  0.11902436963E+03  0.00000000000E+00 0.  1.
         -4    1    1    2    0  502 -0.14612802442E+02 -0.22876363248E+02  0.12999653960E+02  0.30097391810E+02  0.00000000000E+00 0.  1.
<scales pt_clust_5="13000.00000" pt_clust_6="13000.00000" pt_clust_7="13000.00000" pt_clust_8="13000.00000" pt_clust_9="47.31197" pt_clust_10="27.14520"></scales>
<clustering>
<clus scale="   27.145">  1 10  2 -1</clus>
<clus scale="   47.312">  2  9  1 -1</clus>
<clus scale="   78.885">  5  6 -1 -1</clus>
<clus scale="   83.020">  2  5  1 -1</clus>
<clus scale="   90.948">  7  8 -1 -1</clus>
<clus scale="   27.145">  1  5  2 -1</clus>
</clustering>
</event>
<event>
10    4  0.2977685E-005  0.1380467E+03  0.7546771E-02  0.1232470E+00
          2   -1    0    0  503    0 -0.00000000000E+00  0.00000000000E+00  0.13862757166E+03  0.13862757166E+03  0.00000000000E+00 0. -1.
         21   -1    0    0  501  502  0.00000000000E+00 -0.00000000000E+00 -0.11715213002E+04  0.11715213002E+04  0.00000000000E+00 0. -1.
         23    2    1    2    0    0 -0.23085346116E+02 -0.35001063725E+02 -0.63920650976E+02  0.11700228928E+03  0.88575834221E+02 0.  0.
         24    2    1    2    0    0  0.45801308685E+01 -0.16368988402E+03 -0.31839762811E+03  0.36689592484E+03  0.80126240104E+02 0.  0.
        -11    1    4    4    0    0  0.34732527519E+02 -0.34139486123E+02 -0.98904845685E+02  0.11024527872E+03  0.00000000000E+00 0.  1.
         12    1    4    4    0    0 -0.30152396650E+02 -0.12955039790E+03 -0.21949278242E+03  0.25665064612E+03  0.00000000000E+00 0. -1.
        -13    1    3    3    0    0 -0.34372213093E+02  0.77332887536E+01 -0.63709362205E+02  0.72802030332E+02  0.00000000000E+00 0.  1.
         13    1    3    3    0    0  0.11286866977E+02 -0.42734352479E+02 -0.21128877096E+00  0.44200258946E+02  0.00000000000E+00 0. -1.
         21    1    1    2  503  502  0.25186262671E+02  0.94591749997E+02  0.55489819401E+02  0.11252140708E+03  0.00000000000E+00 0. -1.
          1    1    1    2  501    0 -0.66810474242E+01  0.10409919775E+03 -0.70606526890E+03  0.71372925070E+03  0.00000000000E+00 0. -1.
<scales pt_clust_5="13000.00000" pt_clust_6="13000.00000" pt_clust_7="13000.00000" pt_clust_8="13000.00000" pt_clust_9="97.88742" pt_clust_10="112.41304"></scales>
<clustering>
<clus scale="   80.126">  5  6 -1 -1</clus>
<clus scale="   88.576">  7  8 -1 -1</clus>
<clus scale="   97.887">  1  9  2 -1</clus>
<clus scale="   97.887">  1  7  2 -1</clus>
<clus scale="  112.413">  2 10  1 -1</clus>
<clus scale="  112.413">  2  5  1 -1</clus>
</clustering>
</event>
<event>
10    4  0.2977685E-005  0.2101261E+03  0.7546771E-02  0.1163828E+00
         21   -1    0    0  501  502  0.00000000000E+00  0.00000000000E+00  0.28372484620E+03  0.28372484620E+03  0.00000000000E+00 0.  1.
          2   -1    0    0  503    0 -0.00000000000E+00 -0.00000000000E+00 -0.29273713525E+03  0.29273713525E+03  0.00000000000E+00 0. -1.
         23    2    1    2    0    0  0.66960483248E+02  0.47802307724E+02 -0.66740575491E+01  0.12107879385E+03  0.88581963941E+02 0.  0.
         24    2    1    2    0    0 -0.67857525783E+02  0.15154143334E+03  0.11504915999E+02  0.18445290946E+03  0.79505112362E+02 0.  0.
        -11    1    4    4    0    0 -0.69410020312E+02  0.13621341832E+03 -0.15189892068E+02  0.15363130889E+03  0.00000000000E+00 0.  1.
         12    1    4    4    0    0  0.15524945293E+01  0.15328015012E+02  0.26694808067E+02  0.30821600562E+02  0.00000000000E+00 0. -1.
        -13    1    3    3    0    0  0.50664378872E+02  0.34541951341E+02 -0.45890202237E+02  0.76589401031E+02  0.00000000000E+00 0.  1.
         13    1    3    3    0    0  0.16296104375E+02  0.13260356383E+02  0.39216144688E+02  0.44489392819E+02  0.00000000000E+00 0. -1.
         21    1    1    2  503  502 -0.10160517509E+01  0.35571437816E+02  0.22197389014E+00  0.35586638249E+02  0.00000000000E+00 0. -1.
          1    1    1    2  501    0  0.19130942862E+01 -0.23491517888E+03 -0.14065121394E+02  0.23534363989E+03  0.00000000000E+00 0. -1.
<scales pt_clust_5="13000.00000" pt_clust_6="13000.00000" pt_clust_7="13000.00000" pt_clust_8="13000.00000" pt_clust_9="35.58595" pt_clust_10="194.50441"></scales>
<clustering>
<clus scale="   35.586">  1  9  2 -1</clus>
<clus scale="   79.505">  5  6 -1 -1</clus>
<clus scale="   88.582">  7  8 -1 -1</clus>
<clus scale="  124.003">  2  7  1 -1</clus>
<clus scale="  194.504">  1 10  2 -1</clus>
<clus scale="   35.586">  1  5  2 -1</clus>
</clustering>
</event>
<event>
10    4  0.2977685E-005  0.1324186E+03  0.7546771E-02  0.1226437E+00
          2   -1    0    0  502    0 -0.00000000000E+00  0.00000000000E+00  0.48178511103E+03  0.48178511103E+03  0.00000000000E+00 0. -1.
         21   -1    0    0  503  502  0.00000000000E+00 -0.00000000000E+00 -0.60942298201E+02  0.60942298201E+02  0.00000000000E+00 0. -1.
         23    2    1    2    0    0  0.16014192504E+02  0.10591738045E+03  0.20011302004E+03  0.24471968640E+03  0.91474358599E+02 0.  0.
         24    2    1    2    0    0 -0.69947524728E+02 -0.64247896493E+02  0.12951631722E+03  0.18003293234E+03  0.81344525824E+02 0.  0.
        -11    1    4    4    0    0 -0.23755443605E+02 -0.38041467127E+02  0.55776500982E+01  0.45194961031E+02  0.00000000000E+00 0.  1.
         12    1    4    4    0    0 -0.46192081123E+02 -0.26206429366E+02  0.12393866713E+03  0.13483797131E+03  0.00000000000E+00 0. -1.
        -11    1    3    3    0    0 -0.45640761143E+01  0.93616457922E+02  0.19985733034E+03  0.22074379827E+03  0.00000000000E+00 0. -1.
         11    1    3    3    0    0  0.20578268619E+02  0.12300922533E+02  0.25568969700E+00  0.23975888132E+02  0.00000000000E+00 0.  1.
         21    1    1    2  503  501  0.21594115768E+02 -0.69179865836E+01  0.50800361990E+02  0.55631296520E+02  0.00000000000E+00 0. -1.
          1    1    1    2  501    0  0.32339216455E+02 -0.34751497378E+02  0.40413113583E+02  0.62343493970E+02  0.00000000000E+00 0. -1.
<scales pt_clust_5="13000.00000" pt_clust_6="13000.00000" pt_clust_7="13000.00000" pt_clust_8="13000.00000" pt_clust_9="21.33578" pt_clust_10="74.82081"></scales>
<clustering>
<clus scale="   21.336">  9 10 -1 -1</clus>
<clus scale="   74.821">  2  9  1 -1</clus>
<clus scale="   81.345">  5  6 -1 -1</clus>
<clus scale="   91.474">  7  8 -1 -1</clus>
<clus scale="  125.635">  2  5  1 -1</clus>
<clus scale="   74.821">  2  5  1 -1</clus>
</clustering>
</event>
<event>
10    4  0.2977685E-005  0.2872992E+03  0.7546771E-02  0.1099271E+00
         21   -1    0    0  501  502  0.00000000000E+00  0.00000000000E+00  0.25639108948E+03  0.25639108948E+03  0.00000000000E+00 0. -1.
          2   -1    0    0  503    0 -0.00000000000E+00 -0.00000000000E+00 -0.14320211693E+04  0.14320211693E+04  0.00000000000E+00 0. -1.
         24    2    1    2    0    0 -0.16334670043E+02 -0.17380917898E+03 -0.49972819817E+03  0.53549705196E+03  0.80946701400E+02 0.  0.
         23    2    1    2    0    0 -0.17905135464E+03  0.21765524053E+03 -0.17917823595E+03  0.34627274952E+03  0.91470134436E+02 0.  0.
        -13    1    3    3    0    0  0.22044394990E+02 -0.11607309167E+02 -0.49736904982E+02  0.55627733136E+02  0.00000000000E+00 0.  1.
         14    1    3    3    0    0 -0.38379065033E+02 -0.16220186981E+03 -0.44999129318E+03  0.47986931882E+03  0.00000000000E+00 0. -1.
        -11    1    4    4    0    0 -0.61556990206E+02  0.13613506268E+03 -0.11949013027E+03  0.19131102834E+03  0.00000000000E+00 0.  1.
         11    1    4    4    0    0 -0.11749436443E+03  0.81520177853E+02 -0.59688105680E+02  0.15496172118E+03  0.00000000000E+00 0. -1.
         21    1    1    2  503  502 -0.11968332491E+03 -0.59656938217E+02 -0.47158228594E+03  0.49017639779E+03  0.00000000000E+00 0. -1.
          1    1    1    2  501    0  0.31506934959E+03  0.15810876666E+02 -0.25141359784E+02  0.31646605954E+03  0.00000000000E+00 0. -1.
<scales pt_clust_5="13000.00000" pt_clust_6="13000.00000" pt_clust_7="13000.00000" pt_clust_8="13000.00000" pt_clust_9="133.72752" pt_clust_10="272.34910"></scales>
<clustering>
<clus scale="   80.947">  5  6 -1 -1</clus>
<clus scale="   91.470">  7  8 -1 -1</clus>
<clus scale="  133.728">  2  9  1 -1</clus>
<clus scale="  236.090">  2  5  1 -1</clus>
<clus scale="  272.349">  1 10  2 -1</clus>
<clus scale="  272.349">  1  5  2 -1</clus>
</clustering>
</event>
<event>
10    4  0.2977685E-005  0.1077874E+03  0.7546771E-02  0.1266417E+00
          2   -1    0    0  503    0 -0.00000000000E+00  0.00000000000E+00  0.68828887550E+03  0.68828887550E+03  0.00000000000E+00 0. -1.
         21   -1    0    0  501  502  0.00000000000E+00 -0.00000000000E+00 -0.14073149328E+03  0.14073149328E+03  0.00000000000E+00 0.  1.
         23    2    1    2    0    0 -0.68749487632E+02 -0.33122779130E+02  0.94850618872E+02  0.15460495752E+03  0.95301849107E+02 0.  0.
         24    2    1    2    0    0  0.15450897877E+02 -0.72626244561E+02 -0.72269338918E+02  0.13054975769E+03  0.79417128135E+02 0.  0.
        -11    1    4    4    0    0 -0.31653995836E+02 -0.37270015670E+02 -0.24375389075E+02  0.54636884180E+02  0.00000000000E+00 0.  1.
         12    1    4    4    0    0  0.47104893712E+02 -0.35356228892E+02 -0.47893949843E+02  0.75912873510E+02  0.00000000000E+00 0. -1.
        -13    1    3    3    0    0  0.67953927486E+01 -0.42542734506E+02  0.50954362771E+02  0.66726371902E+02  0.00000000000E+00 0.  1.
         13    1    3    3    0    0 -0.75544880381E+02  0.94199553755E+01  0.43896256102E+02  0.87878585621E+02  0.00000000000E+00 0. -1.
         21    1    1    2  503  502  0.42670135332E+02  0.37301159895E+02  0.11645913464E+03  0.12951774790E+03  0.00000000000E+00 0.  1.
          1    1    1    2  501    0  0.10628454424E+02  0.68447863796E+02  0.40851696762E+03  0.41434790568E+03  0.00000000000E+00 0. -1.
<scales pt_clust_5="13000.00000" pt_clust_6="13000.00000" pt_clust_7="13000.00000" pt_clust_8="13000.00000" pt_clust_9="56.67554" pt_clust_10="104.28904"></scales>
<clustering>
<clus scale="   56.676">  1  9  2 -1</clus>
<clus scale="   79.417">  5  6 -1 -1</clus>
<clus scale="   95.302">  7  8 -1 -1</clus>
<clus scale="  104.289">  2 10  1 -1</clus>
<clus scale="  104.289">  2  5  1 -1</clus>
<clus scale="  104.289">  2  5  1 -1</clus>
</clustering>
</event>
<event>
10    4  0.2977685E-005  0.2314072E+03  0.7546771E-02  0.1154922E+00
         21   -1    0    0  501  502  0.00000000000E+00  0.00000000000E+00  0.94823450442E+03  0.94823450442E+03  0.00000000000E+00 0. -1.
          2   -1    0    0  503    0 -0.00000000000E+00 -0.00000000000E+00 -0.40483560327E+03  0.40483560327E+03  0.00000000000E+00 0. -1.
         23    2    1    2    0    0 -0.31139448168E+02  0.11314876289E+02 -0.30950369760E+03  0.32460664147E+03  0.92082795355E+02 0.  0.
         24    2    1    2    0    0  0.15061394461E+03  0.17045107048E+03  0.69337525103E+03  0.73416314574E+03  0.80549103530E+02 0.  0.
        -13    1    4    4    0    0  0.96532426832E+01  0.46640154323E+02  0.84034880357E+02  0.96593737925E+02  0.00000000000E+00 0.  1.
         14    1    4    4    0    0  0.14096070192E+03  0.12381091616E+03  0.60934037068E+03  0.63756940782E+03  0.00000000000E+00 0. -1.
        -11    1    3    3    0    0 -0.18597525077E+02  0.52005823595E+02 -0.16956453219E+03  0.17833284668E+03  0.00000000000E+00 0. -1.
         11    1    3    3    0    0 -0.12541923090E+02 -0.40690947307E+02 -0.13993916541E+03  0.14627379479E+03  0.00000000000E+00 0.  1.
         21    1    1    2  503  502 -0.42938332354E+02  0.23358726496E+01  0.76775173527E+01  0.43681814970E+02  0.00000000000E+00 0. -1.
          1    1    1    2  501    0 -0.76536164086E+02 -0.18410181942E+03  0.15184983036E+03  0.25061850552E+03  0.00000000000E+00 0. -1.
<scales pt_clust_5="13000.00000" pt_clust_6="13000.00000" pt_clust_7="13000.00000" pt_clust_8="13000.00000" pt_clust_9="43.00182" pt_clust_10="216.93588"></scales>
<clustering>
<clus scale="   43.002">  2  9  1 -1</clus>
<clus scale="   80.549">  5  6 -1 -1</clus>
<clus scale="   92.083">  7  8 -1 -1</clus>
<clus scale="  114.255">  2  7  1 -1</clus>
<clus scale="  216.936">  1 10  2 -1</clus>
<clus scale="  216.936">  1  5  2 -1</clus>
</clustering>
</event>
<event>
10    4  0.2977685E-005  0.1180029E+03  0.7546771E-02  0.1247440E+00
         21   -1    0    0  501  502  0.00000000000E+00  0.00000000000E+00  0.16626580633E+03  0.16626580633E+03  0.00000000000E+00 0. -1.
          2   -1    0    0  503    0 -0.00000000000E+00 -0.00000000000E+00 -0.52357219101E+03  0.52357219101E+03  0.00000000000E+00 0. -1.
         23    2    1    2    0    0  0.70721852640E+02  0.19494677164E+02 -0.33639655455E+03  0.35431291602E+03  0.83626417290E+02 0.  0.
         24    2    1    2    0    0 -0.53696557573E+02 -0.43871242025E+02 -0.63855619977E+02  0.12379331717E+03  0.80244869007E+02 0.  0.
        -11    1    4    4    0    0 -0.46502576609E+02 -0.64857544722E+02 -0.34366699692E+02  0.86891085770E+02  0.00000000000E+00 0.  1.
         12    1    4    4    0    0 -0.71939809641E+01  0.20986302696E+02 -0.29488920285E+02  0.36902231403E+02  0.00000000000E+00 0. -1.
        -13    1    3    3    0    0  0.21576651301E+02  0.49158337868E+02 -0.15326577976E+03  0.16239610004E+03  0.00000000000E+00 0. -1.
         13    1    3    3    0    0  0.49145201339E+02 -0.29663660704E+02 -0.18313077479E+03  0.19191681598E+03  0.00000000000E+00 0.  1.
         21    1    1    2  503  502  0.18881084387E+02  0.24054064024E+02 -0.78945749343E+02  0.84661234831E+02  0.00000000000E+00 0. -1.
          1    1    1    2  501    0 -0.35906379454E+02  0.32250083704E+00  0.12189153919E+03  0.12707052931E+03  0.00000000000E+00 0. -1.
<scales pt_clust_5="13000.00000" pt_clust_6="13000.00000" pt_clust_7="13000.00000" pt_clust_8="13000.00000" pt_clust_9="30.57930" pt_clust_10="35.79871"></scales>
<clustering>
<clus scale="   30.579">  2  9  1 -1</clus>
<clus scale="   35.799">  1 10  2 -1</clus>
<clus scale="   80.245">  5  6 -1 -1</clus>
<clus scale="   83.626">  7  8 -1 -1</clus>
<clus scale="  115.631">  1  5  2 -1</clus>
<clus scale="   35.799">  1  5  2 -1</clus>
</clustering>
</event>
<event>
10    4  0.2977685E-005  0.9558552E+02  0.7546771E-02  0.1295185E+00
         -1   -1    0    0    0  501 -0.00000000000E+00  0.00000000000E+00  0.58097982190E+03  0.58097982190E+03  0.00000000000E+00 0.  1.
         21   -1    0    0  503  502  0.00000000000E+00 -0.00000000000E+00 -0.78634821104E+02  0.78634821104E+02  0.00000000000E+00 0.  1.
         23    2    1    2    0    0 -0.27543862848E+02 -0.54929999952E+02  0.30245083927E+03  0.32158208347E+03  0.90346870236E+02 0.  0.
         24    2    1    2    0    0 -0.25987130090E+02  0.50982761909E+01 -0.16615564350E+02  0.86570876949E+02  0.80728659140E+02 0.  0.
        -13    1    4    4    0    0 -0.45786282643E+02 -0.11738939171E+02 -0.31326806551E+02  0.56705865480E+02  0.00000000000E+00 0.  1.
         14    1    4    4    0    0  0.19799152553E+02  0.16837215362E+02  0.14711242201E+02  0.29865011469E+02  0.00000000000E+00 0. -1.
        -11    1    3    3    0    0 -0.55243599400E+02 -0.13574837002E+02  0.19564072483E+03  0.20374352674E+03  0.00000000000E+00 0.  1.
         11    1    3    3    0    0  0.27699736553E+02 -0.41355162950E+02  0.10681011443E+03  0.11783855673E+03  0.00000000000E+00 0. -1.
         21    1    1    2  503  501  0.17577722373E+02  0.24830677386E+02  0.20352431105E+03  0.20578552926E+03  0.00000000000E+00 0.  1.
         -2    1    1    2    0  502  0.35953270565E+02  0.25001046375E+02  0.12985414825E+02  0.45676153322E+02  0.00000000000E+00 0.  1.
<scales pt_clust_5="13000.00000" pt_clust_6="13000.00000" pt_clust_7="13000.00000" pt_clust_8="13000.00000" pt_clust_9="30.42267" pt_clust_10="46.02819"></scales>
<clustering>
<clus scale="   30.423">  1  9  2 -1</clus>
<clus scale="   46.028">  2 10  1 -1</clus>
<clus scale="   80.729">  5  6 -1 -1</clus>
<clus scale="   86.551">  2  5  1 -1</clus>
<clus scale="   90.347">  7  8 -1 -1</clus>
<clus scale="   46.028">  2  5  1 -1</clus>
</clustering>
</event>
<event>
10    4  0.2977685E-005  0.1768124E+03  0.7546771E-02  0.1172477E+00
         -1   -1    0    0    0  501 -0.00000000000E+00  0.00000000000E+00  0.21229401418E+03  0.21229401418E+03  0.00000000000E+00 0.  1.
         21   -1    0    0  503  502  0.00000000000E+00 -0.00000000000E+00 -0.59308454859E+03  0.59308454859E+03  0.00000000000E+00 0.  1.
         23    2    1    2    0    0  0.33692167494E+02  0.17113701571E+03 -0.25160895469E+03  0.31988440966E+03  0.92714233901E+02 0.  0.
         24    2    1    2    0    0 -0.88075073832E+02 -0.10770984451E+03 -0.21640527213E+03  0.26953423490E+03  0.80366863463E+02 0.  0.
        -11    1    4    4    0    0 -0.37151901006E+02 -0.10296852064E+03 -0.15113594753E+03  0.18661418656E+03  0.00000000000E+00 0.  1.
         12    1    4    4    0    0 -0.50923172827E+02 -0.47413238749E+01 -0.65269324602E+02  0.82920048341E+02  0.00000000000E+00 0. -1.
        -11    1    3    3    0    0  0.29538874853E+02  0.53629394467E+01 -0.24915522791E+02  0.39013965744E+02  0.00000000000E+00 0. -1.
         11    1    3    3    0    0  0.41532926404E+01  0.16577407626E+03 -0.22669343190E+03  0.28087044391E+03  0.00000000000E+00 0.  1.
         21    1    1    2  503  501  0.66996012937E+02 -0.10437501665E+03  0.60522965561E+01  0.12417423301E+03  0.00000000000E+00 0.  1.
         -2    1    1    2    0  502 -0.12613106599E+02  0.40947845452E+02  0.81171395849E+02  0.91785685209E+02  0.00000000000E+00 0.  1.
<scales pt_clust_5="13000.00000" pt_clust_6="13000.00000" pt_clust_7="13000.00000" pt_clust_8="13000.00000" pt_clust_9="119.88503" pt_clust_10="42.84645"></scales>
<clustering>
<clus scale="   42.846">  2 10  1 -1</clus>
<clus scale="   80.367">  5  6 -1 -1</clus>
<clus scale="   92.714">  7  8 -1 -1</clus>
<clus scale="  119.885">  1  9  2 -1</clus>
<clus scale="  170.662">  2  5  1 -1</clus>
<clus scale="   42.846">  2  5  1 -1</clus>
</clustering>
</event>
<event>
10    4  0.2977685E-005  0.2780178E+03  0.7546771E-02  0.1144584E+00
          2   -1    0    0  503    0 -0.00000000000E+00  0.00000000000E+00  0.14782526151E+04  0.14782526151E+04  0.00000000000E+00 0. -1.
         21   -1    0    0  501  502  0.00000000000E+00 -0.00000000000E+00 -0.16596418044E+03  0.16596418044E+03  0.00000000000E+00 0.  1.
         24    2    1    2    0    0 -0.24784595430E+02  0.67397543834E+00  0.83918002254E+02  0.11878156507E+03  0.80324956795E+02 0.  0.
         23    2    1    2    0    0 -0.20670399589E+03  0.16615382553E+03  0.29166130339E+02  0.28340678082E+03  0.95577741153E+02 0.  0.
        -11    1    3    3    0    0  0.20663965376E+02 -0.18792055310E+02  0.96294714506E+01  0.29544331575E+02  0.00000000000E+00 0.  1.
         12    1    3    3    0    0 -0.45448560806E+02  0.19466030748E+02  0.74288530804E+02  0.89237233492E+02  0.00000000000E+00 0. -1.
        -13    1    4    4    0    0 -0.11213919357E+03  0.81676958596E+02  0.62704836820E+02  0.15224395180E+03  0.00000000000E+00 0.  1.
         13    1    4    4    0    0 -0.94564802323E+02  0.84476866932E+02 -0.33538706481E+02  0.13116282902E+03  0.00000000000E+00 0. -1.
         21    1    1    2  503  502  0.30824466020E+01 -0.77162770054E+02  0.25280197283E+03  0.26433394036E+03  0.00000000000E+00 0. -1.
          1    1    1    2  501    0  0.22840614472E+03 -0.89665030912E+02  0.94640232925E+03  0.97769450930E+03  0.00000000000E+00 0. -1.
<scales pt_clust_5="13000.00000" pt_clust_6="13000.00000" pt_clust_7="13000.00000" pt_clust_8="13000.00000" pt_clust_9="77.22431" pt_clust_10="261.07250"></scales>
<clustering>
<clus scale="   77.224">  1  9  2 -1</clus>
<clus scale="   80.325">  5  6 -1 -1</clus>
<clus scale="   84.182">  1  5  2 -1</clus>
<clus scale="   95.578">  7  8 -1 -1</clus>
<clus scale="  261.072">  2 10  1 -1</clus>
<clus scale="  261.072">  2  5  1 -1</clus>
</clustering>
</event>
<event>
10    4  0.2977685E-005  0.1623404E+03  0.7546771E-02  0.1206062E+00
         21   -1    0    0  503  502  0.00000000000E+00  0.00000000000E+00  0.42010761514E+03  0.42010761514E+03  0.00000000000E+00 0.  1.
         -1   -1    0    0    0  501 -0.00000000000E+00 -0.00000000000E+00 -0.32685892826E+03  0.32685892826E+03  0.00000000000E+00 0.  1.
         23    2    1    2    0    0  0.20073881944E+01 -0.58106078699E+02  0.35419015142E+02  0.11069056090E+03  0.87278563519E+02 0.  0.
         24    2    1    2    0    0 -0.86434727166E+02 -0.82531891030E+02 -0.10739388655E+03  0.17936949112E+03  0.79733884754E+02 0.  0.
        -11    1    4    4    0    0 -0.64764405808E+02 -0.92282937674E+02 -0.10725036071E+03  0.15560594050E+03  0.00000000000E+00 0.  1.
         12    1    4    4    0    0 -0.21670321359E+02  0.97510466439E+01 -0.14352584020E+00  0.23763550621E+02  0.00000000000E+00 0. -1.
        -11    1    3    3    0    0  0.75986103794E+01 -0.22057765347E+02  0.61546430922E+02  0.65819807437E+02  0.00000000000E+00 0.  1.
         11    1    3    3    0    0 -0.55912221850E+01 -0.36048313353E+02 -0.26127415781E+02  0.44870753465E+02  0.00000000000E+00 0. -1.
         21    1    1    2  503  501 -0.58239780507E+02  0.10802127967E+03 -0.97121311111E+02  0.15650245355E+03  0.00000000000E+00 0. -1.
         -2    1    1    2    0  502  0.14266711948E+03  0.32616690062E+02  0.26234486939E+03  0.30040403784E+03  0.00000000000E+00 0.  1.
<scales pt_clust_5="13000.00000" pt_clust_6="13000.00000" pt_clust_7="13000.00000" pt_clust_8="13000.00000" pt_clust_9="100.51708" pt_clust_10="141.41043"></scales>
<clustering>
<clus scale="   79.734">  5  6 -1 -1</clus>
<clus scale="   87.279">  7  8 -1 -1</clus>
<clus scale="  104.871">  2  7  1 -1</clus>
<clus scale="  100.517">  2  9  1 -1</clus>
<clus scale="  141.410">  1 10  2 -1</clus>
<clus scale="  141.410">  1  5  2 -1</clus>
</clustering>
</event>
<event>
10    4  0.2977685E-005  0.2042414E+03  0.7546771E-02  0.1183198E+00
         21   -1    0    0  501  502  0.00000000000E+00  0.00000000000E+00  0.11470590912E+04  0.11470590912E+04  0.00000000000E+00 0. -1.
          2   -1    0    0  503    0 -0.00000000000E+00 -0.00000000000E+00 -0.14064170673E+03  0.14064170673E+03  0.00000000000E+00 0. -1.
         24    2    1    2    0    0 -0.29166137747E+02  0.65516416535E+01  0.25650777419E+03  0.27103699790E+03  0.82287474213E+02 0.  0.
         23    2    1    2    0    0 -0.18917854216E+03 -0.27065052515E+02  0.94763177418E+02  0.23236546814E+03  0.92155374817E+02 0.  0.
        -13    1    3    3    0    0  0.17332306648E+02  0.30580147010E+02  0.98232421190E+02  0.10433198368E+03  0.00000000000E+00 0.  1.
         14    1    3    3    0    0 -0.46498444395E+02 -0.24028505356E+02  0.15827535300E+03  0.16670501422E+03  0.00000000000E+00 0. -1.
        -13    1    4    4    0    0 -0.11248265770E+03 -0.60819494755E+02  0.64973809444E+02  0.14343275477E+03  0.00000000000E+00 0.  1.
         13    1    4    4    0    0 -0.76695884457E+02  0.33754442240E+02  0.29789367975E+02  0.88932713373E+02  0.00000000000E+00 0. -1.
         21    1    1    2  503  502  0.38488975913E+02  0.48026580094E+02 -0.34841468729E+02  0.70723981828E+02  0.00000000000E+00 0. -1.
          1    1    1    2  501    0  0.17985570399E+03 -0.27513169232E+02  0.68998790159E+03  0.71357435007E+03  0.00000000000E+00 0. -1.
<scales pt_clust_5="13000.00000" pt_clust_6="13000.00000" pt_clust_7="13000.00000" pt_clust_8="13000.00000" pt_clust_9="61.54635" pt_clust_10="182.26889"></scales>
<clustering>
<clus scale="   61.546">  2  9  1 -1</clus>
<clus scale="   82.287">  5  6 -1 -1</clus>
<clus scale="   86.932">  2  5  1 -1</clus>
<clus scale="   92.155">  7  8 -1 -1</clus>
<clus scale="  182.269">  1 10  2 -1</clus>
<clus scale="  182.269">  1  5  2 -1</clus>
</clustering>
</event>
<event>
10    4  0.2977685E-005  0.1284837E+03  0.7546771E-02  0.1232786E+00
         21   -1    0    0  501  502  0.00000000000E+00  0.00000000000E+00  0.14900797911E+03  0.14900797911E+03  0.00000000000E+00 0. -1.
          2   -1    0    0  503    0 -0.00000000000E+00 -0.00000000000E+00 -0.79149177042E+03  0.79149177042E+03  0.00000000000E+00 0. -1.
         24    2    1    2    0    0  0.15112662393E+02 -0.73316538330E+02 -0.44745957908E+03  0.46091299228E+03  0.81344970280E+02 0.  0.
         23    2    1    2    0    0  0.96870553299E+02  0.62093507265E+02 -0.19691785771E+03  0.24615166402E+03  0.92598548963E+02 0.  0.
        -13    1    3    3    0    0 -0.27737222149E+02 -0.46853675220E+01 -0.15169835627E+03  0.15428446927E+03  0.00000000000E+00 0.  1.
         14    1    3    3    0    0  0.42849884542E+02 -0.68631170808E+02 -0.29576122281E+03  0.30662852302E+03  0.00000000000E+00 0. -1.
        -13    1    4    4    0    0  0.66609603258E+02 -0.13888576882E+01 -0.50098730284E+02  0.83358568533E+02  0.00000000000E+00 0. -1.
         13    1    4    4    0    0  0.30260950041E+02  0.63482364953E+02 -0.14681912743E+03  0.16279309548E+03  0.00000000000E+00 0.  1.
         21    1    1    2  503  502 -0.21964785849E+02 -0.47900963240E+02 -0.81618012718E+02  0.97151706607E+02  0.00000000000E+00 0. -1.
          1    1    1    2  501    0 -0.90018429843E+02  0.59123994304E+02  0.83511658204E+02  0.13628338662E+03  0.00000000000E+00 0. -1.
<scales pt_clust_5="13000.00000" pt_clust_6="13000.00000" pt_clust_7="13000.00000" pt_clust_8="13000.00000" pt_clust_9="52.69681" pt_clust_10="107.41803"></scales>
<clustering>
<clus scale="   52.697">  2  9  1 -1</clus>
<clus scale="   81.345">  5  6 -1 -1</clus>
<clus scale="   92.599">  7  8 -1 -1</clus>
<clus scale="  107.418">  1 10  2 -1</clus>
<clus scale="  120.626">  2  5  1 -1</clus>
<clus scale="  107.418">  1  5  2 -1</clus>
</clustering>
</event>
<event>
10    4  0.2977685E-005  0.1470445E+03  0.7546771E-02  0.1208762E+00
         -1   -1    0    0    0  501 -0.00000000000E+00  0.00000000000E+00  0.15400818660E+03  0.15400818660E+03  0.00000000000E+00 0.  1.
         21   -1    0    0  503  502  0.00000000000E+00 -0.00000000000E+00 -0.37428615652E+03  0.37428615652E+03  0.00000000000E+00 0. -1.
         24    2    1    2    0    0  0.92229850755E+02 -0.68859716332E+02  0.10090385015E+02  0.14083224682E+03  0.80522667434E+02 0.  0.
         23    2    1    2    0    0 -0.65239110357E+02  0.25439432675E+02 -0.24115493819E+03  0.27097528195E+03  0.10182628816E+03 0.  0.
        -13    1    3    3    0    0 -0.12254643705E+02 -0.23372513462E+02 -0.40449941186E+00  0.26393451795E+02  0.00000000000E+00 0.  1.
         14    1    3    3    0    0  0.10448449446E+03 -0.45487202870E+02  0.10494884427E+02  0.11443879502E+03  0.00000000000E+00 0. -1.
        -13    1    4    4    0    0 -0.49312654213E+02 -0.33489365151E+02 -0.89899787295E+02  0.10786680305E+03  0.00000000000E+00 0.  1.
         13    1    4    4    0    0 -0.15926456144E+02  0.58928797825E+02 -0.15125515089E+03  0.16310847890E+03  0.00000000000E+00 0. -1.
         21    1    1    2  503  501 -0.20945341593E+02 -0.32960401872E+02  0.77050626474E+01  0.39805318946E+02  0.00000000000E+00 0.  1.
         -2    1    1    2    0  502 -0.60453988043E+01  0.76380685529E+02  0.30815205979E+01  0.76681495407E+02  0.00000000000E+00 0.  1.
<scales pt_clust_5="13000.00000" pt_clust_6="13000.00000" pt_clust_7="13000.00000" pt_clust_8="13000.00000" pt_clust_9="39.05247" pt_clust_10="67.44933"></scales>
<clustering>
<clus scale="   39.052">  1  9  2 -1</clus>
<clus scale="   67.449">  2 10  1 -1</clus>
<clus scale="   80.523">  5  6 -1 -1</clus>
<clus scale="  101.826">  7  8 -1 -1</clus>
<clus scale="  133.182">  1  5  2 -1</clus>
<clus scale="   67.449">  2  5  1 -1</clus>
</clustering>
</event>
<event>
10    4  0.2977685E-005  0.9491422E+02  0.7546771E-02  0.1298608E+00
          2   -1    0    0  503    0 -0.00000000000E+00  0.00000000000E+00  0.51062515711E+03  0.51062515711E+03  0.00000000000E+00 0. -1.
         21   -1    0    0  501  502  0.00000000000E+00 -0.00000000000E+00 -0.51844099957E+02  0.51844099957E+02  0.00000000000E+00 0.  1.
         24    2    1    2    0    0  0.30458706230E+02  0.87352197706E+01  0.12554118169E+03  0.15195068634E+03  0.79526007878E+02 0.  0.
         23    2    1    2    0    0  0.33808831488E+02 -0.42990312167E+02  0.12452023299E+03  0.16415150882E+03  0.91919668173E+02 0.  0.
        -13    1    3    3    0    0  0.40554669336E+02  0.29409836857E+02  0.42230342807E+02  0.65521153550E+02  0.00000000000E+00 0.  1.
         14    1    3    3    0    0 -0.10095963106E+02 -0.20674617086E+02  0.83310838883E+02  0.86429532788E+02  0.00000000000E+00 0. -1.
        -11    1    4    4    0    0  0.41783285611E+02 -0.19613581928E+02  0.13076709707E+03  0.13867432793E+03  0.00000000000E+00 0. -1.
         11    1    4    4    0    0 -0.79744541237E+01 -0.23376730238E+02 -0.62468640747E+01  0.25477180887E+02  0.00000000000E+00 0.  1.
         21    1    1    2  503  502  0.27507648529E+02  0.33477066729E+01  0.84079371168E+02  0.88528066304E+02  0.00000000000E+00 0.  1.
          1    1    1    2  501    0 -0.91775186246E+02  0.30907385723E+02  0.12464027131E+03  0.15783899561E+03  0.00000000000E+00 0. -1.
<scales pt_clust_5="13000.00000" pt_clust_6="13000.00000" pt_clust_7="13000.00000" pt_clust_8="13000.00000" pt_clust_9="27.71061" pt_clust_10="88.60753"></scales>
<clustering>
<clus scale="   27.711">  1  9  2 -1</clus>
<clus scale="   79.526">  5  6 -1 -1</clus>
<clus scale="   88.608">  2 10  1 -1</clus>
<clus scale="   82.969">  1  5  2 -1</clus>
<clus scale="   91.920">  7  8 -1 -1</clus>
<clus scale="   88.608">  2  5  1 -1</clus>
</clustering>
</event>
<event>
10    4  0.2977685E-005  0.1359194E+03  0.7546771E-02  0.1244255E+00
         21   -1    0    0  501  502  0.00000000000E+00  0.00000000000E+00  0.12070039821E+03  0.12070039821E+03  0.00000000000E+00 0. -1.
          2   -1    0    0  503    0 -0.00000000000E+00 -0.00000000000E+00 -0.53352885680E+03  0.53352885680E+03  0.00000000000E+00 0. -1.
         24    2    1    2    0    0 -0.52977567924E+01  0.70774677058E+01 -0.12679464710E+03  0.15011477644E+03  0.79871188782E+02 0.  0.
         23    2    1    2    0    0  0.13259593622E+03  0.50458343810E+02 -0.28436330119E+03  0.32647060805E+03  0.74785320028E+02 0.  0.
        -11    1    3    3    0    0 -0.26460762720E+02  0.14068769503E+02 -0.10578291819E+02  0.31780536447E+02  0.00000000000E+00 0.  1.
         12    1    3    3    0    0  0.21163005928E+02 -0.69913017973E+01 -0.11621635528E+03  0.11833424000E+03  0.00000000000E+00 0. -1.
        -11    1    4    4    0    0  0.11673472318E+03  0.27014470036E+02 -0.16572973812E+03  0.20450702503E+03  0.00000000000E+00 0. -1.
         11    1    4    4    0    0  0.15861213043E+02  0.23443873775E+02 -0.11863356307E+03  0.12196358302E+03  0.00000000000E+00 0.  1.
         21    1    1    2  503  502 -0.20607552020E+02 -0.30194485177E+02 -0.46140232878E+02  0.58866792213E+02  0.00000000000E+00 0.  1.
          1    1    1    2  501    0 -0.10669062741E+03 -0.27341326339E+02  0.44469722584E+02  0.11877707830E+03  0.00000000000E+00 0. -1.
<scales pt_clust_5="13000.00000" pt_clust_6="13000.00000" pt_clust_7="13000.00000" pt_clust_8="13000.00000" pt_clust_9="36.55651" pt_clust_10="113.49549"></scales>
<clustering>
<clus scale="   36.557">  2  9  1 -1</clus>
<clus scale="   74.785">  7  8 -1 -1</clus>
<clus scale="   79.871">  5  6 -1 -1</clus>
<clus scale="   80.673">  2  5  1 -1</clus>
<clus scale="  113.495">  1 10  2 -1</clus>
<clus scale="  113.495">  1  5  2 -1</clus>
</clustering>
</event>
<event>
10    4  0.2977685E-005  0.2670496E+03  0.7546771E-02  0.1103623E+00
          2   -1    0    0  503    0 -0.00000000000E+00  0.00000000000E+00  0.22039894285E+04  0.22039894285E+04  0.00000000000E+00 0. -1.
         21   -1    0    0  501  502  0.00000000000E+00 -0.00000000000E+00 -0.96561369749E+02  0.96561369749E+02  0.00000000000E+00 0. -1.
         23    2    1    2    0    0 -0.19532156037E+03  0.20712546304E+02  0.57201649550E+03  0.61169690395E+03  0.91600816851E+02 0.  0.
         24    2    1    2    0    0  0.37481089158E+03  0.72329772171E+02  0.53126442779E+03  0.65880427152E+03  0.77886940802E+02 0.  0.
        -11    1    4    4    0    0  0.87864822935E+02  0.34953379021E+02  0.86292314443E+02  0.12801691039E+03  0.00000000000E+00 0.  1.
         12    1    4    4    0    0  0.28694606864E+03  0.37376393150E+02  0.44497211335E+03  0.53078736113E+03  0.00000000000E+00 0. -1.
        -11    1    3    3    0    0 -0.13232171997E+03 -0.15863953272E+02  0.45261354366E+03  0.47182594513E+03  0.00000000000E+00 0. -1.
         11    1    3    3    0    0 -0.62999840406E+02  0.36576499576E+02  0.11940295184E+03  0.13987095882E+03  0.00000000000E+00 0.  1.
         21    1    1    2  503  502 -0.42298874734E+02  0.18986024187E+02  0.12700453453E+03  0.13520286872E+03  0.00000000000E+00 0. -1.
          1    1    1    2  501    0 -0.13719045647E+03 -0.11202834266E+03  0.87714260091E+03  0.89484675405E+03  0.00000000000E+00 0. -1.
<scales pt_clust_5="13000.00000" pt_clust_6="13000.00000" pt_clust_7="13000.00000" pt_clust_8="13000.00000" pt_clust_9="46.36447" pt_clust_10="186.83348"></scales>
<clustering>
<clus scale="   46.364">  1  9  2 -1</clus>
<clus scale="   77.887">  5  6 -1 -1</clus>
<clus scale="   91.601">  7  8 -1 -1</clus>
<clus scale="  186.833">  2 10  1 -1</clus>
<clus scale="  262.662">  2  5  1 -1</clus>
<clus scale="  186.833">  2  5  1 -1</clus>
</clustering>
</event>
<event>
10    4  0.2977685E-005  0.1315905E+03  0.7546771E-02  0.1240807E+00
         21   -1    0    0  501  502  0.00000000000E+00  0.00000000000E+00  0.11723247844E+03  0.11723247844E+03  0.00000000000E+00 0. -1.
          2   -1    0    0  503    0 -0.00000000000E+00 -0.00000000000E+00 -0.65699451711E+03  0.65699451711E+03  0.00000000000E+00 0. -1.
         23    2    1    2    0    0  0.51790485453E+01 -0.93610443779E+01 -0.35420328946E+03  0.36634816741E+03  0.92933082389E+02 0.  0.
         24    2    1    2    0    0  0.44671515570E+02 -0.79883547918E+02  0.10530412480E+02  0.12785513153E+03  0.88651675334E+02 0.  0.
        -13    1    4    4    0    0  0.41897250302E+02 -0.45737034729E+01 -0.19867829908E+02  0.46594302351E+02  0.00000000000E+00 0.  1.
         14    1    4    4    0    0  0.27742652681E+01 -0.75309844445E+02  0.30398242388E+02  0.81260829176E+02  0.00000000000E+00 0. -1.
        -13    1    3    3    0    0  0.20510481634E+02  0.36854183403E+02 -0.12171323441E+03  0.12881390500E+03  0.00000000000E+00 0.  1.
         13    1    3    3    0    0 -0.15331433089E+02 -0.46215227781E+02 -0.23249005505E+03  0.23753426241E+03  0.00000000000E+00 0. -1.
         21    1    1    2  503  502  0.21615493486E+02  0.11917511451E+02 -0.16968292478E+03  0.17146880649E+03  0.00000000000E+00 0.  1.
          1    1    1    2  501    0 -0.71466057602E+02  0.77327080844E+02 -0.26406236911E+02  0.10855489012E+03  0.00000000000E+00 0. -1.
<scales pt_clust_5="13000.00000" pt_clust_6="13000.00000" pt_clust_7="13000.00000" pt_clust_8="13000.00000" pt_clust_9="24.68312" pt_clust_10="97.24686"></scales>
<clustering>
<clus scale="   24.683">  2  9  1 -1</clus>
<clus scale="   88.652">  5  6 -1 -1</clus>
<clus scale="   92.933">  7  8 -1 -1</clus>
<clus scale="   95.320">  2  7  1 -1</clus>
<clus scale="   97.247">  1 10  2 -1</clus>
<clus scale="   97.247">  1  5  2 -1</clus>
</clustering>
</event>
<event>
10    4  0.2977685E-005  0.1022895E+03  0.7546771E-02  0.1282614E+00
         21   -1    0    0  501  502  0.00000000000E+00  0.00000000000E+00  0.21012518002E+02  0.21012518002E+02  0.00000000000E+00 0. -1.
          2   -1    0    0  503    0 -0.00000000000E+00 -0.00000000000E+00 -0.10651011015E+04  0.10651011015E+04  0.00000000000E+00 0. -1.
         24    2    1    2    0    0  0.12643548301E+02  0.54635406964E+02 -0.64058516975E+03  0.64793935788E+03  0.79568616789E+02 0.  0.
         23    2    1    2    0    0  0.19701882116E+02 -0.33456731020E+02 -0.28135132381E+03  0.29910879816E+03  0.93808255063E+02 0.  0.
        -11    1    3    3    0    0 -0.28786260744E+02  0.12322577647E+02 -0.12082440651E+03  0.12481599231E+03  0.00000000000E+00 0.  1.
         12    1    3    3    0    0  0.41429809045E+02  0.42312829318E+02 -0.51976076324E+03  0.52312336557E+03  0.00000000000E+00 0. -1.
        -13    1    4    4    0    0 -0.13239874973E+01 -0.60190988183E+02 -0.22818688674E+03  0.23599568488E+03  0.00000000000E+00 0.  1.
         13    1    4    4    0    0  0.21025869613E+02  0.26734257164E+02 -0.53164437068E+02  0.63113113279E+02  0.00000000000E+00 0. -1.
         21    1    1    2  503  502 -0.75029784963E+01 -0.19737901448E+02 -0.10879067452E+03  0.11082098313E+03  0.00000000000E+00 0. -1.
          1    1    1    2  501    0 -0.24842451921E+02 -0.14407744969E+01 -0.13361415467E+02  0.28244480379E+02  0.00000000000E+00 0. -1.
<scales pt_clust_5="13000.00000" pt_clust_6="13000.00000" pt_clust_7="13000.00000" pt_clust_8="13000.00000" pt_clust_9="21.11586" pt_clust_10="25.07571"></scales>
<clustering>
<clus scale="   21.116">  2  9  1 -1</clus>
<clus scale="   25.076">  1 10  2 -1</clus>
<clus scale="   79.569">  5  6 -1 -1</clus>
<clus scale="   89.411">  2  5  1 -1</clus>
<clus scale="   93.808">  7  8 -1 -1</clus>
<clus scale="   25.076">  1  5  2 -1</clus>
</clustering>
</event>
<event>
10    4  0.2977685E-005  0.2448213E+03  0.7546771E-02  0.1117093E+00
          2   -1    0    0  503    0 -0.00000000000E+00  0.00000000000E+00  0.63420004926E+03  0.63420004926E+03  0.00000000000E+00 0. -1.
         21   -1    0    0  501  502  0.00000000000E+00 -0.00000000000E+00 -0.24544965624E+03  0.24544965624E+03  0.00000000000E+00 0. -1.
         23    2    1    2    0    0  0.10659401850E+02 -0.22816576563E+03  0.50193693222E+03  0.55859723188E+03  0.88977211064E+02 0.  0.
         24    2    1    2    0    0  0.55836410869E+01  0.22630610706E+03 -0.10955707856E+03  0.26412280797E+03  0.80699895193E+02 0.  0.
        -13    1    4    4    0    0  0.26975859518E+02  0.16320802785E+03 -0.10785126327E+03  0.19747519424E+03  0.00000000000E+00 0.  1.
         14    1    4    4    0    0 -0.21392218431E+02  0.63098079209E+02 -0.17058152913E+01  0.66647613724E+02  0.00000000000E+00 0. -1.
        -11    1    3    3    0    0 -0.33692833029E+02 -0.47971835303E+02  0.14238980283E+03  0.15398493410E+03  0.00000000000E+00 0.  1.
         11    1    3    3    0    0  0.44352234879E+02 -0.18019393032E+03  0.35954712939E+03  0.40461229778E+03  0.00000000000E+00 0. -1.
         21    1    1    2  503  502  0.15332083169E+02 -0.14221541517E+02 -0.48765423118E+01  0.21473371472E+02  0.00000000000E+00 0.  1.
          1    1    1    2  501    0 -0.31575126106E+02  0.16081200084E+02  0.12470816762E+01  0.35456294187E+02  0.00000000000E+00 0. -1.
<scales pt_clust_5="13000.00000" pt_clust_6="13000.00000" pt_clust_7="13000.00000" pt_clust_8="13000.00000" pt_clust_9="20.91232" pt_clust_10="33.95560"></scales>
<clustering>
<clus scale="   20.912">  2  9  1 -1</clus>
<clus scale="   33.956">  2 10  1 -1</clus>
<clus scale="   80.700">  5  6 -1 -1</clus>
<clus scale="   88.977">  7  8 -1 -1</clus>
<clus scale="  241.936">  2  5  1 -1</clus>
<clus scale="   20.912">  2  5  1 -1</clus>
</clustering>
</event>
<event>
10    4  0.2977685E-005  0.2294794E+03  0.7546771E-02  0.1128122E+00
          2   -1    0    0  503    0 -0.00000000000E+00  0.00000000000E+00  0.24453956546E+03  0.24453956546E+03  0.00000000000E+00 0. -1.
         21   -1    0    0  501  502  0.00000000000E+00 -0.00000000000E+00 -0.49590580591E+03  0.49590580591E+03  0.00000000000E+00 0. -1.
         23    2    1    2    0    0  0.17131555433E+03  0.19260533205E+03 -0.11885202443E+02  0.27362014169E+03  0.90999400057E+02 0.  0.
         24    2    1    2    0    0 -0.81670497252E+02 -0.14490321614E+03 -0.19737603607E+03  0.26848919751E+03  0.73906274406E+02 0.  0.
        -11    1    4    4    0    0 -0.54009080582E+02 -0.26593124405E+02 -0.72909577972E+02  0.94551475985E+02  0.00000000000E+00 0.  1.
         12    1    4    4    0    0 -0.27661416670E+02 -0.11831009173E+03 -0.12446645810E+03  0.17393772152E+03  0.00000000000E+00 0. -1.
        -13    1    3    3    0    0 -0.78106985626E+01  0.29582585834E+02  0.41982138235E+01  0.30883027637E+02  0.00000000000E+00 0.  1.
         13    1    3    3    0    0  0.17912625290E+03  0.16302274622E+03 -0.16083416267E+02  0.24273711406E+03  0.00000000000E+00 0. -1.
         21    1    1    2  503  502 -0.58729892767E+02 -0.14830731041E+01  0.58803010927E+02  0.83121561008E+02  0.00000000000E+00 0.  1.
          1    1    1    2  501    0 -0.30915164315E+02 -0.46219042812E+02 -0.10090801287E+03  0.11521447116E+03  0.00000000000E+00 0. -1.
<scales pt_clust_5="13000.00000" pt_clust_6="13000.00000" pt_clust_7="13000.00000" pt_clust_8="13000.00000" pt_clust_9="59.77107" pt_clust_10="55.60528"></scales>
<clustering>
<clus scale="   55.605">  2 10  1 -1</clus>
<clus scale="   59.771">  1  9  2 -1</clus>
<clus scale="   73.906">  5  6 -1 -1</clus>
<clus scale="   90.999">  7  8 -1 -1</clus>
<clus scale="  223.253">  2  5  1 -1</clus>
<clus scale="   55.605">  2  5  1 -1</clus>
</clustering>
</event>
<event>
10    4  0.2977685E-005  0.1137345E+03  0.7546771E-02  0.1257458E+00
         21   -1    0    0  501  502  0.00000000000E+00  0.00000000000E+00  0.16238926553E+03  0.16238926553E+03  0.00000000000E+00 0. -1.
          2   -1    0    0  503    0 -0.00000000000E+00 -0.00000000000E+00 -0.36121782677E+03  0.36121782677E+03  0.00000000000E+00 0. -1.
         24    2    1    2    0    0 -0.66404563826E+02 -0.16677411268E+02 -0.22434756282E+03  0.24913846256E+03  0.83966912746E+02 0.  0.
         23    2    1    2    0    0  0.30696184394E+02  0.53706620254E+02  0.10932044804E+01  0.11233703473E+03  0.93764372127E+02 0.  0.
        -11    1    3    3    0    0  0.50874750979E+01 -0.34068940732E+02 -0.80686531188E+02  0.87731929425E+02  0.00000000000E+00 0.  1.
         12    1    3    3    0    0 -0.71492038924E+02  0.17391529464E+02 -0.14366103164E+03  0.16140653313E+03  0.00000000000E+00 0. -1.
        -11    1    4    4    0    0  0.52075747526E+02  0.95532670205E+01 -0.22949939812E+02  0.57704836267E+02  0.00000000000E+00 0. -1.
         11    1    4    4    0    0 -0.21379563133E+02  0.44153353233E+02  0.24043144292E+02  0.54632198463E+02  0.00000000000E+00 0.  1.
         21    1    1    2  503  502  0.71838709240E+02 -0.10822277611E+02 -0.40628032903E+02  0.83237965470E+02  0.00000000000E+00 0. -1.
          1    1    1    2  501    0 -0.36130329807E+02 -0.26206931375E+02  0.65053830005E+02  0.78893629542E+02  0.00000000000E+00 0. -1.
<scales pt_clust_5="13000.00000" pt_clust_6="13000.00000" pt_clust_7="13000.00000" pt_clust_8="13000.00000" pt_clust_9="65.56671" pt_clust_10="44.63411"></scales>
<clustering>
<clus scale="   44.634">  1 10  2 -1</clus>
<clus scale="   65.567">  1  9  2 -1</clus>
<clus scale="   83.967">  5  6 -1 -1</clus>
<clus scale="   93.764">  7  8 -1 -1</clus>
<clus scale="  105.803">  2  5  1 -1</clus>
<clus scale="   44.634">  1  5  2 -1</clus>
</clustering>
</event>
<event>
10    4  0.2977685E-005  0.1191209E+03  0.7546771E-02  0.1249682E+00
         21   -1    0    0  501  502  0.00000000000E+00  0.00000000000E+00  0.99015547991E+02  0.99015547991E+02  0.00000000000E+00 0.  1.
          2   -1    0    0  503    0 -0.00000000000E+00 -0.00000000000E+00 -0.32826740021E+03  0.32826740021E+03  0.00000000000E+00 0. -1.
         23    2    1    2    0    0  0.53362184806E+02 -0.44467592965E+02 -0.11157268958E+03  0.16302779407E+03  0.96460909113E+02 0.  0.
         24    2    1    2    0    0  0.13377620601E+01  0.10071575862E+03 -0.21910664849E+02  0.13149324537E+03  0.81639100327E+02 0.  0.
        -13    1    4    4    0    0  0.14216287199E+02  0.10938891192E+03 -0.79195718894E+01  0.11059275063E+03  0.00000000000E+00 0.  1.
         14    1    4    4    0    0 -0.12878525139E+02 -0.86731533056E+01 -0.13991092960E+02  0.20900494736E+02  0.00000000000E+00 0. -1.
        -13    1    3    3    0    0  0.46309089726E+02  0.12447007169E+02 -0.89576660297E+02  0.10160432003E+03  0.00000000000E+00 0. -1.
         13    1    3    3    0    0  0.70530950807E+01 -0.56914600134E+02 -0.21996029283E+02  0.61423474037E+02  0.00000000000E+00 0.  1.
         21    1    1    2  503  502 -0.26729912690E+02 -0.42231853671E+01 -0.54054961775E+02  0.60450495611E+02  0.00000000000E+00 0. -1.
          1    1    1    2  501    0 -0.27970034177E+02 -0.52024980287E+02 -0.41713536016E+02  0.72311413157E+02  0.00000000000E+00 0. -1.
<scales pt_clust_5="13000.00000" pt_clust_6="13000.00000" pt_clust_7="13000.00000" pt_clust_8="13000.00000" pt_clust_9="27.06148" pt_clust_10="62.67639"></scales>
<clustering>
<clus scale="   27.061">  2  9  1 -1</clus>
<clus scale="   62.676">  1 10  2 -1</clus>
<clus scale="   81.639">  5  6 -1 -1</clus>
<clus scale="   96.461">  7  8 -1 -1</clus>
<clus scale="  107.471">  1  5  2 -1</clus>
<clus scale="   62.676">  1  5  2 -1</clus>
</clustering>
</event>
<event>
10    4  0.2977685E-005  0.2125225E+03  0.7546771E-02  0.1165235E+00
          2   -1    0    0  503    0 -0.00000000000E+00  0.00000000000E+00  0.79880751368E+03  0.79880751368E+03  0.00000000000E+00 0. -1.
         21   -1    0    0  501  502  0.00000000000E+00 -0.00000000000E+00 -0.15661689512E+03  0.15661689512E+03  0.00000000000E+00 0.  1.
         24    2    1    2    0    0 -0.54899750238E+02 -0.13373595791E+03 -0.36123968872E+02  0.17018371814E+03  0.82208684332E+02 0.  0.
         23    2    1    2    0    0 -0.48959104397E+02 -0.55841900709E+02  0.92593678156E+02  0.14881173602E+03  0.89755399647E+02 0.  0.
        -11    1    3    3    0    0 -0.38006664826E+02 -0.12145188026E+03 -0.58073533286E+02  0.13988424164E+03  0.00000000000E+00 0.  1.
         12    1    3    3    0    0 -0.16893085411E+02 -0.12284077644E+02  0.21949564414E+02  0.30299476501E+02  0.00000000000E+00 0. -1.
        -13    1    4    4    0    0 -0.72034347762E+02 -0.21658703198E+02  0.58090495990E+02  0.95039741194E+02  0.00000000000E+00 0.  1.
         13    1    4    4    0    0  0.23075243365E+02 -0.34183197511E+02  0.34503182166E+02  0.53771994830E+02  0.00000000000E+00 0. -1.
         21    1    1    2  503  502  0.12525192389E+03  0.16365526939E+03  0.55018828981E+03  0.58751871960E+03  0.00000000000E+00 0. -1.
          1    1    1    2  501    0 -0.21393069255E+02  0.25922589227E+02  0.35532619471E+02  0.48910235031E+02  0.00000000000E+00 0. -1.
<scales pt_clust_5="13000.00000" pt_clust_6="13000.00000" pt_clust_7="13000.00000" pt_clust_8="13000.00000" pt_clust_9="195.97842" pt_clust_10="33.61019"></scales>
<clustering>
<clus scale="   33.610">  2 10  1 -1</clus>
<clus scale="   82.209">  5  6 -1 -1</clus>
<clus scale="   89.755">  7  8 -1 -1</clus>
<clus scale="  116.022">  2  7  1 -1</clus>
<clus scale="  195.978">  1  9  2 -1</clus>
<clus scale="   33.610">  2  5  1 -1</clus>
</clustering>
</event>
<event>
10    4  0.2977685E-005  0.1890875E+03  0.7546771E-02  0.1179343E+00
          2   -1    0    0  503    0 -0.00000000000E+00  0.00000000000E+00  0.21358132469E+03  0.21358132469E+03  0.00000000000E+00 0. -1.
         21   -1    0    0  501  502  0.00000000000E+00 -0.00000000000E+00 -0.52758496211E+03  0.52758496211E+03  0.00000000000E+00 0.  1.
         23    2    1    2    0    0 -0.57552880463E+02 -0.51561720697E+02 -0.18458097701E+03  0.21958984669E+03  0.90435715321E+02 0.  0.
         24    2    1    2    0    0  0.16778334817E+03 -0.10755491457E+03 -0.45167533388E+02  0.22088765816E+03  0.83856662732E+02 0.  0.
        -11    1    4    4    0    0  0.45317929626E+02 -0.75986078257E+02 -0.30441571050E+02  0.93564352627E+02  0.00000000000E+00 0.  1.
         12    1    4    4    0    0  0.12246541855E+03 -0.31568836310E+02 -0.14725962338E+02  0.12732330554E+03  0.00000000000E+00 0. -1.
        -11    1    3    3    0    0 -0.46295223574E+02  0.13692923074E+02 -0.49464260001E+02  0.69119149919E+02  0.00000000000E+00 0. -1.
         11    1    3    3    0    0 -0.11257656889E+02 -0.65254643771E+02 -0.13511671701E+03  0.15047069677E+03  0.00000000000E+00 0.  1.
         21    1    1    2  503  502 -0.25142607402E+02  0.20122133925E+02  0.69523083277E+02  0.76619254036E+02  0.00000000000E+00 0. -1.
          1    1    1    2  501    0 -0.85087860308E+02  0.13899450134E+03 -0.15377821030E+03  0.22406952791E+03  0.00000000000E+00 0. -1.
<scales pt_clust_5="13000.00000" pt_clust_6="13000.00000" pt_clust_7="13000.00000" pt_clust_8="13000.00000" pt_clust_9="32.20328" pt_clust_10="169.47606"></scales>
<clustering>
<clus scale="   32.203">  1  9  2 -1</clus>
<clus scale="   83.857">  5  6 -1 -1</clus>
<clus scale="   90.436">  7  8 -1 -1</clus>
<clus scale="  119.447">  1  7  2 -1</clus>
<clus scale="  169.476">  2 10  1 -1</clus>
<clus scale="  169.476">  2  5  1 -1</clus>
</clustering>
</event>
<event>
10    4  0.2977685E-005  0.1884371E+03  0.7546771E-02  0.1179885E+00
          2   -1    0    0  503    0 -0.00000000000E+00  0.00000000000E+00  0.19426168338E+03  0.19426168338E+03  0.00000000000E+00 0. -1.
         21   -1    0    0  501  502  0.00000000000E+00 -0.00000000000E+00 -0.10210807499E+04  0.10210807499E+04  0.00000000000E+00 0.  1.
         23    2    1    2    0    0  0.64898163609E+02  0.42405661501E+02 -0.52276051872E+03  0.53599180507E+03  0.89435135214E+02 0.  0.
         24    2    1    2    0    0  0.24408559489E+02 -0.15295064863E+03 -0.24930315692E+03  0.30428534690E+03  0.80298378524E+02 0.  0.
        -11    1    4    4    0    0  0.79827125029E+01 -0.79318356272E+02 -0.19690849270E+03  0.21243370693E+03  0.00000000000E+00 0.  1.
         12    1    4    4    0    0  0.16425846986E+02 -0.73632292355E+02 -0.52394664223E+02  0.91851639973E+02  0.00000000000E+00 0. -1.
        -11    1    3    3    0    0 -0.18405688361E+02  0.25402372335E+02 -0.18823710035E+03  0.19083305749E+03  0.00000000000E+00 0. -1.
         11    1    3    3    0    0  0.83303851971E+02  0.17003289166E+02 -0.33452341837E+03  0.34515874758E+03  0.00000000000E+00 0.  1.
         21    1    1    2  503  502  0.79115438797E+02 -0.79745991500E+02  0.10142466592E+02  0.11278982864E+03  0.00000000000E+00 0.  1.
          1    1    1    2  501    0 -0.16842216190E+03  0.19029097863E+03 -0.64897857471E+02  0.26227545266E+03  0.00000000000E+00 0. -1.
<scales pt_clust_5="13000.00000" pt_clust_6="13000.00000" pt_clust_7="13000.00000" pt_clust_8="13000.00000" pt_clust_9="112.33288" pt_clust_10="170.47208"></scales>
<clustering>
<clus scale="   80.298">  5  6 -1 -1</clus>
<clus scale="   89.435">  7  8 -1 -1</clus>
<clus scale="  112.333">  1  9  2 -1</clus>
<clus scale="  119.225">  1  7  2 -1</clus>
<clus scale="  170.472">  2 10  1 -1</clus>
<clus scale="  170.472">  2  5  1 -1</clus>
</clustering>
</event>
<event>
10    4  0.2977685E-005  0.1141366E+03  0.7546771E-02  0.1255430E+00
         21   -1    0    0  501  502  0.00000000000E+00  0.00000000000E+00  0.22276120218E+03  0.22276120218E+03  0.00000000000E+00 0. -1.
          2   -1    0    0  503    0 -0.00000000000E+00 -0.00000000000E+00 -0.76736481135E+03  0.76736481135E+03  0.00000000000E+00 0. -1.
         24    2    1    2    0    0  0.61694288105E+02  0.22103026424E+02 -0.31656182767E+03  0.33422816193E+03  0.84866627905E+02 0.  0.
         23    2    1    2    0    0  0.12617396033E+02  0.17847368147E+01  0.68200168659E+02  0.11475268832E+03  0.91403131805E+02 0.  0.
        -13    1    3    3    0    0  0.18941321839E+02 -0.27312472254E+02 -0.51989425250E+02  0.61706119238E+02  0.00000000000E+00 0.  1.
         14    1    3    3    0    0  0.42752966266E+02  0.49415498678E+02 -0.26457240242E+03  0.27252204269E+03  0.00000000000E+00 0. -1.
        -13    1    4    4    0    0  0.22635393611E+02  0.35786268690E+02  0.67032698072E+02  0.79286825397E+02  0.00000000000E+00 0. -1.
         13    1    4    4    0    0 -0.10017997578E+02 -0.34001531876E+02  0.11674705864E+01  0.35465862924E+02  0.00000000000E+00 0.  1.
         21    1    1    2  503  502 -0.29269786546E+02  0.56953817968E+02 -0.39827841957E+03  0.40339330346E+03  0.00000000000E+00 0. -1.
          1    1    1    2  501    0 -0.45041897591E+02 -0.80841581206E+02  0.10203646941E+03  0.13775185981E+03  0.00000000000E+00 0. -1.
<scales pt_clust_5="13000.00000" pt_clust_6="13000.00000" pt_clust_7="13000.00000" pt_clust_8="13000.00000" pt_clust_9="64.03482" pt_clust_10="90.84979"></scales>
<clustering>
<clus scale="   64.035">  2  9  1 -1</clus>
<clus scale="   84.867">  5  6 -1 -1</clus>
<clus scale="   90.850">  1 10  2 -1</clus>
<clus scale="   91.403">  7  8 -1 -1</clus>
<clus scale="  108.972">  2  5  1 -1</clus>
<clus scale="   90.850">  1  5  2 -1</clus>
</clustering>
</event>
<event>
10    4  0.2977685E-005  0.1758476E+03  0.7546771E-02  0.1173121E+00
          4   -1    0    0  503    0 -0.00000000000E+00  0.00000000000E+00  0.17784508891E+03  0.17784508891E+03  0.00000000000E+00 0. -1.
         21   -1    0    0  501  502  0.00000000000E+00 -0.00000000000E+00 -0.40088624342E+03  0.40088624342E+03  0.00000000000E+00 0. -1.
         23    2    1    2    0    0 -0.16128012221E+02  0.12631888127E+03 -0.32329504529E+02  0.15942719444E+03  0.90306483261E+02 0.  0.
         24    2    1    2    0    0  0.13854908944E+03 -0.14315795916E+03 -0.62907617030E+02  0.22384636593E+03  0.80372730498E+02 0.  0.
        -11    1    4    4    0    0  0.46399852417E+01 -0.52380857884E+02 -0.91887293748E+01  0.53382735816E+02  0.00000000000E+00 0.  1.
         12    1    4    4    0    0  0.13390910420E+03 -0.90777101272E+02 -0.53718887655E+02  0.17046363012E+03  0.00000000000E+00 0. -1.
        -13    1    3    3    0    0 -0.25803503329E+02  0.51256989143E+02  0.26847487234E+02  0.63355246750E+02  0.00000000000E+00 0.  1.
         13    1    3    3    0    0  0.96754911084E+01  0.75061892127E+02 -0.59176991763E+02  0.96071947685E+02  0.00000000000E+00 0. -1.
         21    1    1    2  503  502 -0.36649506246E+02 -0.28390240668E+01  0.40002868890E+01  0.36976325682E+02  0.00000000000E+00 0. -1.
          3    1    1    2  501    0 -0.85771570972E+02  0.19678101952E+02 -0.13180431984E+03  0.15848144627E+03  0.00000000000E+00 0. -1.
<scales pt_clust_5="13000.00000" pt_clust_6="13000.00000" pt_clust_7="13000.00000" pt_clust_8="13000.00000" pt_clust_9="36.75930" pt_clust_10="90.97885"></scales>
<clustering>
<clus scale="   36.759">  1  9  2 -1</clus>
<clus scale="   80.373">  5  6 -1 -1</clus>
<clus scale="   90.306">  7  8 -1 -1</clus>
<clus scale="   90.979">  2 10  1 -1</clus>
<clus scale="  170.959">  2  5  1 -1</clus>
<clus scale="   90.979">  2  5  1 -1</clus>
</clustering>
</event>
<event>
10    4  0.2977685E-005  0.2527187E+03  0.7546771E-02  0.1112201E+00
          2   -1    0    0  502    0 -0.00000000000E+00  0.00000000000E+00  0.28975126432E+03  0.28975126432E+03  0.00000000000E+00 0. -1.
         21   -1    0    0  503  502  0.00000000000E+00 -0.00000000000E+00 -0.41844676185E+03  0.41844676185E+03  0.00000000000E+00 0. -1.
         23    2    1    2    0    0  0.12792214335E+03  0.15852426010E+03  0.39104476164E+02  0.22634323190E+03  0.90598470027E+02 0.  0.
         24    2    1    2    0    0 -0.22893569001E+03 -0.21894839014E+03 -0.11450920456E+03  0.34604688970E+03  0.79285208212E+02 0.  0.
        -11    1    4    4    0    0 -0.12661023472E+03 -0.73219630070E+02 -0.31631600714E+02  0.14963897864E+03  0.00000000000E+00 0.  1.
         12    1    4    4    0    0 -0.10232545529E+03 -0.14572876007E+03 -0.82877603842E+02  0.19640791106E+03  0.00000000000E+00 0. -1.
        -13    1    3    3    0    0  0.97801379853E+02  0.51504378030E+02  0.31356217245E+02  0.11489570583E+03  0.00000000000E+00 0.  1.
         13    1    3    3    0    0  0.30120763499E+02  0.10701988207E+03  0.77482589185E+01  0.11144752607E+03  0.00000000000E+00 0. -1.
         21    1    1    2  503  501  0.28758161580E+02  0.24029884023E+02  0.24578686476E+01  0.37556734441E+02  0.00000000000E+00 0. -1.
          1    1    1    2  501    0  0.72255385076E+02  0.36394246017E+02 -0.55748637794E+02  0.98251170128E+02  0.00000000000E+00 0. -1.
<scales pt_clust_5="13000.00000" pt_clust_6="13000.00000" pt_clust_7="13000.00000" pt_clust_8="13000.00000" pt_clust_9="28.46411" pt_clust_10="124.91549"></scales>
<clustering>
<clus scale="   28.464">  9 10 -1 -1</clus>
<clus scale="   79.285">  5  6 -1 -1</clus>
<clus scale="   90.598">  7  8 -1 -1</clus>
<clus scale="  124.915">  2  9  1 -1</clus>
<clus scale="  248.887">  2  5  1 -1</clus>
<clus scale="  124.915">  2  5  1 -1</clus>
</clustering>
</event>
<event>
10    4  0.2977685E-005  0.1089551E+03  0.7546771E-02  0.1266607E+00
         -1   -1    0    0    0  501 -0.00000000000E+00  0.00000000000E+00  0.75686763968E+03  0.75686763968E+03  0.00000000000E+00 0.  1.
         21   -1    0    0  503  502  0.00000000000E+00 -0.00000000000E+00 -0.54131710730E+02  0.54131710730E+02  0.00000000000E+00 0. -1.
         24    2    1    2    0    0  0.18759515250E+02  0.44687681683E+02  0.21258565295E+03  0.23135322058E+03  0.77348203126E+02 0.  0.
         23    2    1    2    0    0 -0.51155886441E+02 -0.86045759468E+02  0.88399058836E+02  0.15990261329E+03  0.87941200213E+02 0.  0.
        -13    1    3    3    0    0  0.43104867587E+02  0.49792683986E+01  0.83127860582E+02  0.93771338523E+02  0.00000000000E+00 0.  1.
         14    1    3    3    0    0 -0.24345352337E+02  0.39708413284E+02  0.12945779236E+03  0.13758188205E+03  0.00000000000E+00 0. -1.
        -13    1    4    4    0    0 -0.57909130118E+02 -0.54772400299E+02  0.16771169940E+02  0.81454007432E+02  0.00000000000E+00 0. -1.
         13    1    4    4    0    0  0.67532436767E+01 -0.31273359169E+02  0.71627888896E+02  0.78448605861E+02  0.00000000000E+00 0.  1.
         21    1    1    2  503  501 -0.39081058379E+02  0.28952195638E+02  0.17801722204E+03  0.18454183835E+03  0.00000000000E+00 0. -1.
         -2    1    1    2    0  502  0.71477429570E+02  0.12405882147E+02  0.22373399512E+03  0.23520167819E+03  0.00000000000E+00 0.  1.
<scales pt_clust_5="13000.00000" pt_clust_6="13000.00000" pt_clust_7="13000.00000" pt_clust_8="13000.00000" pt_clust_9="48.63701" pt_clust_10="60.81123"></scales>
<clustering>
<clus scale="   48.637">  1  9  2 -1</clus>
<clus scale="   60.811">  2 10  1 -1</clus>
<clus scale="   77.348">  5  6 -1 -1</clus>
<clus scale="   87.941">  7  8 -1 -1</clus>
<clus scale="  100.600">  1  5  2 -1</clus>
<clus scale="   60.811">  2  5  1 -1</clus>
</clustering>
</event>
<event>
10    4  0.2977685E-005  0.2886084E+03  0.7546771E-02  0.1091463E+00
         -3   -1    0    0    0  501 -0.00000000000E+00  0.00000000000E+00  0.16239368446E+04  0.16239368446E+04  0.00000000000E+00 0.  1.
         21   -1    0    0  503  502  0.00000000000E+00 -0.00000000000E+00 -0.10573203722E+03  0.10573203722E+03  0.00000000000E+00 0. -1.
         24    2    1    2    0    0  0.29918404506E+03 -0.57909717621E+02  0.88983699372E+03  0.94406135855E+03  0.81100832889E+02 0.  0.
         23    2    1    2    0    0 -0.27202775126E+03 -0.65684549429E+02  0.27993379442E+03  0.40611479004E+03  0.90844570226E+02 0.  0.
        -11    1    3    3    0    0  0.21081627631E+03 -0.73213816268E+02  0.68543507713E+03  0.72085019957E+03  0.00000000000E+00 0.  1.
         12    1    3    3    0    0  0.88367768750E+02  0.15304098647E+02  0.20440191659E+03  0.22321115898E+03  0.00000000000E+00 0. -1.
        -11    1    4    4    0    0 -0.52555621667E+02 -0.45855708029E+02  0.40271716959E+02  0.80539744937E+02  0.00000000000E+00 0.  1.
         11    1    4    4    0    0 -0.21947212959E+03 -0.19828841399E+02  0.23966207746E+03  0.32557504510E+03  0.00000000000E+00 0. -1.
         21    1    1    2  503  501 -0.46825132855E+02  0.76779425173E+02  0.15209359601E+03  0.17669220454E+03  0.00000000000E+00 0.  1.
         -4    1    1    2    0  502  0.19668839049E+02  0.46814841876E+02  0.19634042323E+03  0.20280052871E+03  0.00000000000E+00 0.  1.
<scales pt_clust_5="13000.00000" pt_clust_6="13000.00000" pt_clust_7="13000.00000" pt_clust_8="13000.00000" pt_clust_9="93.62890" pt_clust_10="50.77889"></scales>
<clustering>
<clus scale="   50.779">  2 10  1 -1</clus>
<clus scale="   81.101">  5  6 -1 -1</clus>
<clus scale="   90.845">  7  8 -1 -1</clus>
<clus scale="   93.629">  1  9  2 -1</clus>
<clus scale="  285.691">  1  5  2 -1</clus>
<clus scale="   50.779">  2  5  1 -1</clus>
</clustering>
</event>
<event>
10    4  0.2977685E-005  0.1621636E+03  0.7546771E-02  0.1202012E+00
         21   -1    0    0  501  502  0.00000000000E+00  0.00000000000E+00  0.49502536798E+03  0.49502536798E+03  0.00000000000E+00 0. -1.
          2   -1    0    0  503    0 -0.00000000000E+00 -0.00000000000E+00 -0.20729554759E+03  0.20729554759E+03  0.00000000000E+00 0. -1.
         24    2    1    2    0    0  0.62810924419E+02 -0.30554468992E+02  0.20127896854E+03  0.23209324303E+03  0.92061188797E+02 0.  0.
         23    2    1    2    0    0  0.22212782444E+02  0.98528680084E+02 -0.57393342984E+01  0.13631696146E+03  0.91367748799E+02 0.  0.
        -13    1    3    3    0    0  0.24717776127E+01 -0.47624750179E+02  0.12215506313E+03  0.13113384751E+03  0.00000000000E+00 0.  1.
         14    1    3    3    0    0  0.60339146807E+02  0.17070281187E+02  0.79123905413E+02  0.10095939553E+03  0.00000000000E+00 0. -1.
        -11    1    4    4    0    0 -0.31157760307E+02  0.30059242537E+02  0.17102159649E+02  0.46549414110E+02  0.00000000000E+00 0.  1.
         11    1    4    4    0    0  0.53370542751E+02  0.68469437546E+02 -0.22841493948E+02  0.89767547350E+02  0.00000000000E+00 0. -1.
         21    1    1    2  503  502  0.10570599870E+02  0.47559383555E+02 -0.87330081968E+02  0.10000087881E+03  0.00000000000E+00 0. -1.
          1    1    1    2  501    0 -0.95594306733E+02 -0.11553359465E+03  0.17952026811E+03  0.23390983227E+03  0.00000000000E+00 0. -1.
<scales pt_clust_5="13000.00000" pt_clust_6="13000.00000" pt_clust_7="13000.00000" pt_clust_8="13000.00000" pt_clust_9="48.71994" pt_clust_10="133.97373"></scales>
<clustering>
<clus scale="   48.720">  2  9  1 -1</clus>
<clus scale="   91.368">  7  8 -1 -1</clus>
<clus scale="   92.061">  5  6 -1 -1</clus>
<clus scale="  114.820">  2  5  1 -1</clus>
<clus scale="  133.974">  1 10  2 -1</clus>
<clus scale="  133.974">  1  5  2 -1</clus>
</clustering>
</event>
<event>
10    4  0.2977685E-005  0.1359550E+03  0.7546771E-02  0.1220249E+00
          2   -1    0    0  503    0 -0.00000000000E+00  0.00000000000E+00  0.23553206550E+03  0.23553206550E+03  0.00000000000E+00 0. -1.
         21   -1    0    0  501  502  0.00000000000E+00 -0.00000000000E+00 -0.24945503565E+03  0.24945503565E+03  0.00000000000E+00 0. -1.
         24    2    1    2    0    0 -0.17747929153E+02  0.78763123218E+02  0.11339856715E+03  0.16201763130E+03  0.82896678160E+02 0.  0.
         23    2    1    2    0    0  0.20781328162E+02 -0.12233962779E+03 -0.34729775478E+01  0.15270209710E+03  0.88921430251E+02 0.  0.
        -11    1    3    3    0    0  0.29098556700E+02  0.21540319842E+02  0.15639039076E+02  0.39437176929E+02  0.00000000000E+00 0.  1.
         12    1    3    3    0    0 -0.46846485852E+02  0.57222803376E+02  0.97759528077E+02  0.12258045437E+03  0.00000000000E+00 0. -1.
        -11    1    4    4    0    0  0.13851714696E+02 -0.43055806691E+02 -0.44252337797E+02  0.63276708909E+02  0.00000000000E+00 0.  1.
         11    1    4    4    0    0  0.69296134661E+01 -0.79283821101E+02  0.40779360250E+02  0.89425388193E+02  0.00000000000E+00 0. -1.
         21    1    1    2  503  502  0.11287432486E+02  0.27011276858E+02  0.12745674198E+02  0.31929099899E+02  0.00000000000E+00 0. -1.
          1    1    1    2  501    0 -0.14320831495E+02  0.16565227716E+02 -0.13659423396E+03  0.13833827285E+03  0.00000000000E+00 0. -1.
<scales pt_clust_5="13000.00000" pt_clust_6="13000.00000" pt_clust_7="13000.00000" pt_clust_8="13000.00000" pt_clust_9="30.15775" pt_clust_10="21.89733"></scales>
<clustering>
<clus scale="   21.897">  2 10  1 -1</clus>
<clus scale="   30.158">  1  9  2 -1</clus>
<clus scale="   82.897">  5  6 -1 -1</clus>
<clus scale="   88.921">  7  8 -1 -1</clus>
<clus scale="  132.093">  1  5  2 -1</clus>
<clus scale="   21.897">  2  5  1 -1</clus>
</clustering>
</event>
<event>
10    4  0.2977685E-005  0.1227627E+03  0.7546771E-02  0.1241450E+00
          4   -1    0    0  503    0 -0.00000000000E+00  0.00000000000E+00  0.10386882473E+04  0.10386882473E+04  0.00000000000E+00 0. -1.
         21   -1    0    0  501  502  0.00000000000E+00 -0.00000000000E+00 -0.38767088852E+02  0.38767088852E+02  0.00000000000E+00 0.  1.
         24    2    1    2    0    0  0.76026408144E+01  0.57760254540E+02  0.31102245907E+03  0.32665510419E+03  0.81083536558E+02 0.  0.
         23    2    1    2    0    0  0.32135956271E+02 -0.85604818205E+02  0.12628366164E+03  0.18034955876E+03  0.90650402994E+02 0.  0.
        -13    1    3    3    0    0  0.44480533381E+02  0.29644334002E+02  0.16943059064E+03  0.17766268442E+03  0.00000000000E+00 0.  1.
         14    1    3    3    0    0 -0.36877892566E+02  0.28115920538E+02  0.14159186842E+03  0.14899241978E+03  0.00000000000E+00 0. -1.
        -13    1    4    4    0    0 -0.25234474115E+02 -0.52995594550E+02  0.37221028717E+02  0.69503357504E+02  0.00000000000E+00 0. -1.
         13    1    4    4    0    0  0.57370430386E+02 -0.32609223656E+02  0.89062632926E+02  0.11084620126E+03  0.00000000000E+00 0.  1.
         21    1    1    2  503  502 -0.49403831140E+02  0.48842092610E+02  0.46339828604E+03  0.46857684540E+03  0.00000000000E+00 0. -1.
          3    1    1    2  501    0  0.96652340546E+01 -0.20997528945E+02  0.99216751661E+02  0.10187382775E+03  0.00000000000E+00 0. -1.
<scales pt_clust_5="13000.00000" pt_clust_6="13000.00000" pt_clust_7="13000.00000" pt_clust_8="13000.00000" pt_clust_9="67.97748" pt_clust_10="23.11522"></scales>
<clustering>
<clus scale="   23.115">  2 10  1 -1</clus>
<clus scale="   67.977">  1  9  2 -1</clus>
<clus scale="   81.084">  5  6 -1 -1</clus>
<clus scale="   90.650">  7  8 -1 -1</clus>
<clus scale="  115.878">  1  5  2 -1</clus>
<clus scale="   23.115">  2  5  1 -1</clus>
</clustering>
</event>
<event>
10    4  0.2977685E-005  0.4900314E+03  0.7546771E-02  0.1058042E+00
         21   -1    0    0  501  502  0.00000000000E+00  0.00000000000E+00  0.70999592898E+03  0.70999592898E+03  0.00000000000E+00 0. -1.
          2   -1    0    0  503    0 -0.00000000000E+00 -0.00000000000E+00 -0.15123425080E+04  0.15123425080E+04  0.00000000000E+00 0. -1.
         24    2    1    2    0    0  0.12190989689E+03  0.42541954211E+01 -0.10262079741E+04  0.10364095089E+04  0.78496769551E+02 0.  0.
         23    2    1    2    0    0  0.23886797899E+03  0.33125560577E+03 -0.81998001034E+02  0.42634914452E+03  0.90894076342E+02 0.  0.
        -13    1    3    3    0    0  0.39682413190E+02 -0.27895235740E+02 -0.21460719681E+03  0.22002065134E+03  0.00000000000E+00 0.  1.
         14    1    3    3    0    0  0.82227483701E+02  0.32149431161E+02 -0.81160077732E+03  0.81638885756E+03  0.00000000000E+00 0. -1.
        -13    1    4    4    0    0  0.66145119010E+02  0.15188597208E+03 -0.51295372290E+01  0.16574328775E+03  0.00000000000E+00 0.  1.
         13    1    4    4    0    0  0.17272285998E+03  0.17936963369E+03 -0.76868463805E+02  0.26060585676E+03  0.00000000000E+00 0. -1.
         21    1    1    2  503  502 -0.83896778195E+01  0.46084761419E+02 -0.93372210917E+02  0.10446320740E+03  0.00000000000E+00 0. -1.
          1    1    1    2  501    0 -0.35238819807E+03 -0.38159456261E+03  0.39923160702E+03  0.65511657619E+03  0.00000000000E+00 0. -1.
<scales pt_clust_5="13000.00000" pt_clust_6="13000.00000" pt_clust_7="13000.00000" pt_clust_8="13000.00000" pt_clust_9="46.84220" pt_clust_10="481.52780"></scales>
<clustering>
<clus scale="   46.842">  2  9  1 -1</clus>
<clus scale="   78.497">  5  6 -1 -1</clus>
<clus scale="   90.894">  7  8 -1 -1</clus>
<clus scale="  144.926">  2  5  1 -1</clus>
<clus scale="  481.528">  1 10  2 -1</clus>
<clus scale="  481.528">  1  5  2 -1</clus>
</clustering>
</event>
<event>
10    4  0.2977685E-005  0.1219598E+03  0.7546771E-02  0.1245114E+00
         21   -1    0    0  503  502  0.00000000000E+00  0.00000000000E+00  0.37546396684E+03  0.37546396684E+03  0.00000000000E+00 0. -1.
         -3   -1    0    0    0  501 -0.00000000000E+00 -0.00000000000E+00 -0.13533190089E+03  0.13533190089E+03  0.00000000000E+00 0.  1.
         23    2    1    2    0    0 -0.53963980532E+02 -0.60207360173E+02 -0.72913992892E+02  0.14587236802E+03  0.97083778142E+02 0.  0.
         24    2    1    2    0    0  0.25658897571E+02  0.44084428406E+02  0.11095010188E+03  0.14665587214E+03  0.81217017156E+02 0.  0.
        -13    1    4    4    0    0  0.61311790972E+00  0.62223236962E+02  0.56564537750E+02  0.84093127320E+02  0.00000000000E+00 0.  1.
         14    1    4    4    0    0  0.25045779661E+02 -0.18138808556E+02  0.54385564126E+02  0.62562744825E+02  0.00000000000E+00 0. -1.
        -13    1    3    3    0    0 -0.36540006382E+02 -0.75947962824E+02 -0.84796163261E+02  0.11955607231E+03  0.00000000000E+00 0.  1.
         13    1    3    3    0    0 -0.17423974150E+02  0.15740602651E+02  0.11882170369E+02  0.26316295706E+02  0.00000000000E+00 0. -1.
         21    1    1    2  503  501  0.15338592891E+02 -0.13927198048E+02  0.92933822409E+01  0.22706964369E+02  0.00000000000E+00 0.  1.
         -4    1    1    2    0  502  0.12966490070E+02  0.30050129815E+02  0.19280257472E+03  0.19556066319E+03  0.00000000000E+00 0.  1.
<scales pt_clust_5="13000.00000" pt_clust_6="13000.00000" pt_clust_7="13000.00000" pt_clust_8="13000.00000" pt_clust_9="20.71809" pt_clust_10="32.65701"></scales>
<clustering>
<clus scale="   20.718">  2  9  1 -1</clus>
<clus scale="   32.657">  1 10  2 -1</clus>
<clus scale="   81.217">  5  6 -1 -1</clus>
<clus scale="   97.084">  7  8 -1 -1</clus>
<clus scale="  109.750">  1  5  2 -1</clus>
<clus scale="   32.657">  1  5  2 -1</clus>
</clustering>
</event>
<event>
10    4  0.2977685E-005  0.2270642E+03  0.7546771E-02  0.1170508E+00
         21   -1    0    0  503  502  0.00000000000E+00  0.00000000000E+00  0.36519844215E+03  0.36519844215E+03  0.00000000000E+00 0.  1.
         -1   -1    0    0    0  501 -0.00000000000E+00 -0.00000000000E+00 -0.96998667406E+03  0.96998667406E+03  0.00000000000E+00 0.  1.
         23    2    1    2    0    0  0.18519705248E+03 -0.42412041078E+02 -0.97779035344E+02  0.24194276868E+03  0.11348495094E+03 0.  0.
         24    2    1    2    0    0  0.35789736325E+02 -0.66446198368E+01  0.11029814165E+03  0.14088778952E+03  0.79741037020E+02 0.  0.
        -13    1    4    4    0    0  0.54870729589E+01  0.26071147309E+02  0.57912764823E+01  0.27264474595E+02  0.00000000000E+00 0.  1.
         14    1    4    4    0    0  0.30302663366E+02 -0.32715767146E+02  0.10450686517E+03  0.11362331492E+03  0.00000000000E+00 0. -1.
        -13    1    3    3    0    0  0.17732817754E+03 -0.67346534156E+02 -0.66113799500E+02  0.20087775560E+03  0.00000000000E+00 0. -1.
         13    1    3    3    0    0  0.78688749389E+01  0.24934493078E+02 -0.31665235845E+02  0.41065013076E+02  0.00000000000E+00 0.  1.
         21    1    1    2  503  501 -0.18211385963E+03  0.78484019334E+02 -0.76840719350E+03  0.79358352691E+03  0.00000000000E+00 0.  1.
         -2    1    1    2    0  502 -0.38872929175E+02 -0.29427358419E+02  0.15109985529E+03  0.15877103110E+03  0.00000000000E+00 0.  1.
<scales pt_clust_5="13000.00000" pt_clust_6="13000.00000" pt_clust_7="13000.00000" pt_clust_8="13000.00000" pt_clust_9="196.67058" pt_clust_10="48.75525"></scales>
<clustering>
<clus scale="   48.755">  1 10  2 -1</clus>
<clus scale="   79.741">  5  6 -1 -1</clus>
<clus scale="   84.281">  1  5  2 -1</clus>
<clus scale="  113.485">  7  8 -1 -1</clus>
<clus scale="  196.671">  2  9  1 -1</clus>
<clus scale="   48.755">  1  5  2 -1</clus>
</clustering>
</event>
<event>
10    4  0.2977685E-005  0.1720171E+03  0.7546771E-02  0.1176956E+00
         -1   -1    0    0    0  501 -0.00000000000E+00  0.00000000000E+00  0.41176732627E+03  0.41176732627E+03  0.00000000000E+00 0.  1.
         21   -1    0    0  503  502  0.00000000000E+00 -0.00000000000E+00 -0.24862295890E+03  0.24862295890E+03  0.00000000000E+00 0. -1.
         23    2    1    2    0    0  0.10193066482E+03 -0.91112536092E+02  0.49007029459E+02  0.17095541416E+03  0.90181539292E+02 0.  0.
         24    2    1    2    0    0 -0.13415910787E+03  0.83182443716E+02 -0.14062401322E+03  0.22642301416E+03  0.81081952856E+02 0.  0.
        -11    1    4    4    0    0 -0.17173883902E+02 -0.11673001563E+02 -0.40667733446E+02  0.45662520708E+02  0.00000000000E+00 0.  1.
         12    1    4    4    0    0 -0.11698522397E+03  0.94855445279E+02 -0.99956279776E+02  0.18076049345E+03  0.00000000000E+00 0. -1.
        -11    1    3    3    0    0  0.16421035216E+02 -0.72361274697E+02  0.91346198438E+01  0.74761258369E+02  0.00000000000E+00 0.  1.
         11    1    3    3    0    0  0.85509629604E+02 -0.18751261395E+02  0.39872409615E+02  0.96194155786E+02  0.00000000000E+00 0. -1.
         21    1    1    2  503  501  0.13154378948E+02 -0.20710496681E+02  0.53861971474E+02  0.59186774953E+02  0.00000000000E+00 0. -1.
         -2    1    1    2    0  502  0.19074064104E+02  0.28640589057E+02  0.20089937966E+03  0.20382508189E+03  0.00000000000E+00 0.  1.
<scales pt_clust_5="13000.00000" pt_clust_6="13000.00000" pt_clust_7="13000.00000" pt_clust_8="13000.00000" pt_clust_9="24.53492" pt_clust_10="31.45652"></scales>
<clustering>
<clus scale="   24.535">  1  9  2 -1</clus>
<clus scale="   31.457">  2 10  1 -1</clus>
<clus scale="   81.082">  5  6 -1 -1</clus>
<clus scale="   90.182">  7  8 -1 -1</clus>
<clus scale="  167.426">  2  5  1 -1</clus>
<clus scale="   31.457">  2  5  1 -1</clus>
</clustering>
</event>
<event>
10    4  0.2977685E-005  0.1293909E+03  0.7546771E-02  0.1230609E+00
          2   -1    0    0  502    0 -0.00000000000E+00  0.00000000000E+00  0.13296699983E+04  0.13296699983E+04  0.00000000000E+00 0. -1.
         21   -1    0    0  503  502  0.00000000000E+00 -0.00000000000E+00 -0.29078290638E+02  0.29078290638E+02  0.00000000000E+00 0. -1.
         23    2    1    2    0    0 -0.20409771168E+02 -0.81835217940E+02  0.54640781791E+03  0.56008576260E+03  0.89560015268E+02 0.  0.
         24    2    1    2    0    0 -0.32194482935E+02  0.11744366394E+03  0.35761205066E+03  0.38633155972E+03  0.80846745930E+02 0.  0.
        -11    1    4    4    0    0 -0.25844191097E+02 -0.13322776412E+01  0.45840362531E+02  0.52640630830E+02  0.00000000000E+00 0.  1.
         12    1    4    4    0    0 -0.63502918384E+01  0.11877594158E+03  0.31177168812E+03  0.33369092889E+03  0.00000000000E+00 0. -1.
        -11    1    3    3    0    0 -0.11012087988E+02  0.18830023011E+02  0.88387287185E+02  0.91039268365E+02  0.00000000000E+00 0.  1.
         11    1    3    3    0    0 -0.93976831802E+01 -0.10066524095E+03  0.45802053072E+03  0.46904649423E+03  0.00000000000E+00 0. -1.
         21    1    1    2  503  501 -0.19286673658E+02 -0.24434090554E+02  0.55956398340E+02  0.64032172204E+02  0.00000000000E+00 0. -1.
          1    1    1    2  501    0  0.71890927761E+02 -0.11174355451E+02  0.34061544077E+03  0.34829879443E+03  0.00000000000E+00 0. -1.
<scales pt_clust_5="13000.00000" pt_clust_6="13000.00000" pt_clust_7="13000.00000" pt_clust_8="13000.00000" pt_clust_9="31.12877" pt_clust_10="70.52886"></scales>
<clustering>
<clus scale="   31.129">  2  9  1 -1</clus>
<clus scale="   70.529">  2 10  1 -1</clus>
<clus scale="   80.847">  5  6 -1 -1</clus>
<clus scale="   89.560">  7  8 -1 -1</clus>
<clus scale="  123.520">  2  5  1 -1</clus>
<clus scale="   31.129">  2  5  1 -1</clus>
</clustering>
</event>
<event>
10    4  0.2977685E-005  0.1672766E+03  0.7546771E-02  0.1208606E+00
         21   -1    0    0  501  502  0.00000000000E+00  0.00000000000E+00  0.47894096965E+03  0.47894096965E+03  0.00000000000E+00 0. -1.
          2   -1    0    0  503    0 -0.00000000000E+00 -0.00000000000E+00 -0.35415006485E+03  0.35415006485E+03  0.00000000000E+00 0. -1.
         24    2    1    2    0    0  0.82505982496E+02 -0.59773759091E+02 -0.20931962389E+03  0.24617993367E+03  0.80060698034E+02 0.  0.
         23    2    1    2    0    0  0.10532658955E+03 -0.61157710608E+02  0.61451314852E+02  0.16399281352E+03  0.91013310876E+02 0.  0.
        -11    1    3    3    0    0  0.27080363844E+02 -0.67404202278E+02 -0.10300563869E+03  0.12604298550E+03  0.00000000000E+00 0.  1.
         12    1    3    3    0    0  0.55425618652E+02  0.76304431864E+01 -0.10631398520E+03  0.12013694817E+03  0.00000000000E+00 0. -1.
        -13    1    4    4    0    0  0.35965049324E+02 -0.25681969378E+02 -0.22390682855E+02  0.49541810653E+02  0.00000000000E+00 0.  1.
         13    1    4    4    0    0  0.69361540229E+02 -0.35475741229E+02  0.83841997706E+02  0.11445100287E+03  0.00000000000E+00 0. -1.
         21    1    1    2  503  502 -0.64705603084E+02  0.41740133469E+02 -0.33181844503E+02  0.83845623721E+02  0.00000000000E+00 0. -1.
          1    1    1    2  501    0 -0.12312696897E+03  0.79191336230E+02  0.30584105835E+03  0.33907266359E+03  0.00000000000E+00 0. -1.
<scales pt_clust_5="13000.00000" pt_clust_6="13000.00000" pt_clust_7="13000.00000" pt_clust_8="13000.00000" pt_clust_9="77.00035" pt_clust_10="140.34964"></scales>
<clustering>
<clus scale="   77.000">  2  9  1 -1</clus>
<clus scale="   80.061">  5  6 -1 -1</clus>
<clus scale="   90.769">  2  5  1 -1</clus>
<clus scale="   91.013">  7  8 -1 -1</clus>
<clus scale="  140.350">  1 10  2 -1</clus>
<clus scale="  140.350">  1  5  2 -1</clus>
</clustering>
</event>
<event>
10    4  0.2977685E-005  0.1210874E+03  0.7546771E-02  0.1244785E+00
         21   -1    0    0  501  502  0.00000000000E+00  0.00000000000E+00  0.33316396532E+03  0.33316396532E+03  0.00000000000E+00 0. -1.
          2   -1    0    0  503    0 -0.00000000000E+00 -0.00000000000E+00 -0.22293750731E+03  0.22293750731E+03  0.00000000000E+00 0. -1.
         24    2    1    2    0    0 -0.60648433501E+02 -0.43433274549E+01 -0.15513897807E+03  0.18538718984E+03  0.81260141908E+02 0.  0.
         23    2    1    2    0    0  0.41733648691E+02  0.22184557283E+02  0.19641456998E+03  0.22211486579E+03  0.92317269722E+02 0.  0.
        -13    1    3    3    0    0 -0.28364390442E+02  0.17960377094E+02 -0.99892824763E+01  0.35027125987E+02  0.00000000000E+00 0.  1.
         14    1    3    3    0    0 -0.32284043059E+02 -0.22303704549E+02 -0.14514969559E+03  0.15036006386E+03  0.00000000000E+00 0. -1.
        -13    1    4    4    0    0 -0.18237332092E+02  0.20677729344E+02  0.15754091696E+02  0.31754687494E+02  0.00000000000E+00 0.  1.
         13    1    4    4    0    0  0.59970980783E+02  0.15068279389E+01  0.18066047829E+03  0.19036017830E+03  0.00000000000E+00 0. -1.
         21    1    1    2  503  502 -0.14908945992E+02 -0.36999189947E+02 -0.24895165495E+02  0.47021122832E+02  0.00000000000E+00 0. -1.
          1    1    1    2  501    0  0.33823730802E+02  0.19157960120E+02  0.93846031590E+02  0.10157829417E+03  0.00000000000E+00 0. -1.
<scales pt_clust_5="13000.00000" pt_clust_6="13000.00000" pt_clust_7="13000.00000" pt_clust_8="13000.00000" pt_clust_9="38.47797" pt_clust_10="38.87251"></scales>
<clustering>
<clus scale="   38.873">  1 10  2 -1</clus>
<clus scale="   38.478">  2  9  1 -1</clus>
<clus scale="   81.260">  5  6 -1 -1</clus>
<clus scale="   92.317">  7  8 -1 -1</clus>
<clus scale="  112.884">  2  5  1 -1</clus>
<clus scale="   38.873">  1  5  2 -1</clus>
</clustering>
</event>
<event>
10    4  0.2977685E-005  0.1154970E+03  0.7546771E-02  0.1254119E+00
          2   -1    0    0  503    0 -0.00000000000E+00  0.00000000000E+00  0.64933616133E+03  0.64933616133E+03  0.00000000000E+00 0. -1.
         21   -1    0    0  501  502  0.00000000000E+00 -0.00000000000E+00 -0.61841268153E+02  0.61841268153E+02  0.00000000000E+00 0. -1.
         24    2    1    2    0    0 -0.82822820512E+02 -0.22005027639E+02  0.29945288839E+03  0.32194763911E+03  0.81451882269E+02 0.  0.
         23    2    1    2    0    0  0.16478635951E+02  0.68530843673E+02  0.64933340309E+02  0.13231976080E+03  0.91236826101E+02 0.  0.
        -11    1    3    3    0    0 -0.25313375559E+02  0.31287058336E+01  0.12862934304E+02  0.28565903824E+02  0.00000000000E+00 0.  1.
         12    1    3    3    0    0 -0.57509444953E+02 -0.25133733473E+02  0.28658995408E+03  0.29338173529E+03  0.00000000000E+00 0. -1.
        -13    1    4    4    0    0 -0.88275000187E+01  0.30133295622E+02  0.78356779376E+02  0.84414010305E+02  0.00000000000E+00 0.  1.
         13    1    4    4    0    0  0.25306135969E+02  0.38397548051E+02 -0.13423439067E+02  0.47905750494E+02  0.00000000000E+00 0. -1.
         21    1    1    2  503  502  0.20089655364E+02 -0.18159901316E+02  0.19293231376E+03  0.19482364836E+03  0.00000000000E+00 0.  1.
          1    1    1    2  501    0  0.46254529197E+02 -0.28365914719E+02  0.30176350716E+02  0.62086381209E+02  0.00000000000E+00 0. -1.
<scales pt_clust_5="13000.00000" pt_clust_6="13000.00000" pt_clust_7="13000.00000" pt_clust_8="13000.00000" pt_clust_9="27.08092" pt_clust_10="56.95802"></scales>
<clustering>
<clus scale="   27.081">  1  9  2 -1</clus>
<clus scale="   56.958">  2 10  1 -1</clus>
<clus scale="   81.452">  5  6 -1 -1</clus>
<clus scale="   91.237">  7  8 -1 -1</clus>
<clus scale="  107.934">  1  5  2 -1</clus>
<clus scale="   56.958">  2  5  1 -1</clus>
</clustering>
</event>
<event>
10    4  0.2977685E-005  0.1600734E+03  0.7546771E-02  0.1196755E+00
          2   -1    0    0  503    0 -0.00000000000E+00  0.00000000000E+00  0.84531831367E+03  0.84531831367E+03  0.00000000000E+00 0. -1.
         21   -1    0    0  501  502  0.00000000000E+00 -0.00000000000E+00 -0.63225593156E+03  0.63225593156E+03  0.00000000000E+00 0. -1.
         23    2    1    2    0    0 -0.10354624982E+03 -0.44934433712E+01  0.15412817400E+03  0.20826709562E+03  0.94221399969E+02 0.  0.
         24    2    1    2    0    0  0.54938131836E+02 -0.11698307962E+03  0.39650218228E+03  0.42472818240E+03  0.80478625260E+02 0.  0.
        -11    1    4    4    0    0 -0.12236715995E+02 -0.66427376132E+02  0.19602576975E+03  0.20733652819E+03  0.00000000000E+00 0.  1.
         12    1    4    4    0    0  0.67174847830E+02 -0.50555703489E+02  0.20047641253E+03  0.21739165421E+03  0.00000000000E+00 0. -1.
        -13    1    3    3    0    0 -0.11800287829E+03 -0.18784207666E+02  0.12709544911E+03  0.17444420003E+03  0.00000000000E+00 0. -1.
         13    1    3    3    0    0  0.14456628466E+02  0.14290764295E+02  0.27032724892E+02  0.33822895586E+02  0.00000000000E+00 0.  1.
         21    1    1    2  503  502  0.29688896281E+02 -0.16191187876E+02  0.24415648341E+03  0.24648726847E+03  0.00000000000E+00 0. -1.
          1    1    1    2  501    0  0.18919221703E+02  0.13766771087E+03 -0.58172445758E+03  0.59809169875E+03  0.00000000000E+00 0. -1.
<scales pt_clust_5="13000.00000" pt_clust_6="13000.00000" pt_clust_7="13000.00000" pt_clust_8="13000.00000" pt_clust_9="33.81694" pt_clust_10="138.37154"></scales>
<clustering>
<clus scale="   33.817">  1  9  2 -1</clus>
<clus scale="   80.479">  5  6 -1 -1</clus>
<clus scale="   94.221">  7  8 -1 -1</clus>
<clus scale="  133.833">  1  7  2 -1</clus>
<clus scale="  138.372">  2 10  1 -1</clus>
<clus scale="  138.372">  2  5  1 -1</clus>
</clustering>
</event>
<event>
10    4  0.2977685E-005  0.1514844E+03  0.7546771E-02  0.1223826E+00
         21   -1    0    0  501  502  0.00000000000E+00  0.00000000000E+00  0.36401653295E+03  0.36401653295E+03  0.00000000000E+00 0. -1.
          2   -1    0    0  503    0 -0.00000000000E+00 -0.00000000000E+00 -0.25620323770E+03  0.25620323770E+03  0.00000000000E+00 0. -1.
         24    2    1    2    0    0 -0.11025297068E+00  0.22757648236E+01 -0.79144062388E+02  0.11355965191E+03  0.81405286489E+02 0.  0.
         23    2    1    2    0    0  0.66275804458E+02 -0.55942042494E+02  0.75651151853E+02  0.14659484439E+03  0.90801746962E+02 0.  0.
        -13    1    3    3    0    0  0.20063631333E+02  0.31583787719E+02 -0.15207960390E+02  0.40390184552E+02  0.00000000000E+00 0.  1.
         14    1    3    3    0    0 -0.20173884304E+02 -0.29308022896E+02 -0.63936101999E+02  0.73169467353E+02  0.00000000000E+00 0. -1.
        -13    1    4    4    0    0  0.19431424005E+00 -0.43668691564E+02 -0.22247163026E+01  0.43725756066E+02  0.00000000000E+00 0.  1.
         13    1    4    4    0    0  0.66081490218E+02 -0.12273350930E+02  0.77875868155E+02  0.10286908833E+03  0.00000000000E+00 0. -1.
         21    1    1    2  503  502  0.36683462767E+02 -0.46222380435E+02 -0.93198740745E+02  0.11030951985E+03  0.00000000000E+00 0.  1.
          1    1    1    2  501    0 -0.10284901425E+03  0.99888658106E+02  0.20450494653E+03  0.24975575450E+03  0.00000000000E+00 0. -1.
<scales pt_clust_5="13000.00000" pt_clust_6="13000.00000" pt_clust_7="13000.00000" pt_clust_8="13000.00000" pt_clust_9="59.01004" pt_clust_10="121.25411"></scales>
<clustering>
<clus scale="   59.010">  2  9  1 -1</clus>
<clus scale="   81.405">  5  6 -1 -1</clus>
<clus scale="   88.605">  2  5  1 -1</clus>
<clus scale="   90.802">  7  8 -1 -1</clus>
<clus scale="  121.254">  1 10  2 -1</clus>
<clus scale="  121.254">  1  5  2 -1</clus>
</clustering>
</event>
<event>
10    4  0.2977685E-005  0.9079974E+02  0.7546771E-02  0.1304315E+00
         -1   -1    0    0    0  501 -0.00000000000E+00  0.00000000000E+00  0.12299930229E+03  0.12299930229E+03  0.00000000000E+00 0.  1.
         21   -1    0    0  503  502  0.00000000000E+00 -0.00000000000E+00 -0.35581170966E+03  0.35581170966E+03  0.00000000000E+00 0. -1.
         23    2    1    2    0    0  0.22430100870E+02 -0.11579023319E+02  0.52957700718E+02  0.10366918929E+03  0.85472799984E+02 0.  0.
         24    2    1    2    0    0 -0.43781494065E+02  0.24311547949E+02 -0.66920343030E+02  0.11544318703E+03  0.79629934913E+02 0.  0.
        -13    1    4    4    0    0  0.17522435452E+02 -0.13367841932E+02 -0.17617570275E+02  0.28215487316E+02  0.00000000000E+00 0.  1.
         14    1    4    4    0    0 -0.61303929517E+02  0.37679389881E+02 -0.49302772755E+02  0.87227699714E+02  0.00000000000E+00 0. -1.
        -13    1    3    3    0    0 -0.85143702922E+01  0.31189322597E+02  0.35622851468E+02  0.48106713588E+02  0.00000000000E+00 0. -1.
         13    1    3    3    0    0  0.30944471162E+02 -0.42768345915E+02  0.17334849251E+02  0.55562475704E+02  0.00000000000E+00 0.  1.
         21    1    1    2  503  501  0.12955621286E+02  0.56662423892E+02 -0.48983562728E+02  0.76012287307E+02  0.00000000000E+00 0. -1.
         -2    1    1    2    0  502  0.83957719091E+01 -0.69394948523E+02 -0.16986620233E+03  0.18368634832E+03  0.00000000000E+00 0.  1.
<scales pt_clust_5="13000.00000" pt_clust_6="13000.00000" pt_clust_7="13000.00000" pt_clust_8="13000.00000" pt_clust_9="58.12468" pt_clust_10="38.79171"></scales>
<clustering>
<clus scale="   58.125">  2  9  1 -1</clus>
<clus scale="   38.792">  2 10  1 -1</clus>
<clus scale="   79.630">  5  6 -1 -1</clus>
<clus scale="   85.322">  2  5  1 -1</clus>
<clus scale="   85.473">  7  8 -1 -1</clus>
<clus scale="   58.125">  2  5  1 -1</clus>
</clustering>
</event>
<event>
10    4  0.2977685E-005  0.1099938E+03  0.7546771E-02  0.1262103E+00
         21   -1    0    0  501  502  0.00000000000E+00  0.00000000000E+00  0.31335346749E+03  0.31335346749E+03  0.00000000000E+00 0.  1.
         -1   -1    0    0    0  501 -0.00000000000E+00 -0.00000000000E+00 -0.16365058236E+03  0.16365058236E+03  0.00000000000E+00 0.  1.
         23    2    1    2    0    0  0.54005386373E+02  0.39439012195E+02 -0.76617907421E+02  0.13225090753E+03  0.84545735350E+02 0.  0.
         24    2    1    2    0    0 -0.40117969998E+02 -0.77195342099E+02  0.39156636776E+02  0.12469530784E+03  0.80293867976E+02 0.  0.
        -11    1    4    4    0    0 -0.42519363214E+02 -0.22409250389E+01  0.21285629973E+02  0.47602479310E+02  0.00000000000E+00 0.  1.
         12    1    4    4    0    0  0.24013932158E+01 -0.74954417060E+02  0.17871006803E+02  0.77092828528E+02  0.00000000000E+00 0. -1.
        -11    1    3    3    0    0  0.33035078077E+02  0.60541521448E+02 -0.75812837868E+02  0.10248989506E+03  0.00000000000E+00 0.  1.
         11    1    3    3    0    0  0.20970308296E+02 -0.21102509253E+02 -0.80506955312E+00  0.29761012479E+02  0.00000000000E+00 0. -1.
         21    1    1    2  503  502 -0.44954456273E+02 -0.91985932161E+01  0.13759445164E+03  0.14504396016E+03  0.00000000000E+00 0.  1.
         -2    1    1    2    0  503  0.31067039898E+02  0.46954923120E+02  0.49569704136E+02  0.75013874326E+02  0.00000000000E+00 0.  1.
<scales pt_clust_5="13000.00000" pt_clust_6="13000.00000" pt_clust_7="13000.00000" pt_clust_8="13000.00000" pt_clust_9="45.88592" pt_clust_10="46.06301"></scales>
<clustering>
<clus scale="   45.886">  1  9  2 -1</clus>
<clus scale="   46.063">  1 10  2 -1</clus>
<clus scale="   80.294">  5  6 -1 -1</clus>
<clus scale="   84.546">  7  8 -1 -1</clus>
<clus scale="  106.760">  1  5  2 -1</clus>
<clus scale="   45.886">  1  5  2 -1</clus>
</clustering>
</event>
<event>
10    4  0.2977685E-005  0.1365258E+03  0.7546771E-02  0.1235879E+00
         21   -1    0    0  501  502  0.00000000000E+00  0.00000000000E+00  0.35573806931E+03  0.35573806931E+03  0.00000000000E+00 0. -1.
          2   -1    0    0  503    0 -0.00000000000E+00 -0.00000000000E+00 -0.93896924947E+03  0.93896924947E+03  0.00000000000E+00 0. -1.
         23    2    1    2    0    0 -0.27348494726E+02 -0.81020014522E+00  0.13084535748E+03  0.16137938822E+03  0.90411297860E+02 0.  0.
         24    2    1    2    0    0  0.47908406384E+01 -0.79935101695E+02 -0.81523089839E+03  0.82293634223E+03  0.78805031877E+02 0.  0.
        -13    1    4    4    0    0  0.21506862742E+02 -0.28422069199E+02 -0.11002715192E+03  0.11565609937E+03  0.00000000000E+00 0.  1.
         14    1    4    4    0    0 -0.16716022103E+02 -0.51513032496E+02 -0.70520374646E+03  0.70728024286E+03  0.00000000000E+00 0. -1.
        -11    1    3    3    0    0 -0.30092570655E+02 -0.37976226941E+02  0.10611275984E+03  0.11665193707E+03  0.00000000000E+00 0. -1.
         11    1    3    3    0    0  0.27440759299E+01  0.37166026796E+02  0.24732597638E+02  0.44727451150E+02  0.00000000000E+00 0.  1.
         21    1    1    2  503  502  0.20366324325E+02 -0.31320295314E+02 -0.85140488487E+02  0.92976614505E+02  0.00000000000E+00 0. -1.
          1    1    1    2  501    0  0.21913297623E+01  0.11206559715E+03  0.18629484923E+03  0.21741497382E+03  0.00000000000E+00 0. -1.
<scales pt_clust_5="13000.00000" pt_clust_6="13000.00000" pt_clust_7="13000.00000" pt_clust_8="13000.00000" pt_clust_9="37.35971" pt_clust_10="111.48565"></scales>
<clustering>
<clus scale="   37.360">  2  9  1 -1</clus>
<clus scale="   78.805">  5  6 -1 -1</clus>
<clus scale="   90.411">  7  8 -1 -1</clus>
<clus scale="   94.362">  2  7  1 -1</clus>
<clus scale="  111.486">  1 10  2 -1</clus>
<clus scale="  111.486">  1  5  2 -1</clus>
</clustering>
</event>
<event>
10    4  0.2977685E-005  0.2907569E+03  0.7546771E-02  0.1110317E+00
         21   -1    0    0  503  502  0.00000000000E+00  0.00000000000E+00  0.13241121327E+03  0.13241121327E+03  0.00000000000E+00 0. -1.
         -1   -1    0    0    0  501 -0.00000000000E+00 -0.00000000000E+00 -0.14055741247E+04  0.14055741247E+04  0.00000000000E+00 0.  1.
         24    2    1    2    0    0 -0.74092438704E+02  0.11354775936E+03 -0.21213407398E+03  0.26448664202E+03  0.81052670144E+02 0.  0.
         23    2    1    2    0    0 -0.18330787853E+03 -0.22139115343E+03 -0.33758890203E+03  0.45265874454E+03  0.91202253741E+02 0.  0.
        -13    1    3    3    0    0 -0.22842439484E+02  0.14739654279E+02 -0.27099927352E+01  0.27319928815E+02  0.00000000000E+00 0.  1.
         14    1    3    3    0    0 -0.51249999220E+02  0.98808105079E+02 -0.20942408124E+03  0.23716671321E+03  0.00000000000E+00 0. -1.
        -11    1    4    4    0    0 -0.13175814109E+03 -0.12668884199E+03 -0.15070760933E+03  0.23690304755E+03  0.00000000000E+00 0. -1.
         11    1    4    4    0    0 -0.51549737438E+02 -0.94702311436E+02 -0.18688129271E+03  0.21575569699E+03  0.00000000000E+00 0.  1.
         21    1    1    2  503  501 -0.46379529650E+02  0.63944175890E+02 -0.18301602373E+03  0.19933585564E+03  0.00000000000E+00 0. -1.
         -2    1    1    2    0  502  0.30377984688E+03  0.43899218178E+02 -0.54042391170E+03  0.62150409577E+03  0.00000000000E+00 0.  1.
<scales pt_clust_5="13000.00000" pt_clust_6="13000.00000" pt_clust_7="13000.00000" pt_clust_8="13000.00000" pt_clust_9="78.99315" pt_clust_10="276.08295"></scales>
<clustering>
<clus scale="   78.993">  2  9  1 -1</clus>
<clus scale="   81.053">  5  6 -1 -1</clus>
<clus scale="   91.202">  7  8 -1 -1</clus>
<clus scale="  171.438">  2  5  1 -1</clus>
<clus scale="  276.083">  1 10  2 -1</clus>
<clus scale="  276.083">  1  5  2 -1</clus>
</clustering>
</event>
<event>
10    4  0.2977685E-005  0.1296480E+03  0.7546771E-02  0.1237775E+00
         21   -1    0    0  501  502  0.00000000000E+00  0.00000000000E+00  0.56394303972E+02  0.56394303972E+02  0.00000000000E+00 0.  1.
          2   -1    0    0  503    0 -0.00000000000E+00 -0.00000000000E+00 -0.90270812330E+03  0.90270812330E+03  0.00000000000E+00 0. -1.
         24    2    1    2    0    0 -0.44245635269E+01 -0.83284314965E+02 -0.33097431399E+03  0.34950183980E+03  0.75177693631E+02 0.  0.
         23    2    1    2    0    0  0.34928186159E+02 -0.11871696736E+02 -0.15338888298E+03  0.18267479078E+03  0.92092423104E+02 0.  0.
        -13    1    3    3    0    0 -0.25892308348E+02 -0.45068152352E+02 -0.26661158608E+03  0.27163079321E+03  0.00000000000E+00 0.  1.
         14    1    3    3    0    0  0.21467744821E+02 -0.38216162613E+02 -0.64362727905E+02  0.77871046583E+02  0.00000000000E+00 0. -1.
        -13    1    4    4    0    0 -0.67545990248E+01 -0.35227222361E+02 -0.11768073714E+03  0.12302576030E+03  0.00000000000E+00 0. -1.
         13    1    4    4    0    0  0.41682785184E+02  0.23355525625E+02 -0.35708145835E+02  0.59649030477E+02  0.00000000000E+00 0.  1.
         21    1    1    2  503  502 -0.55558763272E+02  0.14096873563E+03 -0.33606679349E+03  0.36864596877E+03  0.00000000000E+00 0.  1.
          1    1    1    2  501    0  0.25055140640E+02 -0.45812723933E+02 -0.25883828877E+02  0.58279827934E+02  0.00000000000E+00 0. -1.
<scales pt_clust_5="13000.00000" pt_clust_6="13000.00000" pt_clust_7="13000.00000" pt_clust_8="13000.00000" pt_clust_9="105.62629" pt_clust_10="52.21653"></scales>
<clustering>
<clus scale="   52.217">  1 10  2 -1</clus>
<clus scale="   75.178">  5  6 -1 -1</clus>
<clus scale="   92.092">  7  8 -1 -1</clus>
<clus scale="  106.008">  1  7  2 -1</clus>
<clus scale="  105.626">  1  9  2 -1</clus>
<clus scale="   52.217">  1  5  2 -1</clus>
</clustering>
</event>
<event>
10    4  0.2977685E-005  0.1029984E+03  0.7546771E-02  0.1279179E+00
         21   -1    0    0  503  502  0.00000000000E+00  0.00000000000E+00  0.12518318214E+03  0.12518318214E+03  0.00000000000E+00 0. -1.
         -1   -1    0    0    0  501 -0.00000000000E+00 -0.00000000000E+00 -0.32299761850E+03  0.32299761850E+03  0.00000000000E+00 0.  1.
         24    2    1    2    0    0 -0.64230571874E+02  0.26165874301E+02 -0.23967491199E+03  0.26214383653E+03  0.80405896891E+02 0.  0.
         23    2    1    2    0    0  0.35208131523E+02  0.18313355808E+02  0.52904719863E+02  0.11273061514E+03  0.91292336370E+02 0.  0.
        -11    1    3    3    0    0 -0.11633189527E+02 -0.28090724850E+02 -0.76513452308E+02  0.82333032892E+02  0.00000000000E+00 0.  1.
         12    1    3    3    0    0 -0.52597382347E+02  0.54256599151E+02 -0.16316145968E+03  0.17981080364E+03  0.00000000000E+00 0. -1.
        -11    1    4    4    0    0 -0.61483497703E+01  0.47370136344E+02  0.34569010145E+02  0.58963959201E+02  0.00000000000E+00 0. -1.
         11    1    4    4    0    0  0.41356481294E+02 -0.29056780536E+02  0.18335709718E+02  0.53766655940E+02  0.00000000000E+00 0.  1.
         21    1    1    2  503  501  0.16614764176E+02 -0.26235734665E+02 -0.30765825662E+02  0.43713844383E+02  0.00000000000E+00 0. -1.
         -2    1    1    2    0  502  0.12407676175E+02 -0.18243495444E+02  0.19721581423E+02  0.29592504590E+02  0.00000000000E+00 0.  1.
<scales pt_clust_5="13000.00000" pt_clust_6="13000.00000" pt_clust_7="13000.00000" pt_clust_8="13000.00000" pt_clust_9="32.47437" pt_clust_10="22.06299"></scales>
<clustering>
<clus scale="   22.063">  1 10  2 -1</clus>
<clus scale="   32.474">  2  9  1 -1</clus>
<clus scale="   80.406">  5  6 -1 -1</clus>
<clus scale="   91.292">  7  8 -1 -1</clus>
<clus scale="   93.485">  2  5  1 -1</clus>
<clus scale="   22.063">  1  5  2 -1</clus>
</clustering>
</event>
<event>
10    4  0.2977685E-005  0.1111421E+03  0.7546771E-02  0.1259349E+00
          4   -1    0    0  503    0 -0.00000000000E+00  0.00000000000E+00  0.31831135337E+03  0.31831135337E+03  0.00000000000E+00 0. -1.
         21   -1    0    0  501  502  0.00000000000E+00 -0.00000000000E+00 -0.20248405326E+03  0.20248405326E+03  0.00000000000E+00 0.  1.
         23    2    1    2    0    0 -0.63302619536E+02  0.47997024690E+02  0.21307993420E+03  0.24502224593E+03  0.91224484766E+02 0.  0.
         24    2    1    2    0    0  0.41061087747E+02 -0.53587833126E+02 -0.75015491627E+02  0.13757704952E+03  0.93501079051E+02 0.  0.
        -11    1    4    4    0    0 -0.11947595251E+02  0.18773508311E+02 -0.29610133506E+02  0.37039838725E+02  0.00000000000E+00 0.  1.
         12    1    4    4    0    0  0.53008682998E+02 -0.72361341437E+02 -0.45405358122E+02  0.10053721079E+03  0.00000000000E+00 0. -1.
        -11    1    3    3    0    0 -0.59650244154E+02 -0.85723929351E+01  0.14087668123E+03  0.15322492246E+03  0.00000000000E+00 0. -1.
         11    1    3    3    0    0 -0.36523753819E+01  0.56569417625E+02  0.72203252977E+02  0.91797323474E+02  0.00000000000E+00 0.  1.
         21    1    1    2  503  502  0.42426508697E+02  0.48774073129E+01  0.48505609827E+02  0.64626557443E+02  0.00000000000E+00 0.  1.
          3    1    1    2  501    0 -0.20184976908E+02  0.71340112342E+00 -0.70742752295E+02  0.73569553731E+02  0.00000000000E+00 0. -1.
<scales pt_clust_5="13000.00000" pt_clust_6="13000.00000" pt_clust_7="13000.00000" pt_clust_8="13000.00000" pt_clust_9="41.47118" pt_clust_10="20.19758"></scales>
<clustering>
<clus scale="   20.198">  2 10  1 -1</clus>
<clus scale="   41.471">  1  9  2 -1</clus>
<clus scale="   91.224">  7  8 -1 -1</clus>
<clus scale="   93.501">  5  6 -1 -1</clus>
<clus scale="  109.234">  1  7  2 -1</clus>
<clus scale="   20.198">  2  5  1 -1</clus>
</clustering>
</event>
<event>
10    4  0.2977685E-005  0.1639594E+03  0.7546771E-02  0.1193482E+00
          2   -1    0    0  503    0 -0.00000000000E+00  0.00000000000E+00  0.14081196227E+04  0.14081196227E+04  0.00000000000E+00 0. -1.
         21   -1    0    0  501  502  0.00000000000E+00 -0.00000000000E+00 -0.82377432224E+02  0.82377432224E+02  0.00000000000E+00 0. -1.
         24    2    1    2    0    0  0.28129478805E+02  0.72002742357E+02  0.60981896718E+03  0.62003551526E+03  0.81173917945E+02 0.  0.
         23    2    1    2    0    0 -0.10174360536E+03  0.45316844395E+02  0.57798757893E+02  0.17128750200E+03  0.11659045548E+03 0.  0.
        -11    1    3    3    0    0  0.33520323731E+02  0.52046426027E+01  0.95031683925E+02  0.10090451604E+03  0.00000000000E+00 0.  1.
         12    1    3    3    0    0 -0.53908449261E+01  0.66798099755E+02  0.51478728326E+03  0.51913099922E+03  0.00000000000E+00 0. -1.
        -11    1    4    4    0    0 -0.74455752109E+02  0.28421865625E+02  0.93781649179E+02  0.12307095185E+03  0.00000000000E+00 0.  1.
         11    1    4    4    0    0 -0.27287853253E+02  0.16894978770E+02 -0.35982891286E+02  0.48216550147E+02  0.00000000000E+00 0. -1.
         21    1    1    2  503  502  0.22568672127E+02  0.51493548191E+02  0.21536341089E+03  0.22258106213E+03  0.00000000000E+00 0.  1.
          1    1    1    2  501    0  0.51045454429E+02 -0.16881313494E+03  0.44276105452E+03  0.47659297556E+03  0.00000000000E+00 0. -1.
<scales pt_clust_5="13000.00000" pt_clust_6="13000.00000" pt_clust_7="13000.00000" pt_clust_8="13000.00000" pt_clust_9="56.22215" pt_clust_10="115.27951"></scales>
<clustering>
<clus scale="   56.222">  1  9  2 -1</clus>
<clus scale="   81.174">  5  6 -1 -1</clus>
<clus scale="  116.590">  7  8 -1 -1</clus>
<clus scale="  133.796">  1  5  2 -1</clus>
<clus scale="  115.280">  2 10  1 -1</clus>
<clus scale="  115.280">  2  5  1 -1</clus>
</clustering>
</event>
<event>
10    4  0.2977685E-005  0.1727457E+03  0.7546771E-02  0.1176836E+00
         21   -1    0    0  503  502  0.00000000000E+00  0.00000000000E+00  0.24513550778E+03  0.24513550778E+03  0.00000000000E+00 0.  1.
         -1   -1    0    0    0  501 -0.00000000000E+00 -0.00000000000E+00 -0.25892018028E+03  0.25892018028E+03  0.00000000000E+00 0.  1.
         23    2    1    2    0    0 -0.11198174538E+03 -0.94897596977E+02 -0.12178292866E+03  0.21205299763E+03  0.92681858421E+02 0.  0.
         24    2    1    2    0    0  0.81558653109E+02  0.64965981778E+02  0.10956890552E+03  0.17060441183E+03  0.78918487020E+02 0.  0.
        -11    1    4    4    0    0  0.13115857425E+02  0.31985076690E+02  0.83346981190E+02  0.90231868651E+02  0.00000000000E+00 0.  1.
         12    1    4    4    0    0  0.68442795684E+02  0.32980905088E+02  0.26221924332E+02  0.80372543180E+02  0.00000000000E+00 0. -1.
        -11    1    3    3    0    0 -0.88288068595E+02 -0.71409670181E+02 -0.34603397313E+02  0.11870770471E+03  0.00000000000E+00 0.  1.
         11    1    3    3    0    0 -0.23693676789E+02 -0.23487926796E+02 -0.87179531348E+02  0.93345292924E+02  0.00000000000E+00 0. -1.
         21    1    1    2  503  501 -0.15928721893E+02 -0.15824176274E+02 -0.39930489311E+02  0.45810181320E+02  0.00000000000E+00 0.  1.
         -2    1    1    2    0  502  0.46351814168E+02  0.45755791473E+02  0.38359839945E+02  0.75588097281E+02  0.00000000000E+00 0.  1.
<scales pt_clust_5="13000.00000" pt_clust_6="13000.00000" pt_clust_7="13000.00000" pt_clust_8="13000.00000" pt_clust_9="22.45281" pt_clust_10="63.19683"></scales>
<clustering>
<clus scale="   22.453">  2  9  1 -1</clus>
<clus scale="   63.197">  1 10  2 -1</clus>
<clus scale="   78.918">  5  6 -1 -1</clus>
<clus scale="   92.682">  7  8 -1 -1</clus>
<clus scale="  165.769">  1  5  2 -1</clus>
<clus scale="   63.197">  1  5  2 -1</clus>
</clustering>
</event>
<event>
10    4  0.2977685E-005  0.1444713E+03  0.7546771E-02  0.1207847E+00
         -1   -1    0    0    0  501 -0.00000000000E+00  0.00000000000E+00  0.25205672297E+03  0.25205672297E+03  0.00000000000E+00 0.  1.
         21   -1    0    0  503  502  0.00000000000E+00 -0.00000000000E+00 -0.18687100441E+03  0.18687100441E+03  0.00000000000E+00 0.  1.
         24    2    1    2    0    0  0.12016183966E+03 -0.10768337265E+03  0.15679548157E+01  0.18592196715E+03  0.92357690155E+02 0.  0.
         23    2    1    2    0    0 -0.48425589945E+02  0.50010080656E+02  0.31956488804E+02  0.11845970412E+03  0.90362815330E+02 0.  0.
        -11    1    3    3    0    0  0.87674131593E+02 -0.12172081992E+03 -0.41814557595E+01  0.15006730465E+03  0.00000000000E+00 0.  1.
         12    1    3    3    0    0  0.32487708063E+02  0.14037447267E+02  0.57494105752E+01  0.35854662499E+02  0.00000000000E+00 0. -1.
        -11    1    4    4    0    0 -0.61495712311E+02  0.18066046983E+01  0.30076021521E+02  0.68480314863E+02  0.00000000000E+00 0.  1.
         11    1    4    4    0    0  0.13070122366E+02  0.48203475958E+02  0.18804672822E+01  0.49979389255E+02  0.00000000000E+00 0. -1.
         21    1    1    2  503  501 -0.91895978014E+02  0.31750577938E+02  0.29643895291E+02  0.10164512041E+03  0.00000000000E+00 0.  1.
         -2    1    1    2    0  502  0.20159728302E+02  0.25922714061E+02  0.20173796497E+01  0.32900935703E+02  0.00000000000E+00 0.  1.
<scales pt_clust_5="13000.00000" pt_clust_6="13000.00000" pt_clust_7="13000.00000" pt_clust_8="13000.00000" pt_clust_9="95.22666" pt_clust_10="32.83903"></scales>
<clustering>
<clus scale="   32.839">  2 10  1 -1</clus>
<clus scale="   90.363">  7  8 -1 -1</clus>
<clus scale="   92.358">  5  6 -1 -1</clus>
<clus scale="   95.227">  1  9  2 -1</clus>
<clus scale="  143.204">  2  7  1 -1</clus>
<clus scale="   32.839">  2  5  1 -1</clus>
</clustering>
</event>
<event>
10    4  0.2977685E-005  0.1880792E+03  0.7546771E-02  0.1178710E+00
         21   -1    0    0  503  502  0.00000000000E+00  0.00000000000E+00  0.13005287035E+03  0.13005287035E+03  0.00000000000E+00 0.  1.
         -1   -1    0    0    0  501 -0.00000000000E+00 -0.00000000000E+00 -0.83299595531E+03  0.83299595531E+03  0.00000000000E+00 0.  1.
         23    2    1    2    0    0 -0.10686781444E+03 -0.66306200460E+01 -0.33014786146E+03  0.35907103553E+03  0.92030990683E+02 0.  0.
         24    2    1    2    0    0  0.20564727370E+03 -0.35500289624E+02 -0.15328928712E+03  0.27137460784E+03  0.81212686794E+02 0.  0.
        -13    1    4    4    0    0  0.15357289598E+03 -0.12860492802E+02 -0.14910952561E+03  0.21443804998E+03  0.00000000000E+00 0.  1.
         14    1    4    4    0    0  0.52074377716E+02 -0.22639796822E+02 -0.41797615100E+01  0.56936557859E+02  0.00000000000E+00 0. -1.
        -13    1    3    3    0    0 -0.17549906131E+02  0.37198257577E+02 -0.11174742539E+03  0.11907643198E+03  0.00000000000E+00 0. -1.
         13    1    3    3    0    0 -0.89317908307E+02 -0.43828877623E+02 -0.21840043608E+03  0.23999460356E+03  0.00000000000E+00 0.  1.
         21    1    1    2  503  501  0.51044175083E+02  0.40126623288E+02 -0.15765662904E+03  0.17050298058E+03  0.00000000000E+00 0. -1.
         -2    1    1    2    0  502 -0.14982363434E+03  0.20042863821E+01 -0.61849307339E+02  0.16210020169E+03  0.00000000000E+00 0.  1.
<scales pt_clust_5="13000.00000" pt_clust_6="13000.00000" pt_clust_7="13000.00000" pt_clust_8="13000.00000" pt_clust_9="64.92807" pt_clust_10="169.64168"></scales>
<clustering>
<clus scale="   64.928">  2  9  1 -1</clus>
<clus scale="   81.213">  5  6 -1 -1</clus>
<clus scale="   92.031">  7  8 -1 -1</clus>
<clus scale="  123.120">  2  7  1 -1</clus>
<clus scale="  169.642">  1 10  2 -1</clus>
<clus scale="  169.642">  1  5  2 -1</clus>
</clustering>
</event>
<event>
10    4  0.2977685E-005  0.1008858E+03  0.7546771E-02  0.1283874E+00
         21   -1    0    0  501  502  0.00000000000E+00  0.00000000000E+00  0.18991140884E+03  0.18991140884E+03  0.00000000000E+00 0. -1.
          2   -1    0    0  503    0 -0.00000000000E+00 -0.00000000000E+00 -0.27277425642E+03  0.27277425642E+03  0.00000000000E+00 0. -1.
         24    2    1    2    0    0  0.14117151678E+02  0.56317760910E+02  0.32789428222E+02  0.10430993062E+03  0.80214904207E+02 0.  0.
         23    2    1    2    0    0  0.11116299114E+02 -0.25069597315E+02  0.61477333312E+02  0.11341539411E+03  0.91277227694E+02 0.  0.
        -13    1    3    3    0    0  0.13561113749E+02  0.75336911168E+02  0.14482389613E+02  0.77905671163E+02  0.00000000000E+00 0.  1.
         14    1    3    3    0    0  0.55603792890E+00 -0.19019150258E+02  0.18307038610E+02  0.26404259455E+02  0.00000000000E+00 0. -1.
        -13    1    4    4    0    0  0.96740529291E+01 -0.53557529362E+02  0.11132142846E+02  0.55551065298E+02  0.00000000000E+00 0.  1.
         13    1    4    4    0    0  0.14422461849E+01  0.28487932047E+02  0.50345190466E+02  0.57864328817E+02  0.00000000000E+00 0. -1.
         21    1    1    2  503  502  0.65941991915E+02  0.13872705547E+02 -0.66660573111E+02  0.94786234573E+02  0.00000000000E+00 0. -1.
          1    1    1    2  501    0 -0.91175442707E+02 -0.45120869142E+02 -0.11046903600E+03  0.15017410596E+03  0.00000000000E+00 0. -1.
<scales pt_clust_5="13000.00000" pt_clust_6="13000.00000" pt_clust_7="13000.00000" pt_clust_8="13000.00000" pt_clust_9="67.38545" pt_clust_10="58.57151"></scales>
<clustering>
<clus scale="   67.385">  2  9  1 -1</clus>
<clus scale="   58.572">  1 10  2 -1</clus>
<clus scale="   80.215">  5  6 -1 -1</clus>
<clus scale="   90.999">  2  5  1 -1</clus>
<clus scale="   91.277">  7  8 -1 -1</clus>
<clus scale="   58.572">  1  5  2 -1</clus>
</clustering>
</event>
<event>
10    4  0.2977685E-005  0.1419288E+03  0.7546771E-02  0.1213980E+00
         21   -1    0    0  501  502  0.00000000000E+00  0.00000000000E+00  0.35185478781E+03  0.35185478781E+03  0.00000000000E+00 0. -1.
          2   -1    0    0  503    0 -0.00000000000E+00 -0.00000000000E+00 -0.27846662517E+03  0.27846662517E+03  0.00000000000E+00 0. -1.
         23    2    1    2    0    0 -0.98884264982E+02 -0.50287739246E+02 -0.13742761469E+03  0.19933655798E+03  0.92421639703E+02 0.  0.
         24    2    1    2    0    0  0.70436496463E+02  0.18744755968E+02  0.11317716175E+02  0.12869682638E+03  0.10546144561E+03 0.  0.
        -11    1    4    4    0    0  0.96508824839E+02  0.12501634811E+02 -0.47680448271E+01  0.97431916723E+02  0.00000000000E+00 0.  1.
         12    1    4    4    0    0 -0.26072328376E+02  0.62431211570E+01  0.16085761002E+02  0.31264909655E+02  0.00000000000E+00 0. -1.
        -13    1    3    3    0    0  0.12000703597E+02 -0.28199870499E+02 -0.21743574949E+02  0.37577022694E+02  0.00000000000E+00 0.  1.
         13    1    3    3    0    0 -0.11088496858E+03 -0.22087868747E+02 -0.11568403975E+03  0.16175953528E+03  0.00000000000E+00 0. -1.
         21    1    1    2  503  502 -0.28904673966E+01  0.32771775171E+02 -0.45023988428E+02  0.55762923019E+02  0.00000000000E+00 0. -1.
          1    1    1    2  501    0  0.31338235915E+02 -0.12287918934E+01  0.24452204959E+03  0.24652510561E+03  0.00000000000E+00 0. -1.
<scales pt_clust_5="13000.00000" pt_clust_6="13000.00000" pt_clust_7="13000.00000" pt_clust_8="13000.00000" pt_clust_9="32.73586" pt_clust_10="31.36232"></scales>
<clustering>
<clus scale="   31.362">  1 10  2 -1</clus>
<clus scale="   32.736">  2  9  1 -1</clus>
<clus scale="   92.422">  7  8 -1 -1</clus>
<clus scale="  105.461">  5  6 -1 -1</clus>
<clus scale="  132.527">  2  7  1 -1</clus>
<clus scale="   31.362">  1  5  2 -1</clus>
</clustering>
</event>
<event>
10    4  0.2977685E-005  0.9322244E+02  0.7546771E-02  0.1300513E+00
         -1   -1    0    0    0  501 -0.00000000000E+00  0.00000000000E+00  0.40374108204E+03  0.40374108204E+03  0.00000000000E+00 0.  1.
         21   -1    0    0  503  502  0.00000000000E+00 -0.00000000000E+00 -0.83532367529E+02  0.83532367529E+02  0.00000000000E+00 0.  1.
         23    2    1    2    0    0  0.11076475709E+02  0.21396446562E+02  0.11813311893E+03  0.14997690595E+03  0.89202815487E+02 0.  0.
         24    2    1    2    0    0 -0.15699675229E+02  0.83258159058E+01  0.34825782602E+01  0.82112248303E+02  0.80090536003E+02 0.  0.
        -13    1    4    4    0    0  0.12818374641E+02 -0.29384230274E+02 -0.88373606429E+01  0.33254212671E+02  0.00000000000E+00 0.  1.
         14    1    4    4    0    0 -0.28518049870E+02  0.37710046180E+02  0.12319938903E+02  0.48858035632E+02  0.00000000000E+00 0. -1.
        -13    1    3    3    0    0 -0.21484610889E+02  0.44870024446E+02  0.82309844428E+02  0.96175974591E+02  0.00000000000E+00 0.  1.
         13    1    3    3    0    0  0.32561086598E+02 -0.23473577884E+02  0.35823274505E+02  0.53800931361E+02  0.00000000000E+00 0. -1.
         21    1    1    2  503  501  0.14096877664E+02  0.22643152542E+02  0.20017607153E+03  0.20194527459E+03  0.00000000000E+00 0.  1.
         -2    1    1    2    0  502 -0.94736781446E+01 -0.52365415010E+02 -0.15830542122E+01  0.53239020721E+02  0.00000000000E+00 0.  1.
<scales pt_clust_5="13000.00000" pt_clust_6="13000.00000" pt_clust_7="13000.00000" pt_clust_8="13000.00000" pt_clust_9="26.67273" pt_clust_10="50.07201"></scales>
<clustering>
<clus scale="   26.673">  1  9  2 -1</clus>
<clus scale="   50.072">  2 10  1 -1</clus>
<clus scale="   80.091">  5  6 -1 -1</clus>
<clus scale="   84.545">  2  5  1 -1</clus>
<clus scale="   89.203">  7  8 -1 -1</clus>
<clus scale="   50.072">  2  5  1 -1</clus>
</clustering>
</event>
<event>
10    4  0.2977685E-005  0.4202087E+03  0.7546771E-02  0.1036998E+00
          2   -1    0    0  503    0 -0.00000000000E+00  0.00000000000E+00  0.14105417707E+03  0.14105417707E+03  0.00000000000E+00 0. -1.
         21   -1    0    0  501  502  0.00000000000E+00 -0.00000000000E+00 -0.17172638659E+04  0.17172638659E+04  0.00000000000E+00 0. -1.
         24    2    1    2    0    0 -0.14834438702E+03  0.29771628079E+03 -0.23591120172E+03  0.41588331000E+03  0.81632049058E+02 0.  0.
         23    2    1    2    0    0 -0.13111051862E+02  0.17155955306E+02 -0.99341248463E+02  0.13666836062E+03  0.91341834138E+02 0.  0.
        -13    1    3    3    0    0 -0.30096489402E+02  0.10637925370E+02 -0.24954429378E+02  0.40517745200E+02  0.00000000000E+00 0.  1.
         14    1    3    3    0    0 -0.11824789761E+03  0.28707835542E+03 -0.21095677234E+03  0.37536556480E+03  0.00000000000E+00 0. -1.
        -11    1    4    4    0    0 -0.16429771454E+02  0.44463165819E+02 -0.98309837215E+02  0.10914089333E+03  0.00000000000E+00 0.  1.
         11    1    4    4    0    0  0.33187195920E+01 -0.27307210513E+02 -0.10314112482E+01  0.27527467281E+02  0.00000000000E+00 0. -1.
         21    1    1    2  503  502  0.33869803352E+02 -0.15519487873E+02 -0.20194410162E+02  0.42377261412E+02  0.00000000000E+00 0. -1.
          1    1    1    2  501    0  0.12758563552E+03 -0.29935274822E+03 -0.12207628285E+04  0.12633891110E+04  0.00000000000E+00 0. -1.
<scales pt_clust_5="13000.00000" pt_clust_6="13000.00000" pt_clust_7="13000.00000" pt_clust_8="13000.00000" pt_clust_9="37.25611" pt_clust_10="329.95242"></scales>
<clustering>
<clus scale="   37.256">  1  9  2 -1</clus>
<clus scale="   81.632">  5  6 -1 -1</clus>
<clus scale="   91.342">  7  8 -1 -1</clus>
<clus scale="   92.298">  5  7 -1 -1</clus>
<clus scale="  329.952">  2 10  1 -1</clus>
<clus scale="  329.952">  2  5  1 -1</clus>
</clustering>
</event>
<event>
10    4  0.2977685E-005  0.1204157E+03  0.7546771E-02  0.1244363E+00
          2   -1    0    0  503    0 -0.00000000000E+00  0.00000000000E+00  0.42506167115E+03  0.42506167115E+03  0.00000000000E+00 0. -1.
         21   -1    0    0  501  502  0.00000000000E+00 -0.00000000000E+00 -0.31904012151E+03  0.31904012151E+03  0.00000000000E+00 0.  1.
         23    2    1    2    0    0  0.53806508080E+02  0.66057297330E+02 -0.51426380916E+02  0.14146065516E+03  0.10053724416E+03 0.  0.
         24    2    1    2    0    0  0.10175478520E+02  0.21286827292E+00 -0.19709445710E+03  0.22395501150E+03  0.10585856830E+03 0.  0.
        -11    1    4    4    0    0  0.29689496508E+02 -0.46614613311E+02 -0.93674831481E+02  0.10876287248E+03  0.00000000000E+00 0.  1.
         12    1    4    4    0    0 -0.19514017988E+02  0.46827481584E+02 -0.10341962562E+03  0.11519213902E+03  0.00000000000E+00 0. -1.
        -13    1    3    3    0    0 -0.28378451804E+02  0.15753317873E+02 -0.26576092582E+02  0.41949877804E+02  0.00000000000E+00 0.  1.
         13    1    3    3    0    0  0.82184959884E+02  0.50303979456E+02 -0.24850288334E+02  0.99510777359E+02  0.00000000000E+00 0. -1.
         21    1    1    2  503  502  0.13451687505E+02  0.15275798789E+02  0.63072770883E+02  0.66275729737E+02  0.00000000000E+00 0.  1.
          1    1    1    2  501    0 -0.77433674105E+02 -0.81545964391E+02  0.29146961677E+03  0.31241039626E+03  0.00000000000E+00 0. -1.
<scales pt_clust_5="13000.00000" pt_clust_6="13000.00000" pt_clust_7="13000.00000" pt_clust_8="13000.00000" pt_clust_9="20.35431" pt_clust_10="95.41414"></scales>
<clustering>
<clus scale="   20.354">  1  9  2 -1</clus>
<clus scale="   95.414">  2 10  1 -1</clus>
<clus scale="  100.537">  7  8 -1 -1</clus>
<clus scale="  105.859">  5  6 -1 -1</clus>
<clus scale="  115.765">  1  7  2 -1</clus>
<clus scale="   95.414">  2  5  1 -1</clus>
</clustering>
</event>
<event>
10    4  0.2977685E-005  0.1127544E+03  0.7546771E-02  0.1269567E+00
          2   -1    0    0  503    0 -0.00000000000E+00  0.00000000000E+00  0.18892184811E+03  0.18892184811E+03  0.00000000000E+00 0. -1.
         21   -1    0    0  501  502  0.00000000000E+00 -0.00000000000E+00 -0.34199893036E+03  0.34199893036E+03  0.00000000000E+00 0.  1.
         24    2    1    2    0    0 -0.72883837872E+01 -0.27608723166E+02  0.11304119877E+03  0.13945819434E+03  0.76517404675E+02 0.  0.
         23    2    1    2    0    0 -0.71366436838E+01  0.19509219996E+02 -0.30657809586E+03  0.32503079011E+03  0.10594028653E+03 0.  0.
        -13    1    3    3    0    0 -0.14242812515E+02 -0.37794015945E+02  0.11906781418E+03  0.12573141900E+03  0.00000000000E+00 0.  1.
         14    1    3    3    0    0  0.69544287274E+01  0.10185292779E+02 -0.60266154175E+01  0.13726775343E+02  0.00000000000E+00 0. -1.
        -11    1    4    4    0    0  0.35571451821E+02  0.20300051083E+02 -0.48671613281E+02  0.63610896849E+02  0.00000000000E+00 0. -1.
         11    1    4    4    0    0 -0.42708095505E+02 -0.79083108630E+00 -0.25790648258E+03  0.26141989326E+03  0.00000000000E+00 0.  1.
         21    1    1    2  503  502  0.15041382794E+02 -0.13520259455E+02  0.39972471395E+02  0.44797757550E+02  0.00000000000E+00 0. -1.
          1    1    1    2  501    0 -0.61635532284E+00  0.21619762624E+02  0.48734345254E+00  0.21634036458E+02  0.00000000000E+00 0. -1.
<scales pt_clust_5="13000.00000" pt_clust_6="13000.00000" pt_clust_7="13000.00000" pt_clust_8="13000.00000" pt_clust_9="20.22475" pt_clust_10="20.60579"></scales>
<clustering>
<clus scale="   20.225">  1  9  2 -1</clus>
<clus scale="   20.606">  2 10  1 -1</clus>
<clus scale="   76.517">  5  6 -1 -1</clus>
<clus scale="   85.704">  1  5  2 -1</clus>
<clus scale="  105.940">  7  8 -1 -1</clus>
<clus scale="   20.606">  2  5  1 -1</clus>
</clustering>
</event>
<event>
10    4  0.2977685E-005  0.1223687E+03  0.7546771E-02  0.1240783E+00
         21   -1    0    0  503  502  0.00000000000E+00  0.00000000000E+00  0.12761057055E+03  0.12761057055E+03  0.00000000000E+00 0.  1.
         -3   -1    0    0    0  501 -0.00000000000E+00 -0.00000000000E+00 -0.30102437076E+03  0.30102437076E+03  0.00000000000E+00 0.  1.
         23    2    1    2    0    0 -0.44426390139E+02  0.11354825982E+02 -0.59091586269E+02  0.11752451799E+03  0.90650761429E+02 0.  0.
         24    2    1    2    0    0  0.13222562534E+03 -0.19957967913E+02 -0.74536915120E+02  0.17534386922E+03  0.85485579347E+02 0.  0.
        -11    1    4    4    0    0  0.66996403109E+02 -0.46643575371E+01 -0.84145461351E+02  0.10766026624E+03  0.00000000000E+00 0.  1.
         12    1    4    4    0    0  0.65229222231E+02 -0.15293610376E+02  0.96085462313E+01  0.67683602977E+02  0.00000000000E+00 0. -1.
        -11    1    3    3    0    0 -0.38384495450E+02  0.32577284264E+02  0.41771827593E+01  0.50518291704E+02  0.00000000000E+00 0.  1.
         11    1    3    3    0    0 -0.60418946893E+01 -0.21222458282E+02 -0.63268769028E+02  0.67006226288E+02  0.00000000000E+00 0. -1.
         21    1    1    2  503  501 -0.17954011872E+02  0.12910822382E+02 -0.59158294728E+02  0.63156470073E+02  0.00000000000E+00 0.  1.
         -4    1    1    2    0  502 -0.69845223329E+02 -0.43076804498E+01  0.19372995904E+02  0.72610084031E+02  0.00000000000E+00 0.  1.
<scales pt_clust_5="13000.00000" pt_clust_6="13000.00000" pt_clust_7="13000.00000" pt_clust_8="13000.00000" pt_clust_9="22.11416" pt_clust_10="71.89512"></scales>
<clustering>
<clus scale="   22.114">  2  9  1 -1</clus>
<clus scale="   71.895">  1 10  2 -1</clus>
<clus scale="   85.486">  5  6 -1 -1</clus>
<clus scale="   90.651">  7  8 -1 -1</clus>
<clus scale="  118.593">  1  5  2 -1</clus>
<clus scale="   71.895">  1  5  2 -1</clus>
</clustering>
</event>
<event>
10    4  0.2977685E-005  0.1052554E+03  0.7546771E-02  0.1277578E+00
          2   -1    0    0  503    0 -0.00000000000E+00  0.00000000000E+00  0.14806829604E+04  0.14806829604E+04  0.00000000000E+00 0. -1.
         21   -1    0    0  501  502  0.00000000000E+00 -0.00000000000E+00 -0.39122294283E+02  0.39122294283E+02  0.00000000000E+00 0.  1.
         24    2    1    2    0    0  0.40212828577E+01 -0.36105496346E+02  0.34134791091E+03  0.35261111618E+03  0.80600405655E+02 0.  0.
         23    2    1    2    0    0 -0.12208402295E+02  0.15742085232E+02  0.60522165663E+02  0.11609441310E+03  0.97047008617E+02 0.  0.
        -13    1    3    3    0    0  0.27526440255E+02 -0.49471518179E+02  0.17093695293E+03  0.18006825900E+03  0.00000000000E+00 0.  1.
         14    1    3    3    0    0 -0.23505157397E+02  0.13366021833E+02  0.17041095798E+03  0.17254285718E+03  0.00000000000E+00 0. -1.
        -11    1    4    4    0    0 -0.51519489096E+02  0.24378648985E+01  0.52930771941E+02  0.73904448853E+02  0.00000000000E+00 0.  1.
         11    1    4    4    0    0  0.39311086801E+02  0.13304220334E+02  0.75913937217E+01  0.42189964243E+02  0.00000000000E+00 0. -1.
         21    1    1    2  503  502 -0.61238605310E+02 -0.30387005902E+02  0.47806648514E+03  0.48292970619E+03  0.00000000000E+00 0.  1.
          1    1    1    2  501    0  0.69425724747E+02  0.50750417015E+02  0.56162410437E+03  0.56817001918E+03  0.00000000000E+00 0. -1.
<scales pt_clust_5="13000.00000" pt_clust_6="13000.00000" pt_clust_7="13000.00000" pt_clust_8="13000.00000" pt_clust_9="68.36327" pt_clust_10="48.39307"></scales>
<clustering>
<clus scale="   68.363">  1  9  2 -1</clus>
<clus scale="   48.393">  2 10  1 -1</clus>
<clus scale="   80.600">  5  6 -1 -1</clus>
<clus scale="   90.316">  1  5  2 -1</clus>
<clus scale="   97.047">  7  8 -1 -1</clus>
<clus scale="   48.393">  2  5  1 -1</clus>
</clustering>
</event>
<event>
10    4  0.2977685E-005  0.2530194E+03  0.7546771E-02  0.1144377E+00
         21   -1    0    0  503  502  0.00000000000E+00  0.00000000000E+00  0.32417719227E+03  0.32417719227E+03  0.00000000000E+00 0. -1.
         -1   -1    0    0    0  501 -0.00000000000E+00 -0.00000000000E+00 -0.48528035910E+03  0.48528035910E+03  0.00000000000E+00 0.  1.
         24    2    1    2    0    0 -0.56410485784E+02 -0.45864237938E+02 -0.12767536243E+03  0.16720623203E+03  0.79820139256E+02 0.  0.
         23    2    1    2    0    0  0.12670257493E+03 -0.19238267360E+03  0.15779688019E+03  0.29384767678E+03  0.91553078351E+02 0.  0.
        -11    1    3    3    0    0 -0.57203940785E+02 -0.44451004451E+00 -0.96258305165E+02  0.11197387974E+03  0.00000000000E+00 0.  1.
         12    1    3    3    0    0  0.79345500066E+00 -0.45419727893E+02 -0.31417057265E+02  0.55232352294E+02  0.00000000000E+00 0. -1.
        -11    1    4    4    0    0  0.96450482462E+02 -0.16992452329E+03  0.16469844937E+03  0.25554377004E+03  0.00000000000E+00 0. -1.
         11    1    4    4    0    0  0.30252092469E+02 -0.22458150308E+02 -0.69015691814E+01  0.38303906735E+02  0.00000000000E+00 0.  1.
         21    1    1    2  503  501 -0.67517531050E+01 -0.22149916814E+02 -0.13619395335E+02  0.26864342801E+02  0.00000000000E+00 0.  1.
         -2    1    1    2    0  502 -0.63540336041E+02  0.26039682835E+03 -0.17760528926E+03  0.32153929976E+03  0.00000000000E+00 0.  1.
<scales pt_clust_5="13000.00000" pt_clust_6="13000.00000" pt_clust_7="13000.00000" pt_clust_8="13000.00000" pt_clust_9="23.15610" pt_clust_10="235.87476"></scales>
<clustering>
<clus scale="   23.156">  2  9  1 -1</clus>
<clus scale="   79.820">  5  6 -1 -1</clus>
<clus scale="   91.553">  7  8 -1 -1</clus>
<clus scale="  112.234">  2  5  1 -1</clus>
<clus scale="  235.875">  1 10  2 -1</clus>
<clus scale="  235.875">  1  5  2 -1</clus>
</clustering>
</event>
<event>
10    4  0.2977685E-005  0.1537493E+03  0.7546771E-02  0.1215537E+00
         -1   -1    0    0    0  501 -0.00000000000E+00  0.00000000000E+00  0.31190782478E+03  0.31190782478E+03  0.00000000000E+00 0.  1.
         21   -1    0    0  503  502  0.00000000000E+00 -0.00000000000E+00 -0.15309952184E+03  0.15309952184E+03  0.00000000000E+00 0.  1.
         24    2    1    2    0    0 -0.68142271702E+02 -0.12578584534E+02  0.43176896650E+02  0.11476897371E+03  0.80660293461E+02 0.  0.
         23    2    1    2    0    0  0.15202673969E+03 -0.14098705345E+02  0.77579962302E+02  0.19294882366E+03  0.88880228007E+02 0.  0.
        -11    1    3    3    0    0 -0.79480562938E+02 -0.24679040061E+01  0.12444336078E+02  0.80486719001E+02  0.00000000000E+00 0.  1.
         12    1    3    3    0    0  0.11338291235E+02 -0.10110680528E+02  0.30732560572E+02  0.34282254713E+02  0.00000000000E+00 0. -1.
        -11    1    4    4    0    0  0.86829616383E+02 -0.51942602221E+02  0.47670708459E+02  0.11184772082E+03  0.00000000000E+00 0.  1.
         11    1    4    4    0    0  0.65197123303E+02  0.37843896876E+02  0.29909253843E+02  0.81101102848E+02  0.00000000000E+00 0. -1.
         21    1    1    2  503  501  0.32884303064E+02  0.10964134676E+02  0.11412810392E+02  0.36494408863E+02  0.00000000000E+00 0.  1.
         -2    1    1    2    0  502 -0.11676877105E+03  0.15713155203E+02  0.26638633599E+02  0.12079514038E+03  0.00000000000E+00 0.  1.
<scales pt_clust_5="13000.00000" pt_clust_6="13000.00000" pt_clust_7="13000.00000" pt_clust_8="13000.00000" pt_clust_9="34.66395" pt_clust_10="125.45573"></scales>
<clustering>
<clus scale="   34.664">  2  9  1 -1</clus>
<clus scale="   80.660">  5  6 -1 -1</clus>
<clus scale="   88.880">  7  8 -1 -1</clus>
<clus scale="  100.866">  1  5  2 -1</clus>
<clus scale="  125.456">  2 10  1 -1</clus>
<clus scale="   34.664">  2  5  1 -1</clus>
</clustering>
</event>
<event>
10    4  0.2977685E-005  0.1495767E+03  0.7546771E-02  0.1202989E+00
         21   -1    0    0  501  502  0.00000000000E+00  0.00000000000E+00  0.34926387657E+03  0.34926387657E+03  0.00000000000E+00 0. -1.
          2   -1    0    0  503    0 -0.00000000000E+00 -0.00000000000E+00 -0.27196185038E+03  0.27196185038E+03  0.00000000000E+00 0. -1.
         23    2    1    2    0    0  0.98132406071E+02  0.37032489316E+02 -0.16322091287E+03  0.21447276413E+03  0.91411846987E+02 0.  0.
         24    2    1    2    0    0 -0.89790943014E+02 -0.14525427091E+02  0.13228052859E+03  0.17965778312E+03  0.80655931661E+02 0.  0.
        -11    1    4    4    0    0 -0.10294224523E+03 -0.14062309499E+01  0.11369143466E+03  0.15337804814E+03  0.00000000000E+00 0.  1.
         12    1    4    4    0    0  0.13151302212E+02 -0.13119196141E+02  0.18589093928E+02  0.26279734974E+02  0.00000000000E+00 0. -1.
        -13    1    3    3    0    0  0.76638964007E+02  0.21159649331E+01 -0.15461192966E+03  0.17257710423E+03  0.00000000000E+00 0. -1.
         13    1    3    3    0    0  0.21493442064E+02  0.34916524383E+02 -0.86089832144E+01  0.41895659903E+02  0.00000000000E+00 0.  1.
         21    1    1    2  503  502  0.27885952574E+02 -0.11302449666E+02 -0.53275594012E+02  0.61185460992E+02  0.00000000000E+00 0.  1.
          1    1    1    2  501    0 -0.36227415632E+02 -0.11204612558E+02  0.16151800450E+03  0.16590971871E+03  0.00000000000E+00 0. -1.
<scales pt_clust_5="13000.00000" pt_clust_6="13000.00000" pt_clust_7="13000.00000" pt_clust_8="13000.00000" pt_clust_9="30.08940" pt_clust_10="37.68278"></scales>
<clustering>
<clus scale="   30.089">  2  9  1 -1</clus>
<clus scale="   37.683">  1 10  2 -1</clus>
<clus scale="   80.656">  5  6 -1 -1</clus>
<clus scale="   91.412">  7  8 -1 -1</clus>
<clus scale="  143.257">  1  5  2 -1</clus>
<clus scale="   37.683">  1  5  2 -1</clus>
</clustering>
</event>
<event>
10    4  0.2977685E-005  0.7993801E+03  0.7546771E-02  0.9560915E-01
         21   -1    0    0  501  502  0.00000000000E+00  0.00000000000E+00  0.61018086888E+03  0.61018086888E+03  0.00000000000E+00 0. -1.
          2   -1    0    0  503    0 -0.00000000000E+00 -0.00000000000E+00 -0.10937189770E+04  0.10937189770E+04  0.00000000000E+00 0. -1.
         24    2    1    2    0    0  0.58499132764E+03 -0.17915563796E+03  0.75048182022E+02  0.62074893044E+03  0.73385345845E+02 0.  0.
         23    2    1    2    0    0  0.96128507868E+02 -0.90566771763E+02 -0.99596446078E+02  0.18722362386E+03  0.87693803013E+02 0.  0.
        -11    1    3    3    0    0  0.28815062102E+02  0.58677388663E+01 -0.24254954775E+01  0.29506290713E+02  0.00000000000E+00 0.  1.
         12    1    3    3    0    0  0.55617626554E+03 -0.18502337683E+03  0.77473677499E+02  0.59124263972E+03  0.00000000000E+00 0. -1.
        -13    1    4    4    0    0  0.63054996085E+02 -0.19175960774E+02 -0.84409402751E+02  0.10709153690E+03  0.00000000000E+00 0.  1.
         13    1    4    4    0    0  0.33073511782E+02 -0.71390810989E+02 -0.15187043327E+02  0.80132086959E+02  0.00000000000E+00 0. -1.
         21    1    1    2  503  502 -0.13187657543E+02  0.26233869894E+02 -0.90562374545E+02  0.95203329377E+02  0.00000000000E+00 0.  1.
          1    1    1    2  501    0 -0.66793217797E+03  0.24348853983E+03 -0.36842746957E+03  0.80072396225E+03  0.00000000000E+00 0. -1.
<scales pt_clust_5="13000.00000" pt_clust_6="13000.00000" pt_clust_7="13000.00000" pt_clust_8="13000.00000" pt_clust_9="29.36205" pt_clust_10="723.50979"></scales>
<clustering>
<clus scale="   29.362">  2  9  1 -1</clus>
<clus scale="   73.385">  5  6 -1 -1</clus>
<clus scale="   87.694">  7  8 -1 -1</clus>
<clus scale="  148.950">  5  7 -1 -1</clus>
<clus scale="  723.510">  1 10  2 -1</clus>
<clus scale="  723.510">  1  5  2 -1</clus>
</clustering>
</event>
<event>
10    4  0.2977685E-005  0.1382025E+03  0.7546771E-02  0.1224591E+00
         21   -1    0    0  503  502  0.00000000000E+00  0.00000000000E+00  0.22511381986E+03  0.22511381986E+03  0.00000000000E+00 0. -1.
         -3   -1    0    0    0  501 -0.00000000000E+00 -0.00000000000E+00 -0.53180531529E+03  0.53180531529E+03  0.00000000000E+00 0.  1.
         23    2    1    2    0    0 -0.66143228884E+02 -0.18091634487E+02  0.13974728415E+03  0.18054970761E+03  0.91469445847E+02 0.  0.
         24    2    1    2    0    0 -0.60602063193E+02  0.28163300287E+02 -0.12497909650E+03  0.16248691457E+03  0.79476042292E+02 0.  0.
        -13    1    4    4    0    0 -0.22163190996E+02 -0.27717329062E+02 -0.50873766067E+02  0.62029004823E+02  0.00000000000E+00 0.  1.
         14    1    4    4    0    0 -0.38438872197E+02  0.55880629349E+02 -0.74105330433E+02  0.10045790975E+03  0.00000000000E+00 0. -1.
        -11    1    3    3    0    0 -0.18330739227E+02 -0.49113770933E+02  0.93328482311E+02  0.10704384198E+03  0.00000000000E+00 0.  1.
         11    1    3    3    0    0 -0.47812489657E+02  0.31022136446E+02  0.46418801842E+02  0.73505865625E+02  0.00000000000E+00 0. -1.
         21    1    1    2  503  501 -0.28068278652E+02  0.55241249613E+02 -0.19204829124E+03  0.20179685353E+03  0.00000000000E+00 0. -1.
         -4    1    1    2    0  502  0.15481357073E+03 -0.65312915413E+02 -0.12941139184E+03  0.21208565944E+03  0.00000000000E+00 0.  1.
<scales pt_clust_5="13000.00000" pt_clust_6="13000.00000" pt_clust_7="13000.00000" pt_clust_8="13000.00000" pt_clust_9="61.96309" pt_clust_10="113.06413"></scales>
<clustering>
<clus scale="   61.963">  2  9  1 -1</clus>
<clus scale="   79.476">  5  6 -1 -1</clus>
<clus scale="   91.469">  7  8 -1 -1</clus>
<clus scale="  114.837">  2  7  1 -1</clus>
<clus scale="  113.064">  1 10  2 -1</clus>
<clus scale="  113.064">  1  5  2 -1</clus>
</clustering>
</event>
<event>
10    4  0.2977685E-005  0.1258786E+03  0.7546771E-02  0.1237023E+00
         21   -1    0    0  503  502  0.00000000000E+00  0.00000000000E+00  0.72825464387E+03  0.72825464387E+03  0.00000000000E+00 0. -1.
         -3   -1    0    0    0  501 -0.00000000000E+00 -0.00000000000E+00 -0.39652559407E+02  0.39652559407E+02  0.00000000000E+00 0.  1.
         24    2    1    2    0    0 -0.75620045108E+02 -0.57206521283E+02  0.17807372881E+03  0.21715098960E+03  0.80332571805E+02 0.  0.
         23    2    1    2    0    0  0.64926618139E+02  0.36528482275E+02  0.45402599196E+03  0.46920845344E+03  0.92017257326E+02 0.  0.
        -13    1    3    3    0    0 -0.90006585147E+02 -0.58120521486E+02  0.13897887953E+03  0.17548307424E+03  0.00000000000E+00 0.  1.
         14    1    3    3    0    0  0.14386540039E+02  0.91400020340E+00  0.39094849281E+02  0.41667915366E+02  0.00000000000E+00 0. -1.
        -13    1    4    4    0    0  0.43160933953E+02 -0.18651963633E+02  0.10324387600E+03  0.11344628640E+03  0.00000000000E+00 0.  1.
         13    1    4    4    0    0  0.21765684186E+02  0.55180445909E+02  0.35078211596E+03  0.35576216704E+03  0.00000000000E+00 0. -1.
         21    1    1    2  503  501 -0.98609167733E+01  0.29515785525E+02  0.15333517979E+02  0.34692017070E+02  0.00000000000E+00 0.  1.
         -4    1    1    2    0  502  0.20554343742E+02 -0.88377465178E+01  0.41168845714E+02  0.46855743166E+02  0.00000000000E+00 0.  1.
<scales pt_clust_5="13000.00000" pt_clust_6="13000.00000" pt_clust_7="13000.00000" pt_clust_8="13000.00000" pt_clust_9="30.58102" pt_clust_10="22.37381"></scales>
<clustering>
<clus scale="   22.374">  1 10  2 -1</clus>
<clus scale="   30.581">  2  9  1 -1</clus>
<clus scale="   80.333">  5  6 -1 -1</clus>
<clus scale="   92.017">  7  8 -1 -1</clus>
<clus scale="  117.608">  2  5  1 -1</clus>
<clus scale="   22.374">  1  5  2 -1</clus>
</clustering>
</event>
<event>
10    4  0.2977685E-005  0.1513154E+03  0.7546771E-02  0.1201041E+00
         21   -1    0    0  501  502  0.00000000000E+00  0.00000000000E+00  0.10118883805E+03  0.10118883805E+03  0.00000000000E+00 0. -1.
          2   -1    0    0  503    0 -0.00000000000E+00 -0.00000000000E+00 -0.10323680120E+04  0.10323680120E+04  0.00000000000E+00 0. -1.
         24    2    1    2    0    0 -0.10849963557E+03  0.32485053318E+01 -0.72498886917E+03  0.73749283597E+03  0.80647994290E+02 0.  0.
         23    2    1    2    0    0  0.11356590663E+03  0.74402966650E+01 -0.97440307042E+02  0.17611288292E+03  0.92566521665E+02 0.  0.
        -11    1    3    3    0    0 -0.66673997229E+02  0.41507489785E+02 -0.42443880889E+03  0.43164406182E+03  0.00000000000E+00 0.  1.
         12    1    3    3    0    0 -0.41825638340E+02 -0.38258984453E+02 -0.30055006028E+03  0.30584877415E+03  0.00000000000E+00 0. -1.
        -11    1    4    4    0    0  0.65644998166E+02  0.48850691620E+02 -0.67419406900E+02  0.10602373453E+03  0.00000000000E+00 0. -1.
         11    1    4    4    0    0  0.47920908460E+02 -0.41410394955E+02 -0.30020900142E+02  0.70089148398E+02  0.00000000000E+00 0.  1.
         21    1    1    2  503  502 -0.13975549509E+02  0.22016268751E+02 -0.15801434403E+03  0.16015169370E+03  0.00000000000E+00 0. -1.
          1    1    1    2  501    0  0.89092784525E+01 -0.32705070747E+02  0.49264346343E+02  0.59799437420E+02  0.00000000000E+00 0. -1.
<scales pt_clust_5="13000.00000" pt_clust_6="13000.00000" pt_clust_7="13000.00000" pt_clust_8="13000.00000" pt_clust_9="26.07742" pt_clust_10="33.74660"></scales>
<clustering>
<clus scale="   26.077">  2  9  1 -1</clus>
<clus scale="   33.747">  1 10  2 -1</clus>
<clus scale="   80.648">  5  6 -1 -1</clus>
<clus scale="   92.567">  7  8 -1 -1</clus>
<clus scale="  144.333">  2  5  1 -1</clus>
<clus scale="   33.747">  1  5  2 -1</clus>
</clustering>
</event>
<event>
10    4  0.2977685E-005  0.1062499E+03  0.7546771E-02  0.1273218E+00
          2   -1    0    0  503    0 -0.00000000000E+00  0.00000000000E+00  0.57016507112E+03  0.57016507112E+03  0.00000000000E+00 0. -1.
         21   -1    0    0  501  502  0.00000000000E+00 -0.00000000000E+00 -0.37117511545E+02  0.37117511545E+02  0.00000000000E+00 0. -1.
         23    2    1    2    0    0  0.23224094604E+02  0.65099601455E+02  0.23415065497E+03  0.26083117396E+03  0.91809887324E+02 0.  0.
         24    2    1    2    0    0 -0.37956971613E+02 -0.22517859234E+02  0.13562551120E+03  0.16307857751E+03  0.79073114751E+02 0.  0.
        -11    1    4    4    0    0 -0.20575949476E+02  0.26218216174E+02  0.82221095474E+02  0.88719068397E+02  0.00000000000E+00 0.  1.
         12    1    4    4    0    0 -0.17381022137E+02 -0.48736075409E+02  0.53404415723E+02  0.74359509113E+02  0.00000000000E+00 0. -1.
        -11    1    3    3    0    0  0.45684253983E+02  0.17151509176E+02  0.17392128737E+03  0.18063731489E+03  0.00000000000E+00 0.  1.
         11    1    3    3    0    0 -0.22460159379E+02  0.47948092280E+02  0.60229367595E+02  0.80193859076E+02  0.00000000000E+00 0. -1.
         21    1    1    2  503  502 -0.17446090902E+02  0.11249719792E+02  0.40526842959E+02  0.45534023361E+02  0.00000000000E+00 0.  1.
          1    1    1    2  501    0  0.32178967911E+02 -0.53831462013E+02  0.12274455045E+03  0.13783880783E+03  0.00000000000E+00 0. -1.
<scales pt_clust_5="13000.00000" pt_clust_6="13000.00000" pt_clust_7="13000.00000" pt_clust_8="13000.00000" pt_clust_9="20.75867" pt_clust_10="58.16146"></scales>
<clustering>
<clus scale="   20.759">  1  9  2 -1</clus>
<clus scale="   58.161">  2 10  1 -1</clus>
<clus scale="   79.073">  5  6 -1 -1</clus>
<clus scale="   91.810">  7  8 -1 -1</clus>
<clus scale="   95.460">  2  5  1 -1</clus>
<clus scale="   58.161">  2  5  1 -1</clus>
</clustering>
</event>
<event>
10    4  0.2977685E-005  0.9031705E+02  0.7546771E-02  0.1307684E+00
         21   -1    0    0  501  502  0.00000000000E+00  0.00000000000E+00  0.12516073446E+03  0.12516073446E+03  0.00000000000E+00 0.  1.
          2   -1    0    0  503    0 -0.00000000000E+00 -0.00000000000E+00 -0.26836568440E+03  0.26836568440E+03  0.00000000000E+00 0. -1.
         23    2    1    2    0    0  0.16836292620E+02 -0.18452211076E+02 -0.10713877972E+03  0.14154478613E+03  0.89063255711E+02 0.  0.
         24    2    1    2    0    0  0.16584629808E+02 -0.38451171464E+02  0.23231894356E+02  0.93352564058E+02  0.80133874036E+02 0.  0.
        -13    1    4    4    0    0  0.30604870877E+02  0.21998813389E+01  0.37124177839E+02  0.48163286635E+02  0.00000000000E+00 0.  1.
         14    1    4    4    0    0 -0.14020241069E+02 -0.40651052803E+02 -0.13892283482E+02  0.45189277423E+02  0.00000000000E+00 0. -1.
        -13    1    3    3    0    0  0.21116117666E+02  0.12156295581E+02  0.53005735003E+01  0.24935156446E+02  0.00000000000E+00 0. -1.
         13    1    3    3    0    0 -0.42798250463E+01 -0.30608506658E+02 -0.11243935322E+03  0.11660962969E+03  0.00000000000E+00 0.  1.
         21    1    1    2  503  502 -0.40200865664E+02 -0.32531063340E+02 -0.43458410992E+02  0.67550078965E+02  0.00000000000E+00 0.  1.
          1    1    1    2  501    0  0.67799432363E+01  0.89434445880E+02 -0.15839653588E+02  0.91078989707E+02  0.00000000000E+00 0. -1.
<scales pt_clust_5="13000.00000" pt_clust_6="13000.00000" pt_clust_7="13000.00000" pt_clust_8="13000.00000" pt_clust_9="51.71440" pt_clust_10="81.33204"></scales>
<clustering>
<clus scale="   51.714">  2  9  1 -1</clus>
<clus scale="   80.134">  5  6 -1 -1</clus>
<clus scale="   81.332">  1 10  2 -1</clus>
<clus scale="   81.525">  1  5  2 -1</clus>
<clus scale="   89.063">  7  8 -1 -1</clus>
<clus scale="   81.332">  1  5  2 -1</clus>
</clustering>
</event>
<event>
10    4  0.2977685E-005  0.4795634E+03  0.7546771E-02  0.1019457E+00
         21   -1    0    0  501  502  0.00000000000E+00  0.00000000000E+00  0.20857952799E+03  0.20857952799E+03  0.00000000000E+00 0. -1.
          2   -1    0    0  503    0 -0.00000000000E+00 -0.00000000000E+00 -0.25057397891E+04  0.25057397891E+04  0.00000000000E+00 0. -1.
         24    2    1    2    0    0  0.97609641212E+02  0.51608327560E+03 -0.16851725967E+04  0.17670221676E+04  0.81798964741E+02 0.  0.
         23    2    1    2    0    0 -0.19057739391E+03 -0.30479077958E+03 -0.34189023841E+03  0.50556575418E+03  0.97419886523E+02 0.  0.
        -13    1    3    3    0    0  0.84742881898E+01  0.65894095382E+02 -0.31843111919E+03  0.32528790791E+03  0.00000000000E+00 0.  1.
         14    1    3    3    0    0  0.89135353022E+02  0.45018918021E+03 -0.13667414775E+04  0.14417342597E+04  0.00000000000E+00 0. -1.
        -13    1    4    4    0    0 -0.26505982875E+02 -0.11799666654E+03 -0.14226068135E+03  0.18671872402E+03  0.00000000000E+00 0.  1.
         13    1    4    4    0    0 -0.16407141104E+03 -0.18679411304E+03 -0.19962955706E+03  0.31884703015E+03  0.00000000000E+00 0. -1.
         21    1    1    2  503  502  0.11898040196E+02  0.19569528891E+02 -0.17928213680E+03  0.18073907822E+03  0.00000000000E+00 0. -1.
          1    1    1    2  501    0  0.81069712507E+02 -0.23086202490E+03 -0.90815289161E+02  0.26099231708E+03  0.00000000000E+00 0. -1.
<scales pt_clust_5="13000.00000" pt_clust_6="13000.00000" pt_clust_7="13000.00000" pt_clust_8="13000.00000" pt_clust_9="22.90262" pt_clust_10="243.58792"></scales>
<clustering>
<clus scale="   22.903">  2  9  1 -1</clus>
<clus scale="   81.799">  5  6 -1 -1</clus>
<clus scale="   97.420">  7  8 -1 -1</clus>
<clus scale="  243.588">  1 10  2 -1</clus>
<clus scale="  476.636">  2  5  1 -1</clus>
<clus scale="  243.588">  1  5  2 -1</clus>
</clustering>
</event>
<event>
10    4  0.2977685E-005  0.1441675E+03  0.7546771E-02  0.1221525E+00
         21   -1    0    0  501  502  0.00000000000E+00  0.00000000000E+00  0.42873522071E+03  0.42873522071E+03  0.00000000000E+00 0.  1.
          4   -1    0    0  503    0 -0.00000000000E+00 -0.00000000000E+00 -0.32742051819E+03  0.32742051819E+03  0.00000000000E+00 0. -1.
         24    2    1    2    0    0  0.43540769784E+02 -0.58191550202E+02  0.31984760898E+03  0.33745729697E+03  0.79327669570E+02 0.  0.
         23    2    1    2    0    0 -0.12438720725E+02 -0.83556254475E+02 -0.57667904028E+02  0.13666535637E+03  0.90639191539E+02 0.  0.
        -11    1    3    3    0    0 -0.16359717736E+02 -0.41796240486E+02  0.15202362617E+03  0.15851103746E+03  0.00000000000E+00 0.  1.
         12    1    3    3    0    0  0.59900487520E+02 -0.16395309716E+02  0.16782398282E+03  0.17894625951E+03  0.00000000000E+00 0. -1.
        -11    1    4    4    0    0  0.31763669140E+02 -0.11418779082E+02  0.90369276702E+00  0.33765897790E+02  0.00000000000E+00 0. -1.
         11    1    4    4    0    0 -0.44202389865E+02 -0.72137475394E+02 -0.58571596795E+02  0.10289945859E+03  0.00000000000E+00 0.  1.
         21    1    1    2  503  502  0.25745295306E+02  0.84638613784E+01 -0.13140159049E+03  0.13416719108E+03  0.00000000000E+00 0. -1.
          3    1    1    2  501    0 -0.56847344365E+02  0.13328394330E+03 -0.29463411943E+02  0.14786589446E+03  0.00000000000E+00 0. -1.
<scales pt_clust_5="13000.00000" pt_clust_6="13000.00000" pt_clust_7="13000.00000" pt_clust_8="13000.00000" pt_clust_9="27.10087" pt_clust_10="112.11075"></scales>
<clustering>
<clus scale="   27.101">  2  9  1 -1</clus>
<clus scale="   79.328">  5  6 -1 -1</clus>
<clus scale="   90.639">  7  8 -1 -1</clus>
<clus scale="  107.858">  2  5  1 -1</clus>
<clus scale="  112.111">  1 10  2 -1</clus>
<clus scale="  112.111">  1  5  2 -1</clus>
</clustering>
</event>
<event>
10    4  0.2977685E-005  0.1503261E+03  0.7546771E-02  0.1211281E+00
         21   -1    0    0  501  502  0.00000000000E+00  0.00000000000E+00  0.96141216143E+02  0.96141216143E+02  0.00000000000E+00 0. -1.
          2   -1    0    0  503    0 -0.00000000000E+00 -0.00000000000E+00 -0.83591120754E+03  0.83591120754E+03  0.00000000000E+00 0. -1.
         23    2    1    2    0    0 -0.68049271935E+02  0.27977616380E+02 -0.16577557939E+02  0.11707738530E+03  0.89548022267E+02 0.  0.
         24    2    1    2    0    0 -0.80825154181E+02  0.45989792827E+02 -0.17507964209E+03  0.21398132594E+03  0.80544150524E+02 0.  0.
        -13    1    4    4    0    0 -0.43586795855E+02  0.66450378016E+02 -0.12702892464E+03  0.14983927791E+03  0.00000000000E+00 0.  1.
         14    1    4    4    0    0 -0.37238358325E+02 -0.20460585189E+02 -0.48050717453E+02  0.64142048024E+02  0.00000000000E+00 0. -1.
        -11    1    3    3    0    0  0.22175577930E+02  0.39314971954E+01 -0.35080944437E+01  0.22792973771E+02  0.00000000000E+00 0. -1.
         11    1    3    3    0    0 -0.90224849865E+02  0.24046119184E+02 -0.13069463495E+02  0.94284411527E+02  0.00000000000E+00 0.  1.
         21    1    1    2  503  502 -0.27557567888E+02  0.27969907749E+02 -0.13122273501E+03  0.13697131624E+03  0.00000000000E+00 0. -1.
          1    1    1    2  501    0  0.17643199400E+03 -0.10193731695E+03 -0.41689005636E+03  0.46402239622E+03  0.00000000000E+00 0. -1.
<scales pt_clust_5="13000.00000" pt_clust_6="13000.00000" pt_clust_7="13000.00000" pt_clust_8="13000.00000" pt_clust_9="39.26494" pt_clust_10="126.92750"></scales>
<clustering>
<clus scale="   39.265">  2  9  1 -1</clus>
<clus scale="   80.544">  5  6 -1 -1</clus>
<clus scale="   89.548">  7  8 -1 -1</clus>
<clus scale="  118.120">  2  7  1 -1</clus>
<clus scale="  126.927">  1 10  2 -1</clus>
<clus scale="  126.927">  1  5  2 -1</clus>
</clustering>
</event>
<event>
10    4  0.2977685E-005  0.2205880E+03  0.7546771E-02  0.1167272E+00
         21   -1    0    0  501  502  0.00000000000E+00  0.00000000000E+00  0.10206278662E+03  0.10206278662E+03  0.00000000000E+00 0.  1.
          2   -1    0    0  503    0 -0.00000000000E+00 -0.00000000000E+00 -0.14565966391E+04  0.14565966391E+04  0.00000000000E+00 0. -1.
         24    2    1    2    0    0  0.30302762615E+01 -0.50318789736E+02 -0.23406643593E+03  0.25280092355E+03  0.81117490987E+02 0.  0.
         23    2    1    2    0    0  0.14720646648E+03 -0.14184631775E+03 -0.11443429285E+03  0.25070129373E+03  0.89251384660E+02 0.  0.
        -13    1    3    3    0    0 -0.29287896468E+02 -0.50779179404E+02 -0.18483317631E+03  0.19390618610E+03  0.00000000000E+00 0.  1.
         14    1    3    3    0    0  0.32318172729E+02  0.46038966822E+00 -0.49233259617E+02  0.58894737453E+02  0.00000000000E+00 0. -1.
        -11    1    4    4    0    0  0.42314512693E+02 -0.14974673789E+02 -0.64681264478E+02  0.78730075664E+02  0.00000000000E+00 0. -1.
         11    1    4    4    0    0  0.10489195378E+03 -0.12687164396E+03 -0.49753028376E+02  0.17197121806E+03  0.00000000000E+00 0.  1.
         21    1    1    2  503  502 -0.89120272461E+02 -0.13289878520E+02 -0.45630726037E+03  0.46511865121E+03  0.00000000000E+00 0.  1.
          1    1    1    2  501    0 -0.61116470278E+02  0.20545498600E+03 -0.54972586334E+03  0.59003855725E+03  0.00000000000E+00 0. -1.
<scales pt_clust_5="13000.00000" pt_clust_6="13000.00000" pt_clust_7="13000.00000" pt_clust_8="13000.00000" pt_clust_9="90.10574" pt_clust_10="201.72578"></scales>
<clustering>
<clus scale="   81.117">  5  6 -1 -1</clus>
<clus scale="   89.251">  7  8 -1 -1</clus>
<clus scale="   90.106">  2  9  1 -1</clus>
<clus scale="   99.001">  2  5  1 -1</clus>
<clus scale="  201.726">  1 10  2 -1</clus>
<clus scale="  201.726">  1  5  2 -1</clus>
</clustering>
</event>
<event>
10    4  0.2977685E-005  0.9976132E+02  0.7546771E-02  0.1285689E+00
          2   -1    0    0  503    0 -0.00000000000E+00  0.00000000000E+00  0.10354373381E+03  0.10354373381E+03  0.00000000000E+00 0. -1.
         21   -1    0    0  501  502  0.00000000000E+00 -0.00000000000E+00 -0.42275669889E+03  0.42275669889E+03  0.00000000000E+00 0.  1.
         23    2    1    2    0    0  0.51914245634E+02 -0.14172459363E+02 -0.41056997391E+01  0.10504377562E+03  0.90118757877E+02 0.  0.
         24    2    1    2    0    0 -0.13663249922E+02  0.83480380433E+02 -0.26555090881E+03  0.29002081354E+03  0.80244182331E+02 0.  0.
        -11    1    4    4    0    0  0.33084937580E+02  0.40162266005E+02 -0.10237260090E+03  0.11483801688E+03  0.00000000000E+00 0.  1.
         12    1    4    4    0    0 -0.46748187502E+02  0.43318114428E+02 -0.16317830791E+03  0.17518279666E+03  0.00000000000E+00 0. -1.
        -13    1    3    3    0    0  0.53412785116E+00 -0.41699857772E+02  0.14026791775E+02  0.43999026333E+02  0.00000000000E+00 0.  1.
         13    1    3    3    0    0  0.51380117783E+02  0.27527398409E+02 -0.18132491514E+02  0.61044749283E+02  0.00000000000E+00 0. -1.
         21    1    1    2  503  502 -0.45373216285E+02 -0.18875501566E+02  0.12741164161E+02  0.50767613492E+02  0.00000000000E+00 0. -1.
          1    1    1    2  501    0  0.71222205730E+01 -0.50432419504E+02 -0.62297520699E+02  0.80468230054E+02  0.00000000000E+00 0. -1.
<scales pt_clust_5="13000.00000" pt_clust_6="13000.00000" pt_clust_7="13000.00000" pt_clust_8="13000.00000" pt_clust_9="49.14278" pt_clust_10="52.83925"></scales>
<clustering>
<clus scale="   49.143">  1  9  2 -1</clus>
<clus scale="   52.839">  2 10  1 -1</clus>
<clus scale="   80.244">  5  6 -1 -1</clus>
<clus scale="   90.119">  7  8 -1 -1</clus>
<clus scale="   90.940">  2  5  1 -1</clus>
<clus scale="   52.839">  2  5  1 -1</clus>
</clustering>
</event>
<event>
10    4  0.2977685E-005  0.1804132E+03  0.7546771E-02  0.1188447E+00
         -1   -1    0    0    0  501 -0.00000000000E+00  0.00000000000E+00  0.71512084326E+02  0.71512084326E+02  0.00000000000E+00 0.  1.
         21   -1    0    0  503  502  0.00000000000E+00 -0.00000000000E+00 -0.17024390910E+04  0.17024390910E+04  0.00000000000E+00 0.  1.
         23    2    1    2    0    0  0.36431102091E+02 -0.73725017726E+02 -0.12922170533E+03  0.17802595634E+03  0.90732511064E+02 0.  0.
         24    2    1    2    0    0  0.16301745503E+03  0.45483856621E+02 -0.39176172066E+03  0.43421227045E+03  0.80122270177E+02 0.  0.
        -13    1    4    4    0    0  0.14469090429E+03  0.86191388249E+01 -0.32365188184E+03  0.35462697015E+03  0.00000000000E+00 0.  1.
         14    1    4    4    0    0  0.18326550741E+02  0.36864717796E+02 -0.68109838821E+02  0.79585300304E+02  0.00000000000E+00 0. -1.
        -13    1    3    3    0    0  0.41732623426E+02 -0.19013904730E+02 -0.11102705398E+03  0.12012554743E+03  0.00000000000E+00 0. -1.
         13    1    3    3    0    0 -0.53015213358E+01 -0.54711112997E+02 -0.18194651355E+02  0.57900408908E+02  0.00000000000E+00 0.  1.
         21    1    1    2  503  501 -0.38267121813E+02  0.21660360007E+02 -0.40972435363E+01  0.44162554411E+02  0.00000000000E+00 0. -1.
         -2    1    1    2    0  502 -0.16118143530E+03  0.65808010991E+01 -0.11058463371E+04  0.11175503941E+04  0.00000000000E+00 0.  1.
<scales pt_clust_5="13000.00000" pt_clust_6="13000.00000" pt_clust_7="13000.00000" pt_clust_8="13000.00000" pt_clust_9="43.97208" pt_clust_10="161.64576"></scales>
<clustering>
<clus scale="   43.972">  1  9  2 -1</clus>
<clus scale="   80.122">  5  6 -1 -1</clus>
<clus scale="   90.733">  7  8 -1 -1</clus>
<clus scale="  112.222">  1  7  2 -1</clus>
<clus scale="  161.646">  2 10  1 -1</clus>
<clus scale="  161.646">  2  5  1 -1</clus>
</clustering>
</event>
<event>
10    4  0.4506094E-005  0.1024031E+03  0.7546771E-02  0.1279184E+00
         -1   -1    0    0    0  501 -0.00000000000E+00  0.00000000000E+00  0.45908579632E+03  0.45908579632E+03  0.00000000000E+00 0.  1.
         21   -1    0    0  503  502  0.00000000000E+00 -0.00000000000E+00 -0.26198452797E+03  0.26198452797E+03  0.00000000000E+00 0. -1.
         23    2    1    2    0    0  0.20484247270E+02  0.60451738945E+01  0.37510796136E+03  0.38647836865E+03  0.90572613099E+02 0.  0.
         24    2    1    2    0    0 -0.31835778246E+02 -0.37223596149E+02 -0.22781932352E+03  0.24711337464E+03  0.82245138893E+02 0.  0.
        -11    1    4    4    0    0 -0.33667238703E+02  0.11758570984E+02 -0.42792709875E+02  0.55704245546E+02  0.00000000000E+00 0.  1.
         12    1    4    4    0    0  0.18314604562E+01 -0.48982167134E+02 -0.18502661365E+03  0.19140912910E+03  0.00000000000E+00 0. -1.
        -13    1    3    3    0    0 -0.35906944160E+02  0.23205840475E+01  0.12576076415E+03  0.13080697056E+03  0.00000000000E+00 0. -1.
         13    1    3    3    0    0  0.56391191429E+02  0.37245898470E+01  0.24934719722E+03  0.25567139809E+03  0.00000000000E+00 0.  1.
         21    1    1    2  503  501  0.31792639475E+02 -0.27949990279E+01  0.17974156771E+02  0.36628598881E+02  0.00000000000E+00 0. -1.
         -2    1    1    2    0  502 -0.20441108498E+02  0.33973421283E+02  0.31838473739E+02  0.50849982108E+02  0.00000000000E+00 0.  1.
<scales pt_clust_5="13000.00000" pt_clust_6="13000.00000" pt_clust_7="13000.00000" pt_clust_8="13000.00000" pt_clust_9="31.91526" pt_clust_10="37.93065"></scales>
<clustering>
<clus scale="   31.915">  1  9  2 -1</clus>
<clus scale="   37.931">  2 10  1 -1</clus>
<clus scale="   82.245">  5  6 -1 -1</clus>
<clus scale="   90.573">  7  8 -1 -1</clus>
<clus scale="   95.117">  2  5  1 -1</clus>
<clus scale="   37.931">  2  5  1 -1</clus>
</clustering>
</event>
<event>
10    4  0.2977685E-005  0.2974346E+03  0.7546771E-02  0.1086904E+00
         -1   -1    0    0    0  501 -0.00000000000E+00  0.00000000000E+00  0.13106411287E+04  0.13106411287E+04  0.00000000000E+00 0.  1.
         21   -1    0    0  503  502  0.00000000000E+00 -0.00000000000E+00 -0.91503331574E+02  0.91503331574E+02  0.00000000000E+00 0.  1.
         24    2    1    2    0    0 -0.26778017712E+03  0.17070208982E+03  0.55818712398E+03  0.64711953519E+03  0.79658023534E+02 0.  0.
         23    2    1    2    0    0  0.21793341775E+03 -0.12704102143E+03  0.39202871809E+03  0.47477156092E+03  0.89928435721E+02 0.  0.
        -13    1    3    3    0    0 -0.19072478646E+03  0.15808286098E+03  0.45029353064E+03  0.51393618168E+03  0.00000000000E+00 0.  1.
         14    1    3    3    0    0 -0.77055390658E+02  0.12619228834E+02  0.10789359335E+03  0.13318335351E+03  0.00000000000E+00 0. -1.
        -13    1    4    4    0    0  0.64975147412E+02 -0.84677919006E+02  0.12746471315E+03  0.16625093337E+03  0.00000000000E+00 0.  1.
         13    1    4    4    0    0  0.15295827034E+03 -0.42363102422E+02  0.26456400494E+03  0.30852062755E+03  0.00000000000E+00 0. -1.
         21    1    1    2  503  501  0.14208933141E+02 -0.35646259956E+02  0.18140376452E+03  0.18541810972E+03  0.00000000000E+00 0.  1.
         -2    1    1    2    0  502  0.35637826225E+02 -0.80148084317E+01  0.87518190514E+02  0.94835254431E+02  0.00000000000E+00 0.  1.
<scales pt_clust_5="13000.00000" pt_clust_6="13000.00000" pt_clust_7="13000.00000" pt_clust_8="13000.00000" pt_clust_9="38.85154" pt_clust_10="36.52798"></scales>
<clustering>
<clus scale="   36.528">  2 10  1 -1</clus>
<clus scale="   38.852">  1  9  2 -1</clus>
<clus scale="   79.658">  5  6 -1 -1</clus>
<clus scale="   89.928">  7  8 -1 -1</clus>
<clus scale="  294.492">  1  5  2 -1</clus>
<clus scale="   36.528">  2  5  1 -1</clus>
</clustering>
</event>
<event>
10    4  0.2977685E-005  0.1470428E+03  0.7546771E-02  0.1206470E+00
          2   -1    0    0  503    0 -0.00000000000E+00  0.00000000000E+00  0.31643721370E+03  0.31643721370E+03  0.00000000000E+00 0. -1.
         21   -1    0    0  501  502  0.00000000000E+00 -0.00000000000E+00 -0.18695015995E+03  0.18695015995E+03  0.00000000000E+00 0.  1.
         23    2    1    2    0    0 -0.38026271513E+02 -0.11108538120E+03  0.61192832284E+02  0.16175559027E+03  0.92921197904E+02 0.  0.
         24    2    1    2    0    0 -0.83401935269E+01  0.11425011689E+03  0.84633852055E+02  0.16391764912E+03  0.81138515776E+02 0.  0.
        -13    1    4    4    0    0 -0.26667711919E+02  0.10880519428E+03  0.46566041145E+02  0.12131831415E+03  0.00000000000E+00 0.  1.
         14    1    4    4    0    0  0.18327518392E+02  0.54449226182E+01  0.38067810910E+02  0.42599334973E+02  0.00000000000E+00 0. -1.
        -13    1    3    3    0    0 -0.62309679500E+02 -0.47314089786E+02  0.49338129344E+02  0.92495244520E+02  0.00000000000E+00 0.  1.
         13    1    3    3    0    0  0.24283407987E+02 -0.63771291411E+02  0.11854702941E+02  0.69260345750E+02  0.00000000000E+00 0. -1.
         21    1    1    2  503  502 -0.60006000011E+01  0.32559969827E+02  0.65976366423E+02  0.73817611462E+02  0.00000000000E+00 0.  1.
          1    1    1    2  501    0  0.52367065041E+02 -0.35724705525E+02 -0.82315997007E+02  0.10389652280E+03  0.00000000000E+00 0. -1.
<scales pt_clust_5="13000.00000" pt_clust_6="13000.00000" pt_clust_7="13000.00000" pt_clust_8="13000.00000" pt_clust_9="33.10829" pt_clust_10="62.38060"></scales>
<clustering>
<clus scale="   33.108">  1  9  2 -1</clus>
<clus scale="   62.381">  2 10  1 -1</clus>
<clus scale="   81.139">  5  6 -1 -1</clus>
<clus scale="   92.921">  7  8 -1 -1</clus>
<clus scale="  139.895">  2  5  1 -1</clus>
<clus scale="   62.381">  2  5  1 -1</clus>
</clustering>
</event>
<event>
10    4  0.2977685E-005  0.9767779E+02  0.7546771E-02  0.1292262E+00
         -1   -1    0    0    0  501 -0.00000000000E+00  0.00000000000E+00  0.19727812514E+03  0.19727812514E+03  0.00000000000E+00 0.  1.
         21   -1    0    0  503  502  0.00000000000E+00 -0.00000000000E+00 -0.12177432311E+03  0.12177432311E+03  0.00000000000E+00 0. -1.
         23    2    1    2    0    0  0.27528982330E+02  0.12029748399E+02  0.70329374826E+02  0.11864910211E+03  0.90712891881E+02 0.  0.
         24    2    1    2    0    0 -0.20110264798E+02  0.48572000287E+01 -0.58616747561E+02  0.99432391693E+02  0.77607102001E+02 0.  0.
        -13    1    4    4    0    0 -0.24532586148E+02 -0.69077664904E+01  0.11669586494E+02  0.28031130373E+02  0.00000000000E+00 0.  1.
         14    1    4    4    0    0  0.44223213509E+01  0.11764966519E+02 -0.70286334055E+02  0.71401261321E+02  0.00000000000E+00 0. -1.
        -13    1    3    3    0    0 -0.31954950254E+02  0.12655276756E+02  0.36839216792E+02  0.50382564140E+02  0.00000000000E+00 0. -1.
         13    1    3    3    0    0  0.59483932583E+02 -0.62552835622E+00  0.33490158035E+02  0.68266537971E+02  0.00000000000E+00 0.  1.
         21    1    1    2  503  501  0.28308163866E+02 -0.28831690997E+02  0.29483111552E+02  0.50018720635E+02  0.00000000000E+00 0.  1.
         -2    1    1    2    0  502 -0.35726881399E+02  0.11944742569E+02  0.34308063207E+02  0.50952233813E+02  0.00000000000E+00 0.  1.
<scales pt_clust_5="13000.00000" pt_clust_6="13000.00000" pt_clust_7="13000.00000" pt_clust_8="13000.00000" pt_clust_9="37.40110" pt_clust_10="37.67079"></scales>
<clustering>
<clus scale="   37.671">  2 10  1 -1</clus>
<clus scale="   37.401">  1  9  2 -1</clus>
<clus scale="   77.607">  5  6 -1 -1</clus>
<clus scale="   85.645">  2  5  1 -1</clus>
<clus scale="   90.713">  7  8 -1 -1</clus>
<clus scale="   37.671">  2  5  1 -1</clus>
</clustering>
</event>
<event>
10    4  0.2977685E-005  0.1694740E+03  0.7546771E-02  0.1196665E+00
          2   -1    0    0  503    0 -0.00000000000E+00  0.00000000000E+00  0.64317210842E+03  0.64317210842E+03  0.00000000000E+00 0. -1.
         21   -1    0    0  501  502  0.00000000000E+00 -0.00000000000E+00 -0.43617392472E+03  0.43617392472E+03  0.00000000000E+00 0.  1.
         23    2    1    2    0    0  0.11751712776E+02  0.10845217534E+03 -0.94864138630E+01  0.14263284934E+03  0.91401097216E+02 0.  0.
         24    2    1    2    0    0  0.13397781709E+03  0.14355176289E+02 -0.18029042443E+03  0.23893103795E+03  0.80170301224E+02 0.  0.
        -11    1    4    4    0    0  0.13396640006E+03  0.25953357212E+02 -0.18171425863E+03  0.22724578079E+03  0.00000000000E+00 0.  1.
         12    1    4    4    0    0  0.11417023413E-01 -0.11598180923E+02  0.14238342050E+01  0.11685257161E+02  0.00000000000E+00 0. -1.
        -11    1    3    3    0    0  0.43195145701E+02  0.71343536153E+02  0.19984864999E+02  0.85761970546E+02  0.00000000000E+00 0.  1.
         11    1    3    3    0    0 -0.31443432926E+02  0.37108639189E+02 -0.29471278862E+02  0.56870878790E+02  0.00000000000E+00 0. -1.
         21    1    1    2  503  502  0.29298959127E+02 -0.10510221535E+03  0.48769737037E+03  0.49975356902E+03  0.00000000000E+00 0. -1.
          1    1    1    2  501    0 -0.17502848899E+03 -0.17705136279E+02 -0.90922348383E+02  0.19802857684E+03  0.00000000000E+00 0. -1.
<scales pt_clust_5="13000.00000" pt_clust_6="13000.00000" pt_clust_7="13000.00000" pt_clust_8="13000.00000" pt_clust_9="109.10960" pt_clust_10="149.31239"></scales>
<clustering>
<clus scale="   80.170">  5  6 -1 -1</clus>
<clus scale="   91.401">  7  8 -1 -1</clus>
<clus scale="  109.110">  1  9  2 -1</clus>
<clus scale="  112.995">  1  7  2 -1</clus>
<clus scale="  149.312">  2 10  1 -1</clus>
<clus scale="  149.312">  2  5  1 -1</clus>
</clustering>
</event>
<event>
10    4  0.2977685E-005  0.3817519E+03  0.7546771E-02  0.1088529E+00
         21   -1    0    0  501  502  0.00000000000E+00  0.00000000000E+00  0.54189108582E+03  0.54189108582E+03  0.00000000000E+00 0.  1.
          2   -1    0    0  503    0 -0.00000000000E+00 -0.00000000000E+00 -0.72142972219E+03  0.72142972219E+03  0.00000000000E+00 0. -1.
         23    2    1    2    0    0  0.10895392550E+03 -0.18351609741E+02 -0.21386408034E+03  0.25832674126E+03  0.93739644370E+02 0.  0.
         24    2    1    2    0    0  0.33336637088E+03  0.12874203155E+03  0.24083904174E+03  0.43829701954E+03  0.79957397297E+02 0.  0.
        -11    1    4    4    0    0  0.20835005398E+03  0.50920809728E+02  0.17576188730E+03  0.27729932362E+03  0.00000000000E+00 0.  1.
         12    1    4    4    0    0  0.12501631691E+03  0.77821221820E+02  0.65077154449E+02  0.16099769591E+03  0.00000000000E+00 0. -1.
        -11    1    3    3    0    0  0.38775399378E+02  0.19640480137E+02 -0.14983671349E+03  0.15601384799E+03  0.00000000000E+00 0. -1.
         11    1    3    3    0    0  0.70178526122E+02 -0.37992089878E+02 -0.64027366854E+02  0.10231289326E+03  0.00000000000E+00 0.  1.
         21    1    1    2  503  502 -0.40575816917E+02 -0.86513358352E+01 -0.14118300586E+03  0.14715258637E+03  0.00000000000E+00 0. -1.
          1    1    1    2  501    0 -0.40174447947E+03 -0.10173908597E+03 -0.65330591915E+02  0.41954446086E+03  0.00000000000E+00 0. -1.
<scales pt_clust_5="13000.00000" pt_clust_6="13000.00000" pt_clust_7="13000.00000" pt_clust_8="13000.00000" pt_clust_9="41.48786" pt_clust_10="373.28469"></scales>
<clustering>
<clus scale="   41.488">  2  9  1 -1</clus>
<clus scale="   79.957">  5  6 -1 -1</clus>
<clus scale="   93.740">  7  8 -1 -1</clus>
<clus scale="  133.403">  2  7  1 -1</clus>
<clus scale="  373.285">  1 10  2 -1</clus>
<clus scale="  373.285">  1  5  2 -1</clus>
</clustering>
</event>
<event>
10    4  0.2977685E-005  0.9306925E+02  0.7546771E-02  0.1302438E+00
         21   -1    0    0  503  502  0.00000000000E+00  0.00000000000E+00  0.13243156463E+03  0.13243156463E+03  0.00000000000E+00 0.  1.
         -1   -1    0    0    0  501 -0.00000000000E+00 -0.00000000000E+00 -0.28478895537E+03  0.28478895537E+03  0.00000000000E+00 0.  1.
         24    2    1    2    0    0  0.17198423891E+02  0.10956993768E+02 -0.16592399080E+03  0.18569186196E+03  0.80838452345E+02 0.  0.
         23    2    1    2    0    0 -0.22847889620E+02 -0.69931349872E+02  0.44459811712E+02  0.12593925165E+03  0.92041297765E+02 0.  0.
        -13    1    3    3    0    0  0.54258125514E+01 -0.32943874208E+02 -0.41735003043E+02  0.53446690905E+02  0.00000000000E+00 0.  1.
         14    1    3    3    0    0  0.11772611340E+02  0.43900867976E+02 -0.12418898776E+03  0.13224517105E+03  0.00000000000E+00 0. -1.
        -11    1    4    4    0    0  0.30721946752E+02 -0.41470768125E+02  0.15463946517E+01  0.51633845078E+02  0.00000000000E+00 0.  1.
         11    1    4    4    0    0 -0.53569836373E+02 -0.28460581747E+02  0.42913417061E+02  0.74305406574E+02  0.00000000000E+00 0. -1.
         21    1    1    2  503  501 -0.15323548515E+02 -0.15499058299E+02 -0.15390095670E+02  0.26681210467E+02  0.00000000000E+00 0. -1.
         -2    1    1    2    0  502  0.20973014244E+02  0.74473414403E+02 -0.15503115977E+02  0.78908195926E+02  0.00000000000E+00 0.  1.
<scales pt_clust_5="13000.00000" pt_clust_6="13000.00000" pt_clust_7="13000.00000" pt_clust_8="13000.00000" pt_clust_9="21.79523" pt_clust_10="73.98081"></scales>
<clustering>
<clus scale="   21.795">  2  9  1 -1</clus>
<clus scale="   73.981">  1 10  2 -1</clus>
<clus scale="   80.838">  5  6 -1 -1</clus>
<clus scale="   82.007">  2  5  1 -1</clus>
<clus scale="   92.041">  7  8 -1 -1</clus>
<clus scale="   73.981">  1  5  2 -1</clus>
</clustering>
</event>
<event>
10    4  0.2977685E-005  0.3290553E+03  0.7546771E-02  0.1071885E+00
          2   -1    0    0  503    0 -0.00000000000E+00  0.00000000000E+00  0.98879309363E+03  0.98879309363E+03  0.00000000000E+00 0. -1.
         21   -1    0    0  501  502  0.00000000000E+00 -0.00000000000E+00 -0.14596006017E+03  0.14596006017E+03  0.00000000000E+00 0. -1.
         23    2    1    2    0    0 -0.97510751480E+02  0.28738692983E+03  0.39657232743E+03  0.50763445006E+03  0.91233381603E+02 0.  0.
         24    2    1    2    0    0  0.81722106610E+02 -0.32363710233E+03  0.38866657589E+03  0.51852798830E+03  0.79938042995E+02 0.  0.
        -13    1    4    4    0    0  0.12681719256E+02 -0.66043318544E+02  0.13325790521E+03  0.14926558621E+03  0.00000000000E+00 0.  1.
         14    1    4    4    0    0  0.69040387354E+02 -0.25759378379E+03  0.25540867069E+03  0.36926240209E+03  0.00000000000E+00 0. -1.
        -13    1    3    3    0    0 -0.60162739142E+02  0.67119333347E+02  0.82388775009E+02  0.12211662597E+03  0.00000000000E+00 0.  1.
         13    1    3    3    0    0 -0.37348012338E+02  0.22026759648E+03  0.31418355242E+03  0.38551782410E+03  0.00000000000E+00 0. -1.
         21    1    1    2  503  502  0.39476481386E+02 -0.25716794712E+01  0.47840855131E+02  0.62078607729E+02  0.00000000000E+00 0.  1.
          1    1    1    2  501    0 -0.23687836517E+02  0.38821851975E+02  0.97532750082E+01  0.46512107703E+02  0.00000000000E+00 0. -1.
<scales pt_clust_5="13000.00000" pt_clust_6="13000.00000" pt_clust_7="13000.00000" pt_clust_8="13000.00000" pt_clust_9="39.56016" pt_clust_10="44.80304"></scales>
<clustering>
<clus scale="   39.560">  1  9  2 -1</clus>
<clus scale="   44.803">  2 10  1 -1</clus>
<clus scale="   79.938">  5  6 -1 -1</clus>
<clus scale="   91.233">  7  8 -1 -1</clus>
<clus scale="  326.104">  2  5  1 -1</clus>
<clus scale="   44.803">  2  5  1 -1</clus>
</clustering>
</event>
<event>
10    4  0.2977685E-005  0.1044532E+03  0.7546771E-02  0.1282061E+00
         -1   -1    0    0    0  501 -0.00000000000E+00  0.00000000000E+00  0.20947999112E+03  0.20947999112E+03  0.00000000000E+00 0.  1.
         21   -1    0    0  503  502  0.00000000000E+00 -0.00000000000E+00 -0.11027185036E+03  0.11027185036E+03  0.00000000000E+00 0. -1.
         24    2    1    2    0    0  0.66485463907E+02 -0.99189216568E+01  0.39808484839E+02  0.11088975855E+03  0.78696385998E+02 0.  0.
         23    2    1    2    0    0  0.12466452494E+02  0.78049275724E+01  0.16838890211E+02  0.10199652134E+03  0.99515892244E+02 0.  0.
        -13    1    3    3    0    0 -0.38783804824E+01 -0.23687025836E+02  0.30159909350E+02  0.38545261189E+02  0.00000000000E+00 0.  1.
         14    1    3    3    0    0  0.70363844389E+02  0.13768104179E+02  0.96485754886E+01  0.72344497364E+02  0.00000000000E+00 0. -1.
        -13    1    4    4    0    0 -0.21604483045E+02 -0.36336272888E+02 -0.40140906379E+01  0.42464000503E+02  0.00000000000E+00 0. -1.
         13    1    4    4    0    0  0.34070935539E+02  0.44141200461E+02  0.20852980849E+02  0.59532520834E+02  0.00000000000E+00 0.  1.
         21    1    1    2  503  501 -0.19357959583E+02 -0.12713459014E+02  0.38991772435E+02  0.45351085511E+02  0.00000000000E+00 0.  1.
         -2    1    1    2    0  502 -0.59593956817E+02  0.14827453099E+02  0.35689932703E+01  0.61514476081E+02  0.00000000000E+00 0.  1.
<scales pt_clust_5="13000.00000" pt_clust_6="13000.00000" pt_clust_7="13000.00000" pt_clust_8="13000.00000" pt_clust_9="23.15950" pt_clust_10="64.55241"></scales>
<clustering>
<clus scale="   23.160">  1  9  2 -1</clus>
<clus scale="   64.552">  2 10  1 -1</clus>
<clus scale="   78.696">  5  6 -1 -1</clus>
<clus scale="   84.854">  1  5  2 -1</clus>
<clus scale="   99.516">  7  8 -1 -1</clus>
<clus scale="   64.552">  2  5  1 -1</clus>
</clustering>
</event>
<event>
10    4  0.2977685E-005  0.9656333E+02  0.7546771E-02  0.1295413E+00
         21   -1    0    0  501  502  0.00000000000E+00  0.00000000000E+00  0.73590518241E+02  0.73590518241E+02  0.00000000000E+00 0.  1.
          2   -1    0    0  503    0 -0.00000000000E+00 -0.00000000000E+00 -0.60164933744E+03  0.60164933744E+03  0.00000000000E+00 0. -1.
         24    2    1    2    0    0  0.68916126786E+01  0.17268857889E+02 -0.61578921770E+02  0.10253226368E+03  0.79844810174E+02 0.  0.
         23    2    1    2    0    0  0.37334287998E+02 -0.33750131863E+02 -0.39322357989E+01  0.10611376853E+03  0.93336750166E+02 0.  0.
        -11    1    3    3    0    0  0.16673383804E+01  0.42969396571E+02 -0.92298497881E+01  0.43981123065E+02  0.00000000000E+00 0.  1.
         12    1    3    3    0    0  0.52242742982E+01 -0.25700538682E+02 -0.52349071982E+02  0.58551140619E+02  0.00000000000E+00 0. -1.
        -11    1    4    4    0    0  0.63277325537E+02 -0.42541483520E+02 -0.12814369296E+02  0.77317564677E+02  0.00000000000E+00 0.  1.
         11    1    4    4    0    0 -0.25943037538E+02  0.87913516576E+01  0.88821334974E+01  0.28796203850E+02  0.00000000000E+00 0. -1.
         21    1    1    2  503  502 -0.35355322633E+01  0.19897985089E+02 -0.13318475615E+03  0.13470935035E+03  0.00000000000E+00 0. -1.
          1    1    1    2  501    0 -0.40690368413E+02 -0.34167111156E+01 -0.32936290547E+03  0.33188447312E+03  0.00000000000E+00 0. -1.
<scales pt_clust_5="13000.00000" pt_clust_6="13000.00000" pt_clust_7="13000.00000" pt_clust_8="13000.00000" pt_clust_9="20.20965" pt_clust_10="44.48325"></scales>
<clustering>
<clus scale="   20.210">  2  9  1 -1</clus>
<clus scale="   44.483">  1 10  2 -1</clus>
<clus scale="   79.845">  5  6 -1 -1</clus>
<clus scale="   83.594">  2  5  1 -1</clus>
<clus scale="   93.337">  7  8 -1 -1</clus>
<clus scale="   44.483">  1  5  2 -1</clus>
</clustering>
</event>
<event>
10    4  0.2977685E-005  0.9478683E+02  0.7546771E-02  0.1297552E+00
          4   -1    0    0  503    0 -0.00000000000E+00  0.00000000000E+00  0.77372275355E+03  0.77372275355E+03  0.00000000000E+00 0. -1.
         21   -1    0    0  501  502  0.00000000000E+00 -0.00000000000E+00 -0.68284371620E+02  0.68284371620E+02  0.00000000000E+00 0.  1.
         24    2    1    2    0    0 -0.55797167858E+02 -0.14838502639E+02  0.49707428790E+03  0.50699166432E+03  0.81389157154E+02 0.  0.
         23    2    1    2    0    0  0.14267572387E+02  0.58691432411E+01  0.62772784196E+02  0.11212140724E+03  0.91612101067E+02 0.  0.
        -11    1    3    3    0    0 -0.60111818465E+02 -0.18721115273E+02  0.19604999964E+03  0.20591142085E+03  0.00000000000E+00 0.  1.
         12    1    3    3    0    0  0.43146506065E+01  0.38826126340E+01  0.30102428825E+03  0.30108024347E+03  0.00000000000E+00 0. -1.
        -13    1    4    4    0    0 -0.85805282264E+01 -0.31750164442E+02 -0.29507377281E+01  0.33021284952E+02  0.00000000000E+00 0.  1.
         13    1    4    4    0    0  0.22848100614E+02  0.37619307683E+02  0.65723521925E+02  0.79100122290E+02  0.00000000000E+00 0. -1.
         21    1    1    2  503  502  0.51031403589E+02 -0.10670824066E+02  0.17707444152E+03  0.18458989268E+03  0.00000000000E+00 0.  1.
          3    1    1    2  501    0 -0.95018081185E+01  0.19640183464E+02 -0.31483131683E+02  0.38304160930E+02  0.00000000000E+00 0. -1.
<scales pt_clust_5="13000.00000" pt_clust_6="13000.00000" pt_clust_7="13000.00000" pt_clust_8="13000.00000" pt_clust_9="50.67338" pt_clust_10="21.81791"></scales>
<clustering>
<clus scale="   21.818">  2 10  1 -1</clus>
<clus scale="   50.673">  1  9  2 -1</clus>
<clus scale="   81.389">  5  6 -1 -1</clus>
<clus scale="   84.947">  1  5  2 -1</clus>
<clus scale="   91.612">  7  8 -1 -1</clus>
<clus scale="   21.818">  2  5  1 -1</clus>
</clustering>
</event>
<event>
10    4  0.2977685E-005  0.1011662E+03  0.7546771E-02  0.1284286E+00
         21   -1    0    0  501  502  0.00000000000E+00  0.00000000000E+00  0.63008586708E+02  0.63008586708E+02  0.00000000000E+00 0. -1.
          2   -1    0    0  503    0 -0.00000000000E+00 -0.00000000000E+00 -0.80582877507E+03  0.80582877507E+03  0.00000000000E+00 0. -1.
         24    2    1    2    0    0 -0.38901752659E+01  0.25776079113E+02 -0.52485846554E+03  0.53144633339E+03  0.79241761160E+02 0.  0.
         23    2    1    2    0    0 -0.61500585121E+02 -0.40660597577E+02 -0.72715948995E+02  0.13863261724E+03  0.92172594396E+02 0.  0.
        -13    1    3    3    0    0 -0.37372015104E+02  0.61188452855E+01 -0.15515226958E+03  0.15970702720E+03  0.00000000000E+00 0.  1.
         14    1    3    3    0    0  0.33481839838E+02  0.19657233828E+02 -0.36970619595E+03  0.37173930619E+03  0.00000000000E+00 0. -1.
        -11    1    4    4    0    0  0.20476296158E+02 -0.75479835196E+01  0.32542885916E+01  0.22064477193E+02  0.00000000000E+00 0.  1.
         11    1    4    4    0    0 -0.81976881279E+02 -0.33112614057E+02 -0.75970237587E+02  0.11656814004E+03  0.00000000000E+00 0. -1.
         21    1    1    2  503  502 -0.36580379648E+01  0.21249937099E+02 -0.12453792667E+03  0.12639080761E+03  0.00000000000E+00 0.  1.
          1    1    1    2  501    0  0.69048798352E+02 -0.63654186348E+01 -0.20707847155E+02  0.72367603539E+02  0.00000000000E+00 0. -1.
<scales pt_clust_5="13000.00000" pt_clust_6="13000.00000" pt_clust_7="13000.00000" pt_clust_8="13000.00000" pt_clust_9="21.56249" pt_clust_10="68.97370"></scales>
<clustering>
<clus scale="   21.562">  2  9  1 -1</clus>
<clus scale="   68.974">  1 10  2 -1</clus>
<clus scale="   79.242">  5  6 -1 -1</clus>
<clus scale="   89.544">  2  5  1 -1</clus>
<clus scale="   92.173">  7  8 -1 -1</clus>
<clus scale="   68.974">  1  5  2 -1</clus>
</clustering>
</event>
<event>
10    4  0.2977685E-005  0.2782954E+03  0.7546771E-02  0.1141001E+00
         21   -1    0    0  501  502  0.00000000000E+00  0.00000000000E+00  0.33503708996E+03  0.33503708996E+03  0.00000000000E+00 0. -1.
          2   -1    0    0  503    0 -0.00000000000E+00 -0.00000000000E+00 -0.49312013648E+03  0.49312013648E+03  0.00000000000E+00 0. -1.
         24    2    1    2    0    0 -0.39884001185E+02 -0.31927172659E+01  0.93658460336E+01  0.90705263570E+02  0.80862839260E+02 0.  0.
         23    2    1    2    0    0 -0.76939016935E+02  0.23620702403E+03 -0.30607856558E+03  0.40474194069E+03  0.91752818582E+02 0.  0.
        -13    1    3    3    0    0 -0.25125447404E+02 -0.39817769089E+02 -0.76651831959E+01  0.47702178943E+02  0.00000000000E+00 0.  1.
         14    1    3    3    0    0 -0.14758553781E+02  0.36625051823E+02  0.17031029230E+02  0.43003084626E+02  0.00000000000E+00 0. -1.
        -13    1    4    4    0    0 -0.25495256819E+02  0.31782222920E+02 -0.11182829743E+02  0.42251313531E+02  0.00000000000E+00 0.  1.
         13    1    4    4    0    0 -0.51443760116E+02  0.20442480111E+03 -0.29489573583E+03  0.36249062716E+03  0.00000000000E+00 0. -1.
         21    1    1    2  503  502 -0.18407296332E+02  0.10695457780E+02 -0.29510531249E+00  0.21291041838E+02  0.00000000000E+00 0. -1.
          1    1    1    2  501    0  0.13523031445E+03 -0.24370976455E+03  0.13892477834E+03  0.31141898034E+03  0.00000000000E+00 0. -1.
<scales pt_clust_5="13000.00000" pt_clust_6="13000.00000" pt_clust_7="13000.00000" pt_clust_8="13000.00000" pt_clust_9="21.28900" pt_clust_10="262.73508"></scales>
<clustering>
<clus scale="   21.289">  1  9  2 -1</clus>
<clus scale="   80.863">  5  6 -1 -1</clus>
<clus scale="   91.468">  2  5  1 -1</clus>
<clus scale="   91.753">  7  8 -1 -1</clus>
<clus scale="  262.735">  1 10  2 -1</clus>
<clus scale="   21.289">  1  5  2 -1</clus>
</clustering>
</event>
<event>
10    4  0.2977685E-005  0.1248863E+03  0.7546771E-02  0.1252284E+00
         21   -1    0    0  501  502  0.00000000000E+00  0.00000000000E+00  0.54394577379E+02  0.54394577379E+02  0.00000000000E+00 0.  1.
          2   -1    0    0  503    0 -0.00000000000E+00 -0.00000000000E+00 -0.97674779929E+03  0.97674779929E+03  0.00000000000E+00 0. -1.
         24    2    1    2    0    0  0.19587908914E+02  0.34483813102E+02 -0.32686077868E+03  0.33896126231E+03  0.80522972892E+02 0.  0.
         23    2    1    2    0    0  0.25721400159E+02  0.88562165345E+02 -0.11465106811E+03  0.17319289345E+03  0.91356791573E+02 0.  0.
        -11    1    3    3    0    0 -0.19699718163E+02  0.44676120480E+02 -0.16359584679E+03  0.17072678678E+03  0.00000000000E+00 0.  1.
         12    1    3    3    0    0  0.39287627077E+02 -0.10192307378E+02 -0.16326493190E+03  0.16823447553E+03  0.00000000000E+00 0. -1.
        -11    1    4    4    0    0 -0.33375176884E+02  0.44976270913E+02 -0.43151950175E+02  0.70702603779E+02  0.00000000000E+00 0. -1.
         11    1    4    4    0    0  0.59096577042E+02  0.43585894432E+02 -0.71499117932E+02  0.10249028967E+03  0.00000000000E+00 0.  1.
         21    1    1    2  503  502 -0.40660347662E+02 -0.10326033269E+03 -0.48559526913E+03  0.49811517301E+03  0.00000000000E+00 0. -1.
          1    1    1    2  501    0 -0.46489614115E+01 -0.19785645762E+02  0.47538940118E+01  0.20873047902E+02  0.00000000000E+00 0. -1.
<scales pt_clust_5="13000.00000" pt_clust_6="13000.00000" pt_clust_7="13000.00000" pt_clust_8="13000.00000" pt_clust_9="85.15005" pt_clust_10="20.32448"></scales>
<clustering>
<clus scale="   20.324">  1 10  2 -1</clus>
<clus scale="   80.523">  5  6 -1 -1</clus>
<clus scale="   88.546">  2  5  1 -1</clus>
<clus scale="   85.150">  2  9  1 -1</clus>
<clus scale="   91.357">  7  8 -1 -1</clus>
<clus scale="   20.324">  1  5  2 -1</clus>
</clustering>
</event>
<event>
10    4  0.2977685E-005  0.1016747E+03  0.7546771E-02  0.1281613E+00
         21   -1    0    0  503  502  0.00000000000E+00  0.00000000000E+00  0.16046425554E+03  0.16046425554E+03  0.00000000000E+00 0. -1.
         -3   -1    0    0    0  501 -0.00000000000E+00 -0.00000000000E+00 -0.60206744193E+03  0.60206744193E+03  0.00000000000E+00 0.  1.
         23    2    1    2    0    0 -0.57094670177E+02 -0.49498486365E+02 -0.37640633467E+03  0.39447343900E+03  0.90651330849E+02 0.  0.
         24    2    1    2    0    0 -0.19824201416E+02  0.40382389369E+02  0.57014431491E+02  0.10846103209E+03  0.80556897601E+02 0.  0.
        -11    1    4    4    0    0  0.24032017206E+02  0.31820299109E+02  0.54775509457E+01  0.40250128580E+02  0.00000000000E+00 0.  1.
         12    1    4    4    0    0 -0.43856218622E+02  0.85620902601E+01  0.51536880545E+02  0.68210903511E+02  0.00000000000E+00 0. -1.
        -13    1    3    3    0    0 -0.34220425956E+02  0.17623415427E+02 -0.69160651608E+02  0.79150603628E+02  0.00000000000E+00 0. -1.
         13    1    3    3    0    0 -0.22874244222E+02 -0.67121901793E+02 -0.30724568306E+03  0.31532283537E+03  0.00000000000E+00 0.  1.
         21    1    1    2  503  501  0.54644733608E+02  0.29738241588E+01 -0.18487750224E+03  0.19280710925E+03  0.00000000000E+00 0.  1.
         -4    1    1    2    0  502  0.22274137985E+02  0.61422728379E+01  0.62666219035E+02  0.66790117133E+02  0.00000000000E+00 0.  1.
<scales pt_clust_5="13000.00000" pt_clust_6="13000.00000" pt_clust_7="13000.00000" pt_clust_8="13000.00000" pt_clust_9="55.66089" pt_clust_10="23.10551"></scales>
<clustering>
<clus scale="   23.106">  1 10  2 -1</clus>
<clus scale="   55.661">  2  9  1 -1</clus>
<clus scale="   80.557">  5  6 -1 -1</clus>
<clus scale="   90.651">  7  8 -1 -1</clus>
<clus scale="   92.787">  1  5  2 -1</clus>
<clus scale="   23.106">  1  5  2 -1</clus>
</clustering>
</event>
<event>
10    4  0.2977685E-005  0.1515454E+03  0.7546771E-02  0.1228351E+00
          2   -1    0    0  503    0 -0.00000000000E+00  0.00000000000E+00  0.91931414962E+03  0.91931414962E+03  0.00000000000E+00 0. -1.
         21   -1    0    0  501  502  0.00000000000E+00 -0.00000000000E+00 -0.37309836020E+03  0.37309836020E+03  0.00000000000E+00 0. -1.
         24    2    1    2    0    0 -0.20075857155E+02 -0.23887914274E+02 -0.20479686147E+03  0.22000902909E+03  0.74084721240E+02 0.  0.
         23    2    1    2    0    0  0.17005883620E+03  0.41988689677E+02  0.81993998675E+03  0.84342334646E+03  0.91533063160E+02 0.  0.
        -13    1    3    3    0    0  0.86699304127E+01  0.23216727656E+02 -0.74300448306E+02  0.78324585890E+02  0.00000000000E+00 0.  1.
         14    1    3    3    0    0 -0.28745787568E+02 -0.47104641930E+02 -0.13049641317E+03  0.14168444320E+03  0.00000000000E+00 0. -1.
        -11    1    4    4    0    0  0.55881248686E+02  0.59514656560E+02  0.36901755510E+03  0.37794002735E+03  0.00000000000E+00 0. -1.
         11    1    4    4    0    0  0.11417758752E+03 -0.17525966883E+02  0.45092243165E+03  0.46548331911E+03  0.00000000000E+00 0.  1.
         21    1    1    2  503  502 -0.31888358489E+02 -0.36321370276E+02  0.43416173090E+02  0.64969788607E+02  0.00000000000E+00 0.  1.
          1    1    1    2  501    0 -0.11809462056E+03  0.18220594873E+02 -0.11234350895E+03  0.16401034567E+03  0.00000000000E+00 0. -1.
<scales pt_clust_5="13000.00000" pt_clust_6="13000.00000" pt_clust_7="13000.00000" pt_clust_8="13000.00000" pt_clust_9="48.33332" pt_clust_10="120.77963"></scales>
<clustering>
<clus scale="   48.333">  1  9  2 -1</clus>
<clus scale="   74.085">  5  6 -1 -1</clus>
<clus scale="   80.554">  1  5  2 -1</clus>
<clus scale="   91.533">  7  8 -1 -1</clus>
<clus scale="  120.780">  2 10  1 -1</clus>
<clus scale="  120.780">  2  5  1 -1</clus>
</clustering>
</event>
<event>
10    4  0.2977685E-005  0.1344826E+03  0.7546771E-02  0.1236925E+00
         21   -1    0    0  501  502  0.00000000000E+00  0.00000000000E+00  0.80946913980E+03  0.80946913980E+03  0.00000000000E+00 0.  1.
         -1   -1    0    0    0  501 -0.00000000000E+00 -0.00000000000E+00 -0.59818210434E+02  0.59818210434E+02  0.00000000000E+00 0.  1.
         24    2    1    2    0    0 -0.52417283192E+02 -0.11907369575E+02  0.19973654166E+02  0.98684959157E+02  0.80314489824E+02 0.  0.
         23    2    1    2    0    0  0.54885689843E+02 -0.89842905880E+02  0.36426826713E+03  0.38975276483E+03  0.90175720497E+02 0.  0.
        -13    1    3    3    0    0 -0.36762871362E+02 -0.38140677228E+02  0.36134797813E+02  0.64124438268E+02  0.00000000000E+00 0.  1.
         14    1    3    3    0    0 -0.15654411830E+02  0.26233307652E+02 -0.16161143647E+02  0.34560520889E+02  0.00000000000E+00 0. -1.
        -13    1    4    4    0    0  0.76594652339E+02 -0.79682493810E+02  0.25561491500E+03  0.27848702907E+03  0.00000000000E+00 0.  1.
         13    1    4    4    0    0 -0.21708962497E+02 -0.10160412071E+02  0.10865335212E+03  0.11126573576E+03  0.00000000000E+00 0. -1.
         21    1    1    2  503  502 -0.31817689165E+01  0.48540898748E+02  0.23536062345E+03  0.24033511100E+03  0.00000000000E+00 0.  1.
         -2    1    1    2    0  503  0.71336226618E+00  0.53209376707E+02  0.13004838462E+03  0.14051451526E+03  0.00000000000E+00 0.  1.
<scales pt_clust_5="13000.00000" pt_clust_6="13000.00000" pt_clust_7="13000.00000" pt_clust_8="13000.00000" pt_clust_9="32.61263" pt_clust_10="105.43903"></scales>
<clustering>
<clus scale="   32.613">  9 10 -1 -1</clus>
<clus scale="   80.314">  5  6 -1 -1</clus>
<clus scale="   90.176">  7  8 -1 -1</clus>
<clus scale="   96.643">  2  5  1 -1</clus>
<clus scale="  105.439">  1  9  2 -1</clus>
<clus scale="  105.439">  1  5  2 -1</clus>
</clustering>
</event>
<event>
10    4  0.2977685E-005  0.1101427E+03  0.7546771E-02  0.1264596E+00
         -1   -1    0    0    0  501 -0.00000000000E+00  0.00000000000E+00  0.18868219266E+03  0.18868219266E+03  0.00000000000E+00 0.  1.
         21   -1    0    0  503  502  0.00000000000E+00 -0.00000000000E+00 -0.12999258903E+03  0.12999258903E+03  0.00000000000E+00 0. -1.
         24    2    1    2    0    0 -0.67308449421E+01 -0.60130671553E+02  0.46579087283E+02  0.11084964295E+03  0.80355647182E+02 0.  0.
         23    2    1    2    0    0  0.46049586675E+02  0.51858739539E+02  0.54232200806E+02  0.12682274734E+03  0.91285181382E+02 0.  0.
        -11    1    3    3    0    0  0.20384854625E+02 -0.27002346797E+02  0.57457455779E+02  0.66678544189E+02  0.00000000000E+00 0.  1.
         12    1    3    3    0    0 -0.27115699567E+02 -0.33128324757E+02 -0.10878368496E+02  0.44171098756E+02  0.00000000000E+00 0. -1.
        -13    1    4    4    0    0 -0.27367465181E+02  0.14741374529E+02  0.66557795544E+01  0.31789710205E+02  0.00000000000E+00 0. -1.
         13    1    4    4    0    0  0.73417051857E+02  0.37117365010E+02  0.47576421252E+02  0.95033037138E+02  0.00000000000E+00 0.  1.
         21    1    1    2  503  501 -0.37014323784E+02 -0.16079466814E+02 -0.11802311223E+02  0.42046450129E+02  0.00000000000E+00 0. -1.
         -2    1    1    2    0  502 -0.23044179491E+01  0.24351398829E+02 -0.30319373233E+02  0.38955941270E+02  0.00000000000E+00 0.  1.
<scales pt_clust_5="13000.00000" pt_clust_6="13000.00000" pt_clust_7="13000.00000" pt_clust_8="13000.00000" pt_clust_9="38.77317" pt_clust_10="24.46019"></scales>
<clustering>
<clus scale="   24.460">  2 10  1 -1</clus>
<clus scale="   38.773">  2  9  1 -1</clus>
<clus scale="   80.356">  5  6 -1 -1</clus>
<clus scale="   91.285">  7  8 -1 -1</clus>
<clus scale="  101.269">  1  5  2 -1</clus>
<clus scale="   24.460">  2  5  1 -1</clus>
</clustering>
</event>
<event>
10    4  0.2977685E-005  0.2832880E+03  0.7546771E-02  0.1093907E+00
         21   -1    0    0  501  502  0.00000000000E+00  0.00000000000E+00  0.78581559695E+02  0.78581559695E+02  0.00000000000E+00 0. -1.
          2   -1    0    0  503    0 -0.00000000000E+00 -0.00000000000E+00 -0.11176319069E+04  0.11176319069E+04  0.00000000000E+00 0. -1.
         24    2    1    2    0    0  0.11971545890E+03  0.12167931077E+03 -0.15140974967E+03  0.24200822728E+03  0.80656208745E+02 0.  0.
         23    2    1    2    0    0  0.15743552173E+02  0.15129168192E+02 -0.12415304135E+03  0.15517444357E+03  0.90489662922E+02 0.  0.
        -13    1    3    3    0    0  0.13484308784E+02  0.52405003802E+02 -0.79646338733E+02  0.96289408974E+02  0.00000000000E+00 0.  1.
         14    1    3    3    0    0  0.10623115011E+03  0.69274306967E+02 -0.71763410934E+02  0.14571881831E+03  0.00000000000E+00 0. -1.
        -11    1    4    4    0    0  0.42117399379E+02  0.38916636236E+02 -0.81847306335E+02  0.99936787324E+02  0.00000000000E+00 0.  1.
         11    1    4    4    0    0 -0.26373847206E+02 -0.23787468044E+02 -0.42305735011E+02  0.55237656243E+02  0.00000000000E+00 0. -1.
         21    1    1    2  503  502  0.21504417861E+02 -0.39087076487E+02 -0.23331290033E+03  0.23753978403E+03  0.00000000000E+00 0. -1.
          1    1    1    2  501    0 -0.15696342893E+03 -0.97721402475E+02 -0.53017465585E+03  0.56149101171E+03  0.00000000000E+00 0. -1.
<scales pt_clust_5="13000.00000" pt_clust_6="13000.00000" pt_clust_7="13000.00000" pt_clust_8="13000.00000" pt_clust_9="44.61210" pt_clust_10="188.41076"></scales>
<clustering>
<clus scale="   44.612">  2  9  1 -1</clus>
<clus scale="   80.656">  5  6 -1 -1</clus>
<clus scale="   90.490">  7  8 -1 -1</clus>
<clus scale="   90.710">  5  7 -1 -1</clus>
<clus scale="  188.411">  1 10  2 -1</clus>
<clus scale="  188.411">  1  5  2 -1</clus>
</clustering>
</event>
<event>
10    4  0.2977685E-005  0.1165732E+03  0.7546771E-02  0.1253311E+00
          2   -1    0    0  503    0 -0.00000000000E+00  0.00000000000E+00  0.91413454995E+02  0.91413454995E+02  0.00000000000E+00 0. -1.
         21   -1    0    0  501  502  0.00000000000E+00 -0.00000000000E+00 -0.48729524728E+03  0.48729524728E+03  0.00000000000E+00 0. -1.
         24    2    1    2    0    0 -0.58500632616E+02 -0.30077284611E+02 -0.12283843485E+03  0.16124608300E+03  0.81142166234E+02 0.  0.
         23    2    1    2    0    0  0.97547204648E+02 -0.57819921295E+02 -0.22618844876E+03  0.26984202979E+03  0.93781161521E+02 0.  0.
        -13    1    3    3    0    0 -0.51116806327E+01 -0.46463117567E+02 -0.71273246170E+02  0.85233949765E+02  0.00000000000E+00 0.  1.
         14    1    3    3    0    0 -0.53388951983E+02  0.16385832956E+02 -0.51565188675E+02  0.76012133233E+02  0.00000000000E+00 0. -1.
        -13    1    4    4    0    0  0.24438066356E+02  0.24405204313E+02 -0.77717193047E+02  0.85045841637E+02  0.00000000000E+00 0.  1.
         13    1    4    4    0    0  0.73109138292E+02 -0.82225125608E+02 -0.14847125571E+03  0.18479618815E+03  0.00000000000E+00 0. -1.
         21    1    1    2  503  502  0.34712135716E+02  0.23920260436E+02 -0.17706809646E+02  0.45723542439E+02  0.00000000000E+00 0. -1.
          1    1    1    2  501    0 -0.73758707748E+02  0.63976945470E+02 -0.29148099040E+02  0.10189704705E+03  0.00000000000E+00 0. -1.
<scales pt_clust_5="13000.00000" pt_clust_6="13000.00000" pt_clust_7="13000.00000" pt_clust_8="13000.00000" pt_clust_9="42.15580" pt_clust_10="94.64576"></scales>
<clustering>
<clus scale="   42.156">  1  9  2 -1</clus>
<clus scale="   81.142">  5  6 -1 -1</clus>
<clus scale="   93.781">  7  8 -1 -1</clus>
<clus scale="   94.646">  2 10  1 -1</clus>
<clus scale="  106.670">  1  5  2 -1</clus>
<clus scale="   94.646">  2  5  1 -1</clus>
</clustering>
</event>
<event>
10    4  0.2977685E-005  0.1300770E+03  0.7546771E-02  0.1233693E+00
          2   -1    0    0  503    0 -0.00000000000E+00  0.00000000000E+00  0.30412421497E+03  0.30412421497E+03  0.00000000000E+00 0. -1.
         21   -1    0    0  501  502  0.00000000000E+00 -0.00000000000E+00 -0.46309603759E+03  0.46309603759E+03  0.00000000000E+00 0. -1.
         23    2    1    2    0    0 -0.24034280276E+02 -0.80194690339E+02  0.27058662740E+03  0.30083523919E+03  0.10137003118E+03 0.  0.
         24    2    1    2    0    0 -0.22655030898E+01  0.44757965041E+02 -0.26090674888E+03  0.27650621628E+03  0.79843272051E+02 0.  0.
        -11    1    4    4    0    0  0.18465973138E+02  0.57233754622E+02 -0.12811234316E+03  0.14152550053E+03  0.00000000000E+00 0.  1.
         12    1    4    4    0    0 -0.20731476228E+02 -0.12475789581E+02 -0.13279440573E+03  0.13498071575E+03  0.00000000000E+00 0. -1.
        -11    1    3    3    0    0 -0.26091355365E+02 -0.27350791399E+02  0.16397563613E+02  0.41203212343E+02  0.00000000000E+00 0.  1.
         11    1    3    3    0    0  0.20570750892E+01 -0.52843898940E+02  0.25418906379E+03  0.25963202684E+03  0.00000000000E+00 0. -1.
         21    1    1    2  503  502  0.79541827108E+01 -0.18517668528E+02 -0.12652184082E+02  0.23796025558E+02  0.00000000000E+00 0. -1.
          1    1    1    2  501    0  0.18345600655E+02  0.53954393826E+02 -0.15599951706E+03  0.16608277153E+03  0.00000000000E+00 0. -1.
<scales pt_clust_5="13000.00000" pt_clust_6="13000.00000" pt_clust_7="13000.00000" pt_clust_8="13000.00000" pt_clust_9="20.15374" pt_clust_10="51.79929"></scales>
<clustering>
<clus scale="   20.154">  2  9  1 -1</clus>
<clus scale="   51.799">  2 10  1 -1</clus>
<clus scale="   79.843">  5  6 -1 -1</clus>
<clus scale="  101.370">  7  8 -1 -1</clus>
<clus scale="  114.101">  2  5  1 -1</clus>
<clus scale="   20.154">  2  5  1 -1</clus>
</clustering>
</event>
<event>
10    4  0.2977685E-005  0.2502371E+03  0.7546771E-02  0.1126399E+00
          2   -1    0    0  503    0 -0.00000000000E+00  0.00000000000E+00  0.79369457137E+03  0.79369457137E+03  0.00000000000E+00 0. -1.
         21   -1    0    0  501  502  0.00000000000E+00 -0.00000000000E+00 -0.21949362098E+03  0.21949362098E+03  0.00000000000E+00 0. -1.
         24    2    1    2    0    0 -0.16091758478E+03 -0.51957557012E+02  0.23834347587E+03  0.30329014854E+03  0.81137197924E+02 0.  0.
         23    2    1    2    0    0  0.23879112218E+03 -0.13299975481E+03  0.28860034178E+02  0.28783273269E+03  0.85467219560E+02 0.  0.
        -13    1    3    3    0    0 -0.97619284063E+02 -0.36433771818E+02  0.77847790946E+02  0.13006622507E+03  0.00000000000E+00 0.  1.
         14    1    3    3    0    0 -0.63298300720E+02 -0.15523785194E+02  0.16049568492E+03  0.17322392346E+03  0.00000000000E+00 0. -1.
        -13    1    4    4    0    0  0.19292564772E+03 -0.66226850758E+02  0.77679750047E+01  0.20412408663E+03  0.00000000000E+00 0. -1.
         13    1    4    4    0    0  0.45865474467E+02 -0.66772904053E+02  0.21092059173E+02  0.83708646052E+02  0.00000000000E+00 0.  1.
         21    1    1    2  503  502  0.21186123756E+02  0.40077049927E+00  0.17104258322E+03  0.17235016023E+03  0.00000000000E+00 0. -1.
          1    1    1    2  501    0 -0.99059661156E+02  0.18455654132E+03  0.13595485711E+03  0.24971515089E+03  0.00000000000E+00 0. -1.
<scales pt_clust_5="13000.00000" pt_clust_6="13000.00000" pt_clust_7="13000.00000" pt_clust_8="13000.00000" pt_clust_9="21.18991" pt_clust_10="235.18929"></scales>
<clustering>
<clus scale="   21.190">  1  9  2 -1</clus>
<clus scale="   81.137">  5  6 -1 -1</clus>
<clus scale="   85.467">  7  8 -1 -1</clus>
<clus scale="  179.654">  1  5  2 -1</clus>
<clus scale="  235.189">  2 10  1 -1</clus>
<clus scale="  235.189">  2  5  1 -1</clus>
</clustering>
</event>
<event>
10    4  0.2977685E-005  0.1606463E+03  0.7546771E-02  0.1189152E+00
         21   -1    0    0  503  502  0.00000000000E+00  0.00000000000E+00  0.44022181647E+03  0.44022181647E+03  0.00000000000E+00 0. -1.
         -1   -1    0    0    0  501 -0.00000000000E+00 -0.00000000000E+00 -0.45082902239E+03  0.45082902239E+03  0.00000000000E+00 0.  1.
         23    2    1    2    0    0  0.75872681978E+02 -0.16213751242E+03 -0.29700887319E+03  0.35814014260E+03  0.89469850674E+02 0.  0.
         24    2    1    2    0    0 -0.12724910019E+03  0.12734363482E+03  0.27016170409E+03  0.33478864464E+03  0.81776252054E+02 0.  0.
        -13    1    4    4    0    0  0.77863859212E+01  0.30662965177E+02  0.44685085318E+02  0.54750361543E+02  0.00000000000E+00 0.  1.
         14    1    4    4    0    0 -0.13503548611E+03  0.96680669639E+02  0.22547661877E+03  0.28003828310E+03  0.00000000000E+00 0. -1.
        -11    1    3    3    0    0 -0.50806100747E+01 -0.60670213219E+02 -0.48752205615E+02  0.77996569945E+02  0.00000000000E+00 0. -1.
         11    1    3    3    0    0  0.80953292052E+02 -0.10146729920E+03 -0.24825666758E+03  0.28014357265E+03  0.00000000000E+00 0.  1.
         21    1    1    2  503  501 -0.23674761553E+02  0.51699308263E+02 -0.64915345451E+02  0.86297826649E+02  0.00000000000E+00 0. -1.
         -2    1    1    2    0  502  0.75051179761E+02 -0.16905430662E+02  0.81155308632E+02  0.11182422496E+03  0.00000000000E+00 0.  1.
<scales pt_clust_5="13000.00000" pt_clust_6="13000.00000" pt_clust_7="13000.00000" pt_clust_8="13000.00000" pt_clust_9="56.86223" pt_clust_10="75.54607"></scales>
<clustering>
<clus scale="   56.862">  2  9  1 -1</clus>
<clus scale="   75.546">  1 10  2 -1</clus>
<clus scale="   81.776">  5  6 -1 -1</clus>
<clus scale="   89.470">  7  8 -1 -1</clus>
<clus scale="  156.492">  1  5  2 -1</clus>
<clus scale="   75.546">  1  5  2 -1</clus>
</clustering>
</event>
<event>
10    4  0.2977685E-005  0.1582570E+03  0.7546771E-02  0.1195486E+00
         21   -1    0    0  501  502  0.00000000000E+00  0.00000000000E+00  0.10144751774E+03  0.10144751774E+03  0.00000000000E+00 0. -1.
          4   -1    0    0  503    0 -0.00000000000E+00 -0.00000000000E+00 -0.66470260294E+03  0.66470260294E+03  0.00000000000E+00 0. -1.
         23    2    1    2    0    0 -0.39556568243E+02 -0.80873581028E+02 -0.34513282469E+03  0.37220613176E+03  0.10637424331E+03 0.  0.
         24    2    1    2    0    0  0.78061099475E+02  0.59433374280E+02 -0.23925212842E+01  0.12718712330E+03  0.80901044152E+02 0.  0.
        -13    1    4    4    0    0  0.93724507891E+00  0.48005924120E+02 -0.93302518062E+01  0.48913196355E+02  0.00000000000E+00 0.  1.
         14    1    4    4    0    0  0.77123854396E+02  0.11427450161E+02  0.69377305219E+01  0.78273926941E+02  0.00000000000E+00 0. -1.
        -13    1    3    3    0    0  0.19999860919E+02  0.14575773314E+02 -0.90568929375E+02  0.93889182405E+02  0.00000000000E+00 0.  1.
         13    1    3    3    0    0 -0.59556429163E+02 -0.95449354342E+02 -0.25456389531E+03  0.27831694935E+03  0.00000000000E+00 0. -1.
         21    1    1    2  503  502 -0.85737391595E+02  0.46764599651E+01 -0.19395507871E+03  0.21211162663E+03  0.00000000000E+00 0. -1.
          3    1    1    2  501    0  0.47232860364E+02  0.16763746783E+02 -0.21774660511E+02  0.54645238995E+02  0.00000000000E+00 0. -1.
<scales pt_clust_5="13000.00000" pt_clust_6="13000.00000" pt_clust_7="13000.00000" pt_clust_8="13000.00000" pt_clust_9="80.95219" pt_clust_10="50.11952"></scales>
<clustering>
<clus scale="   50.120">  1 10  2 -1</clus>
<clus scale="   80.901">  5  6 -1 -1</clus>
<clus scale="   80.952">  2  9  1 -1</clus>
<clus scale="  106.374">  7  8 -1 -1</clus>
<clus scale="  142.390">  1  5  2 -1</clus>
<clus scale="   50.120">  1  5  2 -1</clus>
</clustering>
</event>
<event>
10    4  0.2977685E-005  0.9580291E+02  0.7546771E-02  0.1295281E+00
         21   -1    0    0  501  502  0.00000000000E+00  0.00000000000E+00  0.36063489367E+02  0.36063489367E+02  0.00000000000E+00 0. -1.
          2   -1    0    0  503    0 -0.00000000000E+00 -0.00000000000E+00 -0.13784213544E+04  0.13784213544E+04  0.00000000000E+00 0. -1.
         24    2    1    2    0    0 -0.65861327162E+02  0.52542182752E+02 -0.83094395710E+03  0.83905810677E+03  0.80325906836E+02 0.  0.
         23    2    1    2    0    0  0.16550647741E+02 -0.35968900970E+02 -0.64077585309E+02  0.11807040231E+03  0.90923028904E+02 0.  0.
        -11    1    3    3    0    0  0.11887999879E+02  0.26264063908E+02 -0.12103829105E+03  0.12442424802E+03  0.00000000000E+00 0.  1.
         12    1    3    3    0    0 -0.77749327041E+02  0.26278118843E+02 -0.70990566605E+03  0.71463385875E+03  0.00000000000E+00 0. -1.
        -11    1    4    4    0    0  0.96923505016E+01 -0.58944125628E+02 -0.12269146733E+02  0.60982649712E+02  0.00000000000E+00 0. -1.
         11    1    4    4    0    0  0.68582972391E+01  0.22975224658E+02 -0.51808438576E+02  0.57087752599E+02  0.00000000000E+00 0.  1.
         21    1    1    2  503  502  0.57331315118E+02 -0.39517376869E+02 -0.36150651989E+03  0.36815141815E+03  0.00000000000E+00 0. -1.
          1    1    1    2  501    0 -0.80206356970E+01  0.22944095088E+02 -0.85829802774E+02  0.89204916572E+02  0.00000000000E+00 0. -1.
<scales pt_clust_5="13000.00000" pt_clust_6="13000.00000" pt_clust_7="13000.00000" pt_clust_8="13000.00000" pt_clust_9="67.74859" pt_clust_10="24.30561"></scales>
<clustering>
<clus scale="   24.306">  1 10  2 -1</clus>
<clus scale="   67.749">  2  9  1 -1</clus>
<clus scale="   80.326">  5  6 -1 -1</clus>
<clus scale="   85.811">  2  5  1 -1</clus>
<clus scale="   90.923">  7  8 -1 -1</clus>
<clus scale="   24.306">  1  5  2 -1</clus>
</clustering>
</event>
<event>
10    4  0.2977685E-005  0.1636109E+03  0.7546771E-02  0.1213934E+00
         21   -1    0    0  503  502  0.00000000000E+00  0.00000000000E+00  0.58666711940E+03  0.58666711940E+03  0.00000000000E+00 0.  1.
          2   -1    0    0  502    0 -0.00000000000E+00 -0.00000000000E+00 -0.10337363710E+03  0.10337363710E+03  0.00000000000E+00 0. -1.
         24    2    1    2    0    0 -0.54944822039E+02  0.18913714411E+02  0.65158452775E+02  0.11134475044E+03  0.69104033310E+02 0.  0.
         23    2    1    2    0    0 -0.13104436248E+03  0.45940525876E+02  0.27308883129E+03  0.32048052226E+03  0.94059016142E+02 0.  0.
        -13    1    3    3    0    0 -0.28974929234E+02  0.17823323481E+02 -0.69271629799E+01  0.34716033342E+02  0.00000000000E+00 0.  1.
         14    1    3    3    0    0 -0.25969892805E+02  0.10903909306E+01  0.72085615755E+02  0.76628717094E+02  0.00000000000E+00 0. -1.
        -11    1    4    4    0    0 -0.22031561768E+02 -0.70140934834E+01  0.13407864819E+03  0.13605760222E+03  0.00000000000E+00 0. -1.
         11    1    4    4    0    0 -0.10901280071E+03  0.52954619359E+02  0.13901018309E+03  0.18442292003E+03  0.00000000000E+00 0.  1.
         21    1    1    2  503  501  0.27902201156E+02 -0.26021892971E+02  0.68324276267E+02  0.78255213696E+02  0.00000000000E+00 0.  1.
          1    1    1    2  501    0  0.15808698336E+03 -0.38832347316E+02  0.76721921967E+02  0.17996027011E+03  0.00000000000E+00 0. -1.
<scales pt_clust_5="13000.00000" pt_clust_6="13000.00000" pt_clust_7="13000.00000" pt_clust_8="13000.00000" pt_clust_9="38.15327" pt_clust_10="133.87103"></scales>
<clustering>
<clus scale="   38.153">  1  9  2 -1</clus>
<clus scale="   69.104">  5  6 -1 -1</clus>
<clus scale="   86.595">  2  5  1 -1</clus>
<clus scale="   94.059">  7  8 -1 -1</clus>
<clus scale="  133.871">  1 10  2 -1</clus>
<clus scale="   38.153">  1  5  2 -1</clus>
</clustering>
</event>
<event>
10    4  0.2977685E-005  0.2857815E+03  0.7546771E-02  0.1093027E+00
          2   -1    0    0  503    0 -0.00000000000E+00  0.00000000000E+00  0.24031585530E+03  0.24031585530E+03  0.00000000000E+00 0. -1.
         21   -1    0    0  501  502  0.00000000000E+00 -0.00000000000E+00 -0.85709514619E+03  0.85709514619E+03  0.00000000000E+00 0.  1.
         23    2    1    2    0    0  0.14947530112E+03  0.26241699640E+03 -0.11260441299E-01  0.31529701811E+03  0.90590638910E+02 0.  0.
         24    2    1    2    0    0 -0.14059501226E+03 -0.20826908825E+03 -0.57091821913E+03  0.62878134998E+03  0.79217438514E+02 0.  0.
        -13    1    4    4    0    0 -0.58223454658E+02 -0.13179635314E+03 -0.39030532816E+03  0.41605107687E+03  0.00000000000E+00 0.  1.
         14    1    4    4    0    0 -0.82371557601E+02 -0.76472735104E+02 -0.18061289097E+03  0.21273027312E+03  0.00000000000E+00 0. -1.
        -13    1    3    3    0    0  0.21802466107E+02  0.58373380770E+02  0.35936747649E+02  0.71932252449E+02  0.00000000000E+00 0.  1.
         13    1    3    3    0    0  0.12767283501E+03  0.20404361563E+03 -0.35948008090E+02  0.24336476566E+03  0.00000000000E+00 0. -1.
         21    1    1    2  503  502  0.38880651234E+02 -0.67616406075E+02  0.99833009996E+01  0.78634278210E+02  0.00000000000E+00 0. -1.
          1    1    1    2  501    0 -0.47760940096E+02  0.13468497918E+02 -0.55833112320E+02  0.74698355178E+02  0.00000000000E+00 0. -1.
<scales pt_clust_5="13000.00000" pt_clust_6="13000.00000" pt_clust_7="13000.00000" pt_clust_8="13000.00000" pt_clust_9="76.47455" pt_clust_10="49.62366"></scales>
<clustering>
<clus scale="   49.624">  2 10  1 -1</clus>
<clus scale="   76.475">  1  9  2 -1</clus>
<clus scale="   79.217">  5  6 -1 -1</clus>
<clus scale="   90.591">  7  8 -1 -1</clus>
<clus scale="  282.382">  2  5  1 -1</clus>
<clus scale="   49.624">  2  5  1 -1</clus>
</clustering>
</event>
<event>
10    4  0.3692985E-005  0.1797349E+03  0.7546771E-02  0.1168925E+00
         21   -1    0    0  503  502  0.00000000000E+00  0.00000000000E+00  0.46749667135E+03  0.46749667135E+03  0.00000000000E+00 0.  1.
         -1   -1    0    0    0  501 -0.00000000000E+00 -0.00000000000E+00 -0.50056700494E+03  0.50056700494E+03  0.00000000000E+00 0.  1.
         23    2    1    2    0    0  0.55457007937E+02  0.14686620369E+03 -0.40661582458E+03  0.44467921127E+03  0.88079569811E+02 0.  0.
         24    2    1    2    0    0  0.59987823689E+02 -0.17705598994E+03  0.22434064141E+03  0.30294778409E+03  0.80630477680E+02 0.  0.
        -13    1    4    4    0    0  0.51696348908E+02 -0.17110845165E+03  0.16671899794E+03  0.24442961971E+03  0.00000000000E+00 0.  1.
         14    1    4    4    0    0  0.82914747816E+01 -0.59475382827E+01  0.57621643470E+02  0.58518164376E+02  0.00000000000E+00 0. -1.
        -11    1    3    3    0    0  0.64960386808E+02  0.65307668553E+02 -0.27006905227E+03  0.28534581900E+03  0.00000000000E+00 0.  1.
         11    1    3    3    0    0 -0.95033788705E+01  0.81558535133E+02 -0.13654677231E+03  0.15933339227E+03  0.00000000000E+00 0. -1.
         21    1    1    2  503  501 -0.41048559461E+02  0.76365466182E+01 -0.10292353621E+02  0.43002716439E+02  0.00000000000E+00 0. -1.
         -2    1    1    2    0  502 -0.74396272165E+02  0.22553239632E+02  0.15949720320E+03  0.17743396450E+03  0.00000000000E+00 0.  1.
<scales pt_clust_5="13000.00000" pt_clust_6="13000.00000" pt_clust_7="13000.00000" pt_clust_8="13000.00000" pt_clust_9="41.75286" pt_clust_10="78.52502"></scales>
<clustering>
<clus scale="   41.753">  2  9  1 -1</clus>
<clus scale="   78.525">  1 10  2 -1</clus>
<clus scale="   80.630">  5  6 -1 -1</clus>
<clus scale="   88.080">  7  8 -1 -1</clus>
<clus scale="  176.204">  1  5  2 -1</clus>
<clus scale="   78.525">  1  5  2 -1</clus>
</clustering>
</event>
<event>
10    4  0.2977685E-005  0.1818721E+03  0.7546771E-02  0.1167292E+00
         -1   -1    0    0    0  501 -0.00000000000E+00  0.00000000000E+00  0.75050994947E+03  0.75050994947E+03  0.00000000000E+00 0.  1.
         21   -1    0    0  503  502  0.00000000000E+00 -0.00000000000E+00 -0.24372228978E+03  0.24372228978E+03  0.00000000000E+00 0.  1.
         24    2    1    2    0    0 -0.92351758610E+02 -0.15220284487E+03  0.10888327486E+03  0.22392412632E+03  0.81190476672E+02 0.  0.
         23    2    1    2    0    0  0.71642977621E+02  0.84806488749E+02 -0.14995751302E+03  0.20810683072E+03  0.92175596047E+02 0.  0.
        -11    1    3    3    0    0 -0.44348251647E+02 -0.12748765403E+03  0.10263890221E+03  0.16957185380E+03  0.00000000000E+00 0.  1.
         12    1    3    3    0    0 -0.48003506963E+02 -0.24715190841E+02  0.62443726459E+01  0.54352272526E+02  0.00000000000E+00 0. -1.
        -13    1    4    4    0    0  0.19604963253E+02  0.22070162922E+02  0.78027065801E+01  0.30534061399E+02  0.00000000000E+00 0. -1.
         13    1    4    4    0    0  0.52038014368E+02  0.62736325827E+02 -0.15776021960E+03  0.17757276932E+03  0.00000000000E+00 0.  1.
         21    1    1    2  503  501  0.47694675090E+02  0.36512812541E+01  0.12749299816E+03  0.13617113669E+03  0.00000000000E+00 0. -1.
         -2    1    1    2    0  502 -0.26985894101E+02  0.63745074866E+02  0.42036889970E+03  0.42603014551E+03  0.00000000000E+00 0.  1.
<scales pt_clust_5="13000.00000" pt_clust_6="13000.00000" pt_clust_7="13000.00000" pt_clust_8="13000.00000" pt_clust_9="47.83423" pt_clust_10="66.48231"></scales>
<clustering>
<clus scale="   47.834">  1  9  2 -1</clus>
<clus scale="   66.482">  2 10  1 -1</clus>
<clus scale="   81.190">  5  6 -1 -1</clus>
<clus scale="   92.176">  7  8 -1 -1</clus>
<clus scale="  176.559">  1  5  2 -1</clus>
<clus scale="   66.482">  2  5  1 -1</clus>
</clustering>
</event>
<event>
10    4  0.2977685E-005  0.1819600E+03  0.7546771E-02  0.1187271E+00
         21   -1    0    0  503  502  0.00000000000E+00  0.00000000000E+00  0.33748085406E+03  0.33748085406E+03  0.00000000000E+00 0. -1.
         -3   -1    0    0    0  501 -0.00000000000E+00 -0.00000000000E+00 -0.77702800585E+03  0.77702800585E+03  0.00000000000E+00 0.  1.
         24    2    1    2    0    0 -0.10266112562E+03 -0.10909038304E+03 -0.45779677733E+03  0.48836109160E+03  0.80490049537E+02 0.  0.
         23    2    1    2    0    0 -0.47381595890E+02 -0.61321251814E+02  0.41414526454E+02  0.12363562533E+03  0.86978694498E+02 0.  0.
        -13    1    3    3    0    0 -0.54346856651E+02 -0.10392549799E+03 -0.26981244232E+03  0.29419864716E+03  0.00000000000E+00 0.  1.
         14    1    3    3    0    0 -0.48314268973E+02 -0.51648850495E+01 -0.18798433501E+03  0.19416244444E+03  0.00000000000E+00 0. -1.
        -11    1    4    4    0    0 -0.19494836238E+01  0.20413917995E+02 -0.18676142479E+01  0.20591661353E+02  0.00000000000E+00 0.  1.
         11    1    4    4    0    0 -0.45432112266E+02 -0.81735169809E+02  0.43282140702E+02  0.10304396398E+03  0.00000000000E+00 0. -1.
         21    1    1    2  503  501  0.88893786425E+02  0.18523328693E+03 -0.21693178170E+03  0.29878566526E+03  0.00000000000E+00 0.  1.
         -4    1    1    2    0  502  0.61148935088E+02 -0.14821652075E+02  0.19376688079E+03  0.20372647772E+03  0.00000000000E+00 0.  1.
<scales pt_clust_5="13000.00000" pt_clust_6="13000.00000" pt_clust_7="13000.00000" pt_clust_8="13000.00000" pt_clust_9="163.18941" pt_clust_10="62.91958"></scales>
<clustering>
<clus scale="   62.920">  1 10  2 -1</clus>
<clus scale="   80.490">  5  6 -1 -1</clus>
<clus scale="   86.979">  7  8 -1 -1</clus>
<clus scale="  112.275">  1  7  2 -1</clus>
<clus scale="  163.189">  1  9  2 -1</clus>
<clus scale="   62.920">  1  5  2 -1</clus>
</clustering>
</event>
<event>
10    4  0.2977685E-005  0.9837689E+02  0.7546771E-02  0.1287940E+00
         -1   -1    0    0    0  501 -0.00000000000E+00  0.00000000000E+00  0.80474492466E+02  0.80474492466E+02  0.00000000000E+00 0.  1.
         21   -1    0    0  503  502  0.00000000000E+00 -0.00000000000E+00 -0.39947428633E+03  0.39947428633E+03  0.00000000000E+00 0. -1.
         23    2    1    2    0    0 -0.32490748089E+02 -0.65673049118E+01 -0.33383290216E+02  0.10150965743E+03  0.89949920955E+02 0.  0.
         24    2    1    2    0    0  0.17840986492E+02  0.68356398405E+01 -0.30034884441E+03  0.31184930177E+03  0.81703928331E+02 0.  0.
        -13    1    4    4    0    0  0.41717515015E+02  0.16746272456E+02 -0.97550874060E+02  0.10741024965E+03  0.00000000000E+00 0.  1.
         14    1    4    4    0    0 -0.23876528522E+02 -0.99106326154E+01 -0.20279797035E+03  0.20443905212E+03  0.00000000000E+00 0. -1.
        -11    1    3    3    0    0 -0.22685771651E+02 -0.40119491317E+02  0.85942243444E+01  0.46883669982E+02  0.00000000000E+00 0.  1.
         11    1    3    3    0    0 -0.98049764373E+01  0.33552186405E+02 -0.41977514560E+02  0.54625987443E+02  0.00000000000E+00 0. -1.
         21    1    1    2  503  501 -0.20089120641E+02 -0.56670197076E+00  0.23339011513E+02  0.30799405476E+02  0.00000000000E+00 0. -1.
         -2    1    1    2    0  502  0.34738882237E+02  0.29836704201E+00 -0.86066707536E+01  0.35790414128E+02  0.00000000000E+00 0.  1.
<scales pt_clust_5="13000.00000" pt_clust_6="13000.00000" pt_clust_7="13000.00000" pt_clust_8="13000.00000" pt_clust_9="20.09711" pt_clust_10="29.62653"></scales>
<clustering>
<clus scale="   20.097">  1  9  2 -1</clus>
<clus scale="   29.627">  2 10  1 -1</clus>
<clus scale="   81.704">  5  6 -1 -1</clus>
<clus scale="   89.950">  7  8 -1 -1</clus>
<clus scale="   90.899">  2  5  1 -1</clus>
<clus scale="   29.627">  2  5  1 -1</clus>
</clustering>
</event>
<event>
10    4  0.2977685E-005  0.2944185E+03  0.7546771E-02  0.1088377E+00
          2   -1    0    0  503    0 -0.00000000000E+00  0.00000000000E+00  0.13494937631E+04  0.13494937631E+04  0.00000000000E+00 0. -1.
         21   -1    0    0  501  502  0.00000000000E+00 -0.00000000000E+00 -0.10916035958E+03  0.10916035958E+03  0.00000000000E+00 0.  1.
         23    2    1    2    0    0  0.23005966425E+03 -0.38295973787E+02  0.34637318189E+03  0.42654698530E+03  0.87028264462E+02 0.  0.
         24    2    1    2    0    0 -0.33835783192E+03  0.19591505910E+02  0.47795480336E+03  0.59114963858E+03  0.78404410671E+02 0.  0.
        -11    1    4    4    0    0 -0.33229244256E+03  0.98085428687E+01  0.47404474235E+03  0.57899299878E+03  0.00000000000E+00 0.  1.
         12    1    4    4    0    0 -0.60653893655E+01  0.97829630414E+01  0.39100610116E+01  0.12156639796E+02  0.00000000000E+00 0. -1.
        -11    1    3    3    0    0  0.47482886728E+02  0.23821082532E+02  0.10424851982E+03  0.11700351443E+03  0.00000000000E+00 0.  1.
         11    1    3    3    0    0  0.18257677752E+03 -0.62117056319E+02  0.24212466207E+03  0.30954347087E+03  0.00000000000E+00 0. -1.
         21    1    1    2  503  502  0.59620591238E+02  0.39715588178E+02  0.11625724569E+03  0.13655654514E+03  0.00000000000E+00 0.  1.
          1    1    1    2  501    0  0.48677576438E+02 -0.21011120302E+02  0.29974817257E+03  0.30440095365E+03  0.00000000000E+00 0. -1.
<scales pt_clust_5="13000.00000" pt_clust_6="13000.00000" pt_clust_7="13000.00000" pt_clust_8="13000.00000" pt_clust_9="74.49964" pt_clust_10="53.01864"></scales>
<clustering>
<clus scale="   53.019">  2 10  1 -1</clus>
<clus scale="   74.500">  1  9  2 -1</clus>
<clus scale="   78.404">  5  6 -1 -1</clus>
<clus scale="   87.028">  7  8 -1 -1</clus>
<clus scale="  291.986">  2  5  1 -1</clus>
<clus scale="   53.019">  2  5  1 -1</clus>
</clustering>
</event>
<event>
10    4  0.2977685E-005  0.1646170E+03  0.7546771E-02  0.1208168E+00
          2   -1    0    0  503    0 -0.00000000000E+00  0.00000000000E+00  0.13931582760E+04  0.13931582760E+04  0.00000000000E+00 0. -1.
         21   -1    0    0  501  502  0.00000000000E+00 -0.00000000000E+00 -0.56035439659E+02  0.56035439659E+02  0.00000000000E+00 0. -1.
         24    2    1    2    0    0 -0.29320015895E+02  0.35511033462E+02  0.18765736206E+03  0.20917260252E+03  0.80107398416E+02 0.  0.
         23    2    1    2    0    0  0.79058543763E+02  0.87871502485E+02  0.20678735364E+03  0.25510052240E+03  0.91343377479E+02 0.  0.
        -11    1    3    3    0    0 -0.24677953345E+02 -0.22337049309E+02  0.53624561725E+02  0.63115281615E+02  0.00000000000E+00 0.  1.
         12    1    3    3    0    0 -0.46420625493E+01  0.57848082771E+02  0.13403280033E+03  0.14605732090E+03  0.00000000000E+00 0. -1.
        -13    1    4    4    0    0  0.39076693228E+02  0.99775168232E+02  0.15801825776E+03  0.19092365473E+03  0.00000000000E+00 0. -1.
         13    1    4    4    0    0  0.39981850535E+02 -0.11903665747E+02  0.48769095882E+02  0.64176867667E+02  0.00000000000E+00 0.  1.
         21    1    1    2  503  502  0.27344294683E+02  0.69401003285E+02  0.18959862827E+03  0.20374456938E+03  0.00000000000E+00 0. -1.
          1    1    1    2  501    0 -0.77082822551E+02 -0.19278353923E+03  0.75307949238E+03  0.78117602138E+03  0.00000000000E+00 0. -1.
<scales pt_clust_5="13000.00000" pt_clust_6="13000.00000" pt_clust_7="13000.00000" pt_clust_8="13000.00000" pt_clust_9="74.59363" pt_clust_10="136.94952"></scales>
<clustering>
<clus scale="   74.594">  1  9  2 -1</clus>
<clus scale="   80.107">  5  6 -1 -1</clus>
<clus scale="   91.343">  7  8 -1 -1</clus>
<clus scale="   96.137">  1  5  2 -1</clus>
<clus scale="  136.950">  2 10  1 -1</clus>
<clus scale="  136.950">  2  5  1 -1</clus>
</clustering>
</event>
<event>
10    4  0.2977685E-005  0.1018144E+03  0.7546771E-02  0.1282716E+00
          2   -1    0    0  503    0 -0.00000000000E+00  0.00000000000E+00  0.24107559800E+03  0.24107559800E+03  0.00000000000E+00 0. -1.
         21   -1    0    0  501  502  0.00000000000E+00 -0.00000000000E+00 -0.14208141134E+03  0.14208141134E+03  0.00000000000E+00 0. -1.
         23    2    1    2    0    0  0.19972480910E+02  0.49804020628E+02  0.17111505002E+03  0.20158091450E+03  0.92060655460E+02 0.  0.
         24    2    1    2    0    0 -0.64240327250E+01 -0.24807049039E+02 -0.48576743947E+02  0.96510828988E+02  0.79359827249E+02 0.  0.
        -11    1    4    4    0    0 -0.25225732035E+02 -0.44226357900E+02 -0.14350698889E+02  0.52898495710E+02  0.00000000000E+00 0.  1.
         12    1    4    4    0    0  0.18801699310E+02  0.19419308861E+02 -0.34226045058E+02  0.43612333278E+02  0.00000000000E+00 0. -1.
        -11    1    3    3    0    0 -0.68636492892E+01  0.27924300974E+02  0.18546258910E+01  0.28815202648E+02  0.00000000000E+00 0.  1.
         11    1    3    3    0    0  0.26836130200E+02  0.21879719655E+02  0.16926042413E+03  0.17276571186E+03  0.00000000000E+00 0. -1.
         21    1    1    2  503  502 -0.23811489375E+02 -0.16848871699E+01  0.22270211916E+02  0.32646411897E+02  0.00000000000E+00 0.  1.
          1    1    1    2  501    0  0.10263041189E+02 -0.23312084420E+02 -0.45814331325E+02  0.52418853948E+02  0.00000000000E+00 0. -1.
<scales pt_clust_5="13000.00000" pt_clust_6="13000.00000" pt_clust_7="13000.00000" pt_clust_8="13000.00000" pt_clust_9="23.87103" pt_clust_10="25.34913"></scales>
<clustering>
<clus scale="   23.871">  1  9  2 -1</clus>
<clus scale="   25.349">  2 10  1 -1</clus>
<clus scale="   79.360">  5  6 -1 -1</clus>
<clus scale="   90.493">  2  5  1 -1</clus>
<clus scale="   92.061">  7  8 -1 -1</clus>
<clus scale="   25.349">  2  5  1 -1</clus>
</clustering>
</event>
<event>
10    4  0.2977685E-005  0.1121872E+03  0.7546771E-02  0.1260769E+00
         21   -1    0    0  501  502  0.00000000000E+00  0.00000000000E+00  0.12241159307E+03  0.12241159307E+03  0.00000000000E+00 0.  1.
          2   -1    0    0  503    0 -0.00000000000E+00 -0.00000000000E+00 -0.21943308430E+03  0.21943308430E+03  0.00000000000E+00 0. -1.
         23    2    1    2    0    0 -0.11079038113E+02 -0.66273245956E+02 -0.21423750767E+02  0.11543649232E+03  0.91387736851E+02 0.  0.
         24    2    1    2    0    0  0.12939731216E+02  0.63881744558E+02  0.79551140846E+01  0.10365972005E+03  0.80210596491E+02 0.  0.
        -11    1    4    4    0    0 -0.19969443783E+02  0.60556000154E+02  0.22376200497E+02  0.67575899464E+02  0.00000000000E+00 0.  1.
         12    1    4    4    0    0  0.32909174999E+02  0.33257444041E+01 -0.14421086412E+02  0.36083820588E+02  0.00000000000E+00 0. -1.
        -11    1    3    3    0    0  0.24672571174E+02 -0.13588873922E+02 -0.40172796311E+02  0.49063701718E+02  0.00000000000E+00 0. -1.
         11    1    3    3    0    0 -0.35751609288E+02 -0.52684372033E+02  0.18749045544E+02  0.66372790600E+02  0.00000000000E+00 0.  1.
         21    1    1    2  503  502 -0.21337657911E+02  0.13347858130E+02 -0.94549625986E+02  0.97842182804E+02  0.00000000000E+00 0. -1.
          1    1    1    2  501    0  0.19476964809E+02 -0.10956356733E+02  0.10996771440E+02  0.24906282202E+02  0.00000000000E+00 0. -1.
<scales pt_clust_5="13000.00000" pt_clust_6="13000.00000" pt_clust_7="13000.00000" pt_clust_8="13000.00000" pt_clust_9="24.81685" pt_clust_10="22.34712"></scales>
<clustering>
<clus scale="   22.347">  1 10  2 -1</clus>
<clus scale="   24.817">  2  9  1 -1</clus>
<clus scale="   80.211">  5  6 -1 -1</clus>
<clus scale="   91.388">  7  8 -1 -1</clus>
<clus scale="  103.286">  1  5  2 -1</clus>
<clus scale="   22.347">  1  5  2 -1</clus>
</clustering>
</event>
<event>
10    4  0.2977685E-005  0.1327656E+03  0.7546771E-02  0.1235849E+00
         21   -1    0    0  503  502  0.00000000000E+00  0.00000000000E+00  0.33915894771E+03  0.33915894771E+03  0.00000000000E+00 0.  1.
         -3   -1    0    0    0  501 -0.00000000000E+00 -0.00000000000E+00 -0.38370608362E+03  0.38370608362E+03  0.00000000000E+00 0.  1.
         24    2    1    2    0    0 -0.96511195599E+02  0.25766979284E+02 -0.14443629016E+03  0.19309668856E+03  0.80287864094E+02 0.  0.
         23    2    1    2    0    0 -0.31533309199E+02  0.62845640150E+02  0.86557039357E+02  0.14486686193E+03  0.92468170458E+02 0.  0.
        -11    1    3    3    0    0 -0.92912314212E+02  0.44052949861E+02 -0.14040084378E+03  0.17402803642E+03  0.00000000000E+00 0.  1.
         12    1    3    3    0    0 -0.35988813866E+01 -0.18285970577E+02 -0.40354463764E+01  0.19068652145E+02  0.00000000000E+00 0. -1.
        -13    1    4    4    0    0  0.22373620115E+02 -0.99835567327E+01  0.26883604109E+02  0.36372770749E+02  0.00000000000E+00 0. -1.
         13    1    4    4    0    0 -0.53906929314E+02  0.72829196883E+02  0.59673435249E+02  0.10849409118E+03  0.00000000000E+00 0.  1.
         21    1    1    2  503  501  0.92779124855E+02 -0.63369909648E+02 -0.16597282525E+03  0.20042627118E+03  0.00000000000E+00 0. -1.
         -4    1    1    2    0  502  0.35265379943E+02 -0.25242709786E+02  0.17930494014E+03  0.18447520966E+03  0.00000000000E+00 0.  1.
<scales pt_clust_5="13000.00000" pt_clust_6="13000.00000" pt_clust_7="13000.00000" pt_clust_8="13000.00000" pt_clust_9="105.73823" pt_clust_10="43.36867"></scales>
<clustering>
<clus scale="   43.369">  1 10  2 -1</clus>
<clus scale="   80.288">  5  6 -1 -1</clus>
<clus scale="   92.468">  7  8 -1 -1</clus>
<clus scale="  102.673">  1  7  2 -1</clus>
<clus scale="  105.738">  2  9  1 -1</clus>
<clus scale="   43.369">  1  5  2 -1</clus>
</clustering>
</event>
<event>
10    4  0.2977685E-005  0.9918899E+02  0.7546771E-02  0.1287120E+00
         21   -1    0    0  501  502  0.00000000000E+00  0.00000000000E+00  0.43528013334E+03  0.43528013334E+03  0.00000000000E+00 0.  1.
          4   -1    0    0  503    0 -0.00000000000E+00 -0.00000000000E+00 -0.10167696568E+03  0.10167696568E+03  0.00000000000E+00 0. -1.
         24    2    1    2    0    0  0.28671106523E+02 -0.68533611146E+02  0.10852192501E+02  0.11092092872E+03  0.81650438695E+02 0.  0.
         23    2    1    2    0    0 -0.37076681658E+02 -0.20902849090E+02  0.25049333110E+03  0.27009722029E+03  0.91618721122E+02 0.  0.
        -11    1    3    3    0    0 -0.11585438286E+02 -0.45149372238E+02  0.35174720129E+02  0.58394769714E+02  0.00000000000E+00 0.  1.
         12    1    3    3    0    0  0.40256544809E+02 -0.23384238908E+02 -0.24322527628E+02  0.52526159002E+02  0.00000000000E+00 0. -1.
        -13    1    4    4    0    0  0.62408066809E+01  0.27617902548E+02  0.35096156827E+02  0.45093640718E+02  0.00000000000E+00 0. -1.
         13    1    4    4    0    0 -0.43317488338E+02 -0.48520751638E+02  0.21539717428E+03  0.22500357958E+03  0.00000000000E+00 0.  1.
         21    1    1    2  503  502  0.94459292467E+01  0.62099057219E+02 -0.14927244097E+02  0.64562691263E+02  0.00000000000E+00 0.  1.
          3    1    1    2  501    0 -0.10403541124E+01  0.27337403017E+02  0.87184888155E+02  0.91376258749E+02  0.00000000000E+00 0. -1.
<scales pt_clust_5="13000.00000" pt_clust_6="13000.00000" pt_clust_7="13000.00000" pt_clust_8="13000.00000" pt_clust_9="64.74174" pt_clust_10="27.35719"></scales>
<clustering>
<clus scale="   27.357">  1 10  2 -1</clus>
<clus scale="   64.742">  2  9  1 -1</clus>
<clus scale="   81.650">  5  6 -1 -1</clus>
<clus scale="   90.063">  2  5  1 -1</clus>
<clus scale="   91.619">  7  8 -1 -1</clus>
<clus scale="   27.357">  1  5  2 -1</clus>
</clustering>
</event>
<event>
10    4  0.2977685E-005  0.9529628E+02  0.7546771E-02  0.1296832E+00
         21   -1    0    0  501  502  0.00000000000E+00  0.00000000000E+00  0.11774233465E+03  0.11774233465E+03  0.00000000000E+00 0. -1.
          2   -1    0    0  503    0 -0.00000000000E+00 -0.00000000000E+00 -0.33012016288E+03  0.33012016288E+03  0.00000000000E+00 0. -1.
         23    2    1    2    0    0 -0.13745524281E+02 -0.10018029504E+02 -0.18312331164E+03  0.20519616640E+03  0.91005599201E+02 0.  0.
         24    2    1    2    0    0  0.87620170639E+01 -0.84488522553E+01  0.27447415411E+02  0.85314516190E+02  0.79856433758E+02 0.  0.
        -11    1    4    4    0    0 -0.34214484495E+02 -0.98089882915E+01  0.22319042017E+02  0.42011746418E+02  0.00000000000E+00 0.  1.
         12    1    4    4    0    0  0.42976501559E+02  0.13601360362E+01  0.51283733940E+01  0.43302769772E+02  0.00000000000E+00 0. -1.
        -13    1    3    3    0    0  0.31139819399E+02  0.19003163571E+01 -0.23791893202E+02  0.39234598719E+02  0.00000000000E+00 0. -1.
         13    1    3    3    0    0 -0.44885343680E+02 -0.11918345861E+02 -0.15933141844E+03  0.16596156768E+03  0.00000000000E+00 0.  1.
         21    1    1    2  503  502  0.19229462441E+02  0.60092963791E+02 -0.84389384355E+02  0.10536842371E+03  0.00000000000E+00 0.  1.
          1    1    1    2  501    0 -0.14245955224E+02 -0.41626082032E+02  0.27687452357E+02  0.51983391228E+02  0.00000000000E+00 0. -1.
<scales pt_clust_5="13000.00000" pt_clust_6="13000.00000" pt_clust_7="13000.00000" pt_clust_8="13000.00000" pt_clust_9="57.17223" pt_clust_10="43.99634"></scales>
<clustering>
<clus scale="   43.996">  1 10  2 -1</clus>
<clus scale="   57.172">  2  9  1 -1</clus>
<clus scale="   79.856">  5  6 -1 -1</clus>
<clus scale="   84.714">  1  5  2 -1</clus>
<clus scale="   91.006">  7  8 -1 -1</clus>
<clus scale="   43.996">  1  5  2 -1</clus>
</clustering>
</event>
<event>
10    4  0.2977685E-005  0.9964599E+02  0.7546771E-02  0.1283844E+00
         -3   -1    0    0    0  501 -0.00000000000E+00  0.00000000000E+00  0.10317955385E+03  0.10317955385E+03  0.00000000000E+00 0.  1.
         21   -1    0    0  503  502  0.00000000000E+00 -0.00000000000E+00 -0.17564998909E+03  0.17564998909E+03  0.00000000000E+00 0. -1.
         23    2    1    2    0    0 -0.21009038490E+02  0.11793339852E+02  0.95496735932E+01  0.94637817940E+02  0.91020095339E+02 0.  0.
         24    2    1    2    0    0  0.51460676231E+02 -0.15099563344E+02 -0.92907816844E+02  0.13708354891E+03  0.85345409599E+02 0.  0.
        -13    1    4    4    0    0 -0.13012900933E+02 -0.19171136853E+02  0.89437725160E+00  0.23187668912E+02  0.00000000000E+00 0.  1.
         14    1    4    4    0    0  0.64473577164E+02  0.40715735089E+01 -0.93802194096E+02  0.11389588000E+03  0.00000000000E+00 0. -1.
        -13    1    3    3    0    0  0.34365459454E+02 -0.15480535232E+01  0.14776224543E+02  0.37439525705E+02  0.00000000000E+00 0. -1.
         13    1    3    3    0    0 -0.55374497944E+02  0.13341393375E+02 -0.52265509503E+01  0.57198292235E+02  0.00000000000E+00 0.  1.
         21    1    1    2  503  501 -0.15376072636E+02  0.17573887921E+02  0.12131614069E+02  0.26314277613E+02  0.00000000000E+00 0.  1.
         -4    1    1    2    0  502 -0.15075565105E+02 -0.14267664428E+02 -0.12439060611E+01  0.20793898474E+02  0.00000000000E+00 0.  1.
<scales pt_clust_5="13000.00000" pt_clust_6="13000.00000" pt_clust_7="13000.00000" pt_clust_8="13000.00000" pt_clust_9="23.33309" pt_clust_10="20.75667"></scales>
<clustering>
<clus scale="   20.757">  2 10  1 -1</clus>
<clus scale="   23.333">  1  9  2 -1</clus>
<clus scale="   85.345">  5  6 -1 -1</clus>
<clus scale="   91.020">  7  8 -1 -1</clus>
<clus scale="   94.491">  2  5  1 -1</clus>
<clus scale="   20.757">  2  5  1 -1</clus>
</clustering>
</event>
<event>
10    4  0.2977685E-005  0.9261926E+02  0.7546771E-02  0.1301759E+00
         21   -1    0    0  501  502  0.00000000000E+00  0.00000000000E+00  0.36297399380E+03  0.36297399380E+03  0.00000000000E+00 0.  1.
          2   -1    0    0  503    0 -0.00000000000E+00 -0.00000000000E+00 -0.10680095562E+03  0.10680095562E+03  0.00000000000E+00 0. -1.
         24    2    1    2    0    0  0.22554612461E+02 -0.28014283119E+02 -0.23550313149E+02  0.92566110794E+02  0.81977783675E+02 0.  0.
         23    2    1    2    0    0  0.35483943237E+02  0.49017357098E+02  0.25665524314E+03  0.27880794843E+03  0.90554661702E+02 0.  0.
        -11    1    3    3    0    0  0.51498571852E+02 -0.55252735772E+01 -0.20781691550E+02  0.55807797435E+02  0.00000000000E+00 0.  1.
         12    1    3    3    0    0 -0.28943959391E+02 -0.22489009542E+02 -0.27686215991E+01  0.36758313359E+02  0.00000000000E+00 0. -1.
        -11    1    4    4    0    0  0.42609005665E+02 -0.11009943037E+02  0.70736625078E+02  0.83309161182E+02  0.00000000000E+00 0. -1.
         11    1    4    4    0    0 -0.71250624285E+01  0.60027300134E+02  0.18591861806E+03  0.19549878725E+03  0.00000000000E+00 0.  1.
         21    1    1    2  503  502 -0.29080138027E+02  0.19304932248E+02 -0.12786328022E+02  0.37172907084E+02  0.00000000000E+00 0. -1.
          1    1    1    2  501    0 -0.28958417670E+02 -0.40308006227E+02  0.35854436206E+02  0.61227983110E+02  0.00000000000E+00 0. -1.
<scales pt_clust_5="13000.00000" pt_clust_6="13000.00000" pt_clust_7="13000.00000" pt_clust_8="13000.00000" pt_clust_9="34.90465" pt_clust_10="50.12442"></scales>
<clustering>
<clus scale="   34.905">  2  9  1 -1</clus>
<clus scale="   50.124">  1 10  2 -1</clus>
<clus scale="   81.978">  5  6 -1 -1</clus>
<clus scale="   84.253">  2  5  1 -1</clus>
<clus scale="   90.555">  7  8 -1 -1</clus>
<clus scale="   50.124">  1  5  2 -1</clus>
</clustering>
</event>
<event>
10    4  0.2977685E-005  0.1042271E+03  0.7546771E-02  0.1276348E+00
         21   -1    0    0  501  502  0.00000000000E+00  0.00000000000E+00  0.20916642383E+02  0.20916642383E+02  0.00000000000E+00 0. -1.
          2   -1    0    0  503    0 -0.00000000000E+00 -0.00000000000E+00 -0.19680345214E+04  0.19680345214E+04  0.00000000000E+00 0. -1.
         24    2    1    2    0    0  0.49589575759E+02  0.19105552817E+02 -0.15004498407E+04  0.15035282403E+04  0.80145471836E+02 0.  0.
         23    2    1    2    0    0 -0.34782400885E+02 -0.11527013107E+02 -0.16543611448E+03  0.19217057511E+03  0.90651720996E+02 0.  0.
        -13    1    3    3    0    0  0.21142208620E+02 -0.12434612541E+02 -0.12289546658E+03  0.12531922550E+03  0.00000000000E+00 0.  1.
         14    1    3    3    0    0  0.28447367139E+02  0.31540165358E+02 -0.13775543742E+04  0.13782090148E+04  0.00000000000E+00 0. -1.
        -13    1    4    4    0    0  0.25385998199E+02  0.12838718477E+02 -0.79747196546E+02  0.84669338923E+02  0.00000000000E+00 0. -1.
         13    1    4    4    0    0 -0.60168399084E+02 -0.24365731584E+02 -0.85688917935E+02  0.10750123618E+03  0.00000000000E+00 0.  1.
         21    1    1    2  503  502 -0.20591569139E+02 -0.39377177930E+02 -0.21513753717E+03  0.21967870803E+03  0.00000000000E+00 0. -1.
          1    1    1    2  501    0  0.57843942655E+01  0.31798638220E+02 -0.66094386642E+02  0.73573640356E+02  0.00000000000E+00 0. -1.
<scales pt_clust_5="13000.00000" pt_clust_6="13000.00000" pt_clust_7="13000.00000" pt_clust_8="13000.00000" pt_clust_9="40.37702" pt_clust_10="32.32047"></scales>
<clustering>
<clus scale="   32.320">  1 10  2 -1</clus>
<clus scale="   40.377">  1  9  2 -1</clus>
<clus scale="   80.145">  5  6 -1 -1</clus>
<clus scale="   90.652">  7  8 -1 -1</clus>
<clus scale="   95.231">  2  5  1 -1</clus>
<clus scale="   32.320">  1  5  2 -1</clus>
</clustering>
</event>
<event>
10    4  0.2977685E-005  0.3465485E+03  0.7546771E-02  0.1096471E+00
         21   -1    0    0  501  502  0.00000000000E+00  0.00000000000E+00  0.27602310137E+03  0.27602310137E+03  0.00000000000E+00 0. -1.
          2   -1    0    0  503    0 -0.00000000000E+00 -0.00000000000E+00 -0.10233927646E+04  0.10233927646E+04  0.00000000000E+00 0. -1.
         24    2    1    2    0    0  0.11665078273E+03  0.22654118342E+02 -0.22576502447E+03  0.26751895062E+03  0.80473153756E+02 0.  0.
         23    2    1    2    0    0  0.30530916053E+03  0.28271128492E+02  0.59348684112E+01  0.31965561676E+03  0.90175109913E+02 0.  0.
        -11    1    3    3    0    0  0.52166170368E+02  0.50624702900E+02 -0.10324835869E+03  0.12627111090E+03  0.00000000000E+00 0.  1.
         12    1    3    3    0    0  0.64484612363E+02 -0.27970584558E+02 -0.12251666578E+03  0.14124783972E+03  0.00000000000E+00 0. -1.
        -13    1    4    4    0    0  0.16857084969E+03  0.33334231692E+02  0.44479148870E+02  0.17749844240E+03  0.00000000000E+00 0.  1.
         13    1    4    4    0    0  0.13673831084E+03 -0.50631032003E+01 -0.38544280459E+02  0.14215717436E+03  0.00000000000E+00 0. -1.
         21    1    1    2  503  502  0.11738932194E+02 -0.42264013648E+02 -0.61745901290E+02  0.75740383580E+02  0.00000000000E+00 0.  1.
          1    1    1    2  501    0 -0.43369887546E+03 -0.86612331857E+01 -0.46579360588E+03  0.63650091501E+03  0.00000000000E+00 0. -1.
<scales pt_clust_5="13000.00000" pt_clust_6="13000.00000" pt_clust_7="13000.00000" pt_clust_8="13000.00000" pt_clust_9="43.86399" pt_clust_10="334.61084"></scales>
<clustering>
<clus scale="   43.864">  2  9  1 -1</clus>
<clus scale="   80.473">  5  6 -1 -1</clus>
<clus scale="   90.175">  7  8 -1 -1</clus>
<clus scale="  144.699">  2  5  1 -1</clus>
<clus scale="  334.611">  1 10  2 -1</clus>
<clus scale="  334.611">  1  5  2 -1</clus>
</clustering>
</event>
<event>
10    4  0.2977685E-005  0.2502338E+03  0.7546771E-02  0.1113212E+00
         -1   -1    0    0    0  501 -0.00000000000E+00  0.00000000000E+00  0.97455875223E+03  0.97455875223E+03  0.00000000000E+00 0.  1.
         21   -1    0    0  503  502  0.00000000000E+00 -0.00000000000E+00 -0.18194574121E+03  0.18194574121E+03  0.00000000000E+00 0. -1.
         24    2    1    2    0    0 -0.20115124929E+03 -0.64270742739E+02  0.61450334281E+03  0.65580948446E+03  0.88764678314E+02 0.  0.
         23    2    1    2    0    0  0.20456366616E+03  0.10437850660E+03  0.14542915579E+03  0.28625603936E+03  0.89731346617E+02 0.  0.
        -13    1    3    3    0    0 -0.61443734842E+02 -0.34615117392E+02  0.33022333097E+03  0.33766993828E+03  0.00000000000E+00 0.  1.
         14    1    3    3    0    0 -0.13970751445E+03 -0.29655625347E+02  0.28428001184E+03  0.31813954618E+03  0.00000000000E+00 0. -1.
        -13    1    4    4    0    0  0.12786276444E+03  0.79854859481E+02  0.44584134812E+02  0.15720505778E+03  0.00000000000E+00 0. -1.
         13    1    4    4    0    0  0.76700901717E+02  0.24523647116E+02  0.10084502098E+03  0.12905098159E+03  0.00000000000E+00 0.  1.
         21    1    1    2  503  501 -0.41710522531E+02 -0.15796224198E+01  0.11130398933E+03  0.11887321371E+03  0.00000000000E+00 0. -1.
         -2    1    1    2    0  502  0.38298105663E+02 -0.38528141438E+02 -0.78623476909E+02  0.95565755903E+02  0.00000000000E+00 0.  1.
<scales pt_clust_5="13000.00000" pt_clust_6="13000.00000" pt_clust_7="13000.00000" pt_clust_8="13000.00000" pt_clust_9="41.74042" pt_clust_10="54.04667"></scales>
<clustering>
<clus scale="   41.740">  1  9  2 -1</clus>
<clus scale="   54.047">  2 10  1 -1</clus>
<clus scale="   88.765">  5  6 -1 -1</clus>
<clus scale="   89.731">  7  8 -1 -1</clus>
<clus scale="  249.889">  1  5  2 -1</clus>
<clus scale="   54.047">  2  5  1 -1</clus>
</clustering>
</event>
<event>
10    4  0.2977685E-005  0.1027976E+03  0.7546771E-02  0.1283300E+00
         21   -1    0    0  501  502  0.00000000000E+00  0.00000000000E+00  0.84240798530E+02  0.84240798530E+02  0.00000000000E+00 0. -1.
          2   -1    0    0  503    0 -0.00000000000E+00 -0.00000000000E+00 -0.55663565533E+03  0.55663565533E+03  0.00000000000E+00 0. -1.
         23    2    1    2    0    0 -0.28925554039E+02  0.65804486360E+01 -0.17301138624E+03  0.20011201262E+03  0.96082713562E+02 0.  0.
         24    2    1    2    0    0  0.22985783923E+02 -0.31636069145E+02  0.35662154913E+02  0.95009119432E+02  0.78903462210E+02 0.  0.
        -11    1    4    4    0    0  0.82427463433E+01 -0.46729472645E+02 -0.64692741377E+01  0.47889852671E+02  0.00000000000E+00 0.  1.
         12    1    4    4    0    0  0.14743037580E+02  0.15093403500E+02  0.42131429051E+02  0.47119266762E+02  0.00000000000E+00 0. -1.
        -11    1    3    3    0    0  0.14614742817E+02  0.41960379157E+02 -0.78574958979E+02  0.90267869728E+02  0.00000000000E+00 0.  1.
         11    1    3    3    0    0 -0.43540296856E+02 -0.35379930521E+02 -0.94436427262E+02  0.10984414289E+03  0.00000000000E+00 0. -1.
         21    1    1    2  503  502 -0.25918883644E+02 -0.44729317091E+01 -0.42343150736E+02  0.49847146976E+02  0.00000000000E+00 0. -1.
          1    1    1    2  501    0  0.31858653759E+02  0.29528552218E+02 -0.29270247473E+03  0.29590817483E+03  0.00000000000E+00 0. -1.
<scales pt_clust_5="13000.00000" pt_clust_6="13000.00000" pt_clust_7="13000.00000" pt_clust_8="13000.00000" pt_clust_9="26.30201" pt_clust_10="31.81997"></scales>
<clustering>
<clus scale="   26.302">  2  9  1 -1</clus>
<clus scale="   31.820">  1 10  2 -1</clus>
<clus scale="   78.903">  5  6 -1 -1</clus>
<clus scale="   86.955">  1  5  2 -1</clus>
<clus scale="   96.083">  7  8 -1 -1</clus>
<clus scale="   31.820">  1  5  2 -1</clus>
</clustering>
</event>
<event>
10    4  0.2977685E-005  0.1318710E+03  0.7546771E-02  0.1227580E+00
         21   -1    0    0  503  502  0.00000000000E+00  0.00000000000E+00  0.77827528218E+03  0.77827528218E+03  0.00000000000E+00 0. -1.
         -1   -1    0    0    0  501 -0.00000000000E+00 -0.00000000000E+00 -0.28751942482E+03  0.28751942482E+03  0.00000000000E+00 0.  1.
         23    2    1    2    0    0 -0.31356153326E+02 -0.47665042229E+02  0.96305085885E+02  0.14452675416E+03  0.91422910139E+02 0.  0.
         24    2    1    2    0    0  0.12063475404E+03  0.13344224976E+02  0.46162501137E+03  0.48397138041E+03  0.79998960657E+02 0.  0.
        -11    1    4    4    0    0  0.22385474079E+02  0.29138527130E+02  0.21344301375E+03  0.21658274015E+03  0.00000000000E+00 0.  1.
         12    1    4    4    0    0  0.98249279965E+02 -0.15794302154E+02  0.24818199762E+03  0.26738864025E+03  0.00000000000E+00 0. -1.
        -11    1    3    3    0    0  0.13742992617E+02  0.21292508700E+02  0.21299682959E+02  0.33104641170E+02  0.00000000000E+00 0.  1.
         11    1    3    3    0    0 -0.45099145943E+02 -0.68957550929E+02  0.75005402925E+02  0.11142211299E+03  0.00000000000E+00 0. -1.
         21    1    1    2  503  501 -0.77832243318E+02 -0.15324277024E+02 -0.24227677064E+03  0.25493278557E+03  0.00000000000E+00 0.  1.
         -2    1    1    2    0  502 -0.11446357400E+02  0.49645094278E+02  0.17510253074E+03  0.18236378686E+03  0.00000000000E+00 0.  1.
<scales pt_clust_5="13000.00000" pt_clust_6="13000.00000" pt_clust_7="13000.00000" pt_clust_8="13000.00000" pt_clust_9="79.34562" pt_clust_10="50.94757"></scales>
<clustering>
<clus scale="   50.948">  1 10  2 -1</clus>
<clus scale="   79.346">  2  9  1 -1</clus>
<clus scale="   79.999">  5  6 -1 -1</clus>
<clus scale="   91.423">  7  8 -1 -1</clus>
<clus scale="  124.224">  1  5  2 -1</clus>
<clus scale="   50.948">  1  5  2 -1</clus>
</clustering>
</event>
<event>
10    4  0.2977685E-005  0.1926267E+03  0.7546771E-02  0.1174662E+00
         21   -1    0    0  501  502  0.00000000000E+00  0.00000000000E+00  0.76571709498E+03  0.76571709498E+03  0.00000000000E+00 0. -1.
          4   -1    0    0  503    0 -0.00000000000E+00 -0.00000000000E+00 -0.78577326902E+03  0.78577326902E+03  0.00000000000E+00 0. -1.
         23    2    1    2    0    0 -0.11128013826E+03 -0.14447652502E+03 -0.35506812871E+03  0.40917089246E+03  0.89948361616E+02 0.  0.
         24    2    1    2    0    0 -0.94742053802E+02  0.16245296099E+03  0.13735493733E+03  0.24675528316E+03  0.81576771611E+02 0.  0.
        -13    1    4    4    0    0 -0.36058072668E+02  0.24230259561E+02  0.69525522676E+02  0.81982244335E+02  0.00000000000E+00 0.  1.
         14    1    4    4    0    0 -0.58683981134E+02  0.13822270143E+03  0.67829414657E+02  0.16477303883E+03  0.00000000000E+00 0. -1.
        -13    1    3    3    0    0 -0.49426578428E+02 -0.22592949176E+02 -0.45891065341E+02  0.71129585164E+02  0.00000000000E+00 0.  1.
         13    1    3    3    0    0 -0.61853559836E+02 -0.12188357585E+03 -0.30917706337E+03  0.33804130730E+03  0.00000000000E+00 0. -1.
         21    1    1    2  503  502  0.14662072864E+03  0.81081911645E+02 -0.32213068065E+03  0.36309790674E+03  0.00000000000E+00 0. -1.
          3    1    1    2  501    0  0.59401463422E+02 -0.99058347611E+02  0.51978769799E+03  0.53246628163E+03  0.00000000000E+00 0. -1.
<scales pt_clust_5="13000.00000" pt_clust_6="13000.00000" pt_clust_7="13000.00000" pt_clust_8="13000.00000" pt_clust_9="170.33591" pt_clust_10="115.50364"></scales>
<clustering>
<clus scale="   81.577">  5  6 -1 -1</clus>
<clus scale="   89.948">  7  8 -1 -1</clus>
<clus scale="  115.504">  1 10  2 -1</clus>
<clus scale="  125.589">  1  5  2 -1</clus>
<clus scale="  170.336">  2  9  1 -1</clus>
<clus scale="  115.504">  1  5  2 -1</clus>
</clustering>
</event>
<event>
10    4  0.2977685E-005  0.1222369E+03  0.7546771E-02  0.1243874E+00
          2   -1    0    0  503    0 -0.00000000000E+00  0.00000000000E+00  0.61449888923E+03  0.61449888923E+03  0.00000000000E+00 0. -1.
         21   -1    0    0  501  502  0.00000000000E+00 -0.00000000000E+00 -0.52357763697E+02  0.52357763697E+02  0.00000000000E+00 0. -1.
         23    2    1    2    0    0  0.57681125436E+02 -0.13692290191E+02  0.14986880505E+03  0.18660004718E+03  0.94044286586E+02 0.  0.
         24    2    1    2    0    0 -0.10529407091E+03 -0.29222719524E+02  0.18194309075E+03  0.22679953381E+03  0.79962063254E+02 0.  0.
        -11    1    4    4    0    0 -0.24465617091E+01 -0.30981171068E+02  0.57374342509E+02  0.65250546383E+02  0.00000000000E+00 0.  1.
         12    1    4    4    0    0 -0.10284750920E+03  0.17584515440E+01  0.12456874824E+03  0.16154898743E+03  0.00000000000E+00 0. -1.
        -13    1    3    3    0    0  0.22886359318E+02 -0.38471732087E+02  0.13358375398E+03  0.14088462989E+03  0.00000000000E+00 0.  1.
         13    1    3    3    0    0  0.34794766119E+02  0.24779441896E+02  0.16285051074E+02  0.45715417295E+02  0.00000000000E+00 0. -1.
         21    1    1    2  503  502 -0.17377476161E+02  0.30650532023E+02  0.11753671425E+03  0.12270416043E+03  0.00000000000E+00 0. -1.
          1    1    1    2  501    0  0.64990421631E+02  0.12264477692E+02  0.11279251548E+03  0.13075291150E+03  0.00000000000E+00 0. -1.
<scales pt_clust_5="13000.00000" pt_clust_6="13000.00000" pt_clust_7="13000.00000" pt_clust_8="13000.00000" pt_clust_9="35.23396" pt_clust_10="63.86173"></scales>
<clustering>
<clus scale="   35.234">  1  9  2 -1</clus>
<clus scale="   63.862">  2 10  1 -1</clus>
<clus scale="   79.962">  5  6 -1 -1</clus>
<clus scale="   94.044">  7  8 -1 -1</clus>
<clus scale="  111.765">  2  5  1 -1</clus>
<clus scale="   63.862">  2  5  1 -1</clus>
</clustering>
</event>
<event>
10    4  0.2977685E-005  0.1738738E+03  0.7546771E-02  0.1186602E+00
         21   -1    0    0  501  502  0.00000000000E+00  0.00000000000E+00  0.19140129903E+03  0.19140129903E+03  0.00000000000E+00 0. -1.
          2   -1    0    0  503    0 -0.00000000000E+00 -0.00000000000E+00 -0.79305974834E+03  0.79305974834E+03  0.00000000000E+00 0. -1.
         23    2    1    2    0    0 -0.21789442390E+02 -0.90367411677E+02 -0.52148053957E+03  0.53664078772E+03  0.86025188136E+02 0.  0.
         24    2    1    2    0    0 -0.10290475127E+03 -0.11439596144E+02 -0.47144905446E+02  0.14092369497E+03  0.83166059789E+02 0.  0.
        -11    1    4    4    0    0 -0.44285787419E+02  0.33181733967E+02 -0.36978329392E+02  0.66555655514E+02  0.00000000000E+00 0.  1.
         12    1    4    4    0    0 -0.58618963853E+02 -0.44621330111E+02 -0.10166576055E+02  0.74368039458E+02  0.00000000000E+00 0. -1.
        -11    1    3    3    0    0  0.22284018828E+02  0.17547894631E+01 -0.60851251199E+02  0.64826935402E+02  0.00000000000E+00 0.  1.
         11    1    3    3    0    0 -0.44073461218E+02 -0.92122201140E+02 -0.46062928837E+03  0.47181385231E+03  0.00000000000E+00 0. -1.
         21    1    1    2  503  502 -0.48896671647E+02  0.15477157502E+02 -0.91073947086E+02  0.10452220214E+03  0.00000000000E+00 0.  1.
          1    1    1    2  501    0  0.17359086531E+03  0.86329850318E+02  0.58040942797E+02  0.20237436254E+03  0.00000000000E+00 0. -1.
<scales pt_clust_5="13000.00000" pt_clust_6="13000.00000" pt_clust_7="13000.00000" pt_clust_8="13000.00000" pt_clust_9="51.28769" pt_clust_10="152.69419"></scales>
<clustering>
<clus scale="   51.288">  2  9  1 -1</clus>
<clus scale="   83.166">  5  6 -1 -1</clus>
<clus scale="   86.025">  7  8 -1 -1</clus>
<clus scale="  130.604">  2  7  1 -1</clus>
<clus scale="  152.694">  1 10  2 -1</clus>
<clus scale="  152.694">  1  5  2 -1</clus>
</clustering>
</event>
<event>
10    4  0.2977685E-005  0.1319086E+03  0.7546771E-02  0.1242851E+00
         21   -1    0    0  501  502  0.00000000000E+00  0.00000000000E+00  0.38627083491E+03  0.38627083491E+03  0.00000000000E+00 0. -1.
          2   -1    0    0  503    0 -0.00000000000E+00 -0.00000000000E+00 -0.40441762517E+03  0.40441762517E+03  0.00000000000E+00 0. -1.
         23    2    1    2    0    0 -0.51742094687E+02  0.64516129911E+02 -0.23567795226E+03  0.26537160260E+03  0.89657207770E+02 0.  0.
         24    2    1    2    0    0 -0.16178443523E+02  0.60633429254E+02  0.30308394810E+03  0.31948999629E+03  0.79220094396E+02 0.  0.
        -11    1    4    4    0    0 -0.20532614326E+02  0.20304114694E+02  0.24213149129E+02  0.37684504977E+02  0.00000000000E+00 0.  1.
         12    1    4    4    0    0  0.43541708029E+01  0.40329314560E+02  0.27887079897E+03  0.28180549132E+03  0.00000000000E+00 0. -1.
        -11    1    3    3    0    0 -0.73725869662E+02  0.28668395736E+02 -0.16802794350E+03  0.18571690976E+03  0.00000000000E+00 0. -1.
         11    1    3    3    0    0  0.21983774975E+02  0.35847734176E+02 -0.67650008759E+02  0.79654692848E+02  0.00000000000E+00 0.  1.
         21    1    1    2  503  502  0.62395296730E+02 -0.10507929460E+03 -0.11629543762E+03  0.16869931838E+03  0.00000000000E+00 0. -1.
          1    1    1    2  501    0  0.55252414807E+01 -0.20070264561E+02  0.30742651515E+02  0.37127542810E+02  0.00000000000E+00 0. -1.
<scales pt_clust_5="13000.00000" pt_clust_6="13000.00000" pt_clust_7="13000.00000" pt_clust_8="13000.00000" pt_clust_9="96.75464" pt_clust_10="20.81691"></scales>
<clustering>
<clus scale="   20.817">  1 10  2 -1</clus>
<clus scale="   79.220">  5  6 -1 -1</clus>
<clus scale="   89.657">  7  8 -1 -1</clus>
<clus scale="   90.796">  1  5  2 -1</clus>
<clus scale="   96.755">  1  9  2 -1</clus>
<clus scale="   20.817">  1  5  2 -1</clus>
</clustering>
</event>
<event>
10    4  0.2977685E-005  0.3334275E+03  0.7546771E-02  0.1112431E+00
         -1   -1    0    0    0  501 -0.00000000000E+00  0.00000000000E+00  0.94747930200E+03  0.94747930200E+03  0.00000000000E+00 0.  1.
         21   -1    0    0  503  502  0.00000000000E+00 -0.00000000000E+00 -0.43846129144E+03  0.43846129144E+03  0.00000000000E+00 0.  1.
         23    2    1    2    0    0  0.13370858991E+02  0.50045968320E+02  0.28174164568E+03  0.30147690929E+03  0.93949950016E+02 0.  0.
         24    2    1    2    0    0 -0.24384847681E+03  0.17768985207E+03  0.48578416087E+03  0.57752825077E+03  0.80727110170E+02 0.  0.
        -11    1    4    4    0    0 -0.14878122567E+03  0.11075588058E+03  0.36758729563E+03  0.41173187647E+03  0.00000000000E+00 0.  1.
         12    1    4    4    0    0 -0.95067251136E+02  0.66933971488E+02  0.11819686524E+03  0.16579637430E+03  0.00000000000E+00 0. -1.
        -11    1    3    3    0    0 -0.23374038721E+02  0.55270452963E+02  0.10553054395E+03  0.12139960611E+03  0.00000000000E+00 0.  1.
         11    1    3    3    0    0  0.36744897711E+02 -0.52244846432E+01  0.17621110173E+03  0.18007730318E+03  0.00000000000E+00 0. -1.
         21    1    1    2  503  501  0.23017222247E+03 -0.26950234040E+03 -0.28727381759E+03  0.45622035219E+03  0.00000000000E+00 0.  1.
         -2    1    1    2    0  502  0.30539534681E+00  0.41766520018E+02  0.28766021610E+02  0.50715081189E+02  0.00000000000E+00 0.  1.
<scales pt_clust_5="13000.00000" pt_clust_6="13000.00000" pt_clust_7="13000.00000" pt_clust_8="13000.00000" pt_clust_9="323.50734" pt_clust_10="41.76766"></scales>
<clustering>
<clus scale="   41.768">  2 10  1 -1</clus>
<clus scale="   80.727">  5  6 -1 -1</clus>
<clus scale="   93.950">  7  8 -1 -1</clus>
<clus scale="  107.739">  1  7  2 -1</clus>
<clus scale="  323.507">  2  9  1 -1</clus>
<clus scale="   41.768">  2  5  1 -1</clus>
</clustering>
</event>
<event>
10    4  0.2977685E-005  0.1565790E+03  0.7546771E-02  0.1194144E+00
          2   -1    0    0  503    0 -0.00000000000E+00  0.00000000000E+00  0.11007415696E+04  0.11007415696E+04  0.00000000000E+00 0. -1.
         21   -1    0    0  501  502  0.00000000000E+00 -0.00000000000E+00 -0.14598409652E+03  0.14598409652E+03  0.00000000000E+00 0. -1.
         24    2    1    2    0    0 -0.77414841266E+02 -0.37718606682E+02  0.21071358314E+03  0.24204094925E+03  0.82266980348E+02 0.  0.
         23    2    1    2    0    0  0.84783877855E+02  0.20014115071E+03  0.14301212914E+03  0.27578784268E+03  0.91442216387E+02 0.  0.
        -13    1    3    3    0    0  0.90055106014E+01 -0.27727301108E+02  0.78835509479E+02  0.84053197457E+02  0.00000000000E+00 0.  1.
         14    1    3    3    0    0 -0.86420351867E+02 -0.99913055740E+01  0.13187807366E+03  0.15798775179E+03  0.00000000000E+00 0. -1.
        -11    1    4    4    0    0 -0.88258707546E+01  0.20559929885E+02 -0.73558341877E+01  0.23552388585E+02  0.00000000000E+00 0.  1.
         11    1    4    4    0    0  0.93609748609E+02  0.17958122082E+03  0.15036796332E+03  0.25223545409E+03  0.00000000000E+00 0. -1.
         21    1    1    2  503  502  0.31780303862E+02 -0.85632254459E+02  0.63104937740E+03  0.63762542879E+03  0.00000000000E+00 0. -1.
          1    1    1    2  501    0 -0.39149340451E+02 -0.76790289567E+02 -0.30017616648E+02  0.91271445363E+02  0.00000000000E+00 0. -1.
<scales pt_clust_5="13000.00000" pt_clust_6="13000.00000" pt_clust_7="13000.00000" pt_clust_8="13000.00000" pt_clust_9="93.62016" pt_clust_10="86.19408"></scales>
<clustering>
<clus scale="   82.267">  5  6 -1 -1</clus>
<clus scale="   86.194">  2 10  1 -1</clus>
<clus scale="   91.442">  7  8 -1 -1</clus>
<clus scale="   93.620">  1  9  2 -1</clus>
<clus scale="  151.404">  1  5  2 -1</clus>
<clus scale="   86.194">  2  5  1 -1</clus>
</clustering>
</event>
<event>
10    4  0.2977685E-005  0.3757311E+03  0.7546771E-02  0.1052523E+00
          4   -1    0    0  503    0 -0.00000000000E+00  0.00000000000E+00  0.51834733774E+03  0.51834733774E+03  0.00000000000E+00 0. -1.
         21   -1    0    0  501  502  0.00000000000E+00 -0.00000000000E+00 -0.52914290512E+03  0.52914290512E+03  0.00000000000E+00 0.  1.
         24    2    1    2    0    0  0.17621593295E+03  0.88606443145E+01  0.26787514286E+03  0.33069060267E+03  0.80427709730E+02 0.  0.
         23    2    1    2    0    0  0.83161765791E+02  0.95971095446E+02  0.10183338403E+03  0.18665271388E+03  0.91339296283E+02 0.  0.
        -13    1    3    3    0    0  0.16913566317E+03  0.29551432291E+02  0.24344897030E+03  0.29790528839E+03  0.00000000000E+00 0.  1.
         14    1    3    3    0    0  0.70802697792E+01 -0.20690787977E+02  0.24426172550E+02  0.32785314284E+02  0.00000000000E+00 0. -1.
        -13    1    4    4    0    0  0.96462812906E+02  0.50997680756E+02  0.64893250299E+02  0.12695263546E+03  0.00000000000E+00 0.  1.
         13    1    4    4    0    0 -0.13301047115E+02  0.44973414690E+02  0.36940133730E+02  0.59700078418E+02  0.00000000000E+00 0. -1.
         21    1    1    2  503  502  0.20359510141E+02  0.20051296670E+01  0.20971917554E+02  0.29297636834E+02  0.00000000000E+00 0.  1.
          3    1    1    2  501    0 -0.27973720888E+03 -0.10683686943E+03 -0.40147601182E+03  0.50084928948E+03  0.00000000000E+00 0. -1.
<scales pt_clust_5="13000.00000" pt_clust_6="13000.00000" pt_clust_7="13000.00000" pt_clust_8="13000.00000" pt_clust_9="20.45801" pt_clust_10="297.45690"></scales>
<clustering>
<clus scale="   20.458">  1  9  2 -1</clus>
<clus scale="   80.428">  5  6 -1 -1</clus>
<clus scale="   91.339">  7  8 -1 -1</clus>
<clus scale="  146.336">  5  7 -1 -1</clus>
<clus scale="  297.457">  2 10  1 -1</clus>
<clus scale="  297.457">  2  5  1 -1</clus>
</clustering>
</event>
<event>
10    4  0.2977685E-005  0.9386659E+02  0.7546771E-02  0.1299464E+00
         21   -1    0    0  501  502  0.00000000000E+00  0.00000000000E+00  0.16596260361E+03  0.16596260361E+03  0.00000000000E+00 0. -1.
          2   -1    0    0  503    0 -0.00000000000E+00 -0.00000000000E+00 -0.20420385266E+03  0.20420385266E+03  0.00000000000E+00 0. -1.
         24    2    1    2    0    0 -0.30145642656E+02  0.16154257641E+01 -0.68866143536E+01  0.87433233360E+02  0.81766591387E+02 0.  0.
         23    2    1    2    0    0  0.78198462700E+01 -0.12615376096E+02  0.13490787295E+01  0.92682083535E+02  0.91475957963E+02 0.  0.
        -13    1    3    3    0    0  0.12926411724E+02  0.31414728888E+02  0.31096188974E+01  0.34112271118E+02  0.00000000000E+00 0.  1.
         14    1    3    3    0    0 -0.43072054380E+02 -0.29799303124E+02 -0.99962332510E+01  0.53320962242E+02  0.00000000000E+00 0. -1.
        -11    1    4    4    0    0 -0.11148958085E+01  0.39132775083E+02 -0.61727467905E+01  0.39632308554E+02  0.00000000000E+00 0.  1.
         11    1    4    4    0    0  0.89347420785E+01 -0.51748151179E+02  0.75218255200E+01  0.53049774982E+02  0.00000000000E+00 0. -1.
         21    1    1    2  503  502 -0.19783370585E+02 -0.29085027267E+02 -0.97111046055E+02  0.10328540956E+03  0.00000000000E+00 0. -1.
          1    1    1    2  501    0  0.42109166970E+02  0.40084977599E+02  0.64407332630E+02  0.86765729804E+02  0.00000000000E+00 0. -1.
<scales pt_clust_5="13000.00000" pt_clust_6="13000.00000" pt_clust_7="13000.00000" pt_clust_8="13000.00000" pt_clust_9="35.17557" pt_clust_10="54.44783"></scales>
<clustering>
<clus scale="   35.176">  2  9  1 -1</clus>
<clus scale="   54.448">  1 10  2 -1</clus>
<clus scale="   81.767">  5  6 -1 -1</clus>
<clus scale="   84.433">  2  5  1 -1</clus>
<clus scale="   91.476">  7  8 -1 -1</clus>
<clus scale="   54.448">  1  5  2 -1</clus>
</clustering>
</event>
<event>
10    4  0.2977685E-005  0.4247081E+03  0.7546771E-02  0.1035545E+00
         21   -1    0    0  501  502  0.00000000000E+00  0.00000000000E+00  0.14607766429E+04  0.14607766429E+04  0.00000000000E+00 0. -1.
          4   -1    0    0  503    0 -0.00000000000E+00 -0.00000000000E+00 -0.11332708375E+03  0.11332708375E+03  0.00000000000E+00 0. -1.
         24    2    1    2    0    0 -0.81285817646E+02 -0.28172762167E+03  0.49074862919E+03  0.57739544605E+03  0.81076797544E+02 0.  0.
         23    2    1    2    0    0 -0.28140621544E+02 -0.56697218742E+02  0.24982559065E+03  0.27223791913E+03  0.87716530231E+02 0.  0.
        -11    1    3    3    0    0  0.55717953533E+01 -0.10248098186E+03  0.13374110164E+03  0.16858255786E+03  0.00000000000E+00 0.  1.
         12    1    3    3    0    0 -0.86857613000E+02 -0.17924663981E+03  0.35700752755E+03  0.40881288819E+03  0.00000000000E+00 0. -1.
        -13    1    4    4    0    0  0.15152491193E+02  0.14506308267E+02  0.84925953656E+02  0.87478274865E+02  0.00000000000E+00 0.  1.
         13    1    4    4    0    0 -0.43293112737E+02 -0.71203527010E+02  0.16489963699E+03  0.18475964427E+03  0.00000000000E+00 0. -1.
         21    1    1    2  503  502 -0.11501194411E+02 -0.16643168473E+02  0.24800495928E+02  0.32005267191E+02  0.00000000000E+00 0. -1.
          3    1    1    2  501    0  0.12092763360E+03  0.35506800888E+03  0.58207484337E+03  0.69246509427E+03  0.00000000000E+00 0. -1.
<scales pt_clust_5="13000.00000" pt_clust_6="13000.00000" pt_clust_7="13000.00000" pt_clust_8="13000.00000" pt_clust_9="20.23049" pt_clust_10="365.31621"></scales>
<clustering>
<clus scale="   20.230">  2  9  1 -1</clus>
<clus scale="   81.077">  5  6 -1 -1</clus>
<clus scale="   87.717">  7  8 -1 -1</clus>
<clus scale="   94.333">  5  7 -1 -1</clus>
<clus scale="  365.316">  1 10  2 -1</clus>
<clus scale="  365.316">  1  5  2 -1</clus>
</clustering>
</event>
<event>
10    4  0.2977685E-005  0.1474029E+03  0.7546771E-02  0.1218207E+00
          4   -1    0    0  503    0 -0.00000000000E+00  0.00000000000E+00  0.20200354046E+03  0.20200354046E+03  0.00000000000E+00 0. -1.
         21   -1    0    0  501  502  0.00000000000E+00 -0.00000000000E+00 -0.87145398625E+03  0.87145398625E+03  0.00000000000E+00 0. -1.
         24    2    1    2    0    0  0.11574364585E+03  0.19637255627E+02  0.74779543550E+02  0.16069314386E+03  0.80300018606E+02 0.  0.
         23    2    1    2    0    0  0.79903038158E+02  0.14205883241E+02 -0.27643280318E+03  0.30181972720E+03  0.89965273441E+02 0.  0.
        -13    1    3    3    0    0  0.41870096869E+02  0.20717067409E+01 -0.13694985765E+02  0.44101582916E+02  0.00000000000E+00 0.  1.
         14    1    3    3    0    0  0.73873548980E+02  0.17565548886E+02  0.88474529315E+02  0.11659156095E+03  0.00000000000E+00 0. -1.
        -13    1    4    4    0    0  0.49178704958E+02  0.45199872216E+02 -0.22322065527E+03  0.23300007384E+03  0.00000000000E+00 0. -1.
         13    1    4    4    0    0  0.30724333200E+02 -0.30993988975E+02 -0.53212147915E+02  0.68819653362E+02  0.00000000000E+00 0.  1.
         21    1    1    2  503  502 -0.55360774477E+02  0.19729834061E+01  0.49179252102E+02  0.74076358250E+02  0.00000000000E+00 0.  1.
          3    1    1    2  501    0 -0.14028590953E+03 -0.35816122274E+02 -0.51697643826E+03  0.53686829739E+03  0.00000000000E+00 0. -1.
<scales pt_clust_5="13000.00000" pt_clust_6="13000.00000" pt_clust_7="13000.00000" pt_clust_8="13000.00000" pt_clust_9="55.39592" pt_clust_10="116.76415"></scales>
<clustering>
<clus scale="   55.396">  1  9  2 -1</clus>
<clus scale="   80.300">  5  6 -1 -1</clus>
<clus scale="   89.965">  7  8 -1 -1</clus>
<clus scale="  108.192">  1  5  2 -1</clus>
<clus scale="  116.764">  2 10  1 -1</clus>
<clus scale="  116.764">  2  5  1 -1</clus>
</clustering>
</event>
<event>
10    4  0.2977685E-005  0.9469378E+02  0.7546771E-02  0.1295772E+00
         21   -1    0    0  501  502  0.00000000000E+00  0.00000000000E+00  0.37347278176E+02  0.37347278176E+02  0.00000000000E+00 0.  1.
          2   -1    0    0  503    0 -0.00000000000E+00 -0.00000000000E+00 -0.10404808981E+04  0.10404808981E+04  0.00000000000E+00 0. -1.
         23    2    1    2    0    0 -0.35026338761E+01 -0.49694504305E+02 -0.34548086699E+03  0.36074184737E+03  0.91081495283E+02 0.  0.
         24    2    1    2    0    0  0.49447149360E+02 -0.39147810288E+02 -0.85435755284E+02  0.13439145313E+03  0.82366393408E+02 0.  0.
        -11    1    4    4    0    0  0.18806932072E+02 -0.46840175584E+02 -0.84514948920E+01  0.51177441404E+02  0.00000000000E+00 0.  1.
         12    1    4    4    0    0  0.30640217287E+02  0.76923652962E+01 -0.76984260392E+02  0.83214011725E+02  0.00000000000E+00 0. -1.
        -11    1    3    3    0    0 -0.43118762200E+02 -0.22808920246E+02 -0.10832538250E+03  0.11880178025E+03  0.00000000000E+00 0.  1.
         11    1    3    3    0    0  0.39616128323E+02 -0.26885584059E+02 -0.23715548449E+03  0.24194006711E+03  0.00000000000E+00 0. -1.
         21    1    1    2  503  502 -0.15195087419E+01  0.27527559997E+02 -0.78387400658E+02  0.83094284088E+02  0.00000000000E+00 0. -1.
          1    1    1    2  501    0 -0.44425006742E+02  0.61314754597E+02 -0.49382959701E+03  0.49960059172E+03  0.00000000000E+00 0. -1.
<scales pt_clust_5="13000.00000" pt_clust_6="13000.00000" pt_clust_7="13000.00000" pt_clust_8="13000.00000" pt_clust_9="27.56947" pt_clust_10="88.05481"></scales>
<clustering>
<clus scale="   27.569">  2  9  1 -1</clus>
<clus scale="   82.366">  5  6 -1 -1</clus>
<clus scale="   88.055">  1 10  2 -1</clus>
<clus scale="   88.055">  1  5  2 -1</clus>
<clus scale="   91.081">  7  8 -1 -1</clus>
<clus scale="   88.055">  1  5  2 -1</clus>
</clustering>
</event>
<event>
10    4  0.2977685E-005  0.2547370E+03  0.7546771E-02  0.1149160E+00
          2   -1    0    0  503    0 -0.00000000000E+00  0.00000000000E+00  0.12846438173E+04  0.12846438173E+04  0.00000000000E+00 0. -1.
         21   -1    0    0  501  502  0.00000000000E+00 -0.00000000000E+00 -0.15439689888E+03  0.15439689888E+03  0.00000000000E+00 0.  1.
         23    2    1    2    0    0 -0.70044407374E+01 -0.32879458051E+02  0.23084304093E+03  0.25032212377E+03  0.90788408702E+02 0.  0.
         24    2    1    2    0    0  0.14611394653E+03  0.23298418522E+03  0.24233740522E+03  0.37533127518E+03  0.80716988479E+02 0.  0.
        -11    1    4    4    0    0  0.85427637920E+02  0.16434799501E+03  0.11347757822E+03  0.21722178883E+03  0.00000000000E+00 0.  1.
         12    1    4    4    0    0  0.60686308613E+02  0.68636190203E+02  0.12885982700E+03  0.15810948635E+03  0.00000000000E+00 0. -1.
        -13    1    3    3    0    0  0.12048411612E+02 -0.42390942985E+02  0.22348954036E+03  0.22779317575E+03  0.00000000000E+00 0. -1.
         13    1    3    3    0    0 -0.19052852349E+02  0.95114849342E+01  0.73535005655E+01  0.22528948019E+02  0.00000000000E+00 0.  1.
         21    1    1    2  503  502 -0.12700735230E+03 -0.16791639222E+03  0.71536425196E+03  0.74570288674E+03  0.00000000000E+00 0. -1.
          1    1    1    2  501    0 -0.12102153492E+02 -0.32188334949E+02 -0.58297779635E+02  0.67684430531E+02  0.00000000000E+00 0. -1.
<scales pt_clust_5="13000.00000" pt_clust_6="13000.00000" pt_clust_7="13000.00000" pt_clust_8="13000.00000" pt_clust_9="241.61070" pt_clust_10="34.38824"></scales>
<clustering>
<clus scale="   34.388">  2 10  1 -1</clus>
<clus scale="   80.717">  5  6 -1 -1</clus>
<clus scale="   90.788">  7  8 -1 -1</clus>
<clus scale="   98.131">  1  7  2 -1</clus>
<clus scale="  241.611">  1  9  2 -1</clus>
<clus scale="   34.388">  2  5  1 -1</clus>
</clustering>
</event>
<event>
10    4  0.2977685E-005  0.1341758E+03  0.7546771E-02  0.1246729E+00
         21   -1    0    0  503  502  0.00000000000E+00  0.00000000000E+00  0.57823036263E+03  0.57823036263E+03  0.00000000000E+00 0. -1.
         -3   -1    0    0    0  501 -0.00000000000E+00 -0.00000000000E+00 -0.10291665432E+03  0.10291665432E+03  0.00000000000E+00 0.  1.
         24    2    1    2    0    0 -0.56315621462E+01 -0.22219374160E+01  0.89353927422E+01  0.79892020442E+02  0.79159599474E+02 0.  0.
         23    2    1    2    0    0  0.95784032987E+02 -0.29109981225E+02  0.45897214230E+03  0.47881220579E+03  0.92648416211E+02 0.  0.
        -13    1    3    3    0    0 -0.36844319851E+02 -0.19249848908E+02 -0.46507962878E+01  0.41829301863E+02  0.00000000000E+00 0.  1.
         14    1    3    3    0    0  0.31212757704E+02  0.17027911492E+02  0.13586189030E+02  0.38062718579E+02  0.00000000000E+00 0. -1.
        -13    1    4    4    0    0 -0.78230778787E+01 -0.31809159268E+02  0.10878231257E+03  0.11360728272E+03  0.00000000000E+00 0.  1.
         13    1    4    4    0    0  0.10360711087E+03  0.26991780436E+01  0.35018982973E+03  0.36520492306E+03  0.00000000000E+00 0. -1.
         21    1    1    2  503  501 -0.25595304957E+01  0.20785578992E+02 -0.21097528641E+02  0.29727045012E+02  0.00000000000E+00 0. -1.
         -4    1    1    2    0  502 -0.87592940345E+02  0.10546339648E+02  0.28503701913E+02  0.92715745702E+02  0.00000000000E+00 0.  1.
<scales pt_clust_5="13000.00000" pt_clust_6="13000.00000" pt_clust_7="13000.00000" pt_clust_8="13000.00000" pt_clust_9="20.94258" pt_clust_10="97.05369"></scales>
<clustering>
<clus scale="   20.943">  2  9  1 -1</clus>
<clus scale="   79.160">  5  6 -1 -1</clus>
<clus scale="   79.785">  2  5  1 -1</clus>
<clus scale="   92.648">  7  8 -1 -1</clus>
<clus scale="   97.054">  1 10  2 -1</clus>
<clus scale="   97.054">  1  5  2 -1</clus>
</clustering>
</event>
<event>
10    4  0.3192180E-005  0.2904325E+03  0.7546771E-02  0.1120435E+00
         21   -1    0    0  501  502  0.00000000000E+00  0.00000000000E+00  0.24818338611E+03  0.24818338611E+03  0.00000000000E+00 0.  1.
          2   -1    0    0  503    0 -0.00000000000E+00 -0.00000000000E+00 -0.15771732459E+04  0.15771732459E+04  0.00000000000E+00 0. -1.
         24    2    1    2    0    0  0.10150245898E+03  0.32818932577E+02 -0.15606740358E+03  0.20569130674E+03  0.81068166941E+02 0.  0.
         23    2    1    2    0    0 -0.22577386630E+03  0.16348770369E+03  0.10352419119E+03  0.31097489359E+03  0.91027788693E+02 0.  0.
        -13    1    3    3    0    0  0.75074539008E+02 -0.16687697771E+02 -0.10218686867E+03  0.12789379106E+03  0.00000000000E+00 0.  1.
         14    1    3    3    0    0  0.26427919976E+02  0.49506630348E+02 -0.53880534917E+02  0.77797515677E+02  0.00000000000E+00 0. -1.
        -13    1    4    4    0    0 -0.21063825853E+03  0.14341630907E+03  0.11922246720E+03  0.28133736038E+03  0.00000000000E+00 0.  1.
         13    1    4    4    0    0 -0.15135607773E+02  0.20071394623E+02 -0.15698276004E+02  0.29637533201E+02  0.00000000000E+00 0. -1.
         21    1    1    2  503  502 -0.14701609449E+02  0.19866053654E+02 -0.52117239116E+02  0.57680187424E+02  0.00000000000E+00 0. -1.
          1    1    1    2  501    0  0.13897301677E+03 -0.21617268992E+03 -0.12243294083E+04  0.12510102442E+04  0.00000000000E+00 0. -1.
<scales pt_clust_5="13000.00000" pt_clust_6="13000.00000" pt_clust_7="13000.00000" pt_clust_8="13000.00000" pt_clust_9="24.71432" pt_clust_10="275.79899"></scales>
<clustering>
<clus scale="   24.714">  2  9  1 -1</clus>
<clus scale="   81.068">  5  6 -1 -1</clus>
<clus scale="   91.028">  7  8 -1 -1</clus>
<clus scale="  133.270">  2  5  1 -1</clus>
<clus scale="  275.799">  1 10  2 -1</clus>
<clus scale="  275.799">  1  5  2 -1</clus>
</clustering>
</event>
<event>
10    4  0.2977685E-005  0.1775028E+03  0.7546771E-02  0.1192352E+00
         21   -1    0    0  501  502  0.00000000000E+00  0.00000000000E+00  0.19705417659E+03  0.19705417659E+03  0.00000000000E+00 0. -1.
          2   -1    0    0  503    0 -0.00000000000E+00 -0.00000000000E+00 -0.11239926309E+04  0.11239926309E+04  0.00000000000E+00 0. -1.
         23    2    1    2    0    0  0.50174937480E+02  0.19785861649E+03 -0.78039439087E+03  0.81170406386E+03  0.90457313247E+02 0.  0.
         24    2    1    2    0    0 -0.66471536259E+02  0.14195732504E+02 -0.12936599854E+02  0.10713547705E+03  0.81796521152E+02 0.  0.
        -13    1    4    4    0    0 -0.43625104340E+02 -0.32320523406E+02 -0.10170868233E+02  0.55237781658E+02  0.00000000000E+00 0.  1.
         14    1    4    4    0    0 -0.22846431919E+02  0.46516255910E+02 -0.27657316208E+01  0.51897695390E+02  0.00000000000E+00 0. -1.
        -11    1    3    3    0    0  0.23767558936E+02  0.19463124878E+03 -0.66647457017E+03  0.69471906016E+03  0.00000000000E+00 0. -1.
         11    1    3    3    0    0  0.26407378545E+02  0.32273677042E+01 -0.11391982070E+03  0.11698500371E+03  0.00000000000E+00 0.  1.
         21    1    1    2  503  502 -0.77165630383E+01 -0.11170407111E+03 -0.23327039653E+03  0.25875166230E+03  0.00000000000E+00 0.  1.
          1    1    1    2  501    0  0.24013161817E+02 -0.10035027788E+03  0.99662932913E+02  0.14345560431E+03  0.00000000000E+00 0. -1.
<scales pt_clust_5="13000.00000" pt_clust_6="13000.00000" pt_clust_7="13000.00000" pt_clust_8="13000.00000" pt_clust_9="152.72430" pt_clust_10="103.18338"></scales>
<clustering>
<clus scale="   81.797">  5  6 -1 -1</clus>
<clus scale="   90.457">  7  8 -1 -1</clus>
<clus scale="  103.183">  1 10  2 -1</clus>
<clus scale="  108.099">  1  5  2 -1</clus>
<clus scale="  152.724">  2  9  1 -1</clus>
<clus scale="  103.183">  1  5  2 -1</clus>
</clustering>
</event>
<event>
10    4  0.2977685E-005  0.1575627E+03  0.7546771E-02  0.1204991E+00
         21   -1    0    0  501  502  0.00000000000E+00  0.00000000000E+00  0.65566031760E+03  0.65566031760E+03  0.00000000000E+00 0. -1.
          2   -1    0    0  503    0 -0.00000000000E+00 -0.00000000000E+00 -0.12130509206E+03  0.12130509206E+03  0.00000000000E+00 0. -1.
         23    2    1    2    0    0 -0.54525521182E+02 -0.44359032973E+02  0.68855768425E+02  0.13432222055E+03  0.91436239104E+02 0.  0.
         24    2    1    2    0    0  0.10487119699E+03 -0.26668664318E+02  0.26966021125E+03  0.30164761438E+03  0.81027576266E+02 0.  0.
        -11    1    4    4    0    0  0.32159974280E+02  0.75572827840E+01  0.17213813079E+03  0.17527952687E+03  0.00000000000E+00 0.  1.
         12    1    4    4    0    0  0.72711222713E+02 -0.34225947102E+02  0.97522080461E+02  0.12636808751E+03  0.00000000000E+00 0. -1.
        -11    1    3    3    0    0 -0.74423238915E+02 -0.51955903822E+02  0.67248937837E+02  0.11296306508E+03  0.00000000000E+00 0. -1.
         11    1    3    3    0    0  0.19897717733E+02  0.75968708494E+01  0.16068305877E+01  0.21359155466E+02  0.00000000000E+00 0.  1.
         21    1    1    2  503  502 -0.83999033437E+02  0.12713594402E+03  0.20381490598E+02  0.15373610845E+03  0.00000000000E+00 0. -1.
          1    1    1    2  501    0  0.33653357626E+02 -0.56108246732E+02  0.17545775526E+03  0.18725946628E+03  0.00000000000E+00 0. -1.
<scales pt_clust_5="13000.00000" pt_clust_6="13000.00000" pt_clust_7="13000.00000" pt_clust_8="13000.00000" pt_clust_9="135.13155" pt_clust_10="65.42694"></scales>
<clustering>
<clus scale="   65.427">  1 10  2 -1</clus>
<clus scale="   81.028">  5  6 -1 -1</clus>
<clus scale="   91.436">  7  8 -1 -1</clus>
<clus scale="  117.379">  2  7  1 -1</clus>
<clus scale="  135.132">  2  9  1 -1</clus>
<clus scale="   65.427">  1  5  2 -1</clus>
</clustering>
</event>
<event>
10    4  0.2977685E-005  0.1834890E+03  0.7546771E-02  0.1192999E+00
          2   -1    0    0  503    0 -0.00000000000E+00  0.00000000000E+00  0.10335596315E+04  0.10335596315E+04  0.00000000000E+00 0. -1.
         21   -1    0    0  501  502  0.00000000000E+00 -0.00000000000E+00 -0.93173543713E+02  0.93173543713E+02  0.00000000000E+00 0. -1.
         24    2    1    2    0    0  0.17192949932E+03  0.58624704666E+02  0.47026656520E+03  0.51054762164E+03  0.80694627349E+02 0.  0.
         23    2    1    2    0    0 -0.46343393190E+02  0.30892241840E+02  0.13133256374E+03  0.16536027617E+03  0.83628571314E+02 0.  0.
        -11    1    3    3    0    0  0.47426378142E+02 -0.16248622509E+02  0.16545664052E+03  0.17288487200E+03  0.00000000000E+00 0.  1.
         12    1    3    3    0    0  0.12450312117E+03  0.74873327175E+02  0.30480992468E+03  0.33766274963E+03  0.00000000000E+00 0. -1.
        -13    1    4    4    0    0 -0.49611180172E+02  0.52455116740E+02  0.71227157982E+02  0.10142049351E+03  0.00000000000E+00 0. -1.
         13    1    4    4    0    0  0.32677869815E+01 -0.21562874899E+02  0.60105405755E+02  0.63939782660E+02  0.00000000000E+00 0.  1.
         21    1    1    2  503  502 -0.13808422680E+03 -0.65290716199E+02  0.37533883039E+03  0.40522755201E+03  0.00000000000E+00 0.  1.
          1    1    1    2  501    0  0.12498120679E+02 -0.24226230307E+02 -0.36551871491E+02  0.45597725435E+02  0.00000000000E+00 0. -1.
<scales pt_clust_5="13000.00000" pt_clust_6="13000.00000" pt_clust_7="13000.00000" pt_clust_8="13000.00000" pt_clust_9="164.79258" pt_clust_10="27.26010"></scales>
<clustering>
<clus scale="   27.260">  2 10  1 -1</clus>
<clus scale="   80.695">  5  6 -1 -1</clus>
<clus scale="   83.629">  7  8 -1 -1</clus>
<clus scale="   96.478">  2  7  1 -1</clus>
<clus scale="  164.793">  1  9  2 -1</clus>
<clus scale="   27.260">  2  5  1 -1</clus>
</clustering>
</event>
<event>
10    4  0.2977685E-005  0.1150089E+03  0.7546771E-02  0.1254729E+00
          4   -1    0    0  503    0 -0.00000000000E+00  0.00000000000E+00  0.87007873030E+03  0.87007873030E+03  0.00000000000E+00 0. -1.
         21   -1    0    0  501  502  0.00000000000E+00 -0.00000000000E+00 -0.41437246715E+02  0.41437246715E+02  0.00000000000E+00 0.  1.
         24    2    1    2    0    0  0.41239798235E+02 -0.27094218446E+02  0.51011892562E+03  0.51892441906E+03  0.81402805832E+02 0.  0.
         23    2    1    2    0    0 -0.53831360803E+02  0.78973324169E+02  0.19751266533E+03  0.23735087250E+03  0.90496311391E+02 0.  0.
        -13    1    3    3    0    0 -0.55871866891E+01 -0.27762654364E+02  0.59687442287E+02  0.66064910498E+02  0.00000000000E+00 0.  1.
         14    1    3    3    0    0  0.46826984924E+02  0.66843591796E+00  0.45043148333E+03  0.45285950857E+03  0.00000000000E+00 0. -1.
        -11    1    4    4    0    0 -0.45383088723E+02  0.20768521466E+02  0.15997099924E+03  0.16757588378E+03  0.00000000000E+00 0. -1.
         11    1    4    4    0    0 -0.84482720798E+01  0.58204802703E+02  0.37541666093E+02  0.69774988727E+02  0.00000000000E+00 0.  1.
         21    1    1    2  503  502  0.18535564205E+02 -0.16914139908E+02  0.11686977285E+03  0.11953325510E+03  0.00000000000E+00 0. -1.
          3    1    1    2  501    0 -0.59440016366E+01 -0.34964965815E+02  0.41401197854E+01  0.35707430343E+02  0.00000000000E+00 0. -1.
<scales pt_clust_5="13000.00000" pt_clust_6="13000.00000" pt_clust_7="13000.00000" pt_clust_8="13000.00000" pt_clust_9="25.09293" pt_clust_10="35.83052"></scales>
<clustering>
<clus scale="   25.093">  1  9  2 -1</clus>
<clus scale="   35.831">  2 10  1 -1</clus>
<clus scale="   81.403">  5  6 -1 -1</clus>
<clus scale="   90.496">  7  8 -1 -1</clus>
<clus scale="  107.999">  1  5  2 -1</clus>
<clus scale="   35.831">  2  5  1 -1</clus>
</clustering>
</event>
<event>
10    4  0.2977685E-005  0.4147707E+03  0.7546771E-02  0.1060497E+00
          2   -1    0    0  503    0 -0.00000000000E+00  0.00000000000E+00  0.14157936842E+04  0.14157936842E+04  0.00000000000E+00 0. -1.
         21   -1    0    0  501  502  0.00000000000E+00 -0.00000000000E+00 -0.61263198239E+03  0.61263198239E+03  0.00000000000E+00 0.  1.
         23    2    1    2    0    0  0.59580768289E+02  0.19410695132E+03  0.26673492842E+02  0.22469512008E+03  0.92461047293E+02 0.  0.
         24    2    1    2    0    0 -0.22680288129E+03  0.17741134089E+03  0.14541435347E+02  0.29910074722E+03  0.79595683350E+02 0.  0.
        -13    1    4    4    0    0 -0.15081494323E+03  0.67842104875E+02  0.57563000616E+01  0.16547154827E+03  0.00000000000E+00 0.  1.
         14    1    4    4    0    0 -0.75987938062E+02  0.10956923601E+03  0.87851352858E+01  0.13362919895E+03  0.00000000000E+00 0. -1.
        -11    1    3    3    0    0  0.60319844586E+02  0.13224014042E+03 -0.20641101516E+02  0.14680597216E+03  0.00000000000E+00 0.  1.
         11    1    3    3    0    0 -0.73907629750E+00  0.61866810898E+02  0.47314594358E+02  0.77889147920E+02  0.00000000000E+00 0. -1.
         21    1    1    2  503  502 -0.26433739946E+03  0.64539246633E+02  0.84296874097E+03  0.88579674495E+03  0.00000000000E+00 0.  1.
          1    1    1    2  501    0  0.43155951246E+03 -0.43605753884E+03 -0.81021967341E+02  0.61883305435E+03  0.00000000000E+00 0. -1.
<scales pt_clust_5="13000.00000" pt_clust_6="13000.00000" pt_clust_7="13000.00000" pt_clust_8="13000.00000" pt_clust_9="297.03458" pt_clust_10="407.06192"></scales>
<clustering>
<clus scale="   79.596">  5  6 -1 -1</clus>
<clus scale="   92.461">  7  8 -1 -1</clus>
<clus scale="  223.106">  1  7  2 -1</clus>
<clus scale="  297.035">  1  9  2 -1</clus>
<clus scale="  407.062">  2 10  1 -1</clus>
<clus scale="  407.062">  2  5  1 -1</clus>
</clustering>
</event>
<event>
10    4  0.2977685E-005  0.1423553E+03  0.7546771E-02  0.1222164E+00
          2   -1    0    0  503    0 -0.00000000000E+00  0.00000000000E+00  0.17563380751E+04  0.17563380751E+04  0.00000000000E+00 0. -1.
         21   -1    0    0  501  502  0.00000000000E+00 -0.00000000000E+00 -0.27368491489E+02  0.27368491489E+02  0.00000000000E+00 0. -1.
         24    2    1    2    0    0 -0.46335004524E+02 -0.41681471363E+02  0.53663657405E+03  0.54625765049E+03  0.80835205292E+02 0.  0.
         23    2    1    2    0    0 -0.55583006044E+02  0.83574047714E+02  0.37240070836E+03  0.39634153697E+03  0.91270117415E+02 0.  0.
        -11    1    3    3    0    0 -0.77834949075E+01  0.24361924104E+02  0.13975346996E+03  0.14207434147E+03  0.00000000000E+00 0.  1.
         12    1    3    3    0    0 -0.38551509617E+02 -0.66043395466E+02  0.39688310409E+03  0.40418330902E+03  0.00000000000E+00 0. -1.
        -11    1    4    4    0    0  0.20634719305E+02 -0.11768738729E+00  0.37149445836E+02  0.42495727045E+02  0.00000000000E+00 0.  1.
         11    1    4    4    0    0 -0.76217725349E+02  0.83691735101E+02  0.33525126252E+03  0.35384580993E+03  0.00000000000E+00 0. -1.
         21    1    1    2  503  502 -0.40240850453E+02 -0.98765450445E+01  0.20497965438E+03  0.20912563424E+03  0.00000000000E+00 0.  1.
          1    1    1    2  501    0  0.14215886102E+03 -0.32016031307E+02  0.61495264677E+03  0.63198174483E+03  0.00000000000E+00 0. -1.
<scales pt_clust_5="13000.00000" pt_clust_6="13000.00000" pt_clust_7="13000.00000" pt_clust_8="13000.00000" pt_clust_9="41.43516" pt_clust_10="109.24658"></scales>
<clustering>
<clus scale="   41.435">  1  9  2 -1</clus>
<clus scale="   80.835">  5  6 -1 -1</clus>
<clus scale="   91.270">  7  8 -1 -1</clus>
<clus scale="  110.541">  1  5  2 -1</clus>
<clus scale="  109.247">  2 10  1 -1</clus>
<clus scale="  109.247">  2  5  1 -1</clus>
</clustering>
</event>
<event>
10    4  0.2977685E-005  0.1617750E+03  0.7546771E-02  0.1188447E+00
          2   -1    0    0  503    0 -0.00000000000E+00  0.00000000000E+00  0.62448418816E+02  0.62448418816E+02  0.00000000000E+00 0. -1.
         21   -1    0    0  501  502  0.00000000000E+00 -0.00000000000E+00 -0.79593126188E+03  0.79593126188E+03  0.00000000000E+00 0.  1.
         23    2    1    2    0    0 -0.14088221179E+03 -0.24549447709E+02 -0.12203331833E+03  0.20913903044E+03  0.91632583109E+02 0.  0.
         24    2    1    2    0    0  0.13064363145E+03  0.24018068163E+02 -0.49930874499E+03  0.52288297945E+03  0.80329081536E+02 0.  0.
        -13    1    4    4    0    0  0.10397139809E+03  0.26367056537E+02 -0.24866034557E+03  0.27080849461E+03  0.00000000000E+00 0.  1.
         14    1    4    4    0    0  0.26672233356E+02 -0.23489883736E+01 -0.25064839942E+03  0.25207448484E+03  0.00000000000E+00 0. -1.
        -11    1    3    3    0    0 -0.21314789135E+02  0.29445379335E+02 -0.41632708385E+02  0.55268734448E+02  0.00000000000E+00 0.  1.
         11    1    3    3    0    0 -0.11956742265E+03 -0.53994827044E+02 -0.80400609947E+02  0.15387029599E+03  0.00000000000E+00 0. -1.
         21    1    1    2  503  502  0.10725732707E+02  0.21076858802E+02 -0.17262563640E+02  0.29279197778E+02  0.00000000000E+00 0. -1.
          1    1    1    2  501    0 -0.48715236752E+00 -0.20545479257E+02 -0.94878216111E+02  0.97078473040E+02  0.00000000000E+00 0. -1.
<scales pt_clust_5="13000.00000" pt_clust_6="13000.00000" pt_clust_7="13000.00000" pt_clust_8="13000.00000" pt_clust_9="23.03478" pt_clust_10="20.55125"></scales>
<clustering>
<clus scale="   20.551">  2 10  1 -1</clus>
<clus scale="   23.035">  1  9  2 -1</clus>
<clus scale="   80.329">  5  6 -1 -1</clus>
<clus scale="   91.633">  7  8 -1 -1</clus>
<clus scale="  155.651">  2  5  1 -1</clus>
<clus scale="   20.551">  2  5  1 -1</clus>
</clustering>
</event>
<event>
10    4  0.2977685E-005  0.1036556E+03  0.7546771E-02  0.1273009E+00
         -1   -1    0    0    0  501 -0.00000000000E+00  0.00000000000E+00  0.11450510709E+03  0.11450510709E+03  0.00000000000E+00 0.  1.
         21   -1    0    0  503  502  0.00000000000E+00 -0.00000000000E+00 -0.60014399365E+03  0.60014399365E+03  0.00000000000E+00 0. -1.
         23    2    1    2    0    0  0.43914510498E+02  0.39510699007E+02 -0.14915460841E+02  0.10145715027E+03  0.81126461772E+02 0.  0.
         24    2    1    2    0    0 -0.84767666326E+01 -0.51109165916E+02 -0.52183171722E+03  0.53055066206E+03  0.80570847692E+02 0.  0.
        -11    1    4    4    0    0 -0.27214234290E+02  0.12157433695E+02 -0.16170721053E+03  0.16443126126E+03  0.00000000000E+00 0.  1.
         12    1    4    4    0    0  0.18737467657E+02 -0.63266599611E+02 -0.36012450669E+03  0.36611940080E+03  0.00000000000E+00 0. -1.
        -13    1    3    3    0    0  0.65286423860E+02  0.22666465443E+02 -0.23383653112E+02  0.72958077202E+02  0.00000000000E+00 0.  1.
         13    1    3    3    0    0 -0.21371913363E+02  0.16844233565E+02  0.84681922710E+01  0.28499073064E+02  0.00000000000E+00 0. -1.
         21    1    1    2  503  501 -0.73396798101E+01  0.22332715984E+02  0.46644225325E+02  0.52233177762E+02  0.00000000000E+00 0.  1.
         -2    1    1    2    0  502 -0.28098064055E+02 -0.10734249075E+02  0.44640661778E+01  0.30408110656E+02  0.00000000000E+00 0.  1.
<scales pt_clust_5="13000.00000" pt_clust_6="13000.00000" pt_clust_7="13000.00000" pt_clust_8="13000.00000" pt_clust_9="23.50789" pt_clust_10="30.43779"></scales>
<clustering>
<clus scale="   23.508">  1  9  2 -1</clus>
<clus scale="   30.438">  2 10  1 -1</clus>
<clus scale="   80.571">  5  6 -1 -1</clus>
<clus scale="   81.126">  7  8 -1 -1</clus>
<clus scale="  103.221">  2  5  1 -1</clus>
<clus scale="   30.438">  2  5  1 -1</clus>
</clustering>
</event>
<event>
10    4  0.2977685E-005  0.1049990E+03  0.7546771E-02  0.1274954E+00
         21   -1    0    0  503  502  0.00000000000E+00  0.00000000000E+00  0.32207500049E+03  0.32207500049E+03  0.00000000000E+00 0. -1.
         -1   -1    0    0    0  501 -0.00000000000E+00 -0.00000000000E+00 -0.12917101009E+03  0.12917101009E+03  0.00000000000E+00 0.  1.
         23    2    1    2    0    0  0.47724192007E+01 -0.77695269625E+02  0.19037520035E+02  0.12076105098E+03  0.90340873122E+02 0.  0.
         24    2    1    2    0    0  0.32838523628E+02  0.33028388243E+02  0.15435971954E+03  0.17968010182E+03  0.79301783779E+02 0.  0.
        -13    1    4    4    0    0 -0.15671399595E+02  0.25924831505E+02  0.19107138383E+02  0.35815812025E+02  0.00000000000E+00 0.  1.
         14    1    4    4    0    0  0.48509923223E+02  0.71035567386E+01  0.13525258115E+03  0.14386428979E+03  0.00000000000E+00 0. -1.
        -11    1    3    3    0    0  0.23009720944E+02 -0.22568754244E+02  0.46461170468E+02  0.56545877722E+02  0.00000000000E+00 0.  1.
         11    1    3    3    0    0 -0.18237301744E+02 -0.55126515381E+02 -0.27423650433E+02  0.64215173253E+02  0.00000000000E+00 0. -1.
         21    1    1    2  503  501  0.11116663636E+02  0.26291598861E+02 -0.53787874554E+02  0.60893052396E+02  0.00000000000E+00 0.  1.
         -2    1    1    2    0  502 -0.48727606465E+02  0.18375282521E+02  0.73294625383E+02  0.89911805396E+02  0.00000000000E+00 0.  1.
<scales pt_clust_5="13000.00000" pt_clust_6="13000.00000" pt_clust_7="13000.00000" pt_clust_8="13000.00000" pt_clust_9="28.54520" pt_clust_10="52.05173"></scales>
<clustering>
<clus scale="   28.545">  2  9  1 -1</clus>
<clus scale="   52.052">  1 10  2 -1</clus>
<clus scale="   79.302">  5  6 -1 -1</clus>
<clus scale="   90.341">  7  8 -1 -1</clus>
<clus scale="   95.667">  1  5  2 -1</clus>
<clus scale="   52.052">  1  5  2 -1</clus>
</clustering>
</event>
<event>
10    4  0.2977685E-005  0.3730619E+03  0.7546771E-02  0.1081173E+00
          2   -1    0    0  502    0 -0.00000000000E+00  0.00000000000E+00  0.98168542341E+03  0.98168542341E+03  0.00000000000E+00 0. -1.
         21   -1    0    0  503  502  0.00000000000E+00 -0.00000000000E+00 -0.44343016417E+03  0.44343016417E+03  0.00000000000E+00 0. -1.
         24    2    1    2    0    0  0.13775583318E+03 -0.69663724029E+02 -0.95669107733E+02  0.19852789543E+03  0.80193784462E+02 0.  0.
         23    2    1    2    0    0 -0.11548950906E+03  0.35886043950E+03 -0.12620227941E+03  0.40862312123E+03  0.94483851201E+02 0.  0.
        -11    1    3    3    0    0  0.25290365484E+02  0.81382883469E+01 -0.45832787600E+02  0.52976209215E+02  0.00000000000E+00 0.  1.
         12    1    3    3    0    0  0.11246546770E+03 -0.77802012376E+02 -0.49836320132E+02  0.14555168621E+03  0.00000000000E+00 0. -1.
        -13    1    4    4    0    0 -0.85889678627E+02  0.31284072906E+03 -0.73470573763E+02  0.33263235541E+03  0.00000000000E+00 0. -1.
         13    1    4    4    0    0 -0.29599830433E+02  0.46019710438E+02 -0.52731705648E+02  0.75990765828E+02  0.00000000000E+00 0.  1.
         21    1    1    2  503  501  0.20177407621E+02 -0.16955256928E+02  0.75849498705E+02  0.80297913855E+02  0.00000000000E+00 0. -1.
          1    1    1    2  501    0 -0.42443731745E+02 -0.27224145854E+03  0.68427714767E+03  0.73766665706E+03  0.00000000000E+00 0. -1.
<scales pt_clust_5="13000.00000" pt_clust_6="13000.00000" pt_clust_7="13000.00000" pt_clust_8="13000.00000" pt_clust_9="26.13909" pt_clust_10="370.66310"></scales>
<clustering>
<clus scale="   26.139">  9 10 -1 -1</clus>
<clus scale="   80.194">  5  6 -1 -1</clus>
<clus scale="   94.484">  7  8 -1 -1</clus>
<clus scale="  173.956">  1  5  2 -1</clus>
<clus scale="  370.663">  2  9  1 -1</clus>
<clus scale="  370.663">  2  5  1 -1</clus>
</clustering>
</event>
<event>
10    4  0.2977685E-005  0.1562769E+03  0.7546771E-02  0.1196250E+00
         21   -1    0    0  501  502  0.00000000000E+00  0.00000000000E+00  0.16328673276E+03  0.16328673276E+03  0.00000000000E+00 0. -1.
          2   -1    0    0  503    0 -0.00000000000E+00 -0.00000000000E+00 -0.39885105729E+03  0.39885105729E+03  0.00000000000E+00 0. -1.
         24    2    1    2    0    0  0.96222520453E+02  0.77721381035E+02 -0.21421501299E+03  0.25821562763E+03  0.74080038123E+02 0.  0.
         23    2    1    2    0    0 -0.86068114168E+02 -0.64394452066E+02 -0.75911963456E+01  0.14274147730E+03  0.93611630395E+02 0.  0.
        -13    1    3    3    0    0  0.63030705874E+02  0.22907105797E+02 -0.16275364721E+03  0.17602941532E+03  0.00000000000E+00 0.  1.
         14    1    3    3    0    0  0.33191814579E+02  0.54814275238E+02 -0.51461365781E+02  0.82186212304E+02  0.00000000000E+00 0. -1.
        -11    1    4    4    0    0 -0.10613172203E+03 -0.47609623572E+02 -0.45975280770E+01  0.11641200944E+03  0.00000000000E+00 0.  1.
         11    1    4    4    0    0  0.20063607859E+02 -0.16784828494E+02 -0.29936682687E+01  0.26329467857E+02  0.00000000000E+00 0. -1.
         21    1    1    2  503  502 -0.33280998454E+00  0.20100531314E+02 -0.82070421471E+02  0.84496723025E+02  0.00000000000E+00 0.  1.
          1    1    1    2  501    0 -0.98215963007E+01 -0.33427460283E+02  0.68312306276E+02  0.76683962101E+02  0.00000000000E+00 0. -1.
<scales pt_clust_5="13000.00000" pt_clust_6="13000.00000" pt_clust_7="13000.00000" pt_clust_8="13000.00000" pt_clust_9="20.10329" pt_clust_10="34.58600"></scales>
<clustering>
<clus scale="   20.103">  2  9  1 -1</clus>
<clus scale="   34.586">  1 10  2 -1</clus>
<clus scale="   74.080">  5  6 -1 -1</clus>
<clus scale="   93.612">  7  8 -1 -1</clus>
<clus scale="  145.421">  2  5  1 -1</clus>
<clus scale="   34.586">  1  5  2 -1</clus>
</clustering>
</event>
<event>
10    4  0.2977685E-005  0.1864853E+03  0.7546771E-02  0.1168904E+00
          2   -1    0    0  503    0 -0.00000000000E+00  0.00000000000E+00  0.36809886757E+03  0.36809886757E+03  0.00000000000E+00 0. -1.
         21   -1    0    0  501  502  0.00000000000E+00 -0.00000000000E+00 -0.88619304611E+03  0.88619304611E+03  0.00000000000E+00 0. -1.
         24    2    1    2    0    0  0.11609998697E+03  0.69105432131E+02  0.26078012521E+02  0.15997010898E+03  0.81581893256E+02 0.  0.
         23    2    1    2    0    0  0.23609618283E+03  0.65181403931E+02 -0.59302593878E+03  0.64813512564E+03  0.91702530246E+02 0.  0.
        -11    1    3    3    0    0  0.12829307437E+02  0.24527049819E+02 -0.24196493806E+02  0.36764624500E+02  0.00000000000E+00 0.  1.
         12    1    3    3    0    0  0.10327067953E+03  0.44578382313E+02  0.50274506328E+02  0.12320548448E+03  0.00000000000E+00 0. -1.
        -13    1    4    4    0    0  0.25935417775E+02 -0.21893994648E+02 -0.83380942997E+02  0.90024299786E+02  0.00000000000E+00 0.  1.
         13    1    4    4    0    0  0.21016076506E+03  0.87075398578E+02 -0.50964499579E+03  0.55811082586E+03  0.00000000000E+00 0. -1.
         21    1    1    2  503  502 -0.22634327114E+03 -0.53205544908E+01  0.11536788588E+03  0.25410496608E+03  0.00000000000E+00 0. -1.
          1    1    1    2  501    0 -0.12585289866E+03 -0.12896628157E+03 -0.66514138169E+02  0.19208171297E+03  0.00000000000E+00 0. -1.
<scales pt_clust_5="13000.00000" pt_clust_6="13000.00000" pt_clust_7="13000.00000" pt_clust_8="13000.00000" pt_clust_9="162.38043" pt_clust_10="150.61205"></scales>
<clustering>
<clus scale="   81.582">  5  6 -1 -1</clus>
<clus scale="   91.703">  7  8 -1 -1</clus>
<clus scale="  157.830">  1  5  2 -1</clus>
<clus scale="  150.612">  2 10  1 -1</clus>
<clus scale="  162.380">  1  9  2 -1</clus>
<clus scale="  150.612">  2  5  1 -1</clus>
</clustering>
</event>
<event>
10    4  0.2977685E-005  0.1725896E+03  0.7546771E-02  0.1204131E+00
         21   -1    0    0  501  502  0.00000000000E+00  0.00000000000E+00  0.62775608243E+02  0.62775608243E+02  0.00000000000E+00 0.  1.
          2   -1    0    0  503    0 -0.00000000000E+00 -0.00000000000E+00 -0.11055079330E+04  0.11055079330E+04  0.00000000000E+00 0. -1.
         24    2    1    2    0    0 -0.98235203031E+01 -0.32247987092E+02 -0.18415442191E+03  0.20465612649E+03  0.82673120036E+02 0.  0.
         23    2    1    2    0    0  0.13900134277E+03 -0.21243596100E+02 -0.12987395559E+03  0.21127262579E+03  0.89421554453E+02 0.  0.
        -13    1    3    3    0    0 -0.32381328461E+02  0.11969325840E+02 -0.43719290147E+02  0.55706296995E+02  0.00000000000E+00 0.  1.
         14    1    3    3    0    0  0.22557808158E+02 -0.44217312932E+02 -0.14043513176E+03  0.14894982949E+03  0.00000000000E+00 0. -1.
        -11    1    4    4    0    0  0.10201093804E+03  0.93448562824E+01 -0.41144404106E+02  0.11039211842E+03  0.00000000000E+00 0.  1.
         11    1    4    4    0    0  0.36990404724E+02 -0.30588452382E+02 -0.88729551487E+02  0.10088050737E+03  0.00000000000E+00 0. -1.
         21    1    1    2  503  502 -0.13299829354E+03  0.80442455268E+02 -0.66770749075E+03  0.68556022922E+03  0.00000000000E+00 0. -1.
          1    1    1    2  501    0  0.38204710727E+01 -0.26950872076E+02 -0.60996456494E+02  0.66794559731E+02  0.00000000000E+00 0. -1.
<scales pt_clust_5="13000.00000" pt_clust_6="13000.00000" pt_clust_7="13000.00000" pt_clust_8="13000.00000" pt_clust_9="147.61765" pt_clust_10="27.22033"></scales>
<clustering>
<clus scale="   27.220">  1 10  2 -1</clus>
<clus scale="   82.673">  5  6 -1 -1</clus>
<clus scale="   89.422">  7  8 -1 -1</clus>
<clus scale="   90.982">  2  5  1 -1</clus>
<clus scale="  147.618">  2  9  1 -1</clus>
<clus scale="   27.220">  1  5  2 -1</clus>
</clustering>
</event>
<event>
10    4  0.2977685E-005  0.1500064E+03  0.7546771E-02  0.1204460E+00
         21   -1    0    0  503  502  0.00000000000E+00  0.00000000000E+00  0.16808115525E+03  0.16808115525E+03  0.00000000000E+00 0.  1.
          2   -1    0    0  502    0 -0.00000000000E+00 -0.00000000000E+00 -0.20968649791E+03  0.20968649791E+03  0.00000000000E+00 0. -1.
         24    2    1    2    0    0  0.11305652115E+03  0.56837925769E+02 -0.33998827472E+02  0.15250651809E+03  0.78038394461E+02 0.  0.
         23    2    1    2    0    0 -0.96410966923E+02 -0.77056492552E+01  0.46875427054E+02  0.14564614799E+03  0.98290605800E+02 0.  0.
        -11    1    3    3    0    0  0.35152886810E+02 -0.18142345031E+02 -0.14355020035E+01  0.39584476759E+02  0.00000000000E+00 0.  1.
         12    1    3    3    0    0  0.77903634343E+02  0.74980270800E+02 -0.32563325469E+02  0.11292204133E+03  0.00000000000E+00 0. -1.
        -13    1    4    4    0    0 -0.28718203568E+02  0.39523687957E+02 -0.34441288781E+01  0.48976720486E+02  0.00000000000E+00 0. -1.
         13    1    4    4    0    0 -0.67692763355E+02 -0.47229337212E+02  0.50319555932E+02  0.96669427501E+02  0.00000000000E+00 0.  1.
         21    1    1    2  503  501  0.22791204020E+01 -0.21443767778E+02 -0.34169938987E+02  0.40405622093E+02  0.00000000000E+00 0. -1.
          1    1    1    2  501    0 -0.18924674632E+02 -0.27688508736E+02 -0.20312003256E+02  0.39209364981E+02  0.00000000000E+00 0. -1.
<scales pt_clust_5="13000.00000" pt_clust_6="13000.00000" pt_clust_7="13000.00000" pt_clust_8="13000.00000" pt_clust_9="20.89793" pt_clust_10="58.05401"></scales>
<clustering>
<clus scale="   20.898">  9 10 -1 -1</clus>
<clus scale="   58.054">  1  9  2 -1</clus>
<clus scale="   78.038">  5  6 -1 -1</clus>
<clus scale="   98.291">  7  8 -1 -1</clus>
<clus scale="  137.590">  2  5  1 -1</clus>
<clus scale="   58.054">  1  5  2 -1</clus>
</clustering>
</event>
<event>
10    4  0.2977685E-005  0.9196742E+02  0.7546771E-02  0.1307234E+00
          2   -1    0    0  502    0 -0.00000000000E+00  0.00000000000E+00  0.34182366496E+03  0.34182366496E+03  0.00000000000E+00 0. -1.
         21   -1    0    0  503  502  0.00000000000E+00 -0.00000000000E+00 -0.65955227370E+02  0.65955227370E+02  0.00000000000E+00 0. -1.
         24    2    1    2    0    0  0.17283096233E+02  0.15583355550E+02  0.15143943820E+03  0.17158136400E+03  0.77231565068E+02 0.  0.
         23    2    1    2    0    0  0.51626382313E+02  0.15474486548E+02  0.32465713627E+02  0.11099988283E+03  0.91445111085E+02 0.  0.
        -13    1    3    3    0    0 -0.20399702699E+02  0.31337104677E+02  0.51713741405E+02  0.63815931003E+02  0.00000000000E+00 0.  1.
         14    1    3    3    0    0  0.37682798932E+02 -0.15753749127E+02  0.99725696795E+02  0.10776543299E+03  0.00000000000E+00 0. -1.
        -11    1    4    4    0    0  0.48333582563E+02  0.41583452995E+02 -0.63814790947E+01  0.64078405425E+02  0.00000000000E+00 0. -1.
         11    1    4    4    0    0  0.32927997501E+01 -0.26108966447E+02  0.38847192722E+02  0.46921477401E+02  0.00000000000E+00 0.  1.
         21    1    1    2  503  501 -0.89077293308E+01 -0.21663062519E+02  0.18285431566E+02  0.29715196905E+02  0.00000000000E+00 0.  1.
          1    1    1    2  501    0 -0.60001749215E+02 -0.93947795792E+01  0.73677854198E+02  0.95482448604E+02  0.00000000000E+00 0. -1.
<scales pt_clust_5="13000.00000" pt_clust_6="13000.00000" pt_clust_7="13000.00000" pt_clust_8="13000.00000" pt_clust_9="23.42298" pt_clust_10="63.03627"></scales>
<clustering>
<clus scale="   23.423">  2  9  1 -1</clus>
<clus scale="   63.036">  2 10  1 -1</clus>
<clus scale="   77.232">  5  6 -1 -1</clus>
<clus scale="   77.849">  1  5  2 -1</clus>
<clus scale="   91.445">  7  8 -1 -1</clus>
<clus scale="   23.423">  2  5  1 -1</clus>
</clustering>
</event>
<event>
10    4  0.2977685E-005  0.9574326E+02  0.7546771E-02  0.1294292E+00
         -1   -1    0    0    0  501 -0.00000000000E+00  0.00000000000E+00  0.12271694267E+03  0.12271694267E+03  0.00000000000E+00 0.  1.
         21   -1    0    0  503  502  0.00000000000E+00 -0.00000000000E+00 -0.53776331401E+03  0.53776331401E+03  0.00000000000E+00 0. -1.
         23    2    1    2    0    0  0.24375183958E+02 -0.48880206063E+02 -0.13661902366E+03  0.17310069491E+03  0.91190289038E+02 0.  0.
         24    2    1    2    0    0 -0.18313199474E+02 -0.21398294124E+02 -0.35122305023E+03  0.36189431762E+03  0.82562738874E+02 0.  0.
        -13    1    4    4    0    0  0.23135161565E+02 -0.30962402076E+02 -0.10220504702E+03  0.10926928973E+03  0.00000000000E+00 0.  1.
         14    1    4    4    0    0 -0.41448361038E+02  0.95641079518E+01 -0.24901800321E+03  0.25262502789E+03  0.00000000000E+00 0. -1.
        -13    1    3    3    0    0  0.38169625585E+02 -0.69839750404E+02 -0.11570690393E+03  0.14043716984E+03  0.00000000000E+00 0. -1.
         13    1    3    3    0    0 -0.13794441627E+02  0.20959544341E+02 -0.20912119725E+02  0.32663525073E+02  0.00000000000E+00 0.  1.
         21    1    1    2  503  501  0.19025064603E+00  0.34281115692E+02  0.81072977072E+02  0.88023057773E+02  0.00000000000E+00 0.  1.
         -2    1    1    2    0  502 -0.62522351305E+01  0.35997384495E+02 -0.82772745187E+01  0.37462186376E+02  0.00000000000E+00 0.  1.
<scales pt_clust_5="13000.00000" pt_clust_6="13000.00000" pt_clust_7="13000.00000" pt_clust_8="13000.00000" pt_clust_9="34.28164" pt_clust_10="49.49081"></scales>
<clustering>
<clus scale="   34.282">  1  9  2 -1</clus>
<clus scale="   49.491">  2 10  1 -1</clus>
<clus scale="   82.563">  5  6 -1 -1</clus>
<clus scale="   87.565">  2  5  1 -1</clus>
<clus scale="   91.190">  7  8 -1 -1</clus>
<clus scale="   49.491">  2  5  1 -1</clus>
</clustering>
</event>
<event>
10    4  0.2977685E-005  0.1042657E+03  0.7546771E-02  0.1274109E+00
         21   -1    0    0  503  502  0.00000000000E+00  0.00000000000E+00  0.94759477170E+02  0.94759477170E+02  0.00000000000E+00 0.  1.
         -3   -1    0    0    0  501 -0.00000000000E+00 -0.00000000000E+00 -0.68141370644E+03  0.68141370644E+03  0.00000000000E+00 0.  1.
         23    2    1    2    0    0  0.28132659306E+02  0.22463318999E+02 -0.33896171297E+03  0.35178488523E+03  0.86956974419E+02 0.  0.
         24    2    1    2    0    0 -0.78055756388E+02 -0.19699213399E+02 -0.16056228529E+03  0.19700615250E+03  0.80934643717E+02 0.  0.
        -11    1    4    4    0    0 -0.55842850298E+02 -0.48023673348E+02 -0.79850456006E+02  0.10863145242E+03  0.00000000000E+00 0.  1.
         12    1    4    4    0    0 -0.22212906090E+02  0.28324459949E+02 -0.80711829279E+02  0.88374700079E+02  0.00000000000E+00 0. -1.
        -11    1    3    3    0    0 -0.22610118783E+02  0.34277196856E+02 -0.17458952335E+03  0.17935340911E+03  0.00000000000E+00 0.  1.
         11    1    3    3    0    0  0.50742778089E+02 -0.11813877857E+02 -0.16437218962E+03  0.17243147612E+03  0.00000000000E+00 0. -1.
         21    1    1    2  503  501  0.33012109820E+02 -0.26428898540E+02 -0.15120903215E+03  0.15701101068E+03  0.00000000000E+00 0.  1.
         -4    1    1    2    0  502  0.16910987261E+02  0.23664792940E+02  0.64078801127E+02  0.70371135197E+02  0.00000000000E+00 0.  1.
<scales pt_clust_5="13000.00000" pt_clust_6="13000.00000" pt_clust_7="13000.00000" pt_clust_8="13000.00000" pt_clust_9="42.23179" pt_clust_10="29.08615"></scales>
<clustering>
<clus scale="   29.086">  1 10  2 -1</clus>
<clus scale="   42.232">  2  9  1 -1</clus>
<clus scale="   80.935">  5  6 -1 -1</clus>
<clus scale="   86.957">  7  8 -1 -1</clus>
<clus scale="   99.299">  1  5  2 -1</clus>
<clus scale="   29.086">  1  5  2 -1</clus>
</clustering>
</event>
<event>
10    4  0.2977685E-005  0.1644683E+03  0.7546771E-02  0.1190842E+00
          2   -1    0    0  503    0 -0.00000000000E+00  0.00000000000E+00  0.12079208843E+03  0.12079208843E+03  0.00000000000E+00 0. -1.
         21   -1    0    0  501  502  0.00000000000E+00 -0.00000000000E+00 -0.74087078488E+03  0.74087078488E+03  0.00000000000E+00 0. -1.
         24    2    1    2    0    0  0.26992792832E+02  0.10706540493E+03 -0.13823329812E+03  0.19426256073E+03  0.80236438075E+02 0.  0.
         23    2    1    2    0    0  0.11787462084E+03 -0.11042730446E+03 -0.36530332496E+02  0.18851363161E+03  0.90079455502E+02 0.  0.
        -13    1    3    3    0    0 -0.27994591525E+02  0.31042841595E+02 -0.32851524105E+02  0.53165569733E+02  0.00000000000E+00 0.  1.
         14    1    3    3    0    0  0.54987384356E+02  0.76022563339E+02 -0.10538177401E+03  0.14109699100E+03  0.00000000000E+00 0. -1.
        -13    1    4    4    0    0  0.36309905824E+02  0.10915058983E+02 -0.14792740683E+02  0.40698562020E+02  0.00000000000E+00 0.  1.
         13    1    4    4    0    0  0.81564715016E+02 -0.12134236344E+03 -0.21737591814E+02  0.14781506959E+03  0.00000000000E+00 0. -1.
         21    1    1    2  503  502 -0.42986897071E+01  0.21838455310E+02 -0.17874434792E+02  0.28546318198E+02  0.00000000000E+00 0.  1.
          1    1    1    2  501    0 -0.14056872396E+03 -0.18476555788E+02 -0.42744063104E+03  0.45034036277E+03  0.00000000000E+00 0. -1.
<scales pt_clust_5="13000.00000" pt_clust_6="13000.00000" pt_clust_7="13000.00000" pt_clust_8="13000.00000" pt_clust_9="22.25751" pt_clust_10="137.60636"></scales>
<clustering>
<clus scale="   22.258">  1  9  2 -1</clus>
<clus scale="   80.236">  5  6 -1 -1</clus>
<clus scale="   90.079">  7  8 -1 -1</clus>
<clus scale="  140.489">  1  5  2 -1</clus>
<clus scale="  137.606">  2 10  1 -1</clus>
<clus scale="  137.606">  2  5  1 -1</clus>
</clustering>
</event>
<event>
10    4  0.2977685E-005  0.1405522E+03  0.7546771E-02  0.1215168E+00
         21   -1    0    0  501  502  0.00000000000E+00  0.00000000000E+00  0.30457875997E+03  0.30457875997E+03  0.00000000000E+00 0. -1.
          4   -1    0    0  503    0 -0.00000000000E+00 -0.00000000000E+00 -0.35380477472E+03  0.35380477472E+03  0.00000000000E+00 0. -1.
         24    2    1    2    0    0  0.92017627158E+02 -0.11336317695E+03 -0.12630959502E+03  0.21069438053E+03  0.84377453135E+02 0.  0.
         23    2    1    2    0    0  0.63827318692E+02  0.52881932274E+02  0.12578028157E+03  0.17849035500E+03  0.95748118636E+02 0.  0.
        -11    1    3    3    0    0  0.28410332981E+02 -0.10379166319E+02  0.65661070593E+01  0.30951379218E+02  0.00000000000E+00 0.  1.
         12    1    3    3    0    0  0.63607294176E+02 -0.10298401063E+03 -0.13287570208E+03  0.17974300131E+03  0.00000000000E+00 0. -1.
        -11    1    4    4    0    0 -0.14650440394E+02 -0.15225411682E+02  0.33009940874E+02  0.39193172380E+02  0.00000000000E+00 0.  1.
         11    1    4    4    0    0  0.78477759087E+02  0.68107343956E+02  0.92770340695E+02  0.13929718262E+03  0.00000000000E+00 0. -1.
         21    1    1    2  503  502 -0.53915123657E+02  0.40159100431E+01 -0.12067723295E+03  0.13223449869E+03  0.00000000000E+00 0. -1.
          3    1    1    2  501    0 -0.10192982219E+03  0.56465334631E+02  0.71980531644E+02  0.13696430047E+03  0.00000000000E+00 0. -1.
<scales pt_clust_5="13000.00000" pt_clust_6="13000.00000" pt_clust_7="13000.00000" pt_clust_8="13000.00000" pt_clust_9="54.06448" pt_clust_10="123.58540"></scales>
<clustering>
<clus scale="   54.064">  2  9  1 -1</clus>
<clus scale="   84.377">  5  6 -1 -1</clus>
<clus scale="   95.748">  7  8 -1 -1</clus>
<clus scale="  123.585">  1 10  2 -1</clus>
<clus scale="  133.067">  2  5  1 -1</clus>
<clus scale="  123.585">  1  5  2 -1</clus>
</clustering>
</event>
<event>
10    4  0.2977685E-005  0.1307845E+03  0.7546771E-02  0.1229246E+00
         21   -1    0    0  501  502  0.00000000000E+00  0.00000000000E+00  0.69397283505E+02  0.69397283505E+02  0.00000000000E+00 0. -1.
          2   -1    0    0  503    0 -0.00000000000E+00 -0.00000000000E+00 -0.58208107419E+03  0.58208107419E+03  0.00000000000E+00 0. -1.
         23    2    1    2    0    0  0.41542782095E+02  0.94142914161E+02 -0.16235483608E+03  0.21316019132E+03  0.92138392291E+02 0.  0.
         24    2    1    2    0    0 -0.16809577916E+02 -0.71588595929E+02 -0.49235539292E+02  0.11980110179E+03  0.80750707012E+02 0.  0.
        -13    1    4    4    0    0 -0.30033470720E+02 -0.26408164743E+02 -0.59430700284E+02  0.71633851389E+02  0.00000000000E+00 0.  1.
         14    1    4    4    0    0  0.13223892804E+02 -0.45180431186E+02  0.10195160993E+02  0.48167250396E+02  0.00000000000E+00 0. -1.
        -13    1    3    3    0    0  0.70650844278E+02  0.59815504796E+02 -0.11790359030E+03  0.14990227822E+03  0.00000000000E+00 0. -1.
         13    1    3    3    0    0 -0.29108062183E+02  0.34327409365E+02 -0.44451245776E+02  0.63257913093E+02  0.00000000000E+00 0.  1.
         21    1    1    2  503  502 -0.14373261717E+01  0.38325970729E+02 -0.98918833867E+02  0.10609373984E+03  0.00000000000E+00 0.  1.
          1    1    1    2  501    0 -0.23295878007E+02 -0.60880288961E+02 -0.20217458145E+03  0.21242332476E+03  0.00000000000E+00 0. -1.
<scales pt_clust_5="13000.00000" pt_clust_6="13000.00000" pt_clust_7="13000.00000" pt_clust_8="13000.00000" pt_clust_9="38.35291" pt_clust_10="50.35608"></scales>
<clustering>
<clus scale="   38.353">  2  9  1 -1</clus>
<clus scale="   50.356">  1 10  2 -1</clus>
<clus scale="   80.751">  5  6 -1 -1</clus>
<clus scale="   92.138">  7  8 -1 -1</clus>
<clus scale="  123.028">  1  5  2 -1</clus>
<clus scale="   50.356">  1  5  2 -1</clus>
</clustering>
</event>
<event>
10    4  0.2977685E-005  0.1299678E+03  0.7546771E-02  0.1230535E+00
         21   -1    0    0  503  502  0.00000000000E+00  0.00000000000E+00  0.68709678214E+02  0.68709678214E+02  0.00000000000E+00 0.  1.
         -1   -1    0    0    0  501 -0.00000000000E+00 -0.00000000000E+00 -0.88621226415E+03  0.88621226415E+03  0.00000000000E+00 0.  1.
         24    2    1    2    0    0  0.58853232196E+02 -0.12262646114E+02 -0.11883561539E+03  0.15594811733E+03  0.81140842880E+02 0.  0.
         23    2    1    2    0    0 -0.15221320138E+03  0.78978005029E+01 -0.15622528338E+03  0.23709153706E+03  0.92600344777E+02 0.  0.
        -11    1    3    3    0    0  0.62733595883E+02 -0.16309694937E+02 -0.12898335419E+03  0.14435447988E+03  0.00000000000E+00 0.  1.
         12    1    3    3    0    0 -0.38803636867E+01  0.40470488232E+01  0.10147738804E+02  0.11593637451E+02  0.00000000000E+00 0. -1.
        -13    1    4    4    0    0 -0.10640631545E+03  0.48058677823E+02 -0.11220725445E+03  0.16193334565E+03  0.00000000000E+00 0.  1.
         13    1    4    4    0    0 -0.45806885930E+02 -0.40160877321E+02 -0.44018028922E+02  0.75158191409E+02  0.00000000000E+00 0. -1.
         21    1    1    2  503  501  0.57980269702E+01 -0.45304393727E+02 -0.18244356167E+03  0.18807381105E+03  0.00000000000E+00 0.  1.
         -2    1    1    2    0  502  0.87561942211E+02  0.49669239338E+02 -0.35999812549E+03  0.37380847692E+03  0.00000000000E+00 0.  1.
<scales pt_clust_5="13000.00000" pt_clust_6="13000.00000" pt_clust_7="13000.00000" pt_clust_8="13000.00000" pt_clust_9="45.67390" pt_clust_10="94.24158"></scales>
<clustering>
<clus scale="   45.674">  2  9  1 -1</clus>
<clus scale="   81.141">  5  6 -1 -1</clus>
<clus scale="   92.600">  7  8 -1 -1</clus>
<clus scale="   94.242">  1 10  2 -1</clus>
<clus scale="  122.068">  2  5  1 -1</clus>
<clus scale="   94.242">  1  5  2 -1</clus>
</clustering>
</event>
<event>
10    4  0.2977685E-005  0.1645398E+03  0.7546771E-02  0.1185290E+00
          2   -1    0    0  503    0 -0.00000000000E+00  0.00000000000E+00  0.10530753978E+04  0.10530753978E+04  0.00000000000E+00 0. -1.
         21   -1    0    0  501  502  0.00000000000E+00 -0.00000000000E+00 -0.67581538437E+03  0.67581538437E+03  0.00000000000E+00 0. -1.
         24    2    1    2    0    0 -0.83450675257E+02  0.65021806143E+02  0.56812838970E+03  0.58341859215E+03  0.80097041198E+02 0.  0.
         23    2    1    2    0    0  0.13940648743E+03 -0.37664983253E+02 -0.16883249364E+03  0.24013778725E+03  0.91153311825E+02 0.  0.
        -11    1    3    3    0    0 -0.90534057209E+02  0.28162123734E+02  0.38738628720E+03  0.39882033077E+03  0.00000000000E+00 0.  1.
         12    1    3    3    0    0  0.70833819518E+01  0.36859682409E+02  0.18074210250E+03  0.18459826138E+03  0.00000000000E+00 0. -1.
        -11    1    4    4    0    0 -0.87866016325E+01 -0.19292447171E+02 -0.16949029375E+02  0.27141711126E+02  0.00000000000E+00 0.  1.
         11    1    4    4    0    0  0.14819308906E+03 -0.18372536081E+02 -0.15188346426E+03  0.21299607612E+03  0.00000000000E+00 0. -1.
         21    1    1    2  503  502  0.89168415343E+01  0.55746419781E+02  0.43380393937E+03  0.43746203400E+03  0.00000000000E+00 0. -1.
          1    1    1    2  501    0 -0.64872653704E+02 -0.83103242671E+02 -0.45583982200E+03  0.46787236878E+03  0.00000000000E+00 0. -1.
<scales pt_clust_5="13000.00000" pt_clust_6="13000.00000" pt_clust_7="13000.00000" pt_clust_8="13000.00000" pt_clust_9="56.45506" pt_clust_10="104.94455"></scales>
<clustering>
<clus scale="   56.455">  1  9  2 -1</clus>
<clus scale="   80.097">  5  6 -1 -1</clus>
<clus scale="   91.153">  7  8 -1 -1</clus>
<clus scale="  104.945">  2 10  1 -1</clus>
<clus scale="  158.682">  1  5  2 -1</clus>
<clus scale="  104.945">  2  5  1 -1</clus>
</clustering>
</event>
<event>
10    4  0.2977685E-005  0.2034024E+03  0.7546771E-02  0.1147973E+00
         -3   -1    0    0    0  501 -0.00000000000E+00  0.00000000000E+00  0.38505604751E+03  0.38505604751E+03  0.00000000000E+00 0.  1.
         21   -1    0    0  503  502  0.00000000000E+00 -0.00000000000E+00 -0.28967023935E+03  0.28967023935E+03  0.00000000000E+00 0.  1.
         24    2    1    2    0    0  0.14325600177E+03 -0.13122436851E+03  0.27160515557E+03  0.34391227576E+03  0.82244610450E+02 0.  0.
         23    2    1    2    0    0 -0.60046510529E+02  0.10156209905E+03 -0.13981213182E+03  0.20565266673E+03  0.93942236179E+02 0.  0.
        -13    1    3    3    0    0  0.11657094970E+03 -0.10167915131E+03  0.14811164262E+03  0.21415997479E+03  0.00000000000E+00 0.  1.
         14    1    3    3    0    0  0.26685052076E+02 -0.29545217203E+02  0.12349351296E+03  0.12975230097E+03  0.00000000000E+00 0. -1.
        -13    1    4    4    0    0 -0.41661396160E+02  0.68044388981E+02 -0.23432786298E+02  0.83155314175E+02  0.00000000000E+00 0. -1.
         13    1    4    4    0    0 -0.18385114369E+02  0.33517710071E+02 -0.11637934552E+03  0.12249735256E+03  0.00000000000E+00 0.  1.
         21    1    1    2  503  501 -0.17396584567E+02 -0.21392472441E+02  0.10573846794E+02  0.29531089850E+02  0.00000000000E+00 0.  1.
         -4    1    1    2    0  502 -0.65812906675E+02  0.51054741904E+02 -0.46981062387E+02  0.95630254516E+02  0.00000000000E+00 0.  1.
<scales pt_clust_5="13000.00000" pt_clust_6="13000.00000" pt_clust_7="13000.00000" pt_clust_8="13000.00000" pt_clust_9="27.57316" pt_clust_10="83.35665"></scales>
<clustering>
<clus scale="   27.573">  1  9  2 -1</clus>
<clus scale="   82.245">  5  6 -1 -1</clus>
<clus scale="   83.357">  2 10  1 -1</clus>
<clus scale="   93.942">  7  8 -1 -1</clus>
<clus scale="  198.271">  1  5  2 -1</clus>
<clus scale="   83.357">  2  5  1 -1</clus>
</clustering>
</event>
<event>
10    4  0.2977685E-005  0.1010535E+03  0.7546771E-02  0.1282815E+00
         21   -1    0    0  501  502  0.00000000000E+00  0.00000000000E+00  0.87849437241E+02  0.87849437241E+02  0.00000000000E+00 0.  1.
          2   -1    0    0  503    0 -0.00000000000E+00 -0.00000000000E+00 -0.47217914915E+03  0.47217914915E+03  0.00000000000E+00 0. -1.
         24    2    1    2    0    0 -0.58754788938E+02  0.21580576556E+02 -0.53525403182E+02  0.11489098572E+03  0.80106949174E+02 0.  0.
         23    2    1    2    0    0  0.21175110094E+02 -0.60825772211E+01  0.15761362682E+02  0.93960398398E+02  0.89970844613E+02 0.  0.
        -13    1    3    3    0    0 -0.78272530334E+01  0.43155815539E+02 -0.11261733564E+02  0.45282634064E+02  0.00000000000E+00 0.  1.
         14    1    3    3    0    0 -0.50927535905E+02 -0.21575238983E+02 -0.42263669618E+02  0.69608351655E+02  0.00000000000E+00 0. -1.
        -13    1    4    4    0    0  0.42480787518E+02 -0.13689308581E+02 -0.22139339170E+02  0.49821328931E+02  0.00000000000E+00 0.  1.
         13    1    4    4    0    0 -0.21305677424E+02  0.76067313599E+01  0.37900701852E+02  0.44139069466E+02  0.00000000000E+00 0. -1.
         21    1    1    2  503  502  0.26075809610E+02  0.97387432321E+01 -0.13833924376E+03  0.14111179019E+03  0.00000000000E+00 0.  1.
          1    1    1    2  501    0  0.11503869234E+02 -0.25236742567E+02 -0.20822642764E+03  0.21006541208E+03  0.00000000000E+00 0. -1.
<scales pt_clust_5="13000.00000" pt_clust_6="13000.00000" pt_clust_7="13000.00000" pt_clust_8="13000.00000" pt_clust_9="27.86961" pt_clust_10="27.73505"></scales>
<clustering>
<clus scale="   27.735">  1 10  2 -1</clus>
<clus scale="   27.870">  2  9  1 -1</clus>
<clus scale="   80.107">  5  6 -1 -1</clus>
<clus scale="   89.971">  7  8 -1 -1</clus>
<clus scale="   92.381">  2  5  1 -1</clus>
<clus scale="   27.735">  1  5  2 -1</clus>
</clustering>
</event>
<event>
10    4  0.2977685E-005  0.1676783E+03  0.7546771E-02  0.1208789E+00
         -1   -1    0    0    0  501 -0.00000000000E+00  0.00000000000E+00  0.45034975808E+03  0.45034975808E+03  0.00000000000E+00 0.  1.
         21   -1    0    0  503  502  0.00000000000E+00 -0.00000000000E+00 -0.19427455946E+03  0.19427455946E+03  0.00000000000E+00 0.  1.
         24    2    1    2    0    0 -0.25793708771E+02  0.28996287207E+02  0.45417935338E+02  0.10060076426E+03  0.80942107920E+02 0.  0.
         23    2    1    2    0    0  0.79464739492E+02  0.14007395126E+03  0.15736993630E+03  0.24267503098E+03  0.90501476051E+02 0.  0.
        -11    1    3    3    0    0 -0.36881355873E+02  0.48486987629E+02  0.14873847422E+02  0.62709279357E+02  0.00000000000E+00 0.  1.
         12    1    3    3    0    0  0.11087647101E+02 -0.19490700422E+02  0.30544087916E+02  0.37891484899E+02  0.00000000000E+00 0. -1.
        -13    1    4    4    0    0  0.11668776706E+01  0.89754723903E+02  0.94628951544E+02  0.13042971493E+03  0.00000000000E+00 0.  1.
         13    1    4    4    0    0  0.78297861821E+02  0.50319227356E+02  0.62740984754E+02  0.11224531605E+03  0.00000000000E+00 0. -1.
         21    1    1    2  503  501  0.62001775078E+02 -0.13981080743E+03  0.88809471561E+02  0.17685701633E+03  0.00000000000E+00 0.  1.
         -2    1    1    2    0  502 -0.11567280580E+03 -0.29259431040E+02 -0.35522144574E+02  0.12449150598E+03  0.00000000000E+00 0.  1.
<scales pt_clust_5="13000.00000" pt_clust_6="13000.00000" pt_clust_7="13000.00000" pt_clust_8="13000.00000" pt_clust_9="141.15766" pt_clust_10="121.49356"></scales>
<clustering>
<clus scale="   80.942">  5  6 -1 -1</clus>
<clus scale="   89.765">  1  5  2 -1</clus>
<clus scale="   90.501">  7  8 -1 -1</clus>
<clus scale="  121.494">  2 10  1 -1</clus>
<clus scale="  141.158">  2  9  1 -1</clus>
<clus scale="  121.494">  2  5  1 -1</clus>
</clustering>
</event>
<event>
10    4  0.2977685E-005  0.1489287E+03  0.7546771E-02  0.1214419E+00
         21   -1    0    0  503  502  0.00000000000E+00  0.00000000000E+00  0.27904933641E+03  0.27904933641E+03  0.00000000000E+00 0.  1.
         -1   -1    0    0    0  501 -0.00000000000E+00 -0.00000000000E+00 -0.37724722104E+03  0.37724722104E+03  0.00000000000E+00 0.  1.
         23    2    1    2    0    0 -0.70717774615E+02 -0.12418044761E+02  0.14538251651E+03  0.18584078025E+03  0.90804779693E+02 0.  0.
         24    2    1    2    0    0 -0.29306463405E+02 -0.88079327469E+02 -0.15805652088E+03  0.20025632694E+03  0.80646735595E+02 0.  0.
        -13    1    4    4    0    0 -0.20985118144E+02 -0.88973588507E+02 -0.16549176141E+03  0.18906135970E+03  0.00000000000E+00 0.  1.
         14    1    4    4    0    0 -0.83213452610E+01  0.89426103735E+00  0.74352405337E+01  0.11194967242E+02  0.00000000000E+00 0. -1.
        -13    1    3    3    0    0 -0.26846942224E+01  0.26357156885E+02  0.79432016658E+01  0.27658665095E+02  0.00000000000E+00 0. -1.
         13    1    3    3    0    0 -0.68033080393E+02 -0.38775201645E+02  0.13743931484E+03  0.15818211515E+03  0.00000000000E+00 0.  1.
         21    1    1    2  503  501  0.48723337170E+02 -0.24101879748E+02 -0.11945875095E+03  0.13124502798E+03  0.00000000000E+00 0.  1.
         -2    1    1    2    0  502  0.51300900850E+02  0.12459925198E+03  0.33934870689E+02  0.13895442228E+03  0.00000000000E+00 0.  1.
<scales pt_clust_5="13000.00000" pt_clust_6="13000.00000" pt_clust_7="13000.00000" pt_clust_8="13000.00000" pt_clust_9="54.35866" pt_clust_10="125.20323"></scales>
<clustering>
<clus scale="   54.359">  2  9  1 -1</clus>
<clus scale="   80.647">  5  6 -1 -1</clus>
<clus scale="   90.805">  7  8 -1 -1</clus>
<clus scale="  113.642">  2  7  1 -1</clus>
<clus scale="  125.203">  1 10  2 -1</clus>
<clus scale="  125.203">  1  5  2 -1</clus>
</clustering>
</event>
<event>
10    4  0.2977685E-005  0.2245449E+03  0.7546771E-02  0.1156923E+00
         21   -1    0    0  501  502  0.00000000000E+00  0.00000000000E+00  0.38726101838E+02  0.38726101838E+02  0.00000000000E+00 0. -1.
          2   -1    0    0  503    0 -0.00000000000E+00 -0.00000000000E+00 -0.23344614445E+04  0.23344614445E+04  0.00000000000E+00 0. -1.
         24    2    1    2    0    0 -0.52374815532E+02  0.76011993572E+02 -0.43218743090E+03  0.44957218135E+03  0.82511976988E+02 0.  0.
         23    2    1    2    0    0  0.69227644587E+02 -0.22430289927E+03 -0.72122056868E+03  0.76316391951E+03  0.84591973384E+02 0.  0.
        -13    1    3    3    0    0 -0.70015619520E+02  0.79225836823E+02 -0.37693411922E+03  0.39148212019E+03  0.00000000000E+00 0.  1.
         14    1    3    3    0    0  0.17640803988E+02 -0.32138432505E+01 -0.55253311681E+02  0.58090061159E+02  0.00000000000E+00 0. -1.
        -13    1    4    4    0    0  0.35784592836E+02 -0.97138047984E+02 -0.19511715036E+03  0.22087788439E+03  0.00000000000E+00 0. -1.
         13    1    4    4    0    0  0.33443051751E+02 -0.12716485128E+03 -0.52610341832E+03  0.54228603512E+03  0.00000000000E+00 0.  1.
         21    1    1    2  503  502  0.24183417415E+02 -0.19806507353E+02 -0.17396804122E+03  0.17675410823E+03  0.00000000000E+00 0. -1.
          1    1    1    2  501    0 -0.41036246471E+02  0.16809741305E+03 -0.96835930182E+03  0.98369733720E+03  0.00000000000E+00 0. -1.
<scales pt_clust_5="13000.00000" pt_clust_6="13000.00000" pt_clust_7="13000.00000" pt_clust_8="13000.00000" pt_clust_9="31.25917" pt_clust_10="208.00159"></scales>
<clustering>
<clus scale="   31.259">  2  9  1 -1</clus>
<clus scale="   82.512">  5  6 -1 -1</clus>
<clus scale="   84.592">  7  8 -1 -1</clus>
<clus scale="  119.322">  2  5  1 -1</clus>
<clus scale="  208.002">  1 10  2 -1</clus>
<clus scale="  208.002">  1  5  2 -1</clus>
</clustering>
</event>
<event>
10    4  0.2977685E-005  0.1991402E+03  0.7546771E-02  0.1151818E+00
          2   -1    0    0  503    0 -0.00000000000E+00  0.00000000000E+00  0.53413446056E+03  0.53413446056E+03  0.00000000000E+00 0. -1.
         21   -1    0    0  501  502  0.00000000000E+00 -0.00000000000E+00 -0.13041693071E+03  0.13041693071E+03  0.00000000000E+00 0. -1.
         23    2    1    2    0    0 -0.12539929782E+03  0.13514256269E+03  0.21460795284E+03  0.29696703420E+03  0.90246051650E+02 0.  0.
         24    2    1    2    0    0  0.15899988723E+03 -0.71803757566E+02  0.77294427977E+02  0.20518102679E+03  0.75419370306E+02 0.  0.
        -13    1    4    4    0    0  0.26981300769E+02  0.13545931570E+02  0.43739823270E+00  0.30193942613E+02  0.00000000000E+00 0.  1.
         14    1    4    4    0    0  0.13201858646E+03 -0.85349689136E+02  0.76857029744E+02  0.17498708418E+03  0.00000000000E+00 0. -1.
        -11    1    3    3    0    0 -0.12916709660E+03  0.11113305885E+03  0.14671570444E+03  0.22485593953E+03  0.00000000000E+00 0. -1.
         11    1    3    3    0    0  0.37677987798E+01  0.24009503841E+02  0.67892248398E+02  0.72111094672E+02  0.00000000000E+00 0.  1.
         21    1    1    2  503  502 -0.56285123011E+02 -0.72707707371E+02  0.97378642800E+02  0.13392918225E+03  0.00000000000E+00 0. -1.
          1    1    1    2  501    0  0.22684533600E+02  0.93689022478E+01  0.14436506228E+02  0.28474148030E+02  0.00000000000E+00 0. -1.
<scales pt_clust_5="13000.00000" pt_clust_6="13000.00000" pt_clust_7="13000.00000" pt_clust_8="13000.00000" pt_clust_9="88.81261" pt_clust_10="24.54311"></scales>
<clustering>
<clus scale="   24.543">  2 10  1 -1</clus>
<clus scale="   75.419">  5  6 -1 -1</clus>
<clus scale="   88.813">  1  9  2 -1</clus>
<clus scale="   90.246">  7  8 -1 -1</clus>
<clus scale="  192.874">  2  5  1 -1</clus>
<clus scale="   24.543">  2  5  1 -1</clus>
</clustering>
</event>
<event>
10    4  0.2977685E-005  0.1651473E+03  0.7546771E-02  0.1192084E+00
          2   -1    0    0  503    0 -0.00000000000E+00  0.00000000000E+00  0.13390046028E+04  0.13390046028E+04  0.00000000000E+00 0. -1.
         21   -1    0    0  501  502  0.00000000000E+00 -0.00000000000E+00 -0.46354785034E+02  0.46354785034E+02  0.00000000000E+00 0.  1.
         23    2    1    2    0    0  0.10533101474E+03  0.17967372414E+02  0.42258200144E+03  0.44518097188E+03  0.90515748021E+02 0.  0.
         24    2    1    2    0    0 -0.68026737698E+02 -0.14050187460E+03  0.38275345796E+03  0.42106998801E+03  0.80195457579E+02 0.  0.
        -13    1    4    4    0    0  0.76881123253E+01 -0.37197250162E+02  0.39968846261E+02  0.55138472614E+02  0.00000000000E+00 0.  1.
         14    1    4    4    0    0 -0.75714850024E+02 -0.10330462444E+03  0.34278461170E+03  0.36593151540E+03  0.00000000000E+00 0. -1.
        -11    1    3    3    0    0  0.70107403283E+02  0.31533912682E+02  0.38240179202E+03  0.39005200446E+03  0.00000000000E+00 0. -1.
         11    1    3    3    0    0  0.35223611459E+02 -0.13566540267E+02  0.40180209421E+02  0.55128967414E+02  0.00000000000E+00 0.  1.
         21    1    1    2  503  502 -0.15683664709E+02 -0.22345246953E+02  0.13181158579E+03  0.13460899505E+03  0.00000000000E+00 0. -1.
          1    1    1    2  501    0 -0.21620612335E+02  0.14487974914E+03  0.35550277257E+03  0.38449943289E+03  0.00000000000E+00 0. -1.
<scales pt_clust_5="13000.00000" pt_clust_6="13000.00000" pt_clust_7="13000.00000" pt_clust_8="13000.00000" pt_clust_9="27.29995" pt_clust_10="144.36879"></scales>
<clustering>
<clus scale="   27.300">  1  9  2 -1</clus>
<clus scale="   80.195">  5  6 -1 -1</clus>
<clus scale="   90.516">  7  8 -1 -1</clus>
<clus scale="  135.016">  1  7  2 -1</clus>
<clus scale="  144.369">  2 10  1 -1</clus>
<clus scale="  144.369">  2  5  1 -1</clus>
</clustering>
</event>
<event>
10    4  0.2977685E-005  0.1235391E+03  0.7546771E-02  0.1241073E+00
         21   -1    0    0  501  502  0.00000000000E+00  0.00000000000E+00  0.12145399435E+03  0.12145399435E+03  0.00000000000E+00 0. -1.
          2   -1    0    0  503    0 -0.00000000000E+00 -0.00000000000E+00 -0.21108430673E+03  0.21108430673E+03  0.00000000000E+00 0. -1.
         23    2    1    2    0    0 -0.42861232748E+02  0.69932181862E+02 -0.58368887936E+02  0.13669058967E+03  0.92465100946E+02 0.  0.
         24    2    1    2    0    0  0.19079068731E+02 -0.81721538480E+02 -0.51839306211E+02  0.12706561784E+03  0.80099543400E+02 0.  0.
        -11    1    4    4    0    0  0.45161531630E+01 -0.56764635429E+02  0.10913041193E+02  0.57980289262E+02  0.00000000000E+00 0.  1.
         12    1    4    4    0    0  0.14562915568E+02 -0.24956903051E+02 -0.62752347404E+02  0.69085328576E+02  0.00000000000E+00 0. -1.
        -13    1    3    3    0    0 -0.20244816058E+02  0.78232756858E+02 -0.72665763996E+02  0.10867626273E+03  0.00000000000E+00 0.  1.
         13    1    3    3    0    0 -0.22616416690E+02 -0.83005749960E+01  0.14296876060E+02  0.28014326946E+02  0.00000000000E+00 0. -1.
         21    1    1    2  503  502  0.52437920045E+01 -0.21983464401E+02 -0.41842518695E+01  0.22984299541E+02  0.00000000000E+00 0.  1.
          1    1    1    2  501    0  0.18538372013E+02  0.33772821020E+02  0.24762133637E+02  0.45797794038E+02  0.00000000000E+00 0. -1.
<scales pt_clust_5="13000.00000" pt_clust_6="13000.00000" pt_clust_7="13000.00000" pt_clust_8="13000.00000" pt_clust_9="22.60022" pt_clust_10="33.59474"></scales>
<clustering>
<clus scale="   22.600">  1  9  2 -1</clus>
<clus scale="   33.595">  1 10  2 -1</clus>
<clus scale="   80.100">  5  6 -1 -1</clus>
<clus scale="   92.465">  7  8 -1 -1</clus>
<clus scale="  114.578">  1  5  2 -1</clus>
<clus scale="   22.600">  1  5  2 -1</clus>
</clustering>
</event>
<event>
10    4  0.2977685E-005  0.1481344E+03  0.7546771E-02  0.1204670E+00
         21   -1    0    0  503  502  0.00000000000E+00  0.00000000000E+00  0.21843864072E+03  0.21843864072E+03  0.00000000000E+00 0. -1.
         -1   -1    0    0    0  501 -0.00000000000E+00 -0.00000000000E+00 -0.21003075445E+03  0.21003075445E+03  0.00000000000E+00 0.  1.
         23    2    1    2    0    0  0.10293147498E+03 -0.28509299497E+02 -0.36850960356E+02  0.14455142548E+03  0.90163477246E+02 0.  0.
         24    2    1    2    0    0 -0.10851888501E+03 -0.14347037168E+02  0.89547287778E+02  0.16252687116E+03  0.80087959275E+02 0.  0.
        -13    1    4    4    0    0 -0.26955138420E+02 -0.41613232383E+02  0.30595228580E+02  0.58260695229E+02  0.00000000000E+00 0.  1.
         14    1    4    4    0    0 -0.81563746593E+02  0.27266195216E+02  0.58952059198E+02  0.10426617593E+03  0.00000000000E+00 0. -1.
        -13    1    3    3    0    0  0.49886199664E+02  0.31379522074E+02 -0.23474859565E+02  0.63437972494E+02  0.00000000000E+00 0.  1.
         13    1    3    3    0    0  0.53045275317E+02 -0.59888821571E+02 -0.13376100791E+02  0.81113452984E+02  0.00000000000E+00 0. -1.
         21    1    1    2  503  501  0.46066068445E+02  0.29352631293E+02 -0.54873843541E+02  0.77426083013E+02  0.00000000000E+00 0.  1.
         -2    1    1    2    0  502 -0.40478658413E+02  0.13503705372E+02  0.10585402382E+02  0.43965015515E+02  0.00000000000E+00 0.  1.
<scales pt_clust_5="13000.00000" pt_clust_6="13000.00000" pt_clust_7="13000.00000" pt_clust_8="13000.00000" pt_clust_9="53.07327" pt_clust_10="42.67167"></scales>
<clustering>
<clus scale="   42.672">  1 10  2 -1</clus>
<clus scale="   53.073">  2  9  1 -1</clus>
<clus scale="   80.088">  5  6 -1 -1</clus>
<clus scale="   90.163">  7  8 -1 -1</clus>
<clus scale="  142.227">  1  5  2 -1</clus>
<clus scale="   42.672">  1  5  2 -1</clus>
</clustering>
</event>
<event>
10    4  0.2977685E-005  0.9248028E+02  0.7546771E-02  0.1304124E+00
         21   -1    0    0  501  502  0.00000000000E+00  0.00000000000E+00  0.84201006962E+02  0.84201006962E+02  0.00000000000E+00 0.  1.
          2   -1    0    0  503    0 -0.00000000000E+00 -0.00000000000E+00 -0.32462477053E+03  0.32462477053E+03  0.00000000000E+00 0. -1.
         24    2    1    2    0    0 -0.51847279057E+01  0.10217264745E+02 -0.21129372894E+03  0.22636384281E+03  0.80400718511E+02 0.  0.
         23    2    1    2    0    0 -0.53239362133E+01 -0.68906631206E+01  0.15344594231E+02  0.93599639239E+02  0.91921762159E+02 0.  0.
        -13    1    3    3    0    0  0.36978386619E+02 -0.55168184973E+00 -0.11214652672E+03  0.11808703944E+03  0.00000000000E+00 0.  1.
         14    1    3    3    0    0 -0.42163114525E+02  0.10768946595E+02 -0.99147202228E+02  0.10827680336E+03  0.00000000000E+00 0. -1.
        -13    1    4    4    0    0 -0.34332339291E+02  0.49820049354E+01 -0.24816982012E+02  0.42654571743E+02  0.00000000000E+00 0. -1.
         13    1    4    4    0    0  0.29008403078E+02 -0.11872668056E+02  0.40161576243E+02  0.50945067496E+02  0.00000000000E+00 0.  1.
         21    1    1    2  503  502  0.21424184581E+01 -0.30253074632E+02 -0.51533551560E+02  0.59795864556E+02  0.00000000000E+00 0. -1.
          1    1    1    2  501    0  0.83662456609E+01  0.26926473008E+02  0.70589227028E+01  0.29066430892E+02  0.00000000000E+00 0. -1.
<scales pt_clust_5="13000.00000" pt_clust_6="13000.00000" pt_clust_7="13000.00000" pt_clust_8="13000.00000" pt_clust_9="28.69520" pt_clust_10="28.19626"></scales>
<clustering>
<clus scale="   28.196">  1 10  2 -1</clus>
<clus scale="   28.695">  2  9  1 -1</clus>
<clus scale="   80.401">  5  6 -1 -1</clus>
<clus scale="   81.039">  2  5  1 -1</clus>
<clus scale="   91.922">  7  8 -1 -1</clus>
<clus scale="   28.196">  1  5  2 -1</clus>
</clustering>
</event>
<event>
10    4  0.2977685E-005  0.9634581E+02  0.7546771E-02  0.1293532E+00
         21   -1    0    0  503  502  0.00000000000E+00  0.00000000000E+00  0.23874259755E+03  0.23874259755E+03  0.00000000000E+00 0.  1.
         -1   -1    0    0    0  501 -0.00000000000E+00 -0.00000000000E+00 -0.17724102839E+03  0.17724102839E+03  0.00000000000E+00 0.  1.
         23    2    1    2    0    0 -0.38760218265E+02  0.14968093599E+02 -0.91452728420E+02  0.13446612608E+03  0.89393171901E+02 0.  0.
         24    2    1    2    0    0  0.19053850312E+01  0.37303839932E+02  0.47167016363E+02  0.99623413457E+02  0.79403338157E+02 0.  0.
        -11    1    4    4    0    0 -0.22103469945E+02  0.38635066171E+02  0.58115260664E+02  0.73202563095E+02  0.00000000000E+00 0.  1.
         12    1    4    4    0    0  0.24008854977E+02 -0.13312262394E+01 -0.10948244301E+02  0.26420850362E+02  0.00000000000E+00 0. -1.
        -13    1    3    3    0    0  0.13816838168E+02 -0.24423616500E+02 -0.48315225178E+02  0.55872882903E+02  0.00000000000E+00 0.  1.
         13    1    3    3    0    0 -0.52577056433E+02  0.39391710099E+02 -0.43137503242E+02  0.78593243180E+02  0.00000000000E+00 0. -1.
         21    1    1    2  503  501 -0.11264156718E+02 -0.18430198300E+02 -0.28223129258E+02  0.35540096526E+02  0.00000000000E+00 0. -1.
         -2    1    1    2    0  502  0.48118989952E+02 -0.33841735231E+02  0.13401041048E+03  0.14635398988E+03  0.00000000000E+00 0.  1.
<scales pt_clust_5="13000.00000" pt_clust_6="13000.00000" pt_clust_7="13000.00000" pt_clust_8="13000.00000" pt_clust_9="21.59985" pt_clust_10="58.89379"></scales>
<clustering>
<clus scale="   21.600">  2  9  1 -1</clus>
<clus scale="   58.894">  1 10  2 -1</clus>
<clus scale="   79.403">  5  6 -1 -1</clus>
<clus scale="   87.157">  1  5  2 -1</clus>
<clus scale="   89.393">  7  8 -1 -1</clus>
<clus scale="   58.894">  1  5  2 -1</clus>
</clustering>
</event>
<event>
10    4  0.2977685E-005  0.1301964E+03  0.7546771E-02  0.1234641E+00
         21   -1    0    0  501  502  0.00000000000E+00  0.00000000000E+00  0.30869192974E+03  0.30869192974E+03  0.00000000000E+00 0. -1.
          2   -1    0    0  503    0 -0.00000000000E+00 -0.00000000000E+00 -0.11897771612E+04  0.11897771612E+04  0.00000000000E+00 0. -1.
         24    2    1    2    0    0 -0.62991204928E+02  0.94571527800E+02 -0.80768988700E+03  0.81934959181E+03  0.77840441049E+02 0.  0.
         23    2    1    2    0    0 -0.88966996326E+02 -0.22527075372E+02 -0.19065540105E+03  0.23038951680E+03  0.91144127293E+02 0.  0.
        -11    1    3    3    0    0 -0.38847310152E+01  0.24047904269E+02 -0.45367115408E+02  0.51493378169E+02  0.00000000000E+00 0.  1.
         12    1    3    3    0    0 -0.59106473912E+02  0.70523623531E+02 -0.76232277159E+03  0.76785621364E+03  0.00000000000E+00 0. -1.
        -13    1    4    4    0    0 -0.23408540499E+02 -0.47839358785E+02 -0.11718836921E+03  0.12872326089E+03  0.00000000000E+00 0.  1.
         13    1    4    4    0    0 -0.65558455827E+02  0.25312283413E+02 -0.73467031847E+02  0.10166625591E+03  0.00000000000E+00 0. -1.
         21    1    1    2  503  502  0.80776598385E+02 -0.43255806043E+02 -0.14717781957E+03  0.17337022287E+03  0.00000000000E+00 0.  1.
          1    1    1    2  501    0  0.71181602868E+02 -0.28788646386E+02  0.26443787620E+03  0.27535975944E+03  0.00000000000E+00 0. -1.
<scales pt_clust_5="13000.00000" pt_clust_6="13000.00000" pt_clust_7="13000.00000" pt_clust_8="13000.00000" pt_clust_9="104.36455" pt_clust_10="76.78285"></scales>
<clustering>
<clus scale="   76.783">  1 10  2 -1</clus>
<clus scale="   77.840">  5  6 -1 -1</clus>
<clus scale="   91.144">  7  8 -1 -1</clus>
<clus scale="  111.597">  1  7  2 -1</clus>
<clus scale="  104.365">  1  9  2 -1</clus>
<clus scale="   76.783">  1  5  2 -1</clus>
</clustering>
</event>
<event>
10    4  0.2977685E-005  0.1367266E+03  0.7546771E-02  0.1220023E+00
         21   -1    0    0  501  502  0.00000000000E+00  0.00000000000E+00  0.44626600691E+03  0.44626600691E+03  0.00000000000E+00 0.  1.
          2   -1    0    0  503    0 -0.00000000000E+00 -0.00000000000E+00 -0.53145961668E+03  0.53145961668E+03  0.00000000000E+00 0. -1.
         24    2    1    2    0    0 -0.65230696000E+02  0.25390397749E+02 -0.22131106748E+03  0.24603731999E+03  0.81584669132E+02 0.  0.
         23    2    1    2    0    0  0.68324335202E+02 -0.26379528810E+02  0.36836244849E+03  0.38649469897E+03  0.91231379227E+02 0.  0.
        -13    1    3    3    0    0 -0.99278217946E-01  0.35933027305E+02 -0.43755686214E+02  0.56619364033E+02  0.00000000000E+00 0.  1.
         14    1    3    3    0    0 -0.65131417782E+02 -0.10542629555E+02 -0.17755538127E+03  0.18941795595E+03  0.00000000000E+00 0. -1.
        -11    1    4    4    0    0  0.39857022502E+02 -0.60222937001E+02  0.20985624037E+03  0.22193473367E+03  0.00000000000E+00 0.  1.
         11    1    4    4    0    0  0.28467312699E+02  0.33843408191E+02  0.15850620811E+03  0.16455996530E+03  0.00000000000E+00 0. -1.
         21    1    1    2  503  502 -0.23398283004E+02  0.32705579798E+02 -0.28084559121E+03  0.28371002925E+03  0.00000000000E+00 0.  1.
          1    1    1    2  501    0  0.20304643802E+02 -0.31716448738E+02  0.48600600432E+02  0.61483575391E+02  0.00000000000E+00 0. -1.
<scales pt_clust_5="13000.00000" pt_clust_6="13000.00000" pt_clust_7="13000.00000" pt_clust_8="13000.00000" pt_clust_9="40.07593" pt_clust_10="37.65915"></scales>
<clustering>
<clus scale="   37.659">  1 10  2 -1</clus>
<clus scale="   40.076">  2  9  1 -1</clus>
<clus scale="   81.585">  5  6 -1 -1</clus>
<clus scale="   91.231">  7  8 -1 -1</clus>
<clus scale="  130.488">  2  5  1 -1</clus>
<clus scale="   37.659">  1  5  2 -1</clus>
</clustering>
</event>
<event>
10    4  0.2977685E-005  0.1734537E+03  0.7546771E-02  0.1195413E+00
         21   -1    0    0  501  502  0.00000000000E+00  0.00000000000E+00  0.10187559510E+04  0.10187559510E+04  0.00000000000E+00 0. -1.
          2   -1    0    0  503    0 -0.00000000000E+00 -0.00000000000E+00 -0.10610590876E+04  0.10610590876E+04  0.00000000000E+00 0. -1.
         24    2    1    2    0    0  0.51346462986E+02  0.25160879612E+02  0.24372075454E+03  0.26684620150E+03  0.92398917392E+02 0.  0.
         23    2    1    2    0    0 -0.10273888445E+03 -0.15247107469E+03 -0.70435191196E+03  0.73358062722E+03  0.90698477113E+02 0.  0.
        -13    1    3    3    0    0  0.65735908536E+02  0.40215339269E+02  0.12911294105E+03  0.15036167973E+03  0.00000000000E+00 0.  1.
         14    1    3    3    0    0 -0.14389445551E+02 -0.15054459657E+02  0.11460781349E+03  0.11648452177E+03  0.00000000000E+00 0. -1.
        -13    1    4    4    0    0 -0.11684860049E+03 -0.12058936776E+03 -0.53720052946E+03  0.56283194642E+03  0.00000000000E+00 0. -1.
         13    1    4    4    0    0  0.14109716043E+02 -0.31881706921E+02 -0.16715138250E+03  0.17074868080E+03  0.00000000000E+00 0.  1.
         21    1    1    2  503  502 -0.64280963603E+02  0.35674349821E+02 -0.31903868916E+03  0.32739942990E+03  0.00000000000E+00 0. -1.
          1    1    1    2  501    0  0.11567338506E+03  0.91635845252E+02  0.73736671004E+03  0.75198877998E+03  0.00000000000E+00 0. -1.
<scales pt_clust_5="13000.00000" pt_clust_6="13000.00000" pt_clust_7="13000.00000" pt_clust_8="13000.00000" pt_clust_9="73.51668" pt_clust_10="147.85116"></scales>
<clustering>
<clus scale="   73.517">  2  9  1 -1</clus>
<clus scale="   90.698">  7  8 -1 -1</clus>
<clus scale="   92.399">  5  6 -1 -1</clus>
<clus scale="  108.319">  2  5  1 -1</clus>
<clus scale="  147.851">  1 10  2 -1</clus>
<clus scale="  147.851">  1  5  2 -1</clus>
</clustering>
</event>
<event>
10    4  0.2977685E-005  0.9971065E+02  0.7546771E-02  0.1286476E+00
          2   -1    0    0  503    0 -0.00000000000E+00  0.00000000000E+00  0.16233465659E+03  0.16233465659E+03  0.00000000000E+00 0. -1.
         21   -1    0    0  501  502  0.00000000000E+00 -0.00000000000E+00 -0.13757647293E+03  0.13757647293E+03  0.00000000000E+00 0. -1.
         23    2    1    2    0    0  0.87684676582E+01 -0.52743140946E+02  0.45946916170E+02  0.11557174592E+03  0.91580480495E+02 0.  0.
         24    2    1    2    0    0 -0.37577460773E+02  0.14506891475E+02 -0.53872597026E+02  0.10498783064E+03  0.80608141114E+02 0.  0.
        -11    1    4    4    0    0 -0.37978435610E+02 -0.10458196078E+02  0.62518517981E+01  0.39885098565E+02  0.00000000000E+00 0.  1.
         12    1    4    4    0    0  0.40097483713E+00  0.24965087552E+02 -0.60124448824E+02  0.65102732075E+02  0.00000000000E+00 0. -1.
        -13    1    3    3    0    0  0.20478408874E+02  0.16776502858E+02 -0.70252535156E+01  0.27389239951E+02  0.00000000000E+00 0.  1.
         13    1    3    3    0    0 -0.11709941216E+02 -0.69519643804E+02  0.52972169686E+02  0.88182505970E+02  0.00000000000E+00 0. -1.
         21    1    1    2  503  502  0.11321062701E+02  0.20352773833E+02  0.45598157256E+02  0.51201502015E+02  0.00000000000E+00 0. -1.
          1    1    1    2  501    0  0.17487930414E+02  0.17883475638E+02 -0.12914292737E+02  0.28150050940E+02  0.00000000000E+00 0. -1.
<scales pt_clust_5="13000.00000" pt_clust_6="13000.00000" pt_clust_7="13000.00000" pt_clust_8="13000.00000" pt_clust_9="23.28952" pt_clust_10="26.51827"></scales>
<clustering>
<clus scale="   23.290">  1  9  2 -1</clus>
<clus scale="   26.518">  2 10  1 -1</clus>
<clus scale="   80.608">  5  6 -1 -1</clus>
<clus scale="   89.738">  2  5  1 -1</clus>
<clus scale="   91.580">  7  8 -1 -1</clus>
<clus scale="   26.518">  2  5  1 -1</clus>
</clustering>
</event>
<event>
10    4  0.2977685E-005  0.1792166E+03  0.7546771E-02  0.1200472E+00
         21   -1    0    0  501  502  0.00000000000E+00  0.00000000000E+00  0.31989822687E+03  0.31989822687E+03  0.00000000000E+00 0. -1.
          2   -1    0    0  503    0 -0.00000000000E+00 -0.00000000000E+00 -0.19111932622E+03  0.19111932622E+03  0.00000000000E+00 0. -1.
         24    2    1    2    0    0  0.12499368073E+02 -0.87287634383E+01  0.25417746002E+02  0.88774963116E+02  0.83680982016E+02 0.  0.
         23    2    1    2    0    0  0.93368806747E+02  0.11295301329E+03  0.66313564133E+02  0.18484172796E+03  0.91065132306E+02 0.  0.
        -13    1    3    3    0    0 -0.30495711145E+02 -0.15033976520E+01  0.32514526580E+02  0.44603172998E+02  0.00000000000E+00 0.  1.
         14    1    3    3    0    0  0.42995079218E+02 -0.72253657863E+01 -0.70967805783E+01  0.44171790119E+02  0.00000000000E+00 0. -1.
        -13    1    4    4    0    0  0.42802549693E+02  0.28493879726E+02 -0.18760049579E+02  0.54734805218E+02  0.00000000000E+00 0.  1.
         13    1    4    4    0    0  0.50566257053E+02  0.84459133560E+02  0.85073613712E+02  0.13010692274E+03  0.00000000000E+00 0. -1.
         21    1    1    2  503  502  0.48374863798E+02 -0.31409463387E+02 -0.14013789803E+02  0.59355439029E+02  0.00000000000E+00 0.  1.
          1    1    1    2  501    0 -0.15424303862E+03 -0.72814786461E+02  0.51061380316E+02  0.17804542299E+03  0.00000000000E+00 0. -1.
<scales pt_clust_5="13000.00000" pt_clust_6="13000.00000" pt_clust_7="13000.00000" pt_clust_8="13000.00000" pt_clust_9="57.67739" pt_clust_10="154.35595"></scales>
<clustering>
<clus scale="   57.677">  2  9  1 -1</clus>
<clus scale="   83.681">  5  6 -1 -1</clus>
<clus scale="   87.951">  2  5  1 -1</clus>
<clus scale="   91.065">  7  8 -1 -1</clus>
<clus scale="  154.356">  1 10  2 -1</clus>
<clus scale="  154.356">  1  5  2 -1</clus>
</clustering>
</event>
<event>
10    4  0.2977685E-005  0.1104153E+03  0.7546771E-02  0.1263328E+00
         21   -1    0    0  501  502  0.00000000000E+00  0.00000000000E+00  0.36654449596E+02  0.36654449596E+02  0.00000000000E+00 0.  1.
          2   -1    0    0  503    0 -0.00000000000E+00 -0.00000000000E+00 -0.11913169507E+04  0.11913169507E+04  0.00000000000E+00 0. -1.
         23    2    1    2    0    0 -0.10070448292E+02  0.40883577356E+02 -0.31151852496E+03  0.32715928799E+03  0.90645063275E+02 0.  0.
         24    2    1    2    0    0  0.68446219464E+02 -0.89817092524E+02 -0.19785953028E+03  0.24195681938E+03  0.81502844456E+02 0.  0.
        -11    1    4    4    0    0  0.59767690312E+02 -0.93498957909E+02 -0.11967669664E+03  0.16320767033E+03  0.00000000000E+00 0.  1.
         12    1    4    4    0    0  0.86785291529E+01  0.36818653852E+01 -0.78182833633E+02  0.78749149048E+02  0.00000000000E+00 0. -1.
        -11    1    3    3    0    0  0.24724137866E+02  0.54299560579E+02 -0.22829851916E+03  0.23596597026E+03  0.00000000000E+00 0.  1.
         11    1    3    3    0    0 -0.34794586158E+02 -0.13415983223E+02 -0.83220005799E+02  0.91193317721E+02  0.00000000000E+00 0. -1.
         21    1    1    2  503  502 -0.52461431890E+02 -0.25163918231E+02 -0.31244076498E+03  0.31781229718E+03  0.00000000000E+00 0. -1.
          1    1    1    2  501    0 -0.59143392825E+01  0.74097433400E+02 -0.33284368091E+03  0.34104299577E+03  0.00000000000E+00 0. -1.
<scales pt_clust_5="13000.00000" pt_clust_6="13000.00000" pt_clust_7="13000.00000" pt_clust_8="13000.00000" pt_clust_9="58.18440" pt_clust_10="69.50271"></scales>
<clustering>
<clus scale="   58.184">  2  9  1 -1</clus>
<clus scale="   69.503">  1 10  2 -1</clus>
<clus scale="   81.503">  5  6 -1 -1</clus>
<clus scale="   90.645">  7  8 -1 -1</clus>
<clus scale="  103.042">  1  5  2 -1</clus>
<clus scale="   69.503">  1  5  2 -1</clus>
</clustering>
</event>
<event>
10    4  0.2977685E-005  0.2760432E+03  0.7546771E-02  0.1132801E+00
          2   -1    0    0  503    0 -0.00000000000E+00  0.00000000000E+00  0.13705979886E+04  0.13705979886E+04  0.00000000000E+00 0. -1.
         21   -1    0    0  501  502  0.00000000000E+00 -0.00000000000E+00 -0.12744028866E+03  0.12744028866E+03  0.00000000000E+00 0.  1.
         23    2    1    2    0    0  0.69429610510E+01  0.72767360771E+02  0.49443192337E+03  0.50809652177E+03  0.91410366418E+02 0.  0.
         24    2    1    2    0    0  0.13420006777E+03  0.18452540150E+03  0.57068581769E+03  0.62045401774E+03  0.84980018990E+02 0.  0.
        -11    1    4    4    0    0  0.10707224063E+03  0.17253181756E+03  0.41554582703E+03  0.46250408338E+03  0.00000000000E+00 0.  1.
         12    1    4    4    0    0  0.27127827143E+02  0.11993583939E+02  0.15513999066E+03  0.15794993436E+03  0.00000000000E+00 0. -1.
        -11    1    3    3    0    0 -0.27640079052E+02 -0.83399172249E+01  0.12215269660E+03  0.12551816393E+03  0.00000000000E+00 0.  1.
         11    1    3    3    0    0  0.34583040103E+02  0.81107277996E+02  0.37227922677E+03  0.38257835784E+03  0.00000000000E+00 0. -1.
         21    1    1    2  503  502 -0.19392414998E+02 -0.10533390231E+02  0.70813890148E+02  0.74172940532E+02  0.00000000000E+00 0. -1.
          1    1    1    2  501    0 -0.12175061382E+03 -0.24675937204E+03  0.10722606875E+03  0.29531479725E+03  0.00000000000E+00 0. -1.
<scales pt_clust_5="13000.00000" pt_clust_6="13000.00000" pt_clust_7="13000.00000" pt_clust_8="13000.00000" pt_clust_9="22.06849" pt_clust_10="262.63714"></scales>
<clustering>
<clus scale="   22.068">  1  9  2 -1</clus>
<clus scale="   84.980">  5  6 -1 -1</clus>
<clus scale="   91.410">  7  8 -1 -1</clus>
<clus scale="  114.350">  1  7  2 -1</clus>
<clus scale="  262.637">  2 10  1 -1</clus>
<clus scale="  262.637">  2  5  1 -1</clus>
</clustering>
</event>
<event>
10    4  0.2977685E-005  0.1562578E+03  0.7546771E-02  0.1202910E+00
         21   -1    0    0  503  502  0.00000000000E+00  0.00000000000E+00  0.24401731619E+03  0.24401731619E+03  0.00000000000E+00 0. -1.
         -1   -1    0    0    0  501 -0.00000000000E+00 -0.00000000000E+00 -0.21171621707E+03  0.21171621707E+03  0.00000000000E+00 0.  1.
         24    2    1    2    0    0  0.36509013335E+02  0.85511573363E+02 -0.12529725281E+02  0.12414325402E+03  0.81298316523E+02 0.  0.
         23    2    1    2    0    0 -0.85800588966E+00 -0.11436670225E+03  0.12969871663E+03  0.21233311456E+03  0.12321978611E+03 0.  0.
        -13    1    3    3    0    0  0.25985394759E+02  0.65413721208E+02  0.29550218598E+02  0.76337481503E+02  0.00000000000E+00 0.  1.
         14    1    3    3    0    0  0.10523618576E+02  0.20097852155E+02 -0.42079943879E+02  0.47805772517E+02  0.00000000000E+00 0. -1.
        -13    1    4    4    0    0  0.20632811943E+02 -0.97563513229E+02  0.23184607030E+02  0.10238104339E+03  0.00000000000E+00 0.  1.
         13    1    4    4    0    0 -0.21490817832E+02 -0.16803189022E+02  0.10651410960E+03  0.10995207118E+03  0.00000000000E+00 0. -1.
         21    1    1    2  503  501 -0.23671949959E+02  0.41403722050E+01 -0.88361470492E+02  0.91571029066E+02  0.00000000000E+00 0.  1.
         -2    1    1    2    0  502 -0.11979057487E+02  0.24714756682E+02  0.34935782675E+01  0.27686135614E+02  0.00000000000E+00 0.  1.
<scales pt_clust_5="13000.00000" pt_clust_6="13000.00000" pt_clust_7="13000.00000" pt_clust_8="13000.00000" pt_clust_9="24.03131" pt_clust_10="28.92574"></scales>
<clustering>
<clus scale="   24.031">  2  9  1 -1</clus>
<clus scale="   28.926">  1 10  2 -1</clus>
<clus scale="   81.298">  5  6 -1 -1</clus>
<clus scale="  123.220">  7  8 -1 -1</clus>
<clus scale="  125.868">  2  5  1 -1</clus>
<clus scale="   28.926">  1  5  2 -1</clus>
</clustering>
</event>
<event>
10    4  0.2977685E-005  0.1159258E+03  0.7546771E-02  0.1252728E+00
         21   -1    0    0  501  502  0.00000000000E+00  0.00000000000E+00  0.56322998134E+02  0.56322998134E+02  0.00000000000E+00 0.  1.
          2   -1    0    0  503    0 -0.00000000000E+00 -0.00000000000E+00 -0.57874435875E+03  0.57874435875E+03  0.00000000000E+00 0. -1.
         24    2    1    2    0    0  0.23048696625E+02  0.80310443711E+02 -0.18515072815E+03  0.21853650425E+03  0.80600259118E+02 0.  0.
         23    2    1    2    0    0 -0.31349540360E+02 -0.67504723432E+02 -0.13683470967E+03  0.17932478758E+03  0.88847961733E+02 0.  0.
        -13    1    3    3    0    0  0.24955783370E+02  0.31161297829E+02 -0.17091363119E+02  0.43427322036E+02  0.00000000000E+00 0.  1.
         14    1    3    3    0    0 -0.19070867457E+01  0.49149145882E+02 -0.16805936503E+03  0.17510918221E+03  0.00000000000E+00 0. -1.
        -13    1    4    4    0    0  0.52274307060E+01 -0.38626247910E+02 -0.12542960554E+03  0.13134648456E+03  0.00000000000E+00 0. -1.
         13    1    4    4    0    0 -0.36576971066E+02 -0.28878475522E+02 -0.11405104130E+02  0.47978303024E+02  0.00000000000E+00 0.  1.
         21    1    1    2  503  502 -0.74479375249E+01 -0.28386704755E+02 -0.21073967991E+03  0.21277332884E+03  0.00000000000E+00 0. -1.
          1    1    1    2  501    0  0.15748781260E+02  0.15580984477E+02  0.10303757105E+02  0.24432736215E+02  0.00000000000E+00 0. -1.
<scales pt_clust_5="13000.00000" pt_clust_6="13000.00000" pt_clust_7="13000.00000" pt_clust_8="13000.00000" pt_clust_9="28.85130" pt_clust_10="22.15381"></scales>
<clustering>
<clus scale="   22.154">  1 10  2 -1</clus>
<clus scale="   28.851">  2  9  1 -1</clus>
<clus scale="   80.600">  5  6 -1 -1</clus>
<clus scale="   88.848">  7  8 -1 -1</clus>
<clus scale="  109.733">  2  5  1 -1</clus>
<clus scale="   22.154">  1  5  2 -1</clus>
</clustering>
</event>
<event>
10    4  0.2977685E-005  0.1092367E+03  0.7546771E-02  0.1266515E+00
         21   -1    0    0  503  502  0.00000000000E+00  0.00000000000E+00  0.20890716196E+03  0.20890716196E+03  0.00000000000E+00 0.  1.
         -1   -1    0    0    0  501 -0.00000000000E+00 -0.00000000000E+00 -0.14679865476E+03  0.14679865476E+03  0.00000000000E+00 0.  1.
         24    2    1    2    0    0  0.82763435884E+02  0.15211806375E+02  0.24533887725E+02  0.11908673210E+03  0.80613601472E+02 0.  0.
         23    2    1    2    0    0 -0.30821496218E+02  0.11337329759E+02  0.88856327876E+02  0.13192736138E+03  0.91819834469E+02 0.  0.
        -11    1    3    3    0    0  0.66508497200E+02  0.29320439737E+02 -0.14867478916E+02  0.74189691437E+02  0.00000000000E+00 0.  1.
         12    1    3    3    0    0  0.16254938684E+02 -0.14108633362E+02  0.39401366641E+02  0.44897040661E+02  0.00000000000E+00 0. -1.
        -13    1    4    4    0    0  0.61262160159E+01 -0.33397798641E+02  0.55327219974E+02  0.64915674123E+02  0.00000000000E+00 0.  1.
         13    1    4    4    0    0 -0.36947712234E+02  0.44735128400E+02  0.33529107901E+02  0.67011687257E+02  0.00000000000E+00 0. -1.
         21    1    1    2  503  501 -0.23732619099E+02  0.14819449866E+02 -0.46662230003E+02  0.54407876383E+02  0.00000000000E+00 0.  1.
         -2    1    1    2    0  502 -0.28209320566E+02 -0.41368586000E+02 -0.46194783947E+01  0.50283846860E+02  0.00000000000E+00 0.  1.
<scales pt_clust_5="13000.00000" pt_clust_6="13000.00000" pt_clust_7="13000.00000" pt_clust_8="13000.00000" pt_clust_9="27.97952" pt_clust_10="51.01933"></scales>
<clustering>
<clus scale="   27.980">  2  9  1 -1</clus>
<clus scale="   51.019">  1 10  2 -1</clus>
<clus scale="   80.614">  5  6 -1 -1</clus>
<clus scale="   91.820">  7  8 -1 -1</clus>
<clus scale="  100.002">  2  5  1 -1</clus>
<clus scale="   51.019">  1  5  2 -1</clus>
</clustering>
</event>
<event>
10    4  0.2977685E-005  0.2546508E+03  0.7546771E-02  0.1127492E+00
         -1   -1    0    0    0  501 -0.00000000000E+00  0.00000000000E+00  0.71345061924E+03  0.71345061924E+03  0.00000000000E+00 0.  1.
         21   -1    0    0  503  502  0.00000000000E+00 -0.00000000000E+00 -0.52351069520E+03  0.52351069520E+03  0.00000000000E+00 0. -1.
         24    2    1    2    0    0 -0.13516580100E+03 -0.10227236556E+03  0.14542626462E+03  0.23748211098E+03  0.80743569874E+02 0.  0.
         23    2    1    2    0    0 -0.17350951076E+03 -0.10598493480E+03 -0.20427040551E+03  0.30178220808E+03  0.89486009051E+02 0.  0.
        -11    1    3    3    0    0 -0.10295168123E+03 -0.11317049495E+03  0.12679828720E+03  0.19870685754E+03  0.00000000000E+00 0.  1.
         12    1    3    3    0    0 -0.32214119767E+02  0.10898129390E+02  0.18627977424E+02  0.38775253442E+02  0.00000000000E+00 0. -1.
        -11    1    4    4    0    0 -0.18107178689E+03 -0.87295439106E+02 -0.17678205494E+03  0.26769269816E+03  0.00000000000E+00 0. -1.
         11    1    4    4    0    0  0.75622761328E+01 -0.18689495693E+02 -0.27488350568E+02  0.34089509919E+02  0.00000000000E+00 0.  1.
         21    1    1    2  503  501  0.51191421152E+02  0.10130376342E+02  0.35274261973E+03  0.35658174644E+03  0.00000000000E+00 0.  1.
         -2    1    1    2    0  502  0.25748389061E+03  0.19812692402E+03 -0.10395855481E+03  0.34111524894E+03  0.00000000000E+00 0.  1.
<scales pt_clust_5="13000.00000" pt_clust_6="13000.00000" pt_clust_7="13000.00000" pt_clust_8="13000.00000" pt_clust_9="52.18416" pt_clust_10="238.41001"></scales>
<clustering>
<clus scale="   52.184">  1  9  2 -1</clus>
<clus scale="   80.744">  5  6 -1 -1</clus>
<clus scale="   89.486">  7  8 -1 -1</clus>
<clus scale="  165.934">  1  5  2 -1</clus>
<clus scale="  238.410">  2 10  1 -1</clus>
<clus scale="  238.410">  2  5  1 -1</clus>
</clustering>
</event>
<event>
10    4  0.2977685E-005  0.1642428E+03  0.7546771E-02  0.1185379E+00
         21   -1    0    0  501  502  0.00000000000E+00  0.00000000000E+00  0.81082532767E+02  0.81082532767E+02  0.00000000000E+00 0.  1.
          2   -1    0    0  503    0 -0.00000000000E+00 -0.00000000000E+00 -0.79451334714E+03  0.79451334714E+03  0.00000000000E+00 0. -1.
         24    2    1    2    0    0  0.42065184544E+02 -0.11662050543E+03 -0.48834891495E+03  0.51024868367E+03  0.80617829410E+02 0.  0.
         23    2    1    2    0    0 -0.50461712969E+02  0.12982245759E+03 -0.38031354325E+02  0.17019858756E+03  0.90116149078E+02 0.  0.
        -11    1    3    3    0    0 -0.19280567009E+02 -0.35783725496E+02 -0.21188903554E+03  0.21575258667E+03  0.00000000000E+00 0.  1.
         12    1    3    3    0    0  0.61345751552E+02 -0.80836779937E+02 -0.27645987941E+03  0.29449609700E+03  0.00000000000E+00 0. -1.
        -11    1    4    4    0    0 -0.47513560965E+02  0.64019014460E+02  0.20240071884E+02  0.82253469215E+02  0.00000000000E+00 0.  1.
         11    1    4    4    0    0 -0.29481520042E+01  0.65803443128E+02 -0.58271426209E+02  0.87945118342E+02  0.00000000000E+00 0. -1.
         21    1    1    2  503  502 -0.13826578516E+02 -0.23017294061E+02 -0.13583177834E+03  0.13846025461E+03  0.00000000000E+00 0. -1.
          1    1    1    2  501    0  0.22223106941E+02  0.98153419066E+01 -0.51218766751E+02  0.56688354063E+02  0.00000000000E+00 0. -1.
<scales pt_clust_5="13000.00000" pt_clust_6="13000.00000" pt_clust_7="13000.00000" pt_clust_8="13000.00000" pt_clust_9="26.51883" pt_clust_10="24.29420"></scales>
<clustering>
<clus scale="   24.294">  1 10  2 -1</clus>
<clus scale="   26.519">  2  9  1 -1</clus>
<clus scale="   80.618">  5  6 -1 -1</clus>
<clus scale="   90.116">  7  8 -1 -1</clus>
<clus scale="  159.229">  2  5  1 -1</clus>
<clus scale="   24.294">  1  5  2 -1</clus>
</clustering>
</event>
<event>
10    4  0.2977685E-005  0.1713864E+03  0.7546771E-02  0.1184476E+00
         21   -1    0    0  501  502  0.00000000000E+00  0.00000000000E+00  0.19259921537E+03  0.19259921537E+03  0.00000000000E+00 0. -1.
          2   -1    0    0  503    0 -0.00000000000E+00 -0.00000000000E+00 -0.37734467531E+03  0.37734467531E+03  0.00000000000E+00 0. -1.
         24    2    1    2    0    0 -0.20979855838E+02  0.11403128269E+03  0.14647769600E+01  0.14213726658E+03  0.82204435387E+02 0.  0.
         23    2    1    2    0    0 -0.12598902549E+03  0.28645024807E+02 -0.58224665156E+02  0.16867072984E+03  0.91465466072E+02 0.  0.
        -13    1    3    3    0    0  0.16633876089E+02  0.33655972220E+02 -0.29923486909E+02  0.48008596820E+02  0.00000000000E+00 0.  1.
         14    1    3    3    0    0 -0.37613731927E+02  0.80375310472E+02  0.31388263869E+02  0.94128669765E+02  0.00000000000E+00 0. -1.
        -11    1    4    4    0    0 -0.78445616509E+02  0.66314893436E+01  0.13473271946E+02  0.79870022269E+02  0.00000000000E+00 0.  1.
         11    1    4    4    0    0 -0.47543408977E+02  0.22013535463E+02 -0.71697937102E+02  0.88800707572E+02  0.00000000000E+00 0. -1.
         21    1    1    2  503  502  0.32966047834E+02  0.10280649618E+02 -0.21000612883E+02  0.40416306211E+02  0.00000000000E+00 0.  1.
          1    1    1    2  501    0  0.11400283349E+03 -0.15295695712E+03 -0.10698495886E+03  0.21871958805E+03  0.00000000000E+00 0. -1.
<scales pt_clust_5="13000.00000" pt_clust_6="13000.00000" pt_clust_7="13000.00000" pt_clust_8="13000.00000" pt_clust_9="34.53190" pt_clust_10="144.93927"></scales>
<clustering>
<clus scale="   34.532">  2  9  1 -1</clus>
<clus scale="   82.204">  5  6 -1 -1</clus>
<clus scale="   91.465">  7  8 -1 -1</clus>
<clus scale="  142.986">  2  5  1 -1</clus>
<clus scale="  144.939">  1 10  2 -1</clus>
<clus scale="  144.939">  1  5  2 -1</clus>
</clustering>
</event>
<event>
10    4  0.2977685E-005  0.2631622E+03  0.7546771E-02  0.1144695E+00
         21   -1    0    0  501  502  0.00000000000E+00  0.00000000000E+00  0.69476586999E+03  0.69476586999E+03  0.00000000000E+00 0. -1.
          2   -1    0    0  503    0 -0.00000000000E+00 -0.00000000000E+00 -0.19742365512E+03  0.19742365512E+03  0.00000000000E+00 0. -1.
         23    2    1    2    0    0 -0.47128910191E+02  0.11747744834E+02  0.16692556219E+03  0.19450034939E+03  0.87218684440E+02 0.  0.
         24    2    1    2    0    0  0.21774198050E+03 -0.12267505747E+03  0.25325305549E+03  0.37274814939E+03  0.11110055339E+03 0.  0.
        -11    1    4    4    0    0  0.47388515684E+02 -0.39439424206E+02  0.71313629756E+01  0.62064449876E+02  0.00000000000E+00 0.  1.
         12    1    4    4    0    0  0.17035346482E+03 -0.83235633261E+02  0.24612169252E+03  0.31068369952E+03  0.00000000000E+00 0. -1.
        -13    1    3    3    0    0  0.11793755703E+02 -0.19469294078E+02  0.89354667030E+02  0.92208473610E+02  0.00000000000E+00 0.  1.
         13    1    3    3    0    0 -0.58922665894E+02  0.31217038912E+02  0.77570895160E+02  0.10229187578E+03  0.00000000000E+00 0. -1.
         21    1    1    2  503  502  0.45487671788E+02  0.70313563565E+02  0.62636641476E+02  0.10457759971E+03  0.00000000000E+00 0. -1.
          1    1    1    2  501    0 -0.21610074210E+03  0.40613749068E+02  0.14526955706E+02  0.22036342662E+03  0.00000000000E+00 0. -1.
<scales pt_clust_5="13000.00000" pt_clust_6="13000.00000" pt_clust_7="13000.00000" pt_clust_8="13000.00000" pt_clust_9="83.74441" pt_clust_10="238.56041"></scales>
<clustering>
<clus scale="   83.744">  1  9  2 -1</clus>
<clus scale="   87.219">  7  8 -1 -1</clus>
<clus scale="   98.996">  2  7  1 -1</clus>
<clus scale="  111.101">  5  6 -1 -1</clus>
<clus scale="  238.560">  1 10  2 -1</clus>
<clus scale="   83.744">  1  5  2 -1</clus>
</clustering>
</event>
<event>
10    4  0.2977685E-005  0.9974732E+02  0.7546771E-02  0.1286828E+00
         21   -1    0    0  501  502  0.00000000000E+00  0.00000000000E+00  0.37000477919E+02  0.37000477919E+02  0.00000000000E+00 0. -1.
          4   -1    0    0  503    0 -0.00000000000E+00 -0.00000000000E+00 -0.96822774853E+03  0.96822774853E+03  0.00000000000E+00 0. -1.
         24    2    1    2    0    0  0.28764773264E+02  0.10556068650E+02 -0.72301659437E+03  0.72805369046E+03  0.79814395295E+02 0.  0.
         23    2    1    2    0    0 -0.39646697875E+01 -0.23629163249E+02 -0.78626459969E+02  0.12307188471E+03  0.91599741461E+02 0.  0.
        -11    1    3    3    0    0  0.41563550914E+02 -0.18939579473E+02 -0.26479877014E+03  0.26870918314E+03  0.00000000000E+00 0.  1.
         12    1    3    3    0    0 -0.12798777650E+02  0.29495648122E+02 -0.45821782423E+03  0.45934450732E+03  0.00000000000E+00 0. -1.
        -11    1    4    4    0    0  0.28588047757E+02 -0.30139240825E+02 -0.44165401245E+01  0.41775065993E+02  0.00000000000E+00 0. -1.
         11    1    4    4    0    0 -0.32552717545E+02  0.65100775760E+01 -0.74209919845E+02  0.81296818714E+02  0.00000000000E+00 0.  1.
         21    1    1    2  503  502  0.27852967709E+01  0.22823029195E+02 -0.12162837354E+03  0.12378251004E+03  0.00000000000E+00 0.  1.
          3    1    1    2  501    0 -0.27585400247E+02 -0.97499345964E+01 -0.79558427268E+01  0.30320141242E+02  0.00000000000E+00 0. -1.
<scales pt_clust_5="13000.00000" pt_clust_6="13000.00000" pt_clust_7="13000.00000" pt_clust_8="13000.00000" pt_clust_9="22.99236" pt_clust_10="29.02989"></scales>
<clustering>
<clus scale="   22.992">  2  9  1 -1</clus>
<clus scale="   29.030">  1 10  2 -1</clus>
<clus scale="   79.814">  5  6 -1 -1</clus>
<clus scale="   89.047">  2  5  1 -1</clus>
<clus scale="   91.600">  7  8 -1 -1</clus>
<clus scale="   29.030">  1  5  2 -1</clus>
</clustering>
</event>
<event>
10    4  0.2977685E-005  0.9362702E+02  0.7546771E-02  0.1300884E+00
          2   -1    0    0  502    0 -0.00000000000E+00  0.00000000000E+00  0.47671180972E+02  0.47671180972E+02  0.00000000000E+00 0. -1.
         21   -1    0    0  503  502  0.00000000000E+00 -0.00000000000E+00 -0.41477691208E+03  0.41477691208E+03  0.00000000000E+00 0. -1.
         23    2    1    2    0    0  0.21978694823E+02  0.10230022422E+02 -0.68922318910E+02  0.11659182681E+03  0.90860616601E+02 0.  0.
         24    2    1    2    0    0  0.18036960511E+01 -0.33000687945E+02 -0.26016623489E+03  0.27411375080E+03  0.79746974076E+02 0.  0.
        -13    1    4    4    0    0 -0.25742974119E+01  0.23445619014E+02 -0.13067671000E+03  0.13278827732E+03  0.00000000000E+00 0.  1.
         14    1    4    4    0    0  0.43779934630E+01 -0.56446306958E+02 -0.12948952489E+03  0.14132547348E+03  0.00000000000E+00 0. -1.
        -13    1    3    3    0    0 -0.23577178389E+02  0.18186700211E+02  0.42017152598E+01  0.30071478455E+02  0.00000000000E+00 0.  1.
         13    1    3    3    0    0  0.45555873212E+02 -0.79566777886E+01 -0.73124034170E+02  0.86520348351E+02  0.00000000000E+00 0. -1.
         21    1    1    2  503  501  0.31157716028E+01  0.25256885848E+02 -0.36748676960E+02  0.44699928118E+02  0.00000000000E+00 0. -1.
          1    1    1    2  501    0 -0.26898162477E+02 -0.24862203258E+01 -0.12685003415E+01  0.27042587326E+02  0.00000000000E+00 0. -1.
<scales pt_clust_5="13000.00000" pt_clust_6="13000.00000" pt_clust_7="13000.00000" pt_clust_8="13000.00000" pt_clust_9="25.44835" pt_clust_10="26.82396"></scales>
<clustering>
<clus scale="   25.448">  2  9  1 -1</clus>
<clus scale="   26.824">  2 10  1 -1</clus>
<clus scale="   79.747">  5  6 -1 -1</clus>
<clus scale="   82.885">  2  5  1 -1</clus>
<clus scale="   90.861">  7  8 -1 -1</clus>
<clus scale="   25.448">  2  5  1 -1</clus>
</clustering>
</event>
<event>
10    4  0.2977685E-005  0.2852261E+03  0.7546771E-02  0.1092868E+00
         21   -1    0    0  503  502  0.00000000000E+00  0.00000000000E+00  0.73142932264E+03  0.73142932264E+03  0.00000000000E+00 0.  1.
         -1   -1    0    0    0  501 -0.00000000000E+00 -0.00000000000E+00 -0.13658083680E+03  0.13658083680E+03  0.00000000000E+00 0.  1.
         24    2    1    2    0    0  0.21512742360E+02 -0.14081391229E+03  0.25870647147E+03  0.30599170872E+03  0.80065794502E+02 0.  0.
         23    2    1    2    0    0  0.71297565561E+01 -0.71338155204E+02  0.82447372795E+02  0.14245335080E+03  0.91407997769E+02 0.  0.
        -13    1    3    3    0    0 -0.15745052975E+02 -0.12759860247E+02  0.82805527687E+02  0.85249493501E+02  0.00000000000E+00 0.  1.
         14    1    3    3    0    0  0.37257795334E+02 -0.12805405204E+03  0.17590094378E+03  0.22074221522E+03  0.00000000000E+00 0. -1.
        -11    1    4    4    0    0  0.10971282314E+02 -0.92674658270E+02  0.58459044637E+02  0.11012003097E+03  0.00000000000E+00 0.  1.
         11    1    4    4    0    0 -0.38415257575E+01  0.21336503066E+02  0.23988328158E+02  0.32333319827E+02  0.00000000000E+00 0. -1.
         21    1    1    2  503  501 -0.82138235775E+02  0.11861599320E+02 -0.10599177064E+02  0.83664388297E+02  0.00000000000E+00 0.  1.
         -2    1    1    2    0  502  0.53495736859E+02  0.20029046817E+03  0.26429381864E+03  0.33590071163E+03  0.00000000000E+00 0.  1.
<scales pt_clust_5="13000.00000" pt_clust_6="13000.00000" pt_clust_7="13000.00000" pt_clust_8="13000.00000" pt_clust_9="82.99028" pt_clust_10="206.07236"></scales>
<clustering>
<clus scale="   80.066">  5  6 -1 -1</clus>
<clus scale="   82.990">  2  9  1 -1</clus>
<clus scale="   91.408">  7  8 -1 -1</clus>
<clus scale="  110.177">  5  7 -1 -1</clus>
<clus scale="  206.072">  1 10  2 -1</clus>
<clus scale="  206.072">  1  5  2 -1</clus>
</clustering>
</event>
<event>
10    4  0.2977685E-005  0.9496503E+02  0.7546771E-02  0.1299055E+00
         21   -1    0    0  501  502  0.00000000000E+00  0.00000000000E+00  0.62146096677E+02  0.62146096677E+02  0.00000000000E+00 0.  1.
          2   -1    0    0  503    0 -0.00000000000E+00 -0.00000000000E+00 -0.32723619956E+03  0.32723619956E+03  0.00000000000E+00 0. -1.
         23    2    1    2    0    0 -0.29425898854E+01 -0.91311425174E+00 -0.14910951031E+03  0.17543805138E+03  0.92387072655E+02 0.  0.
         24    2    1    2    0    0  0.66591177800E+01  0.17569965545E+02 -0.18009706148E+02  0.83330096292E+02  0.79161277741E+02 0.  0.
        -13    1    4    4    0    0  0.11463417724E+02 -0.30423294710E+02 -0.22562765154E+01  0.32589531918E+02  0.00000000000E+00 0.  1.
         14    1    4    4    0    0 -0.48042999441E+01  0.47993260254E+02 -0.15753429633E+02  0.50740564374E+02  0.00000000000E+00 0. -1.
        -11    1    3    3    0    0 -0.55587220305E+01 -0.38930238508E+02 -0.12328473881E+03  0.12940475140E+03  0.00000000000E+00 0.  1.
         11    1    3    3    0    0  0.26161321451E+01  0.38017124256E+02 -0.25824771500E+02  0.46033299981E+02  0.00000000000E+00 0. -1.
         21    1    1    2  503  502 -0.15481405857E+00 -0.37586401340E+02 -0.10226514471E+03  0.10895375788E+03  0.00000000000E+00 0.  1.
          1    1    1    2  501    0 -0.35617138359E+01  0.20929550048E+02  0.42942582846E+01  0.21660390690E+02  0.00000000000E+00 0. -1.
<scales pt_clust_5="13000.00000" pt_clust_6="13000.00000" pt_clust_7="13000.00000" pt_clust_8="13000.00000" pt_clust_9="36.16502" pt_clust_10="21.23045"></scales>
<clustering>
<clus scale="   21.230">  1 10  2 -1</clus>
<clus scale="   36.165">  2  9  1 -1</clus>
<clus scale="   79.161">  5  6 -1 -1</clus>
<clus scale="   82.155">  1  5  2 -1</clus>
<clus scale="   92.387">  7  8 -1 -1</clus>
<clus scale="   21.230">  1  5  2 -1</clus>
</clustering>
</event>
<event>
10    4  0.2977685E-005  0.1176231E+03  0.7546771E-02  0.1250853E+00
          2   -1    0    0  503    0 -0.00000000000E+00  0.00000000000E+00  0.58982554035E+03  0.58982554035E+03  0.00000000000E+00 0. -1.
         21   -1    0    0  501  502  0.00000000000E+00 -0.00000000000E+00 -0.16809543962E+03  0.16809543962E+03  0.00000000000E+00 0. -1.
         23    2    1    2    0    0 -0.42690709431E+02  0.31854487025E+02  0.29752053114E+03  0.31564660430E+03  0.90978609247E+02 0.  0.
         24    2    1    2    0    0  0.28758174322E+02 -0.26760221387E+02  0.26469734786E+02  0.92613544066E+02  0.79583161824E+02 0.  0.
        -13    1    4    4    0    0  0.29196167550E+02 -0.51472253673E+02  0.41670648008E+01  0.59322622387E+02  0.00000000000E+00 0.  1.
         14    1    4    4    0    0 -0.43799322817E+00  0.24712032286E+02  0.22302669985E+02  0.33290921679E+02  0.00000000000E+00 0. -1.
        -13    1    3    3    0    0  0.25739143185E+02 -0.12253589952E+01  0.11652058043E+03  0.11933587332E+03  0.00000000000E+00 0.  1.
         13    1    3    3    0    0 -0.68429852616E+02  0.33079846020E+02  0.18099995071E+03  0.19631073098E+03  0.00000000000E+00 0. -1.
         21    1    1    2  503  502 -0.62235048218E+02  0.17865383251E+02  0.20564676565E+03  0.21559908480E+03  0.00000000000E+00 0.  1.
          1    1    1    2  501    0  0.76167583327E+02 -0.22959648889E+02 -0.10790693085E+03  0.13406174679E+03  0.00000000000E+00 0. -1.
<scales pt_clust_5="13000.00000" pt_clust_6="13000.00000" pt_clust_7="13000.00000" pt_clust_8="13000.00000" pt_clust_9="64.74854" pt_clust_10="77.32003"></scales>
<clustering>
<clus scale="   64.749">  1  9  2 -1</clus>
<clus scale="   77.320">  2 10  1 -1</clus>
<clus scale="   79.583">  5  6 -1 -1</clus>
<clus scale="   90.979">  7  8 -1 -1</clus>
<clus scale="  109.048">  2  5  1 -1</clus>
<clus scale="   77.320">  2  5  1 -1</clus>
</clustering>
</event>
<event>
10    4  0.2977685E-005  0.1785251E+03  0.7546771E-02  0.1173451E+00
         21   -1    0    0  501  502  0.00000000000E+00  0.00000000000E+00  0.24448037127E+03  0.24448037127E+03  0.00000000000E+00 0.  1.
          2   -1    0    0  503    0 -0.00000000000E+00 -0.00000000000E+00 -0.30460091682E+03  0.30460091682E+03  0.00000000000E+00 0. -1.
         24    2    1    2    0    0 -0.10754469697E+03  0.97165583594E+02  0.76747210906E+01  0.16603595385E+03  0.80635129733E+02 0.  0.
         23    2    1    2    0    0  0.11828933786E+03 -0.53859236508E+02  0.94997714990E+02  0.19492356954E+03  0.10989743992E+03 0.  0.
        -11    1    3    3    0    0 -0.98824776601E+02  0.45140396565E+02 -0.12910970232E+02  0.10941062574E+03  0.00000000000E+00 0.  1.
         12    1    3    3    0    0 -0.87199203644E+01  0.52025187030E+02  0.20585691323E+02  0.56625328113E+02  0.00000000000E+00 0. -1.
        -11    1    4    4    0    0  0.63216082270E+02 -0.85740683400E+02  0.61663261624E+02  0.12308572493E+03  0.00000000000E+00 0.  1.
         11    1    4    4    0    0  0.55073255593E+02  0.31881446892E+02  0.33334453366E+02  0.71837844614E+02  0.00000000000E+00 0. -1.
         21    1    1    2  503  502 -0.29501677356E+02  0.13360629538E+02 -0.77711938810E+02  0.84190265602E+02  0.00000000000E+00 0. -1.
          1    1    1    2  501    0  0.18757036459E+02 -0.56666976625E+02 -0.85081042823E+02  0.10393149910E+03  0.00000000000E+00 0. -1.
<scales pt_clust_5="13000.00000" pt_clust_6="13000.00000" pt_clust_7="13000.00000" pt_clust_8="13000.00000" pt_clust_9="32.38604" pt_clust_10="51.40763"></scales>
<clustering>
<clus scale="   32.386">  2  9  1 -1</clus>
<clus scale="   51.408">  1 10  2 -1</clus>
<clus scale="   80.635">  5  6 -1 -1</clus>
<clus scale="  109.897">  7  8 -1 -1</clus>
<clus scale="  162.160">  2  5  1 -1</clus>
<clus scale="   51.408">  1  5  2 -1</clus>
</clustering>
</event>
<event>
10    4  0.2977685E-005  0.1713439E+03  0.7546771E-02  0.1198315E+00
         21   -1    0    0  501  502  0.00000000000E+00  0.00000000000E+00  0.32929251702E+03  0.32929251702E+03  0.00000000000E+00 0. -1.
          2   -1    0    0  503    0 -0.00000000000E+00 -0.00000000000E+00 -0.28105771647E+03  0.28105771647E+03  0.00000000000E+00 0. -1.
         24    2    1    2    0    0  0.26181570581E+00  0.69507308646E+02 -0.10277676670E+03  0.14812942913E+03  0.80919277657E+02 0.  0.
         23    2    1    2    0    0  0.84637286216E+01 -0.14398918237E+03  0.21591976409E+03  0.27512079346E+03  0.90915274430E+02 0.  0.
        -13    1    3    3    0    0 -0.20727594751E+02 -0.78749576270E+01 -0.42091529860E+02  0.47574625881E+02  0.00000000000E+00 0.  1.
         14    1    3    3    0    0  0.20989410456E+02  0.77382266273E+02 -0.60685236842E+02  0.10055480324E+03  0.00000000000E+00 0. -1.
        -11    1    4    4    0    0 -0.70913212552E+01 -0.28636987330E+02 -0.36575060149E+00  0.29504197227E+02  0.00000000000E+00 0.  1.
         11    1    4    4    0    0  0.15555049877E+02 -0.11535219504E+03  0.21628551469E+03  0.24561659623E+03  0.00000000000E+00 0. -1.
         21    1    1    2  503  502 -0.59731734961E+02  0.10130239455E+03 -0.48232289627E+02  0.12710786390E+03  0.00000000000E+00 0. -1.
          1    1    1    2  501    0  0.51006190634E+02 -0.26820520827E+02 -0.16675907210E+02  0.59992147000E+02  0.00000000000E+00 0. -1.
<scales pt_clust_5="13000.00000" pt_clust_6="13000.00000" pt_clust_7="13000.00000" pt_clust_8="13000.00000" pt_clust_9="145.23481" pt_clust_10="57.62790"></scales>
<clustering>
<clus scale="   57.628">  1 10  2 -1</clus>
<clus scale="   80.919">  5  6 -1 -1</clus>
<clus scale="   90.915">  7  8 -1 -1</clus>
<clus scale="  105.472">  2  5  1 -1</clus>
<clus scale="  145.235">  2  9  1 -1</clus>
<clus scale="   57.628">  1  5  2 -1</clus>
</clustering>
</event>
<event>
10    4  0.2977685E-005  0.1025800E+03  0.7546771E-02  0.1278715E+00
          2   -1    0    0  502    0 -0.00000000000E+00  0.00000000000E+00  0.67793920273E+03  0.67793920273E+03  0.00000000000E+00 0. -1.
         21   -1    0    0  503  502  0.00000000000E+00 -0.00000000000E+00 -0.29700230721E+02  0.29700230721E+02  0.00000000000E+00 0.  1.
         23    2    1    2    0    0  0.54802433759E+02  0.11074929625E+02  0.30535733185E+03  0.32316437896E+03  0.89811774862E+02 0.  0.
         24    2    1    2    0    0 -0.18000684801E+02 -0.56535167530E+02  0.21669825639E+03  0.23903387392E+03  0.81601524124E+02 0.  0.
        -13    1    4    4    0    0  0.16102092026E+02 -0.57880709443E+02  0.93033948309E+02  0.11074641950E+03  0.00000000000E+00 0.  1.
         14    1    4    4    0    0 -0.34102776827E+02  0.13455419127E+01  0.12366430808E+03  0.12828745443E+03  0.00000000000E+00 0. -1.
        -11    1    3    3    0    0  0.48775127368E+02  0.47810103021E+02  0.20837560431E+03  0.21928340446E+03  0.00000000000E+00 0. -1.
         11    1    3    3    0    0  0.60273063915E+01 -0.36735173396E+02  0.96981727544E+02  0.10388097451E+03  0.00000000000E+00 0.  1.
         21    1    1    2  503  501 -0.23328171901E+02 -0.94602513931E+00  0.50665512532E+02  0.55786133832E+02  0.00000000000E+00 0.  1.
          1    1    1    2  501    0 -0.13473577058E+02  0.46406263045E+02  0.75517871235E+02  0.89655046731E+02  0.00000000000E+00 0. -1.
<scales pt_clust_5="13000.00000" pt_clust_6="13000.00000" pt_clust_7="13000.00000" pt_clust_8="13000.00000" pt_clust_9="23.34735" pt_clust_10="50.12896"></scales>
<clustering>
<clus scale="   23.347">  2  9  1 -1</clus>
<clus scale="   50.129">  2 10  1 -1</clus>
<clus scale="   81.602">  5  6 -1 -1</clus>
<clus scale="   89.812">  7  8 -1 -1</clus>
<clus scale="   95.474">  2  5  1 -1</clus>
<clus scale="   23.347">  2  5  1 -1</clus>
</clustering>
</event>
<event>
10    4  0.2977685E-005  0.2348423E+03  0.7546771E-02  0.1160419E+00
         21   -1    0    0  501  502  0.00000000000E+00  0.00000000000E+00  0.51489039292E+02  0.51489039292E+02  0.00000000000E+00 0. -1.
          2   -1    0    0  503    0 -0.00000000000E+00 -0.00000000000E+00 -0.18318436667E+04  0.18318436667E+04  0.00000000000E+00 0. -1.
         24    2    1    2    0    0 -0.40896981582E+02 -0.34065504414E+02 -0.21213568984E+03  0.23390591176E+03  0.82930108881E+02 0.  0.
         23    2    1    2    0    0  0.71365974584E+01  0.20701874630E+03 -0.83985815332E+03  0.86978512571E+03  0.90866687263E+02 0.  0.
        -11    1    3    3    0    0 -0.42898862613E+02 -0.22185681419E+02 -0.21593785718E+03  0.22127285201E+03  0.00000000000E+00 0.  1.
         12    1    3    3    0    0  0.20018810308E+01 -0.11879822995E+02  0.38021673430E+01  0.12633059747E+02  0.00000000000E+00 0. -1.
        -11    1    4    4    0    0  0.61821802065E+01  0.78369251656E+02 -0.16496039885E+03  0.18273448538E+03  0.00000000000E+00 0.  1.
         11    1    4    4    0    0  0.95441725185E+00  0.12864949465E+03 -0.67489775448E+03  0.68705064033E+03  0.00000000000E+00 0. -1.
         21    1    1    2  503  502  0.51773126106E+01  0.48960745618E+02 -0.19772025279E+03  0.20375784044E+03  0.00000000000E+00 0.  1.
          1    1    1    2  501    0  0.28583071513E+02 -0.22191398751E+03 -0.53064053147E+03  0.57588382810E+03  0.00000000000E+00 0. -1.
<scales pt_clust_5="13000.00000" pt_clust_6="13000.00000" pt_clust_7="13000.00000" pt_clust_8="13000.00000" pt_clust_9="49.23372" pt_clust_10="216.55061"></scales>
<clustering>
<clus scale="   49.234">  2  9  1 -1</clus>
<clus scale="   82.930">  5  6 -1 -1</clus>
<clus scale="   90.867">  7  8 -1 -1</clus>
<clus scale="   96.134">  2  5  1 -1</clus>
<clus scale="  216.551">  1 10  2 -1</clus>
<clus scale="  216.551">  1  5  2 -1</clus>
</clustering>
</event>
<event>
10    4  0.2977685E-005  0.1066595E+03  0.7546771E-02  0.1270873E+00
          2   -1    0    0  503    0 -0.00000000000E+00  0.00000000000E+00  0.22430015569E+03  0.22430015569E+03  0.00000000000E+00 0. -1.
         21   -1    0    0  501  502  0.00000000000E+00 -0.00000000000E+00 -0.13884986552E+03  0.13884986552E+03  0.00000000000E+00 0. -1.
         24    2    1    2    0    0 -0.69921651700E+02 -0.34510931579E+02  0.77250979828E+02  0.13708377957E+03  0.82123120748E+02 0.  0.
         23    2    1    2    0    0  0.39363034136E+02 -0.95065286669E+01  0.60954240259E+01  0.10025135235E+03  0.91506048486E+02 0.  0.
        -13    1    3    3    0    0 -0.44378729435E+02  0.21800911314E+02  0.21834202961E+02  0.54050751885E+02  0.00000000000E+00 0.  1.
         14    1    3    3    0    0 -0.25542922265E+02 -0.56311842894E+02  0.55416776867E+02  0.83033027683E+02  0.00000000000E+00 0. -1.
        -13    1    4    4    0    0  0.60585722011E+02  0.17024551944E+02  0.15861992587E+02  0.64900445987E+02  0.00000000000E+00 0.  1.
         13    1    4    4    0    0 -0.21222687874E+02 -0.26531080611E+02 -0.97665685608E+01  0.35350906360E+02  0.00000000000E+00 0. -1.
         21    1    1    2  503  502  0.26564211350E+02 -0.85016777019E+00  0.52119567274E+02  0.58504951950E+02  0.00000000000E+00 0. -1.
          1    1    1    2  501    0  0.39944062139E+01  0.44867628017E+02 -0.50015680953E+02  0.67309937349E+02  0.00000000000E+00 0. -1.
<scales pt_clust_5="13000.00000" pt_clust_6="13000.00000" pt_clust_7="13000.00000" pt_clust_8="13000.00000" pt_clust_9="26.57781" pt_clust_10="45.14271"></scales>
<clustering>
<clus scale="   26.578">  1  9  2 -1</clus>
<clus scale="   45.143">  2 10  1 -1</clus>
<clus scale="   82.123">  5  6 -1 -1</clus>
<clus scale="   91.506">  7  8 -1 -1</clus>
<clus scale="   98.727">  1  5  2 -1</clus>
<clus scale="   45.143">  2  5  1 -1</clus>
</clustering>
</event>
<event>
10    4  0.2977685E-005  0.3464608E+03  0.7546771E-02  0.1106098E+00
          2   -1    0    0  503    0 -0.00000000000E+00  0.00000000000E+00  0.11131260594E+04  0.11131260594E+04  0.00000000000E+00 0. -1.
         21   -1    0    0  501  502  0.00000000000E+00 -0.00000000000E+00 -0.30907278611E+03  0.30907278611E+03  0.00000000000E+00 0. -1.
         24    2    1    2    0    0 -0.43232241977E+01 -0.77481401613E+02  0.43554209734E+03  0.44989865525E+03  0.81791341701E+02 0.  0.
         23    2    1    2    0    0 -0.26586349347E+03 -0.93519031527E+02  0.43570579625E+03  0.52713479658E+03  0.92748835363E+02 0.  0.
        -13    1    3    3    0    0  0.26109185470E+02 -0.77476402949E+02  0.29652936820E+03  0.30759380486E+03  0.00000000000E+00 0.  1.
         14    1    3    3    0    0 -0.30432409668E+02 -0.49986635698E-02  0.13901272914E+03  0.14230485040E+03  0.00000000000E+00 0. -1.
        -11    1    4    4    0    0 -0.27714240992E+02 -0.26030233046E+02  0.12049212023E+03  0.12634873654E+03  0.00000000000E+00 0.  1.
         11    1    4    4    0    0 -0.23814925248E+03 -0.67488798480E+02  0.31521367602E+03  0.40078606005E+03  0.00000000000E+00 0. -1.
         21    1    1    2  503  502 -0.35113216118E+02  0.49882527092E+01  0.64438400047E+02  0.73553572394E+02  0.00000000000E+00 0. -1.
          1    1    1    2  501    0  0.30529993379E+03  0.16601218043E+03 -0.13163302040E+03  0.37161182124E+03  0.00000000000E+00 0. -1.
<scales pt_clust_5="13000.00000" pt_clust_6="13000.00000" pt_clust_7="13000.00000" pt_clust_8="13000.00000" pt_clust_9="35.46577" pt_clust_10="333.81542"></scales>
<clustering>
<clus scale="   35.466">  1  9  2 -1</clus>
<clus scale="   81.791">  5  6 -1 -1</clus>
<clus scale="   92.749">  7  8 -1 -1</clus>
<clus scale="  112.867">  1  5  2 -1</clus>
<clus scale="  333.815">  2 10  1 -1</clus>
<clus scale="  333.815">  2  5  1 -1</clus>
</clustering>
</event>
<event>
10    4  0.2977685E-005  0.1631299E+03  0.7546771E-02  0.1186344E+00
          2   -1    0    0  503    0 -0.00000000000E+00  0.00000000000E+00  0.10813976214E+04  0.10813976214E+04  0.00000000000E+00 0. -1.
         21   -1    0    0  501  502  0.00000000000E+00 -0.00000000000E+00 -0.16555117741E+03  0.16555117741E+03  0.00000000000E+00 0. -1.
         24    2    1    2    0    0  0.19107523674E+03 -0.49039519732E+02  0.70760656593E+03  0.73901163838E+03  0.80725020455E+02 0.  0.
         23    2    1    2    0    0 -0.11737277573E+03  0.31967413536E+02  0.76582370508E+02  0.16879528953E+03  0.88479976750E+02 0.  0.
        -13    1    3    3    0    0  0.16029933734E+02 -0.32876498242E+02  0.99656025128E+02  0.10615623513E+03  0.00000000000E+00 0.  1.
         14    1    3    3    0    0  0.17504530300E+03 -0.16163021491E+02  0.60795054080E+03  0.63285540325E+03  0.00000000000E+00 0. -1.
        -13    1    4    4    0    0 -0.54807194425E+02 -0.17442054112E+02  0.67307766454E+02  0.88534678163E+02  0.00000000000E+00 0. -1.
         13    1    4    4    0    0 -0.62565581304E+02  0.49409467649E+02  0.92746040537E+01  0.80260611371E+02  0.00000000000E+00 0.  1.
         21    1    1    2  503  502 -0.75032257934E+02 -0.88802738458E+01  0.22756291499E+03  0.23977818765E+03  0.00000000000E+00 0.  1.
          1    1    1    2  501    0  0.13297969266E+01  0.25952380042E+02 -0.95905407393E+02  0.99363683290E+02  0.00000000000E+00 0. -1.
<scales pt_clust_5="13000.00000" pt_clust_6="13000.00000" pt_clust_7="13000.00000" pt_clust_8="13000.00000" pt_clust_9="75.19816" pt_clust_10="25.98643"></scales>
<clustering>
<clus scale="   25.986">  2 10  1 -1</clus>
<clus scale="   75.198">  1  9  2 -1</clus>
<clus scale="   80.725">  5  6 -1 -1</clus>
<clus scale="   88.480">  7  8 -1 -1</clus>
<clus scale="  159.057">  1  5  2 -1</clus>
<clus scale="   25.986">  2  5  1 -1</clus>
</clustering>
</event>
<event>
10    4  0.2977685E-005  0.9918413E+02  0.7546771E-02  0.1287619E+00
         21   -1    0    0  501  502  0.00000000000E+00  0.00000000000E+00  0.45546684584E+03  0.45546684584E+03  0.00000000000E+00 0. -1.
          2   -1    0    0  503    0 -0.00000000000E+00 -0.00000000000E+00 -0.96955244110E+02  0.96955244110E+02  0.00000000000E+00 0. -1.
         24    2    1    2    0    0  0.44395744623E+02  0.25284975246E+02 -0.43148736132E+02  0.10438100088E+03  0.80145291815E+02 0.  0.
         23    2    1    2    0    0 -0.55631606296E+02 -0.38875503321E+02  0.23733021307E+03  0.26311589242E+03  0.91094250280E+02 0.  0.
        -13    1    3    3    0    0  0.27097662312E+02  0.42240595729E+02  0.50494988248E+01  0.50438563309E+02  0.00000000000E+00 0.  1.
         14    1    3    3    0    0  0.17298082311E+02 -0.16955620483E+02 -0.48198234957E+02  0.53942437566E+02  0.00000000000E+00 0. -1.
        -13    1    4    4    0    0 -0.28870401682E+02 -0.54151923422E+02  0.70516564464E+02  0.93480034057E+02  0.00000000000E+00 0. -1.
         13    1    4    4    0    0 -0.26761204614E+02  0.15276420101E+02  0.16681364860E+03  0.16963585837E+03  0.00000000000E+00 0.  1.
         21    1    1    2  503  502 -0.15185948124E+02 -0.13387351479E+02  0.45577051500E+01  0.20751069280E+02  0.00000000000E+00 0. -1.
          1    1    1    2  501    0  0.26421809797E+02  0.26977879554E+02  0.15977241964E+03  0.16417412737E+03  0.00000000000E+00 0. -1.
<scales pt_clust_5="13000.00000" pt_clust_6="13000.00000" pt_clust_7="13000.00000" pt_clust_8="13000.00000" pt_clust_9="20.24436" pt_clust_10="37.26128"></scales>
<clustering>
<clus scale="   20.244">  2  9  1 -1</clus>
<clus scale="   37.261">  1 10  2 -1</clus>
<clus scale="   80.145">  5  6 -1 -1</clus>
<clus scale="   89.233">  2  5  1 -1</clus>
<clus scale="   91.094">  7  8 -1 -1</clus>
<clus scale="   37.261">  1  5  2 -1</clus>
</clustering>
</event>
<event>
10    4  0.2977685E-005  0.2170246E+03  0.7546771E-02  0.1136797E+00
          2   -1    0    0  503    0 -0.00000000000E+00  0.00000000000E+00  0.39772158752E+03  0.39772158752E+03  0.00000000000E+00 0. -1.
         21   -1    0    0  501  502  0.00000000000E+00 -0.00000000000E+00 -0.25157066559E+03  0.25157066559E+03  0.00000000000E+00 0. -1.
         24    2    1    2    0    0  0.17460331372E+03 -0.88471421465E+02  0.23437064419E+03  0.31568696840E+03  0.80094653853E+02 0.  0.
         23    2    1    2    0    0 -0.14815027282E+03  0.77769104210E+02 -0.10712669508E+03  0.21773566001E+03  0.89085082558E+02 0.  0.
        -13    1    3    3    0    0  0.72908855270E+02 -0.22780509284E+02  0.38795225533E+02  0.85672179290E+02  0.00000000000E+00 0.  1.
         14    1    3    3    0    0  0.10169445845E+03 -0.65690912181E+02  0.19557541866E+03  0.23001478911E+03  0.00000000000E+00 0. -1.
        -11    1    4    4    0    0 -0.36591615051E+02 -0.19575470416E+02 -0.23037481995E+02  0.47464417312E+02  0.00000000000E+00 0.  1.
         11    1    4    4    0    0 -0.11155865777E+03  0.97344574626E+02 -0.84089213087E+02  0.17027124270E+03  0.00000000000E+00 0. -1.
         21    1    1    2  503  502  0.29284325207E+02  0.25133492943E+02  0.39022176688E+02  0.54881640317E+02  0.00000000000E+00 0.  1.
          1    1    1    2  501    0 -0.55737366106E+02 -0.14431175687E+02 -0.20115203877E+02  0.60987984383E+02  0.00000000000E+00 0. -1.
<scales pt_clust_5="13000.00000" pt_clust_6="13000.00000" pt_clust_7="13000.00000" pt_clust_8="13000.00000" pt_clust_9="38.59099" pt_clust_10="55.56538"></scales>
<clustering>
<clus scale="   38.591">  1  9  2 -1</clus>
<clus scale="   55.565">  2 10  1 -1</clus>
<clus scale="   80.095">  5  6 -1 -1</clus>
<clus scale="   89.085">  7  8 -1 -1</clus>
<clus scale="  213.492">  1  5  2 -1</clus>
<clus scale="   55.565">  2  5  1 -1</clus>
</clustering>
</event>
<event>
10    4  0.2977685E-005  0.1802040E+03  0.7546771E-02  0.1168555E+00
         21   -1    0    0  503  502  0.00000000000E+00  0.00000000000E+00  0.16123783146E+03  0.16123783146E+03  0.00000000000E+00 0. -1.
         -1   -1    0    0    0  501 -0.00000000000E+00 -0.00000000000E+00 -0.43873339376E+03  0.43873339376E+03  0.00000000000E+00 0.  1.
         24    2    1    2    0    0  0.86689875829E+02  0.14501501467E+03 -0.20318938494E+03  0.27638373382E+03  0.80978720134E+02 0.  0.
         23    2    1    2    0    0 -0.74995346751E+02 -0.10935696757E+03  0.50616042731E+02  0.16759136434E+03  0.89115841617E+02 0.  0.
        -13    1    3    3    0    0  0.88474273696E+02  0.11901919069E+03 -0.20160914179E+03  0.25027886629E+03  0.00000000000E+00 0.  1.
         14    1    3    3    0    0 -0.17843978678E+01  0.25995823986E+02 -0.15802431568E+01  0.26104867532E+02  0.00000000000E+00 0. -1.
        -13    1    4    4    0    0 -0.89675039507E+01 -0.27268777333E+02 -0.24878366921E+02  0.37985990641E+02  0.00000000000E+00 0.  1.
         13    1    4    4    0    0 -0.66027842801E+02 -0.82088190240E+02  0.75494409652E+02  0.12960537369E+03  0.00000000000E+00 0. -1.
         21    1    1    2  503  501 -0.32060246609E+02  0.10136029801E+02 -0.86620478085E+02  0.92917736394E+02  0.00000000000E+00 0. -1.
         -2    1    1    2    0  502  0.20365717532E+02 -0.45794076900E+02 -0.38301742000E+02  0.63078390673E+02  0.00000000000E+00 0.  1.
<scales pt_clust_5="13000.00000" pt_clust_6="13000.00000" pt_clust_7="13000.00000" pt_clust_8="13000.00000" pt_clust_9="33.62437" pt_clust_10="47.02320"></scales>
<clustering>
<clus scale="   33.624">  2  9  1 -1</clus>
<clus scale="   47.023">  1 10  2 -1</clus>
<clus scale="   80.979">  5  6 -1 -1</clus>
<clus scale="   89.116">  7  8 -1 -1</clus>
<clus scale="  176.322">  2  5  1 -1</clus>
<clus scale="   47.023">  1  5  2 -1</clus>
</clustering>
</event>
<event>
10    4  0.2977685E-005  0.1048593E+03  0.7546771E-02  0.1275543E+00
         21   -1    0    0  503  502  0.00000000000E+00  0.00000000000E+00  0.17132605830E+03  0.17132605830E+03  0.00000000000E+00 0.  1.
         -1   -1    0    0    0  501 -0.00000000000E+00 -0.00000000000E+00 -0.33677808160E+03  0.33677808160E+03  0.00000000000E+00 0.  1.
         24    2    1    2    0    0 -0.57372149764E+02  0.12176737391E+02 -0.27498745674E+03  0.29189419742E+03  0.78385487321E+02 0.  0.
         23    2    1    2    0    0  0.31475579488E+02  0.59310751543E+01  0.12443916998E+03  0.15694320815E+03  0.90112006987E+02 0.  0.
        -13    1    3    3    0    0 -0.55956078720E+02 -0.11263466629E+02 -0.25420923589E+03  0.26053845021E+03  0.00000000000E+00 0.  1.
         14    1    3    3    0    0 -0.14160710437E+01  0.23440204019E+02 -0.20778220857E+02  0.31355747219E+02  0.00000000000E+00 0. -1.
        -11    1    4    4    0    0 -0.16912884620E+02  0.13350550672E+02  0.99873235345E+02  0.10217116035E+03  0.00000000000E+00 0.  1.
         11    1    4    4    0    0  0.48388464109E+02 -0.74194755172E+01  0.24565934636E+02  0.54772047801E+02  0.00000000000E+00 0. -1.
         21    1    1    2  503  501  0.27727988731E+01 -0.23273643937E+02 -0.24314968561E+02  0.33772305397E+02  0.00000000000E+00 0. -1.
         -2    1    1    2    0  502  0.23123771402E+02  0.51658313916E+01  0.94112320215E+01  0.25494428921E+02  0.00000000000E+00 0.  1.
<scales pt_clust_5="13000.00000" pt_clust_6="13000.00000" pt_clust_7="13000.00000" pt_clust_8="13000.00000" pt_clust_9="23.43824" pt_clust_10="23.63974"></scales>
<clustering>
<clus scale="   23.438">  2  9  1 -1</clus>
<clus scale="   23.640">  1 10  2 -1</clus>
<clus scale="   78.385">  5  6 -1 -1</clus>
<clus scale="   90.112">  7  8 -1 -1</clus>
<clus scale="   94.971">  2  5  1 -1</clus>
<clus scale="   23.640">  1  5  2 -1</clus>
</clustering>
</event>
<event>
10    4  0.2977685E-005  0.1770026E+03  0.7546771E-02  0.1182072E+00
         21   -1    0    0  501  502  0.00000000000E+00  0.00000000000E+00  0.73130217244E+02  0.73130217244E+02  0.00000000000E+00 0.  1.
          2   -1    0    0  503    0 -0.00000000000E+00 -0.00000000000E+00 -0.11747638720E+04  0.11747638720E+04  0.00000000000E+00 0. -1.
         23    2    1    2    0    0 -0.25941490360E+02 -0.15992062999E+03 -0.70714247228E+03  0.73107274250E+03  0.90384234806E+02 0.  0.
         24    2    1    2    0    0 -0.96834047761E+02  0.28405565418E+02 -0.11542103993E+03  0.17387217374E+03  0.82011019945E+02 0.  0.
        -11    1    4    4    0    0 -0.76593064703E+02  0.41296310262E+02 -0.41987277142E+02  0.96616842443E+02  0.00000000000E+00 0.  1.
         12    1    4    4    0    0 -0.20240983058E+02 -0.12890744844E+02 -0.73433762784E+02  0.77255331301E+02  0.00000000000E+00 0. -1.
        -13    1    3    3    0    0 -0.45086848619E+02 -0.47866087202E+02 -0.35491718104E+03  0.36095732659E+03  0.00000000000E+00 0.  1.
         13    1    3    3    0    0  0.19145358259E+02 -0.11205454279E+03 -0.35222529124E+03  0.37011541591E+03  0.00000000000E+00 0. -1.
         21    1    1    2  503  502  0.13184432185E+03  0.97172118155E+02 -0.23155717655E+03  0.28362664149E+03  0.00000000000E+00 0.  1.
          1    1    1    2  501    0 -0.90687837240E+01  0.34342946417E+02 -0.47512965988E+02  0.59322531502E+02  0.00000000000E+00 0. -1.
<scales pt_clust_5="13000.00000" pt_clust_6="13000.00000" pt_clust_7="13000.00000" pt_clust_8="13000.00000" pt_clust_9="152.18612" pt_clust_10="35.52015"></scales>
<clustering>
<clus scale="   35.520">  1 10  2 -1</clus>
<clus scale="   82.011">  5  6 -1 -1</clus>
<clus scale="   90.384">  7  8 -1 -1</clus>
<clus scale="  136.966">  1  5  2 -1</clus>
<clus scale="  152.186">  1  9  2 -1</clus>
<clus scale="   35.520">  1  5  2 -1</clus>
</clustering>
</event>
<event>
10    4  0.2977685E-005  0.4599701E+03  0.7546771E-02  0.1057062E+00
         21   -1    0    0  501  502  0.00000000000E+00  0.00000000000E+00  0.41170550442E+03  0.41170550442E+03  0.00000000000E+00 0. -1.
          2   -1    0    0  503    0 -0.00000000000E+00 -0.00000000000E+00 -0.12281839079E+04  0.12281839079E+04  0.00000000000E+00 0. -1.
         23    2    1    2    0    0  0.14102401308E+03 -0.46819307791E+02 -0.13526242804E+03  0.22074053051E+03  0.91381822714E+02 0.  0.
         24    2    1    2    0    0 -0.57533526678E+03 -0.89544792994E+02 -0.25338384489E+03  0.64048320147E+03  0.83584803418E+02 0.  0.
        -11    1    4    4    0    0 -0.13526579716E+03 -0.49697629681E+02 -0.86962365446E+02  0.16831263554E+03  0.00000000000E+00 0.  1.
         12    1    4    4    0    0 -0.44006946961E+03 -0.39847163314E+02 -0.16642147945E+03  0.47217056593E+03  0.00000000000E+00 0. -1.
        -11    1    3    3    0    0  0.86829139627E+02 -0.17944225866E+02 -0.13229897969E+03  0.15926178059E+03  0.00000000000E+00 0. -1.
         11    1    3    3    0    0  0.54194873456E+02 -0.28875081925E+02 -0.29634483466E+01  0.61478749916E+02  0.00000000000E+00 0.  1.
         21    1    1    2  503  502  0.51790035413E+02  0.70943831061E+02 -0.37721129871E+03  0.38730298064E+03  0.00000000000E+00 0.  1.
          1    1    1    2  501    0  0.38252121828E+03  0.65420269724E+02 -0.50620831856E+02  0.39136269973E+03  0.00000000000E+00 0. -1.
<scales pt_clust_5="13000.00000" pt_clust_6="13000.00000" pt_clust_7="13000.00000" pt_clust_8="13000.00000" pt_clust_9="87.83641" pt_clust_10="452.31193"></scales>
<clustering>
<clus scale="   83.585">  5  6 -1 -1</clus>
<clus scale="   87.836">  2  9  1 -1</clus>
<clus scale="   91.382">  7  8 -1 -1</clus>
<clus scale="  180.133">  2  7  1 -1</clus>
<clus scale="  452.312">  1 10  2 -1</clus>
<clus scale="  452.312">  1  5  2 -1</clus>
</clustering>
</event>
<event>
10    4  0.2977685E-005  0.1488439E+03  0.7546771E-02  0.1212470E+00
         -1   -1    0    0    0  501 -0.00000000000E+00  0.00000000000E+00  0.35206286276E+03  0.35206286276E+03  0.00000000000E+00 0.  1.
         21   -1    0    0  503  502  0.00000000000E+00 -0.00000000000E+00 -0.18512446146E+03  0.18512446146E+03  0.00000000000E+00 0.  1.
         23    2    1    2    0    0  0.74019938660E+01  0.71658331448E+02  0.13597587093E+03  0.19592636846E+03  0.12127653691E+03 0.  0.
         24    2    1    2    0    0 -0.36520398191E+02 -0.98810286955E+02  0.75493999133E+02  0.15305799341E+03  0.81425998002E+02 0.  0.
        -13    1    4    4    0    0 -0.44561589658E+02 -0.10639761693E+03  0.50880274756E+02  0.12607533669E+03  0.00000000000E+00 0.  1.
         14    1    4    4    0    0  0.80411914671E+01  0.75873299754E+01  0.24613724377E+02  0.26982656727E+02  0.00000000000E+00 0. -1.
        -11    1    3    3    0    0  0.45565305017E+02 -0.13643807032E+02  0.43536585726E+02  0.64480887000E+02  0.00000000000E+00 0.  1.
         11    1    3    3    0    0 -0.38163311151E+02  0.85302138480E+02  0.92439285204E+02  0.13144548146E+03  0.00000000000E+00 0. -1.
         21    1    1    2  503  501 -0.21581965452E+02  0.56585081992E+01  0.63303810241E+02  0.67120580590E+02  0.00000000000E+00 0. -1.
         -2    1    1    2    0  502  0.50700369777E+02  0.21493447308E+02 -0.10783527901E+03  0.12108238176E+03  0.00000000000E+00 0.  1.
<scales pt_clust_5="13000.00000" pt_clust_6="13000.00000" pt_clust_7="13000.00000" pt_clust_8="13000.00000" pt_clust_9="22.31143" pt_clust_10="54.66119"></scales>
<clustering>
<clus scale="   22.311">  1  9  2 -1</clus>
<clus scale="   54.661">  2 10  1 -1</clus>
<clus scale="   81.426">  5  6 -1 -1</clus>
<clus scale="  118.645">  2  5  1 -1</clus>
<clus scale="  121.277">  7  8 -1 -1</clus>
<clus scale="   54.661">  2  5  1 -1</clus>
</clustering>
</event>
<event>
10    4  0.2977685E-005  0.1350567E+03  0.7546771E-02  0.1222612E+00
         21   -1    0    0  501  502  0.00000000000E+00  0.00000000000E+00  0.49137526214E+03  0.49137526214E+03  0.00000000000E+00 0. -1.
          2   -1    0    0  503    0 -0.00000000000E+00 -0.00000000000E+00 -0.16888954912E+03  0.16888954912E+03  0.00000000000E+00 0. -1.
         23    2    1    2    0    0 -0.10136627042E+03 -0.56896667028E+02  0.11982750712E+02  0.14804980380E+03  0.90899981261E+02 0.  0.
         24    2    1    2    0    0  0.67078472025E+02 -0.92014427583E+01  0.22319827273E+03  0.24671717550E+03  0.80422060291E+02 0.  0.
        -11    1    4    4    0    0  0.55080512829E+02 -0.45783663220E+00  0.54913930625E+02  0.77779253561E+02  0.00000000000E+00 0.  1.
         12    1    4    4    0    0  0.11997959196E+02 -0.87436061261E+01  0.16828434210E+03  0.16893792194E+03  0.00000000000E+00 0. -1.
        -11    1    3    3    0    0 -0.93693085001E+02 -0.10499328289E+02  0.28032695415E+02  0.98358843445E+02  0.00000000000E+00 0.  1.
         11    1    3    3    0    0 -0.76731854239E+01 -0.46397338739E+02 -0.16049944702E+02  0.49690960360E+02  0.00000000000E+00 0. -1.
         21    1    1    2  503  502 -0.88482355791E+01  0.31065371660E+02 -0.81560719556E+02  0.87723996510E+02  0.00000000000E+00 0. -1.
          1    1    1    2  501    0  0.43136033979E+02  0.35032738126E+02  0.16886540912E+03  0.17777383544E+03  0.00000000000E+00 0. -1.
<scales pt_clust_5="13000.00000" pt_clust_6="13000.00000" pt_clust_7="13000.00000" pt_clust_8="13000.00000" pt_clust_9="32.30091" pt_clust_10="56.26408"></scales>
<clustering>
<clus scale="   32.301">  2  9  1 -1</clus>
<clus scale="   56.264">  1 10  2 -1</clus>
<clus scale="   80.422">  5  6 -1 -1</clus>
<clus scale="   90.900">  7  8 -1 -1</clus>
<clus scale="  128.239">  1  5  2 -1</clus>
<clus scale="   56.264">  1  5  2 -1</clus>
</clustering>
</event>
<event>
10    4  0.2977685E-005  0.9249984E+02  0.7546771E-02  0.1304002E+00
         21   -1    0    0  503  502  0.00000000000E+00  0.00000000000E+00  0.16426485697E+03  0.16426485697E+03  0.00000000000E+00 0.  1.
         -1   -1    0    0    0  501 -0.00000000000E+00 -0.00000000000E+00 -0.12125761266E+03  0.12125761266E+03  0.00000000000E+00 0.  1.
         23    2    1    2    0    0 -0.18422687350E+00  0.14463788594E+02 -0.46089135534E+02  0.10397934444E+03  0.92077470292E+02 0.  0.
         24    2    1    2    0    0 -0.65319402466E+01  0.15784112727E+02  0.64528021542E+02  0.10471872270E+03  0.80686683295E+02 0.  0.
        -13    1    4    4    0    0 -0.43455587260E+02  0.76685698879E+01  0.28739689970E+02  0.52660847010E+02  0.00000000000E+00 0.  1.
         14    1    4    4    0    0  0.36923647013E+02  0.81155428391E+01  0.35788331571E+02  0.52057875687E+02  0.00000000000E+00 0. -1.
        -13    1    3    3    0    0  0.35186184827E+02  0.35553417200E+02 -0.35860578175E+02  0.61547495029E+02  0.00000000000E+00 0. -1.
         13    1    3    3    0    0 -0.35370411700E+02 -0.21089628607E+02 -0.10228557359E+02  0.42431849409E+02  0.00000000000E+00 0.  1.
         21    1    1    2  503  501 -0.21568398679E+02 -0.52641635681E+01 -0.11166472743E+02  0.24851506054E+02  0.00000000000E+00 0. -1.
         -2    1    1    2    0  502  0.28284565799E+02 -0.24983737752E+02  0.35734831051E+02  0.51972896444E+02  0.00000000000E+00 0.  1.
<scales pt_clust_5="13000.00000" pt_clust_6="13000.00000" pt_clust_7="13000.00000" pt_clust_8="13000.00000" pt_clust_9="22.20151" pt_clust_10="36.76944"></scales>
<clustering>
<clus scale="   22.202">  2  9  1 -1</clus>
<clus scale="   36.769">  1 10  2 -1</clus>
<clus scale="   80.687">  5  6 -1 -1</clus>
<clus scale="   81.168">  1  5  2 -1</clus>
<clus scale="   92.077">  7  8 -1 -1</clus>
<clus scale="   36.769">  1  5  2 -1</clus>
</clustering>
</event>
<event>
10    4  0.2977685E-005  0.1181791E+03  0.7546771E-02  0.1249678E+00
         21   -1    0    0  501  502  0.00000000000E+00  0.00000000000E+00  0.25137893368E+03  0.25137893368E+03  0.00000000000E+00 0. -1.
          2   -1    0    0  503    0 -0.00000000000E+00 -0.00000000000E+00 -0.45694600381E+03  0.45694600381E+03  0.00000000000E+00 0. -1.
         23    2    1    2    0    0 -0.50463141557E+02  0.37112524007E+02 -0.26550099960E+03  0.28791699590E+03  0.92095318256E+02 0.  0.
         24    2    1    2    0    0  0.51202887618E+02  0.13335881875E+02  0.22025844508E+03  0.24071508089E+03  0.81427182755E+02 0.  0.
        -13    1    4    4    0    0 -0.29305881806E+01  0.37208100095E+02  0.98762911192E+02  0.10558003451E+03  0.00000000000E+00 0.  1.
         14    1    4    4    0    0  0.54133475799E+02 -0.23872218220E+02  0.12149553389E+03  0.13513504638E+03  0.00000000000E+00 0. -1.
        -13    1    3    3    0    0 -0.18408793398E+02 -0.28614320544E+02 -0.51125707847E+02  0.61412547720E+02  0.00000000000E+00 0.  1.
         13    1    3    3    0    0 -0.32054348159E+02  0.65726844552E+02 -0.21437529175E+03  0.22650444818E+03  0.00000000000E+00 0. -1.
         21    1    1    2  503  502 -0.26988278704E+02 -0.50449223745E+01 -0.40907171457E+02  0.49266774867E+02  0.00000000000E+00 0.  1.
          1    1    1    2  501    0  0.26248532643E+02 -0.45403483508E+02 -0.11941734416E+03  0.13042608584E+03  0.00000000000E+00 0. -1.
<scales pt_clust_5="13000.00000" pt_clust_6="13000.00000" pt_clust_7="13000.00000" pt_clust_8="13000.00000" pt_clust_9="27.45575" pt_clust_10="50.28948"></scales>
<clustering>
<clus scale="   27.456">  2  9  1 -1</clus>
<clus scale="   50.289">  1 10  2 -1</clus>
<clus scale="   81.427">  5  6 -1 -1</clus>
<clus scale="   92.095">  7  8 -1 -1</clus>
<clus scale="  110.069">  1  5  2 -1</clus>
<clus scale="   50.289">  1  5  2 -1</clus>
</clustering>
</event>
<event>
10    4  0.2977685E-005  0.1931635E+03  0.7546771E-02  0.1156270E+00
         21   -1    0    0  503  502  0.00000000000E+00  0.00000000000E+00  0.13386177633E+03  0.13386177633E+03  0.00000000000E+00 0.  1.
         -3   -1    0    0    0  501 -0.00000000000E+00 -0.00000000000E+00 -0.41863677010E+03  0.41863677010E+03  0.00000000000E+00 0.  1.
         23    2    1    2    0    0 -0.17923390160E+03  0.45417540154E+02 -0.98840571022E+02  0.22891832159E+03  0.91905359169E+02 0.  0.
         24    2    1    2    0    0  0.15030156070E+03 -0.49749493065E+02 -0.85514961015E+02  0.19934053828E+03  0.85780361586E+02 0.  0.
        -11    1    4    4    0    0  0.39666688311E+02 -0.55001323783E+02 -0.45086437505E+02  0.81433277144E+02  0.00000000000E+00 0.  1.
         12    1    4    4    0    0  0.11063487239E+03  0.52518307181E+01 -0.40428523510E+02  0.11790726114E+03  0.00000000000E+00 0. -1.
        -13    1    3    3    0    0 -0.34466397760E+02 -0.18297542007E+02  0.55382093424E+01  0.39413251334E+02  0.00000000000E+00 0. -1.
         13    1    3    3    0    0 -0.14476750384E+03  0.63715082161E+02 -0.10437878036E+03  0.18950507026E+03  0.00000000000E+00 0.  1.
         21    1    1    2  503  501  0.34068231767E+02 -0.25072084318E+02 -0.68748214592E+02  0.80719085955E+02  0.00000000000E+00 0.  1.
         -4    1    1    2    0  502 -0.51358908690E+01  0.29404037230E+02 -0.31671247141E+02  0.43520600592E+02  0.00000000000E+00 0.  1.
<scales pt_clust_5="13000.00000" pt_clust_6="13000.00000" pt_clust_7="13000.00000" pt_clust_8="13000.00000" pt_clust_9="41.30196" pt_clust_10="29.84922"></scales>
<clustering>
<clus scale="   29.849">  1 10  2 -1</clus>
<clus scale="   41.302">  2  9  1 -1</clus>
<clus scale="   85.780">  5  6 -1 -1</clus>
<clus scale="   91.905">  7  8 -1 -1</clus>
<clus scale="  190.326">  1  5  2 -1</clus>
<clus scale="   29.849">  1  5  2 -1</clus>
</clustering>
</event>
<event>
10    4  0.2977685E-005  0.2136307E+03  0.7546771E-02  0.1168816E+00
         21   -1    0    0  501  502  0.00000000000E+00  0.00000000000E+00  0.75745323448E+03  0.75745323448E+03  0.00000000000E+00 0.  1.
          2   -1    0    0  503    0 -0.00000000000E+00 -0.00000000000E+00 -0.17739391593E+03  0.17739391593E+03  0.00000000000E+00 0. -1.
         24    2    1    2    0    0 -0.86747287875E+02 -0.10122395768E+02 -0.18572230107E+01  0.11885949238E+03  0.80601332512E+02 0.  0.
         23    2    1    2    0    0  0.74553414620E+02 -0.18047019434E+03  0.14981555233E+03  0.26333563972E+03  0.93665664741E+02 0.  0.
        -13    1    3    3    0    0 -0.54777634948E+02 -0.26418228725E+02 -0.34867732795E+02  0.70101860815E+02  0.00000000000E+00 0.  1.
         14    1    3    3    0    0 -0.31969652927E+02  0.16295832957E+02  0.33010509784E+02  0.48757631569E+02  0.00000000000E+00 0. -1.
        -11    1    4    4    0    0  0.29252608577E+02 -0.28648244737E+02 -0.56873118276E+01  0.41337423128E+02  0.00000000000E+00 0. -1.
         11    1    4    4    0    0  0.45300806043E+02 -0.15182194960E+03  0.15550286416E+03  0.22199821659E+03  0.00000000000E+00 0.  1.
         21    1    1    2  503  502  0.44777632408E+02  0.12756360724E+01 -0.28844430294E+02  0.53279121337E+02  0.00000000000E+00 0.  1.
          1    1    1    2  501    0 -0.32583759153E+02  0.18931695403E+03  0.46094541953E+03  0.49937289697E+03  0.00000000000E+00 0. -1.
<scales pt_clust_5="13000.00000" pt_clust_6="13000.00000" pt_clust_7="13000.00000" pt_clust_8="13000.00000" pt_clust_9="44.79580" pt_clust_10="192.00218"></scales>
<clustering>
<clus scale="   44.796">  2  9  1 -1</clus>
<clus scale="   80.601">  5  6 -1 -1</clus>
<clus scale="   93.666">  7  8 -1 -1</clus>
<clus scale="  105.198">  2  5  1 -1</clus>
<clus scale="  192.002">  1 10  2 -1</clus>
<clus scale="  192.002">  1  5  2 -1</clus>
</clustering>
</event>
<event>
10    4  0.2977685E-005  0.1223848E+03  0.7546771E-02  0.1240670E+00
          2   -1    0    0  503    0 -0.00000000000E+00  0.00000000000E+00  0.43390513774E+03  0.43390513774E+03  0.00000000000E+00 0. -1.
         21   -1    0    0  501  502  0.00000000000E+00 -0.00000000000E+00 -0.10583872927E+03  0.10583872927E+03  0.00000000000E+00 0. -1.
         23    2    1    2    0    0 -0.42751352106E+02 -0.74647647764E+02  0.20489963763E+03  0.23873424320E+03  0.87236620478E+02 0.  0.
         24    2    1    2    0    0  0.11987622079E+01  0.94278403002E+02  0.10771959841E+02  0.12552273782E+03  0.82158799215E+02 0.  0.
        -13    1    4    4    0    0  0.37776838691E+02  0.54749467917E+02  0.22842453633E+02  0.70330444806E+02  0.00000000000E+00 0.  1.
         14    1    4    4    0    0 -0.36578076483E+02  0.39528935084E+02 -0.12070493792E+02  0.55192293017E+02  0.00000000000E+00 0. -1.
        -11    1    3    3    0    0  0.25311579138E+02 -0.64601605492E+01  0.46531916823E+02  0.53363180153E+02  0.00000000000E+00 0.  1.
         11    1    3    3    0    0 -0.68062931244E+02 -0.68187487214E+02  0.15836772080E+03  0.18537106305E+03  0.00000000000E+00 0. -1.
         21    1    1    2  503  502 -0.45672367080E+02 -0.26227054119E+01  0.34250822953E+02  0.57148600782E+02  0.00000000000E+00 0.  1.
          1    1    1    2  501    0  0.87224956978E+02 -0.17008049826E+02  0.78143988041E+02  0.11833828521E+03  0.00000000000E+00 0. -1.
<scales pt_clust_5="13000.00000" pt_clust_6="13000.00000" pt_clust_7="13000.00000" pt_clust_8="13000.00000" pt_clust_9="45.74761" pt_clust_10="79.46645"></scales>
<clustering>
<clus scale="   45.748">  2  9  1 -1</clus>
<clus scale="   79.466">  2 10  1 -1</clus>
<clus scale="   82.159">  5  6 -1 -1</clus>
<clus scale="   87.237">  7  8 -1 -1</clus>
<clus scale="  118.819">  2  5  1 -1</clus>
<clus scale="   45.748">  2  5  1 -1</clus>
</clustering>
</event>
<event>
10    4  0.2977685E-005  0.1219757E+03  0.7546771E-02  0.1244975E+00
         -1   -1    0    0    0  501 -0.00000000000E+00  0.00000000000E+00  0.80361593832E+02  0.80361593832E+02  0.00000000000E+00 0.  1.
         21   -1    0    0  503  502  0.00000000000E+00 -0.00000000000E+00 -0.70581640618E+03  0.70581640618E+03  0.00000000000E+00 0. -1.
         23    2    1    2    0    0  0.43623988041E+02  0.79736009462E+02 -0.19092449036E+03  0.22997777706E+03  0.90425291745E+02 0.  0.
         24    2    1    2    0    0 -0.52350323058E+02 -0.50293884157E+02 -0.46555273035E+03  0.47687657006E+03  0.73497532124E+02 0.  0.
        -13    1    4    4    0    0 -0.47611232500E+02 -0.67518049493E+02 -0.33155070201E+03  0.34168901720E+03  0.00000000000E+00 0.  1.
         14    1    4    4    0    0 -0.47390905584E+01  0.17224165336E+02 -0.13400202834E+03  0.13518755286E+03  0.00000000000E+00 0. -1.
        -11    1    3    3    0    0  0.71612244296E+02  0.53294953172E+02 -0.14186174796E+03  0.16761092178E+03  0.00000000000E+00 0.  1.
         11    1    3    3    0    0 -0.27988256256E+02  0.26441056290E+02 -0.49062742402E+02  0.62366855284E+02  0.00000000000E+00 0. -1.
         21    1    1    2  503  501  0.30615378656E+02 -0.37097994026E+02  0.12641173107E+02  0.49732904888E+02  0.00000000000E+00 0. -1.
         -2    1    1    2    0  502 -0.21889043639E+02  0.76558687206E+01  0.18381235258E+02  0.29590747995E+02  0.00000000000E+00 0.  1.
<scales pt_clust_5="13000.00000" pt_clust_6="13000.00000" pt_clust_7="13000.00000" pt_clust_8="13000.00000" pt_clust_9="47.57516" pt_clust_10="23.18929"></scales>
<clustering>
<clus scale="   23.189">  2 10  1 -1</clus>
<clus scale="   47.575">  1  9  2 -1</clus>
<clus scale="   73.498">  5  6 -1 -1</clus>
<clus scale="   90.425">  7  8 -1 -1</clus>
<clus scale="  110.015">  2  5  1 -1</clus>
<clus scale="   23.189">  2  5  1 -1</clus>
</clustering>
</event>
<event>
10    4  0.2977685E-005  0.1855368E+03  0.7546771E-02  0.1163251E+00
         21   -1    0    0  503  502  0.00000000000E+00  0.00000000000E+00  0.23251065169E+03  0.23251065169E+03  0.00000000000E+00 0.  1.
         -1   -1    0    0    0  501 -0.00000000000E+00 -0.00000000000E+00 -0.51744856737E+03  0.51744856737E+03  0.00000000000E+00 0.  1.
         23    2    1    2    0    0  0.11104496008E+03  0.10786950665E+03 -0.20714625049E+03  0.27318839481E+03  0.88065409474E+02 0.  0.
         24    2    1    2    0    0 -0.12381563725E+03 -0.14428788876E+03 -0.16600472095E+03  0.26525914065E+03  0.81581477375E+02 0.  0.
        -11    1    4    4    0    0 -0.20728456283E+02 -0.14651792312E+02 -0.68523763775E+02  0.73074278099E+02  0.00000000000E+00 0.  1.
         12    1    4    4    0    0 -0.10308718097E+03 -0.12963609645E+03 -0.97480957174E+02  0.19218486255E+03  0.00000000000E+00 0. -1.
        -11    1    3    3    0    0  0.30868399128E+02  0.20537603621E+01 -0.93313159191E+02  0.98307790508E+02  0.00000000000E+00 0.  1.
         11    1    3    3    0    0  0.80176560948E+02  0.10581574628E+03 -0.11383309129E+03  0.17488060430E+03  0.00000000000E+00 0. -1.
         21    1    1    2  503  501 -0.48834091149E+01 -0.30697145718E+02 -0.48838577867E+02  0.57891010769E+02  0.00000000000E+00 0. -1.
         -2    1    1    2    0  502  0.17654086290E+02  0.67115527835E+02  0.13705163363E+03  0.15362067282E+03  0.00000000000E+00 0.  1.
<scales pt_clust_5="13000.00000" pt_clust_6="13000.00000" pt_clust_7="13000.00000" pt_clust_8="13000.00000" pt_clust_9="31.08315" pt_clust_10="68.84645"></scales>
<clustering>
<clus scale="   31.083">  2  9  1 -1</clus>
<clus scale="   68.846">  1 10  2 -1</clus>
<clus scale="   81.581">  5  6 -1 -1</clus>
<clus scale="   88.065">  7  8 -1 -1</clus>
<clus scale="  182.548">  1  5  2 -1</clus>
<clus scale="   68.846">  1  5  2 -1</clus>
</clustering>
</event>
<event>
10    4  0.2977685E-005  0.2341377E+03  0.7546771E-02  0.1125995E+00
         -3   -1    0    0    0  501 -0.00000000000E+00  0.00000000000E+00  0.48047614027E+03  0.48047614027E+03  0.00000000000E+00 0.  1.
         21   -1    0    0  503  502  0.00000000000E+00 -0.00000000000E+00 -0.32634456199E+03  0.32634456199E+03  0.00000000000E+00 0. -1.
         24    2    1    2    0    0  0.16888557586E+03 -0.11687686973E+03  0.11599904894E+03  0.24891662556E+03  0.79505765269E+02 0.  0.
         23    2    1    2    0    0 -0.18016723273E+03  0.14027081383E+03 -0.18973676509E+03  0.31655296233E+03  0.10986175390E+03 0.  0.
        -13    1    3    3    0    0 -0.86704279321E+00 -0.28402268073E+02  0.20155042925E+02  0.34837714480E+02  0.00000000000E+00 0.  1.
         14    1    3    3    0    0  0.16975261865E+03 -0.88474601662E+02  0.95844006018E+02  0.21407891108E+03  0.00000000000E+00 0. -1.
        -11    1    4    4    0    0  0.14932381725E+02  0.15539901519E+02 -0.20438988961E+02  0.29702135158E+02  0.00000000000E+00 0.  1.
         11    1    4    4    0    0 -0.19509961446E+03  0.12473091231E+03 -0.16929777613E+03  0.28685082718E+03  0.00000000000E+00 0. -1.
         21    1    1    2  503  501  0.45316100867E+01  0.25393166187E+02  0.44036059106E+02  0.51034526358E+02  0.00000000000E+00 0.  1.
         -4    1    1    2    0  502  0.67500467879E+01 -0.48787110285E+02  0.18383323532E+03  0.19031658800E+03  0.00000000000E+00 0.  1.
<scales pt_clust_5="13000.00000" pt_clust_6="13000.00000" pt_clust_7="13000.00000" pt_clust_8="13000.00000" pt_clust_9="25.79435" pt_clust_10="38.80440"></scales>
<clustering>
<clus scale="   25.794">  1  9  2 -1</clus>
<clus scale="   38.804">  2 10  1 -1</clus>
<clus scale="   79.506">  5  6 -1 -1</clus>
<clus scale="  109.862">  7  8 -1 -1</clus>
<clus scale="  221.522">  1  5  2 -1</clus>
<clus scale="   38.804">  2  5  1 -1</clus>
</clustering>
</event>
<event>
10    4  0.2977685E-005  0.1272045E+03  0.7546771E-02  0.1247173E+00
         21   -1    0    0  501  502  0.00000000000E+00  0.00000000000E+00  0.14415958190E+03  0.14415958190E+03  0.00000000000E+00 0.  1.
          2   -1    0    0  503    0 -0.00000000000E+00 -0.00000000000E+00 -0.32053650558E+03  0.32053650558E+03  0.00000000000E+00 0. -1.
         23    2    1    2    0    0  0.41858956267E+01 -0.13800180857E+02  0.53724399216E+02  0.10685595689E+03  0.91235506999E+02 0.  0.
         24    2    1    2    0    0  0.61265611711E+02 -0.55310702953E+02 -0.60868547135E+02  0.13144069295E+03  0.82212691810E+02 0.  0.
        -13    1    4    4    0    0 -0.15797388136E+02 -0.31852423252E+02 -0.23664517217E+02  0.42709995482E+02  0.00000000000E+00 0.  1.
         14    1    4    4    0    0  0.77062999846E+02 -0.23458279700E+02 -0.37204029918E+02  0.88730697473E+02  0.00000000000E+00 0. -1.
        -11    1    3    3    0    0  0.37676473715E+02 -0.36062057976E+02  0.30241990418E+02  0.60287367512E+02  0.00000000000E+00 0.  1.
         11    1    3    3    0    0 -0.33490578088E+02  0.22261877119E+02  0.23482408798E+02  0.46568589376E+02  0.00000000000E+00 0. -1.
         21    1    1    2  503  502  0.12853722034E+02 -0.24880225349E+02 -0.29301253614E+02  0.40531558653E+02  0.00000000000E+00 0.  1.
          1    1    1    2  501    0 -0.78305229371E+02  0.93991109159E+02 -0.13993152215E+03  0.18586787899E+03  0.00000000000E+00 0. -1.
<scales pt_clust_5="13000.00000" pt_clust_6="13000.00000" pt_clust_7="13000.00000" pt_clust_8="13000.00000" pt_clust_9="28.00435" pt_clust_10="97.06739"></scales>
<clustering>
<clus scale="   28.004">  2  9  1 -1</clus>
<clus scale="   82.213">  5  6 -1 -1</clus>
<clus scale="   91.236">  7  8 -1 -1</clus>
<clus scale="   92.804">  2  7  1 -1</clus>
<clus scale="   97.067">  1 10  2 -1</clus>
<clus scale="   97.067">  1  5  2 -1</clus>
</clustering>
</event>
<event>
10    4  0.2977685E-005  0.1091693E+03  0.7546771E-02  0.1266064E+00
         21   -1    0    0  501  502  0.00000000000E+00  0.00000000000E+00  0.34558689648E+02  0.34558689648E+02  0.00000000000E+00 0.  1.
          2   -1    0    0  503    0 -0.00000000000E+00 -0.00000000000E+00 -0.53927029259E+03  0.53927029259E+03  0.00000000000E+00 0. -1.
         23    2    1    2    0    0 -0.60948924323E+01 -0.56521775243E+02 -0.19246124927E+03  0.22025740274E+03  0.90775173921E+02 0.  0.
         24    2    1    2    0    0  0.39911783183E+02  0.56382928237E+02 -0.16847438772E+03  0.19923129172E+03  0.80854828234E+02 0.  0.
        -13    1    4    4    0    0  0.87121094115E+01  0.50689997188E+02 -0.35420623351E+02  0.62449957757E+02  0.00000000000E+00 0.  1.
         14    1    4    4    0    0  0.31199673772E+02  0.56929310492E+01 -0.13305376437E+03  0.13678133396E+03  0.00000000000E+00 0. -1.
        -13    1    3    3    0    0  0.41364457489E+02 -0.33438266922E+02 -0.80557142451E+02  0.96532840205E+02  0.00000000000E+00 0.  1.
         13    1    3    3    0    0 -0.47459349922E+02 -0.23083508322E+02 -0.11190410682E+03  0.12372456254E+03  0.00000000000E+00 0. -1.
         21    1    1    2  503  502 -0.23995422862E+02 -0.17565844298E+02 -0.48137973253E+02  0.56582715321E+02  0.00000000000E+00 0.  1.
          1    1    1    2  501    0 -0.98214678890E+01  0.17704691304E+02 -0.95637992701E+02  0.97757572461E+02  0.00000000000E+00 0. -1.
<scales pt_clust_5="13000.00000" pt_clust_6="13000.00000" pt_clust_7="13000.00000" pt_clust_8="13000.00000" pt_clust_9="29.52732" pt_clust_10="20.24643"></scales>
<clustering>
<clus scale="   20.246">  1 10  2 -1</clus>
<clus scale="   29.527">  1  9  2 -1</clus>
<clus scale="   80.855">  5  6 -1 -1</clus>
<clus scale="   90.775">  7  8 -1 -1</clus>
<clus scale="  101.071">  1  5  2 -1</clus>
<clus scale="   20.246">  1  5  2 -1</clus>
</clustering>
</event>
<event>
10    4  0.2977685E-005  0.1239630E+03  0.7546771E-02  0.1239866E+00
         21   -1    0    0  501  502  0.00000000000E+00  0.00000000000E+00  0.53352346247E+02  0.53352346247E+02  0.00000000000E+00 0. -1.
          2   -1    0    0  503    0 -0.00000000000E+00 -0.00000000000E+00 -0.12187861631E+04  0.12187861631E+04  0.00000000000E+00 0. -1.
         24    2    1    2    0    0 -0.91310207538E+02  0.92200263907E+02 -0.57899657664E+03  0.59880449786E+03  0.80568903598E+02 0.  0.
         23    2    1    2    0    0 -0.59164180328E+02 -0.97666941732E+02 -0.23504013358E+03  0.27682938393E+03  0.91386058401E+02 0.  0.
        -11    1    3    3    0    0 -0.15659839569E+02  0.14579405185E+02 -0.19640143545E+02  0.29043499606E+02  0.00000000000E+00 0.  1.
         12    1    3    3    0    0 -0.75650367969E+02  0.77620858722E+02 -0.55935643310E+03  0.56976099825E+03  0.00000000000E+00 0. -1.
        -11    1    4    4    0    0 -0.44179379394E+02 -0.29039333471E+02 -0.17995969881E+03  0.18756490516E+03  0.00000000000E+00 0.  1.
         11    1    4    4    0    0 -0.14984800934E+02 -0.68627608262E+02 -0.55080434771E+02  0.89264478765E+02  0.00000000000E+00 0. -1.
         21    1    1    2  503  502  0.54493092477E+02 -0.47444985701E+02 -0.16759296480E+03  0.18250459075E+03  0.00000000000E+00 0. -1.
          1    1    1    2  501    0  0.95981295389E+02  0.52911663526E+02 -0.18380414185E+03  0.21400003683E+03  0.00000000000E+00 0. -1.
<scales pt_clust_5="13000.00000" pt_clust_6="13000.00000" pt_clust_7="13000.00000" pt_clust_8="13000.00000" pt_clust_9="72.25319" pt_clust_10="115.05780"></scales>
<clustering>
<clus scale="   72.253">  2  9  1 -1</clus>
<clus scale="   80.569">  5  6 -1 -1</clus>
<clus scale="   91.386">  7  8 -1 -1</clus>
<clus scale="  115.058">  1 10  2 -1</clus>
<clus scale="  116.219">  2  5  1 -1</clus>
<clus scale="  115.058">  1  5  2 -1</clus>
</clustering>
</event>
<event>
10    4  0.2977685E-005  0.1058556E+03  0.7546771E-02  0.1270405E+00
         -1   -1    0    0    0  501 -0.00000000000E+00  0.00000000000E+00  0.64888080692E+03  0.64888080692E+03  0.00000000000E+00 0.  1.
         21   -1    0    0  503  502  0.00000000000E+00 -0.00000000000E+00 -0.55758888747E+02  0.55758888747E+02  0.00000000000E+00 0.  1.
         24    2    1    2    0    0 -0.27549463031E+02 -0.41463296370E+02  0.11033051281E+03  0.15294200137E+03  0.93489335580E+02 0.  0.
         23    2    1    2    0    0 -0.19613593921E+02  0.39856180134E+02  0.10667607910E+03  0.15137028792E+03  0.97775099337E+02 0.  0.
        -11    1    3    3    0    0 -0.56636490589E+02 -0.84689785096E+01  0.84047806652E+02  0.10170275053E+03  0.00000000000E+00 0.  1.
         12    1    3    3    0    0  0.29087027559E+02 -0.32994317860E+02  0.26282706159E+02  0.51239250837E+02  0.00000000000E+00 0. -1.
        -11    1    4    4    0    0 -0.33446072687E+02  0.47799020294E+01 -0.43980032993E+01  0.34070950597E+02  0.00000000000E+00 0.  1.
         11    1    4    4    0    0  0.13832478765E+02  0.35076278105E+02  0.11107408240E+03  0.11729933732E+03  0.00000000000E+00 0. -1.
         21    1    1    2  503  501 -0.35736914621E+02  0.30430984887E+02  0.16866747293E+03  0.17507680695E+03  0.00000000000E+00 0.  1.
         -2    1    1    2    0  502  0.82899971573E+02 -0.28823868651E+02  0.20744785332E+03  0.22525059942E+03  0.00000000000E+00 0.  1.
<scales pt_clust_5="13000.00000" pt_clust_6="13000.00000" pt_clust_7="13000.00000" pt_clust_8="13000.00000" pt_clust_9="46.93796" pt_clust_10="68.36223"></scales>
<clustering>
<clus scale="   46.938">  1  9  2 -1</clus>
<clus scale="   68.362">  2 10  1 -1</clus>
<clus scale="   93.489">  5  6 -1 -1</clus>
<clus scale="   97.775">  7  8 -1 -1</clus>
<clus scale="  101.910">  1  5  2 -1</clus>
<clus scale="   68.362">  2  5  1 -1</clus>
</clustering>
</event>
<event>
10    4  0.2977685E-005  0.1349500E+03  0.7546771E-02  0.1236187E+00
          2   -1    0    0  503    0 -0.00000000000E+00  0.00000000000E+00  0.45597050524E+03  0.45597050524E+03  0.00000000000E+00 0. -1.
         21   -1    0    0  501  502  0.00000000000E+00 -0.00000000000E+00 -0.28296672723E+03  0.28296672723E+03  0.00000000000E+00 0. -1.
         23    2    1    2    0    0 -0.34900110557E+02  0.49658604222E+01  0.21604035539E+03  0.23679426829E+03  0.90307324464E+02 0.  0.
         24    2    1    2    0    0 -0.59436292472E+02 -0.45227494050E+02 -0.10545382886E+03  0.15220280582E+03  0.80417566481E+02 0.  0.
        -11    1    4    4    0    0 -0.50247661245E+02 -0.67252507641E+02 -0.92990241533E+02  0.12527933694E+03  0.00000000000E+00 0.  1.
         12    1    4    4    0    0 -0.91886312269E+01  0.22025013591E+02 -0.12463587324E+02  0.26923468879E+02  0.00000000000E+00 0. -1.
        -11    1    3    3    0    0  0.15586515489E+02  0.34224184614E+02  0.68690220733E+02  0.78310795565E+02  0.00000000000E+00 0.  1.
         11    1    3    3    0    0 -0.50486626046E+02 -0.29258324192E+02  0.14735013465E+03  0.15848347272E+03  0.00000000000E+00 0. -1.
         21    1    1    2  503  502  0.10510442444E+03  0.83033511983E+02  0.17999312447E+03  0.22436360892E+03  0.00000000000E+00 0. -1.
          1    1    1    2  501    0 -0.10768021415E+02 -0.42771878354E+02 -0.11757587298E+03  0.12557654944E+03  0.00000000000E+00 0. -1.
<scales pt_clust_5="13000.00000" pt_clust_6="13000.00000" pt_clust_7="13000.00000" pt_clust_8="13000.00000" pt_clust_9="108.37217" pt_clust_10="44.10651"></scales>
<clustering>
<clus scale="   44.107">  2 10  1 -1</clus>
<clus scale="   80.418">  5  6 -1 -1</clus>
<clus scale="   90.307">  7  8 -1 -1</clus>
<clus scale="   97.093">  1  7  2 -1</clus>
<clus scale="  108.372">  1  9  2 -1</clus>
<clus scale="   44.107">  2  5  1 -1</clus>
</clustering>
</event>
<event>
10    4  0.2977685E-005  0.1314443E+03  0.7546771E-02  0.1228323E+00
         -1   -1    0    0    0  501 -0.00000000000E+00  0.00000000000E+00  0.37043874999E+03  0.37043874999E+03  0.00000000000E+00 0.  1.
         21   -1    0    0  503  502  0.00000000000E+00 -0.00000000000E+00 -0.22741833235E+03  0.22741833235E+03  0.00000000000E+00 0. -1.
         24    2    1    2    0    0 -0.88775395102E+02  0.97372359801E+01 -0.10933575676E+02  0.12146327324E+03  0.81595950444E+02 0.  0.
         23    2    1    2    0    0  0.12025580226E+03 -0.27323914616E+02 -0.79201682246E+02  0.17366290412E+03  0.93154943563E+02 0.  0.
        -11    1    3    3    0    0 -0.67521601037E+01 -0.24306247366E+02  0.14485246857E+02  0.29089649424E+02  0.00000000000E+00 0.  1.
         12    1    3    3    0    0 -0.82023234999E+02  0.34043483346E+02 -0.25418822533E+02  0.92373623816E+02  0.00000000000E+00 0. -1.
        -13    1    4    4    0    0  0.52140390596E+02 -0.58516021253E+02 -0.51530187104E+02  0.93798215642E+02  0.00000000000E+00 0.  1.
         13    1    4    4    0    0  0.68115411662E+02  0.31192106637E+02 -0.27671495143E+02  0.79864688478E+02  0.00000000000E+00 0. -1.
         21    1    1    2  503  501  0.75579541434E+02 -0.89177073900E+01  0.57761437550E+02  0.95541489712E+02  0.00000000000E+00 0.  1.
         -2    1    1    2    0  502 -0.10705994859E+03  0.26504386026E+02  0.17539423801E+03  0.20718941527E+03  0.00000000000E+00 0.  1.
<scales pt_clust_5="13000.00000" pt_clust_6="13000.00000" pt_clust_7="13000.00000" pt_clust_8="13000.00000" pt_clust_9="76.10383" pt_clust_10="61.43968"></scales>
<clustering>
<clus scale="   76.104">  1  9  2 -1</clus>
<clus scale="   61.440">  2 10  1 -1</clus>
<clus scale="   81.596">  5  6 -1 -1</clus>
<clus scale="   93.155">  7  8 -1 -1</clus>
<clus scale="  123.522">  1  5  2 -1</clus>
<clus scale="   61.440">  2  5  1 -1</clus>
</clustering>
</event>
<event>
10    4  0.2977685E-005  0.2612914E+03  0.7546771E-02  0.1107127E+00
         -3   -1    0    0    0  501 -0.00000000000E+00  0.00000000000E+00  0.53469199376E+03  0.53469199376E+03  0.00000000000E+00 0.  1.
         21   -1    0    0  503  502  0.00000000000E+00 -0.00000000000E+00 -0.81164501301E+03  0.81164501301E+03  0.00000000000E+00 0.  1.
         24    2    1    2    0    0  0.10235620681E+03  0.23688715026E+03  0.17688637451E+03  0.32345848041E+03  0.82123589969E+02 0.  0.
         23    2    1    2    0    0 -0.19470531157E+03 -0.24155307310E+03 -0.67602120938E+03  0.75007086702E+03  0.96662218834E+02 0.  0.
        -13    1    3    3    0    0  0.11556893780E+02  0.11730732982E+03  0.55038228820E+02  0.13009142191E+03  0.00000000000E+00 0.  1.
         14    1    3    3    0    0  0.90799313027E+02  0.11957982044E+03  0.12184814569E+03  0.19336705850E+03  0.00000000000E+00 0. -1.
        -11    1    4    4    0    0 -0.93691208063E+02 -0.14402571855E+03 -0.47286975809E+03  0.50311753914E+03  0.00000000000E+00 0.  1.
         11    1    4    4    0    0 -0.10101410351E+03 -0.97527354552E+02 -0.20315145129E+03  0.24695332789E+03  0.00000000000E+00 0. -1.
         21    1    1    2  503  501  0.30410828957E+02 -0.59491371589E+02  0.72637272530E+02  0.98692528451E+02  0.00000000000E+00 0.  1.
         -4    1    1    2    0  502  0.61938275809E+02  0.64157294434E+02  0.14954454308E+03  0.17411513089E+03  0.00000000000E+00 0.  1.
<scales pt_clust_5="13000.00000" pt_clust_6="13000.00000" pt_clust_7="13000.00000" pt_clust_8="13000.00000" pt_clust_9="66.81349" pt_clust_10="84.49191"></scales>
<clustering>
<clus scale="   66.813">  1  9  2 -1</clus>
<clus scale="   82.124">  5  6 -1 -1</clus>
<clus scale="   84.492">  2 10  1 -1</clus>
<clus scale="   96.662">  7  8 -1 -1</clus>
<clus scale="  256.269">  1  5  2 -1</clus>
<clus scale="   84.492">  2  5  1 -1</clus>
</clustering>
</event>
<event>
10    4  0.2977685E-005  0.4888989E+03  0.7546771E-02  0.1016882E+00
          2   -1    0    0  503    0 -0.00000000000E+00  0.00000000000E+00  0.13500750272E+04  0.13500750272E+04  0.00000000000E+00 0. -1.
         21   -1    0    0  501  502  0.00000000000E+00 -0.00000000000E+00 -0.54389450976E+03  0.54389450976E+03  0.00000000000E+00 0.  1.
         24    2    1    2    0    0 -0.11680173630E+03 -0.47392264994E+03  0.10965994256E+04  0.12029064951E+04  0.78793476259E+02 0.  0.
         23    2    1    2    0    0  0.98340822043E+02  0.44928527680E+03 -0.37043117849E+03  0.59777362313E+03  0.92659965908E+02 0.  0.
        -11    1    3    3    0    0 -0.45226297826E+01 -0.15043465644E+03  0.29296361964E+03  0.32936108220E+03  0.00000000000E+00 0.  1.
         12    1    3    3    0    0 -0.11227910652E+03 -0.32348799350E+03  0.80363580597E+03  0.87354541287E+03  0.00000000000E+00 0. -1.
        -11    1    4    4    0    0  0.73083114948E+02  0.43254147260E+03 -0.35052487220E+03  0.56151665446E+03  0.00000000000E+00 0.  1.
         11    1    4    4    0    0  0.25257707095E+02  0.16743804203E+02 -0.19906306294E+02  0.36256968670E+02  0.00000000000E+00 0. -1.
         21    1    1    2  503  502  0.23737148746E+02  0.14882939549E+01  0.33724425384E+02  0.41267470445E+02  0.00000000000E+00 0. -1.
          1    1    1    2  501    0 -0.52762344861E+01  0.23149079181E+02  0.46287844884E+02  0.52021948265E+02  0.00000000000E+00 0. -1.
<scales pt_clust_5="13000.00000" pt_clust_6="13000.00000" pt_clust_7="13000.00000" pt_clust_8="13000.00000" pt_clust_9="23.75771" pt_clust_10="23.74277"></scales>
<clustering>
<clus scale="   23.743">  2 10  1 -1</clus>
<clus scale="   23.758">  1  9  2 -1</clus>
<clus scale="   78.793">  5  6 -1 -1</clus>
<clus scale="   92.660">  7  8 -1 -1</clus>
<clus scale="  486.461">  1  5  2 -1</clus>
<clus scale="   23.743">  2  5  1 -1</clus>
</clustering>
</event>
<event>
10    4  0.2977685E-005  0.1617751E+03  0.7546771E-02  0.1200169E+00
         21   -1    0    0  503  502  0.00000000000E+00  0.00000000000E+00  0.37743763008E+03  0.37743763008E+03  0.00000000000E+00 0.  1.
         -1   -1    0    0    0  501 -0.00000000000E+00 -0.00000000000E+00 -0.45038751718E+03  0.45038751718E+03  0.00000000000E+00 0.  1.
         23    2    1    2    0    0  0.57214508627E+02  0.13564439114E+03 -0.13650506883E+03  0.22056788993E+03  0.91343633639E+02 0.  0.
         24    2    1    2    0    0 -0.64691028036E+02 -0.11027083776E+03  0.14238565458E+03  0.20725218334E+03  0.79594007936E+02 0.  0.
        -11    1    4    4    0    0 -0.68778290292E+02 -0.67071643215E+02  0.57612592690E+02  0.11201905809E+03  0.00000000000E+00 0.  1.
         12    1    4    4    0    0  0.40872622557E+01 -0.43199194545E+02  0.84773061889E+02  0.95233125246E+02  0.00000000000E+00 0. -1.
        -11    1    3    3    0    0  0.78385829758E+01  0.12164712708E+03 -0.97983382384E+02  0.15639760271E+03  0.00000000000E+00 0.  1.
         11    1    3    3    0    0  0.49375925651E+02  0.13997264059E+02 -0.38521686446E+02  0.64170287218E+02  0.00000000000E+00 0. -1.
         21    1    1    2  503  501 -0.93058475462E+02 -0.91554487974E+02 -0.19372677963E+03  0.23360686905E+03  0.00000000000E+00 0.  1.
         -2    1    1    2    0  502  0.10053499487E+03  0.66180934590E+02  0.11489630677E+03  0.16639820494E+03  0.00000000000E+00 0.  1.
<scales pt_clust_5="13000.00000" pt_clust_6="13000.00000" pt_clust_7="13000.00000" pt_clust_8="13000.00000" pt_clust_9="133.51971" pt_clust_10="120.36279"></scales>
<clustering>
<clus scale="   79.594">  5  6 -1 -1</clus>
<clus scale="   91.344">  7  8 -1 -1</clus>
<clus scale="  120.363">  1 10  2 -1</clus>
<clus scale="  120.363">  1  5  2 -1</clus>
<clus scale="  133.520">  2  9  1 -1</clus>
<clus scale="  120.363">  1  5  2 -1</clus>
</clustering>
</event>
<event>
10    4  0.2977685E-005  0.1489090E+03  0.7546771E-02  0.1207502E+00
         21   -1    0    0  501  502  0.00000000000E+00  0.00000000000E+00  0.50850223957E+02  0.50850223957E+02  0.00000000000E+00 0.  1.
          2   -1    0    0  503    0 -0.00000000000E+00 -0.00000000000E+00 -0.15196360339E+04  0.15196360339E+04  0.00000000000E+00 0. -1.
         24    2    1    2    0    0  0.11417515644E+03 -0.31125436719E+02 -0.61055079145E+03  0.62703438616E+03  0.79969327436E+02 0.  0.
         23    2    1    2    0    0 -0.14723739899E+03 -0.66532297870E+02 -0.28219509443E+03  0.34198048157E+03  0.10588286045E+03 0.  0.
        -13    1    3    3    0    0  0.87401424253E+02  0.15229951384E+02 -0.35287375187E+03  0.36385552784E+03  0.00000000000E+00 0.  1.
         14    1    3    3    0    0  0.26773732190E+02 -0.46355388103E+02 -0.25767703958E+03  0.26317885832E+03  0.00000000000E+00 0. -1.
        -13    1    4    4    0    0 -0.50631789356E+02 -0.61119576960E+02 -0.19947076141E+03  0.21468061263E+03  0.00000000000E+00 0.  1.
         13    1    4    4    0    0 -0.96605609633E+02 -0.54127209103E+01 -0.82724333015E+02  0.12729986894E+03  0.00000000000E+00 0. -1.
         21    1    1    2  503  502 -0.53655783118E+02  0.31526124497E+02 -0.16969585908E+03  0.18074712772E+03  0.00000000000E+00 0. -1.
          1    1    1    2  501    0  0.86718025664E+02  0.66131610092E+02 -0.40634406495E+03  0.42072426237E+03  0.00000000000E+00 0. -1.
<scales pt_clust_5="13000.00000" pt_clust_6="13000.00000" pt_clust_7="13000.00000" pt_clust_8="13000.00000" pt_clust_9="62.23214" pt_clust_10="103.34412"></scales>
<clustering>
<clus scale="   62.232">  2  9  1 -1</clus>
<clus scale="   79.969">  5  6 -1 -1</clus>
<clus scale="  103.344">  1 10  2 -1</clus>
<clus scale="  105.883">  7  8 -1 -1</clus>
<clus scale="  131.749">  2  5  1 -1</clus>
<clus scale="  103.344">  1  5  2 -1</clus>
</clustering>
</event>
<event>
10    4  0.2977685E-005  0.9548930E+02  0.7546771E-02  0.1296998E+00
          2   -1    0    0  503    0 -0.00000000000E+00  0.00000000000E+00  0.24733717653E+03  0.24733717653E+03  0.00000000000E+00 0. -1.
         21   -1    0    0  501  502  0.00000000000E+00 -0.00000000000E+00 -0.13415981953E+03  0.13415981953E+03  0.00000000000E+00 0.  1.
         24    2    1    2    0    0  0.12894677885E+02 -0.38927359485E+02  0.73107986657E+02  0.11646304720E+03  0.80853272144E+02 0.  0.
         23    2    1    2    0    0 -0.47352579233E+02 -0.12101288191E+02 -0.53533829835E+02  0.11774423500E+03  0.92785376013E+02 0.  0.
        -13    1    3    3    0    0  0.31392742648E+02 -0.55005392537E+02  0.64735326296E+02  0.90563568668E+02  0.00000000000E+00 0.  1.
         14    1    3    3    0    0 -0.18498064764E+02  0.16078033053E+02  0.83726603616E+01  0.25899478535E+02  0.00000000000E+00 0. -1.
        -13    1    4    4    0    0 -0.73443439750E+02 -0.21947098563E+02 -0.43313539722E+02  0.88043606814E+02  0.00000000000E+00 0.  1.
         13    1    4    4    0    0  0.26090860517E+02  0.98458103713E+01 -0.10220290113E+02  0.29700628181E+02  0.00000000000E+00 0. -1.
         21    1    1    2  503  502  0.19949954524E+01  0.65316674786E+02  0.90582075067E+02  0.11169315259E+03  0.00000000000E+00 0. -1.
          1    1    1    2  501    0  0.32462905896E+02 -0.14288027110E+02  0.30211251117E+01  0.35596561278E+02  0.00000000000E+00 0. -1.
<scales pt_clust_5="13000.00000" pt_clust_6="13000.00000" pt_clust_7="13000.00000" pt_clust_8="13000.00000" pt_clust_9="64.22452" pt_clust_10="35.46813"></scales>
<clustering>
<clus scale="   35.468">  2 10  1 -1</clus>
<clus scale="   64.225">  1  9  2 -1</clus>
<clus scale="   80.853">  5  6 -1 -1</clus>
<clus scale="   83.942">  1  5  2 -1</clus>
<clus scale="   92.785">  7  8 -1 -1</clus>
<clus scale="   35.468">  2  5  1 -1</clus>
</clustering>
</event>
<event>
10    4  0.2977685E-005  0.9116712E+02  0.7546771E-02  0.1308648E+00
          2   -1    0    0  502    0 -0.00000000000E+00  0.00000000000E+00  0.53161105018E+03  0.53161105018E+03  0.00000000000E+00 0. -1.
         21   -1    0    0  503  502  0.00000000000E+00 -0.00000000000E+00 -0.28512695553E+02  0.28512695553E+02  0.00000000000E+00 0. -1.
         24    2    1    2    0    0 -0.27081118299E+01  0.10599429012E+02  0.27690966036E+03  0.28769021531E+03  0.77246477073E+02 0.  0.
         23    2    1    2    0    0 -0.38645973675E+02  0.89104388612E+01  0.15220379814E+03  0.18152399256E+03  0.90620397838E+02 0.  0.
        -13    1    3    3    0    0 -0.24250506525E+02 -0.17378586979E+02  0.51386711829E+02  0.59419664293E+02  0.00000000000E+00 0.  1.
         14    1    3    3    0    0  0.21542394695E+02  0.27978015991E+02  0.22552294853E+03  0.22827055102E+03  0.00000000000E+00 0. -1.
        -13    1    4    4    0    0  0.16623046010E+02 -0.26129192003E+02  0.31212115950E+02  0.43968812987E+02  0.00000000000E+00 0.  1.
         13    1    4    4    0    0 -0.55269019685E+02  0.35039630864E+02  0.12099168219E+03  0.13755517957E+03  0.00000000000E+00 0. -1.
         21    1    1    2  503  501  0.11864630851E+02 -0.19828264933E+02  0.28337841524E+02  0.36564502154E+02  0.00000000000E+00 0. -1.
          1    1    1    2  501    0  0.29489454653E+02  0.31839706029E+00  0.45647054606E+02  0.54345035713E+02  0.00000000000E+00 0. -1.
<scales pt_clust_5="13000.00000" pt_clust_6="13000.00000" pt_clust_7="13000.00000" pt_clust_8="13000.00000" pt_clust_9="23.10692" pt_clust_10="31.76742"></scales>
<clustering>
<clus scale="   23.107">  2  9  1 -1</clus>
<clus scale="   31.767">  2 10  1 -1</clus>
<clus scale="   77.246">  5  6 -1 -1</clus>
<clus scale="   77.887">  1  5  2 -1</clus>
<clus scale="   90.620">  7  8 -1 -1</clus>
<clus scale="   23.107">  2  5  1 -1</clus>
</clustering>
</event>
<event>
10    4  0.2977685E-005  0.1517230E+03  0.7546771E-02  0.1204841E+00
         21   -1    0    0  501  502  0.00000000000E+00  0.00000000000E+00  0.26113021752E+03  0.26113021752E+03  0.00000000000E+00 0.  1.
          2   -1    0    0  503    0 -0.00000000000E+00 -0.00000000000E+00 -0.36160618533E+03  0.36160618533E+03  0.00000000000E+00 0. -1.
         24    2    1    2    0    0 -0.10686704725E+03  0.97389688432E+01  0.47243624193E+02  0.14337339507E+03  0.82513981140E+02 0.  0.
         23    2    1    2    0    0 -0.24595773231E+02 -0.11086292602E+03  0.80120150335E+02  0.16607563544E+03  0.90919402607E+02 0.  0.
        -13    1    3    3    0    0 -0.73331345511E+02 -0.30484623632E+02  0.12166833011E+02  0.80341958764E+02  0.00000000000E+00 0.  1.
         14    1    3    3    0    0 -0.33535701742E+02  0.40223592475E+02  0.35076791182E+02  0.63031436304E+02  0.00000000000E+00 0. -1.
        -13    1    4    4    0    0 -0.33579582180E+02 -0.47655064615E+02  0.83849037996E+02  0.10212372249E+03  0.00000000000E+00 0.  1.
         13    1    4    4    0    0  0.89838089493E+01 -0.63207861401E+02 -0.37288876604E+01  0.63951912945E+02  0.00000000000E+00 0. -1.
         21    1    1    2  503  502  0.24417490674E+02 -0.32350458451E+02 -0.67895663479E+02  0.79073302271E+02  0.00000000000E+00 0.  1.
          1    1    1    2  501    0  0.10704532981E+03  0.13347441562E+03 -0.15994407886E+03  0.23421407008E+03  0.00000000000E+00 0. -1.
<scales pt_clust_5="13000.00000" pt_clust_6="13000.00000" pt_clust_7="13000.00000" pt_clust_8="13000.00000" pt_clust_9="40.53105" pt_clust_10="121.46413"></scales>
<clustering>
<clus scale="   40.531">  2  9  1 -1</clus>
<clus scale="   82.514">  5  6 -1 -1</clus>
<clus scale="   90.919">  7  8 -1 -1</clus>
<clus scale="  131.886">  2  5  1 -1</clus>
<clus scale="  121.464">  1 10  2 -1</clus>
<clus scale="  121.464">  1  5  2 -1</clus>
</clustering>
</event>
<event>
10    4  0.2977685E-005  0.1652921E+03  0.7546771E-02  0.1184750E+00
          2   -1    0    0  503    0 -0.00000000000E+00  0.00000000000E+00  0.40304231795E+03  0.40304231795E+03  0.00000000000E+00 0. -1.
         21   -1    0    0  501  502  0.00000000000E+00 -0.00000000000E+00 -0.30457177208E+03  0.30457177208E+03  0.00000000000E+00 0. -1.
         24    2    1    2    0    0  0.60725184807E+02 -0.70543380639E+02  0.90299831394E+02  0.16582531613E+03  0.10334437236E+03 0.  0.
         23    2    1    2    0    0  0.17838441752E+02  0.23301232128E+03 -0.13478069165E+03  0.28501601521E+03  0.91952934765E+02 0.  0.
        -11    1    3    3    0    0 -0.11263967970E+02 -0.64209855430E+02  0.55500499823E+02  0.85615933034E+02  0.00000000000E+00 0.  1.
         12    1    3    3    0    0  0.71989152777E+02 -0.63335252099E+01  0.34799331571E+02  0.80209383098E+02  0.00000000000E+00 0. -1.
        -13    1    4    4    0    0  0.73932804922E+01  0.18844183824E+02  0.13486762706E+02  0.24323992861E+02  0.00000000000E+00 0.  1.
         13    1    4    4    0    0  0.10445161260E+02  0.21416813746E+03 -0.14826745435E+03  0.26069202235E+03  0.00000000000E+00 0. -1.
         21    1    1    2  503  502 -0.68404680083E+02 -0.69570463975E+02  0.15591161557E+02  0.98804524358E+02  0.00000000000E+00 0. -1.
          1    1    1    2  501    0 -0.10158946476E+02 -0.92898476668E+02  0.12736024456E+03  0.15796823433E+03  0.00000000000E+00 0. -1.
<scales pt_clust_5="13000.00000" pt_clust_6="13000.00000" pt_clust_7="13000.00000" pt_clust_8="13000.00000" pt_clust_9="108.43909" pt_clust_10="93.45234"></scales>
<clustering>
<clus scale="   91.953">  7  8 -1 -1</clus>
<clus scale="   93.452">  2 10  1 -1</clus>
<clus scale="  103.344">  5  6 -1 -1</clus>
<clus scale="  108.439">  1  9  2 -1</clus>
<clus scale="  158.420">  2  7  1 -1</clus>
<clus scale="   93.452">  2  5  1 -1</clus>
</clustering>
</event>
<event>
10    4  0.2977685E-005  0.3690936E+03  0.7546771E-02  0.1055242E+00
          2   -1    0    0  503    0 -0.00000000000E+00  0.00000000000E+00  0.18220041468E+04  0.18220041468E+04  0.00000000000E+00 0. -1.
         21   -1    0    0  501  502  0.00000000000E+00 -0.00000000000E+00 -0.11885065376E+03  0.11885065376E+03  0.00000000000E+00 0. -1.
         23    2    1    2    0    0  0.20881746721E+03 -0.26236624912E+03  0.63848865309E+03  0.72687437748E+03  0.90762421887E+02 0.  0.
         24    2    1    2    0    0 -0.17031360771E+03  0.35519266349E+03  0.60835994624E+03  0.72935626399E+03  0.81793535620E+02 0.  0.
        -11    1    4    4    0    0 -0.13280953528E+03  0.24065589532E+03  0.48108972868E+03  0.55407667309E+03  0.00000000000E+00 0.  1.
         12    1    4    4    0    0 -0.37504072430E+02  0.11453676817E+03  0.12727021756E+03  0.17527959091E+03  0.00000000000E+00 0. -1.
        -11    1    3    3    0    0 -0.77851295729E+01 -0.22413966788E+02  0.35409689024E+02  0.42624408810E+02  0.00000000000E+00 0.  1.
         11    1    3    3    0    0  0.21660259678E+03 -0.23995228233E+03  0.60307896406E+03  0.68424996867E+03  0.00000000000E+00 0. -1.
         21    1    1    2  503  502 -0.54814486594E+02 -0.32019832080E+02  0.38198188577E+03  0.38722094293E+03  0.00000000000E+00 0. -1.
          1    1    1    2  501    0  0.16310627099E+02 -0.60806582287E+02  0.74323007916E+02  0.97403216125E+02  0.00000000000E+00 0. -1.
<scales pt_clust_5="13000.00000" pt_clust_6="13000.00000" pt_clust_7="13000.00000" pt_clust_8="13000.00000" pt_clust_9="63.90357" pt_clust_10="62.95615"></scales>
<clustering>
<clus scale="   62.956">  2 10  1 -1</clus>
<clus scale="   63.904">  1  9  2 -1</clus>
<clus scale="   81.794">  5  6 -1 -1</clus>
<clus scale="   90.762">  7  8 -1 -1</clus>
<clus scale="  366.991">  2  5  1 -1</clus>
<clus scale="   62.956">  2  5  1 -1</clus>
</clustering>
</event>
<event>
10    4  0.2977685E-005  0.1383690E+03  0.7546771E-02  0.1217514E+00
         21   -1    0    0  501  502  0.00000000000E+00  0.00000000000E+00  0.33977869875E+02  0.33977869875E+02  0.00000000000E+00 0.  1.
          2   -1    0    0  503    0 -0.00000000000E+00 -0.00000000000E+00 -0.11207408607E+04  0.11207408607E+04  0.00000000000E+00 0. -1.
         23    2    1    2    0    0  0.14457100746E+03 -0.17022042104E+02 -0.42005132456E+03  0.45350649079E+03  0.89635349113E+02 0.  0.
         24    2    1    2    0    0 -0.69918823522E+02  0.22913636301E+02 -0.32966301111E+03  0.34726696864E+03  0.80640994536E+02 0.  0.
        -11    1    4    4    0    0 -0.35895179488E+02  0.20705779742E+02 -0.47432268395E+02  0.62984230648E+02  0.00000000000E+00 0.  1.
         12    1    4    4    0    0 -0.34023644033E+02  0.22078565584E+01 -0.28223074272E+03  0.28428273799E+03  0.00000000000E+00 0. -1.
        -13    1    3    3    0    0  0.90923145039E+02  0.10789022433E+02 -0.34609748124E+03  0.35800403326E+03  0.00000000000E+00 0.  1.
         13    1    3    3    0    0  0.53647862421E+02 -0.27811064537E+02 -0.73953843318E+02  0.95502457531E+02  0.00000000000E+00 0. -1.
         21    1    1    2  503  502 -0.58860457433E+02  0.30502192531E+02 -0.24278675013E+03  0.25167507472E+03  0.00000000000E+00 0. -1.
          1    1    1    2  501    0 -0.15791726504E+02 -0.36393786728E+02 -0.94261905065E+02  0.10227019646E+03  0.00000000000E+00 0. -1.
<scales pt_clust_5="13000.00000" pt_clust_6="13000.00000" pt_clust_7="13000.00000" pt_clust_8="13000.00000" pt_clust_9="66.15125" pt_clust_10="39.67224"></scales>
<clustering>
<clus scale="   39.672">  1 10  2 -1</clus>
<clus scale="   66.151">  2  9  1 -1</clus>
<clus scale="   80.641">  5  6 -1 -1</clus>
<clus scale="   89.635">  7  8 -1 -1</clus>
<clus scale="  132.719">  1  5  2 -1</clus>
<clus scale="   39.672">  1  5  2 -1</clus>
</clustering>
</event>
<event>
10    4  0.2977685E-005  0.3004357E+03  0.7546771E-02  0.1128558E+00
         21   -1    0    0  501  502  0.00000000000E+00  0.00000000000E+00  0.40858182262E+03  0.40858182262E+03  0.00000000000E+00 0. -1.
          2   -1    0    0  503    0 -0.00000000000E+00 -0.00000000000E+00 -0.79284667673E+03  0.79284667673E+03  0.00000000000E+00 0. -1.
         24    2    1    2    0    0  0.54755269352E+02 -0.11214902326E+02 -0.21708265728E+02  0.10079023679E+03  0.81015489111E+02 0.  0.
         23    2    1    2    0    0  0.15784837710E+03 -0.16809927710E+03  0.55505106803E+02  0.25438967095E+03  0.91977229199E+02 0.  0.
        -13    1    3    3    0    0  0.35729012476E+02  0.26946221087E+02  0.12116567555E+02  0.46362402577E+02  0.00000000000E+00 0.  1.
         14    1    3    3    0    0  0.19026256876E+02 -0.38161123413E+02 -0.33824833283E+02  0.54427834217E+02  0.00000000000E+00 0. -1.
        -13    1    4    4    0    0  0.50233864178E+02 -0.11458494028E+03  0.87110311661E+01  0.12541543650E+03  0.00000000000E+00 0.  1.
         13    1    4    4    0    0  0.10761451292E+03 -0.53514336820E+02  0.46794075637E+02  0.12897423445E+03  0.00000000000E+00 0. -1.
         21    1    1    2  503  502  0.15326107739E+03 -0.26591873078E+02 -0.39644108701E+03  0.42586573121E+03  0.00000000000E+00 0. -1.
          1    1    1    2  501    0 -0.36586472384E+03  0.20590605251E+03 -0.21620608183E+02  0.42038286039E+03  0.00000000000E+00 0. -1.
<scales pt_clust_5="13000.00000" pt_clust_6="13000.00000" pt_clust_7="13000.00000" pt_clust_8="13000.00000" pt_clust_9="186.94993" pt_clust_10="286.01031"></scales>
<clustering>
<clus scale="   81.015">  5  6 -1 -1</clus>
<clus scale="   91.977">  7  8 -1 -1</clus>
<clus scale="   98.425">  2  5  1 -1</clus>
<clus scale="  186.950">  2  9  1 -1</clus>
<clus scale="  286.010">  1 10  2 -1</clus>
<clus scale="  286.010">  1  5  2 -1</clus>
</clustering>
</event>
<event>
10    4  0.2977685E-005  0.8988848E+02  0.7546771E-02  0.1308448E+00
          2   -1    0    0  503    0 -0.00000000000E+00  0.00000000000E+00  0.44780755408E+03  0.44780755408E+03  0.00000000000E+00 0. -1.
         21   -1    0    0  501  502  0.00000000000E+00 -0.00000000000E+00 -0.78232642857E+02  0.78232642857E+02  0.00000000000E+00 0. -1.
         23    2    1    2    0    0  0.17880579413E+02  0.17596323013E+02  0.27502675210E+03  0.29023202153E+03  0.89250020993E+02 0.  0.
         24    2    1    2    0    0  0.45590060249E+02  0.15310846524E+02  0.59699027779E+02  0.11141580362E+03  0.80849438858E+02 0.  0.
        -13    1    4    4    0    0  0.21726570323E+01 -0.30718982315E+02  0.19693391010E+02  0.36554151098E+02  0.00000000000E+00 0.  1.
         14    1    4    4    0    0  0.43417403216E+02  0.46029828839E+02  0.40005636769E+02  0.74861652522E+02  0.00000000000E+00 0. -1.
        -13    1    3    3    0    0 -0.33940925311E+02 -0.61174348919E+01  0.81711994002E+02  0.88691935284E+02  0.00000000000E+00 0.  1.
         13    1    3    3    0    0  0.51821504724E+02  0.23713757904E+02  0.19331475810E+03  0.20154008625E+03  0.00000000000E+00 0. -1.
         21    1    1    2  503  502 -0.54992614823E+02 -0.94740270703E+01  0.64743841976E+02  0.85473445864E+02  0.00000000000E+00 0. -1.
          1    1    1    2  501    0 -0.84780248387E+01 -0.23433142466E+02 -0.29894710634E+02  0.38918925921E+02  0.00000000000E+00 0. -1.
<scales pt_clust_5="13000.00000" pt_clust_6="13000.00000" pt_clust_7="13000.00000" pt_clust_8="13000.00000" pt_clust_9="58.94246" pt_clust_10="24.91965"></scales>
<clustering>
<clus scale="   24.920">  2 10  1 -1</clus>
<clus scale="   58.942">  2  9  1 -1</clus>
<clus scale="   80.849">  5  6 -1 -1</clus>
<clus scale="   81.554">  2  5  1 -1</clus>
<clus scale="   89.250">  7  8 -1 -1</clus>
<clus scale="   24.920">  2  5  1 -1</clus>
</clustering>
</event>
<event>
10    4  0.2977685E-005  0.1800913E+03  0.7546771E-02  0.1170051E+00
         21   -1    0    0  501  502  0.00000000000E+00  0.00000000000E+00  0.37268717896E+03  0.37268717896E+03  0.00000000000E+00 0. -1.
          2   -1    0    0  503    0 -0.00000000000E+00 -0.00000000000E+00 -0.68169074641E+03  0.68169074641E+03  0.00000000000E+00 0. -1.
         23    2    1    2    0    0 -0.18854426047E+03 -0.19557573067E+03 -0.32779990839E+03  0.43704811150E+03  0.98790015898E+02 0.  0.
         24    2    1    2    0    0  0.66444122761E+02  0.10317012811E+03  0.16796338912E+03  0.22301675014E+03  0.80410658346E+02 0.  0.
        -11    1    4    4    0    0  0.65572419670E+02  0.88859652200E+02  0.86437638709E+02  0.14023995649E+03  0.00000000000E+00 0.  1.
         12    1    4    4    0    0  0.87170309104E+00  0.14310475906E+02  0.81525750415E+02  0.82776793654E+02  0.00000000000E+00 0. -1.
        -13    1    3    3    0    0 -0.19794052633E+03 -0.17675504468E+03 -0.28537515483E+03  0.38969446593E+03  0.00000000000E+00 0. -1.
         13    1    3    3    0    0  0.93962658692E+01 -0.18820685992E+02 -0.42424753564E+02  0.47353645567E+02  0.00000000000E+00 0.  1.
         21    1    1    2  503  502  0.11147385624E+03  0.71079710898E+02 -0.25424660827E+03  0.28656601987E+03  0.00000000000E+00 0.  1.
          1    1    1    2  501    0  0.10626281462E+02  0.21325891669E+02  0.10507956009E+03  0.10774704387E+03  0.00000000000E+00 0. -1.
<scales pt_clust_5="13000.00000" pt_clust_6="13000.00000" pt_clust_7="13000.00000" pt_clust_8="13000.00000" pt_clust_9="133.44887" pt_clust_10="23.82670"></scales>
<clustering>
<clus scale="   23.827">  1 10  2 -1</clus>
<clus scale="   80.411">  5  6 -1 -1</clus>
<clus scale="   98.790">  7  8 -1 -1</clus>
<clus scale="  133.449">  2  9  1 -1</clus>
<clus scale="  170.702">  1  5  2 -1</clus>
<clus scale="   23.827">  1  5  2 -1</clus>
</clustering>
</event>
<event>
10    4  0.2977685E-005  0.1154166E+03  0.7546771E-02  0.1255292E+00
         21   -1    0    0  503  502  0.00000000000E+00  0.00000000000E+00  0.40196938472E+03  0.40196938472E+03  0.00000000000E+00 0. -1.
         -1   -1    0    0    0  501 -0.00000000000E+00 -0.00000000000E+00 -0.11501482938E+03  0.11501482938E+03  0.00000000000E+00 0.  1.
         24    2    1    2    0    0 -0.56994509521E+01 -0.54690922059E+02  0.30410734777E+02  0.10236625184E+03  0.80811237025E+02 0.  0.
         23    2    1    2    0    0  0.45209918109E+02  0.83121626992E+02  0.18340545061E+03  0.22643950027E+03  0.93188767563E+02 0.  0.
        -11    1    3    3    0    0  0.32175290255E+02 -0.50147705418E+02  0.19450565069E+02  0.62676679420E+02  0.00000000000E+00 0.  1.
         12    1    3    3    0    0 -0.37874741207E+02 -0.45432166414E+01  0.10960169708E+02  0.39689572421E+02  0.00000000000E+00 0. -1.
        -13    1    4    4    0    0 -0.18826294574E+02  0.80913051829E+01  0.83749938215E+02  0.86220361504E+02  0.00000000000E+00 0. -1.
         13    1    4    4    0    0  0.64036212683E+02  0.75030321809E+02  0.99655512395E+02  0.14021913877E+03  0.00000000000E+00 0.  1.
         21    1    1    2  503  501 -0.20502541990E+02 -0.43857081524E+01 -0.53721728666E+02  0.57668126334E+02  0.00000000000E+00 0.  1.
         -2    1    1    2    0  502 -0.19007925168E+02 -0.24044996780E+02  0.12686009863E+03  0.13051033566E+03  0.00000000000E+00 0.  1.
<scales pt_clust_5="13000.00000" pt_clust_6="13000.00000" pt_clust_7="13000.00000" pt_clust_8="13000.00000" pt_clust_9="20.96637" pt_clust_10="31.15043"></scales>
<clustering>
<clus scale="   20.966">  2  9  1 -1</clus>
<clus scale="   31.150">  1 10  2 -1</clus>
<clus scale="   80.811">  5  6 -1 -1</clus>
<clus scale="   93.189">  7  8 -1 -1</clus>
<clus scale="  105.675">  2  5  1 -1</clus>
<clus scale="   31.150">  1  5  2 -1</clus>
</clustering>
</event>
<event>
10    4  0.2977685E-005  0.1648293E+03  0.7546771E-02  0.1196982E+00
          2   -1    0    0  502    0 -0.00000000000E+00  0.00000000000E+00  0.14566479379E+04  0.14566479379E+04  0.00000000000E+00 0. -1.
         21   -1    0    0  503  502  0.00000000000E+00 -0.00000000000E+00 -0.34972610563E+02  0.34972610563E+02  0.00000000000E+00 0. -1.
         23    2    1    2    0    0  0.78422344766E+02 -0.20069843335E+02  0.42400637332E+03  0.44120112503E+03  0.91236863927E+02 0.  0.
         24    2    1    2    0    0 -0.15867903977E+03 -0.68278632357E+02  0.43228087610E+03  0.47173559188E+03  0.76332846841E+02 0.  0.
        -11    1    4    4    0    0 -0.30101060597E+02  0.14305647374E+02  0.50491129255E+02  0.60498591135E+02  0.00000000000E+00 0.  1.
         12    1    4    4    0    0 -0.12857797917E+03 -0.82584279730E+02  0.38178974684E+03  0.41123700074E+03  0.00000000000E+00 0. -1.
        -11    1    3    3    0    0  0.60646057172E+02 -0.41229922365E+02  0.39249886013E+03  0.39929087888E+03  0.00000000000E+00 0.  1.
         11    1    3    3    0    0  0.17776287594E+02  0.21160079031E+02  0.31507513191E+02  0.41910246154E+02  0.00000000000E+00 0. -1.
         21    1    1    2  503  501  0.21981797402E+02  0.44008852976E+02  0.26253075728E+03  0.26709993837E+03  0.00000000000E+00 0. -1.
          1    1    1    2  501    0  0.58274897597E+02  0.44339622716E+02  0.30285732066E+03  0.31158389321E+03  0.00000000000E+00 0. -1.
<scales pt_clust_5="13000.00000" pt_clust_6="13000.00000" pt_clust_7="13000.00000" pt_clust_8="13000.00000" pt_clust_9="25.45774" pt_clust_10="149.35437"></scales>
<clustering>
<clus scale="   25.458">  9 10 -1 -1</clus>
<clus scale="   76.333">  5  6 -1 -1</clus>
<clus scale="   91.237">  7  8 -1 -1</clus>
<clus scale="  121.971">  1  7  2 -1</clus>
<clus scale="  149.354">  2  9  1 -1</clus>
<clus scale="  149.354">  2  5  1 -1</clus>
</clustering>
</event>
<event>
10    4  0.2977685E-005  0.1079028E+03  0.7546771E-02  0.1270398E+00
         21   -1    0    0  503  502  0.00000000000E+00  0.00000000000E+00  0.68635714561E+02  0.68635714561E+02  0.00000000000E+00 0. -1.
         -1   -1    0    0    0  501 -0.00000000000E+00 -0.00000000000E+00 -0.58169384182E+03  0.58169384182E+03  0.00000000000E+00 0.  1.
         24    2    1    2    0    0 -0.62589252509E+02  0.77136394724E+01 -0.20052618880E+03  0.22398158370E+03  0.77330994316E+02 0.  0.
         23    2    1    2    0    0  0.39474810540E+02 -0.97141619688E+01  0.83608704087E+01  0.10042359620E+03  0.91445989026E+02 0.  0.
        -11    1    3    3    0    0 -0.10617852203E+02 -0.31329878104E+02 -0.49224221558E+02  0.59307031922E+02  0.00000000000E+00 0.  1.
         12    1    3    3    0    0 -0.51971400306E+02  0.39043517576E+02 -0.15130196724E+03  0.16467455178E+03  0.00000000000E+00 0. -1.
        -13    1    4    4    0    0  0.38690745920E+02 -0.48065284852E+02  0.59402332713E+01  0.61988158539E+02  0.00000000000E+00 0. -1.
         13    1    4    4    0    0  0.78406462030E+00  0.38351122883E+02  0.24206371374E+01  0.38435437657E+02  0.00000000000E+00 0.  1.
         21    1    1    2  503  501  0.29485847224E+01 -0.23443010071E+02 -0.16533447876E+03  0.16701424711E+03  0.00000000000E+00 0.  1.
         -2    1    1    2    0  502  0.20165857246E+02  0.25443532567E+02 -0.15555833012E+03  0.15891012937E+03  0.00000000000E+00 0.  1.
<scales pt_clust_5="13000.00000" pt_clust_6="13000.00000" pt_clust_7="13000.00000" pt_clust_8="13000.00000" pt_clust_9="23.62771" pt_clust_10="26.97330"></scales>
<clustering>
<clus scale="   23.628">  2  9  1 -1</clus>
<clus scale="   26.973">  1 10  2 -1</clus>
<clus scale="   77.331">  5  6 -1 -1</clus>
<clus scale="   91.446">  7  8 -1 -1</clus>
<clus scale="   96.233">  2  5  1 -1</clus>
<clus scale="   26.973">  1  5  2 -1</clus>
</clustering>
</event>
<event>
10    4  0.2977685E-005  0.1904339E+03  0.7546771E-02  0.1193054E+00
          2   -1    0    0  503    0 -0.00000000000E+00  0.00000000000E+00  0.10176007291E+04  0.10176007291E+04  0.00000000000E+00 0. -1.
         21   -1    0    0  501  502  0.00000000000E+00 -0.00000000000E+00 -0.15744713350E+03  0.15744713350E+03  0.00000000000E+00 0. -1.
         24    2    1    2    0    0 -0.21805063551E+02  0.24360132136E+02  0.38633428513E+03  0.39597994769E+03  0.80480198025E+02 0.  0.
         23    2    1    2    0    0 -0.14868450995E+03  0.81466466421E+02  0.31310638182E+03  0.36714529016E+03  0.89533173165E+02 0.  0.
        -11    1    3    3    0    0 -0.21111091172E+02  0.20628180329E+01  0.20608310129E+02  0.29574242764E+02  0.00000000000E+00 0.  1.
         12    1    3    3    0    0 -0.69397237863E+00  0.22297314103E+02  0.36572597500E+03  0.36640570493E+03  0.00000000000E+00 0. -1.
        -13    1    4    4    0    0 -0.29652855363E+02 -0.17470697708E+02  0.82713069963E+02  0.89587772895E+02  0.00000000000E+00 0.  1.
         13    1    4    4    0    0 -0.11903165459E+03  0.98937164129E+02  0.23039331186E+03  0.27755751727E+03  0.00000000000E+00 0. -1.
         21    1    1    2  503  502  0.12896310144E+03 -0.11162664432E+03  0.25611538542E+03  0.30771265802E+03  0.00000000000E+00 0.  1.
          1    1    1    2  501    0  0.41526472061E+02  0.58000457646E+01 -0.95402456758E+02  0.10420996674E+03  0.00000000000E+00 0. -1.
<scales pt_clust_5="13000.00000" pt_clust_6="13000.00000" pt_clust_7="13000.00000" pt_clust_8="13000.00000" pt_clust_9="168.07399" pt_clust_10="41.92956"></scales>
<clustering>
<clus scale="   41.930">  2 10  1 -1</clus>
<clus scale="   80.480">  5  6 -1 -1</clus>
<clus scale="   86.200">  1  5  2 -1</clus>
<clus scale="   89.533">  7  8 -1 -1</clus>
<clus scale="  168.074">  1  9  2 -1</clus>
<clus scale="   41.930">  2  5  1 -1</clus>
</clustering>
</event>
<event>
10    4  0.2977685E-005  0.1504931E+03  0.7546771E-02  0.1203433E+00
          2   -1    0    0  503    0 -0.00000000000E+00  0.00000000000E+00  0.17268918266E+03  0.17268918266E+03  0.00000000000E+00 0. -1.
         21   -1    0    0  501  502  0.00000000000E+00 -0.00000000000E+00 -0.41955522249E+03  0.41955522249E+03  0.00000000000E+00 0. -1.
         24    2    1    2    0    0  0.10900215540E+03  0.67463328217E+02 -0.11902296768E+03  0.19330362901E+03  0.82262115323E+02 0.  0.
         23    2    1    2    0    0 -0.30809333303E+02 -0.10817678870E+03 -0.18427017529E+03  0.23793864208E+03  0.10003932859E+03 0.  0.
        -13    1    3    3    0    0  0.47418746173E+01  0.22538718892E+02  0.66232292091E+01  0.23965525017E+02  0.00000000000E+00 0.  1.
         14    1    3    3    0    0  0.10426028078E+03  0.44924609326E+02 -0.12564619689E+03  0.16933810399E+03  0.00000000000E+00 0. -1.
        -13    1    4    4    0    0 -0.34196383223E+02 -0.43936238682E+02 -0.15961404916E+03  0.16904564586E+03  0.00000000000E+00 0. -1.
         13    1    4    4    0    0  0.33870499196E+01 -0.64240550013E+02 -0.24656126130E+02  0.68892996226E+02  0.00000000000E+00 0.  1.
         21    1    1    2  503  502 -0.36613923853E+01 -0.20063742899E+02  0.61404267702E+02  0.64702733059E+02  0.00000000000E+00 0. -1.
          1    1    1    2  501    0 -0.74531429709E+02  0.60777203378E+02 -0.49771645725E+01  0.96299400995E+02  0.00000000000E+00 0. -1.
<scales pt_clust_5="13000.00000" pt_clust_6="13000.00000" pt_clust_7="13000.00000" pt_clust_8="13000.00000" pt_clust_9="20.39509" pt_clust_10="92.37175"></scales>
<clustering>
<clus scale="   20.395">  1  9  2 -1</clus>
<clus scale="   82.262">  5  6 -1 -1</clus>
<clus scale="   92.372">  2 10  1 -1</clus>
<clus scale="  100.039">  7  8 -1 -1</clus>
<clus scale="  139.310">  1  5  2 -1</clus>
<clus scale="   92.372">  2  5  1 -1</clus>
</clustering>
</event>
<event>
10    4  0.2977685E-005  0.1184552E+03  0.7546771E-02  0.1263141E+00
          2   -1    0    0  503    0 -0.00000000000E+00  0.00000000000E+00  0.36322240522E+03  0.36322240522E+03  0.00000000000E+00 0. -1.
         21   -1    0    0  501  502  0.00000000000E+00 -0.00000000000E+00 -0.31662948873E+03  0.31662948873E+03  0.00000000000E+00 0.  1.
         24    2    1    2    0    0 -0.15230280278E+02  0.38651722515E+02  0.26676483995E+03  0.28144227351E+03  0.79500669164E+02 0.  0.
         23    2    1    2    0    0 -0.46874459625E+02 -0.42337639563E+02 -0.94659453589E+02  0.14415417566E+03  0.88489115248E+02 0.  0.
        -13    1    3    3    0    0  0.25984867547E+02  0.28558929196E+02  0.18850717991E+03  0.19242084777E+03  0.00000000000E+00 0.  1.
         14    1    3    3    0    0 -0.41215147825E+02  0.10092793319E+02  0.78257660039E+02  0.89021425747E+02  0.00000000000E+00 0. -1.
        -13    1    4    4    0    0 -0.16479221230E+02  0.19406648725E+02  0.19553531344E+01  0.25534411153E+02  0.00000000000E+00 0. -1.
         13    1    4    4    0    0 -0.30395238395E+02 -0.61744288288E+02 -0.96614806723E+02  0.11861976451E+03  0.00000000000E+00 0.  1.
         21    1    1    2  503  502 -0.12151128716E+02 -0.38740308636E+02  0.46757622632E+02  0.61925251041E+02  0.00000000000E+00 0. -1.
          1    1    1    2  501    0  0.74255868619E+02  0.42426225684E+02 -0.17227009250E+03  0.19233019373E+03  0.00000000000E+00 0. -1.
<scales pt_clust_5="13000.00000" pt_clust_6="13000.00000" pt_clust_7="13000.00000" pt_clust_8="13000.00000" pt_clust_9="40.60125" pt_clust_10="78.74845"></scales>
<clustering>
<clus scale="   40.601">  1  9  2 -1</clus>
<clus scale="   79.501">  5  6 -1 -1</clus>
<clus scale="   83.757">  1  5  2 -1</clus>
<clus scale="   78.748">  2 10  1 -1</clus>
<clus scale="   88.489">  7  8 -1 -1</clus>
<clus scale="   78.748">  2  5  1 -1</clus>
</clustering>
</event>
<event>
10    4  0.2977685E-005  0.2762717E+03  0.7546771E-02  0.1098164E+00
          2   -1    0    0  503    0 -0.00000000000E+00  0.00000000000E+00  0.66151712150E+03  0.66151712150E+03  0.00000000000E+00 0. -1.
         21   -1    0    0  501  502  0.00000000000E+00 -0.00000000000E+00 -0.17908088167E+03  0.17908088167E+03  0.00000000000E+00 0. -1.
         23    2    1    2    0    0  0.21492916804E+03 -0.17455768379E+03  0.28056892817E+03  0.40443554492E+03  0.90466868482E+02 0.  0.
         24    2    1    2    0    0 -0.15055435894E+03  0.18594419540E+03  0.54188699342E+02  0.25827701142E+03  0.80800623101E+02 0.  0.
        -11    1    4    4    0    0 -0.48299874828E+02  0.27764803985E+02  0.41552771236E+02  0.69501043489E+02  0.00000000000E+00 0.  1.
         12    1    4    4    0    0 -0.10225448411E+03  0.15817939142E+03  0.12635928106E+02  0.18877596793E+03  0.00000000000E+00 0. -1.
        -13    1    3    3    0    0  0.69022712701E+02 -0.58332029841E+02  0.15548625206E+03  0.17984086063E+03  0.00000000000E+00 0.  1.
         13    1    3    3    0    0  0.14590645534E+03 -0.11622565395E+03  0.12508267612E+03  0.22459468429E+03  0.00000000000E+00 0. -1.
         21    1    1    2  503  502 -0.26365393747E+02 -0.25886786768E+02  0.12696902171E+03  0.13223612287E+03  0.00000000000E+00 0. -1.
          1    1    1    2  501    0 -0.38009415358E+02  0.14500275157E+02  0.20709590602E+02  0.45649323964E+02  0.00000000000E+00 0. -1.
<scales pt_clust_5="13000.00000" pt_clust_6="13000.00000" pt_clust_7="13000.00000" pt_clust_8="13000.00000" pt_clust_9="36.94942" pt_clust_10="41.69506"></scales>
<clustering>
<clus scale="   36.949">  1  9  2 -1</clus>
<clus scale="   41.695">  2 10  1 -1</clus>
<clus scale="   80.801">  5  6 -1 -1</clus>
<clus scale="   90.467">  7  8 -1 -1</clus>
<clus scale="  273.259">  2  5  1 -1</clus>
<clus scale="   41.695">  2  5  1 -1</clus>
</clustering>
</event>
<event>
10    4  0.2977685E-005  0.9014702E+02  0.7546771E-02  0.1307990E+00
         21   -1    0    0  501  502  0.00000000000E+00  0.00000000000E+00  0.92052363785E+02  0.92052363785E+02  0.00000000000E+00 0. -1.
          2   -1    0    0  503    0 -0.00000000000E+00 -0.00000000000E+00 -0.39937964584E+03  0.39937964584E+03  0.00000000000E+00 0. -1.
         23    2    1    2    0    0  0.50947809321E+01 -0.12184250770E+02 -0.31685795212E+03  0.32828628627E+03  0.84844040289E+02 0.  0.
         24    2    1    2    0    0 -0.39103313336E+01  0.42747001575E+02  0.39074380915E+02  0.95335704201E+02  0.75627325860E+02 0.  0.
        -11    1    4    4    0    0  0.29398181171E+02  0.33522562536E+02  0.19740337136E+01  0.44630842074E+02  0.00000000000E+00 0.  1.
         12    1    4    4    0    0 -0.33308512504E+02  0.92244390392E+01  0.37100347202E+02  0.50704862127E+02  0.00000000000E+00 0. -1.
        -13    1    3    3    0    0 -0.34551723786E+02 -0.22922966347E+02 -0.11387514852E+03  0.12118924644E+03  0.00000000000E+00 0.  1.
         13    1    3    3    0    0  0.39646504718E+02  0.10738715577E+02 -0.20298280360E+03  0.20709703983E+03  0.00000000000E+00 0. -1.
         21    1    1    2  503  502  0.23668441167E+02 -0.59281188864E+01 -0.19972059749E+02  0.31531268154E+02  0.00000000000E+00 0. -1.
          1    1    1    2  501    0 -0.24852890765E+02 -0.24634631919E+02 -0.95716510994E+01  0.36278750997E+02  0.00000000000E+00 0. -1.
<scales pt_clust_5="13000.00000" pt_clust_6="13000.00000" pt_clust_7="13000.00000" pt_clust_8="13000.00000" pt_clust_9="24.39954" pt_clust_10="34.24191"></scales>
<clustering>
<clus scale="   24.400">  2  9  1 -1</clus>
<clus scale="   34.242">  1 10  2 -1</clus>
<clus scale="   75.627">  5  6 -1 -1</clus>
<clus scale="   81.532">  1  5  2 -1</clus>
<clus scale="   84.844">  7  8 -1 -1</clus>
<clus scale="   34.242">  1  5  2 -1</clus>
</clustering>
</event>
<event>
10    4  0.2977685E-005  0.1720201E+03  0.7546771E-02  0.1203089E+00
         -1   -1    0    0    0  501 -0.00000000000E+00  0.00000000000E+00  0.37655504515E+02  0.37655504515E+02  0.00000000000E+00 0.  1.
         21   -1    0    0  501  502  0.00000000000E+00 -0.00000000000E+00 -0.13367294570E+04  0.13367294570E+04  0.00000000000E+00 0.  1.
         23    2    1    2    0    0 -0.14199149665E+02  0.16240215321E+02 -0.40191150591E+03  0.41275273574E+03  0.91469130523E+02 0.  0.
         24    2    1    2    0    0  0.15285696555E+03  0.40437989909E+02 -0.57414011518E+03  0.60031683577E+03  0.75782243956E+02 0.  0.
        -11    1    4    4    0    0  0.15183369746E+03  0.54415377275E+02 -0.53131543609E+03  0.55525723552E+03  0.00000000000E+00 0.  1.
         12    1    4    4    0    0  0.10232680889E+01 -0.13977387366E+02 -0.42824679091E+02  0.45059600247E+02  0.00000000000E+00 0. -1.
        -11    1    3    3    0    0  0.34137627798E+02 -0.12908026830E+02 -0.18864361210E+03  0.19214163311E+03  0.00000000000E+00 0. -1.
         11    1    3    3    0    0 -0.48336777464E+02  0.29148242152E+02 -0.21326789381E+03  0.22061110263E+03  0.00000000000E+00 0.  1.
         21    1    1    2  503  502 -0.92007737513E+02 -0.66581229175E+02 -0.24141595531E+03  0.26679607816E+03  0.00000000000E+00 0.  1.
         -2    1    1    2    0  503 -0.46650078371E+02  0.99030239449E+01 -0.81606376106E+02  0.94519311870E+02  0.00000000000E+00 0.  1.
<scales pt_clust_5="13000.00000" pt_clust_6="13000.00000" pt_clust_7="13000.00000" pt_clust_8="13000.00000" pt_clust_9="39.77165" pt_clust_10="166.17754"></scales>
<clustering>
<clus scale="   39.772">  9 10 -1 -1</clus>
<clus scale="   75.782">  5  6 -1 -1</clus>
<clus scale="   91.469">  7  8 -1 -1</clus>
<clus scale="   93.979">  1  7  2 -1</clus>
<clus scale="  166.178">  2  9  1 -1</clus>
<clus scale="  166.178">  2  5  1 -1</clus>
</clustering>
</event>
<event>
10    4  0.2977685E-005  0.2258252E+03  0.7546771E-02  0.1167795E+00
         21   -1    0    0  501  502  0.00000000000E+00  0.00000000000E+00  0.34677520059E+03  0.34677520059E+03  0.00000000000E+00 0. -1.
          2   -1    0    0  503    0 -0.00000000000E+00 -0.00000000000E+00 -0.67725105723E+03  0.67725105723E+03  0.00000000000E+00 0. -1.
         23    2    1    2    0    0  0.16351213074E+02 -0.39979002963E+02  0.19197448664E+03  0.21258611761E+03  0.80454776322E+02 0.  0.
         24    2    1    2    0    0  0.15424986223E+03  0.10036007233E+03 -0.47985416218E+03  0.52030322523E+03  0.81180447786E+02 0.  0.
        -11    1    4    4    0    0  0.68683700298E+01  0.23786895308E+02 -0.21518010078E+02  0.32802677528E+02  0.00000000000E+00 0.  1.
         12    1    4    4    0    0  0.14738149220E+03  0.76573177023E+02 -0.45833615210E+03  0.48750054770E+03  0.00000000000E+00 0. -1.
        -11    1    3    3    0    0  0.28734392490E+02  0.93741923264E+00  0.14980260008E+03  0.15253643190E+03  0.00000000000E+00 0. -1.
         11    1    3    3    0    0 -0.12383179416E+02 -0.40916422195E+02  0.42171886562E+02  0.60049685710E+02  0.00000000000E+00 0.  1.
         21    1    1    2  503  502  0.25642669805E+02  0.30630921054E+02 -0.62206664300E+02  0.73928809829E+02  0.00000000000E+00 0. -1.
          1    1    1    2  501    0 -0.19624374511E+03 -0.91011990423E+02  0.19610483203E+02  0.21720810516E+03  0.00000000000E+00 0. -1.
<scales pt_clust_5="13000.00000" pt_clust_6="13000.00000" pt_clust_7="13000.00000" pt_clust_8="13000.00000" pt_clust_9="39.94746" pt_clust_10="210.72915"></scales>
<clustering>
<clus scale="   39.947">  2  9  1 -1</clus>
<clus scale="   80.455">  7  8 -1 -1</clus>
<clus scale="   81.180">  5  6 -1 -1</clus>
<clus scale="   91.169">  2  7  1 -1</clus>
<clus scale="  210.729">  1 10  2 -1</clus>
<clus scale="  210.729">  1  5  2 -1</clus>
</clustering>
</event>
<event>
10    4  0.2977685E-005  0.2508747E+03  0.7546771E-02  0.1147757E+00
          2   -1    0    0  503    0 -0.00000000000E+00  0.00000000000E+00  0.75140282353E+03  0.75140282353E+03  0.00000000000E+00 0. -1.
         21   -1    0    0  501  502  0.00000000000E+00 -0.00000000000E+00 -0.25403997880E+03  0.25403997880E+03  0.00000000000E+00 0.  1.
         24    2    1    2    0    0 -0.58038189236E+02  0.35519558685E+02  0.39557168995E+03  0.40916590314E+03  0.79433644892E+02 0.  0.
         23    2    1    2    0    0 -0.17346019051E+03  0.13397407583E+02  0.45037103177E+02  0.20057702736E+03  0.89077915463E+02 0.  0.
        -13    1    3    3    0    0 -0.34785415561E+02  0.51766683708E+02  0.15732484398E+03  0.16923628811E+03  0.00000000000E+00 0.  1.
         14    1    3    3    0    0 -0.23252773675E+02 -0.16247125023E+02  0.23824684597E+03  0.23992961503E+03  0.00000000000E+00 0. -1.
        -11    1    4    4    0    0 -0.46710030345E+02  0.44667899043E+01 -0.27378012394E+02  0.54326188064E+02  0.00000000000E+00 0.  1.
         11    1    4    4    0    0 -0.12675016016E+03  0.89306176788E+01  0.72415115571E+02  0.14625083930E+03  0.00000000000E+00 0. -1.
         21    1    1    2  503  502  0.30014642786E+03 -0.83480821869E+02  0.65483495315E+02  0.31834731652E+03  0.00000000000E+00 0.  1.
          1    1    1    2  501    0 -0.68648048119E+02  0.34563855601E+02 -0.87294437193E+01  0.77352555305E+02  0.00000000000E+00 0. -1.
<scales pt_clust_5="13000.00000" pt_clust_6="13000.00000" pt_clust_7="13000.00000" pt_clust_8="13000.00000" pt_clust_9="234.52775" pt_clust_10="76.85841"></scales>
<clustering>
<clus scale="   76.858">  2 10  1 -1</clus>
<clus scale="   79.434">  5  6 -1 -1</clus>
<clus scale="   89.078">  7  8 -1 -1</clus>
<clus scale="  106.215">  1  5  2 -1</clus>
<clus scale="  234.528">  2  9  1 -1</clus>
<clus scale="   76.858">  2  5  1 -1</clus>
</clustering>
</event>
<event>
10    4  0.2977685E-005  0.1208592E+03  0.7546771E-02  0.1243871E+00
          2   -1    0    0  503    0 -0.00000000000E+00  0.00000000000E+00  0.30185239545E+03  0.30185239545E+03  0.00000000000E+00 0. -1.
         21   -1    0    0  501  502  0.00000000000E+00 -0.00000000000E+00 -0.11024977235E+03  0.11024977235E+03  0.00000000000E+00 0.  1.
         24    2    1    2    0    0 -0.12592201036E+01 -0.74800335177E+02  0.71178825872E+02  0.13141617639E+03  0.81284133673E+02 0.  0.
         23    2    1    2    0    0 -0.23216154039E+02  0.87086083416E+02  0.27063269127E+02  0.12921774171E+03  0.88554099302E+02 0.  0.
        -13    1    3    3    0    0  0.22543802485E+02  0.60441698796E+01  0.40860150626E+01  0.23694947544E+02  0.00000000000E+00 0.  1.
         14    1    3    3    0    0 -0.23803022588E+02 -0.80844505057E+02  0.67092810809E+02  0.10772122885E+03  0.00000000000E+00 0. -1.
        -13    1    4    4    0    0  0.20633834088E+02 -0.56127880498E+01 -0.46411737945E+01  0.21881476025E+02  0.00000000000E+00 0. -1.
         13    1    4    4    0    0 -0.43849988126E+02  0.92698871466E+02  0.31704442921E+02  0.10733626568E+03  0.00000000000E+00 0.  1.
         21    1    1    2  503  502 -0.43125292993E+02 -0.19806615394E+02  0.57571636310E+02  0.74609558479E+02  0.00000000000E+00 0. -1.
          1    1    1    2  501    0  0.67600667135E+02  0.75208671550E+01  0.35788891800E+02  0.76858691221E+02  0.00000000000E+00 0. -1.
<scales pt_clust_5="13000.00000" pt_clust_6="13000.00000" pt_clust_7="13000.00000" pt_clust_8="13000.00000" pt_clust_9="47.45622" pt_clust_10="57.36585"></scales>
<clustering>
<clus scale="   47.456">  1  9  2 -1</clus>
<clus scale="   57.366">  2 10  1 -1</clus>
<clus scale="   81.284">  5  6 -1 -1</clus>
<clus scale="   88.554">  7  8 -1 -1</clus>
<clus scale="  115.638">  1  5  2 -1</clus>
<clus scale="   57.366">  2  5  1 -1</clus>
</clustering>
</event>
<event>
10    4  0.2977685E-005  0.2602033E+03  0.7546771E-02  0.1107021E+00
         21   -1    0    0  503  502  0.00000000000E+00  0.00000000000E+00  0.21182401889E+03  0.21182401889E+03  0.00000000000E+00 0. -1.
         -3   -1    0    0    0  501 -0.00000000000E+00 -0.00000000000E+00 -0.52437375231E+03  0.52437375231E+03  0.00000000000E+00 0.  1.
         24    2    1    2    0    0  0.10518707169E+03  0.48137333786E+02 -0.64758448191E+02  0.15499354438E+03  0.80298314003E+02 0.  0.
         23    2    1    2    0    0  0.38972724001E+02  0.20383287256E+02 -0.41473361441E+01  0.10325393242E+03  0.93326430056E+02 0.  0.
        -11    1    3    3    0    0  0.22013857275E+02  0.47761466119E+02 -0.45680090160E+02  0.69659444407E+02  0.00000000000E+00 0.  1.
         12    1    3    3    0    0  0.83173214416E+02  0.37586766688E+00 -0.19078358030E+02  0.85334099971E+02  0.00000000000E+00 0. -1.
        -11    1    4    4    0    0 -0.25176791662E+02 -0.15091606382E+02  0.34532441546E+01  0.29555918473E+02  0.00000000000E+00 0.  1.
         11    1    4    4    0    0  0.64149515663E+02  0.35474893638E+02 -0.76005802988E+01  0.73698013944E+02  0.00000000000E+00 0. -1.
         21    1    1    2  503  501 -0.16022971639E+03 -0.83944200797E+02 -0.33672817343E+03  0.38223821583E+03  0.00000000000E+00 0.  1.
         -4    1    1    2    0  502  0.16069920693E+02  0.15423579755E+02  0.93084224343E+02  0.95712078574E+02  0.00000000000E+00 0.  1.
<scales pt_clust_5="13000.00000" pt_clust_6="13000.00000" pt_clust_7="13000.00000" pt_clust_8="13000.00000" pt_clust_9="176.74587" pt_clust_10="22.27396"></scales>
<clustering>
<clus scale="   22.274">  1 10  2 -1</clus>
<clus scale="   80.298">  5  6 -1 -1</clus>
<clus scale="   93.326">  7  8 -1 -1</clus>
<clus scale="  104.723">  5  7 -1 -1</clus>
<clus scale="  176.746">  2  9  1 -1</clus>
<clus scale="   22.274">  1  5  2 -1</clus>
</clustering>
</event>
<event>
10    4  0.2977685E-005  0.1721858E+03  0.7546771E-02  0.1177407E+00
         21   -1    0    0  501  502  0.00000000000E+00  0.00000000000E+00  0.33150176340E+03  0.33150176340E+03  0.00000000000E+00 0. -1.
          2   -1    0    0  503    0 -0.00000000000E+00 -0.00000000000E+00 -0.75969090864E+03  0.75969090864E+03  0.00000000000E+00 0. -1.
         23    2    1    2    0    0  0.36109736484E+02 -0.15405959877E+03 -0.33866252376E+03  0.38497478792E+03  0.92059813671E+02 0.  0.
         24    2    1    2    0    0  0.14151903479E+00  0.13033074594E+03 -0.23153785525E+02  0.16834238336E+03  0.10400450415E+03 0.  0.
        -11    1    4    4    0    0  0.20908577248E+02  0.84727144848E+02  0.32801176395E+02  0.93229688670E+02  0.00000000000E+00 0.  1.
         12    1    4    4    0    0 -0.20767058213E+02  0.45603601093E+02 -0.55954961919E+02  0.75112694685E+02  0.00000000000E+00 0. -1.
        -11    1    3    3    0    0 -0.12784501295E+02 -0.88513409520E+02 -0.24405417616E+03  0.25992404282E+03  0.00000000000E+00 0.  1.
         11    1    3    3    0    0  0.48894237779E+02 -0.65546189246E+02 -0.94608347600E+02  0.12505074509E+03  0.00000000000E+00 0. -1.
         21    1    1    2  503  502 -0.81312101019E+02  0.22090276249E+02 -0.29399451411E+03  0.30583069239E+03  0.00000000000E+00 0.  1.
          1    1    1    2  501    0  0.45060845500E+02  0.16385765761E+01  0.22762167815E+03  0.23204480838E+03  0.00000000000E+00 0. -1.
<scales pt_clust_5="13000.00000" pt_clust_6="13000.00000" pt_clust_7="13000.00000" pt_clust_8="13000.00000" pt_clust_9="81.75685" pt_clust_10="45.09063"></scales>
<clustering>
<clus scale="   45.091">  1 10  2 -1</clus>
<clus scale="   81.757">  2  9  1 -1</clus>
<clus scale="   92.060">  7  8 -1 -1</clus>
<clus scale="  104.005">  5  6 -1 -1</clus>
<clus scale="  165.245">  2  7  1 -1</clus>
<clus scale="   45.091">  1  5  2 -1</clus>
</clustering>
</event>
<event>
10    4  0.2977685E-005  0.1701915E+03  0.7546771E-02  0.1179339E+00
         -3   -1    0    0    0  501 -0.00000000000E+00  0.00000000000E+00  0.12956601845E+03  0.12956601845E+03  0.00000000000E+00 0.  1.
         21   -1    0    0  503  502  0.00000000000E+00 -0.00000000000E+00 -0.57039384347E+03  0.57039384347E+03  0.00000000000E+00 0.  1.
         23    2    1    2    0    0 -0.97646352190E+02 -0.11733351758E+03 -0.74480751648E+01  0.17884028377E+03  0.92878462687E+02 0.  0.
         24    2    1    2    0    0  0.80235684998E+02  0.70454461299E+02 -0.14993420799E+03  0.20095585872E+03  0.80631223250E+02 0.  0.
        -13    1    4    4    0    0 -0.57237639931E+01  0.39091761730E+02 -0.27631605655E+02  0.48212373313E+02  0.00000000000E+00 0.  1.
         14    1    4    4    0    0  0.85959448991E+02  0.31362699569E+02 -0.12230260234E+03  0.15274348540E+03  0.00000000000E+00 0. -1.
        -13    1    3    3    0    0 -0.94428991447E+02 -0.77178423303E+02  0.28058097461E+02  0.12514232011E+03  0.00000000000E+00 0.  1.
         13    1    3    3    0    0 -0.32173607425E+01 -0.40155094280E+02 -0.35506172626E+02  0.53697963661E+02  0.00000000000E+00 0. -1.
         21    1    1    2  503  501 -0.32220487190E+02 -0.12496832373E+02 -0.99974560688E+01  0.35976099594E+02  0.00000000000E+00 0.  1.
         -4    1    1    2    0  502  0.49631154382E+02  0.59375888657E+02 -0.27344808580E+03  0.28418761983E+03  0.00000000000E+00 0.  1.
<scales pt_clust_5="13000.00000" pt_clust_6="13000.00000" pt_clust_7="13000.00000" pt_clust_8="13000.00000" pt_clust_9="34.55909" pt_clust_10="75.99740"></scales>
<clustering>
<clus scale="   34.559">  1  9  2 -1</clus>
<clus scale="   75.997">  2 10  1 -1</clus>
<clus scale="   80.631">  5  6 -1 -1</clus>
<clus scale="   92.878">  7  8 -1 -1</clus>
<clus scale="  163.830">  2  5  1 -1</clus>
<clus scale="   75.997">  2  5  1 -1</clus>
</clustering>
</event>
<event>
10    4  0.2977685E-005  0.1513283E+03  0.7546771E-02  0.1222116E+00
         -3   -1    0    0    0  501 -0.00000000000E+00  0.00000000000E+00  0.26263046095E+03  0.26263046095E+03  0.00000000000E+00 0.  1.
         21   -1    0    0  503  502  0.00000000000E+00 -0.00000000000E+00 -0.76780038288E+03  0.76780038288E+03  0.00000000000E+00 0.  1.
         24    2    1    2    0    0 -0.38915056660E+02  0.21025315878E+02 -0.12499855208E+03  0.15440239070E+03  0.79113934857E+02 0.  0.
         23    2    1    2    0    0 -0.36264266771E+02  0.22638185341E+02  0.11873041145E+03  0.15564373110E+03  0.91106947845E+02 0.  0.
        -11    1    3    3    0    0  0.16316069273E+02  0.29940403215E+02 -0.56108336051E+02  0.65656585623E+02  0.00000000000E+00 0.  1.
         12    1    3    3    0    0 -0.55231125933E+02 -0.89150873365E+01 -0.68890216032E+02  0.88745805079E+02  0.00000000000E+00 0. -1.
        -11    1    4    4    0    0 -0.59373790755E+02 -0.17126084902E+01  0.10223798067E+03  0.11824036852E+03  0.00000000000E+00 0.  1.
         11    1    4    4    0    0  0.23109523984E+02  0.24350793831E+02  0.16492430789E+02  0.37403362580E+02  0.00000000000E+00 0. -1.
         21    1    1    2  503  501 -0.74917746557E+01  0.49517112423E+02  0.98304086492E+02  0.11032572017E+03  0.00000000000E+00 0.  1.
         -4    1    1    2    0  502  0.82671098087E+02 -0.93180613642E+02 -0.59720586779E+03  0.61005900185E+03  0.00000000000E+00 0.  1.
<scales pt_clust_5="13000.00000" pt_clust_6="13000.00000" pt_clust_7="13000.00000" pt_clust_8="13000.00000" pt_clust_9="50.08065" pt_clust_10="120.82950"></scales>
<clustering>
<clus scale="   50.081">  1  9  2 -1</clus>
<clus scale="   79.114">  5  6 -1 -1</clus>
<clus scale="   91.107">  7  8 -1 -1</clus>
<clus scale="   92.112">  1  5  2 -1</clus>
<clus scale="  120.829">  2 10  1 -1</clus>
<clus scale="  120.829">  2  5  1 -1</clus>
</clustering>
</event>
<event>
10    4  0.2977685E-005  0.1380563E+03  0.7546771E-02  0.1219094E+00
         -3   -1    0    0    0  501 -0.00000000000E+00  0.00000000000E+00  0.20064563176E+03  0.20064563176E+03  0.00000000000E+00 0.  1.
         21   -1    0    0  503  502  0.00000000000E+00 -0.00000000000E+00 -0.30211015844E+03  0.30211015844E+03  0.00000000000E+00 0. -1.
         23    2    1    2    0    0 -0.74798342657E+02  0.40653674778E+02 -0.10437882361E+03  0.16271659259E+03  0.91292044281E+02 0.  0.
         24    2    1    2    0    0  0.13115750835E+03  0.71403912126E+01 -0.11352205181E+03  0.19005545362E+03  0.77333964211E+02 0.  0.
        -11    1    4    4    0    0  0.27345743835E+02  0.18413787926E+02  0.35759117246E+01  0.33160887146E+02  0.00000000000E+00 0.  1.
         12    1    4    4    0    0  0.10381176452E+03 -0.11273396714E+02 -0.11709796354E+03  0.15689456648E+03  0.00000000000E+00 0. -1.
        -11    1    3    3    0    0 -0.80748541247E+02  0.19008003638E+02 -0.35429113541E+02  0.90204507659E+02  0.00000000000E+00 0.  1.
         11    1    3    3    0    0  0.59501985897E+01  0.21645671140E+02 -0.68949710072E+02  0.72512084934E+02  0.00000000000E+00 0. -1.
         21    1    1    2  503  501 -0.26969975539E+02  0.10180635817E+02  0.44608363581E+02  0.53112437598E+02  0.00000000000E+00 0. -1.
         -4    1    1    2    0  502 -0.29389190157E+02 -0.57974701808E+02  0.71827985169E+02  0.96871306388E+02  0.00000000000E+00 0.  1.
<scales pt_clust_5="13000.00000" pt_clust_6="13000.00000" pt_clust_7="13000.00000" pt_clust_8="13000.00000" pt_clust_9="28.82750" pt_clust_10="68.60317"></scales>
<clustering>
<clus scale="   28.828">  1  9  2 -1</clus>
<clus scale="   68.603">  2 10  1 -1</clus>
<clus scale="   77.334">  5  6 -1 -1</clus>
<clus scale="   91.292">  7  8 -1 -1</clus>
<clus scale="  129.251">  2  5  1 -1</clus>
<clus scale="   68.603">  2  5  1 -1</clus>
</clustering>
</event>
<event>
10    4  0.2977685E-005  0.1551763E+03  0.7546771E-02  0.1196536E+00
         21   -1    0    0  503  502  0.00000000000E+00  0.00000000000E+00  0.78319633369E+02  0.78319633369E+02  0.00000000000E+00 0.  1.
         -1   -1    0    0    0  501 -0.00000000000E+00 -0.00000000000E+00 -0.92151256820E+03  0.92151256820E+03  0.00000000000E+00 0.  1.
         24    2    1    2    0    0 -0.74126369772E+02  0.62847125086E+02 -0.19811021971E+03  0.23510020930E+03  0.81117010733E+02 0.  0.
         23    2    1    2    0    0  0.12204895555E+03 -0.11141269627E+03 -0.24811019994E+03  0.31263123564E+03  0.94185358430E+02 0.  0.
        -13    1    3    3    0    0 -0.64828812490E+02  0.44941477629E+02 -0.19984508553E+03  0.21485010950E+03  0.00000000000E+00 0.  1.
         14    1    3    3    0    0 -0.92975572817E+01  0.17905647458E+02  0.17348658242E+01  0.20250099795E+02  0.00000000000E+00 0. -1.
        -13    1    4    4    0    0  0.11793910194E+03 -0.87217500470E+02 -0.14358538742E+03  0.20526394626E+03  0.00000000000E+00 0.  1.
         13    1    4    4    0    0  0.41098536133E+01 -0.24195195800E+02 -0.10452481252E+03  0.10736728938E+03  0.00000000000E+00 0. -1.
         21    1    1    2  503  501 -0.47688783386E+02 -0.55899780744E+02 -0.30235635174E+03  0.31115650240E+03  0.00000000000E+00 0.  1.
         -2    1    1    2    0  502 -0.23380239151E+00  0.10446535193E+03 -0.94616163436E+02  0.14094425423E+03  0.00000000000E+00 0.  1.
<scales pt_clust_5="13000.00000" pt_clust_6="13000.00000" pt_clust_7="13000.00000" pt_clust_8="13000.00000" pt_clust_9="73.47793" pt_clust_10="94.22270"></scales>
<clustering>
<clus scale="   73.478">  2  9  1 -1</clus>
<clus scale="   81.117">  5  6 -1 -1</clus>
<clus scale="   94.185">  7  8 -1 -1</clus>
<clus scale="   94.223">  1 10  2 -1</clus>
<clus scale="  147.610">  2  5  1 -1</clus>
<clus scale="   94.223">  1  5  2 -1</clus>
</clustering>
</event>
<event>
10    4  0.2977685E-005  0.1073857E+03  0.7546771E-02  0.1268508E+00
         -1   -1    0    0    0  501 -0.00000000000E+00  0.00000000000E+00  0.58439040590E+02  0.58439040590E+02  0.00000000000E+00 0.  1.
         21   -1    0    0  503  502  0.00000000000E+00 -0.00000000000E+00 -0.12917723875E+04  0.12917723875E+04  0.00000000000E+00 0. -1.
         23    2    1    2    0    0  0.23007777738E+02  0.10794075702E+03 -0.14178912912E+03  0.20070251946E+03  0.89424713149E+02 0.  0.
         24    2    1    2    0    0  0.51076318439E+01 -0.74449430716E+02 -0.93746409704E+03  0.94399559570E+03  0.81975275683E+02 0.  0.
        -11    1    4    4    0    0 -0.28029213222E+02 -0.49186188602E+01 -0.14283207173E+03  0.14563938451E+03  0.00000000000E+00 0.  1.
         12    1    4    4    0    0  0.33136845066E+02 -0.69530811856E+02 -0.79463202531E+03  0.79835621119E+03  0.00000000000E+00 0. -1.
        -11    1    3    3    0    0  0.40346046414E+02  0.34233601736E+02 -0.10260639951E+03  0.11544616135E+03  0.00000000000E+00 0. -1.
         11    1    3    3    0    0 -0.17338268676E+02  0.73707155280E+02 -0.39182729607E+02  0.85256358119E+02  0.00000000000E+00 0.  1.
         21    1    1    2  503  501 -0.12693438756E+02 -0.61919507329E+02 -0.18111091816E+02  0.65750744650E+02  0.00000000000E+00 0.  1.
         -2    1    1    2    0  502 -0.15421970826E+02  0.28428181029E+02 -0.13596902889E+03  0.13976256823E+03  0.00000000000E+00 0.  1.
<scales pt_clust_5="13000.00000" pt_clust_6="13000.00000" pt_clust_7="13000.00000" pt_clust_8="13000.00000" pt_clust_9="62.31234" pt_clust_10="32.34190"></scales>
<clustering>
<clus scale="   32.342">  2 10  1 -1</clus>
<clus scale="   62.312">  1  9  2 -1</clus>
<clus scale="   81.975">  5  6 -1 -1</clus>
<clus scale="   89.425">  7  8 -1 -1</clus>
<clus scale="  101.266">  2  5  1 -1</clus>
<clus scale="   32.342">  2  5  1 -1</clus>
</clustering>
</event>
<event>
10    4  0.2977685E-005  0.1909886E+03  0.7546771E-02  0.1180727E+00
         21   -1    0    0  501  502  0.00000000000E+00  0.00000000000E+00  0.62117618513E+02  0.62117618513E+02  0.00000000000E+00 0. -1.
          2   -1    0    0  503    0 -0.00000000000E+00 -0.00000000000E+00 -0.13632721097E+04  0.13632721097E+04  0.00000000000E+00 0. -1.
         24    2    1    2    0    0  0.41795375632E+02  0.60076093143E+02 -0.40173266843E+03  0.41630565916E+03  0.81026381973E+02 0.  0.
         23    2    1    2    0    0  0.11079065700E+03  0.93789508815E+02 -0.20904535104E+03  0.27064036585E+03  0.92060888505E+02 0.  0.
        -13    1    3    3    0    0 -0.12998026029E+01  0.65598250184E+02 -0.25137796344E+03  0.25979934645E+03  0.00000000000E+00 0.  1.
         14    1    3    3    0    0  0.43095178235E+02 -0.55221570411E+01 -0.15035470499E+03  0.15650631271E+03  0.00000000000E+00 0. -1.
        -13    1    4    4    0    0  0.68430794257E+02  0.61059553436E+02 -0.53578227071E+02  0.10621520176E+03  0.00000000000E+00 0. -1.
         13    1    4    4    0    0  0.42359862744E+02  0.32729955379E+02 -0.15546712397E+03  0.16442516409E+03  0.00000000000E+00 0.  1.
         21    1    1    2  503  502 -0.20068877495E+02  0.28313316651E+02 -0.12807960505E+03  0.13269811217E+03  0.00000000000E+00 0.  1.
          1    1    1    2  501    0 -0.13251715514E+03 -0.18217891861E+03 -0.56229686666E+03  0.60574559103E+03  0.00000000000E+00 0. -1.
<scales pt_clust_5="13000.00000" pt_clust_6="13000.00000" pt_clust_7="13000.00000" pt_clust_8="13000.00000" pt_clust_9="34.70452" pt_clust_10="167.33639"></scales>
<clustering>
<clus scale="   34.705">  2  9  1 -1</clus>
<clus scale="   81.026">  5  6 -1 -1</clus>
<clus scale="   92.061">  7  8 -1 -1</clus>
<clus scale="  112.365">  2  5  1 -1</clus>
<clus scale="  167.336">  1 10  2 -1</clus>
<clus scale="  167.336">  1  5  2 -1</clus>
</clustering>
</event>
<event>
10    4  0.2977685E-005  0.1273999E+03  0.7546771E-02  0.1233830E+00
          4   -1    0    0  503    0 -0.00000000000E+00  0.00000000000E+00  0.47932246820E+03  0.47932246820E+03  0.00000000000E+00 0. -1.
         21   -1    0    0  501  502  0.00000000000E+00 -0.00000000000E+00 -0.76052321273E+02  0.76052321273E+02  0.00000000000E+00 0.  1.
         24    2    1    2    0    0  0.87297106680E+02 -0.59484209985E+02  0.18695355669E+03  0.22960029464E+03  0.81274269407E+02 0.  0.
         23    2    1    2    0    0 -0.80372846634E+02  0.87103153878E+01  0.99333583492E+02  0.15675590664E+03  0.90385780896E+02 0.  0.
        -11    1    3    3    0    0  0.75937338202E+02 -0.30627385950E+02  0.67289592591E+02  0.10598304286E+03  0.00000000000E+00 0.  1.
         12    1    3    3    0    0  0.11359768478E+02 -0.28856824035E+02  0.11966396410E+03  0.12361725178E+03  0.00000000000E+00 0. -1.
        -13    1    4    4    0    0 -0.68042323312E+02 -0.34509657339E+02  0.64112300318E+02  0.99654710192E+02  0.00000000000E+00 0.  1.
         13    1    4    4    0    0 -0.12330523322E+02  0.43219972726E+02  0.35221283173E+02  0.57101196452E+02  0.00000000000E+00 0. -1.
         21    1    1    2  503  502 -0.84171552308E+01  0.21544841842E+02  0.13344807199E+03  0.13543787000E+03  0.00000000000E+00 0.  1.
          3    1    1    2  501    0  0.14928951849E+01  0.29229052755E+02 -0.16465065241E+02  0.33580718193E+02  0.00000000000E+00 0. -1.
<scales pt_clust_5="13000.00000" pt_clust_6="13000.00000" pt_clust_7="13000.00000" pt_clust_8="13000.00000" pt_clust_9="23.13069" pt_clust_10="29.79135"></scales>
<clustering>
<clus scale="   23.131">  1  9  2 -1</clus>
<clus scale="   29.791">  2 10  1 -1</clus>
<clus scale="   81.274">  5  6 -1 -1</clus>
<clus scale="   90.386">  7  8 -1 -1</clus>
<clus scale="  121.106">  1  5  2 -1</clus>
<clus scale="   29.791">  2  5  1 -1</clus>
</clustering>
</event>
<event>
10    4  0.2977685E-005  0.1045660E+03  0.7546771E-02  0.1276370E+00
         21   -1    0    0  501  502  0.00000000000E+00  0.00000000000E+00  0.53437446238E+02  0.53437446238E+02  0.00000000000E+00 0.  1.
          2   -1    0    0  503    0 -0.00000000000E+00 -0.00000000000E+00 -0.16680175237E+04  0.16680175237E+04  0.00000000000E+00 0. -1.
         24    2    1    2    0    0 -0.20954113222E+02  0.61735162037E+02 -0.66655056445E+03  0.67456927512E+03  0.80645811257E+02 0.  0.
         23    2    1    2    0    0  0.20064190842E+02  0.51919108942E+02 -0.22119803651E+02  0.11017647082E+03  0.92473798345E+02 0.  0.
        -11    1    3    3    0    0 -0.22866271630E+02 -0.14378458785E+02 -0.14560371182E+03  0.14808797166E+03  0.00000000000E+00 0.  1.
         12    1    3    3    0    0  0.19121584086E+01  0.76113620822E+02 -0.52094685263E+03  0.52648130345E+03  0.00000000000E+00 0. -1.
        -13    1    4    4    0    0  0.88456173532E+01  0.70475290538E+02 -0.40488904674E+02  0.81757953280E+02  0.00000000000E+00 0.  1.
         13    1    4    4    0    0  0.11218573489E+02 -0.18556181596E+02  0.18369101023E+02  0.28418517536E+02  0.00000000000E+00 0. -1.
         21    1    1    2  503  502 -0.41586238594E+02 -0.46794202049E+02 -0.40216705762E+03  0.40701038663E+03  0.00000000000E+00 0.  1.
          1    1    1    2  501    0  0.42476160974E+02 -0.66860068930E+02 -0.52374265179E+03  0.52969883743E+03  0.00000000000E+00 0. -1.
<scales pt_clust_5="13000.00000" pt_clust_6="13000.00000" pt_clust_7="13000.00000" pt_clust_8="13000.00000" pt_clust_9="62.60282" pt_clust_10="89.95270"></scales>
<clustering>
<clus scale="   62.603">  2  9  1 -1</clus>
<clus scale="   80.646">  5  6 -1 -1</clus>
<clus scale="   89.953">  1 10  2 -1</clus>
<clus scale="   92.474">  7  8 -1 -1</clus>
<clus scale="   94.268">  2  5  1 -1</clus>
<clus scale="   89.953">  1  5  2 -1</clus>
</clustering>
</event>
<event>
10    4  0.2977685E-005  0.1413308E+03  0.7546771E-02  0.1213822E+00
          2   -1    0    0  503    0 -0.00000000000E+00  0.00000000000E+00  0.56935684658E+03  0.56935684658E+03  0.00000000000E+00 0. -1.
         21   -1    0    0  501  502  0.00000000000E+00 -0.00000000000E+00 -0.82123608048E+02  0.82123608048E+02  0.00000000000E+00 0. -1.
         24    2    1    2    0    0  0.94998084236E+02  0.80067740972E+02  0.21026528440E+03  0.25692470671E+03  0.79770520485E+02 0.  0.
         23    2    1    2    0    0 -0.80370892676E+02 -0.13941686172E+02  0.58848654648E+02  0.13535092231E+03  0.90569625222E+02 0.  0.
        -11    1    3    3    0    0  0.33658484692E+02 -0.73334708072E+01  0.23207146718E+02  0.41536069200E+02  0.00000000000E+00 0.  1.
         12    1    3    3    0    0  0.61339599545E+02  0.87401211779E+02  0.18705813768E+03  0.21538863751E+03  0.00000000000E+00 0. -1.
        -11    1    4    4    0    0 -0.21887906148E+02 -0.49021391787E+02  0.25308205051E+02  0.59352190618E+02  0.00000000000E+00 0.  1.
         11    1    4    4    0    0 -0.58482986528E+02  0.35079705615E+02  0.33540449596E+02  0.75998731690E+02  0.00000000000E+00 0. -1.
         21    1    1    2  503  502  0.40063854366E+02  0.20879706937E+01  0.12585628027E+03  0.13209570520E+03  0.00000000000E+00 0. -1.
          1    1    1    2  501    0 -0.54691045925E+02 -0.68214025494E+02  0.92263019208E+02  0.12710912041E+03  0.00000000000E+00 0. -1.
<scales pt_clust_5="13000.00000" pt_clust_6="13000.00000" pt_clust_7="13000.00000" pt_clust_8="13000.00000" pt_clust_9="40.11823" pt_clust_10="81.12750"></scales>
<clustering>
<clus scale="   40.118">  1  9  2 -1</clus>
<clus scale="   79.771">  5  6 -1 -1</clus>
<clus scale="   81.127">  2 10  1 -1</clus>
<clus scale="   90.570">  7  8 -1 -1</clus>
<clus scale="  134.666">  1  5  2 -1</clus>
<clus scale="   81.127">  2  5  1 -1</clus>
</clustering>
</event>
<event>
10    4  0.2977685E-005  0.1377045E+03  0.7546771E-02  0.1218469E+00
         21   -1    0    0  501  502  0.00000000000E+00  0.00000000000E+00  0.11390864871E+03  0.11390864871E+03  0.00000000000E+00 0.  1.
          2   -1    0    0  503    0 -0.00000000000E+00 -0.00000000000E+00 -0.68145725060E+03  0.68145725060E+03  0.00000000000E+00 0. -1.
         23    2    1    2    0    0 -0.47234218655E+02  0.75297302554E+02 -0.31201045646E+03  0.33716648936E+03  0.91814821370E+02 0.  0.
         24    2    1    2    0    0  0.10862982530E+03 -0.56606643050E+02  0.30345981100E+02  0.15102746613E+03  0.82967861094E+02 0.  0.
        -13    1    4    4    0    0  0.56426293446E+02 -0.16567951565E+01  0.46965293237E+02  0.73433032970E+02  0.00000000000E+00 0.  1.
         14    1    4    4    0    0  0.52203531857E+02 -0.54949847894E+02 -0.16619312137E+02  0.77594433162E+02  0.00000000000E+00 0. -1.
        -13    1    3    3    0    0 -0.12134161568E+02  0.88116721589E+02 -0.19487447349E+03  0.21421450679E+03  0.00000000000E+00 0. -1.
         13    1    3    3    0    0 -0.35100057087E+02 -0.12819419035E+02 -0.11713598298E+03  0.12295198258E+03  0.00000000000E+00 0.  1.
         21    1    1    2  503  502  0.69925592827E+00  0.31085188813E+02 -0.58277727196E+02  0.66053549560E+02  0.00000000000E+00 0.  1.
          1    1    1    2  501    0 -0.62094862576E+02 -0.49775848317E+02 -0.22760639932E+03  0.24111839425E+03  0.00000000000E+00 0. -1.
<scales pt_clust_5="13000.00000" pt_clust_6="13000.00000" pt_clust_7="13000.00000" pt_clust_8="13000.00000" pt_clust_9="31.09305" pt_clust_10="72.58032"></scales>
<clustering>
<clus scale="   31.093">  2  9  1 -1</clus>
<clus scale="   72.580">  1 10  2 -1</clus>
<clus scale="   82.968">  5  6 -1 -1</clus>
<clus scale="   91.815">  7  8 -1 -1</clus>
<clus scale="  131.971">  1  5  2 -1</clus>
<clus scale="   72.580">  1  5  2 -1</clus>
</clustering>
</event>
<event>
10    4  0.2977685E-005  0.4549008E+03  0.7546771E-02  0.1026271E+00
         21   -1    0    0  501  502  0.00000000000E+00  0.00000000000E+00  0.68070380181E+03  0.68070380181E+03  0.00000000000E+00 0. -1.
          2   -1    0    0  503    0 -0.00000000000E+00 -0.00000000000E+00 -0.78852901819E+03  0.78852901819E+03  0.00000000000E+00 0. -1.
         24    2    1    2    0    0  0.73426538631E+02 -0.17506852434E+03 -0.11579347054E+03  0.23661662314E+03  0.80863179118E+02 0.  0.
         23    2    1    2    0    0  0.12618881888E+03 -0.15892202232E+03 -0.33904216045E+03  0.40553103353E+03  0.91246947388E+02 0.  0.
        -13    1    3    3    0    0  0.91207329773E+02 -0.15017368278E+03 -0.10051896266E+03  0.20242276023E+03  0.00000000000E+00 0.  1.
         14    1    3    3    0    0 -0.17780791142E+02 -0.24894841556E+02 -0.15274507879E+02  0.34193862910E+02  0.00000000000E+00 0. -1.
        -13    1    4    4    0    0  0.79228197208E+02 -0.15561674376E+03 -0.28040805893E+03  0.33033673378E+03  0.00000000000E+00 0.  1.
         13    1    4    4    0    0  0.46960621673E+02 -0.33052785559E+01 -0.58634101522E+02  0.75194299754E+02  0.00000000000E+00 0. -1.
         21    1    1    2  503  502 -0.33921109158E+03  0.24396498504E+03 -0.26124809627E+02  0.41864732682E+03  0.00000000000E+00 0. -1.
          1    1    1    2  501    0  0.13959573407E+03  0.90025561610E+02  0.37313522424E+03  0.40843783650E+03  0.00000000000E+00 0. -1.
<scales pt_clust_5="13000.00000" pt_clust_6="13000.00000" pt_clust_7="13000.00000" pt_clust_8="13000.00000" pt_clust_9="390.96358" pt_clust_10="166.10711"></scales>
<clustering>
<clus scale="   80.863">  5  6 -1 -1</clus>
<clus scale="   91.247">  7  8 -1 -1</clus>
<clus scale="  166.107">  1 10  2 -1</clus>
<clus scale="  173.601">  5  7 -1 -1</clus>
<clus scale="  390.964">  1  9  2 -1</clus>
<clus scale="  166.107">  1  5  2 -1</clus>
</clustering>
</event>
<event>
10    4  0.2977685E-005  0.9597288E+02  0.7546771E-02  0.1297823E+00
          2   -1    0    0  503    0 -0.00000000000E+00  0.00000000000E+00  0.42337475230E+03  0.42337475230E+03  0.00000000000E+00 0. -1.
         21   -1    0    0  501  502  0.00000000000E+00 -0.00000000000E+00 -0.69627344669E+02  0.69627344669E+02  0.00000000000E+00 0. -1.
         24    2    1    2    0    0 -0.63377113869E+01 -0.13537111549E+01  0.97577710963E+02  0.12586833988E+03  0.79242855754E+02 0.  0.
         23    2    1    2    0    0  0.40400483987E+02 -0.18854472944E+02  0.12029256520E+01  0.10415865383E+03  0.94126977440E+02 0.  0.
        -11    1    3    3    0    0  0.34858567941E+02  0.10328351040E+02  0.50550519422E+02  0.62266761663E+02  0.00000000000E+00 0.  1.
         12    1    3    3    0    0 -0.41196279328E+02 -0.11682062195E+02  0.47027191541E+02  0.63601578218E+02  0.00000000000E+00 0. -1.
        -11    1    4    4    0    0 -0.40895198481E+00 -0.36196981513E+02  0.33484239664E+02  0.49311084132E+02  0.00000000000E+00 0.  1.
         11    1    4    4    0    0  0.40809435972E+02  0.17342508569E+02 -0.32281314012E+02  0.54847569702E+02  0.00000000000E+00 0. -1.
         21    1    1    2  503  502 -0.21419151361E+02 -0.13828255164E+02  0.70485892745E+02  0.74955064952E+02  0.00000000000E+00 0.  1.
          1    1    1    2  501    0 -0.12643621240E+02  0.34036439263E+02  0.18448087827E+03  0.18802003830E+03  0.00000000000E+00 0. -1.
<scales pt_clust_5="13000.00000" pt_clust_6="13000.00000" pt_clust_7="13000.00000" pt_clust_8="13000.00000" pt_clust_9="25.49511" pt_clust_10="35.90851"></scales>
<clustering>
<clus scale="   25.495">  1  9  2 -1</clus>
<clus scale="   35.909">  2 10  1 -1</clus>
<clus scale="   79.243">  5  6 -1 -1</clus>
<clus scale="   81.427">  1  5  2 -1</clus>
<clus scale="   94.127">  7  8 -1 -1</clus>
<clus scale="   35.909">  2  5  1 -1</clus>
</clustering>
</event>
<event>
10    4  0.2977685E-005  0.1275620E+03  0.7546771E-02  0.1234295E+00
          2   -1    0    0  503    0 -0.00000000000E+00  0.00000000000E+00  0.23989027776E+03  0.23989027776E+03  0.00000000000E+00 0. -1.
         21   -1    0    0  501  502  0.00000000000E+00 -0.00000000000E+00 -0.12670873024E+03  0.12670873024E+03  0.00000000000E+00 0.  1.
         24    2    1    2    0    0  0.16643128443E+01  0.78804847032E+02  0.53949608010E+02  0.12453873555E+03  0.79914720764E+02 0.  0.
         23    2    1    2    0    0 -0.22741994721E+02 -0.91854437421E+02 -0.15631845702E+02  0.13257972192E+03  0.91534649547E+02 0.  0.
        -11    1    3    3    0    0 -0.29257047361E+02  0.57817656975E+02  0.57979571796E+02  0.86951061086E+02  0.00000000000E+00 0.  1.
         12    1    3    3    0    0  0.30921360205E+02  0.20987190057E+02 -0.40299637856E+01  0.37587674463E+02  0.00000000000E+00 0. -1.
        -13    1    4    4    0    0  0.36847144766E+01 -0.64410091663E+02 -0.49724207213E+02  0.81453875364E+02  0.00000000000E+00 0.  1.
         13    1    4    4    0    0 -0.26426709197E+02 -0.27444345758E+02  0.34092361511E+02  0.51125846560E+02  0.00000000000E+00 0. -1.
         21    1    1    2  503  502 -0.12693183349E+02  0.24624757938E+02  0.67590380337E+02  0.73047622282E+02  0.00000000000E+00 0.  1.
          1    1    1    2  501    0  0.33770865225E+02 -0.11575167549E+02  0.72734048752E+01  0.36432928243E+02  0.00000000000E+00 0. -1.
<scales pt_clust_5="13000.00000" pt_clust_6="13000.00000" pt_clust_7="13000.00000" pt_clust_8="13000.00000" pt_clust_9="27.70371" pt_clust_10="33.21523"></scales>
<clustering>
<clus scale="   27.704">  1  9  2 -1</clus>
<clus scale="   33.215">  2 10  1 -1</clus>
<clus scale="   79.915">  5  6 -1 -1</clus>
<clus scale="   91.535">  7  8 -1 -1</clus>
<clus scale="  119.498">  1  5  2 -1</clus>
<clus scale="   33.215">  2  5  1 -1</clus>
</clustering>
</event>
<event>
10    4  0.2977685E-005  0.1000244E+03  0.7546771E-02  0.1287588E+00
          4   -1    0    0  503    0 -0.00000000000E+00  0.00000000000E+00  0.43685461974E+03  0.43685461974E+03  0.00000000000E+00 0. -1.
         21   -1    0    0  501  502  0.00000000000E+00 -0.00000000000E+00 -0.74504331433E+02  0.74504331433E+02  0.00000000000E+00 0. -1.
         24    2    1    2    0    0  0.19347809817E+02  0.25326534449E+02  0.11063725095E+03  0.13997591550E+03  0.79604550937E+02 0.  0.
         23    2    1    2    0    0 -0.31863280863E+02  0.13001851548E+02  0.25348167390E+02  0.10290777882E+03  0.93611775647E+02 0.  0.
        -13    1    3    3    0    0  0.33109925871E+02 -0.17366276121E+02  0.70423951698E+02  0.79733228395E+02  0.00000000000E+00 0.  1.
         14    1    3    3    0    0 -0.13762116054E+02  0.42692810570E+02  0.40213299250E+02  0.60242687102E+02  0.00000000000E+00 0. -1.
        -11    1    4    4    0    0 -0.60477785931E+02 -0.33709448015E+01 -0.11941066224E+01  0.60583428019E+02  0.00000000000E+00 0.  1.
         11    1    4    4    0    0  0.28614505068E+02  0.16372796350E+02  0.26542274012E+02  0.42324350797E+02  0.00000000000E+00 0. -1.
         21    1    1    2  503  502  0.37648693238E+02 -0.29245376745E+02  0.23546627146E+03  0.24024379526E+03  0.00000000000E+00 0. -1.
          3    1    1    2  501    0 -0.25133222191E+02 -0.90830092517E+01 -0.91014014969E+01  0.28231461599E+02  0.00000000000E+00 0. -1.
<scales pt_clust_5="13000.00000" pt_clust_6="13000.00000" pt_clust_7="13000.00000" pt_clust_8="13000.00000" pt_clust_9="47.07219" pt_clust_10="26.72414"></scales>
<clustering>
<clus scale="   26.724">  2 10  1 -1</clus>
<clus scale="   47.072">  1  9  2 -1</clus>
<clus scale="   79.605">  5  6 -1 -1</clus>
<clus scale="   87.055">  1  5  2 -1</clus>
<clus scale="   93.612">  7  8 -1 -1</clus>
<clus scale="   26.724">  2  5  1 -1</clus>
</clustering>
</event>
<event>
10    4  0.2977685E-005  0.2057006E+03  0.7546771E-02  0.1146858E+00
         21   -1    0    0  503  502  0.00000000000E+00  0.00000000000E+00  0.13553030260E+04  0.13553030260E+04  0.00000000000E+00 0.  1.
         -3   -1    0    0    0  501 -0.00000000000E+00 -0.00000000000E+00 -0.87017339433E+02  0.87017339433E+02  0.00000000000E+00 0.  1.
         23    2    1    2    0    0 -0.56975838867E+02 -0.11348413362E+03  0.80013055632E+02  0.18058348246E+03  0.10041618530E+03 0.  0.
         24    2    1    2    0    0  0.31241508209E+02  0.18680711993E+03  0.10706383160E+04  0.10902579552E+04  0.80765545523E+02 0.  0.
        -13    1    4    4    0    0  0.34684494284E+02  0.19115824646E+03  0.10640665254E+04  0.10816570897E+04  0.00000000000E+00 0.  1.
         14    1    4    4    0    0 -0.34429860743E+01 -0.43511265234E+01  0.65717905949E+01  0.86008654654E+01  0.00000000000E+00 0. -1.
        -13    1    3    3    0    0 -0.12090195608E+02 -0.78445774764E+02  0.92911809951E+02  0.12219867772E+03  0.00000000000E+00 0.  1.
         13    1    3    3    0    0 -0.44885643259E+02 -0.35038358856E+02 -0.12898754318E+02  0.58384804745E+02  0.00000000000E+00 0. -1.
         21    1    1    2  503  501 -0.25468795992E+01 -0.70417358634E+02  0.25301481682E+02  0.74868257413E+02  0.00000000000E+00 0.  1.
         -4    1    1    2    0  502  0.28281210257E+02 -0.29056276786E+01  0.92332833271E+02  0.96610670351E+02  0.00000000000E+00 0.  1.
<scales pt_clust_5="13000.00000" pt_clust_6="13000.00000" pt_clust_7="13000.00000" pt_clust_8="13000.00000" pt_clust_9="70.54714" pt_clust_10="28.43008"></scales>
<clustering>
<clus scale="   28.430">  1 10  2 -1</clus>
<clus scale="   70.547">  2  9  1 -1</clus>
<clus scale="   80.766">  5  6 -1 -1</clus>
<clus scale="  100.416">  7  8 -1 -1</clus>
<clus scale="  196.856">  1  5  2 -1</clus>
<clus scale="   28.430">  1  5  2 -1</clus>
</clustering>
</event>
<event>
10    4  0.2977685E-005  0.1516159E+03  0.7546771E-02  0.1200332E+00
          2   -1    0    0  503    0 -0.00000000000E+00  0.00000000000E+00  0.80594777225E+03  0.80594777225E+03  0.00000000000E+00 0. -1.
         21   -1    0    0  501  502  0.00000000000E+00 -0.00000000000E+00 -0.23338820025E+03  0.23338820025E+03  0.00000000000E+00 0. -1.
         23    2    1    2    0    0  0.80282678516E+01 -0.13986589547E+03  0.60428468105E+03  0.62702139512E+03  0.91481869175E+02 0.  0.
         24    2    1    2    0    0 -0.41758650484E+02  0.13535321425E+03  0.10856189874E+02  0.16368328346E+03  0.81302416509E+02 0.  0.
        -11    1    4    4    0    0  0.18716623106E+02  0.77096165571E+02  0.41206482558E+01  0.79442497873E+02  0.00000000000E+00 0.  1.
         12    1    4    4    0    0 -0.60475273590E+02  0.58257048674E+02  0.67355416183E+01  0.84240785590E+02  0.00000000000E+00 0. -1.
        -11    1    3    3    0    0 -0.39020179219E+02 -0.58659792559E+02  0.31932977848E+03  0.32700925533E+03  0.00000000000E+00 0. -1.
         11    1    3    3    0    0  0.47048447071E+02 -0.81206102909E+02  0.28495490257E+03  0.30001213979E+03  0.00000000000E+00 0.  1.
         21    1    1    2  503  502  0.12196061538E+02  0.27096352779E+02  0.99149249932E+02  0.10350618345E+03  0.00000000000E+00 0.  1.
          1    1    1    2  501    0  0.21534321095E+02 -0.22583671557E+02 -0.14173054886E+03  0.14512511046E+03  0.00000000000E+00 0. -1.
<scales pt_clust_5="13000.00000" pt_clust_6="13000.00000" pt_clust_7="13000.00000" pt_clust_8="13000.00000" pt_clust_9="29.71458" pt_clust_10="31.17806"></scales>
<clustering>
<clus scale="   29.715">  1  9  2 -1</clus>
<clus scale="   31.178">  2 10  1 -1</clus>
<clus scale="   81.302">  5  6 -1 -1</clus>
<clus scale="   91.482">  7  8 -1 -1</clus>
<clus scale="  145.700">  2  5  1 -1</clus>
<clus scale="   31.178">  2  5  1 -1</clus>
</clustering>
</event>
<event>
10    4  0.2977685E-005  0.1897762E+03  0.7546771E-02  0.1160082E+00
          2   -1    0    0  503    0 -0.00000000000E+00  0.00000000000E+00  0.73421616555E+03  0.73421616555E+03  0.00000000000E+00 0. -1.
         21   -1    0    0  501  502  0.00000000000E+00 -0.00000000000E+00 -0.10645861898E+03  0.10645861898E+03  0.00000000000E+00 0. -1.
         23    2    1    2    0    0 -0.17582379397E+01 -0.19777095022E+03  0.44292632278E+03  0.49376811994E+03  0.92232254150E+02 0.  0.
         24    2    1    2    0    0  0.10379649886E+02  0.12565849114E+03  0.15167191844E+03  0.21237895399E+03  0.78756940828E+02 0.  0.
        -11    1    4    4    0    0 -0.25147331038E+02  0.62330583326E+02  0.37202163052E+02  0.76821161224E+02  0.00000000000E+00 0.  1.
         12    1    4    4    0    0  0.35526980924E+02  0.63327907810E+02  0.11446975539E+03  0.13555779277E+03  0.00000000000E+00 0. -1.
        -13    1    3    3    0    0 -0.22116671336E+02 -0.17692702254E+03  0.30940468926E+03  0.35710443878E+03  0.00000000000E+00 0. -1.
         13    1    3    3    0    0  0.20358433396E+02 -0.20843927674E+02  0.13352163352E+03  0.13666368116E+03  0.00000000000E+00 0.  1.
         21    1    1    2  503  502  0.15811071682E+02 -0.19005806950E+02  0.31672294782E+02  0.40178911662E+02  0.00000000000E+00 0. -1.
          1    1    1    2  501    0 -0.24432483629E+02  0.91118266031E+02  0.14870105666E+01  0.94348798939E+02  0.00000000000E+00 0. -1.
<scales pt_clust_5="13000.00000" pt_clust_6="13000.00000" pt_clust_7="13000.00000" pt_clust_8="13000.00000" pt_clust_9="24.72268" pt_clust_10="92.79909"></scales>
<clustering>
<clus scale="   24.723">  1  9  2 -1</clus>
<clus scale="   78.757">  5  6 -1 -1</clus>
<clus scale="   92.232">  7  8 -1 -1</clus>
<clus scale="   92.799">  2 10  1 -1</clus>
<clus scale="  183.605">  2  5  1 -1</clus>
<clus scale="   92.799">  2  5  1 -1</clus>
</clustering>
</event>
<event>
10    4  0.2977685E-005  0.1364974E+03  0.7546771E-02  0.1218690E+00
          2   -1    0    0  503    0 -0.00000000000E+00  0.00000000000E+00  0.15778410933E+04  0.15778410933E+04  0.00000000000E+00 0. -1.
         21   -1    0    0  501  502  0.00000000000E+00 -0.00000000000E+00 -0.65059098913E+02  0.65059098913E+02  0.00000000000E+00 0.  1.
         24    2    1    2    0    0 -0.15389203940E+03  0.95102778423E+02  0.78036631483E+03  0.80637482678E+03  0.92420115160E+02 0.  0.
         23    2    1    2    0    0 -0.21759699465E+00 -0.51648554671E+02  0.15396726078E+03  0.18567181255E+03  0.90002689033E+02 0.  0.
        -13    1    3    3    0    0 -0.14195685789E+03  0.42187220217E+02  0.53782934551E+03  0.55784578150E+03  0.00000000000E+00 0.  1.
         14    1    3    3    0    0 -0.11935181515E+02  0.52915558206E+02  0.24253696932E+03  0.24852904527E+03  0.00000000000E+00 0. -1.
        -13    1    4    4    0    0 -0.32385989558E+02 -0.60319168440E+02  0.85536039511E+02  0.10956125436E+03  0.00000000000E+00 0.  1.
         13    1    4    4    0    0  0.32168392563E+02  0.86706137684E+01  0.68431221274E+02  0.76110558192E+02  0.00000000000E+00 0. -1.
         21    1    1    2  503  502  0.98529552201E+02  0.26642458454E+02  0.54636417030E+03  0.55581624647E+03  0.00000000000E+00 0. -1.
          1    1    1    2  501    0  0.55580084195E+02 -0.70096682206E+02  0.32084248504E+02  0.95037306451E+02  0.00000000000E+00 0. -1.
<scales pt_clust_5="13000.00000" pt_clust_6="13000.00000" pt_clust_7="13000.00000" pt_clust_8="13000.00000" pt_clust_9="107.66657" pt_clust_10="89.45776"></scales>
<clustering>
<clus scale="   89.458">  2 10  1 -1</clus>
<clus scale="   90.003">  7  8 -1 -1</clus>
<clus scale="   92.420">  5  6 -1 -1</clus>
<clus scale="  107.667">  1  9  2 -1</clus>
<clus scale="  134.872">  2  7  1 -1</clus>
<clus scale="   89.458">  2  5  1 -1</clus>
</clustering>
</event>
<event>
10    4  0.2977685E-005  0.1446284E+03  0.7546771E-02  0.1232677E+00
         21   -1    0    0  501  502  0.00000000000E+00  0.00000000000E+00  0.37873972662E+03  0.37873972662E+03  0.00000000000E+00 0. -1.
          2   -1    0    0  503    0 -0.00000000000E+00 -0.00000000000E+00 -0.39751844088E+03  0.39751844088E+03  0.00000000000E+00 0. -1.
         24    2    1    2    0    0 -0.28361897652E+02 -0.10914162782E+02 -0.18952921157E+03  0.20761911815E+03  0.79125596333E+02 0.  0.
         23    2    1    2    0    0  0.15720728491E+03  0.70123632718E+02  0.17490364930E+02  0.19629430877E+03  0.92704306784E+02 0.  0.
        -11    1    3    3    0    0 -0.52612479965E+02  0.80768042451E+01 -0.13273428866E+03  0.14300943745E+03  0.00000000000E+00 0.  1.
         12    1    3    3    0    0  0.24250582313E+02 -0.18990967028E+02 -0.56794922913E+02  0.64609680698E+02  0.00000000000E+00 0. -1.
        -11    1    4    4    0    0  0.88512446542E+02  0.14590043243E+02 -0.31753720962E+02  0.95161028523E+02  0.00000000000E+00 0.  1.
         11    1    4    4    0    0  0.68694838367E+02  0.55533589474E+02  0.49244085892E+02  0.10113328025E+03  0.00000000000E+00 0. -1.
         21    1    1    2  503  502 -0.33331049599E+02 -0.85762898600E+02 -0.78068300260E+02  0.12066852593E+03  0.00000000000E+00 0.  1.
          1    1    1    2  501    0 -0.95514337658E+02  0.26553428665E+02  0.23132843264E+03  0.25167621465E+03  0.00000000000E+00 0. -1.
<scales pt_clust_5="13000.00000" pt_clust_6="13000.00000" pt_clust_7="13000.00000" pt_clust_8="13000.00000" pt_clust_9="111.01033" pt_clust_10="100.38883"></scales>
<clustering>
<clus scale="   79.126">  5  6 -1 -1</clus>
<clus scale="   84.761">  2  5  1 -1</clus>
<clus scale="   92.704">  7  8 -1 -1</clus>
<clus scale="  100.389">  1 10  2 -1</clus>
<clus scale="  111.010">  2  9  1 -1</clus>
<clus scale="  100.389">  1  5  2 -1</clus>
</clustering>
</event>
<event>
10    4  0.2977685E-005  0.4850697E+03  0.7546771E-02  0.1017751E+00
          4   -1    0    0  503    0 -0.00000000000E+00  0.00000000000E+00  0.21028384787E+03  0.21028384787E+03  0.00000000000E+00 0. -1.
         21   -1    0    0  501  502  0.00000000000E+00 -0.00000000000E+00 -0.11530264946E+04  0.11530264946E+04  0.00000000000E+00 0. -1.
         24    2    1    2    0    0 -0.32551752307E+03  0.80796515913E+02 -0.44065241778E+03  0.56028115749E+03  0.85150967937E+02 0.  0.
         23    2    1    2    0    0 -0.36311596046E+02  0.94425544041E+02 -0.15738357950E+03  0.20528907751E+03  0.84494371861E+02 0.  0.
        -13    1    3    3    0    0 -0.46001668035E+02  0.24308167397E+02 -0.12216756776E+03  0.13278537222E+03  0.00000000000E+00 0.  1.
         14    1    3    3    0    0 -0.27951585504E+03  0.56488348517E+02 -0.31848485002E+03  0.42749578527E+03  0.00000000000E+00 0. -1.
        -13    1    4    4    0    0 -0.22673762421E+02  0.14202576349E+02  0.14817095898E+01  0.26795673915E+02  0.00000000000E+00 0.  1.
         13    1    4    4    0    0 -0.13637833625E+02  0.80222967692E+02 -0.15886528909E+03  0.17849340360E+03  0.00000000000E+00 0. -1.
         21    1    1    2  503  502 -0.31821807216E+02 -0.25804696849E+02  0.15329040534E+02  0.43743448397E+02  0.00000000000E+00 0.  1.
          3    1    1    2  501    0  0.39365092633E+03 -0.14941736311E+03 -0.36003568999E+03  0.55399665908E+03  0.00000000000E+00 0. -1.
<scales pt_clust_5="13000.00000" pt_clust_6="13000.00000" pt_clust_7="13000.00000" pt_clust_8="13000.00000" pt_clust_9="40.96962" pt_clust_10="410.44499"></scales>
<clustering>
<clus scale="   40.970">  1  9  2 -1</clus>
<clus scale="   84.494">  7  8 -1 -1</clus>
<clus scale="   85.151">  5  6 -1 -1</clus>
<clus scale="  124.220">  5  7 -1 -1</clus>
<clus scale="  410.445">  2 10  1 -1</clus>
<clus scale="  410.445">  2  5  1 -1</clus>
</clustering>
</event>
<event>
10    4  0.2977685E-005  0.3523975E+03  0.7546771E-02  0.1061925E+00
         21   -1    0    0  501  502  0.00000000000E+00  0.00000000000E+00  0.48194445397E+03  0.48194445397E+03  0.00000000000E+00 0.  1.
          2   -1    0    0  503    0 -0.00000000000E+00 -0.00000000000E+00 -0.11497347292E+04  0.11497347292E+04  0.00000000000E+00 0. -1.
         23    2    1    2    0    0 -0.11123703471E+03 -0.42018606725E+03 -0.58795647903E+03  0.73693444055E+03  0.91921376378E+02 0.  0.
         24    2    1    2    0    0  0.66343294868E+02  0.25923355991E+03  0.95302019545E+02  0.29520492706E+03  0.80374141812E+02 0.  0.
        -11    1    4    4    0    0  0.32412507013E+02  0.78615686304E+02  0.69096092130E+02  0.10956854791E+03  0.00000000000E+00 0.  1.
         12    1    4    4    0    0  0.33930787854E+02  0.18061787361E+03  0.26205927415E+02  0.18563637915E+03  0.00000000000E+00 0. -1.
        -13    1    3    3    0    0 -0.48257844391E+01 -0.13396669056E+03 -0.13171313753E+03  0.18793273524E+03  0.00000000000E+00 0.  1.
         13    1    3    3    0    0 -0.10641125027E+03 -0.28621937669E+03 -0.45624334149E+03  0.54900170531E+03  0.00000000000E+00 0. -1.
         21    1    1    2  503  502  0.39472164790E+02  0.83500343052E+02 -0.37443146929E+03  0.38565435856E+03  0.00000000000E+00 0.  1.
          1    1    1    2  501    0  0.54215750497E+01  0.77452164284E+02  0.19929565350E+03  0.21388545704E+03  0.00000000000E+00 0. -1.
<scales pt_clust_5="13000.00000" pt_clust_6="13000.00000" pt_clust_7="13000.00000" pt_clust_8="13000.00000" pt_clust_9="93.83591" pt_clust_10="77.64168"></scales>
<clustering>
<clus scale="   77.642">  1 10  2 -1</clus>
<clus scale="   80.374">  5  6 -1 -1</clus>
<clus scale="   91.921">  7  8 -1 -1</clus>
<clus scale="   93.836">  2  9  1 -1</clus>
<clus scale="  349.563">  1  5  2 -1</clus>
<clus scale="   77.642">  1  5  2 -1</clus>
</clustering>
</event>
<event>
10    4  0.2977685E-005  0.1977416E+03  0.7546771E-02  0.1152978E+00
         21   -1    0    0  501  502  0.00000000000E+00  0.00000000000E+00  0.11549002456E+03  0.11549002456E+03  0.00000000000E+00 0.  1.
          2   -1    0    0  503    0 -0.00000000000E+00 -0.00000000000E+00 -0.60438635732E+03  0.60438635732E+03  0.00000000000E+00 0. -1.
         24    2    1    2    0    0 -0.71979749997E+01  0.18390407775E+03 -0.24613452953E+03  0.31798268434E+03  0.81598163317E+02 0.  0.
         23    2    1    2    0    0 -0.68575379359E+02 -0.15520167593E+03 -0.72005096177E+02  0.20735037796E+03  0.94970008412E+02 0.  0.
        -11    1    3    3    0    0 -0.21628285477E+02  0.15882108625E+02 -0.11894392971E+02  0.29351332017E+02  0.00000000000E+00 0.  1.
         12    1    3    3    0    0  0.14430310477E+02  0.16802196912E+03 -0.23424013656E+03  0.28863135232E+03  0.00000000000E+00 0. -1.
        -11    1    4    4    0    0 -0.85466616994E+02 -0.82870563706E+02 -0.55070273619E+02  0.13116709948E+03  0.00000000000E+00 0.  1.
         11    1    4    4    0    0  0.16891237635E+02 -0.72331112228E+02 -0.16934822558E+02  0.76183278480E+02  0.00000000000E+00 0. -1.
         21    1    1    2  503  502  0.22630400742E+02 -0.89248198583E+01 -0.10469055305E+03  0.10747976249E+03  0.00000000000E+00 0.  1.
          1    1    1    2  501    0  0.53142953617E+02 -0.19777581955E+02 -0.66066154011E+02  0.87063557089E+02  0.00000000000E+00 0. -1.
<scales pt_clust_5="13000.00000" pt_clust_6="13000.00000" pt_clust_7="13000.00000" pt_clust_8="13000.00000" pt_clust_9="24.32668" pt_clust_10="60.44106"></scales>
<clustering>
<clus scale="   24.327">  2  9  1 -1</clus>
<clus scale="   60.441">  1 10  2 -1</clus>
<clus scale="   81.598">  5  6 -1 -1</clus>
<clus scale="   94.970">  7  8 -1 -1</clus>
<clus scale="  191.679">  2  5  1 -1</clus>
<clus scale="   60.441">  1  5  2 -1</clus>
</clustering>
</event>
<event>
10    4  0.2977685E-005  0.1055866E+03  0.7546771E-02  0.1276842E+00
          2   -1    0    0  503    0 -0.00000000000E+00  0.00000000000E+00  0.15198275259E+03  0.15198275259E+03  0.00000000000E+00 0. -1.
         21   -1    0    0  501  502  0.00000000000E+00 -0.00000000000E+00 -0.26756508105E+03  0.26756508105E+03  0.00000000000E+00 0.  1.
         24    2    1    2    0    0 -0.19189543677E+02 -0.78847776917E+01  0.86377201102E+02  0.11925544170E+03  0.79564006938E+02 0.  0.
         23    2    1    2    0    0  0.66470182651E+02 -0.15739716929E+02 -0.78170280338E+02  0.14150050560E+03  0.96154960793E+02 0.  0.
        -13    1    3    3    0    0  0.13494343179E+02  0.29545157259E+02  0.36226572007E+02  0.48655710196E+02  0.00000000000E+00 0.  1.
         14    1    3    3    0    0 -0.32683886856E+02 -0.37429934950E+02  0.50150629095E+02  0.70599731508E+02  0.00000000000E+00 0. -1.
        -13    1    4    4    0    0 -0.78442426013E+01 -0.24374748011E+02  0.85246450922E+01  0.26987590788E+02  0.00000000000E+00 0. -1.
         13    1    4    4    0    0  0.74314425252E+02  0.86350310821E+01 -0.86694925431E+02  0.11451291481E+03  0.00000000000E+00 0.  1.
         21    1    1    2  503  502 -0.25948488534E+02  0.99243181676E+01  0.43927674447E+01  0.28126723131E+02  0.00000000000E+00 0. -1.
          1    1    1    2  501    0 -0.21332150440E+02  0.13700176453E+02 -0.12818201667E+03  0.13066516321E+03  0.00000000000E+00 0. -1.
<scales pt_clust_5="13000.00000" pt_clust_6="13000.00000" pt_clust_7="13000.00000" pt_clust_8="13000.00000" pt_clust_9="29.91692" pt_clust_10="25.35262"></scales>
<clustering>
<clus scale="   25.353">  2 10  1 -1</clus>
<clus scale="   29.917">  1  9  2 -1</clus>
<clus scale="   79.564">  5  6 -1 -1</clus>
<clus scale="   90.737">  1  5  2 -1</clus>
<clus scale="   96.155">  7  8 -1 -1</clus>
<clus scale="   25.353">  2  5  1 -1</clus>
</clustering>
</event>
<event>
10    4  0.2977685E-005  0.2776127E+03  0.7546771E-02  0.1097415E+00
         21   -1    0    0  501  502  0.00000000000E+00  0.00000000000E+00  0.11084600985E+03  0.11084600985E+03  0.00000000000E+00 0. -1.
          2   -1    0    0  503    0 -0.00000000000E+00 -0.00000000000E+00 -0.17861229099E+04  0.17861229099E+04  0.00000000000E+00 0. -1.
         24    2    1    2    0    0  0.18245991859E+03  0.18775138762E+03 -0.12985141298E+04  0.13270888484E+04  0.80521182974E+02 0.  0.
         23    2    1    2    0    0 -0.22758416147E+03 -0.84127988353E+02 -0.16707911690E+03  0.30809410022E+03  0.90191320563E+02 0.  0.
        -11    1    3    3    0    0  0.54478567060E+02  0.20185948461E+02 -0.18938842962E+03  0.19809937925E+03  0.00000000000E+00 0.  1.
         12    1    3    3    0    0  0.12798135153E+03  0.16756543916E+03 -0.11091257001E+04  0.11289894691E+04  0.00000000000E+00 0. -1.
        -13    1    4    4    0    0 -0.16869653141E+03 -0.10217293600E+03 -0.12962737491E+03  0.23601077282E+03  0.00000000000E+00 0. -1.
         13    1    4    4    0    0 -0.58887630063E+02  0.18044947649E+02 -0.37451741998E+02  0.72083327398E+02  0.00000000000E+00 0.  1.
         21    1    1    2  503  502 -0.13370846221E+00  0.21558835344E+02 -0.46058384366E+02  0.50854459290E+02  0.00000000000E+00 0. -1.
          1    1    1    2  501    0  0.45257951346E+02 -0.12518223461E+03 -0.16362526897E+03  0.21093151180E+03  0.00000000000E+00 0. -1.
<scales pt_clust_5="13000.00000" pt_clust_6="13000.00000" pt_clust_7="13000.00000" pt_clust_8="13000.00000" pt_clust_9="21.55925" pt_clust_10="130.92456"></scales>
<clustering>
<clus scale="   21.559">  2  9  1 -1</clus>
<clus scale="   80.521">  5  6 -1 -1</clus>
<clus scale="   90.191">  7  8 -1 -1</clus>
<clus scale="  130.925">  1 10  2 -1</clus>
<clus scale="  274.623">  2  5  1 -1</clus>
<clus scale="  130.925">  1  5  2 -1</clus>
</clustering>
</event>
<event>
10    4  0.2977685E-005  0.1261690E+03  0.7546771E-02  0.1253455E+00
         21   -1    0    0  503  502  0.00000000000E+00  0.00000000000E+00  0.97525232847E+02  0.97525232847E+02  0.00000000000E+00 0.  1.
          2   -1    0    0  502    0 -0.00000000000E+00 -0.00000000000E+00 -0.41256216097E+03  0.41256216097E+03  0.00000000000E+00 0. -1.
         23    2    1    2    0    0  0.53894041564E+01 -0.23536956665E+01  0.45614975307E+01  0.81693890178E+02  0.81354157068E+02 0.  0.
         24    2    1    2    0    0 -0.85639542470E+02 -0.60928456479E+02 -0.22503352166E+03  0.26225801460E+03  0.84218598333E+02 0.  0.
        -13    1    4    4    0    0 -0.10357248503E+01 -0.49208428491E+02 -0.78826378347E+02  0.92930834947E+02  0.00000000000E+00 0.  1.
         14    1    4    4    0    0 -0.84603817620E+02 -0.11720027988E+02 -0.14620714331E+03  0.16932717965E+03  0.00000000000E+00 0. -1.
        -11    1    3    3    0    0 -0.32293435254E+02  0.13364978419E+02 -0.12943801453E+02  0.37269700894E+02  0.00000000000E+00 0.  1.
         11    1    3    3    0    0  0.37682839410E+02 -0.15718674086E+02  0.17505298984E+02  0.44424189284E+02  0.00000000000E+00 0. -1.
         21    1    1    2  503  501 -0.81932431195E+01  0.45534737672E+02 -0.35431696069E+02  0.58274751428E+02  0.00000000000E+00 0.  1.
          1    1    1    2  501    0  0.88443381433E+02  0.17747414474E+02 -0.59133207927E+02  0.10786073762E+03  0.00000000000E+00 0. -1.
<scales pt_clust_5="13000.00000" pt_clust_6="13000.00000" pt_clust_7="13000.00000" pt_clust_8="13000.00000" pt_clust_9="46.26599" pt_clust_10="93.94601"></scales>
<clustering>
<clus scale="   46.266">  1  9  2 -1</clus>
<clus scale="   81.354">  7  8 -1 -1</clus>
<clus scale="   83.896">  2  7  1 -1</clus>
<clus scale="   84.219">  5  6 -1 -1</clus>
<clus scale="   93.946">  1 10  2 -1</clus>
<clus scale="   46.266">  1  5  2 -1</clus>
</clustering>
</event>
<event>
10    4  0.2977685E-005  0.1516931E+03  0.7546771E-02  0.1200969E+00
          2   -1    0    0  503    0 -0.00000000000E+00  0.00000000000E+00  0.31966889717E+03  0.31966889717E+03  0.00000000000E+00 0. -1.
         21   -1    0    0  501  502  0.00000000000E+00 -0.00000000000E+00 -0.34253833463E+03  0.34253833463E+03  0.00000000000E+00 0. -1.
         24    2    1    2    0    0  0.79087032527E+02 -0.10549000504E+03  0.24257758403E+03  0.28823699335E+03  0.82787560571E+02 0.  0.
         23    2    1    2    0    0 -0.46946469441E+02  0.45118102153E+02 -0.15120915419E+03  0.19073848438E+03  0.96318985551E+02 0.  0.
        -11    1    3    3    0    0  0.67954769118E+02 -0.26282494661E+02  0.88488351053E+02  0.11462464152E+03  0.00000000000E+00 0.  1.
         12    1    3    3    0    0  0.11132263409E+02 -0.79207510380E+02  0.15408923298E+03  0.17361235183E+03  0.00000000000E+00 0. -1.
        -11    1    4    4    0    0  0.12700695158E+01  0.63976035941E+02 -0.92306565234E+02  0.11231673178E+03  0.00000000000E+00 0.  1.
         11    1    4    4    0    0 -0.48216538957E+02 -0.18857933788E+02 -0.58902588955E+02  0.78421752603E+02  0.00000000000E+00 0. -1.
         21    1    1    2  503  502 -0.28469993934E+02 -0.10538369933E+02  0.16429335375E+02  0.34518413293E+02  0.00000000000E+00 0.  1.
          1    1    1    2  501    0 -0.36705691521E+01  0.70910272821E+02 -0.13066720267E+03  0.14871334077E+03  0.00000000000E+00 0. -1.
<scales pt_clust_5="13000.00000" pt_clust_6="13000.00000" pt_clust_7="13000.00000" pt_clust_8="13000.00000" pt_clust_9="30.35783" pt_clust_10="70.73315"></scales>
<clustering>
<clus scale="   30.358">  1  9  2 -1</clus>
<clus scale="   70.733">  2 10  1 -1</clus>
<clus scale="   82.788">  5  6 -1 -1</clus>
<clus scale="   96.319">  7  8 -1 -1</clus>
<clus scale="  143.483">  1  5  2 -1</clus>
<clus scale="   70.733">  2  5  1 -1</clus>
</clustering>
</event>
<event>
10    4  0.2977685E-005  0.9191488E+02  0.7546771E-02  0.1302916E+00
         21   -1    0    0  501  502  0.00000000000E+00  0.00000000000E+00  0.15423012397E+03  0.15423012397E+03  0.00000000000E+00 0. -1.
          2   -1    0    0  503    0 -0.00000000000E+00 -0.00000000000E+00 -0.21181606363E+03  0.21181606363E+03  0.00000000000E+00 0. -1.
         24    2    1    2    0    0  0.34799007208E+01  0.15876242609E+01 -0.10563580139E+03  0.13319971694E+03  0.81046972782E+02 0.  0.
         23    2    1    2    0    0 -0.44904610674E+02  0.33197143828E+02  0.47639577292E+02  0.11525223475E+03  0.88854228217E+02 0.  0.
        -11    1    3    3    0    0  0.18274458594E+02 -0.31548007148E+02 -0.82411256531E+02  0.90115746653E+02  0.00000000000E+00 0.  1.
         12    1    3    3    0    0 -0.14794557873E+02  0.33135631409E+02 -0.23224544860E+02  0.43083970284E+02  0.00000000000E+00 0. -1.
        -11    1    4    4    0    0 -0.61422969731E+02  0.47219736953E+02  0.19784224134E+02  0.79961867743E+02  0.00000000000E+00 0. -1.
         11    1    4    4    0    0  0.16518359056E+02 -0.14022593125E+02  0.27855353158E+02  0.35290367006E+02  0.00000000000E+00 0.  1.
         21    1    1    2  503  502  0.69509371072E+01 -0.23352269301E+02 -0.49907635132E+02  0.55537519324E+02  0.00000000000E+00 0.  1.
          1    1    1    2  501    0  0.34473772846E+02 -0.11432498788E+02  0.50317919574E+02  0.62056716583E+02  0.00000000000E+00 0. -1.
<scales pt_clust_5="13000.00000" pt_clust_6="13000.00000" pt_clust_7="13000.00000" pt_clust_8="13000.00000" pt_clust_9="24.36481" pt_clust_10="36.84197"></scales>
<clustering>
<clus scale="   24.365">  2  9  1 -1</clus>
<clus scale="   36.842">  1 10  2 -1</clus>
<clus scale="   81.047">  5  6 -1 -1</clus>
<clus scale="   84.391">  2  5  1 -1</clus>
<clus scale="   88.854">  7  8 -1 -1</clus>
<clus scale="   36.842">  1  5  2 -1</clus>
</clustering>
</event>
<event>
10    4  0.2977685E-005  0.9237599E+02  0.7546771E-02  0.1304098E+00
         21   -1    0    0  501  502  0.00000000000E+00  0.00000000000E+00  0.92738226325E+02  0.92738226325E+02  0.00000000000E+00 0. -1.
          2   -1    0    0  503    0 -0.00000000000E+00 -0.00000000000E+00 -0.34462317025E+03  0.34462317025E+03  0.00000000000E+00 0. -1.
         24    2    1    2    0    0 -0.90025870886E+01  0.13066190540E+02 -0.20480173678E+03  0.22048585668E+03  0.80115477268E+02 0.  0.
         23    2    1    2    0    0  0.18985263141E+02  0.28174152342E+02  0.19907559734E+02  0.99419157678E+02  0.91288744663E+02 0.  0.
        -11    1    3    3    0    0  0.12420323651E+02  0.43021432626E+02 -0.10795743375E+03  0.11687564163E+03  0.00000000000E+00 0.  1.
         12    1    3    3    0    0 -0.21422910740E+02 -0.29955242085E+02 -0.96844303028E+02  0.10361021505E+03  0.00000000000E+00 0. -1.
        -13    1    4    4    0    0 -0.29020698430E+02 -0.11383765579E+02  0.20323274019E+02  0.37213257355E+02  0.00000000000E+00 0.  1.
         13    1    4    4    0    0  0.48005961571E+02  0.39557917921E+02 -0.41571428474E+00  0.62205900323E+02  0.00000000000E+00 0. -1.
         21    1    1    2  503  502  0.96823278419E+01 -0.30051235781E+02 -0.83616913507E+02  0.89379038196E+02  0.00000000000E+00 0. -1.
          1    1    1    2  501    0 -0.19665003894E+02 -0.11189107101E+02  0.16626146626E+02  0.28077344025E+02  0.00000000000E+00 0. -1.
<scales pt_clust_5="13000.00000" pt_clust_6="13000.00000" pt_clust_7="13000.00000" pt_clust_8="13000.00000" pt_clust_9="31.77454" pt_clust_10="22.62539"></scales>
<clustering>
<clus scale="   22.625">  1 10  2 -1</clus>
<clus scale="   31.775">  2  9  1 -1</clus>
<clus scale="   80.115">  5  6 -1 -1</clus>
<clus scale="   81.352">  2  5  1 -1</clus>
<clus scale="   91.289">  7  8 -1 -1</clus>
<clus scale="   22.625">  1  5  2 -1</clus>
</clustering>
</event>
<event>
10    4  0.2977685E-005  0.9309657E+02  0.7546771E-02  0.1302242E+00
         21   -1    0    0  503  502  0.00000000000E+00  0.00000000000E+00  0.32413592716E+03  0.32413592716E+03  0.00000000000E+00 0.  1.
         -1   -1    0    0    0  501 -0.00000000000E+00 -0.00000000000E+00 -0.12107632348E+03  0.12107632348E+03  0.00000000000E+00 0.  1.
         23    2    1    2    0    0  0.14702886260E+02 -0.22569425393E+02  0.16506081546E+02  0.96737957988E+02  0.91434282196E+02 0.  0.
         24    2    1    2    0    0 -0.25072828890E+02 -0.64506682905E+02  0.14362455848E+03  0.17852945180E+03  0.80342967799E+02 0.  0.
        -13    1    4    4    0    0  0.10839565413E+02 -0.58590476452E+02  0.12305689218E+03  0.13672358546E+03  0.00000000000E+00 0.  1.
         14    1    4    4    0    0 -0.35912394303E+02 -0.59162064531E+01  0.20567666302E+02  0.41805866341E+02  0.00000000000E+00 0. -1.
        -13    1    3    3    0    0 -0.14657956179E+02  0.30960712188E+02  0.66248946647E+01  0.34889978616E+02  0.00000000000E+00 0.  1.
         13    1    3    3    0    0  0.29360842439E+02 -0.53530137581E+02  0.98811868814E+01  0.61847979371E+02  0.00000000000E+00 0. -1.
         21    1    1    2  503  501 -0.50168451526E+01  0.20022082867E+02 -0.50132123872E+02  0.54215149004E+02  0.00000000000E+00 0. -1.
         -2    1    1    2    0  502  0.15386787783E+02  0.67054025431E+02  0.93061087522E+02  0.11572969185E+03  0.00000000000E+00 0.  1.
<scales pt_clust_5="13000.00000" pt_clust_6="13000.00000" pt_clust_7="13000.00000" pt_clust_8="13000.00000" pt_clust_9="20.64104" pt_clust_10="71.83887"></scales>
<clustering>
<clus scale="   20.641">  2  9  1 -1</clus>
<clus scale="   71.839">  1 10  2 -1</clus>
<clus scale="   80.343">  5  6 -1 -1</clus>
<clus scale="   82.230">  1  5  2 -1</clus>
<clus scale="   91.434">  7  8 -1 -1</clus>
<clus scale="   71.839">  1  5  2 -1</clus>
</clustering>
</event>
<event>
10    4  0.2977685E-005  0.3262898E+03  0.7546771E-02  0.1125189E+00
         21   -1    0    0  501  502  0.00000000000E+00  0.00000000000E+00  0.17224960368E+03  0.17224960368E+03  0.00000000000E+00 0. -1.
          4   -1    0    0  503    0 -0.00000000000E+00 -0.00000000000E+00 -0.10379934472E+04  0.10379934472E+04  0.00000000000E+00 0. -1.
         24    2    1    2    0    0 -0.20569711758E+02 -0.65390171831E+01 -0.59074265794E+02  0.10227378487E+03  0.80649156254E+02 0.  0.
         23    2    1    2    0    0  0.31281913386E+03 -0.29416659531E+02 -0.34300445019E+03  0.47301725600E+03  0.85861057878E+02 0.  0.
        -11    1    3    3    0    0 -0.75005369058E-01  0.27240432315E+02 -0.56446684187E+02  0.62675951801E+02  0.00000000000E+00 0.  1.
         12    1    3    3    0    0 -0.20494706389E+02 -0.33779449498E+02 -0.26275816069E+01  0.39597833066E+02  0.00000000000E+00 0. -1.
        -13    1    4    4    0    0  0.11029228909E+03  0.19295472453E+02 -0.80472564539E+02  0.13788595988E+03  0.00000000000E+00 0.  1.
         13    1    4    4    0    0  0.20252684477E+03 -0.48712131984E+02 -0.26253188565E+03  0.33513129612E+03  0.00000000000E+00 0. -1.
         21    1    1    2  503  502  0.15612901611E+02 -0.37674439842E+02 -0.24939103343E+03  0.25270341049E+03  0.00000000000E+00 0.  1.
          3    1    1    2  501    0 -0.30786232371E+03  0.73630116556E+02 -0.21427409405E+03  0.38224859948E+03  0.00000000000E+00 0. -1.
<scales pt_clust_5="13000.00000" pt_clust_6="13000.00000" pt_clust_7="13000.00000" pt_clust_8="13000.00000" pt_clust_9="40.78144" pt_clust_10="314.79029"></scales>
<clustering>
<clus scale="   40.781">  2  9  1 -1</clus>
<clus scale="   80.649">  5  6 -1 -1</clus>
<clus scale="   83.500">  2  5  1 -1</clus>
<clus scale="   85.861">  7  8 -1 -1</clus>
<clus scale="  314.790">  1 10  2 -1</clus>
<clus scale="  314.790">  1  5  2 -1</clus>
</clustering>
</event>
<event>
10    4  0.2977685E-005  0.1878797E+03  0.7546771E-02  0.1161676E+00
          2   -1    0    0  503    0 -0.00000000000E+00  0.00000000000E+00  0.17334794517E+04  0.17334794517E+04  0.00000000000E+00 0. -1.
         21   -1    0    0  501  502  0.00000000000E+00 -0.00000000000E+00 -0.60232675374E+02  0.60232675374E+02  0.00000000000E+00 0.  1.
         24    2    1    2    0    0  0.17784083568E+01  0.13974973425E+03  0.11376072809E+04  0.11490077003E+04  0.80840700199E+02 0.  0.
         23    2    1    2    0    0  0.18007953591E+02 -0.20221106699E+03  0.48521104293E+03  0.53406958998E+03  0.92665898573E+02 0.  0.
        -13    1    3    3    0    0  0.27472634007E+02  0.71301470854E+02  0.36284389180E+03  0.37080228584E+03  0.00000000000E+00 0.  1.
         14    1    3    3    0    0 -0.25694225650E+02  0.68448263394E+02  0.77476338910E+03  0.77820541446E+03  0.00000000000E+00 0. -1.
        -13    1    4    4    0    0  0.42978578189E+02 -0.98567726353E+02  0.16840976587E+03  0.19981142135E+03  0.00000000000E+00 0.  1.
         13    1    4    4    0    0 -0.24970624597E+02 -0.10364334063E+03  0.31680127706E+03  0.33425816863E+03  0.00000000000E+00 0. -1.
         21    1    1    2  503  502 -0.11362555770E+02  0.18013867831E+02  0.60628435957E+02  0.64260519407E+02  0.00000000000E+00 0. -1.
          1    1    1    2  501    0 -0.84238061784E+01  0.44447464906E+02 -0.10199983498E+02  0.46374317358E+02  0.00000000000E+00 0. -1.
<scales pt_clust_5="13000.00000" pt_clust_6="13000.00000" pt_clust_7="13000.00000" pt_clust_8="13000.00000" pt_clust_9="21.29805" pt_clust_10="45.45322"></scales>
<clustering>
<clus scale="   21.298">  1  9  2 -1</clus>
<clus scale="   45.453">  2 10  1 -1</clus>
<clus scale="   80.841">  5  6 -1 -1</clus>
<clus scale="   92.666">  7  8 -1 -1</clus>
<clus scale="  182.338">  1  5  2 -1</clus>
<clus scale="   45.453">  2  5  1 -1</clus>
</clustering>
</event>
<event>
10    4  0.2977685E-005  0.9228102E+02  0.7546771E-02  0.1302718E+00
         21   -1    0    0  501  502  0.00000000000E+00  0.00000000000E+00  0.59180626344E+02  0.59180626344E+02  0.00000000000E+00 0. -1.
          2   -1    0    0  503    0 -0.00000000000E+00 -0.00000000000E+00 -0.39988473175E+03  0.39988473175E+03  0.00000000000E+00 0. -1.
         23    2    1    2    0    0  0.30457800983E+02  0.11042733150E+01 -0.14913686086E+03  0.17598970455E+03  0.88327095401E+02 0.  0.
         24    2    1    2    0    0  0.50344896274E+01 -0.32781192838E+02 -0.43266091911E+01  0.86077831242E+02  0.79314064292E+02 0.  0.
        -11    1    4    4    0    0 -0.34771215546E+02 -0.29732719619E+02  0.12547046353E+01  0.45767306346E+02  0.00000000000E+00 0.  1.
         12    1    4    4    0    0  0.39805705173E+02 -0.30484732185E+01 -0.55813138265E+01  0.40310524895E+02  0.00000000000E+00 0. -1.
        -11    1    3    3    0    0  0.38912277639E+02  0.34657515124E+02 -0.11973705172E+03  0.13058434156E+03  0.00000000000E+00 0.  1.
         11    1    3    3    0    0 -0.84544766569E+01 -0.33553241809E+02 -0.29399809141E+02  0.45405362997E+02  0.00000000000E+00 0. -1.
         21    1    1    2  503  502 -0.88736855584E+01  0.31075660800E+02 -0.75447810634E+02  0.82078079406E+02  0.00000000000E+00 0. -1.
          1    1    1    2  501    0 -0.26618605052E+02  0.60125872277E+00 -0.11179282473E+03  0.11491974290E+03  0.00000000000E+00 0. -1.
<scales pt_clust_5="13000.00000" pt_clust_6="13000.00000" pt_clust_7="13000.00000" pt_clust_8="13000.00000" pt_clust_9="32.80422" pt_clust_10="26.62541"></scales>
<clustering>
<clus scale="   26.625">  1 10  2 -1</clus>
<clus scale="   32.804">  2  9  1 -1</clus>
<clus scale="   79.314">  5  6 -1 -1</clus>
<clus scale="   83.695">  1  5  2 -1</clus>
<clus scale="   88.327">  7  8 -1 -1</clus>
<clus scale="   26.625">  1  5  2 -1</clus>
</clustering>
</event>
<event>
10    4  0.2977685E-005  0.1467683E+03  0.7546771E-02  0.1222569E+00
         21   -1    0    0  501  502  0.00000000000E+00  0.00000000000E+00  0.47147592573E+03  0.47147592573E+03  0.00000000000E+00 0.  1.
          2   -1    0    0  503    0 -0.00000000000E+00 -0.00000000000E+00 -0.67212410116E+03  0.67212410116E+03  0.00000000000E+00 0. -1.
         23    2    1    2    0    0  0.10666364098E+02 -0.36041045912E+02  0.41338553738E+02  0.10711807793E+03  0.91392988141E+02 0.  0.
         24    2    1    2    0    0  0.10851754811E+03 -0.53750596129E+02  0.35276785825E+03  0.38136214950E+03  0.79540822347E+02 0.  0.
        -11    1    4    4    0    0  0.61747233673E+02 -0.59774027828E+02  0.29234934234E+03  0.30471920392E+03  0.00000000000E+00 0.  1.
         12    1    4    4    0    0  0.46770314437E+02  0.60234316993E+01  0.60418515915E+02  0.76642945581E+02  0.00000000000E+00 0. -1.
        -13    1    3    3    0    0 -0.33007301314E+02 -0.29771397772E+02 -0.30205572450E+01  0.44552686017E+02  0.00000000000E+00 0.  1.
         13    1    3    3    0    0  0.43673665411E+02 -0.62696481399E+01  0.44359110983E+02  0.62565391915E+02  0.00000000000E+00 0. -1.
         21    1    1    2  503  502  0.45208172881E+02 -0.40849528634E+02 -0.92801211302E+02  0.11101588942E+03  0.00000000000E+00 0. -1.
          1    1    1    2  501    0 -0.16439208509E+03  0.13064117067E+03 -0.50195337612E+03  0.54410391003E+03  0.00000000000E+00 0. -1.
<scales pt_clust_5="13000.00000" pt_clust_6="13000.00000" pt_clust_7="13000.00000" pt_clust_8="13000.00000" pt_clust_9="60.92998" pt_clust_10="123.34586"></scales>
<clustering>
<clus scale="   60.930">  2  9  1 -1</clus>
<clus scale="   79.541">  5  6 -1 -1</clus>
<clus scale="   91.393">  7  8 -1 -1</clus>
<clus scale="  100.016">  2  7  1 -1</clus>
<clus scale="  123.346">  1 10  2 -1</clus>
<clus scale="  123.346">  1  5  2 -1</clus>
</clustering>
</event>
<event>
10    4  0.2977685E-005  0.1302964E+03  0.7546771E-02  0.1230425E+00
         21   -1    0    0  503  502  0.00000000000E+00  0.00000000000E+00  0.18398056948E+03  0.18398056948E+03  0.00000000000E+00 0. -1.
         -1   -1    0    0    0  501 -0.00000000000E+00 -0.00000000000E+00 -0.11516138692E+04  0.11516138692E+04  0.00000000000E+00 0.  1.
         24    2    1    2    0    0  0.78507602563E+02 -0.69058583266E+02 -0.78361727932E+03  0.79437272213E+03  0.77713896024E+02 0.  0.
         23    2    1    2    0    0 -0.12506099941E+03  0.14571771773E+03  0.64797427375E+02  0.22213932939E+03  0.90957507849E+02 0.  0.
        -13    1    3    3    0    0  0.80731597089E+02 -0.75239836070E+02 -0.56610193932E+03  0.57675820705E+03  0.00000000000E+00 0.  1.
         14    1    3    3    0    0 -0.22239945263E+01  0.61812528043E+01 -0.21751534000E+03  0.21761451508E+03  0.00000000000E+00 0. -1.
        -11    1    4    4    0    0 -0.24411483623E+02  0.47272667775E+02 -0.21077308645E+02  0.57226554946E+02  0.00000000000E+00 0. -1.
         11    1    4    4    0    0 -0.10064951579E+03  0.98445049953E+02  0.85874736019E+02  0.16491277444E+03  0.00000000000E+00 0.  1.
         21    1    1    2  503  501 -0.26293756675E+02 -0.45413263940E+00 -0.20204898436E+03  0.20375318392E+03  0.00000000000E+00 0.  1.
         -2    1    1    2    0  502  0.72847153522E+02 -0.76205001823E+02 -0.46764463407E+02  0.11532920323E+03  0.00000000000E+00 0.  1.
<scales pt_clust_5="13000.00000" pt_clust_6="13000.00000" pt_clust_7="13000.00000" pt_clust_8="13000.00000" pt_clust_9="26.29768" pt_clust_10="103.91154"></scales>
<clustering>
<clus scale="   26.298">  2  9  1 -1</clus>
<clus scale="   77.714">  5  6 -1 -1</clus>
<clus scale="   90.958">  7  8 -1 -1</clus>
<clus scale="  103.912">  1 10  2 -1</clus>
<clus scale="  121.422">  2  5  1 -1</clus>
<clus scale="  103.912">  1  5  2 -1</clus>
</clustering>
</event>
<event>
10    4  0.2977685E-005  0.1358639E+03  0.7546771E-02  0.1221894E+00
         21   -1    0    0  503  502  0.00000000000E+00  0.00000000000E+00  0.31272959660E+03  0.31272959660E+03  0.00000000000E+00 0.  1.
         -1   -1    0    0    0  501 -0.00000000000E+00 -0.00000000000E+00 -0.45909624018E+03  0.45909624018E+03  0.00000000000E+00 0.  1.
         24    2    1    2    0    0 -0.10194090048E+03  0.63583773332E+02 -0.38683449513E+03  0.41316944441E+03  0.81444580809E+02 0.  0.
         23    2    1    2    0    0  0.11800171184E+03 -0.56785554729E+02  0.14403441470E+03  0.21595182352E+03  0.93489433849E+02 0.  0.
        -11    1    3    3    0    0 -0.10210234071E+03  0.75974434153E+02 -0.30630713882E+03  0.33169423557E+03  0.00000000000E+00 0.  1.
         12    1    3    3    0    0  0.16144023227E+00 -0.12390660820E+02 -0.80527356319E+02  0.81475208832E+02  0.00000000000E+00 0. -1.
        -11    1    4    4    0    0  0.95504563239E+02  0.19307332715E+01  0.67840950989E+02  0.11716332174E+03  0.00000000000E+00 0.  1.
         11    1    4    4    0    0  0.22497148602E+02 -0.58716288001E+02  0.76193463712E+02  0.98788501781E+02  0.00000000000E+00 0. -1.
         21    1    1    2  503  501  0.20331747791E+02 -0.20267730940E+02 -0.92181729381E+01  0.30151875531E+02  0.00000000000E+00 0.  1.
         -2    1    1    2    0  502 -0.36392559151E+02  0.13469512337E+02  0.10565160979E+03  0.11255269332E+03  0.00000000000E+00 0.  1.
<scales pt_clust_5="13000.00000" pt_clust_6="13000.00000" pt_clust_7="13000.00000" pt_clust_8="13000.00000" pt_clust_9="28.70820" pt_clust_10="38.60037"></scales>
<clustering>
<clus scale="   28.708">  2  9  1 -1</clus>
<clus scale="   38.600">  1 10  2 -1</clus>
<clus scale="   81.445">  5  6 -1 -1</clus>
<clus scale="   93.489">  7  8 -1 -1</clus>
<clus scale="  127.875">  2  5  1 -1</clus>
<clus scale="   38.600">  1  5  2 -1</clus>
</clustering>
</event>
<event>
10    4  0.2977685E-005  0.1032875E+03  0.7546771E-02  0.1278330E+00
          2   -1    0    0  503    0 -0.00000000000E+00  0.00000000000E+00  0.36189002399E+03  0.36189002399E+03  0.00000000000E+00 0. -1.
         21   -1    0    0  501  502  0.00000000000E+00 -0.00000000000E+00 -0.52344950056E+03  0.52344950056E+03  0.00000000000E+00 0. -1.
         23    2    1    2    0    0  0.19609727492E+02  0.21491166284E+02  0.28513556748E+03  0.30080179092E+03  0.91285343506E+02 0.  0.
         24    2    1    2    0    0 -0.84414404088E+01 -0.97000723851E+02 -0.64192268540E+02  0.14192424924E+03  0.80879211416E+02 0.  0.
        -11    1    4    4    0    0 -0.19524358237E+01 -0.92805792991E+02 -0.81145213541E+02  0.12329344224E+03  0.00000000000E+00 0.  1.
         12    1    4    4    0    0 -0.64890045851E+01 -0.41949308601E+01  0.16952945002E+02  0.18630807005E+02  0.00000000000E+00 0. -1.
        -13    1    3    3    0    0  0.53465472335E+02 -0.35908384722E+01  0.16602214682E+03  0.17445573675E+03  0.00000000000E+00 0.  1.
         13    1    3    3    0    0 -0.33855744843E+02  0.25082004756E+02  0.11911342066E+03  0.12634605417E+03  0.00000000000E+00 0. -1.
         21    1    1    2  503  502  0.21875834221E+02  0.41961995695E+01  0.21546604899E+02  0.30990585609E+02  0.00000000000E+00 0.  1.
          1    1    1    2  501    0 -0.33044121305E+02  0.71313357998E+02 -0.40404938041E+03  0.41162289877E+03  0.00000000000E+00 0. -1.
<scales pt_clust_5="13000.00000" pt_clust_6="13000.00000" pt_clust_7="13000.00000" pt_clust_8="13000.00000" pt_clust_9="22.27465" pt_clust_10="78.53670"></scales>
<clustering>
<clus scale="   22.275">  1  9  2 -1</clus>
<clus scale="   78.537">  2 10  1 -1</clus>
<clus scale="   80.879">  5  6 -1 -1</clus>
<clus scale="   91.285">  7  8 -1 -1</clus>
<clus scale="   94.216">  2  5  1 -1</clus>
<clus scale="   78.537">  2  5  1 -1</clus>
</clustering>
</event>
<event>
10    4  0.2977685E-005  0.9371239E+02  0.7546771E-02  0.1300530E+00
         21   -1    0    0  503  502  0.00000000000E+00  0.00000000000E+00  0.28917717952E+03  0.28917717952E+03  0.00000000000E+00 0. -1.
         -3   -1    0    0    0  501 -0.00000000000E+00 -0.00000000000E+00 -0.82906429251E+02  0.82906429251E+02  0.00000000000E+00 0.  1.
         24    2    1    2    0    0 -0.10018182401E+02 -0.41351040039E+02  0.30352930112E+02  0.97396785601E+02  0.82186136228E+02 0.  0.
         23    2    1    2    0    0 -0.20373639611E+02 -0.94945827557E+01  0.81550073278E+02  0.12557928106E+03  0.92814379749E+02 0.  0.
        -11    1    3    3    0    0  0.33132941763E+01 -0.64584667646E+02  0.28114933377E+02  0.70516712147E+02  0.00000000000E+00 0.  1.
         12    1    3    3    0    0 -0.13331476577E+02  0.23233627607E+02  0.22379967351E+01  0.26880073454E+02  0.00000000000E+00 0. -1.
        -11    1    4    4    0    0  0.35887312460E+02 -0.10240857348E+02  0.45099155787E+02  0.58538091936E+02  0.00000000000E+00 0.  1.
         11    1    4    4    0    0 -0.56260952071E+02  0.74627459208E+00  0.36450917491E+02  0.67041189128E+02  0.00000000000E+00 0. -1.
         21    1    1    2  503  501 -0.24928631282E+02  0.47878383657E+02  0.22785609826E+02  0.58591469467E+02  0.00000000000E+00 0.  1.
         -4    1    1    2    0  502  0.55320453294E+02  0.29672391373E+01  0.71582137051E+02  0.90516072637E+02  0.00000000000E+00 0.  1.
<scales pt_clust_5="13000.00000" pt_clust_6="13000.00000" pt_clust_7="13000.00000" pt_clust_8="13000.00000" pt_clust_9="53.97941" pt_clust_10="52.63699"></scales>
<clustering>
<clus scale="   53.979">  2  9  1 -1</clus>
<clus scale="   52.637">  1 10  2 -1</clus>
<clus scale="   82.186">  5  6 -1 -1</clus>
<clus scale="   83.199">  2  5  1 -1</clus>
<clus scale="   92.814">  7  8 -1 -1</clus>
<clus scale="   52.637">  1  5  2 -1</clus>
</clustering>
</event>
<event>
10    4  0.2977685E-005  0.1654583E+03  0.7546771E-02  0.1184427E+00
         21   -1    0    0  501  502  0.00000000000E+00  0.00000000000E+00  0.27077477626E+03  0.27077477626E+03  0.00000000000E+00 0. -1.
          2   -1    0    0  503    0 -0.00000000000E+00 -0.00000000000E+00 -0.33838405560E+03  0.33838405560E+03  0.00000000000E+00 0. -1.
         23    2    1    2    0    0  0.94838041906E+02  0.92844915278E+02 -0.19192504106E+02  0.16180216406E+03  0.90538144414E+02 0.  0.
         24    2    1    2    0    0 -0.16039293858E+03 -0.39729161771E+02  0.14120049943E+03  0.23101913541E+03  0.78281280303E+02 0.  0.
        -13    1    4    4    0    0 -0.12849750450E+03  0.38268442506E+01  0.93257301046E+02  0.15881806446E+03  0.00000000000E+00 0.  1.
         14    1    4    4    0    0 -0.31895434079E+02 -0.43556006022E+02  0.47943198384E+02  0.72201070955E+02  0.00000000000E+00 0. -1.
        -11    1    3    3    0    0 -0.17234032921E+02  0.19333872696E+02  0.25301883011E+01  0.26023304498E+02  0.00000000000E+00 0.  1.
         11    1    3    3    0    0  0.11207207483E+03  0.73511042583E+02 -0.21722692407E+02  0.13577885956E+03  0.00000000000E+00 0. -1.
         21    1    1    2  503  502  0.34625342005E+02 -0.55903625301E+02 -0.16177507404E+03  0.17462904744E+03  0.00000000000E+00 0. -1.
          1    1    1    2  501    0  0.30929554665E+02  0.27878717940E+01 -0.27842200630E+02  0.41708484950E+02  0.00000000000E+00 0. -1.
<scales pt_clust_5="13000.00000" pt_clust_6="13000.00000" pt_clust_7="13000.00000" pt_clust_8="13000.00000" pt_clust_9="66.10056" pt_clust_10="31.05496"></scales>
<clustering>
<clus scale="   31.055">  1 10  2 -1</clus>
<clus scale="   66.101">  2  9  1 -1</clus>
<clus scale="   78.281">  5  6 -1 -1</clus>
<clus scale="   90.538">  7  8 -1 -1</clus>
<clus scale="  159.083">  1  5  2 -1</clus>
<clus scale="   31.055">  1  5  2 -1</clus>
</clustering>
</event>
<event>
10    4  0.2977685E-005  0.2289982E+03  0.7546771E-02  0.1128494E+00
         21   -1    0    0  501  502  0.00000000000E+00  0.00000000000E+00  0.58252755707E+03  0.58252755707E+03  0.00000000000E+00 0. -1.
          2   -1    0    0  503    0 -0.00000000000E+00 -0.00000000000E+00 -0.34438497425E+03  0.34438497425E+03  0.00000000000E+00 0. -1.
         24    2    1    2    0    0 -0.21072067249E+03 -0.25339479336E+02 -0.18224769806E+03  0.29117482367E+03  0.80766722501E+02 0.  0.
         23    2    1    2    0    0  0.20200892235E+03 -0.46384020660E+02  0.35984388743E+03  0.42644165518E+03  0.96983399983E+02 0.  0.
        -13    1    3    3    0    0 -0.68657569235E+02  0.17117995014E+02 -0.97248952052E+02  0.12026739476E+03  0.00000000000E+00 0.  1.
         14    1    3    3    0    0 -0.14206310326E+03 -0.42457474350E+02 -0.84998746012E+02  0.17090742892E+03  0.00000000000E+00 0. -1.
        -11    1    4    4    0    0  0.17221387109E+03 -0.68569716637E+02  0.33116189867E+03  0.37950971867E+03  0.00000000000E+00 0. -1.
         11    1    4    4    0    0  0.29795051255E+02  0.22185695977E+02  0.28681988763E+02  0.46931936510E+02  0.00000000000E+00 0.  1.
         21    1    1    2  503  502  0.74140696897E+01 -0.26926944957E+02 -0.52369079597E+02  0.59351068161E+02  0.00000000000E+00 0. -1.
          1    1    1    2  501    0  0.12976804570E+01  0.98650444954E+02  0.11291547305E+03  0.14994498431E+03  0.00000000000E+00 0. -1.
<scales pt_clust_5="13000.00000" pt_clust_6="13000.00000" pt_clust_7="13000.00000" pt_clust_8="13000.00000" pt_clust_9="27.92900" pt_clust_10="96.93876"></scales>
<clustering>
<clus scale="   27.929">  2  9  1 -1</clus>
<clus scale="   80.767">  5  6 -1 -1</clus>
<clus scale="   96.939">  1 10  2 -1</clus>
<clus scale="   96.983">  7  8 -1 -1</clus>
<clus scale="  222.615">  2  5  1 -1</clus>
<clus scale="   96.939">  1  5  2 -1</clus>
</clustering>
</event>
<event>
10    4  0.2977685E-005  0.3583244E+03  0.7546771E-02  0.1114669E+00
         21   -1    0    0  501  502  0.00000000000E+00  0.00000000000E+00  0.82339849599E+03  0.82339849599E+03  0.00000000000E+00 0.  1.
         -3   -1    0    0    0  501 -0.00000000000E+00 -0.00000000000E+00 -0.55154800921E+03  0.55154800921E+03  0.00000000000E+00 0.  1.
         24    2    1    2    0    0 -0.22562713032E+01  0.17024932006E+01 -0.65149333541E+02  0.10476433282E+03  0.81994759140E+02 0.  0.
         23    2    1    2    0    0  0.28631005210E+03  0.21952959574E+03  0.62407824056E+03  0.72598980934E+03  0.86144434435E+02 0.  0.
        -11    1    3    3    0    0  0.91499613943E+01 -0.33146562873E+02 -0.56121237580E+01  0.34841245054E+02  0.00000000000E+00 0.  1.
         12    1    3    3    0    0 -0.11406232697E+02  0.34849056074E+02 -0.59537209783E+02  0.69923087763E+02  0.00000000000E+00 0. -1.
        -13    1    4    4    0    0  0.90748984366E+02  0.11438599368E+03  0.20438437380E+03  0.25118221666E+03  0.00000000000E+00 0. -1.
         13    1    4    4    0    0  0.19556106774E+03  0.10514360206E+03  0.41969386676E+03  0.47480759268E+03  0.00000000000E+00 0.  1.
         21    1    1    2  503  502  0.64469022688E+01 -0.34397386700E+02  0.50358249801E+02  0.61324514541E+02  0.00000000000E+00 0.  1.
         -4    1    1    2    0  503 -0.29050068307E+03 -0.18683470224E+03 -0.33743667005E+03  0.48286784850E+03  0.00000000000E+00 0.  1.
<scales pt_clust_5="13000.00000" pt_clust_6="13000.00000" pt_clust_7="13000.00000" pt_clust_8="13000.00000" pt_clust_9="34.99632" pt_clust_10="347.81551"></scales>
<clustering>
<clus scale="   34.996">  1  9  2 -1</clus>
<clus scale="   81.995">  5  6 -1 -1</clus>
<clus scale="   82.025">  2  5  1 -1</clus>
<clus scale="   86.144">  7  8 -1 -1</clus>
<clus scale="  347.816">  1 10  2 -1</clus>
<clus scale="   34.996">  1  5  2 -1</clus>
</clustering>
</event>
<event>
10    4  0.2977685E-005  0.1390528E+03  0.7546771E-02  0.1227209E+00
         -1   -1    0    0    0  501 -0.00000000000E+00  0.00000000000E+00  0.25634599245E+03  0.25634599245E+03  0.00000000000E+00 0.  1.
         21   -1    0    0  503  502  0.00000000000E+00 -0.00000000000E+00 -0.40799685854E+03  0.40799685854E+03  0.00000000000E+00 0.  1.
         24    2    1    2    0    0  0.29448839436E+02  0.63897122826E+02  0.17011517835E+03  0.20041758378E+03  0.79233563169E+02 0.  0.
         23    2    1    2    0    0  0.57185452325E+02  0.24833315662E+02 -0.34268453924E+02  0.11383385058E+03  0.88864779750E+02 0.  0.
        -13    1    3    3    0    0  0.50375600968E+02  0.22523791305E+02  0.12036876283E+03  0.13241473261E+03  0.00000000000E+00 0.  1.
         14    1    3    3    0    0 -0.20926761532E+02  0.41373331521E+02  0.49746415519E+02  0.68002851164E+02  0.00000000000E+00 0. -1.
        -11    1    4    4    0    0  0.22174091713E+02  0.66124453312E+01 -0.61615197942E+02  0.65816771374E+02  0.00000000000E+00 0.  1.
         11    1    4    4    0    0  0.35011360612E+02  0.18220870331E+02  0.27346744018E+02  0.48017079210E+02  0.00000000000E+00 0. -1.
         21    1    1    2  503  501 -0.37360038036E+01  0.35314488205E+02 -0.13278392910E+02  0.37912880660E+02  0.00000000000E+00 0. -1.
         -2    1    1    2    0  502 -0.82898287957E+02 -0.12404492669E+03 -0.27421919761E+03  0.31217853597E+03  0.00000000000E+00 0.  1.
<scales pt_clust_5="13000.00000" pt_clust_6="13000.00000" pt_clust_7="13000.00000" pt_clust_8="13000.00000" pt_clust_9="35.51156" pt_clust_10="106.95202"></scales>
<clustering>
<clus scale="   35.512">  2  9  1 -1</clus>
<clus scale="   79.234">  5  6 -1 -1</clus>
<clus scale="   88.865">  7  8 -1 -1</clus>
<clus scale="  106.771">  1  5  2 -1</clus>
<clus scale="  106.952">  2 10  1 -1</clus>
<clus scale="   35.512">  2  5  1 -1</clus>
</clustering>
</event>
<event>
10    4  0.2977685E-005  0.1003300E+03  0.7546771E-02  0.1285417E+00
         -3   -1    0    0    0  501 -0.00000000000E+00  0.00000000000E+00  0.18640951934E+03  0.18640951934E+03  0.00000000000E+00 0.  1.
         21   -1    0    0  503  502  0.00000000000E+00 -0.00000000000E+00 -0.20447266263E+03  0.20447266263E+03  0.00000000000E+00 0.  1.
         23    2    1    2    0    0 -0.25342469025E+02  0.40476047406E+02  0.91468769311E+02  0.13736248541E+03  0.90671745815E+02 0.  0.
         24    2    1    2    0    0  0.34740378148E+02  0.22450106234E+02 -0.12864774127E+03  0.15649821296E+03  0.78933821531E+02 0.  0.
        -11    1    4    4    0    0 -0.25170529057E+02  0.72574705882E+01 -0.50234467189E+02  0.56654462367E+02  0.00000000000E+00 0.  1.
         12    1    4    4    0    0  0.59910907205E+02  0.15192635646E+02 -0.78413274078E+02  0.99843750589E+02  0.00000000000E+00 0. -1.
        -11    1    3    3    0    0 -0.70887444875E+01  0.55425988552E+02  0.98061467877E+02  0.11286426355E+03  0.00000000000E+00 0.  1.
         11    1    3    3    0    0 -0.18253724537E+02 -0.14949941146E+02 -0.65926985661E+01  0.24498221857E+02  0.00000000000E+00 0. -1.
         21    1    1    2  503  501 -0.17145924241E+02 -0.16195450869E+02  0.39057495029E+02  0.45626343979E+02  0.00000000000E+00 0. -1.
         -4    1    1    2    0  502  0.77480151175E+01 -0.46730702771E+02 -0.19941666367E+02  0.51395139627E+02  0.00000000000E+00 0.  1.
<scales pt_clust_5="13000.00000" pt_clust_6="13000.00000" pt_clust_7="13000.00000" pt_clust_8="13000.00000" pt_clust_9="23.58549" pt_clust_10="48.85334"></scales>
<clustering>
<clus scale="   23.585">  1  9  2 -1</clus>
<clus scale="   48.853">  2 10  1 -1</clus>
<clus scale="   78.934">  5  6 -1 -1</clus>
<clus scale="   89.863">  2  5  1 -1</clus>
<clus scale="   90.672">  7  8 -1 -1</clus>
<clus scale="   48.853">  2  5  1 -1</clus>
</clustering>
</event>
<event>
10    4  0.2977685E-005  0.1006459E+03  0.7546771E-02  0.1285262E+00
         21   -1    0    0  501  502  0.00000000000E+00  0.00000000000E+00  0.56603200941E+03  0.56603200941E+03  0.00000000000E+00 0.  1.
          2   -1    0    0  503    0 -0.00000000000E+00 -0.00000000000E+00 -0.16296450861E+03  0.16296450861E+03  0.00000000000E+00 0. -1.
         24    2    1    2    0    0 -0.97051829155E+01  0.21822595627E+02 -0.11080674724E+03  0.13774751989E+03  0.78267667303E+02 0.  0.
         23    2    1    2    0    0  0.38670016016E+02 -0.68989113197E+02  0.42293827597E+03  0.43979124549E+03  0.91020253010E+02 0.  0.
        -13    1    3    3    0    0 -0.22606793505E+02  0.48762234583E+01  0.17505177545E+01  0.23192864856E+02  0.00000000000E+00 0.  1.
         14    1    3    3    0    0  0.12901610590E+02  0.16946372169E+02 -0.11255726500E+03  0.11455465503E+03  0.00000000000E+00 0. -1.
        -13    1    4    4    0    0  0.45794617380E+02  0.21375622774E+01  0.11814647472E+03  0.12672926119E+03  0.00000000000E+00 0. -1.
         13    1    4    4    0    0 -0.71246013644E+01 -0.71126675474E+02  0.30479180124E+03  0.31306198430E+03  0.00000000000E+00 0.  1.
         21    1    1    2  503  502 -0.14964054351E+02  0.13349376548E+02 -0.23743804576E+02  0.31078884031E+02  0.00000000000E+00 0.  1.
          1    1    1    2  501    0 -0.14000778749E+02  0.33817141022E+02  0.11467977666E+03  0.12037886861E+03  0.00000000000E+00 0. -1.
<scales pt_clust_5="13000.00000" pt_clust_6="13000.00000" pt_clust_7="13000.00000" pt_clust_8="13000.00000" pt_clust_9="20.05315" pt_clust_10="36.98090"></scales>
<clustering>
<clus scale="   20.053">  2  9  1 -1</clus>
<clus scale="   36.981">  1 10  2 -1</clus>
<clus scale="   78.268">  5  6 -1 -1</clus>
<clus scale="   89.279">  2  5  1 -1</clus>
<clus scale="   91.020">  7  8 -1 -1</clus>
<clus scale="   36.981">  1  5  2 -1</clus>
</clustering>
</event>
<event>
10    4  0.2977685E-005  0.9260543E+02  0.7546771E-02  0.1300882E+00
         -1   -1    0    0    0  501 -0.00000000000E+00  0.00000000000E+00  0.62154046579E+03  0.62154046579E+03  0.00000000000E+00 0.  1.
         21   -1    0    0  503  502  0.00000000000E+00 -0.00000000000E+00 -0.66999192806E+02  0.66999192806E+02  0.00000000000E+00 0.  1.
         24    2    1    2    0    0 -0.40003651982E+02  0.19838058101E+02  0.35199312481E+03  0.36387947926E+03  0.80717252134E+02 0.  0.
         23    2    1    2    0    0  0.56113717910E+01 -0.47403403244E+02  0.89004267554E+02  0.13399040792E+03  0.88051687315E+02 0.  0.
        -13    1    3    3    0    0 -0.62560019680E+01  0.47921776309E+02  0.18150046181E+03  0.18782452407E+03  0.00000000000E+00 0.  1.
         14    1    3    3    0    0 -0.33747650014E+02 -0.28083718208E+02  0.17049266300E+03  0.17605495519E+03  0.00000000000E+00 0. -1.
        -11    1    4    4    0    0 -0.35465749662E+02 -0.42505632696E+02  0.33288809803E+02  0.64596385874E+02  0.00000000000E+00 0. -1.
         11    1    4    4    0    0  0.41077121453E+02 -0.48977705485E+01  0.55715457751E+02  0.69394022045E+02  0.00000000000E+00 0.  1.
         21    1    1    2  503  501  0.31264609937E+02 -0.36467003072E+01  0.14372991954E+03  0.14713620910E+03  0.00000000000E+00 0. -1.
         -2    1    1    2    0  502  0.31276702540E+01  0.31212045450E+02 -0.30186038919E+02  0.43533562317E+02  0.00000000000E+00 0.  1.
<scales pt_clust_5="13000.00000" pt_clust_6="13000.00000" pt_clust_7="13000.00000" pt_clust_8="13000.00000" pt_clust_9="31.49768" pt_clust_10="31.36836"></scales>
<clustering>
<clus scale="   31.368">  2 10  1 -1</clus>
<clus scale="   31.498">  1  9  2 -1</clus>
<clus scale="   80.717">  5  6 -1 -1</clus>
<clus scale="   85.662">  1  5  2 -1</clus>
<clus scale="   88.052">  7  8 -1 -1</clus>
<clus scale="   31.368">  2  5  1 -1</clus>
</clustering>
</event>
<event>
10    4  0.2977685E-005  0.1282253E+03  0.7546771E-02  0.1234834E+00
         21   -1    0    0  501  502  0.00000000000E+00  0.00000000000E+00  0.11731332124E+03  0.11731332124E+03  0.00000000000E+00 0. -1.
          2   -1    0    0  503    0 -0.00000000000E+00 -0.00000000000E+00 -0.66526658322E+03  0.66526658322E+03  0.00000000000E+00 0. -1.
         24    2    1    2    0    0 -0.74929416582E+02 -0.51025138377E+02 -0.46206323568E+03  0.47759718798E+03  0.79866501006E+02 0.  0.
         23    2    1    2    0    0  0.46862091489E+02  0.49287416117E+02 -0.12823413480E+03  0.17421138963E+03  0.96334365326E+02 0.  0.
        -13    1    3    3    0    0 -0.67076137890E+02 -0.28335590305E+02 -0.17517632881E+03  0.18970730120E+03  0.00000000000E+00 0.  1.
         14    1    3    3    0    0 -0.78532786926E+01 -0.22689548072E+02 -0.28688690687E+03  0.28788988679E+03  0.00000000000E+00 0. -1.
        -13    1    4    4    0    0 -0.22982523131E+02  0.41766158336E+02 -0.51372571236E+02  0.70083874230E+02  0.00000000000E+00 0. -1.
         13    1    4    4    0    0  0.69844614620E+02  0.75212577805E+01 -0.76861563568E+02  0.10412751540E+03  0.00000000000E+00 0.  1.
         21    1    1    2  503  502 -0.34876633361E+02  0.17407429385E+02 -0.17306068048E+02  0.42648542105E+02  0.00000000000E+00 0. -1.
          1    1    1    2  501    0  0.62943958454E+02 -0.15669707126E+02  0.59650176555E+02  0.88122784740E+02  0.00000000000E+00 0. -1.
<scales pt_clust_5="13000.00000" pt_clust_6="13000.00000" pt_clust_7="13000.00000" pt_clust_8="13000.00000" pt_clust_9="38.97946" pt_clust_10="38.46666"></scales>
<clustering>
<clus scale="   38.979">  1  9  2 -1</clus>
<clus scale="   38.467">  1 10  2 -1</clus>
<clus scale="   79.867">  5  6 -1 -1</clus>
<clus scale="   96.334">  7  8 -1 -1</clus>
<clus scale="  116.362">  2  5  1 -1</clus>
<clus scale="   38.979">  1  5  2 -1</clus>
</clustering>
</event>
<event>
10    4  0.2977685E-005  0.1135514E+03  0.7546771E-02  0.1258513E+00
         21   -1    0    0  501  502  0.00000000000E+00  0.00000000000E+00  0.18543845221E+03  0.18543845221E+03  0.00000000000E+00 0.  1.
          2   -1    0    0  503    0 -0.00000000000E+00 -0.00000000000E+00 -0.27875583437E+03  0.27875583437E+03  0.00000000000E+00 0. -1.
         23    2    1    2    0    0  0.30517895572E+02 -0.83771530779E+02 -0.57671523108E+02  0.14085828278E+03  0.92552903417E+02 0.  0.
         24    2    1    2    0    0  0.74352310778E+02  0.25288544966E+02  0.73277678353E+02  0.13435703517E+03  0.80711945398E+02 0.  0.
        -13    1    4    4    0    0  0.87621991657E+02  0.16839460098E+02  0.77373920553E+02  0.11810124648E+03  0.00000000000E+00 0.  1.
         14    1    4    4    0    0 -0.13269680879E+02  0.84490848678E+01 -0.40962421994E+01  0.16255788689E+02  0.00000000000E+00 0. -1.
        -11    1    3    3    0    0 -0.32362659714E+02 -0.17057596660E+02 -0.12523951237E+02  0.38667204478E+02  0.00000000000E+00 0. -1.
         11    1    3    3    0    0  0.62880555286E+02 -0.66713934119E+02 -0.45147571871E+02  0.10219107830E+03  0.00000000000E+00 0.  1.
         21    1    1    2  503  502 -0.96487597506E+02  0.35596404081E+02 -0.12339430287E+03  0.16063347856E+03  0.00000000000E+00 0. -1.
          1    1    1    2  501    0 -0.83826088437E+01  0.22886581732E+02  0.14470765455E+02  0.28345490069E+02  0.00000000000E+00 0. -1.
<scales pt_clust_5="13000.00000" pt_clust_6="13000.00000" pt_clust_7="13000.00000" pt_clust_8="13000.00000" pt_clust_9="104.65750" pt_clust_10="24.37342"></scales>
<clustering>
<clus scale="   24.373">  1 10  2 -1</clus>
<clus scale="   80.712">  5  6 -1 -1</clus>
<clus scale="   92.553">  7  8 -1 -1</clus>
<clus scale="  104.657">  2  9  1 -1</clus>
<clus scale="  104.126">  1  5  2 -1</clus>
<clus scale="   24.373">  1  5  2 -1</clus>
</clustering>
</event>
<event>
10    4  0.2977685E-005  0.1320688E+03  0.7546771E-02  0.1227056E+00
         21   -1    0    0  501  502  0.00000000000E+00  0.00000000000E+00  0.16597663659E+03  0.16597663659E+03  0.00000000000E+00 0.  1.
          2   -1    0    0  503    0 -0.00000000000E+00 -0.00000000000E+00 -0.22163047760E+03  0.22163047760E+03  0.00000000000E+00 0. -1.
         24    2    1    2    0    0 -0.79028164664E+02 -0.60039433558E+02 -0.10491028228E+03  0.16512804859E+03  0.80068225355E+02 0.  0.
         23    2    1    2    0    0  0.80867898221E+02  0.22537555870E+01  0.81998364724E+02  0.14660179665E+03  0.90684389988E+02 0.  0.
        -13    1    3    3    0    0 -0.48969322047E+01 -0.47628020736E+02 -0.20442959773E+02  0.52060761698E+02  0.00000000000E+00 0.  1.
         14    1    3    3    0    0 -0.74131232459E+02 -0.12411412822E+02 -0.84467322504E+02  0.11306728689E+03  0.00000000000E+00 0. -1.
        -11    1    4    4    0    0  0.38622340204E+02  0.25975165872E+02  0.86206852057E+02  0.97969463337E+02  0.00000000000E+00 0.  1.
         11    1    4    4    0    0  0.42245558017E+02 -0.23721410285E+02 -0.42084873333E+01  0.48632333315E+02  0.00000000000E+00 0. -1.
         21    1    1    2  503  502 -0.16560568038E+02  0.12378799901E+02 -0.11097229038E+02  0.23465625776E+02  0.00000000000E+00 0.  1.
          1    1    1    2  501    0  0.14720834481E+02  0.45406878071E+02 -0.21644694413E+02  0.52411643174E+02  0.00000000000E+00 0. -1.
<scales pt_clust_5="13000.00000" pt_clust_6="13000.00000" pt_clust_7="13000.00000" pt_clust_8="13000.00000" pt_clust_9="20.67576" pt_clust_10="49.07013"></scales>
<clustering>
<clus scale="   20.676">  2  9  1 -1</clus>
<clus scale="   49.070">  1 10  2 -1</clus>
<clus scale="   80.068">  5  6 -1 -1</clus>
<clus scale="   90.684">  7  8 -1 -1</clus>
<clus scale="  125.018">  2  5  1 -1</clus>
<clus scale="   49.070">  1  5  2 -1</clus>
</clustering>
</event>
<event>
10    4  0.2977685E-005  0.1554731E+03  0.7546771E-02  0.1213274E+00
          2   -1    0    0  503    0 -0.00000000000E+00  0.00000000000E+00  0.42601720179E+03  0.42601720179E+03  0.00000000000E+00 0. -1.
         21   -1    0    0  501  502  0.00000000000E+00 -0.00000000000E+00 -0.17462516936E+03  0.17462516936E+03  0.00000000000E+00 0. -1.
         23    2    1    2    0    0 -0.49210344978E+02  0.21024568274E+02  0.84665725649E+02  0.13282297611E+03  0.87235126861E+02 0.  0.
         24    2    1    2    0    0  0.10544809125E+03  0.10002057918E+03 -0.11576913882E+02  0.16676364459E+03  0.80948576373E+02 0.  0.
        -11    1    4    4    0    0  0.40063729657E+02  0.92155466727E+02 -0.81974067198E+01  0.10082127731E+03  0.00000000000E+00 0.  1.
         12    1    4    4    0    0  0.65384361589E+02  0.78651124511E+01 -0.33795071622E+01  0.65942367283E+02  0.00000000000E+00 0. -1.
        -13    1    3    3    0    0 -0.20210069809E+02  0.70707469047E+01  0.96262252928E+02  0.98614723658E+02  0.00000000000E+00 0.  1.
         13    1    3    3    0    0 -0.29000275169E+02  0.13953821370E+02 -0.11596527279E+02  0.34208252449E+02  0.00000000000E+00 0. -1.
         21    1    1    2  503  502  0.66701913816E+02 -0.96332010232E+02  0.87093881531E+02  0.14599433449E+03  0.00000000000E+00 0. -1.
          1    1    1    2  501    0 -0.12293966008E+03 -0.24713137220E+02  0.91209339134E+02  0.15506141596E+03  0.00000000000E+00 0. -1.
<scales pt_clust_5="13000.00000" pt_clust_6="13000.00000" pt_clust_7="13000.00000" pt_clust_8="13000.00000" pt_clust_9="101.07420" pt_clust_10="132.73741"></scales>
<clustering>
<clus scale="   80.949">  5  6 -1 -1</clus>
<clus scale="   87.235">  7  8 -1 -1</clus>
<clus scale="  102.341">  1  7  2 -1</clus>
<clus scale="  101.074">  1  9  2 -1</clus>
<clus scale="  132.737">  2 10  1 -1</clus>
<clus scale="  132.737">  2  5  1 -1</clus>
</clustering>
</event>
<event>
10    4  0.2977685E-005  0.1133377E+03  0.7546771E-02  0.1257965E+00
         21   -1    0    0  503  502  0.00000000000E+00  0.00000000000E+00  0.42691851101E+02  0.42691851101E+02  0.00000000000E+00 0. -1.
         -1   -1    0    0    0  501 -0.00000000000E+00 -0.00000000000E+00 -0.70183211270E+03  0.70183211270E+03  0.00000000000E+00 0.  1.
         23    2    1    2    0    0 -0.47343360151E+02  0.10314583437E+03 -0.35361018991E+03  0.38224678496E+03  0.90509564730E+02 0.  0.
         24    2    1    2    0    0  0.31357935607E+02 -0.11483161641E+02 -0.12895368813E+03  0.15587110780E+03  0.80941741010E+02 0.  0.
        -13    1    4    4    0    0 -0.88770731598E+01 -0.23280945621E+02 -0.10429218258E+03  0.10722716169E+03  0.00000000000E+00 0.  1.
         14    1    4    4    0    0  0.40235008767E+02  0.11797783980E+02 -0.24661505554E+02  0.48643946114E+02  0.00000000000E+00 0. -1.
        -13    1    3    3    0    0 -0.44246063386E+02  0.37668357625E+02 -0.26905578011E+03  0.27525920893E+03  0.00000000000E+00 0. -1.
         13    1    3    3    0    0 -0.30972967645E+01  0.65477476743E+02 -0.84554409793E+02  0.10698757602E+03  0.00000000000E+00 0.  1.
         21    1    1    2  503  501 -0.55367799180E+01 -0.77207957337E+02 -0.10627526692E+03  0.13147683053E+03  0.00000000000E+00 0.  1.
         -2    1    1    2    0  502  0.21522204462E+02 -0.14454715390E+02 -0.70301116640E+02  0.74929240506E+02  0.00000000000E+00 0.  1.
<scales pt_clust_5="13000.00000" pt_clust_6="13000.00000" pt_clust_7="13000.00000" pt_clust_8="13000.00000" pt_clust_9="81.72739" pt_clust_10="25.92575"></scales>
<clustering>
<clus scale="   25.926">  1 10  2 -1</clus>
<clus scale="   80.942">  5  6 -1 -1</clus>
<clus scale="   81.727">  1  9  2 -1</clus>
<clus scale="   90.510">  7  8 -1 -1</clus>
<clus scale="  105.854">  1  5  2 -1</clus>
<clus scale="   25.926">  1  5  2 -1</clus>
</clustering>
</event>
<event>
10    4  0.2977685E-005  0.1514848E+03  0.7546771E-02  0.1226085E+00
         21   -1    0    0  503  502  0.00000000000E+00  0.00000000000E+00  0.45885460821E+03  0.45885460821E+03  0.00000000000E+00 0. -1.
         -1   -1    0    0    0  501 -0.00000000000E+00 -0.00000000000E+00 -0.16113131741E+03  0.16113131741E+03  0.00000000000E+00 0.  1.
         24    2    1    2    0    0 -0.45188501066E+02  0.98869897000E+01  0.39945850894E+01  0.91154935854E+02  0.78444326925E+02 0.  0.
         23    2    1    2    0    0  0.10319428094E+03 -0.62337071677E+02  0.32831219317E+03  0.36214756014E+03  0.93952056966E+02 0.  0.
        -11    1    3    3    0    0 -0.59825564585E+02  0.58961774255E+00 -0.18618619317E+02  0.62658589294E+02  0.00000000000E+00 0.  1.
         12    1    3    3    0    0  0.14637063519E+02  0.92973719575E+01  0.22613204407E+02  0.28496346561E+02  0.00000000000E+00 0. -1.
        -11    1    4    4    0    0  0.47631822845E+02 -0.53005299024E+01  0.38144044969E+02  0.61252382251E+02  0.00000000000E+00 0.  1.
         11    1    4    4    0    0  0.55562458092E+02 -0.57036541775E+02  0.29016814820E+03  0.30089517789E+03  0.00000000000E+00 0. -1.
         21    1    1    2  503  501  0.39186124390E+02 -0.54327652795E+01 -0.36092010154E+02  0.53550914841E+02  0.00000000000E+00 0.  1.
         -2    1    1    2    0  502 -0.97191904261E+02  0.57882847257E+02  0.15085226896E+01  0.11313251478E+03  0.00000000000E+00 0.  1.
<scales pt_clust_5="13000.00000" pt_clust_6="13000.00000" pt_clust_7="13000.00000" pt_clust_8="13000.00000" pt_clust_9="39.56093" pt_clust_10="118.83042"></scales>
<clustering>
<clus scale="   39.561">  2  9  1 -1</clus>
<clus scale="   78.444">  5  6 -1 -1</clus>
<clus scale="   84.533">  2  5  1 -1</clus>
<clus scale="   93.952">  7  8 -1 -1</clus>
<clus scale="  118.830">  1 10  2 -1</clus>
<clus scale="  118.830">  1  5  2 -1</clus>
</clustering>
</event>
<event>
10    4  0.2977685E-005  0.1544444E+03  0.7546771E-02  0.1202578E+00
         21   -1    0    0  501  502  0.00000000000E+00  0.00000000000E+00  0.11812679976E+03  0.11812679976E+03  0.00000000000E+00 0.  1.
          2   -1    0    0  503    0 -0.00000000000E+00 -0.00000000000E+00 -0.87416763940E+03  0.87416763940E+03  0.00000000000E+00 0. -1.
         24    2    1    2    0    0 -0.99143452176E+02 -0.45837602711E+01  0.30632516911E+02  0.13364330802E+03  0.84093684172E+02 0.  0.
         23    2    1    2    0    0  0.50722901076E+02 -0.12300378752E+03 -0.32775117741E+03  0.36620000555E+03  0.94756874871E+02 0.  0.
        -13    1    3    3    0    0 -0.37695567858E+02  0.20571375300E+01  0.55416553069E+02  0.67053575632E+02  0.00000000000E+00 0.  1.
         14    1    3    3    0    0 -0.61447884318E+02 -0.66408978011E+01 -0.24784036158E+02  0.66589732385E+02  0.00000000000E+00 0. -1.
        -11    1    4    4    0    0 -0.20637831668E+02 -0.68733236251E+02 -0.17401711783E+03  0.18823425607E+03  0.00000000000E+00 0.  1.
         11    1    4    4    0    0  0.71360732745E+02 -0.54270551272E+02 -0.15373405958E+03  0.17796574948E+03  0.00000000000E+00 0. -1.
         21    1    1    2  503  502 -0.21758890788E+02  0.80546802271E+01 -0.17466191855E+03  0.17619623434E+03  0.00000000000E+00 0.  1.
          1    1    1    2  501    0  0.70179441887E+02  0.11953286757E+03 -0.28426026059E+03  0.31625489126E+03  0.00000000000E+00 0. -1.
<scales pt_clust_5="13000.00000" pt_clust_6="13000.00000" pt_clust_7="13000.00000" pt_clust_8="13000.00000" pt_clust_9="23.20188" pt_clust_10="121.95996"></scales>
<clustering>
<clus scale="   23.202">  2  9  1 -1</clus>
<clus scale="   84.094">  5  6 -1 -1</clus>
<clus scale="   94.757">  7  8 -1 -1</clus>
<clus scale="  131.292">  2  5  1 -1</clus>
<clus scale="  121.960">  1 10  2 -1</clus>
<clus scale="  121.960">  1  5  2 -1</clus>
</clustering>
</event>
<event>
10    4  0.2977685E-005  0.1264449E+03  0.7546771E-02  0.1235768E+00
          2   -1    0    0  503    0 -0.00000000000E+00  0.00000000000E+00  0.86200908849E+03  0.86200908849E+03  0.00000000000E+00 0. -1.
         21   -1    0    0  501  502  0.00000000000E+00 -0.00000000000E+00 -0.44938541938E+03  0.44938541938E+03  0.00000000000E+00 0. -1.
         23    2    1    2    0    0 -0.18255038792E+02 -0.20704603553E+01  0.19222449333E+03  0.21307502503E+03  0.90073176968E+02 0.  0.
         24    2    1    2    0    0  0.18764365157E+03  0.77081917591E+02 -0.10771563654E+03  0.24300638946E+03  0.79357954657E+02 0.  0.
        -11    1    4    4    0    0  0.38883641019E+02  0.42586972807E+02 -0.59519193252E+02  0.82874134427E+02  0.00000000000E+00 0.  1.
         12    1    4    4    0    0  0.14876001056E+03  0.34494944784E+02 -0.48196443290E+02  0.16013225503E+03  0.00000000000E+00 0. -1.
        -11    1    3    3    0    0  0.33883895918E+02 -0.38827087946E+01  0.42324128358E+02  0.54355548672E+02  0.00000000000E+00 0.  1.
         11    1    3    3    0    0 -0.52138934711E+02  0.18122484393E+01  0.14990036497E+03  0.15871947636E+03  0.00000000000E+00 0. -1.
         21    1    1    2  503  502 -0.67326895237E+02 -0.40990999334E+02  0.57794931635E+03  0.58329973866E+03  0.00000000000E+00 0. -1.
          1    1    1    2  501    0 -0.10206171755E+03 -0.34020457902E+02 -0.24983450403E+03  0.27201335472E+03  0.00000000000E+00 0. -1.
<scales pt_clust_5="13000.00000" pt_clust_6="13000.00000" pt_clust_7="13000.00000" pt_clust_8="13000.00000" pt_clust_9="78.82368" pt_clust_10="110.61269"></scales>
<clustering>
<clus scale="   78.824">  1  9  2 -1</clus>
<clus scale="   79.358">  5  6 -1 -1</clus>
<clus scale="   90.073">  7  8 -1 -1</clus>
<clus scale="  110.613">  2 10  1 -1</clus>
<clus scale="  119.050">  2  5  1 -1</clus>
<clus scale="  110.613">  2  5  1 -1</clus>
</clustering>
</event>
<event>
10    4  0.2977685E-005  0.1066973E+03  0.7546771E-02  0.1271264E+00
         21   -1    0    0  501  502  0.00000000000E+00  0.00000000000E+00  0.59093605801E+02  0.59093605801E+02  0.00000000000E+00 0. -1.
          2   -1    0    0  503    0 -0.00000000000E+00 -0.00000000000E+00 -0.65617752931E+03  0.65617752931E+03  0.00000000000E+00 0. -1.
         23    2    1    2    0    0  0.53722830687E+02  0.18426972331E+02 -0.16552713327E+03  0.19708330566E+03  0.90647127222E+02 0.  0.
         24    2    1    2    0    0 -0.26610152698E+02 -0.68165255050E+02 -0.18741768175E+03  0.21654876669E+03  0.80083573232E+02 0.  0.
        -11    1    4    4    0    0 -0.31100413640E+02 -0.23326434660E+02 -0.15804945372E+03  0.16276052379E+03  0.00000000000E+00 0.  1.
         12    1    4    4    0    0  0.44902609424E+01 -0.44838820391E+02 -0.29368228030E+02  0.53788242907E+02  0.00000000000E+00 0. -1.
        -13    1    3    3    0    0  0.36728838152E+02  0.50200465393E+02 -0.63540224401E+02  0.88918245566E+02  0.00000000000E+00 0. -1.
         13    1    3    3    0    0  0.16993992535E+02 -0.31773493062E+02 -0.10198690887E+03  0.10816506009E+03  0.00000000000E+00 0.  1.
         21    1    1    2  503  502 -0.80760456087E+02 -0.12219262706E+02 -0.17967051027E+03  0.19736528041E+03  0.00000000000E+00 0. -1.
          1    1    1    2  501    0  0.53647778098E+02  0.61957545426E+02 -0.64468598216E+02  0.10427378235E+03  0.00000000000E+00 0. -1.
<scales pt_clust_5="13000.00000" pt_clust_6="13000.00000" pt_clust_7="13000.00000" pt_clust_8="13000.00000" pt_clust_9="81.67963" pt_clust_10="71.39671"></scales>
<clustering>
<clus scale="   80.084">  5  6 -1 -1</clus>
<clus scale="   81.680">  2  9  1 -1</clus>
<clus scale="   71.397">  1 10  2 -1</clus>
<clus scale="   90.647">  7  8 -1 -1</clus>
<clus scale="   97.881">  1  5  2 -1</clus>
<clus scale="   71.397">  1  5  2 -1</clus>
</clustering>
</event>
<event>
10    4  0.2977685E-005  0.1161108E+03  0.7546771E-02  0.1254075E+00
          2   -1    0    0  503    0 -0.00000000000E+00  0.00000000000E+00  0.11845501706E+04  0.11845501706E+04  0.00000000000E+00 0. -1.
         21   -1    0    0  501  502  0.00000000000E+00 -0.00000000000E+00 -0.47450172644E+02  0.47450172644E+02  0.00000000000E+00 0. -1.
         23    2    1    2    0    0  0.68494557718E+01 -0.42707607257E+02  0.38004773296E+03  0.39360278257E+03  0.92822499187E+02 0.  0.
         24    2    1    2    0    0 -0.10355188259E+03 -0.25152572935E+02  0.15175369479E+03  0.20204961647E+03  0.80244746374E+02 0.  0.
        -13    1    4    4    0    0 -0.56861217981E+02  0.21790333070E+02  0.10363871920E+03  0.12020399679E+03  0.00000000000E+00 0.  1.
         14    1    4    4    0    0 -0.46690664604E+02 -0.46942906005E+02  0.48114975588E+02  0.81845619682E+02  0.00000000000E+00 0. -1.
        -11    1    3    3    0    0 -0.23465979186E+02 -0.57692162180E+02  0.30490963764E+03  0.31120559905E+03  0.00000000000E+00 0.  1.
         11    1    3    3    0    0  0.30315434958E+02  0.14984554923E+02  0.75138095326E+02  0.82397183521E+02  0.00000000000E+00 0. -1.
         21    1    1    2  503  502  0.91908145069E+02  0.36090722231E+01  0.52691529613E+03  0.53488303566E+03  0.00000000000E+00 0. -1.
          1    1    1    2  501    0  0.47942817447E+01  0.64251107969E+02  0.78383274063E+02  0.10146490854E+03  0.00000000000E+00 0. -1.
<scales pt_clust_5="13000.00000" pt_clust_6="13000.00000" pt_clust_7="13000.00000" pt_clust_8="13000.00000" pt_clust_9="93.06153" pt_clust_10="64.42973"></scales>
<clustering>
<clus scale="   64.430">  2 10  1 -1</clus>
<clus scale="   80.245">  5  6 -1 -1</clus>
<clus scale="   92.822">  7  8 -1 -1</clus>
<clus scale="   93.062">  1  9  2 -1</clus>
<clus scale="  106.325">  2  5  1 -1</clus>
<clus scale="   64.430">  2  5  1 -1</clus>
</clustering>
</event>
<event>
10    4  0.2977685E-005  0.1064631E+03  0.7546771E-02  0.1272032E+00
         -1   -1    0    0    0  501 -0.00000000000E+00  0.00000000000E+00  0.37229449679E+03  0.37229449679E+03  0.00000000000E+00 0.  1.
         21   -1    0    0  503  502  0.00000000000E+00 -0.00000000000E+00 -0.11765689777E+03  0.11765689777E+03  0.00000000000E+00 0.  1.
         24    2    1    2    0    0  0.28281416483E+02 -0.20237328791E+02  0.15121774395E+03  0.17496791958E+03  0.80855295438E+02 0.  0.
         23    2    1    2    0    0 -0.51742612470E+02 -0.26034582267E+02 -0.57765032018E+02  0.12304203332E+03  0.91909986506E+02 0.  0.
        -11    1    3    3    0    0  0.23786919815E+02  0.28415018194E+02  0.46886729028E+02  0.59762832699E+02  0.00000000000E+00 0.  1.
         12    1    3    3    0    0  0.44944966674E+01 -0.48652346985E+02  0.10433101493E+03  0.11520508688E+03  0.00000000000E+00 0. -1.
        -13    1    4    4    0    0 -0.24221167800E+02 -0.49798832072E+02 -0.70534328623E+00  0.55381279820E+02  0.00000000000E+00 0. -1.
         13    1    4    4    0    0 -0.27521444670E+02  0.23764249805E+02 -0.57059688732E+02  0.67660753497E+02  0.00000000000E+00 0.  1.
         21    1    1    2  503  501  0.35513185463E+02  0.17206010783E+02  0.15490887096E+03  0.15985615863E+03  0.00000000000E+00 0.  1.
         -2    1    1    2    0  502 -0.12051989476E+02  0.29065900275E+02  0.62760161303E+01  0.32085283037E+02  0.00000000000E+00 0.  1.
<scales pt_clust_5="13000.00000" pt_clust_6="13000.00000" pt_clust_7="13000.00000" pt_clust_8="13000.00000" pt_clust_9="39.51190" pt_clust_10="31.46549"></scales>
<clustering>
<clus scale="   31.465">  2 10  1 -1</clus>
<clus scale="   39.512">  1  9  2 -1</clus>
<clus scale="   80.855">  5  6 -1 -1</clus>
<clus scale="   91.910">  7  8 -1 -1</clus>
<clus scale="   97.080">  1  5  2 -1</clus>
<clus scale="   31.465">  2  5  1 -1</clus>
</clustering>
</event>
<event>
10    4  0.2977685E-005  0.1692305E+03  0.7546771E-02  0.1200011E+00
          2   -1    0    0  503    0 -0.00000000000E+00  0.00000000000E+00  0.29980221714E+03  0.29980221714E+03  0.00000000000E+00 0. -1.
         21   -1    0    0  501  502  0.00000000000E+00 -0.00000000000E+00 -0.69569245342E+03  0.69569245342E+03  0.00000000000E+00 0. -1.
         24    2    1    2    0    0 -0.58798822672E+02  0.43130258342E+02  0.27683119087E+02  0.11324023696E+03  0.82094308279E+02 0.  0.
         23    2    1    2    0    0  0.11673818257E+02 -0.84247668495E+02  0.16861082544E+03  0.22262596890E+03  0.11789301885E+03 0.  0.
        -13    1    3    3    0    0  0.20101366523E+02  0.46742607193E+00  0.53088265070E+01  0.20795842424E+02  0.00000000000E+00 0.  1.
         14    1    3    3    0    0 -0.78900189196E+02  0.42662832270E+02  0.22374292580E+02  0.92444394535E+02  0.00000000000E+00 0. -1.
        -11    1    4    4    0    0 -0.60778780909E+01 -0.23850530568E+02 -0.14794925081E+02  0.28717211192E+02  0.00000000000E+00 0.  1.
         11    1    4    4    0    0  0.17751696348E+02 -0.60397137927E+02  0.18340575052E+03  0.19390875771E+03  0.00000000000E+00 0. -1.
         21    1    1    2  503  502 -0.92420390351E+01 -0.68346381515E+02 -0.16486247688E+02  0.70911490709E+02  0.00000000000E+00 0. -1.
          1    1    1    2  501    0  0.56367043450E+02  0.10946379167E+03 -0.57569793311E+03  0.58871697399E+03  0.00000000000E+00 0. -1.
<scales pt_clust_5="13000.00000" pt_clust_6="13000.00000" pt_clust_7="13000.00000" pt_clust_8="13000.00000" pt_clust_9="68.96842" pt_clust_10="121.40927"></scales>
<clustering>
<clus scale="   68.968">  1  9  2 -1</clus>
<clus scale="   82.094">  5  6 -1 -1</clus>
<clus scale="  105.507">  1  5  2 -1</clus>
<clus scale="  117.893">  7  8 -1 -1</clus>
<clus scale="  121.409">  2 10  1 -1</clus>
<clus scale="  121.409">  2  5  1 -1</clus>
</clustering>
</event>
<event>
10    4  0.2977685E-005  0.1615421E+03  0.7546771E-02  0.1188830E+00
          2   -1    0    0  503    0 -0.00000000000E+00  0.00000000000E+00  0.96942015724E+03  0.96942015724E+03  0.00000000000E+00 0. -1.
         21   -1    0    0  501  502  0.00000000000E+00 -0.00000000000E+00 -0.89323658806E+02  0.89323658806E+02  0.00000000000E+00 0.  1.
         24    2    1    2    0    0  0.17537163969E+03 -0.33604490971E+02  0.21515293211E+03  0.29047421947E+03  0.78740168660E+02 0.  0.
         23    2    1    2    0    0 -0.84620585991E+02 -0.95609732238E+02  0.12417631728E+03  0.19997939867E+03  0.90940297161E+02 0.  0.
        -11    1    3    3    0    0  0.14768919430E+03 -0.52268341447E+02  0.19932959296E+03  0.25352783725E+03  0.00000000000E+00 0.  1.
         12    1    3    3    0    0  0.27682445391E+02  0.18663850476E+02  0.15823339149E+02  0.36946382221E+02  0.00000000000E+00 0. -1.
        -11    1    4    4    0    0 -0.56361869573E+02 -0.33094889935E+02  0.90802659851E+01  0.65987751226E+02  0.00000000000E+00 0.  1.
         11    1    4    4    0    0 -0.28258716419E+02 -0.62514842303E+02  0.11509605129E+03  0.13399164744E+03  0.00000000000E+00 0. -1.
         21    1    1    2  503  502 -0.32588835746E+02 -0.81523947425E-01  0.87741655498E+02  0.93598274402E+02  0.00000000000E+00 0. -1.
          1    1    1    2  501    0 -0.58162217951E+02  0.12929574716E+03  0.45302559355E+03  0.47469192350E+03  0.00000000000E+00 0. -1.
<scales pt_clust_5="13000.00000" pt_clust_6="13000.00000" pt_clust_7="13000.00000" pt_clust_8="13000.00000" pt_clust_9="32.58894" pt_clust_10="149.61989"></scales>
<clustering>
<clus scale="   32.589">  1  9  2 -1</clus>
<clus scale="   78.740">  5  6 -1 -1</clus>
<clus scale="   90.940">  7  8 -1 -1</clus>
<clus scale="  149.620">  2 10  1 -1</clus>
<clus scale="  155.002">  1  5  2 -1</clus>
<clus scale="  149.620">  2  5  1 -1</clus>
</clustering>
</event>
<event>
10    4  0.2977685E-005  0.1044142E+03  0.7546771E-02  0.1277895E+00
          2   -1    0    0  503    0 -0.00000000000E+00  0.00000000000E+00  0.73412808964E+03  0.73412808964E+03  0.00000000000E+00 0. -1.
         21   -1    0    0  501  502  0.00000000000E+00 -0.00000000000E+00 -0.47926606913E+02  0.47926606913E+02  0.00000000000E+00 0. -1.
         24    2    1    2    0    0  0.51798428742E+02  0.23940096750E+02  0.47471894663E+03  0.48454497885E+03  0.78546500823E+02 0.  0.
         23    2    1    2    0    0 -0.29243661730E+02 -0.50243026864E+02  0.14063531093E+03  0.17825065658E+03  0.92819461280E+02 0.  0.
        -13    1    3    3    0    0  0.37459629565E+02  0.31667060765E+02  0.12258469389E+03  0.13203421436E+03  0.00000000000E+00 0.  1.
         14    1    3    3    0    0  0.14338799178E+02 -0.77269640153E+01  0.35213425273E+03  0.35251076449E+03  0.00000000000E+00 0. -1.
        -13    1    4    4    0    0 -0.37057468693E+02 -0.17910684349E+02  0.85449243617E+01  0.42036464315E+02  0.00000000000E+00 0.  1.
         13    1    4    4    0    0  0.78138069626E+01 -0.32332342515E+02  0.13209038657E+03  0.13621419227E+03  0.00000000000E+00 0. -1.
         21    1    1    2  503  502 -0.21114820731E+02  0.40426434909E+01  0.88335655270E+02  0.90914061689E+02  0.00000000000E+00 0.  1.
          1    1    1    2  501    0 -0.14399462814E+01  0.22260286623E+02 -0.17488430093E+02  0.28344999434E+02  0.00000000000E+00 0. -1.
<scales pt_clust_5="13000.00000" pt_clust_6="13000.00000" pt_clust_7="13000.00000" pt_clust_8="13000.00000" pt_clust_9="21.49834" pt_clust_10="22.35296"></scales>
<clustering>
<clus scale="   21.498">  1  9  2 -1</clus>
<clus scale="   22.353">  2 10  1 -1</clus>
<clus scale="   78.547">  5  6 -1 -1</clus>
<clus scale="   91.959">  1  5  2 -1</clus>
<clus scale="   92.819">  7  8 -1 -1</clus>
<clus scale="   22.353">  2  5  1 -1</clus>
</clustering>
</event>
<event>
10    4  0.2977685E-005  0.4006009E+03  0.7546771E-02  0.1043720E+00
         21   -1    0    0  501  502  0.00000000000E+00  0.00000000000E+00  0.19167825704E+03  0.19167825704E+03  0.00000000000E+00 0. -1.
          2   -1    0    0  503    0 -0.00000000000E+00 -0.00000000000E+00 -0.15198601485E+04  0.15198601485E+04  0.00000000000E+00 0. -1.
         23    2    1    2    0    0 -0.41482619304E+03  0.11383075821E+03 -0.99503404626E+03  0.10876315726E+04  0.88382534790E+02 0.  0.
         24    2    1    2    0    0  0.29870156617E+03 -0.86877842359E+02 -0.90248011522E+02  0.33369851721E+03  0.80247191101E+02 0.  0.
        -11    1    4    4    0    0  0.11792482663E+03 -0.19583450291E+02 -0.72921588590E+02  0.14002619163E+03  0.00000000000E+00 0.  1.
         12    1    4    4    0    0  0.18077673954E+03 -0.67294392069E+02 -0.17326422932E+02  0.19367232558E+03  0.00000000000E+00 0. -1.
        -13    1    3    3    0    0 -0.35866177901E+03  0.11696688571E+03 -0.91580871378E+03  0.99046712430E+03  0.00000000000E+00 0. -1.
         13    1    3    3    0    0 -0.56164414029E+02 -0.31361274999E+01 -0.79225332478E+02  0.97164448257E+02  0.00000000000E+00 0.  1.
         21    1    1    2  503  502  0.10949749920E+02 -0.18351062920E+02 -0.14401469653E+03  0.14559152225E+03  0.00000000000E+00 0. -1.
          1    1    1    2  501    0  0.10517487695E+03 -0.86018529264E+01 -0.98885137101E+02  0.14461679348E+03  0.00000000000E+00 0. -1.
<scales pt_clust_5="13000.00000" pt_clust_6="13000.00000" pt_clust_7="13000.00000" pt_clust_8="13000.00000" pt_clust_9="21.36957" pt_clust_10="106.63591"></scales>
<clustering>
<clus scale="   21.370">  2  9  1 -1</clus>
<clus scale="   80.247">  5  6 -1 -1</clus>
<clus scale="   88.383">  7  8 -1 -1</clus>
<clus scale="  106.636">  1 10  2 -1</clus>
<clus scale="  398.885">  1  5  2 -1</clus>
<clus scale="  106.636">  1  5  2 -1</clus>
</clustering>
</event>
<event>
10    4  0.2977685E-005  0.2362084E+03  0.7546771E-02  0.1156039E+00
          4   -1    0    0  503    0 -0.00000000000E+00  0.00000000000E+00  0.66707453472E+03  0.66707453472E+03  0.00000000000E+00 0. -1.
         21   -1    0    0  501  502  0.00000000000E+00 -0.00000000000E+00 -0.20473024795E+03  0.20473024795E+03  0.00000000000E+00 0. -1.
         24    2    1    2    0    0  0.63760297447E+02 -0.29199352112E+02  0.63497086527E+02  0.12489625679E+03  0.81542732769E+02 0.  0.
         23    2    1    2    0    0  0.19221850850E+03  0.74189592016E+02 -0.17187912458E+02  0.22604102582E+03  0.91362303201E+02 0.  0.
        -13    1    3    3    0    0  0.77423773805E+02 -0.44355430639E+01  0.55939337074E+02  0.95620731145E+02  0.00000000000E+00 0.  1.
         14    1    3    3    0    0 -0.13663476358E+02 -0.24763809048E+02  0.75577494532E+01  0.29275525641E+02  0.00000000000E+00 0. -1.
        -11    1    4    4    0    0  0.13807053573E+03  0.64115078659E+01 -0.38744918906E+01  0.13827361266E+03  0.00000000000E+00 0. -1.
         11    1    4    4    0    0  0.54147972768E+02  0.67778084150E+02 -0.13313420567E+02  0.87767413162E+02  0.00000000000E+00 0.  1.
         21    1    1    2  503  502 -0.13583135590E+02  0.32400597979E+02  0.14463967229E+03  0.14884533960E+03  0.00000000000E+00 0. -1.
          3    1    1    2  501    0 -0.24239567036E+03 -0.77390837882E+02  0.27139544041E+03  0.37202216046E+03  0.00000000000E+00 0. -1.
<scales pt_clust_5="13000.00000" pt_clust_6="13000.00000" pt_clust_7="13000.00000" pt_clust_8="13000.00000" pt_clust_9="35.13261" pt_clust_10="217.82426"></scales>
<clustering>
<clus scale="   35.133">  1  9  2 -1</clus>
<clus scale="   81.543">  5  6 -1 -1</clus>
<clus scale="   91.362">  7  8 -1 -1</clus>
<clus scale="  104.650">  1  5  2 -1</clus>
<clus scale="  217.824">  2 10  1 -1</clus>
<clus scale="  217.824">  2  5  1 -1</clus>
</clustering>
</event>
<event>
10    4  0.2977685E-005  0.2604001E+03  0.7546771E-02  0.1146626E+00
         21   -1    0    0  501  502  0.00000000000E+00  0.00000000000E+00  0.14041888908E+03  0.14041888908E+03  0.00000000000E+00 0. -1.
          2   -1    0    0  503    0 -0.00000000000E+00 -0.00000000000E+00 -0.17312877676E+04  0.17312877676E+04  0.00000000000E+00 0. -1.
         24    2    1    2    0    0 -0.46939068324E+02  0.27273036001E+02 -0.52526557577E+03  0.53425125586E+03  0.81076412561E+02 0.  0.
         23    2    1    2    0    0  0.24773010936E+03 -0.92787074368E+02 -0.17799050269E+03  0.33225992245E+03  0.93468651260E+02 0.  0.
        -11    1    3    3    0    0 -0.61278527847E+02 -0.45862141603E+01 -0.29317605943E+03  0.29954681297E+03  0.00000000000E+00 0.  1.
         12    1    3    3    0    0  0.14339459522E+02  0.31859250162E+02 -0.23208951634E+03  0.23470444289E+03  0.00000000000E+00 0. -1.
        -13    1    4    4    0    0  0.23275786378E+03 -0.11025200917E+03 -0.16416577576E+03  0.30542123470E+03  0.00000000000E+00 0. -1.
         13    1    4    4    0    0  0.14972245580E+02  0.17464934804E+02 -0.13824726930E+02  0.26838687749E+02  0.00000000000E+00 0.  1.
         21    1    1    2  503  502 -0.10873822533E+03 -0.17958995213E+03 -0.39531344043E+03  0.44760391949E+03  0.00000000000E+00 0. -1.
          1    1    1    2  501    0 -0.92052815704E+02  0.24510399050E+03 -0.49229935960E+03  0.55759155885E+03  0.00000000000E+00 0. -1.
<scales pt_clust_5="13000.00000" pt_clust_6="13000.00000" pt_clust_7="13000.00000" pt_clust_8="13000.00000" pt_clust_9="211.14865" pt_clust_10="243.04709"></scales>
<clustering>
<clus scale="   81.076">  5  6 -1 -1</clus>
<clus scale="   93.469">  7  8 -1 -1</clus>
<clus scale="   97.573">  2  5  1 -1</clus>
<clus scale="  211.149">  2  9  1 -1</clus>
<clus scale="  243.047">  1 10  2 -1</clus>
<clus scale="  243.047">  1  5  2 -1</clus>
</clustering>
</event>
<event>
10    4  0.2977685E-005  0.6379984E+03  0.7546771E-02  0.9829564E-01
         -1   -1    0    0    0  501 -0.00000000000E+00  0.00000000000E+00  0.73198849915E+03  0.73198849915E+03  0.00000000000E+00 0.  1.
         21   -1    0    0  503  502  0.00000000000E+00 -0.00000000000E+00 -0.69207871703E+03  0.69207871703E+03  0.00000000000E+00 0. -1.
         24    2    1    2    0    0  0.16779674135E+03 -0.26874414667E+02 -0.94392389225E+01  0.18787205666E+03  0.79553943153E+02 0.  0.
         23    2    1    2    0    0  0.41377973099E+03  0.12080601707E+02 -0.30224435183E+03  0.52076903556E+03  0.92136493666E+02 0.  0.
        -13    1    3    3    0    0  0.84820266481E+02 -0.30388580323E+02  0.31281497887E+02  0.95375445110E+02  0.00000000000E+00 0.  1.
         14    1    3    3    0    0  0.82976474871E+02  0.35141656557E+01 -0.40720736810E+02  0.92496611552E+02  0.00000000000E+00 0. -1.
        -13    1    4    4    0    0  0.22623083986E+03 -0.16292094271E+01 -0.21984246833E+03  0.31545801322E+03  0.00000000000E+00 0. -1.
         13    1    4    4    0    0  0.18754889114E+03  0.13709811134E+02 -0.82401883501E+02  0.20531102234E+03  0.00000000000E+00 0.  1.
         21    1    1    2  503  501  0.84281511084E+00 -0.31532915058E+02 -0.34768622050E+01  0.31735211362E+02  0.00000000000E+00 0. -1.
         -2    1    1    2    0  502 -0.58241928746E+03  0.46326728018E+02  0.35507023508E+03  0.68369091260E+03  0.00000000000E+00 0.  1.
<scales pt_clust_5="13000.00000" pt_clust_6="13000.00000" pt_clust_7="13000.00000" pt_clust_8="13000.00000" pt_clust_9="31.54418" pt_clust_10="583.49539"></scales>
<clustering>
<clus scale="   31.544">  2  9  1 -1</clus>
<clus scale="   79.554">  5  6 -1 -1</clus>
<clus scale="   92.136">  7  8 -1 -1</clus>
<clus scale="  144.943">  5  7 -1 -1</clus>
<clus scale="  583.495">  2 10  1 -1</clus>
<clus scale="   31.544">  2  5  1 -1</clus>
</clustering>
</event>
<event>
10    4  0.2977685E-005  0.1149410E+03  0.7546771E-02  0.1255208E+00
         -1   -1    0    0    0  501 -0.00000000000E+00  0.00000000000E+00  0.12128383933E+04  0.12128383933E+04  0.00000000000E+00 0.  1.
         21   -1    0    0  503  502  0.00000000000E+00 -0.00000000000E+00 -0.35791554457E+02  0.35791554457E+02  0.00000000000E+00 0.  1.
         23    2    1    2    0    0 -0.49681250231E+01  0.61818913302E+02  0.41592946186E+03  0.43012089534E+03  0.90334971370E+02 0.  0.
         24    2    1    2    0    0  0.81835061253E+02 -0.32821226926E+02  0.11904773183E+03  0.16846670194E+03  0.80215067291E+02 0.  0.
        -11    1    4    4    0    0  0.76450744179E+02 -0.18759584338E+02  0.12849549961E+03  0.15069084813E+03  0.00000000000E+00 0.  1.
         12    1    4    4    0    0  0.53843170734E+01 -0.14061642588E+02 -0.94477677785E+01  0.17775853809E+02  0.00000000000E+00 0. -1.
        -13    1    3    3    0    0 -0.18806154930E+02 -0.13459449920E+02  0.37725802044E+02  0.44250021416E+02  0.00000000000E+00 0. -1.
         13    1    3    3    0    0  0.13838029907E+02  0.75278363222E+02  0.37820365982E+03  0.38587087392E+03  0.00000000000E+00 0.  1.
         21    1    1    2  503  501 -0.51512848301E+02  0.12363887821E+02  0.33130977990E+03  0.33551841904E+03  0.00000000000E+00 0. -1.
         -2    1    1    2    0  502 -0.25354087929E+02 -0.41361574197E+02  0.31075986522E+03  0.31452393141E+03  0.00000000000E+00 0.  1.
<scales pt_clust_5="13000.00000" pt_clust_6="13000.00000" pt_clust_7="13000.00000" pt_clust_8="13000.00000" pt_clust_9="53.98271" pt_clust_10="48.51404"></scales>
<clustering>
<clus scale="   48.514">  2 10  1 -1</clus>
<clus scale="   53.983">  1  9  2 -1</clus>
<clus scale="   80.215">  5  6 -1 -1</clus>
<clus scale="   90.335">  7  8 -1 -1</clus>
<clus scale="  107.170">  2  5  1 -1</clus>
<clus scale="   48.514">  2  5  1 -1</clus>
</clustering>
</event>
<event>
10    4  0.2977685E-005  0.1012681E+03  0.7546771E-02  0.1278699E+00
         21   -1    0    0  501  502  0.00000000000E+00  0.00000000000E+00  0.53486226081E+02  0.53486226081E+02  0.00000000000E+00 0.  1.
          2   -1    0    0  503    0 -0.00000000000E+00 -0.00000000000E+00 -0.68259247770E+03  0.68259247770E+03  0.00000000000E+00 0. -1.
         23    2    1    2    0    0  0.21743158572E+02 -0.27995987886E+02 -0.44568906948E+03  0.45647067923E+03  0.92033657227E+02 0.  0.
         24    2    1    2    0    0 -0.27436817016E+02 -0.30296548434E+01 -0.13090979432E+02  0.94876948892E+02  0.89823738244E+02 0.  0.
        -11    1    4    4    0    0 -0.31211019253E+02  0.29675867368E+01  0.34583201870E+02  0.46679033253E+02  0.00000000000E+00 0.  1.
         12    1    4    4    0    0  0.37742022370E+01 -0.59972415802E+01 -0.47674181302E+02  0.48197915639E+02  0.00000000000E+00 0. -1.
        -11    1    3    3    0    0 -0.32223410127E+02  0.81233820502E+01 -0.13081412280E+03  0.13496915285E+03  0.00000000000E+00 0.  1.
         11    1    3    3    0    0  0.53966568700E+02 -0.36119369937E+02 -0.31487494668E+03  0.32150152638E+03  0.00000000000E+00 0. -1.
         21    1    1    2  503  502  0.23486088099E+02  0.10494634334E+02 -0.14604708948E+03  0.14829526637E+03  0.00000000000E+00 0. -1.
          1    1    1    2  501    0 -0.17792429655E+02  0.20531008396E+02 -0.24279113227E+02  0.36435809280E+02  0.00000000000E+00 0. -1.
<scales pt_clust_5="13000.00000" pt_clust_6="13000.00000" pt_clust_7="13000.00000" pt_clust_8="13000.00000" pt_clust_9="25.72418" pt_clust_10="26.78185"></scales>
<clustering>
<clus scale="   25.724">  2  9  1 -1</clus>
<clus scale="   26.782">  1 10  2 -1</clus>
<clus scale="   89.824">  5  6 -1 -1</clus>
<clus scale="   92.034">  7  8 -1 -1</clus>
<clus scale="   99.264">  1  5  2 -1</clus>
<clus scale="   26.782">  1  5  2 -1</clus>
</clustering>
</event>
<event>
10    4  0.2977685E-005  0.9442167E+02  0.7546771E-02  0.1292587E+00
         21   -1    0    0  501  502  0.00000000000E+00  0.00000000000E+00  0.12971116689E+03  0.12971116689E+03  0.00000000000E+00 0.  1.
          4   -1    0    0  503    0 -0.00000000000E+00 -0.00000000000E+00 -0.59656786414E+03  0.59656786414E+03  0.00000000000E+00 0. -1.
         24    2    1    2    0    0  0.70517331938E+02  0.13975799389E+02 -0.43249354429E+03  0.44543961579E+03  0.78725906718E+02 0.  0.
         23    2    1    2    0    0 -0.35208972374E+02  0.15762766006E+02  0.66298858393E+02  0.11007111116E+03  0.78942855032E+02 0.  0.
        -11    1    3    3    0    0  0.23185496228E+01 -0.21802181572E+02 -0.41522345862E+02  0.46955468260E+02  0.00000000000E+00 0.  1.
         12    1    3    3    0    0  0.68198782315E+02  0.35777980960E+02 -0.39097119843E+03  0.39848414753E+03  0.00000000000E+00 0. -1.
        -11    1    4    4    0    0  0.20995724163E+02 -0.12894787653E+02  0.15914935846E+02  0.29332254682E+02  0.00000000000E+00 0. -1.
         11    1    4    4    0    0 -0.56204696537E+02  0.28657553659E+02  0.50383922547E+02  0.80738856481E+02  0.00000000000E+00 0.  1.
         21    1    1    2  503  502 -0.19057917179E+02 -0.76090512363E+01 -0.12940367367E+03  0.13102065726E+03  0.00000000000E+00 0.  1.
          3    1    1    2  501    0 -0.16250442385E+02 -0.22129514158E+02  0.28741662319E+02  0.39747646817E+02  0.00000000000E+00 0. -1.
<scales pt_clust_5="13000.00000" pt_clust_6="13000.00000" pt_clust_7="13000.00000" pt_clust_8="13000.00000" pt_clust_9="20.52077" pt_clust_10="27.66105"></scales>
<clustering>
<clus scale="   20.521">  2  9  1 -1</clus>
<clus scale="   27.661">  1 10  2 -1</clus>
<clus scale="   78.726">  5  6 -1 -1</clus>
<clus scale="   78.943">  7  8 -1 -1</clus>
<clus scale="   94.240">  2  5  1 -1</clus>
<clus scale="   27.661">  1  5  2 -1</clus>
</clustering>
</event>
<event>
10    4  0.2977685E-005  0.2576597E+03  0.7546771E-02  0.1151805E+00
          2   -1    0    0  503    0 -0.00000000000E+00  0.00000000000E+00  0.85682250822E+03  0.85682250822E+03  0.00000000000E+00 0. -1.
         21   -1    0    0  501  502  0.00000000000E+00 -0.00000000000E+00 -0.30854782454E+03  0.30854782454E+03  0.00000000000E+00 0. -1.
         24    2    1    2    0    0 -0.15355705893E+02 -0.42815316804E+02  0.45080407086E+03  0.45951963528E+03  0.76583522025E+02 0.  0.
         23    2    1    2    0    0 -0.95627920928E+02 -0.30413772890E+01  0.55560892736E+02  0.14320005901E+03  0.90913667087E+02 0.  0.
        -11    1    3    3    0    0 -0.13426246681E+02 -0.55679977795E+02  0.19131412498E+03  0.19970382681E+03  0.00000000000E+00 0.  1.
         12    1    3    3    0    0 -0.19294592122E+01  0.12864660991E+02  0.25948994588E+03  0.25981580847E+03  0.00000000000E+00 0. -1.
        -11    1    4    4    0    0 -0.69293775669E+02 -0.44435823350E+02  0.28130214606E+02  0.86991256555E+02  0.00000000000E+00 0.  1.
         11    1    4    4    0    0 -0.26334145259E+02  0.41394446061E+02  0.27430678129E+02  0.56208802459E+02  0.00000000000E+00 0. -1.
         21    1    1    2  503  502 -0.11300883962E+03 -0.14609519220E+03  0.16052254025E+03  0.24470857963E+03  0.00000000000E+00 0. -1.
          1    1    1    2  501    0  0.22399246644E+03  0.19195188629E+03 -0.11861282017E+03  0.31794205884E+03  0.00000000000E+00 0. -1.
<scales pt_clust_5="13000.00000" pt_clust_6="13000.00000" pt_clust_7="13000.00000" pt_clust_8="13000.00000" pt_clust_9="13000.00000" pt_clust_10="257.65974"></scales>
<clustering>
<clus scale="   76.584">  5  6 -1 -1</clus>
<clus scale="   89.073">  1  5  2 -1</clus>
<clus scale="   90.914">  7  8 -1 -1</clus>
<clus scale="  135.414">  1  7  2 -1</clus>
<clus scale="  257.660">  2 10  1 -1</clus>
<clus scale="  257.660">  2  5  1 -1</clus>
</clustering>
</event>
<event>
10    4  0.2977685E-005  0.1984671E+03  0.7546771E-02  0.1178649E+00
          2   -1    0    0  502    0 -0.00000000000E+00  0.00000000000E+00  0.54524982918E+03  0.54524982918E+03  0.00000000000E+00 0. -1.
         21   -1    0    0  503  502  0.00000000000E+00 -0.00000000000E+00 -0.23883410838E+03  0.23883410838E+03  0.00000000000E+00 0.  1.
         24    2    1    2    0    0  0.66718659894E+02 -0.13537367110E+01  0.23983486989E+03  0.26153710998E+03  0.80172831431E+02 0.  0.
         23    2    1    2    0    0  0.41667861104E+02  0.17425373920E+03 -0.11237962771E+03  0.22978059499E+03  0.89829643400E+02 0.  0.
        -13    1    3    3    0    0  0.63892302043E+02 -0.32519043420E+02  0.14660320885E+03  0.16319379673E+03  0.00000000000E+00 0.  1.
         14    1    3    3    0    0  0.28263578509E+01  0.31165306709E+02  0.93231661035E+02  0.98343313246E+02  0.00000000000E+00 0. -1.
        -11    1    4    4    0    0 -0.27164036528E+02  0.29362077189E+02 -0.21348291273E+02  0.45340555771E+02  0.00000000000E+00 0. -1.
         11    1    4    4    0    0  0.68831897632E+02  0.14489166201E+03 -0.91031336438E+02  0.18444003922E+03  0.00000000000E+00 0.  1.
         21    1    1    2  503  501  0.19742245389E+02 -0.16270723266E+02  0.53453012095E+01  0.26135510969E+02  0.00000000000E+00 0. -1.
          1    1    1    2  501    0 -0.12812876639E+03 -0.15662927922E+03  0.17361517742E+03  0.26663072163E+03  0.00000000000E+00 0. -1.
<scales pt_clust_5="13000.00000" pt_clust_6="13000.00000" pt_clust_7="13000.00000" pt_clust_8="13000.00000" pt_clust_9="25.58305" pt_clust_10="176.97417"></scales>
<clustering>
<clus scale="   25.583">  2  9  1 -1</clus>
<clus scale="   80.173">  5  6 -1 -1</clus>
<clus scale="   89.830">  7  8 -1 -1</clus>
<clus scale="  104.927">  1  5  2 -1</clus>
<clus scale="  176.974">  2 10  1 -1</clus>
<clus scale="   25.583">  2  5  1 -1</clus>
</clustering>
</event>
<event>
10    4  0.2977685E-005  0.1653143E+03  0.7546771E-02  0.1209685E+00
         -3   -1    0    0    0  501 -0.00000000000E+00  0.00000000000E+00  0.21666758357E+03  0.21666758357E+03  0.00000000000E+00 0.  1.
         21   -1    0    0  503  502  0.00000000000E+00 -0.00000000000E+00 -0.26507073793E+03  0.26507073793E+03  0.00000000000E+00 0.  1.
         24    2    1    2    0    0 -0.31937292189E+02  0.29679121708E+02 -0.47616851130E+02  0.10336574296E+03  0.80723425399E+02 0.  0.
         23    2    1    2    0    0 -0.91755432969E+02  0.51187094005E+02  0.10306283837E+03  0.17320543660E+03  0.91318106322E+02 0.  0.
        -13    1    3    3    0    0 -0.42149019376E+02  0.51650415164E+02 -0.28493343010E+02  0.72499488390E+02  0.00000000000E+00 0.  1.
         14    1    3    3    0    0  0.10211727187E+02 -0.21971293456E+02 -0.19123508120E+02  0.30866254569E+02  0.00000000000E+00 0. -1.
        -13    1    4    4    0    0 -0.72423638311E+02  0.61836895789E+02  0.11402484028E+03  0.14856193748E+03  0.00000000000E+00 0.  1.
         13    1    4    4    0    0 -0.19331794658E+02 -0.10649801785E+02 -0.10962001912E+02  0.24643499116E+02  0.00000000000E+00 0. -1.
         21    1    1    2  503  501  0.13900098693E+02  0.17196058350E+02  0.42686057650E+01  0.22519728276E+02  0.00000000000E+00 0.  1.
         -4    1    1    2    0  502  0.10979262647E+03 -0.98062274063E+02 -0.10811774737E+03  0.18264741366E+03  0.00000000000E+00 0.  1.
<scales pt_clust_5="13000.00000" pt_clust_6="13000.00000" pt_clust_7="13000.00000" pt_clust_8="13000.00000" pt_clust_9="22.11147" pt_clust_10="137.80354"></scales>
<clustering>
<clus scale="   22.111">  1  9  2 -1</clus>
<clus scale="   80.723">  5  6 -1 -1</clus>
<clus scale="   91.318">  7  8 -1 -1</clus>
<clus scale="   91.894">  1  5  2 -1</clus>
<clus scale="  137.804">  2 10  1 -1</clus>
<clus scale="  137.804">  2  5  1 -1</clus>
</clustering>
</event>
<event>
10    4  0.2977685E-005  0.1699310E+03  0.7546771E-02  0.1181166E+00
         -1   -1    0    0    0  501 -0.00000000000E+00  0.00000000000E+00  0.24413754936E+03  0.24413754936E+03  0.00000000000E+00 0.  1.
         21   -1    0    0  503  502  0.00000000000E+00 -0.00000000000E+00 -0.38748869369E+03  0.38748869369E+03  0.00000000000E+00 0.  1.
         24    2    1    2    0    0  0.47525726258E+02  0.10467731049E+03  0.17667536487E+02  0.13371644228E+03  0.65969016231E+02 0.  0.
         23    2    1    2    0    0 -0.50222955918E+02 -0.18917702550E+03  0.36412434181E+02  0.21888776133E+03  0.90970843767E+02 0.  0.
        -11    1    3    3    0    0  0.43313106394E+02  0.41259359345E+02  0.33024273233E+02  0.68329807124E+02  0.00000000000E+00 0.  1.
         12    1    3    3    0    0  0.42126198639E+01  0.63417951141E+02 -0.15356736746E+02  0.65386635152E+02  0.00000000000E+00 0. -1.
        -11    1    4    4    0    0 -0.32106473900E+02 -0.18003244507E+03  0.68131847213E+01  0.18299979899E+03  0.00000000000E+00 0.  1.
         11    1    4    4    0    0 -0.18116482018E+02 -0.91445804323E+01  0.29599249460E+02  0.35887962335E+02  0.00000000000E+00 0. -1.
         21    1    1    2  503  501  0.98003376527E+01 -0.19412876545E+02  0.25167440053E+02  0.33261185076E+02  0.00000000000E+00 0.  1.
         -2    1    1    2    0  502 -0.71031079926E+01  0.10391259156E+03 -0.22259855505E+03  0.24576085437E+03  0.00000000000E+00 0.  1.
<scales pt_clust_5="13000.00000" pt_clust_6="13000.00000" pt_clust_7="13000.00000" pt_clust_8="13000.00000" pt_clust_9="21.74641" pt_clust_10="103.07644"></scales>
<clustering>
<clus scale="   21.746">  1  9  2 -1</clus>
<clus scale="   65.969">  5  6 -1 -1</clus>
<clus scale="   90.971">  7  8 -1 -1</clus>
<clus scale="  103.076">  2 10  1 -1</clus>
<clus scale="  157.964">  1  5  2 -1</clus>
<clus scale="  103.076">  2  5  1 -1</clus>
</clustering>
</event>
<event>
10    4  0.2977685E-005  0.1952220E+03  0.7546771E-02  0.1154512E+00
         21   -1    0    0  501  502  0.00000000000E+00  0.00000000000E+00  0.72274280307E+02  0.72274280307E+02  0.00000000000E+00 0.  1.
          2   -1    0    0  503    0 -0.00000000000E+00 -0.00000000000E+00 -0.73310657987E+03  0.73310657987E+03  0.00000000000E+00 0. -1.
         24    2    1    2    0    0  0.63394117824E+02  0.19167636246E+03 -0.34688577028E+03  0.40990918130E+03  0.83289598308E+02 0.  0.
         23    2    1    2    0    0 -0.29784166112E+02 -0.14421410584E+03 -0.22373196375E+03  0.28262065529E+03  0.90186685916E+02 0.  0.
        -11    1    3    3    0    0  0.91773325192E+01  0.10103003220E+03 -0.10516750412E+03  0.14612150684E+03  0.00000000000E+00 0.  1.
         12    1    3    3    0    0  0.54216785305E+02  0.90646330259E+02 -0.24171826616E+03  0.26378767445E+03  0.00000000000E+00 0. -1.
        -11    1    4    4    0    0 -0.44642083677E+02 -0.28708527245E+02 -0.46575411229E+02  0.70614191936E+02  0.00000000000E+00 0. -1.
         11    1    4    4    0    0  0.14857917565E+02 -0.11550557860E+03 -0.17715655252E+03  0.21200646335E+03  0.00000000000E+00 0.  1.
         21    1    1    2  503  502 -0.66924086322E+01 -0.21899902606E+02 -0.62388420009E+02  0.66458325428E+02  0.00000000000E+00 0.  1.
          1    1    1    2  501    0 -0.26917543081E+02 -0.25562354015E+02 -0.27826145517E+02  0.46392698161E+02  0.00000000000E+00 0. -1.
<scales pt_clust_5="13000.00000" pt_clust_6="13000.00000" pt_clust_7="13000.00000" pt_clust_8="13000.00000" pt_clust_9="22.89965" pt_clust_10="38.23261"></scales>
<clustering>
<clus scale="   22.900">  2  9  1 -1</clus>
<clus scale="   38.233">  1 10  2 -1</clus>
<clus scale="   83.290">  5  6 -1 -1</clus>
<clus scale="   90.187">  7  8 -1 -1</clus>
<clus scale="  192.133">  2  5  1 -1</clus>
<clus scale="   38.233">  1  5  2 -1</clus>
</clustering>
</event>
<event>
10    4  0.2977685E-005  0.1963918E+03  0.7546771E-02  0.1154370E+00
         -3   -1    0    0    0  501 -0.00000000000E+00  0.00000000000E+00  0.76540210692E+02  0.76540210692E+02  0.00000000000E+00 0.  1.
         21   -1    0    0  503  502  0.00000000000E+00 -0.00000000000E+00 -0.87473084121E+03  0.87473084121E+03  0.00000000000E+00 0. -1.
         23    2    1    2    0    0  0.15906292348E+03  0.10244550655E+03 -0.37556273448E+03  0.43042003525E+03  0.91749353007E+02 0.  0.
         24    2    1    2    0    0 -0.13069071964E+03 -0.86678894574E+02 -0.40688727096E+03  0.44255205918E+03  0.75510124165E+02 0.  0.
        -11    1    4    4    0    0 -0.46214798626E+02  0.80005852887E+01 -0.12094249014E+03  0.12971855264E+03  0.00000000000E+00 0.  1.
         12    1    4    4    0    0 -0.84475921015E+02 -0.94679479863E+02 -0.28594478082E+03  0.31283350654E+03  0.00000000000E+00 0. -1.
        -13    1    3    3    0    0  0.87975778387E+02  0.14034474774E+02 -0.10937500678E+03  0.14106592847E+03  0.00000000000E+00 0.  1.
         13    1    3    3    0    0  0.71087145090E+02  0.88411031778E+02 -0.26618772770E+03  0.28935410679E+03  0.00000000000E+00 0. -1.
         21    1    1    2  503  501  0.22145485821E+02 -0.10108177403E+02  0.20803597060E+01  0.24432062728E+02  0.00000000000E+00 0.  1.
         -4    1    1    2    0  502 -0.50517689657E+02 -0.56584345740E+01 -0.17820984779E+02  0.53866894737E+02  0.00000000000E+00 0.  1.
<scales pt_clust_5="13000.00000" pt_clust_6="13000.00000" pt_clust_7="13000.00000" pt_clust_8="13000.00000" pt_clust_9="24.34333" pt_clust_10="45.02752"></scales>
<clustering>
<clus scale="   24.343">  1  9  2 -1</clus>
<clus scale="   45.028">  2 10  1 -1</clus>
<clus scale="   75.510">  5  6 -1 -1</clus>
<clus scale="   91.749">  7  8 -1 -1</clus>
<clus scale="  189.350">  2  5  1 -1</clus>
<clus scale="   45.028">  2  5  1 -1</clus>
</clustering>
</event>
<event>
10    4  0.2977685E-005  0.9887934E+02  0.7546771E-02  0.1286330E+00
          2   -1    0    0  503    0 -0.00000000000E+00  0.00000000000E+00  0.58504700457E+03  0.58504700457E+03  0.00000000000E+00 0. -1.
         21   -1    0    0  501  502  0.00000000000E+00 -0.00000000000E+00 -0.54268055126E+02  0.54268055126E+02  0.00000000000E+00 0.  1.
         23    2    1    2    0    0 -0.84673777962E+01  0.52512751840E+02  0.13189681828E+03  0.16813507285E+03  0.89684705819E+02 0.  0.
         24    2    1    2    0    0  0.56458560924E+02 -0.66986694774E+01  0.49673069637E+02  0.11171533841E+03  0.82343559038E+02 0.  0.
        -11    1    4    4    0    0  0.67228824701E+02 -0.12401318296E+01  0.64102859156E+02  0.92900104142E+02  0.00000000000E+00 0.  1.
         12    1    4    4    0    0 -0.10770263777E+02 -0.54585376478E+01 -0.14429789520E+02  0.18815234270E+02  0.00000000000E+00 0. -1.
        -11    1    3    3    0    0  0.22865125993E+02 -0.13512372634E+02  0.60001388390E+02  0.65616802799E+02  0.00000000000E+00 0. -1.
         11    1    3    3    0    0 -0.31332503789E+02  0.66025124474E+02  0.71895429892E+02  0.10251827005E+03  0.00000000000E+00 0.  1.
         21    1    1    2  503  502 -0.12725773232E+01 -0.26799385716E+02  0.57811184354E+02  0.63733504251E+02  0.00000000000E+00 0. -1.
          1    1    1    2  501    0 -0.46718605805E+02 -0.19014696647E+02  0.29139787717E+03  0.29573114418E+03  0.00000000000E+00 0. -1.
<scales pt_clust_5="13000.00000" pt_clust_6="13000.00000" pt_clust_7="13000.00000" pt_clust_8="13000.00000" pt_clust_9="26.82958" pt_clust_10="58.37070"></scales>
<clustering>
<clus scale="   26.830">  1  9  2 -1</clus>
<clus scale="   58.371">  2 10  1 -1</clus>
<clus scale="   82.344">  5  6 -1 -1</clus>
<clus scale="   89.685">  7  8 -1 -1</clus>
<clus scale="   92.273">  2  5  1 -1</clus>
<clus scale="   58.371">  2  5  1 -1</clus>
</clustering>
</event>
<event>
10    4  0.2977685E-005  0.2602576E+03  0.7546771E-02  0.1107594E+00
         21   -1    0    0  503  502  0.00000000000E+00  0.00000000000E+00  0.25177710542E+03  0.25177710542E+03  0.00000000000E+00 0. -1.
         -1   -1    0    0    0  501 -0.00000000000E+00 -0.00000000000E+00 -0.99988048551E+03  0.99988048551E+03  0.00000000000E+00 0.  1.
         23    2    1    2    0    0 -0.81220169233E+02 -0.29673925614E+03 -0.11032986714E+03  0.33951395809E+03  0.91902916895E+02 0.  0.
         24    2    1    2    0    0 -0.28928275616E+01  0.17880233900E+03  0.49707692295E+02  0.20206240163E+03  0.79873115610E+02 0.  0.
        -11    1    4    4    0    0  0.10704536269E+02  0.26439323884E+02  0.39541940780E+02  0.48756435728E+02  0.00000000000E+00 0.  1.
         12    1    4    4    0    0 -0.13597363830E+02  0.15236301512E+03  0.10165751514E+02  0.15330596591E+03  0.00000000000E+00 0. -1.
        -13    1    3    3    0    0 -0.16100594078E+02 -0.20329653711E+03 -0.47319717770E+02  0.20935106118E+03  0.00000000000E+00 0. -1.
         13    1    3    3    0    0 -0.65119575154E+02 -0.93442719033E+02 -0.63010149371E+02  0.13016289691E+03  0.00000000000E+00 0.  1.
         21    1    1    2  503  501 -0.17055370503E+02  0.27438783687E+02 -0.60615549527E+02  0.68687825397E+02  0.00000000000E+00 0.  1.
         -2    1    1    2    0  502  0.10116836730E+03  0.90498133450E+02 -0.62686565572E+03  0.64139340581E+03  0.00000000000E+00 0.  1.
<scales pt_clust_5="13000.00000" pt_clust_6="13000.00000" pt_clust_7="13000.00000" pt_clust_8="13000.00000" pt_clust_9="32.30747" pt_clust_10="141.18197"></scales>
<clustering>
<clus scale="   32.307">  2  9  1 -1</clus>
<clus scale="   79.873">  5  6 -1 -1</clus>
<clus scale="   91.903">  7  8 -1 -1</clus>
<clus scale="  141.182">  1 10  2 -1</clus>
<clus scale="  256.257">  1  5  2 -1</clus>
<clus scale="  141.182">  1  5  2 -1</clus>
</clustering>
</event>
<event>
10    4  0.2977685E-005  0.4687145E+03  0.7546771E-02  0.1022474E+00
         21   -1    0    0  501  502  0.00000000000E+00  0.00000000000E+00  0.42525741038E+03  0.42525741038E+03  0.00000000000E+00 0. -1.
          2   -1    0    0  503    0 -0.00000000000E+00 -0.00000000000E+00 -0.13033831010E+04  0.13033831010E+04  0.00000000000E+00 0. -1.
         24    2    1    2    0    0 -0.43722056429E+03 -0.28932399309E+02 -0.17168967892E+03  0.47781958937E+03  0.82675924947E+02 0.  0.
         23    2    1    2    0    0  0.42374190153E+03  0.29539745272E+03 -0.24571899492E+03  0.58011981589E+03  0.96666034056E+02 0.  0.
        -11    1    3    3    0    0 -0.22694862855E+02 -0.20124371721E+02 -0.40876716371E+01  0.30606473116E+02  0.00000000000E+00 0.  1.
         12    1    3    3    0    0 -0.41452570144E+03 -0.88080275878E+01 -0.16760200728E+03  0.44721311625E+03  0.00000000000E+00 0. -1.
        -11    1    4    4    0    0  0.10943427891E+03  0.30452189268E+02 -0.39907351147E+02  0.12039847967E+03  0.00000000000E+00 0.  1.
         11    1    4    4    0    0  0.31430762262E+03  0.26494526345E+03 -0.20581164377E+03  0.45972133622E+03  0.00000000000E+00 0. -1.
         21    1    1    2  503  502 -0.50038200392E+02  0.71734790476E+02 -0.25546946220E+03  0.27002656866E+03  0.00000000000E+00 0.  1.
          1    1    1    2  501    0  0.63516863157E+02 -0.33819984389E+03 -0.20524755458E+03  0.40067453746E+03  0.00000000000E+00 0. -1.
<scales pt_clust_5="13000.00000" pt_clust_6="13000.00000" pt_clust_7="13000.00000" pt_clust_8="13000.00000" pt_clust_9="87.46257" pt_clust_10="321.06905"></scales>
<clustering>
<clus scale="   82.676">  5  6 -1 -1</clus>
<clus scale="   87.463">  2  9  1 -1</clus>
<clus scale="   96.666">  7  8 -1 -1</clus>
<clus scale="  321.069">  1 10  2 -1</clus>
<clus scale="  466.030">  2  5  1 -1</clus>
<clus scale="  321.069">  1  5  2 -1</clus>
</clustering>
</event>
<event>
10    4  0.2977685E-005  0.1268786E+03  0.7546771E-02  0.1234592E+00
         21   -1    0    0  501  502  0.00000000000E+00  0.00000000000E+00  0.36424502551E+03  0.36424502551E+03  0.00000000000E+00 0. -1.
          4   -1    0    0  503    0 -0.00000000000E+00 -0.00000000000E+00 -0.21505215565E+03  0.21505215565E+03  0.00000000000E+00 0. -1.
         23    2    1    2    0    0  0.96806624129E+02 -0.39767890086E+02 -0.10967721058E+03  0.17678742760E+03  0.90948867405E+02 0.  0.
         24    2    1    2    0    0 -0.10306165212E+03  0.18867301300E+01  0.88837481602E+02  0.15893441909E+03  0.82114478303E+02 0.  0.
        -13    1    4    4    0    0 -0.59243500746E+02 -0.86804685228E+01  0.96151319173E+02  0.11327055704E+03  0.00000000000E+00 0.  1.
         14    1    4    4    0    0 -0.43818151376E+02  0.10567198653E+02 -0.73138375709E+01  0.45663862051E+02  0.00000000000E+00 0. -1.
        -11    1    3    3    0    0 -0.48181212985E+01 -0.35001719543E+02 -0.40574399058E+02  0.53801640521E+02  0.00000000000E+00 0.  1.
         11    1    3    3    0    0  0.10162474543E+03 -0.47661705425E+01 -0.69102811517E+02  0.12298578708E+03  0.00000000000E+00 0. -1.
         21    1    1    2  503  502 -0.26858202416E+02 -0.13403433447E+01 -0.28104293297E+02  0.38897440263E+02  0.00000000000E+00 0.  1.
          3    1    1    2  501    0  0.33113230409E+02  0.39221503301E+02  0.19813689213E+03  0.20467789419E+03  0.00000000000E+00 0. -1.
<scales pt_clust_5="13000.00000" pt_clust_6="13000.00000" pt_clust_7="13000.00000" pt_clust_8="13000.00000" pt_clust_9="26.89163" pt_clust_10="51.00109"></scales>
<clustering>
<clus scale="   26.892">  2  9  1 -1</clus>
<clus scale="   51.001">  1 10  2 -1</clus>
<clus scale="   82.114">  5  6 -1 -1</clus>
<clus scale="   90.949">  7  8 -1 -1</clus>
<clus scale="  120.703">  1  5  2 -1</clus>
<clus scale="   51.001">  1  5  2 -1</clus>
</clustering>
</event>
<event>
10    4  0.2977685E-005  0.1008757E+03  0.7546771E-02  0.1282658E+00
         21   -1    0    0  501  502  0.00000000000E+00  0.00000000000E+00  0.64577634273E+02  0.64577634273E+02  0.00000000000E+00 0. -1.
          4   -1    0    0  503    0 -0.00000000000E+00 -0.00000000000E+00 -0.56729151119E+03  0.56729151119E+03  0.00000000000E+00 0. -1.
         23    2    1    2    0    0 -0.51392295381E+01 -0.45814245870E+02 -0.43371540850E+03  0.44560102501E+03  0.91246156713E+02 0.  0.
         24    2    1    2    0    0 -0.31124929039E+02  0.29373907680E+02 -0.46497181160E+02  0.10401756736E+03  0.82620087170E+02 0.  0.
        -11    1    4    4    0    0 -0.73796755887E+01  0.31746653570E+02 -0.65730837188E+02  0.73367926113E+02  0.00000000000E+00 0.  1.
         12    1    4    4    0    0 -0.23745253451E+02 -0.23727458899E+01  0.19233656028E+02  0.30649641249E+02  0.00000000000E+00 0. -1.
        -11    1    3    3    0    0  0.34130459019E+02  0.62978398907E+01 -0.10891886888E+03  0.11431478915E+03  0.00000000000E+00 0.  1.
         11    1    3    3    0    0 -0.39269688557E+02 -0.52112085761E+02 -0.32479653962E+03  0.33128623586E+03  0.00000000000E+00 0. -1.
         21    1    1    2  503  502  0.14832370392E+02  0.21511558705E+02 -0.44192067439E+02  0.51338924744E+02  0.00000000000E+00 0.  1.
          3    1    1    2  501    0  0.21431788186E+02 -0.50712205147E+01  0.21690780180E+02  0.30911628349E+02  0.00000000000E+00 0. -1.
<scales pt_clust_5="13000.00000" pt_clust_6="13000.00000" pt_clust_7="13000.00000" pt_clust_8="13000.00000" pt_clust_9="26.94363" pt_clust_10="22.02360"></scales>
<clustering>
<clus scale="   22.024">  1 10  2 -1</clus>
<clus scale="   26.944">  1  9  2 -1</clus>
<clus scale="   82.620">  5  6 -1 -1</clus>
<clus scale="   91.246">  7  8 -1 -1</clus>
<clus scale="   93.146">  1  5  2 -1</clus>
<clus scale="   22.024">  1  5  2 -1</clus>
</clustering>
</event>
<event>
10    4  0.2977685E-005  0.1133650E+03  0.7546771E-02  0.1258690E+00
         21   -1    0    0  501  502  0.00000000000E+00  0.00000000000E+00  0.82529117609E+03  0.82529117609E+03  0.00000000000E+00 0. -1.
          4   -1    0    0  503    0 -0.00000000000E+00 -0.00000000000E+00 -0.10763219036E+03  0.10763219036E+03  0.00000000000E+00 0. -1.
         23    2    1    2    0    0 -0.35762653573E+02 -0.36599064565E+02 -0.74748739349E+01  0.10538225897E+03  0.91820955389E+02 0.  0.
         24    2    1    2    0    0 -0.64969328994E+02  0.59591500641E+02  0.37591424899E+03  0.39438166532E+03  0.80331903287E+02 0.  0.
        -11    1    4    4    0    0  0.82534732569E+01  0.38069931991E+02  0.82979747308E+02  0.91668304260E+02  0.00000000000E+00 0.  1.
         12    1    4    4    0    0 -0.73222802250E+02  0.21521568650E+02  0.29293450169E+03  0.30271336106E+03  0.00000000000E+00 0. -1.
        -13    1    3    3    0    0  0.10892034660E+02 -0.46900589295E+02 -0.25294967339E+02  0.54388758654E+02  0.00000000000E+00 0.  1.
         13    1    3    3    0    0 -0.46654688233E+02  0.10301524730E+02  0.17820093404E+02  0.50993500320E+02  0.00000000000E+00 0. -1.
         21    1    1    2  503  502  0.21355497927E+02 -0.40046868464E+02 -0.23910801464E+02  0.51298493079E+02  0.00000000000E+00 0. -1.
          3    1    1    2  501    0  0.79376484639E+02  0.17054432388E+02  0.37313041213E+03  0.38186094908E+03  0.00000000000E+00 0. -1.
<scales pt_clust_5="13000.00000" pt_clust_6="13000.00000" pt_clust_7="13000.00000" pt_clust_8="13000.00000" pt_clust_9="45.38512" pt_clust_10="82.01019"></scales>
<clustering>
<clus scale="   45.385">  2  9  1 -1</clus>
<clus scale="   80.332">  5  6 -1 -1</clus>
<clus scale="   82.010">  1 10  2 -1</clus>
<clus scale="   91.821">  7  8 -1 -1</clus>
<clus scale="  104.277">  1  5  2 -1</clus>
<clus scale="   82.010">  1  5  2 -1</clus>
</clustering>
</event>
<event>
10    4  0.2977685E-005  0.2128423E+03  0.7546771E-02  0.1140205E+00
         21   -1    0    0  501  502  0.00000000000E+00  0.00000000000E+00  0.32463529529E+03  0.32463529529E+03  0.00000000000E+00 0.  1.
          2   -1    0    0  503    0 -0.00000000000E+00 -0.00000000000E+00 -0.47070603473E+03  0.47070603473E+03  0.00000000000E+00 0. -1.
         24    2    1    2    0    0 -0.20967510646E+03  0.85578631538E+02  0.20480070217E+02  0.24125702167E+03  0.80611195151E+02 0.  0.
         23    2    1    2    0    0  0.14908710891E+03 -0.44509714640E+02  0.13283033557E+03  0.22408184160E+03  0.91436824905E+02 0.  0.
        -13    1    3    3    0    0 -0.10104948281E+03  0.37154052891E+01 -0.10784728095E+02  0.10169126104E+03  0.00000000000E+00 0.  1.
         14    1    3    3    0    0 -0.10862562365E+03  0.81863226249E+02  0.31264798312E+02  0.13956576062E+03  0.00000000000E+00 0. -1.
        -11    1    4    4    0    0  0.75221163026E+02 -0.28192791998E+02  0.12424122695E+03  0.14794911071E+03  0.00000000000E+00 0.  1.
         11    1    4    4    0    0  0.73865945885E+02 -0.16316922642E+02  0.85891086220E+01  0.76132730891E+02  0.00000000000E+00 0. -1.
         21    1    1    2  503  502  0.12942088780E+02 -0.46308404979E+02 -0.26897460332E+03  0.27323854645E+03  0.00000000000E+00 0. -1.
          1    1    1    2  501    0  0.47645908766E+02  0.52394880800E+01 -0.30406541907E+02  0.56763920303E+02  0.00000000000E+00 0. -1.
<scales pt_clust_5="13000.00000" pt_clust_6="13000.00000" pt_clust_7="13000.00000" pt_clust_8="13000.00000" pt_clust_9="48.13724" pt_clust_10="47.93315"></scales>
<clustering>
<clus scale="   47.933">  1 10  2 -1</clus>
<clus scale="   48.137">  2  9  1 -1</clus>
<clus scale="   80.611">  5  6 -1 -1</clus>
<clus scale="   91.437">  7  8 -1 -1</clus>
<clus scale="  208.421">  2  5  1 -1</clus>
<clus scale="   47.933">  1  5  2 -1</clus>
</clustering>
</event>
<event>
10    4  0.2977685E-005  0.2311030E+03  0.7546771E-02  0.1148152E+00
          2   -1    0    0  503    0 -0.00000000000E+00  0.00000000000E+00  0.10178403960E+04  0.10178403960E+04  0.00000000000E+00 0. -1.
         21   -1    0    0  501  502  0.00000000000E+00 -0.00000000000E+00 -0.49164690036E+03  0.49164690036E+03  0.00000000000E+00 0.  1.
         23    2    1    2    0    0 -0.51409238021E+02  0.12274594120E+03  0.54222865244E+03  0.56574258308E+03  0.91341572940E+02 0.  0.
         24    2    1    2    0    0  0.11266727895E+03 -0.24116571389E+03 -0.88096125299E+02  0.29240241453E+03  0.82966423488E+02 0.  0.
        -11    1    4    4    0    0  0.10047729677E+03 -0.21091032460E+03 -0.10445711051E+03  0.25591041426E+03  0.00000000000E+00 0.  1.
         12    1    4    4    0    0  0.12189982183E+02 -0.30255389285E+02  0.16360985211E+02  0.36492000267E+02  0.00000000000E+00 0. -1.
        -13    1    3    3    0    0  0.22207400269E+02  0.62199539035E+02  0.21525728432E+03  0.22516138598E+03  0.00000000000E+00 0.  1.
         13    1    3    3    0    0 -0.73616638290E+02  0.60546402164E+02  0.32697136812E+03  0.34058119710E+03  0.00000000000E+00 0. -1.
         21    1    1    2  503  502 -0.35985922827E+02 -0.81123424439E+02  0.31999961372E+03  0.33207792672E+03  0.00000000000E+00 0.  1.
          1    1    1    2  501    0 -0.25272118101E+02  0.19954319713E+03 -0.24793864520E+03  0.31926437205E+03  0.00000000000E+00 0. -1.
<scales pt_clust_5="13000.00000" pt_clust_6="13000.00000" pt_clust_7="13000.00000" pt_clust_8="13000.00000" pt_clust_9="88.74681" pt_clust_10="215.69691"></scales>
<clustering>
<clus scale="   82.966">  5  6 -1 -1</clus>
<clus scale="   88.747">  1  9  2 -1</clus>
<clus scale="   91.342">  7  8 -1 -1</clus>
<clus scale="  134.605">  1  7  2 -1</clus>
<clus scale="  215.697">  2 10  1 -1</clus>
<clus scale="  215.697">  2  5  1 -1</clus>
</clustering>
</event>
<event>
10    4  0.2977685E-005  0.1376933E+03  0.7546771E-02  0.1217529E+00
         21   -1    0    0  501  502  0.00000000000E+00  0.00000000000E+00  0.14049692225E+03  0.14049692225E+03  0.00000000000E+00 0.  1.
          2   -1    0    0  503    0 -0.00000000000E+00 -0.00000000000E+00 -0.57698017763E+03  0.57698017763E+03  0.00000000000E+00 0. -1.
         23    2    1    2    0    0 -0.11051922990E+03 -0.21728071888E+02 -0.13308900903E+02  0.14471447503E+03  0.89880716253E+02 0.  0.
         24    2    1    2    0    0  0.81570395756E+02  0.58363385521E+02  0.59688875628E+01  0.13169196004E+03  0.85130079797E+02 0.  0.
        -11    1    4    4    0    0  0.58221012023E+02  0.53181116418E+02 -0.33393178232E+02  0.85633064507E+02  0.00000000000E+00 0.  1.
         12    1    4    4    0    0  0.23349383733E+02  0.51822691035E+01  0.39362065795E+02  0.46058895529E+02  0.00000000000E+00 0. -1.
        -13    1    3    3    0    0 -0.37115255170E+02  0.23439337414E+02 -0.34649679088E+02  0.55924457670E+02  0.00000000000E+00 0. -1.
         13    1    3    3    0    0 -0.73403974730E+02 -0.45167409302E+02  0.21340778185E+02  0.88790017359E+02  0.00000000000E+00 0.  1.
         21    1    1    2  503  502 -0.24895532410E+02  0.35778150740E+01 -0.49479719314E+02  0.55505233249E+02  0.00000000000E+00 0. -1.
          1    1    1    2  501    0  0.53844366554E+02 -0.40213128707E+02 -0.37966352272E+03  0.38556543156E+03  0.00000000000E+00 0. -1.
<scales pt_clust_5="13000.00000" pt_clust_6="13000.00000" pt_clust_7="13000.00000" pt_clust_8="13000.00000" pt_clust_9="25.15131" pt_clust_10="51.83894"></scales>
<clustering>
<clus scale="   25.151">  2  9  1 -1</clus>
<clus scale="   51.839">  1 10  2 -1</clus>
<clus scale="   85.130">  5  6 -1 -1</clus>
<clus scale="   89.881">  7  8 -1 -1</clus>
<clus scale="  134.640">  1  5  2 -1</clus>
<clus scale="   51.839">  1  5  2 -1</clus>
</clustering>
</event>
<event>
10    4  0.2977685E-005  0.1010499E+03  0.7546771E-02  0.1280732E+00
          2   -1    0    0  503    0 -0.00000000000E+00  0.00000000000E+00  0.25749522857E+02  0.25749522857E+02  0.00000000000E+00 0. -1.
         21   -1    0    0  501  502  0.00000000000E+00 -0.00000000000E+00 -0.85306015048E+03  0.85306015048E+03  0.00000000000E+00 0. -1.
         23    2    1    2    0    0  0.67032847398E+02  0.16336529862E+02 -0.22263143863E+03  0.24881655147E+03  0.87089804101E+02 0.  0.
         24    2    1    2    0    0 -0.91563196471E+01 -0.33482620906E+02 -0.46061029038E+03  0.46901836753E+03  0.81310917978E+02 0.  0.
        -13    1    4    4    0    0  0.27107432365E+02  0.66161231995E+01 -0.83176328164E+02  0.87731907209E+02  0.00000000000E+00 0.  1.
         14    1    4    4    0    0 -0.36263752012E+02 -0.40098744106E+02 -0.37743396222E+03  0.38128646032E+03  0.00000000000E+00 0. -1.
        -11    1    3    3    0    0  0.29210063895E+02  0.16860067794E+02 -0.13559640210E+02  0.36350427251E+02  0.00000000000E+00 0.  1.
         11    1    3    3    0    0  0.37822783503E+02 -0.52353793199E+00 -0.20907179842E+03  0.21246612421E+03  0.00000000000E+00 0. -1.
         21    1    1    2  503  502 -0.13195575559E+02  0.18696618643E+02 -0.25529835602E+02  0.34284971473E+02  0.00000000000E+00 0.  1.
          1    1    1    2  501    0 -0.44680952192E+02 -0.15505275983E+01 -0.11853906301E+03  0.12668978287E+03  0.00000000000E+00 0. -1.
<scales pt_clust_5="13000.00000" pt_clust_6="13000.00000" pt_clust_7="13000.00000" pt_clust_8="13000.00000" pt_clust_9="22.88420" pt_clust_10="47.24018"></scales>
<clustering>
<clus scale="   22.884">  1  9  2 -1</clus>
<clus scale="   47.240">  2 10  1 -1</clus>
<clus scale="   81.311">  5  6 -1 -1</clus>
<clus scale="   87.090">  7  8 -1 -1</clus>
<clus scale="   96.114">  2  5  1 -1</clus>
<clus scale="   47.240">  2  5  1 -1</clus>
</clustering>
</event>
<event>
10    4  0.2977685E-005  0.1271698E+03  0.7546771E-02  0.1246273E+00
         21   -1    0    0  503  502  0.00000000000E+00  0.00000000000E+00  0.97825161403E+02  0.97825161403E+02  0.00000000000E+00 0.  1.
         -3   -1    0    0    0  501 -0.00000000000E+00 -0.00000000000E+00 -0.55189103011E+03  0.55189103011E+03  0.00000000000E+00 0.  1.
         23    2    1    2    0    0 -0.11228724692E+02 -0.65227283468E+02 -0.23867052627E+03  0.27360866023E+03  0.11626433708E+03 0.  0.
         24    2    1    2    0    0 -0.39532063641E+02  0.44997024580E+02 -0.98307003177E+02  0.13979014697E+03  0.79306380821E+02 0.  0.
        -13    1    4    4    0    0 -0.62522556220E+02  0.20547390593E+02 -0.64177305317E+02  0.91923837029E+02  0.00000000000E+00 0.  1.
         14    1    4    4    0    0  0.22990492579E+02  0.24449633988E+02 -0.34129697860E+02  0.47866309939E+02  0.00000000000E+00 0. -1.
        -13    1    3    3    0    0  0.22533777591E+02  0.26285614385E+02 -0.45164151084E+02  0.56907865882E+02  0.00000000000E+00 0. -1.
         13    1    3    3    0    0 -0.33762502282E+02 -0.91512897853E+02 -0.19350637518E+03  0.21670079434E+03  0.00000000000E+00 0.  1.
         21    1    1    2  503  501  0.33480501706E+02  0.35821681727E+02 -0.17084326730E+03  0.17774014419E+03  0.00000000000E+00 0.  1.
         -4    1    1    2    0  502  0.17280286627E+02 -0.15591422840E+02  0.53754928038E+02  0.58577240123E+02  0.00000000000E+00 0.  1.
<scales pt_clust_5="13000.00000" pt_clust_6="13000.00000" pt_clust_7="13000.00000" pt_clust_8="13000.00000" pt_clust_9="49.10363" pt_clust_10="23.27447"></scales>
<clustering>
<clus scale="   23.274">  1 10  2 -1</clus>
<clus scale="   49.104">  2  9  1 -1</clus>
<clus scale="   79.306">  5  6 -1 -1</clus>
<clus scale="   94.574">  1  5  2 -1</clus>
<clus scale="  116.264">  7  8 -1 -1</clus>
<clus scale="   23.274">  1  5  2 -1</clus>
</clustering>
</event>
<event>
10    4  0.2977685E-005  0.1567755E+03  0.7546771E-02  0.1193811E+00
          2   -1    0    0  503    0 -0.00000000000E+00  0.00000000000E+00  0.65110070092E+03  0.65110070092E+03  0.00000000000E+00 0. -1.
         21   -1    0    0  501  502  0.00000000000E+00 -0.00000000000E+00 -0.11677414475E+03  0.11677414475E+03  0.00000000000E+00 0.  1.
         23    2    1    2    0    0  0.26066952939E+02  0.12475220748E+03  0.30948913311E+03  0.34609093355E+03  0.88050050902E+02 0.  0.
         24    2    1    2    0    0 -0.83534383417E+02 -0.14706098886E+03  0.28090995463E+02  0.18882313511E+03  0.79121076021E+02 0.  0.
        -13    1    4    4    0    0 -0.91692717964E+02 -0.10397867802E+03  0.38251397384E+02  0.14381338398E+03  0.00000000000E+00 0.  1.
         14    1    4    4    0    0  0.81583345468E+01 -0.43082310834E+02 -0.10160401921E+02  0.45009751127E+02  0.00000000000E+00 0. -1.
        -11    1    3    3    0    0  0.76010748609E+01  0.57069466406E+02  0.24195764457E+03  0.24871309194E+03  0.00000000000E+00 0. -1.
         11    1    3    3    0    0  0.18465878078E+02  0.67682741071E+02  0.67531488540E+02  0.97377841609E+02  0.00000000000E+00 0.  1.
         21    1    1    2  503  502  0.16207767335E+02 -0.13527422277E+02  0.17144208781E+03  0.17273700341E+03  0.00000000000E+00 0. -1.
          1    1    1    2  501    0  0.41259663143E+02  0.35836203655E+02  0.25304339788E+02  0.60223773605E+02  0.00000000000E+00 0. -1.
<scales pt_clust_5="13000.00000" pt_clust_6="13000.00000" pt_clust_7="13000.00000" pt_clust_8="13000.00000" pt_clust_9="21.11120" pt_clust_10="54.98173"></scales>
<clustering>
<clus scale="   21.111">  1  9  2 -1</clus>
<clus scale="   54.982">  2 10  1 -1</clus>
<clus scale="   79.121">  5  6 -1 -1</clus>
<clus scale="   88.050">  7  8 -1 -1</clus>
<clus scale="  151.940">  2  5  1 -1</clus>
<clus scale="   54.982">  2  5  1 -1</clus>
</clustering>
</event>
<event>
10    4  0.2977685E-005  0.1466916E+03  0.7546771E-02  0.1217936E+00
         21   -1    0    0  501  502  0.00000000000E+00  0.00000000000E+00  0.19330690382E+03  0.19330690382E+03  0.00000000000E+00 0. -1.
          2   -1    0    0  503    0 -0.00000000000E+00 -0.00000000000E+00 -0.49618212146E+03  0.49618212146E+03  0.00000000000E+00 0. -1.
         23    2    1    2    0    0  0.15143877880E+02 -0.68888337307E+02 -0.98782166237E+02  0.15137481201E+03  0.90451519004E+02 0.  0.
         24    2    1    2    0    0  0.14818686992E+02 -0.11513651697E+03  0.85145574653E+02  0.16504172454E+03  0.80703103611E+02 0.  0.
        -11    1    4    4    0    0  0.26515615739E+02 -0.76354768256E+02  0.12392902334E+02  0.81772321367E+02  0.00000000000E+00 0.  1.
         12    1    4    4    0    0 -0.11696928747E+02 -0.38781748712E+02  0.72752672319E+02  0.83269403174E+02  0.00000000000E+00 0. -1.
        -13    1    3    3    0    0  0.34505708614E+02 -0.82116270025E+02 -0.65063507588E+02  0.11030406044E+03  0.00000000000E+00 0. -1.
         13    1    3    3    0    0 -0.19361830734E+02  0.13227932718E+02 -0.33718658649E+02  0.41070751569E+02  0.00000000000E+00 0.  1.
         21    1    1    2  503  502 -0.64046709656E+02  0.18717357025E+02 -0.76537984222E+02  0.10154005860E+03  0.00000000000E+00 0.  1.
          1    1    1    2  501    0  0.34084144784E+02  0.16530749725E+03 -0.21270064184E+03  0.27153243013E+03  0.00000000000E+00 0. -1.
<scales pt_clust_5="13000.00000" pt_clust_6="13000.00000" pt_clust_7="13000.00000" pt_clust_8="13000.00000" pt_clust_9="66.72571" pt_clust_10="122.49670"></scales>
<clustering>
<clus scale="   66.726">  2  9  1 -1</clus>
<clus scale="   80.703">  5  6 -1 -1</clus>
<clus scale="   90.452">  7  8 -1 -1</clus>
<clus scale="  110.401">  2  7  1 -1</clus>
<clus scale="  122.497">  1 10  2 -1</clus>
<clus scale="  122.497">  1  5  2 -1</clus>
</clustering>
</event>
<event>
10    4  0.2977685E-005  0.9239270E+02  0.7546771E-02  0.1303965E+00
         21   -1    0    0  501  502  0.00000000000E+00  0.00000000000E+00  0.58119145517E+03  0.58119145517E+03  0.00000000000E+00 0.  1.
          4   -1    0    0  503    0 -0.00000000000E+00 -0.00000000000E+00 -0.39380894412E+03  0.39380894412E+03  0.00000000000E+00 0. -1.
         24    2    1    2    0    0  0.21913121909E+02  0.22497015742E+02 -0.22598613836E+03  0.24169982836E+03  0.79766983562E+02 0.  0.
         23    2    1    2    0    0 -0.63008507418E+02  0.26785339051E+02  0.24656768751E+03  0.27154941130E+03  0.90862158566E+02 0.  0.
        -11    1    3    3    0    0 -0.60697972664E+01  0.44517805973E+02 -0.16569532971E+03  0.17167882739E+03  0.00000000000E+00 0.  1.
         12    1    3    3    0    0  0.27982919176E+02 -0.22020790231E+02 -0.60290808657E+02  0.70021000967E+02  0.00000000000E+00 0. -1.
        -13    1    4    4    0    0 -0.11614999336E+02  0.23304013109E+02  0.76454899284E+01  0.27137405049E+02  0.00000000000E+00 0. -1.
         13    1    4    4    0    0 -0.51393508082E+02  0.34813259424E+01  0.23892219758E+03  0.24441200625E+03  0.00000000000E+00 0.  1.
         21    1    1    2  503  502 -0.73022684715E+01 -0.25103543087E+02 -0.14396067158E+03  0.14631536475E+03  0.00000000000E+00 0.  1.
          3    1    1    2  501    0  0.48397653980E+02 -0.24178811705E+02  0.31076163348E+03  0.31543579488E+03  0.00000000000E+00 0. -1.
<scales pt_clust_5="13000.00000" pt_clust_6="13000.00000" pt_clust_7="13000.00000" pt_clust_8="13000.00000" pt_clust_9="26.14404" pt_clust_10="54.14586"></scales>
<clustering>
<clus scale="   26.144">  2  9  1 -1</clus>
<clus scale="   54.146">  1 10  2 -1</clus>
<clus scale="   79.767">  5  6 -1 -1</clus>
<clus scale="   81.506">  2  5  1 -1</clus>
<clus scale="   90.862">  7  8 -1 -1</clus>
<clus scale="   54.146">  1  5  2 -1</clus>
</clustering>
</event>
<event>
10    4  0.2977685E-005  0.9671094E+02  0.7546771E-02  0.1292905E+00
         21   -1    0    0  501  502  0.00000000000E+00  0.00000000000E+00  0.42325985892E+02  0.42325985892E+02  0.00000000000E+00 0.  1.
          2   -1    0    0  503    0 -0.00000000000E+00 -0.00000000000E+00 -0.36104782390E+03  0.36104782390E+03  0.00000000000E+00 0. -1.
         24    2    1    2    0    0 -0.19305194480E+02  0.29200669973E+02 -0.15061130035E+03  0.17586811024E+03  0.83788177840E+02 0.  0.
         23    2    1    2    0    0 -0.28056609225E+01 -0.17719711594E+02 -0.71726482364E+02  0.11932474717E+03  0.93658139544E+02 0.  0.
        -13    1    3    3    0    0 -0.52073976039E+02  0.14701096609E+02 -0.10217024978E+03  0.11561393152E+03  0.00000000000E+00 0.  1.
         14    1    3    3    0    0  0.32768781559E+02  0.14499573365E+02 -0.48441050573E+02  0.60254178720E+02  0.00000000000E+00 0. -1.
        -11    1    4    4    0    0 -0.21090993626E+02  0.19362959101E+02  0.78153823031E+01  0.29678854389E+02  0.00000000000E+00 0.  1.
         11    1    4    4    0    0  0.18285332704E+02 -0.37082670695E+02 -0.79541864667E+02  0.89645892782E+02  0.00000000000E+00 0. -1.
         21    1    1    2  503  502 -0.32611854204E+01 -0.20151583667E+02 -0.27393084353E+02  0.34162885197E+02  0.00000000000E+00 0. -1.
          1    1    1    2  501    0  0.25372040823E+02  0.86706252875E+01 -0.68990970940E+02  0.74018067184E+02  0.00000000000E+00 0. -1.
<scales pt_clust_5="13000.00000" pt_clust_6="13000.00000" pt_clust_7="13000.00000" pt_clust_8="13000.00000" pt_clust_9="20.41376" pt_clust_10="25.03933"></scales>
<clustering>
<clus scale="   20.414">  2  9  1 -1</clus>
<clus scale="   25.039">  1 10  2 -1</clus>
<clus scale="   83.788">  5  6 -1 -1</clus>
<clus scale="   87.187">  2  5  1 -1</clus>
<clus scale="   93.658">  7  8 -1 -1</clus>
<clus scale="   25.039">  1  5  2 -1</clus>
</clustering>
</event>
<event>
10    4  0.2977685E-005  0.1265389E+03  0.7546771E-02  0.1238050E+00
         -1   -1    0    0    0  501 -0.00000000000E+00  0.00000000000E+00  0.30085273877E+03  0.30085273877E+03  0.00000000000E+00 0.  1.
         21   -1    0    0  503  502  0.00000000000E+00 -0.00000000000E+00 -0.23285045403E+03  0.23285045403E+03  0.00000000000E+00 0.  1.
         24    2    1    2    0    0 -0.51094235954E+02 -0.33822984723E+02  0.82163289964E+02  0.13014304037E+03  0.80198438232E+02 0.  0.
         23    2    1    2    0    0 -0.14828598320E+02  0.10446307327E+03 -0.58087667573E+02  0.15522821244E+03  0.97924459705E+02 0.  0.
        -13    1    3    3    0    0 -0.21218597765E+02  0.74235895653E+01  0.75504523770E+02  0.78779893900E+02  0.00000000000E+00 0.  1.
         14    1    3    3    0    0 -0.29875638188E+02 -0.41246574289E+02  0.66587661941E+01  0.51363146467E+02  0.00000000000E+00 0. -1.
        -13    1    4    4    0    0 -0.17927988666E+02  0.58001447908E+02  0.20333955601E+02  0.64023827498E+02  0.00000000000E+00 0. -1.
         13    1    4    4    0    0  0.30993903464E+01  0.46461625364E+02 -0.78421623174E+02  0.91204384946E+02  0.00000000000E+00 0.  1.
         21    1    1    2  503  501  0.26217094498E+02 -0.59154708728E+02  0.13423410617E+03  0.14901480084E+03  0.00000000000E+00 0. -1.
         -2    1    1    2    0  502  0.39705739775E+02 -0.11485379821E+02 -0.90307443818E+02  0.99317139154E+02  0.00000000000E+00 0.  1.
<scales pt_clust_5="13000.00000" pt_clust_6="13000.00000" pt_clust_7="13000.00000" pt_clust_8="13000.00000" pt_clust_9="66.14927" pt_clust_10="41.33352"></scales>
<clustering>
<clus scale="   41.334">  2 10  1 -1</clus>
<clus scale="   66.149">  1  9  2 -1</clus>
<clus scale="   80.198">  5  6 -1 -1</clus>
<clus scale="   97.924">  7  8 -1 -1</clus>
<clus scale="  113.379">  1  5  2 -1</clus>
<clus scale="   41.334">  2  5  1 -1</clus>
</clustering>
</event>
<event>
10    4  0.2977685E-005  0.1387421E+03  0.7546771E-02  0.1217698E+00
         21   -1    0    0  503  502  0.00000000000E+00  0.00000000000E+00  0.62539267463E+02  0.62539267463E+02  0.00000000000E+00 0.  1.
         -1   -1    0    0    0  501 -0.00000000000E+00 -0.00000000000E+00 -0.98901248726E+03  0.98901248726E+03  0.00000000000E+00 0.  1.
         24    2    1    2    0    0 -0.33585234392E+02 -0.10298783276E+03 -0.36833469464E+03  0.39228201696E+03  0.80500135973E+02 0.  0.
         23    2    1    2    0    0 -0.86131281503E+02  0.13110546123E+03 -0.18384567255E+03  0.25872341275E+03  0.92365217338E+02 0.  0.
        -11    1    3    3    0    0 -0.10308735002E+02 -0.24321801063E+02 -0.16809608373E+02  0.31311067659E+02  0.00000000000E+00 0.  1.
         12    1    3    3    0    0 -0.23276499390E+02 -0.78666031693E+02 -0.35152508626E+03  0.36097094930E+03  0.00000000000E+00 0. -1.
        -11    1    4    4    0    0  0.15002100549E+02  0.50177655890E+02 -0.48388661839E+02  0.71304437212E+02  0.00000000000E+00 0. -1.
         11    1    4    4    0    0 -0.10113338205E+03  0.80927805341E+02 -0.13545701071E+03  0.18741897554E+03  0.00000000000E+00 0.  1.
         21    1    1    2  503  501  0.23785784778E+02  0.21288670169E+02 -0.12281190406E+03  0.12689261135E+03  0.00000000000E+00 0.  1.
         -2    1    1    2    0  502  0.95930731117E+02 -0.49406298644E+02 -0.25148094855E+03  0.27365371366E+03  0.00000000000E+00 0.  1.
<scales pt_clust_5="13000.00000" pt_clust_6="13000.00000" pt_clust_7="13000.00000" pt_clust_8="13000.00000" pt_clust_9="31.92133" pt_clust_10="111.73726"></scales>
<clustering>
<clus scale="   31.921">  2  9  1 -1</clus>
<clus scale="   80.500">  5  6 -1 -1</clus>
<clus scale="   92.365">  7  8 -1 -1</clus>
<clus scale="  111.737">  1 10  2 -1</clus>
<clus scale="  131.142">  2  5  1 -1</clus>
<clus scale="  111.737">  1  5  2 -1</clus>
</clustering>
</event>
<event>
10    4  0.2977685E-005  0.1291589E+03  0.7546771E-02  0.1231843E+00
          2   -1    0    0  503    0 -0.00000000000E+00  0.00000000000E+00  0.10469847053E+03  0.10469847053E+03  0.00000000000E+00 0. -1.
         21   -1    0    0  501  502  0.00000000000E+00 -0.00000000000E+00 -0.37473649159E+03  0.37473649159E+03  0.00000000000E+00 0. -1.
         23    2    1    2    0    0 -0.14336658194E+02  0.55049912561E+02 -0.55843058117E+02  0.12208068847E+03  0.92461963620E+02 0.  0.
         24    2    1    2    0    0 -0.13854057644E+02 -0.13604368439E+03 -0.11530033016E+03  0.19626179450E+03  0.80775657661E+02 0.  0.
        -13    1    4    4    0    0  0.13589456055E+02 -0.16912845077E+02 -0.56664719561E+02  0.60676256373E+02  0.00000000000E+00 0.  1.
         14    1    4    4    0    0 -0.27443513699E+02 -0.11913083931E+03 -0.58635610600E+02  0.13558553813E+03  0.00000000000E+00 0. -1.
        -13    1    3    3    0    0  0.21557124893E+02  0.14748635895E+02 -0.62466721344E+02  0.67707630072E+02  0.00000000000E+00 0.  1.
         13    1    3    3    0    0 -0.35893783086E+02  0.40301276666E+02  0.66236632272E+01  0.54373058399E+02  0.00000000000E+00 0. -1.
         21    1    1    2  503  502 -0.38139868906E+01  0.25575885022E+02  0.15403023033E+02  0.30098596466E+02  0.00000000000E+00 0. -1.
          1    1    1    2  501    0  0.32004702728E+02  0.55417886810E+02 -0.11429765581E+03  0.13099388268E+03  0.00000000000E+00 0. -1.
<scales pt_clust_5="13000.00000" pt_clust_6="13000.00000" pt_clust_7="13000.00000" pt_clust_8="13000.00000" pt_clust_9="25.85870" pt_clust_10="66.07790"></scales>
<clustering>
<clus scale="   25.859">  1  9  2 -1</clus>
<clus scale="   66.078">  2 10  1 -1</clus>
<clus scale="   80.776">  5  6 -1 -1</clus>
<clus scale="   92.462">  7  8 -1 -1</clus>
<clus scale="  121.068">  2  5  1 -1</clus>
<clus scale="   66.078">  2  5  1 -1</clus>
</clustering>
</event>
<event>
10    4  0.2977685E-005  0.3477720E+03  0.7546771E-02  0.1063834E+00
          2   -1    0    0  503    0 -0.00000000000E+00  0.00000000000E+00  0.78232143446E+03  0.78232143446E+03  0.00000000000E+00 0. -1.
         21   -1    0    0  501  502  0.00000000000E+00 -0.00000000000E+00 -0.51825220243E+03  0.51825220243E+03  0.00000000000E+00 0.  1.
         23    2    1    2    0    0  0.19031192098E+03  0.16617062494E+03  0.35751769717E+03  0.44706598506E+03  0.90652012385E+02 0.  0.
         24    2    1    2    0    0 -0.19260923209E+03 -0.15070996037E+03 -0.29850933780E+03  0.39386879094E+03  0.78822530319E+02 0.  0.
        -11    1    4    4    0    0 -0.18298656628E+03 -0.14613246512E+03 -0.30244682394E+03  0.38250864319E+03  0.00000000000E+00 0.  1.
         12    1    4    4    0    0 -0.96226658109E+01 -0.45774952437E+01  0.39374861375E+01  0.11360147759E+02  0.00000000000E+00 0. -1.
        -13    1    3    3    0    0  0.17456752975E+03  0.10748290674E+03  0.24742826015E+03  0.32132093241E+03  0.00000000000E+00 0. -1.
         13    1    3    3    0    0  0.15744391228E+02  0.58687718200E+02  0.11008943703E+03  0.12574505266E+03  0.00000000000E+00 0.  1.
         21    1    1    2  503  502  0.19247644550E+03  0.63717767309E+02  0.12756578574E+03  0.23954157392E+03  0.00000000000E+00 0. -1.
          1    1    1    2  501    0 -0.19017913439E+03 -0.79178431884E+02  0.77495086922E+02  0.22009728697E+03  0.00000000000E+00 0. -1.
<scales pt_clust_5="13000.00000" pt_clust_6="13000.00000" pt_clust_7="13000.00000" pt_clust_8="13000.00000" pt_clust_9="202.74895" pt_clust_10="155.80587"></scales>
<clustering>
<clus scale="   78.823">  5  6 -1 -1</clus>
<clus scale="   90.652">  7  8 -1 -1</clus>
<clus scale="  202.749">  1  9  2 -1</clus>
<clus scale="  155.806">  2 10  1 -1</clus>
<clus scale="  344.878">  2  5  1 -1</clus>
<clus scale="  155.806">  2  5  1 -1</clus>
</clustering>
</event>
<event>
10    4  0.2977685E-005  0.1454210E+03  0.7546771E-02  0.1207986E+00
          2   -1    0    0  503    0 -0.00000000000E+00  0.00000000000E+00  0.23708340085E+03  0.23708340085E+03  0.00000000000E+00 0. -1.
         21   -1    0    0  501  502  0.00000000000E+00 -0.00000000000E+00 -0.36964371475E+03  0.36964371475E+03  0.00000000000E+00 0. -1.
         24    2    1    2    0    0  0.91565098125E+02 -0.78219232198E+02  0.96001993862E+02  0.17397250917E+03  0.80917461898E+02 0.  0.
         23    2    1    2    0    0 -0.11093601588E+02  0.11784700227E+03 -0.24229040484E+03  0.28427200115E+03  0.89971920154E+02 0.  0.
        -11    1    3    3    0    0 -0.62734148837E+01 -0.37461102847E+02  0.16166988694E+02  0.41280279605E+02  0.00000000000E+00 0.  1.
         12    1    3    3    0    0  0.97838513009E+02 -0.40758129351E+02  0.79835005168E+02  0.13269222956E+03  0.00000000000E+00 0. -1.
        -13    1    4    4    0    0 -0.47361187576E+02  0.78912525353E+02 -0.18138002035E+03  0.20339365902E+03  0.00000000000E+00 0. -1.
         13    1    4    4    0    0  0.36267585989E+02  0.38934476917E+02 -0.60910384488E+02  0.80878342124E+02  0.00000000000E+00 0.  1.
         21    1    1    2  503  502  0.11518843059E+02  0.17555260572E+02  0.32361732929E+02  0.38576581981E+02  0.00000000000E+00 0.  1.
          1    1    1    2  501    0 -0.91990339596E+02 -0.57183030645E+02 -0.18633635849E+02  0.10990602330E+03  0.00000000000E+00 0. -1.
<scales pt_clust_5="13000.00000" pt_clust_6="13000.00000" pt_clust_7="13000.00000" pt_clust_8="13000.00000" pt_clust_9="20.99693" pt_clust_10="104.02194"></scales>
<clustering>
<clus scale="   20.997">  1  9  2 -1</clus>
<clus scale="   80.917">  5  6 -1 -1</clus>
<clus scale="   89.972">  7  8 -1 -1</clus>
<clus scale="  104.022">  2 10  1 -1</clus>
<clus scale="  140.000">  1  5  2 -1</clus>
<clus scale="  104.022">  2  5  1 -1</clus>
</clustering>
</event>
<event>
10    4  0.2977685E-005  0.1985093E+03  0.7546771E-02  0.1162846E+00
         21   -1    0    0  501  502  0.00000000000E+00  0.00000000000E+00  0.85180671859E+02  0.85180671859E+02  0.00000000000E+00 0. -1.
          2   -1    0    0  503    0 -0.00000000000E+00 -0.00000000000E+00 -0.14423312114E+04  0.14423312114E+04  0.00000000000E+00 0. -1.
         24    2    1    2    0    0  0.88729016729E+01  0.12382656699E+03 -0.49487225166E+03  0.51654145135E+03  0.80652206573E+02 0.  0.
         23    2    1    2    0    0  0.12077573413E+03  0.37547883743E+02 -0.68438281644E+03  0.70183722828E+03  0.90548517517E+02 0.  0.
        -11    1    3    3    0    0 -0.16434796276E+02  0.67660211071E+02 -0.37868051022E+03  0.38502848662E+03  0.00000000000E+00 0.  1.
         12    1    3    3    0    0  0.25307697949E+02  0.56166355922E+02 -0.11619174144E+03  0.13151296473E+03  0.00000000000E+00 0. -1.
        -11    1    4    4    0    0  0.58695181855E+02  0.64454264960E+02 -0.41824325215E+03  0.42723166387E+03  0.00000000000E+00 0. -1.
         11    1    4    4    0    0  0.62080552271E+02 -0.26906381217E+02 -0.26613956429E+03  0.27460556440E+03  0.00000000000E+00 0.  1.
         21    1    1    2  503  502 -0.83580629755E+02 -0.18104322024E+03 -0.16094078515E+03  0.25625047432E+03  0.00000000000E+00 0. -1.
          1    1    1    2  501    0 -0.46068006044E+02  0.19668769499E+02 -0.16954686314E+02  0.52882729341E+02  0.00000000000E+00 0. -1.
<scales pt_clust_5="13000.00000" pt_clust_6="13000.00000" pt_clust_7="13000.00000" pt_clust_8="13000.00000" pt_clust_9="176.65474" pt_clust_10="50.09113"></scales>
<clustering>
<clus scale="   50.091">  1 10  2 -1</clus>
<clus scale="   80.652">  5  6 -1 -1</clus>
<clus scale="   90.549">  7  8 -1 -1</clus>
<clus scale="  150.450">  2  5  1 -1</clus>
<clus scale="  176.655">  1  9  2 -1</clus>
<clus scale="   50.091">  1  5  2 -1</clus>
</clustering>
</event>
<event>
10    4  0.2977685E-005  0.2575360E+03  0.7546771E-02  0.1109082E+00
         21   -1    0    0  501  502  0.00000000000E+00  0.00000000000E+00  0.14767258228E+03  0.14767258228E+03  0.00000000000E+00 0. -1.
          2   -1    0    0  503    0 -0.00000000000E+00 -0.00000000000E+00 -0.72375490698E+03  0.72375490698E+03  0.00000000000E+00 0. -1.
         24    2    1    2    0    0 -0.16060079932E+03 -0.15444849994E+03 -0.36541500929E+03  0.43581826522E+03  0.82234271488E+02 0.  0.
         23    2    1    2    0    0  0.18623876787E+03  0.18797273335E+03 -0.74976478300E+02  0.28966347048E+03  0.90911092246E+02 0.  0.
        -11    1    3    3    0    0 -0.13103065820E+03 -0.73111789380E+02 -0.21296985661E+03  0.26051972470E+03  0.00000000000E+00 0.  1.
         12    1    3    3    0    0 -0.29570141119E+02 -0.81336710564E+02 -0.15244515269E+03  0.17529854052E+03  0.00000000000E+00 0. -1.
        -13    1    4    4    0    0  0.69915110798E+01  0.56934497946E+02 -0.92570208806E+01  0.58104308955E+02  0.00000000000E+00 0.  1.
         13    1    4    4    0    0  0.17924725679E+03  0.13103823541E+03 -0.65719457419E+02  0.23155916153E+03  0.00000000000E+00 0. -1.
         21    1    1    2  503  502 -0.89696028232E+01 -0.17915128265E+02 -0.21080383281E+02  0.29082437223E+02  0.00000000000E+00 0. -1.
          1    1    1    2  501    0 -0.16668365718E+02 -0.15609105143E+02 -0.11461045382E+03  0.11686331633E+03  0.00000000000E+00 0. -1.
<scales pt_clust_5="13000.00000" pt_clust_6="13000.00000" pt_clust_7="13000.00000" pt_clust_8="13000.00000" pt_clust_9="20.03511" pt_clust_10="25.97446"></scales>
<clustering>
<clus scale="   20.035">  2  9  1 -1</clus>
<clus scale="   25.974">  1 10  2 -1</clus>
<clus scale="   82.234">  5  6 -1 -1</clus>
<clus scale="   90.911">  7  8 -1 -1</clus>
<clus scale="  254.602">  2  5  1 -1</clus>
<clus scale="   25.974">  1  5  2 -1</clus>
</clustering>
</event>
<event>
10    4  0.2977685E-005  0.1580538E+03  0.7546771E-02  0.1193476E+00
          2   -1    0    0  503    0 -0.00000000000E+00  0.00000000000E+00  0.30338308715E+03  0.30338308715E+03  0.00000000000E+00 0. -1.
         21   -1    0    0  501  502  0.00000000000E+00 -0.00000000000E+00 -0.29338688279E+03  0.29338688279E+03  0.00000000000E+00 0. -1.
         24    2    1    2    0    0  0.14148891169E+03 -0.37395207186E+02  0.10848988028E+03  0.19872413690E+03  0.79395936992E+02 0.  0.
         23    2    1    2    0    0 -0.51975600703E+02  0.15612789360E+03 -0.10963527103E+03  0.21924409138E+03  0.94713762066E+02 0.  0.
        -11    1    3    3    0    0  0.52997343196E+02  0.15866980008E+02  0.68304969796E+02  0.87897942747E+02  0.00000000000E+00 0.  1.
         12    1    3    3    0    0  0.88491568496E+02 -0.53262187194E+02  0.40184910484E+02  0.11082619415E+03  0.00000000000E+00 0. -1.
        -11    1    4    4    0    0  0.73809767432E+01  0.90574948495E+02 -0.91522089203E+02  0.12897516398E+03  0.00000000000E+00 0. -1.
         11    1    4    4    0    0 -0.59356577446E+02  0.65552945106E+02 -0.18113181826E+02  0.90268927401E+02  0.00000000000E+00 0.  1.
         21    1    1    2  503  502 -0.25627148145E+02  0.11762978437E+02  0.17814623707E+02  0.33353848378E+02  0.00000000000E+00 0.  1.
          1    1    1    2  501    0 -0.63886162844E+02 -0.13049566485E+03 -0.66730285971E+01  0.14544789328E+03  0.00000000000E+00 0. -1.
<scales pt_clust_5="13000.00000" pt_clust_6="13000.00000" pt_clust_7="13000.00000" pt_clust_8="13000.00000" pt_clust_9="28.19784" pt_clust_10="145.64073"></scales>
<clustering>
<clus scale="   28.198">  1  9  2 -1</clus>
<clus scale="   79.396">  5  6 -1 -1</clus>
<clus scale="   94.714">  7  8 -1 -1</clus>
<clus scale="  145.641">  2 10  1 -1</clus>
<clus scale="  149.379">  1  5  2 -1</clus>
<clus scale="  145.641">  2  5  1 -1</clus>
</clustering>
</event>
<event>
10    4  0.2977685E-005  0.1912777E+03  0.7546771E-02  0.1158605E+00
         21   -1    0    0  501  502  0.00000000000E+00  0.00000000000E+00  0.29262272632E+03  0.29262272632E+03  0.00000000000E+00 0. -1.
          2   -1    0    0  503    0 -0.00000000000E+00 -0.00000000000E+00 -0.41746709336E+03  0.41746709336E+03  0.00000000000E+00 0. -1.
         23    2    1    2    0    0 -0.18349179863E+03 -0.96081070704E+01 -0.30096054380E+03  0.36390600352E+03  0.89937614976E+02 0.  0.
         24    2    1    2    0    0  0.14179066922E+03 -0.21653810093E+02  0.15848489206E+03  0.22723968953E+03  0.77116367383E+02 0.  0.
        -11    1    4    4    0    0  0.15100524422E+03 -0.23936897129E+02  0.15289429965E+03  0.21622262993E+03  0.00000000000E+00 0.  1.
         12    1    4    4    0    0 -0.92145750011E+01  0.22830870355E+01  0.55905924030E+01  0.11017059602E+02  0.00000000000E+00 0. -1.
        -11    1    3    3    0    0 -0.76766520276E+02  0.21410876113E+02 -0.64134339984E+02  0.10229730112E+03  0.00000000000E+00 0.  1.
         11    1    3    3    0    0 -0.10672527835E+03 -0.31018983183E+02 -0.23682620382E+03  0.26160870240E+03  0.00000000000E+00 0. -1.
         21    1    1    2  503  502  0.12230971614E+02  0.24253564836E+02 -0.43175748620E+02  0.51009580892E+02  0.00000000000E+00 0.  1.
          1    1    1    2  501    0  0.29470157791E+02  0.70083523280E+01  0.60807033327E+02  0.67934545738E+02  0.00000000000E+00 0. -1.
<scales pt_clust_5="13000.00000" pt_clust_6="13000.00000" pt_clust_7="13000.00000" pt_clust_8="13000.00000" pt_clust_9="27.16306" pt_clust_10="30.46117"></scales>
<clustering>
<clus scale="   27.163">  2  9  1 -1</clus>
<clus scale="   30.461">  1 10  2 -1</clus>
<clus scale="   77.116">  5  6 -1 -1</clus>
<clus scale="   89.938">  7  8 -1 -1</clus>
<clus scale="  185.595">  1  5  2 -1</clus>
<clus scale="   30.461">  1  5  2 -1</clus>
</clustering>
</event>
<event>
10    4  0.2977685E-005  0.2322763E+03  0.7546771E-02  0.1125989E+00
          4   -1    0    0  503    0 -0.00000000000E+00  0.00000000000E+00  0.73178398069E+03  0.73178398069E+03  0.00000000000E+00 0. -1.
         21   -1    0    0  501  502  0.00000000000E+00 -0.00000000000E+00 -0.13948326979E+03  0.13948326979E+03  0.00000000000E+00 0. -1.
         23    2    1    2    0    0  0.49262639208E+02  0.22010558917E+03  0.38282094479E+03  0.45421851960E+03  0.94283136169E+02 0.  0.
         24    2    1    2    0    0 -0.91117771585E+02 -0.14792699375E+03  0.20874928255E+02  0.19249473424E+03  0.80209826718E+02 0.  0.
        -11    1    4    4    0    0 -0.31708757669E+02 -0.56276112153E+02  0.47374179574E+02  0.80104675283E+02  0.00000000000E+00 0.  1.
         12    1    4    4    0    0 -0.59409013916E+02 -0.91650881595E+02 -0.26499251318E+02  0.11239005896E+03  0.00000000000E+00 0. -1.
        -13    1    3    3    0    0  0.22572389966E+02  0.21608971999E+03  0.34614250166E+03  0.40867947260E+03  0.00000000000E+00 0. -1.
         13    1    3    3    0    0  0.26690249242E+02  0.40158691743E+01  0.36678443137E+02  0.45539046990E+02  0.00000000000E+00 0.  1.
         21    1    1    2  503  502  0.27782884307E+02  0.45503192603E+01  0.11101381728E+03  0.11452799523E+03  0.00000000000E+00 0. -1.
          3    1    1    2  501    0  0.14072248071E+02 -0.76728914679E+02  0.77591020578E+02  0.11002600142E+03  0.00000000000E+00 0. -1.
<scales pt_clust_5="13000.00000" pt_clust_6="13000.00000" pt_clust_7="13000.00000" pt_clust_8="13000.00000" pt_clust_9="28.15305" pt_clust_10="78.20640"></scales>
<clustering>
<clus scale="   28.153">  1  9  2 -1</clus>
<clus scale="   78.206">  2 10  1 -1</clus>
<clus scale="   80.210">  5  6 -1 -1</clus>
<clus scale="   94.283">  7  8 -1 -1</clus>
<clus scale="  226.929">  2  5  1 -1</clus>
<clus scale="   78.206">  2  5  1 -1</clus>
</clustering>
</event>
<event>
10    4  0.2977685E-005  0.1132031E+03  0.7546771E-02  0.1263951E+00
          2   -1    0    0  503    0 -0.00000000000E+00  0.00000000000E+00  0.78422866697E+03  0.78422866697E+03  0.00000000000E+00 0. -1.
         21   -1    0    0  501  502  0.00000000000E+00 -0.00000000000E+00 -0.46706085594E+02  0.46706085594E+02  0.00000000000E+00 0.  1.
         24    2    1    2    0    0 -0.44068571841E+02  0.45550126475E+02  0.38659118473E+03  0.40017482174E+03  0.81671848219E+02 0.  0.
         23    2    1    2    0    0  0.12220113019E+02 -0.11771098416E+02  0.19549512137E+03  0.22151524888E+03  0.10277535253E+03 0.  0.
        -11    1    3    3    0    0 -0.13134196174E+02  0.65342885646E+02  0.25099657836E+03  0.25969497908E+03  0.00000000000E+00 0.  1.
         12    1    3    3    0    0 -0.30934375667E+02 -0.19792759171E+02  0.13559460638E+03  0.14047984265E+03  0.00000000000E+00 0. -1.
        -13    1    4    4    0    0  0.40521602174E+02 -0.42483350717E+02  0.14192599635E+03  0.15358979058E+03  0.00000000000E+00 0.  1.
         13    1    4    4    0    0 -0.28301489155E+02  0.30712252301E+02  0.53569125025E+02  0.67925458303E+02  0.00000000000E+00 0. -1.
         21    1    1    2  503  502  0.55922082497E+02 -0.32216520483E+01  0.16052010826E+03  0.17001283336E+03  0.00000000000E+00 0. -1.
          1    1    1    2  501    0 -0.24073623674E+02 -0.30557376011E+02 -0.50838329871E+01  0.39231848584E+02  0.00000000000E+00 0. -1.
<scales pt_clust_5="13000.00000" pt_clust_6="13000.00000" pt_clust_7="13000.00000" pt_clust_8="13000.00000" pt_clust_9="52.07408" pt_clust_10="38.90106"></scales>
<clustering>
<clus scale="   38.901">  2 10  1 -1</clus>
<clus scale="   52.074">  2  9  1 -1</clus>
<clus scale="   81.672">  5  6 -1 -1</clus>
<clus scale="   94.459">  1  5  2 -1</clus>
<clus scale="  102.775">  7  8 -1 -1</clus>
<clus scale="   38.901">  2  5  1 -1</clus>
</clustering>
</event>
<event>
10    4  0.2977685E-005  0.1217856E+03  0.7546771E-02  0.1243761E+00
         21   -1    0    0  501  502  0.00000000000E+00  0.00000000000E+00  0.14815881625E+03  0.14815881625E+03  0.00000000000E+00 0. -1.
          2   -1    0    0  503    0 -0.00000000000E+00 -0.00000000000E+00 -0.23215820034E+03  0.23215820034E+03  0.00000000000E+00 0. -1.
         23    2    1    2    0    0  0.11622508165E+02  0.78607568809E+02 -0.73235767020E+02  0.14298811431E+03  0.93637015618E+02 0.  0.
         24    2    1    2    0    0 -0.26555606877E+02 -0.72626554008E+02 -0.16977438773E+02  0.11416798084E+03  0.82257387614E+02 0.  0.
        -13    1    4    4    0    0  0.14680279194E+02 -0.55001504417E+02 -0.33877349244E+02  0.66244629043E+02  0.00000000000E+00 0.  1.
         14    1    4    4    0    0 -0.41235886070E+02 -0.17625049591E+02  0.16899910471E+02  0.47923351792E+02  0.00000000000E+00 0. -1.
        -13    1    3    3    0    0 -0.26982193024E+02  0.19060226196E+02 -0.63203452287E+02  0.71316248808E+02  0.00000000000E+00 0. -1.
         13    1    3    3    0    0  0.38604701189E+02  0.59547342613E+02 -0.10032314732E+02  0.71671865505E+02  0.00000000000E+00 0.  1.
         21    1    1    2  503  502 -0.27859164204E+02  0.40271773338E+01 -0.46607498386E+02  0.54448233151E+02  0.00000000000E+00 0. -1.
          1    1    1    2  501    0  0.42792262916E+02 -0.10008192135E+02  0.52821320096E+02  0.68712688289E+02  0.00000000000E+00 0. -1.
<scales pt_clust_5="13000.00000" pt_clust_6="13000.00000" pt_clust_7="13000.00000" pt_clust_8="13000.00000" pt_clust_9="28.14873" pt_clust_10="42.72033"></scales>
<clustering>
<clus scale="   28.149">  2  9  1 -1</clus>
<clus scale="   42.720">  1 10  2 -1</clus>
<clus scale="   82.257">  5  6 -1 -1</clus>
<clus scale="   93.637">  7  8 -1 -1</clus>
<clus scale="  113.270">  1  5  2 -1</clus>
<clus scale="   42.720">  1  5  2 -1</clus>
</clustering>
</event>
<event>
10    4  0.2977685E-005  0.9275227E+02  0.7546771E-02  0.1304854E+00
         21   -1    0    0  501  502  0.00000000000E+00  0.00000000000E+00  0.14627016699E+03  0.14627016699E+03  0.00000000000E+00 0.  1.
          2   -1    0    0  503    0 -0.00000000000E+00 -0.00000000000E+00 -0.32761605807E+03  0.32761605807E+03  0.00000000000E+00 0. -1.
         23    2    1    2    0    0 -0.19785550827E+02  0.39726145826E+01 -0.21499401473E+03  0.23438882237E+03  0.91150666452E+02 0.  0.
         24    2    1    2    0    0 -0.48307630047E+01  0.61181569792E+02 -0.68908455102E+01  0.99004359108E+02  0.77381254946E+02 0.  0.
        -11    1    4    4    0    0 -0.18084620757E+02  0.18313565130E+02  0.30988572888E+02  0.40283145673E+02  0.00000000000E+00 0.  1.
         12    1    4    4    0    0  0.13253857753E+02  0.42868004662E+02 -0.37879418398E+02  0.58721213434E+02  0.00000000000E+00 0. -1.
        -11    1    3    3    0    0  0.25039719009E+02  0.23692812707E+02 -0.14449417422E+03  0.14854932947E+03  0.00000000000E+00 0.  1.
         11    1    3    3    0    0 -0.44825269836E+02 -0.19720198124E+02 -0.70499840511E+02  0.85839492904E+02  0.00000000000E+00 0. -1.
         21    1    1    2  503  502  0.37024170984E+02 -0.28151263921E+02 -0.33144032336E+02  0.57112255926E+02  0.00000000000E+00 0. -1.
          1    1    1    2  501    0 -0.12407857153E+02 -0.37002920454E+02  0.73683001496E+02  0.83380787660E+02  0.00000000000E+00 0. -1.
<scales pt_clust_5="13000.00000" pt_clust_6="13000.00000" pt_clust_7="13000.00000" pt_clust_8="13000.00000" pt_clust_9="49.16292" pt_clust_10="39.02782"></scales>
<clustering>
<clus scale="   39.028">  1 10  2 -1</clus>
<clus scale="   49.163">  1  9  2 -1</clus>
<clus scale="   77.381">  5  6 -1 -1</clus>
<clus scale="   79.262">  1  5  2 -1</clus>
<clus scale="   91.151">  7  8 -1 -1</clus>
<clus scale="   39.028">  1  5  2 -1</clus>
</clustering>
</event>
<event>
10    4  0.2977685E-005  0.9235895E+02  0.7546771E-02  0.1317353E+00
         21   -1    0    0  501  502  0.00000000000E+00  0.00000000000E+00  0.21570448060E+03  0.21570448060E+03  0.00000000000E+00 0. -1.
          2   -1    0    0  503    0 -0.00000000000E+00 -0.00000000000E+00 -0.59614764081E+03  0.59614764081E+03  0.00000000000E+00 0. -1.
         24    2    1    2    0    0  0.15630981969E+02 -0.47917104260E+00 -0.43378860899E+03  0.43805629313E+03  0.58959320353E+02 0.  0.
         23    2    1    2    0    0 -0.63600035067E+01 -0.15077458466E+00  0.19546241114E+03  0.21483716359E+03  0.88932448016E+02 0.  0.
        -13    1    3    3    0    0  0.22231845650E+02 -0.16041513695E+02 -0.95807555642E+02  0.99652761330E+02  0.00000000000E+00 0.  1.
         14    1    3    3    0    0 -0.66008636818E+01  0.15562342653E+02 -0.33798105335E+03  0.33840353180E+03  0.00000000000E+00 0. -1.
        -13    1    4    4    0    0  0.14969357023E+01 -0.43682927443E+02  0.79484105982E+02  0.90709217118E+02  0.00000000000E+00 0.  1.
         13    1    4    4    0    0 -0.78569392089E+01  0.43532152858E+02  0.11597830516E+03  0.12412794647E+03  0.00000000000E+00 0. -1.
         21    1    1    2  503  502 -0.32945044909E+01  0.24001233561E+02 -0.12947785438E+03  0.13172481827E+03  0.00000000000E+00 0. -1.
          1    1    1    2  501    0 -0.59764739710E+01 -0.23371287934E+02 -0.12639107980E+02  0.27233846429E+02  0.00000000000E+00 0. -1.
<scales pt_clust_5="13000.00000" pt_clust_6="13000.00000" pt_clust_7="13000.00000" pt_clust_8="13000.00000" pt_clust_9="24.10590" pt_clust_10="24.12334"></scales>
<clustering>
<clus scale="   24.123">  1 10  2 -1</clus>
<clus scale="   24.106">  2  9  1 -1</clus>
<clus scale="   58.959">  5  6 -1 -1</clus>
<clus scale="   64.011">  2  5  1 -1</clus>
<clus scale="   88.932">  7  8 -1 -1</clus>
<clus scale="   24.123">  1  5  2 -1</clus>
</clustering>
</event>
<event>
10    4  0.2977685E-005  0.3685171E+03  0.7546771E-02  0.1055394E+00
         21   -1    0    0  501  502  0.00000000000E+00  0.00000000000E+00  0.17352661546E+03  0.17352661546E+03  0.00000000000E+00 0. -1.
          2   -1    0    0  503    0 -0.00000000000E+00 -0.00000000000E+00 -0.13192383635E+04  0.13192383635E+04  0.00000000000E+00 0. -1.
         24    2    1    2    0    0 -0.75517181074E+02 -0.33784066575E+03 -0.93530023534E+03  0.10005490887E+04  0.80453642308E+02 0.  0.
         23    2    1    2    0    0  0.48105100408E+02  0.33653365558E+03 -0.16390460990E+03  0.38719265187E+03  0.86512579952E+02 0.  0.
        -11    1    3    3    0    0  0.10012134239E+02 -0.40518450137E+02 -0.17069797570E+03  0.17572645373E+03  0.00000000000E+00 0.  1.
         12    1    3    3    0    0 -0.85529315314E+02 -0.29732221561E+03 -0.76460225964E+03  0.82482263494E+03  0.00000000000E+00 0. -1.
        -11    1    4    4    0    0 -0.10265616927E+02  0.21908797706E+03 -0.11041278267E+03  0.24555224935E+03  0.00000000000E+00 0.  1.
         11    1    4    4    0    0  0.58370717335E+02  0.11744567852E+03 -0.53491827226E+02  0.14164040252E+03  0.00000000000E+00 0. -1.
         21    1    1    2  503  502  0.11176631234E+02 -0.30050783323E+02 -0.59343552712E+02  0.67450900013E+02  0.00000000000E+00 0. -1.
          1    1    1    2  501    0  0.16235449432E+02  0.31357793488E+02  0.12836649924E+02  0.37572338388E+02  0.00000000000E+00 0. -1.
<scales pt_clust_5="13000.00000" pt_clust_6="13000.00000" pt_clust_7="13000.00000" pt_clust_8="13000.00000" pt_clust_9="32.06192" pt_clust_10="35.10006"></scales>
<clustering>
<clus scale="   32.062">  2  9  1 -1</clus>
<clus scale="   35.100">  1 10  2 -1</clus>
<clus scale="   80.454">  5  6 -1 -1</clus>
<clus scale="   86.513">  7  8 -1 -1</clus>
<clus scale="  367.142">  2  5  1 -1</clus>
<clus scale="   35.100">  1  5  2 -1</clus>
</clustering>
</event>
<event>
10    4  0.2977685E-005  0.2178292E+03  0.7546771E-02  0.1157350E+00
          2   -1    0    0  502    0 -0.00000000000E+00  0.00000000000E+00  0.17600667349E+04  0.17600667349E+04  0.00000000000E+00 0. -1.
         21   -1    0    0  503  502  0.00000000000E+00 -0.00000000000E+00 -0.17093418348E+03  0.17093418348E+03  0.00000000000E+00 0.  1.
         23    2    1    2    0    0  0.56142162811E+02  0.69468535965E+02  0.22950056849E+03  0.26346777944E+03  0.93631938640E+02 0.  0.
         24    2    1    2    0    0 -0.56221814172E+02  0.19209325161E+03 -0.59730505771E+02  0.22336639023E+03  0.79146075459E+02 0.  0.
        -13    1    4    4    0    0 -0.60678467106E+02  0.17539656197E+03 -0.75123854527E+02  0.20022343479E+03  0.00000000000E+00 0.  1.
         14    1    4    4    0    0  0.44566529340E+01  0.16696689644E+02  0.15393348757E+02  0.23142955438E+02  0.00000000000E+00 0. -1.
        -11    1    3    3    0    0 -0.17486013973E+02  0.11078662969E+02  0.10748615971E+03  0.10946128076E+03  0.00000000000E+00 0.  1.
         11    1    3    3    0    0  0.73628176784E+02  0.58389872995E+02  0.12201440878E+03  0.15400649868E+03  0.00000000000E+00 0. -1.
         21    1    1    2  503  501  0.23242341103E+02 -0.10258997896E+03  0.61241799789E+03  0.62138612339E+03  0.00000000000E+00 0. -1.
          1    1    1    2  501    0 -0.23162689741E+02 -0.15897180861E+03  0.80694449080E+03  0.82278062530E+03  0.00000000000E+00 0. -1.
<scales pt_clust_5="13000.00000" pt_clust_6="13000.00000" pt_clust_7="13000.00000" pt_clust_8="13000.00000" pt_clust_9="41.36453" pt_clust_10="209.28129"></scales>
<clustering>
<clus scale="   41.365">  9 10 -1 -1</clus>
<clus scale="   79.146">  5  6 -1 -1</clus>
<clus scale="   93.632">  7  8 -1 -1</clus>
<clus scale="  129.402">  1  7  2 -1</clus>
<clus scale="  209.281">  2  9  1 -1</clus>
<clus scale="  209.281">  2  5  1 -1</clus>
</clustering>
</event>
<event>
10    4  0.2977685E-005  0.1037963E+03  0.7546771E-02  0.1277026E+00
          2   -1    0    0  503    0 -0.00000000000E+00  0.00000000000E+00  0.27680290656E+03  0.27680290656E+03  0.00000000000E+00 0. -1.
         21   -1    0    0  501  502  0.00000000000E+00 -0.00000000000E+00 -0.38867998717E+03  0.38867998717E+03  0.00000000000E+00 0. -1.
         24    2    1    2    0    0  0.10636735429E+02  0.47639521224E+02  0.26238910101E+02  0.99786256283E+02  0.82982844111E+02 0.  0.
         23    2    1    2    0    0  0.36136047817E+02 -0.31119783698E+02 -0.30064772077E+03  0.31822019171E+03  0.92740409296E+02 0.  0.
        -11    1    3    3    0    0 -0.62207994634E+01  0.68405712551E+02  0.24702884327E+02  0.72995015923E+02  0.00000000000E+00 0.  1.
         12    1    3    3    0    0  0.16857534892E+02 -0.20766191327E+02  0.15360257740E+01  0.26791240360E+02  0.00000000000E+00 0. -1.
        -11    1    4    4    0    0  0.59673299009E+02 -0.17430099453E+02 -0.27069115874E+03  0.27773803197E+03  0.00000000000E+00 0. -1.
         11    1    4    4    0    0 -0.23537251191E+02 -0.13689684245E+02 -0.29956562025E+02  0.40482159734E+02  0.00000000000E+00 0.  1.
         21    1    1    2  503  502 -0.72667159164E+02 -0.41736749784E+02  0.18625739996E+03  0.20424076807E+03  0.00000000000E+00 0. -1.
          1    1    1    2  501    0  0.25894375918E+02  0.25217012258E+02 -0.23725669900E+02  0.43235677670E+02  0.00000000000E+00 0. -1.
<scales pt_clust_5="13000.00000" pt_clust_6="13000.00000" pt_clust_7="13000.00000" pt_clust_8="13000.00000" pt_clust_9="82.91415" pt_clust_10="36.14438"></scales>
<clustering>
<clus scale="   36.144">  2 10  1 -1</clus>
<clus scale="   82.914">  1  9  2 -1</clus>
<clus scale="   82.983">  5  6 -1 -1</clus>
<clus scale="   92.740">  7  8 -1 -1</clus>
<clus scale="   95.179">  1  5  2 -1</clus>
<clus scale="   36.144">  2  5  1 -1</clus>
</clustering>
</event>
<event>
10    4  0.2977685E-005  0.1292911E+03  0.7546771E-02  0.1251839E+00
         21   -1    0    0  501  502  0.00000000000E+00  0.00000000000E+00  0.60705182729E+02  0.60705182729E+02  0.00000000000E+00 0. -1.
          2   -1    0    0  503    0 -0.00000000000E+00 -0.00000000000E+00 -0.11459843653E+04  0.11459843653E+04  0.00000000000E+00 0. -1.
         24    2    1    2    0    0 -0.99570021544E+00 -0.34034784673E+02 -0.31426530941E+03  0.32619381896E+03  0.80500713297E+02 0.  0.
         23    2    1    2    0    0  0.10831868892E+02  0.61754847864E+02 -0.29329452228E+03  0.31319918240E+03  0.90227825210E+02 0.  0.
        -13    1    3    3    0    0 -0.27575051171E+02 -0.28276340498E+02 -0.69631712090E+02  0.80053171128E+02  0.00000000000E+00 0.  1.
         14    1    3    3    0    0  0.26579350956E+02 -0.57584441747E+01 -0.24463359732E+03  0.24614064783E+03  0.00000000000E+00 0. -1.
        -13    1    4    4    0    0 -0.61945065191E+01 -0.20475080192E+02 -0.10303234672E+03  0.10522958372E+03  0.00000000000E+00 0.  1.
         13    1    4    4    0    0  0.17026375411E+02  0.82229928056E+02 -0.19026217556E+03  0.20796959868E+03  0.00000000000E+00 0. -1.
         21    1    1    2  503  502  0.24256448513E+01  0.69770797489E+02 -0.46265132000E+03  0.46788897383E+03  0.00000000000E+00 0. -1.
          1    1    1    2  501    0 -0.12261813528E+02 -0.97490860680E+02 -0.15068030911E+02  0.99407572864E+02  0.00000000000E+00 0. -1.
<scales pt_clust_5="13000.00000" pt_clust_6="13000.00000" pt_clust_7="13000.00000" pt_clust_8="13000.00000" pt_clust_9="69.81295" pt_clust_10="92.60205"></scales>
<clustering>
<clus scale="   69.813">  2  9  1 -1</clus>
<clus scale="   80.501">  5  6 -1 -1</clus>
<clus scale="   80.510">  2  5  1 -1</clus>
<clus scale="   90.228">  7  8 -1 -1</clus>
<clus scale="   92.602">  1 10  2 -1</clus>
<clus scale="   92.602">  1  5  2 -1</clus>
</clustering>
</event>
<event>
10    4  0.2977685E-005  0.2710833E+03  0.7546771E-02  0.1119375E+00
         21   -1    0    0  503  502  0.00000000000E+00  0.00000000000E+00  0.66493330654E+03  0.66493330654E+03  0.00000000000E+00 0.  1.
         -1   -1    0    0    0  501 -0.00000000000E+00 -0.00000000000E+00 -0.37275781057E+03  0.37275781057E+03  0.00000000000E+00 0.  1.
         24    2    1    2    0    0  0.14845070757E+03  0.52642532063E+02 -0.16646401175E+03  0.24307420093E+03  0.81030557141E+02 0.  0.
         23    2    1    2    0    0  0.19144224793E+03  0.91081242424E+02  0.22116582300E+03  0.31606681467E+03  0.77704459718E+02 0.  0.
        -11    1    3    3    0    0  0.15650050868E+03  0.44241607187E+02 -0.14166721232E+03  0.21568339776E+03  0.00000000000E+00 0.  1.
         12    1    3    3    0    0 -0.80498011022E+01  0.84009248763E+01 -0.24796799433E+02  0.27390803177E+02  0.00000000000E+00 0. -1.
        -13    1    4    4    0    0  0.17814022782E+03  0.53615962371E+02  0.18137037876E+03  0.25981498510E+03  0.00000000000E+00 0.  1.
         13    1    4    4    0    0  0.13302020109E+02  0.37465280053E+02  0.39795444239E+02  0.56251829575E+02  0.00000000000E+00 0. -1.
         21    1    1    2  503  501 -0.69748316365E+01 -0.36282528540E+02 -0.21998433291E+02  0.43000014196E+02  0.00000000000E+00 0.  1.
         -2    1    1    2    0  502 -0.33291812387E+03 -0.10744124595E+03  0.25947211801E+03  0.43555008731E+03  0.00000000000E+00 0.  1.
<scales pt_clust_5="13000.00000" pt_clust_6="13000.00000" pt_clust_7="13000.00000" pt_clust_8="13000.00000" pt_clust_9="36.94686" pt_clust_10="259.70795"></scales>
<clustering>
<clus scale="   36.947">  2  9  1 -1</clus>
<clus scale="   77.704">  7  8 -1 -1</clus>
<clus scale="   81.031">  5  6 -1 -1</clus>
<clus scale="  168.298">  2  5  1 -1</clus>
<clus scale="  259.708">  1 10  2 -1</clus>
<clus scale="  259.708">  1  5  2 -1</clus>
</clustering>
</event>
<event>
10    4  0.2977685E-005  0.1124905E+03  0.7546771E-02  0.1263045E+00
         21   -1    0    0  503  502  0.00000000000E+00  0.00000000000E+00  0.46416964110E+02  0.46416964110E+02  0.00000000000E+00 0.  1.
         -3   -1    0    0    0  501 -0.00000000000E+00 -0.00000000000E+00 -0.11995833715E+04  0.11995833715E+04  0.00000000000E+00 0.  1.
         24    2    1    2    0    0  0.96904150220E+02  0.77546125548E+02 -0.62627228637E+03  0.64256191487E+03  0.72560470270E+02 0.  0.
         23    2    1    2    0    0 -0.28031062853E+02  0.22820194006E+02 -0.13898115552E+03  0.17011855007E+03  0.91203386714E+02 0.  0.
        -13    1    3    3    0    0  0.85074334392E+02  0.86172802676E+02 -0.60321165032E+03  0.61524603971E+03  0.00000000000E+00 0.  1.
         14    1    3    3    0    0  0.11829815827E+02 -0.86266771284E+01 -0.23060636054E+02  0.27315875164E+02  0.00000000000E+00 0. -1.
        -13    1    4    4    0    0  0.17364944628E+01  0.21817350980E+02  0.55265597374E+01  0.22573326723E+02  0.00000000000E+00 0.  1.
         13    1    4    4    0    0 -0.29767557316E+02  0.10028430258E+01 -0.14450771526E+03  0.14754522334E+03  0.00000000000E+00 0. -1.
         21    1    1    2  503  501 -0.12438274086E+02 -0.89138870508E+02 -0.35665729992E+03  0.36783811450E+03  0.00000000000E+00 0.  1.
         -4    1    1    2    0  502 -0.56434813281E+02 -0.11227449046E+02 -0.31255665609E+02  0.65481756199E+02  0.00000000000E+00 0.  1.
<scales pt_clust_5="13000.00000" pt_clust_6="13000.00000" pt_clust_7="13000.00000" pt_clust_8="13000.00000" pt_clust_9="94.18402" pt_clust_10="57.54080"></scales>
<clustering>
<clus scale="   57.541">  1 10  2 -1</clus>
<clus scale="   72.560">  5  6 -1 -1</clus>
<clus scale="   91.203">  7  8 -1 -1</clus>
<clus scale="   94.184">  2  9  1 -1</clus>
<clus scale="   97.985">  2  5  1 -1</clus>
<clus scale="   57.541">  1  5  2 -1</clus>
</clustering>
</event>
<event>
10    4  0.2977685E-005  0.2551389E+03  0.7546771E-02  0.1110631E+00
          4   -1    0    0  503    0 -0.00000000000E+00  0.00000000000E+00  0.78631367830E+03  0.78631367830E+03  0.00000000000E+00 0. -1.
         21   -1    0    0  501  502  0.00000000000E+00 -0.00000000000E+00 -0.24971595667E+03  0.24971595667E+03  0.00000000000E+00 0. -1.
         23    2    1    2    0    0 -0.11287829000E+03  0.21849010845E+03  0.44888770074E+03  0.51978342385E+03  0.90527365950E+02 0.  0.
         24    2    1    2    0    0  0.17505934655E+03 -0.18645497686E+03 -0.71012242717E+02  0.27733128470E+03  0.80365848758E+02 0.  0.
        -11    1    4    4    0    0  0.87529703277E+02 -0.48071283162E+02 -0.26641000959E+01  0.99896920122E+02  0.00000000000E+00 0.  1.
         12    1    4    4    0    0  0.87529643273E+02 -0.13838369369E+03 -0.68348142621E+02  0.17743436457E+03  0.00000000000E+00 0. -1.
        -13    1    3    3    0    0 -0.22158201056E+02  0.30405405918E+02  0.19648168298E+02  0.42444376548E+02  0.00000000000E+00 0.  1.
         13    1    3    3    0    0 -0.90720088948E+02  0.18808470253E+03  0.42923953244E+03  0.47733904730E+03  0.00000000000E+00 0. -1.
         21    1    1    2  503  502 -0.12403861410E+02 -0.21570719003E+02  0.18148916123E+03  0.18318697372E+03  0.00000000000E+00 0. -1.
          3    1    1    2  501    0 -0.49777195136E+02 -0.10464412591E+02 -0.22766897624E+02  0.55727952716E+02  0.00000000000E+00 0. -1.
<scales pt_clust_5="13000.00000" pt_clust_6="13000.00000" pt_clust_7="13000.00000" pt_clust_8="13000.00000" pt_clust_9="24.88276" pt_clust_10="51.32005"></scales>
<clustering>
<clus scale="   24.883">  1  9  2 -1</clus>
<clus scale="   51.320">  2 10  1 -1</clus>
<clus scale="   80.366">  5  6 -1 -1</clus>
<clus scale="   90.527">  7  8 -1 -1</clus>
<clus scale="  251.713">  2  5  1 -1</clus>
<clus scale="   51.320">  2  5  1 -1</clus>
</clustering>
</event>
<event>
10    4  0.2977685E-005  0.9320007E+02  0.7546771E-02  0.1302797E+00
          2   -1    0    0  503    0 -0.00000000000E+00  0.00000000000E+00  0.66862439136E+03  0.66862439136E+03  0.00000000000E+00 0. -1.
         21   -1    0    0  501  502  0.00000000000E+00 -0.00000000000E+00 -0.44642827837E+03  0.44642827837E+03  0.00000000000E+00 0. -1.
         24    2    1    2    0    0 -0.37524259679E+02 -0.31049259992E+02  0.31777013787E+03  0.33135505337E+03  0.80288132727E+02 0.  0.
         23    2    1    2    0    0 -0.41955810434E+02 -0.41425043306E+02  0.13460487063E+03  0.17362544069E+03  0.92471607617E+02 0.  0.
        -13    1    3    3    0    0  0.21898299848E+02 -0.25955135467E+02  0.12843926586E+03  0.13285273655E+03  0.00000000000E+00 0.  1.
         14    1    3    3    0    0 -0.59422559526E+02 -0.50941245252E+01  0.18933087201E+03  0.19850231682E+03  0.00000000000E+00 0. -1.
        -11    1    4    4    0    0  0.24274155016E+02  0.86312167825E+01  0.41852609002E+02  0.49146448347E+02  0.00000000000E+00 0.  1.
         11    1    4    4    0    0 -0.66229965449E+02 -0.50056260089E+02  0.92752261632E+02  0.12447899235E+03  0.00000000000E+00 0. -1.
         21    1    1    2  503  502  0.12626537031E+02  0.23405883703E+02  0.18489364278E+03  0.18679647740E+03  0.00000000000E+00 0.  1.
          1    1    1    2  501    0  0.66853533081E+02  0.49068419596E+02 -0.41507253830E+03  0.42327569826E+03  0.00000000000E+00 0. -1.
<scales pt_clust_5="13000.00000" pt_clust_6="13000.00000" pt_clust_7="13000.00000" pt_clust_8="13000.00000" pt_clust_9="26.59445" pt_clust_10="83.13250"></scales>
<clustering>
<clus scale="   26.594">  1  9  2 -1</clus>
<clus scale="   80.288">  5  6 -1 -1</clus>
<clus scale="   83.133">  2 10  1 -1</clus>
<clus scale="   81.126">  1  5  2 -1</clus>
<clus scale="   92.472">  7  8 -1 -1</clus>
<clus scale="   83.133">  2  5  1 -1</clus>
</clustering>
</event>
<event>
10    4  0.2977685E-005  0.2269028E+03  0.7546771E-02  0.1164707E+00
         21   -1    0    0  501  502  0.00000000000E+00  0.00000000000E+00  0.10561463429E+03  0.10561463429E+03  0.00000000000E+00 0. -1.
          2   -1    0    0  503    0 -0.00000000000E+00 -0.00000000000E+00 -0.10088293665E+04  0.10088293665E+04  0.00000000000E+00 0. -1.
         23    2    1    2    0    0  0.13490411292E+02 -0.46615999073E+02 -0.90471441137E+02  0.13030050587E+03  0.80237756708E+02 0.  0.
         24    2    1    2    0    0 -0.19110751953E+03 -0.89532494101E+02 -0.20561690675E+03  0.30559375582E+03  0.81062196688E+02 0.  0.
        -13    1    4    4    0    0 -0.59469459443E+02  0.10944120509E+02 -0.54291033020E+02  0.81264424237E+02  0.00000000000E+00 0.  1.
         14    1    4    4    0    0 -0.13163806009E+03 -0.10047661461E+03 -0.15132587373E+03  0.22432933158E+03  0.00000000000E+00 0. -1.
        -11    1    3    3    0    0  0.29676929001E+02  0.10051909358E+02 -0.49280980306E+02  0.58398424779E+02  0.00000000000E+00 0.  1.
         11    1    3    3    0    0 -0.16186517709E+02 -0.56667908431E+02 -0.41190460831E+02  0.71902081089E+02  0.00000000000E+00 0. -1.
         21    1    1    2  503  502  0.26073629853E+02 -0.26739359579E+02 -0.28276128261E+03  0.28521705851E+03  0.00000000000E+00 0. -1.
          1    1    1    2  501    0  0.15154347838E+03  0.16288785275E+03 -0.32436510176E+03  0.39333268063E+03  0.00000000000E+00 0. -1.
<scales pt_clust_5="13000.00000" pt_clust_6="13000.00000" pt_clust_7="13000.00000" pt_clust_8="13000.00000" pt_clust_9="37.34739" pt_clust_10="211.92883"></scales>
<clustering>
<clus scale="   37.347">  2  9  1 -1</clus>
<clus scale="   80.238">  7  8 -1 -1</clus>
<clus scale="   81.062">  5  6 -1 -1</clus>
<clus scale="   96.500">  2  7  1 -1</clus>
<clus scale="  211.929">  1 10  2 -1</clus>
<clus scale="  211.929">  1  5  2 -1</clus>
</clustering>
</event>
<event>
10    4  0.2977685E-005  0.1844230E+03  0.7546771E-02  0.1173278E+00
          2   -1    0    0  503    0 -0.00000000000E+00  0.00000000000E+00  0.45565834429E+03  0.45565834429E+03  0.00000000000E+00 0. -1.
         21   -1    0    0  501  502  0.00000000000E+00 -0.00000000000E+00 -0.17990715522E+03  0.17990715522E+03  0.00000000000E+00 0.  1.
         23    2    1    2    0    0  0.11126899033E+03 -0.35659616298E+01  0.40538975353E+02  0.14911108358E+03  0.90538403074E+02 0.  0.
         24    2    1    2    0    0 -0.98440844683E+02  0.17024844452E+03  0.93571552719E+02  0.23492338580E+03  0.88080809229E+02 0.  0.
        -13    1    4    4    0    0 -0.67003435214E+02  0.33014912357E+02  0.32403284864E+02  0.81421235795E+02  0.00000000000E+00 0.  1.
         14    1    4    4    0    0 -0.31437409469E+02  0.13723353216E+03  0.61168267855E+02  0.15350215001E+03  0.00000000000E+00 0. -1.
        -11    1    3    3    0    0  0.58106381414E+02  0.15037354248E+02  0.64318409386E+02  0.87973469693E+02  0.00000000000E+00 0.  1.
         11    1    3    3    0    0  0.53162608918E+02 -0.18603315878E+02 -0.23779434033E+02  0.61137613885E+02  0.00000000000E+00 0. -1.
         21    1    1    2  503  502  0.20589278308E+02 -0.12897944041E+02  0.78138609893E+02  0.81828587289E+02  0.00000000000E+00 0.  1.
          1    1    1    2  501    0 -0.33417423957E+02 -0.15378453885E+03  0.63502051106E+02  0.16970244284E+03  0.00000000000E+00 0. -1.
<scales pt_clust_5="13000.00000" pt_clust_6="13000.00000" pt_clust_7="13000.00000" pt_clust_8="13000.00000" pt_clust_9="24.29558" pt_clust_10="162.02968"></scales>
<clustering>
<clus scale="   24.296">  1  9  2 -1</clus>
<clus scale="   88.081">  5  6 -1 -1</clus>
<clus scale="   90.538">  7  8 -1 -1</clus>
<clus scale="  147.676">  1  7  2 -1</clus>
<clus scale="  162.030">  2 10  1 -1</clus>
<clus scale="  162.030">  2  5  1 -1</clus>
</clustering>
</event>
<event>
10    4  0.2977685E-005  0.1054560E+03  0.7546771E-02  0.1272229E+00
         21   -1    0    0  503  502  0.00000000000E+00  0.00000000000E+00  0.13604272802E+03  0.13604272802E+03  0.00000000000E+00 0. -1.
         -3   -1    0    0    0  501 -0.00000000000E+00 -0.00000000000E+00 -0.15621707746E+03  0.15621707746E+03  0.00000000000E+00 0.  1.
         24    2    1    2    0    0  0.10591642272E+02  0.65783459649E+02 -0.49904145072E+02  0.11682833698E+03  0.81968226628E+02 0.  0.
         23    2    1    2    0    0 -0.14983672695E+02 -0.28441373821E+02  0.57939357049E+02  0.11103214090E+03  0.89094023509E+02 0.  0.
        -13    1    3    3    0    0  0.26684385697E+02 -0.93057274056E+01 -0.81267858300E+01  0.29405741795E+02  0.00000000000E+00 0.  1.
         14    1    3    3    0    0 -0.16092743425E+02  0.75089187055E+02 -0.41777359242E+02  0.87422595184E+02  0.00000000000E+00 0. -1.
        -11    1    4    4    0    0 -0.44709040429E+02  0.73888897666E+01  0.42105943282E+02  0.61857937629E+02  0.00000000000E+00 0. -1.
         11    1    4    4    0    0  0.29725367734E+02 -0.35830263588E+02  0.15833413768E+02  0.49174203270E+02  0.00000000000E+00 0.  1.
         21    1    1    2  503  501  0.19868603562E+02 -0.32640710375E+01 -0.66420071853E+01  0.21202165613E+02  0.00000000000E+00 0.  1.
         -4    1    1    2    0  502 -0.15476573139E+02 -0.34078014790E+02 -0.21567554227E+02  0.43197161984E+02  0.00000000000E+00 0.  1.
<scales pt_clust_5="13000.00000" pt_clust_6="13000.00000" pt_clust_7="13000.00000" pt_clust_8="13000.00000" pt_clust_9="20.13493" pt_clust_10="36.50348"></scales>
<clustering>
<clus scale="   20.135">  2  9  1 -1</clus>
<clus scale="   36.503">  1 10  2 -1</clus>
<clus scale="   81.968">  5  6 -1 -1</clus>
<clus scale="   89.094">  7  8 -1 -1</clus>
<clus scale="   99.509">  2  5  1 -1</clus>
<clus scale="   36.503">  1  5  2 -1</clus>
</clustering>
</event>
<event>
10    4  0.4694043E-005  0.2155904E+03  0.7546771E-02  0.1138223E+00
         21   -1    0    0  503  502  0.00000000000E+00  0.00000000000E+00  0.21371347662E+03  0.21371347662E+03  0.00000000000E+00 0.  1.
         -3   -1    0    0    0  501 -0.00000000000E+00 -0.00000000000E+00 -0.11899458570E+04  0.11899458570E+04  0.00000000000E+00 0.  1.
         24    2    1    2    0    0  0.99346930292E+01  0.17848439503E+03 -0.81811682052E+03  0.84145247695E+03  0.82290713656E+02 0.  0.
         23    2    1    2    0    0 -0.62151663895E+02 -0.22462346703E+03 -0.23030927976E+03  0.34110099369E+03  0.94810296348E+02 0.  0.
        -11    1    3    3    0    0  0.13177725610E+02  0.12159421121E+03 -0.69638771666E+03  0.70704643169E+03  0.00000000000E+00 0.  1.
         12    1    3    3    0    0 -0.32430325803E+01  0.56890183827E+02 -0.12172910386E+03  0.13440604526E+03  0.00000000000E+00 0. -1.
        -13    1    4    4    0    0 -0.84320928344E+02 -0.20582121973E+03 -0.20027792164E+03  0.29930526114E+03  0.00000000000E+00 0. -1.
         13    1    4    4    0    0  0.22169264449E+02 -0.18802247294E+02 -0.30031358118E+02  0.41795732557E+02  0.00000000000E+00 0.  1.
         21    1    1    2  503  501  0.46956849587E+02 -0.38904901942E+01 -0.61954268198E+02  0.77835807858E+02  0.00000000000E+00 0.  1.
         -4    1    1    2    0  502  0.52601212790E+01  0.50029562188E+02  0.13414798812E+03  0.14327005509E+03  0.00000000000E+00 0.  1.
<scales pt_clust_5="13000.00000" pt_clust_6="13000.00000" pt_clust_7="13000.00000" pt_clust_8="13000.00000" pt_clust_9="47.11774" pt_clust_10="50.30993"></scales>
<clustering>
<clus scale="   47.118">  2  9  1 -1</clus>
<clus scale="   50.310">  1 10  2 -1</clus>
<clus scale="   82.291">  5  6 -1 -1</clus>
<clus scale="   94.810">  7  8 -1 -1</clus>
<clus scale="  210.385">  2  5  1 -1</clus>
<clus scale="   50.310">  1  5  2 -1</clus>
</clustering>
</event>
<event>
10    4  0.2977685E-005  0.1018315E+03  0.7546771E-02  0.1283267E+00
         -1   -1    0    0    0  501 -0.00000000000E+00  0.00000000000E+00  0.60082226190E+02  0.60082226190E+02  0.00000000000E+00 0.  1.
         21   -1    0    0  503  502  0.00000000000E+00 -0.00000000000E+00 -0.50744502625E+03  0.50744502625E+03  0.00000000000E+00 0.  1.
         23    2    1    2    0    0 -0.32469842941E+01  0.25346846160E+02 -0.27958406999E+02  0.10338448720E+03  0.96196019428E+02 0.  0.
         24    2    1    2    0    0 -0.21191431506E+02 -0.57981112222E+02 -0.14892154333E+03  0.18134081832E+03  0.83042038612E+02 0.  0.
        -13    1    4    4    0    0 -0.50922032832E+02 -0.19405139846E+02 -0.72003060913E+02  0.90299798787E+02  0.00000000000E+00 0.  1.
         14    1    4    4    0    0  0.29730601326E+02 -0.38575972375E+02 -0.76918482419E+02  0.91041019532E+02  0.00000000000E+00 0. -1.
        -13    1    3    3    0    0  0.35855040106E+02  0.25360779024E+02 -0.43024303175E+02  0.61480433289E+02  0.00000000000E+00 0. -1.
         13    1    3    3    0    0 -0.39102024400E+02 -0.13932864017E-01  0.15065896176E+02  0.41904053908E+02  0.00000000000E+00 0.  1.
         21    1    1    2  503  501  0.16496161623E+02 -0.11375378779E+02 -0.19831514322E+02  0.28192402362E+02  0.00000000000E+00 0.  1.
         -2    1    1    2    0  502  0.79422541779E+01  0.44009644841E+02 -0.25065133541E+03  0.25460954456E+03  0.00000000000E+00 0.  1.
<scales pt_clust_5="13000.00000" pt_clust_6="13000.00000" pt_clust_7="13000.00000" pt_clust_8="13000.00000" pt_clust_9="20.03803" pt_clust_10="44.43265"></scales>
<clustering>
<clus scale="   20.038">  1  9  2 -1</clus>
<clus scale="   44.433">  2 10  1 -1</clus>
<clus scale="   83.042">  5  6 -1 -1</clus>
<clus scale="   89.510">  2  5  1 -1</clus>
<clus scale="   96.196">  7  8 -1 -1</clus>
<clus scale="   44.433">  2  5  1 -1</clus>
</clustering>
</event>
<event>
10    4  0.2977685E-005  0.1067465E+03  0.7546771E-02  0.1270952E+00
         21   -1    0    0  501  502  0.00000000000E+00  0.00000000000E+00  0.33906893829E+02  0.33906893829E+02  0.00000000000E+00 0.  1.
          2   -1    0    0  503    0 -0.00000000000E+00 -0.00000000000E+00 -0.69950070296E+03  0.69950070296E+03  0.00000000000E+00 0. -1.
         24    2    1    2    0    0  0.39635637321E+02 -0.43954791966E+02 -0.33659881142E+03  0.35109161587E+03  0.80396239961E+02 0.  0.
         23    2    1    2    0    0  0.11798664242E+01  0.48267161336E+02 -0.87291813267E+02  0.13468245682E+03  0.90489737337E+02 0.  0.
        -11    1    3    3    0    0  0.59553710488E+02 -0.15580513302E+02 -0.25702796058E+03  0.26429674487E+03  0.00000000000E+00 0.  1.
         12    1    3    3    0    0 -0.19918073167E+02 -0.28374278664E+02 -0.79570850844E+02  0.86794871003E+02  0.00000000000E+00 0. -1.
        -13    1    4    4    0    0  0.32334787528E+02  0.60332370375E+02 -0.51052008583E+02  0.85392277050E+02  0.00000000000E+00 0.  1.
         13    1    4    4    0    0 -0.31154921104E+02 -0.12065209039E+02 -0.36239804684E+02  0.49290179769E+02  0.00000000000E+00 0. -1.
         21    1    1    2  503  502 -0.21180898540E+02 -0.19614448093E+02 -0.13758254951E+03  0.14057850109E+03  0.00000000000E+00 0.  1.
          1    1    1    2  501    0 -0.19634605205E+02  0.15302078723E+02 -0.10412063493E+03  0.10705502302E+03  0.00000000000E+00 0. -1.
<scales pt_clust_5="13000.00000" pt_clust_6="13000.00000" pt_clust_7="13000.00000" pt_clust_8="13000.00000" pt_clust_9="29.07520" pt_clust_10="24.89321"></scales>
<clustering>
<clus scale="   24.893">  1 10  2 -1</clus>
<clus scale="   29.075">  2  9  1 -1</clus>
<clus scale="   80.396">  5  6 -1 -1</clus>
<clus scale="   90.490">  7  8 -1 -1</clus>
<clus scale="   98.336">  2  5  1 -1</clus>
<clus scale="   24.893">  1  5  2 -1</clus>
</clustering>
</event>
<event>
10    4  0.2977685E-005  0.1331796E+03  0.7546771E-02  0.1224809E+00
         -1   -1    0    0    0  501 -0.00000000000E+00  0.00000000000E+00  0.54260901728E+03  0.54260901728E+03  0.00000000000E+00 0.  1.
         21   -1    0    0  503  502  0.00000000000E+00 -0.00000000000E+00 -0.43020907965E+03  0.43020907965E+03  0.00000000000E+00 0. -1.
         24    2    1    2    0    0  0.86645663631E+02 -0.46107826095E+02  0.41550650929E+03  0.43492251810E+03  0.82936932872E+02 0.  0.
         23    2    1    2    0    0 -0.76503063085E+02  0.30475423660E+02 -0.33551944383E+03  0.35728240647E+03  0.91082109517E+02 0.  0.
        -11    1    3    3    0    0  0.35503495726E+02 -0.54207832269E+02  0.31784729754E+03  0.32438540633E+03  0.00000000000E+00 0.  1.
         12    1    3    3    0    0  0.51142167905E+02  0.81000061734E+01  0.97659211746E+02  0.11053711176E+03  0.00000000000E+00 0. -1.
        -11    1    4    4    0    0 -0.17809384886E+02  0.55014062061E+02 -0.13356085357E+03  0.14554113789E+03  0.00000000000E+00 0. -1.
         11    1    4    4    0    0 -0.58693678199E+02 -0.24538638400E+02 -0.20195859026E+03  0.21174126857E+03  0.00000000000E+00 0.  1.
         21    1    1    2  503  501  0.10224375714E+02  0.31621250022E+02  0.10151646244E+03  0.10681775816E+03  0.00000000000E+00 0.  1.
         -2    1    1    2    0  502 -0.20366976261E+02 -0.15988847587E+02 -0.69103590268E+02  0.73795414201E+02  0.00000000000E+00 0.  1.
<scales pt_clust_5="13000.00000" pt_clust_6="13000.00000" pt_clust_7="13000.00000" pt_clust_8="13000.00000" pt_clust_9="33.07461" pt_clust_10="25.89318"></scales>
<clustering>
<clus scale="   25.893">  2 10  1 -1</clus>
<clus scale="   33.075">  1  9  2 -1</clus>
<clus scale="   82.937">  5  6 -1 -1</clus>
<clus scale="   91.082">  7  8 -1 -1</clus>
<clus scale="  127.747">  1  5  2 -1</clus>
<clus scale="   25.893">  2  5  1 -1</clus>
</clustering>
</event>
<event>
10    4  0.2977685E-005  0.2884961E+03  0.7546771E-02  0.1124563E+00
          2   -1    0    0  503    0 -0.00000000000E+00  0.00000000000E+00  0.89957218805E+03  0.89957218805E+03  0.00000000000E+00 0. -1.
         21   -1    0    0  501  502  0.00000000000E+00 -0.00000000000E+00 -0.54067462789E+03  0.54067462789E+03  0.00000000000E+00 0.  1.
         23    2    1    2    0    0 -0.76562044755E+02  0.26631563574E+02  0.25402474265E+03  0.28210286444E+03  0.92100322310E+02 0.  0.
         24    2    1    2    0    0  0.11153891033E+03  0.10648090438E+03 -0.42614853992E+03  0.46115478524E+03  0.85334907057E+02 0.  0.
        -13    1    4    4    0    0  0.88950789064E+02  0.28045308973E+02 -0.19860894630E+03  0.21941808444E+03  0.00000000000E+00 0.  1.
         14    1    4    4    0    0  0.22588121269E+02  0.78435595411E+02 -0.22753959362E+03  0.24173670080E+03  0.00000000000E+00 0. -1.
        -11    1    3    3    0    0 -0.27586896083E+02 -0.32835018338E+02  0.63835578149E+02  0.76903551949E+02  0.00000000000E+00 0.  1.
         11    1    3    3    0    0 -0.48975148672E+02  0.59466581913E+02  0.19018916450E+03  0.20519931249E+03  0.00000000000E+00 0. -1.
         21    1    1    2  503  502 -0.21207723179E+03 -0.14181974184E+03  0.40791894629E+03  0.48113143543E+03  0.00000000000E+00 0. -1.
          1    1    1    2  501    0  0.17710036621E+03  0.87072738847E+01  0.12310241113E+03  0.21585773082E+03  0.00000000000E+00 0. -1.
<scales pt_clust_5="13000.00000" pt_clust_6="13000.00000" pt_clust_7="13000.00000" pt_clust_8="13000.00000" pt_clust_9="275.58657" pt_clust_10="157.35399"></scales>
<clustering>
<clus scale="   85.335">  5  6 -1 -1</clus>
<clus scale="   92.100">  7  8 -1 -1</clus>
<clus scale="  122.693">  1  7  2 -1</clus>
<clus scale="  157.354">  2 10  1 -1</clus>
<clus scale="  275.587">  1  9  2 -1</clus>
<clus scale="  157.354">  2  5  1 -1</clus>
</clustering>
</event>
<event>
10    4  0.2977685E-005  0.1304774E+03  0.7546771E-02  0.1229241E+00
         -1   -1    0    0    0  501 -0.00000000000E+00  0.00000000000E+00  0.28414270045E+03  0.28414270045E+03  0.00000000000E+00 0.  1.
         21   -1    0    0  503  502  0.00000000000E+00 -0.00000000000E+00 -0.23720431227E+03  0.23720431227E+03  0.00000000000E+00 0.  1.
         23    2    1    2    0    0  0.47986222420E+02  0.54951165782E+02  0.21017628997E+03  0.24083854984E+03  0.92232456641E+02 0.  0.
         24    2    1    2    0    0 -0.53135530403E+02 -0.67776778483E+02 -0.14761324742E+03  0.18985116633E+03  0.82684449875E+02 0.  0.
        -11    1    4    4    0    0 -0.69066570721E+02 -0.67000723733E+02 -0.96379687358E+02  0.13619226229E+03  0.00000000000E+00 0.  1.
         12    1    4    4    0    0  0.15931040318E+02 -0.77605475068E+00 -0.51233560064E+02  0.53658904046E+02  0.00000000000E+00 0. -1.
        -13    1    3    3    0    0  0.16036177256E+02  0.67408696647E+02  0.18706371709E+03  0.19948414878E+03  0.00000000000E+00 0.  1.
         13    1    3    3    0    0  0.31950045165E+02 -0.12457530865E+02  0.23112572885E+02  0.41354401055E+02  0.00000000000E+00 0. -1.
         21    1    1    2  503  501  0.26837444780E+02  0.53189567103E+01  0.29375231525E+02  0.40142794745E+02  0.00000000000E+00 0. -1.
         -2    1    1    2    0  502 -0.21688136797E+02  0.75066559908E+01 -0.44999885891E+02  0.50514501800E+02  0.00000000000E+00 0.  1.
<scales pt_clust_5="13000.00000" pt_clust_6="13000.00000" pt_clust_7="13000.00000" pt_clust_8="13000.00000" pt_clust_9="26.79837" pt_clust_10="22.95049"></scales>
<clustering>
<clus scale="   22.950">  2 10  1 -1</clus>
<clus scale="   26.798">  1  9  2 -1</clus>
<clus scale="   82.684">  5  6 -1 -1</clus>
<clus scale="   92.232">  7  8 -1 -1</clus>
<clus scale="  123.912">  2  5  1 -1</clus>
<clus scale="   22.950">  2  5  1 -1</clus>
</clustering>
</event>
<event>
10    4  0.2977685E-005  0.1978662E+03  0.7546771E-02  0.1184845E+00
          2   -1    0    0  503    0 -0.00000000000E+00  0.00000000000E+00  0.15083942596E+04  0.15083942596E+04  0.00000000000E+00 0. -1.
         21   -1    0    0  501  502  0.00000000000E+00 -0.00000000000E+00 -0.78665779000E+02  0.78665779000E+02  0.00000000000E+00 0. -1.
         24    2    1    2    0    0  0.94160240463E+01 -0.49616398863E+02  0.81480628418E+02  0.12301168104E+03  0.77086524888E+02 0.  0.
         23    2    1    2    0    0 -0.76282619037E+02  0.43227219068E+02  0.61430605314E+03  0.62730939558E+03  0.91964778116E+02 0.  0.
        -11    1    3    3    0    0 -0.24387948506E+02 -0.33164243225E+02  0.74000089474E+02  0.84679704199E+02  0.00000000000E+00 0.  1.
         12    1    3    3    0    0  0.33803972552E+02 -0.16452155639E+02  0.74805389439E+01  0.38331976839E+02  0.00000000000E+00 0. -1.
        -13    1    4    4    0    0 -0.77794911777E+02 -0.50062380872E+01  0.41369156734E+03  0.42097247369E+03  0.00000000000E+00 0. -1.
         13    1    4    4    0    0  0.15122927396E+01  0.48233457155E+02  0.20061448580E+03  0.20633692188E+03  0.00000000000E+00 0.  1.
         21    1    1    2  503  502 -0.14304188685E+03  0.89666857855E+02  0.39375733440E+03  0.42842264784E+03  0.00000000000E+00 0. -1.
          1    1    1    2  501    0  0.20990848184E+03 -0.83277678059E+02  0.34018446460E+03  0.40831631411E+03  0.00000000000E+00 0. -1.
<scales pt_clust_5="13000.00000" pt_clust_6="13000.00000" pt_clust_7="13000.00000" pt_clust_8="13000.00000" pt_clust_9="197.86624" pt_clust_10="13000.00000"></scales>
<clustering>
<clus scale="   77.087">  5  6 -1 -1</clus>
<clus scale="   91.965">  7  8 -1 -1</clus>
<clus scale="   92.156">  1  5  2 -1</clus>
<clus scale="  118.803">  1  7  2 -1</clus>
<clus scale="  197.866">  1  9  2 -1</clus>
<clus scale="  197.866">  2  5  1 -1</clus>
</clustering>
</event>
