<event>
 9    1  0.1973774E-005  0.1336517E+03  0.7546771E-02  0.1224885E+00
         -2   -1    0    0    0  501 -0.00000000000E+00  0.00000000000E+00  0.76848960094E+02  0.76848960094E+02  0.00000000000E+00 0.  1.
          1   -1    0    0  502    0  0.00000000000E+00 -0.00000000000E+00 -0.32087127339E+03  0.32087127339E+03  0.00000000000E+00 0. -1.
        -24    2    1    2    0    0  0.10060720621E+03 -0.27740505873E+02 -0.51818761059E+02  0.14037769417E+03  0.78290276632E+02 0.  0.
         23    2    1    2    0    0 -0.83111209539E+02  0.40604259610E+02 -0.10153609706E+03  0.16411071273E+03  0.89814074491E+02 0.  0.
         13    1    3    3    0    0  0.67749214731E+02 -0.54784192199E+02 -0.41909154418E+02  0.96683199345E+02  0.00000000000E+00 0. -1.
        -14    1    3    3    0    0  0.32857991481E+02  0.27043686326E+02 -0.99096066411E+01  0.43694494825E+02  0.00000000000E+00 0.  1.
        -13    1    4    4    0    0 -0.11292555197E+01 -0.22596326040E+02 -0.63852722753E+01  0.23508314924E+02  0.00000000000E+00 0.  1.
         13    1    4    4    0    0 -0.81981954019E+02  0.63200585650E+02 -0.95150824780E+02  0.14060239780E+03  0.00000000000E+00 0. -1.
         21    1    1    2  502  501 -0.17495996672E+02 -0.12863753738E+02 -0.90667455184E+02  0.93231826590E+02  0.00000000000E+00 0. -1.
<scales pt_clust_5="13000.00000" pt_clust_6="13000.00000" pt_clust_7="13000.00000" pt_clust_8="13000.00000" pt_clust_9="21.71603"></scales>
<clustering>
<clus scale="   21.716">  2  9  1 -1</clus>
<clus scale="   78.290">  5  6 -1 -1</clus>
<clus scale="   89.814">  7  8 -1 -1</clus>
<clus scale="  126.197">  1  5  2 -1</clus>
<clus scale="   21.716">  2  5  1 -1</clus>
</clustering>
</event>
<event>
 9    1  0.1973774E-005  0.1354512E+03  0.7546771E-02  0.1223264E+00
         -4   -1    0    0    0  501 -0.00000000000E+00  0.00000000000E+00  0.13523633924E+03  0.13523633924E+03  0.00000000000E+00 0.  1.
          3   -1    0    0  502    0  0.00000000000E+00 -0.00000000000E+00 -0.18523865493E+03  0.18523865493E+03  0.00000000000E+00 0. -1.
         23    2    1    2    0    0 -0.82989884862E+02 -0.64430481436E+02  0.40196260958E+02  0.14727940977E+03  0.95062491131E+02 0.  0.
        -24    2    1    2    0    0  0.71892007492E+02  0.34639119148E+02 -0.83875170477E+02  0.14078148848E+03  0.80100274397E+02 0.  0.
         11    1    4    4    0    0  0.42609917573E+02  0.15649625684E+02 -0.94047200693E+02  0.10442888402E+03  0.00000000000E+00 0. -1.
        -12    1    4    4    0    0  0.29282089919E+02  0.18989493464E+02  0.10172030216E+02  0.36352604456E+02  0.00000000000E+00 0.  1.
        -13    1    3    3    0    0 -0.28413368260E+02  0.20892491862E+02 -0.63101613034E+01  0.35827836214E+02  0.00000000000E+00 0. -1.
         13    1    3    3    0    0 -0.54576516602E+02 -0.85322973298E+02  0.46506422261E+02  0.11145157356E+03  0.00000000000E+00 0.  1.
         21    1    1    2  502  501  0.11097877370E+02  0.29791362288E+02 -0.63234061687E+01  0.32414095926E+02  0.00000000000E+00 0.  1.
<scales pt_clust_5="13000.00000" pt_clust_6="13000.00000" pt_clust_7="13000.00000" pt_clust_8="13000.00000" pt_clust_9="31.79132"></scales>
<clustering>
<clus scale="   31.791">  2  9  1 -1</clus>
<clus scale="   80.100">  5  6 -1 -1</clus>
<clus scale="   95.062">  7  8 -1 -1</clus>
<clus scale="  125.404">  2  5  1 -1</clus>
<clus scale="   31.791">  2  5  1 -1</clus>
</clustering>
</event>
<event>
 9    1  0.1973774E-005  0.9651606E+02  0.7546771E-02  0.1292285E+00
         -2   -1    0    0    0  501 -0.00000000000E+00  0.00000000000E+00  0.89697889535E+02  0.89697889535E+02  0.00000000000E+00 0.  1.
          1   -1    0    0  502    0  0.00000000000E+00 -0.00000000000E+00 -0.43708541900E+03  0.43708541900E+03  0.00000000000E+00 0. -1.
        -24    2    1    2    0    0 -0.63065331495E+01 -0.31356886457E+02  0.56138726715E+02  0.10505394516E+03  0.82835669057E+02 0.  0.
         23    2    1    2    0    0 -0.17464341145E+02  0.33108189337E+02 -0.31443861593E+03  0.32950827483E+03  0.91120275361E+02 0.  0.
         11    1    3    3    0    0 -0.35194177233E+02  0.11567129840E+02  0.22627335521E+02  0.43409963333E+02  0.00000000000E+00 0. -1.
        -12    1    3    3    0    0  0.28887644083E+02 -0.42924016298E+02  0.33511391194E+02  0.61643981828E+02  0.00000000000E+00 0.  1.
        -13    1    4    4    0    0 -0.19823742145E+02  0.54234872453E+02 -0.29533654479E+03  0.30092869061E+03  0.00000000000E+00 0. -1.
         13    1    4    4    0    0  0.23594009997E+01 -0.21126683115E+02 -0.19102071138E+02  0.28579584222E+02  0.00000000000E+00 0.  1.
         21    1    1    2  502  501  0.23770874294E+02 -0.17513028799E+01 -0.89087640252E+02  0.92221088544E+02  0.00000000000E+00 0.  1.
<scales pt_clust_5="13000.00000" pt_clust_6="13000.00000" pt_clust_7="13000.00000" pt_clust_8="13000.00000" pt_clust_9="23.83530"></scales>
<clustering>
<clus scale="   23.835">  2  9  1 -1</clus>
<clus scale="   82.836">  5  6 -1 -1</clus>
<clus scale="   88.737">  1  5  2 -1</clus>
<clus scale="   91.120">  7  8 -1 -1</clus>
<clus scale="   23.835">  2  5  1 -1</clus>
</clustering>
</event>
<event>
 9    1  0.1973774E-005  0.1418041E+03  0.7546771E-02  0.1212611E+00
          1   -1    0    0  502    0  0.00000000000E+00  0.00000000000E+00  0.69210060731E+03  0.69210060731E+03  0.00000000000E+00 0. -1.
         -2   -1    0    0    0  501 -0.00000000000E+00 -0.00000000000E+00 -0.44012796455E+02  0.44012796455E+02  0.00000000000E+00 0.  1.
         23    2    1    2    0    0  0.56406796514E+02 -0.88680848880E+02  0.14288457785E+03  0.19866591801E+03  0.89476950875E+02 0.  0.
        -24    2    1    2    0    0 -0.86440926762E+02  0.86797452720E+02  0.35468959620E+03  0.38395497446E+03  0.81307325276E+02 0.  0.
         13    1    4    4    0    0 -0.35611874183E+02  0.59387478508E+02  0.92881702841E+02  0.11585373930E+03  0.00000000000E+00 0. -1.
        -14    1    4    4    0    0 -0.50829052580E+02  0.27409974212E+02  0.26180789335E+03  0.26810123516E+03  0.00000000000E+00 0.  1.
        -11    1    3    3    0    0  0.49273995509E+01 -0.35962256428E+02 -0.17533779167E+01  0.36340576327E+02  0.00000000000E+00 0. -1.
         11    1    3    3    0    0  0.51479396963E+02 -0.52718592453E+02  0.14463795577E+03  0.16232534168E+03  0.00000000000E+00 0.  1.
         21    1    1    2  502  501  0.30034130248E+02  0.18833961604E+01  0.15051363681E+03  0.15349251130E+03  0.00000000000E+00 0.  1.
<scales pt_clust_5="13000.00000" pt_clust_6="13000.00000" pt_clust_7="13000.00000" pt_clust_8="13000.00000" pt_clust_9="30.09312"></scales>
<clustering>
<clus scale="   30.093">  1  9  2 -1</clus>
<clus scale="   81.307">  5  6 -1 -1</clus>
<clus scale="   89.477">  7  8 -1 -1</clus>
<clus scale="  136.796">  1  5  2 -1</clus>
<clus scale="   30.093">  1  5  2 -1</clus>
</clustering>
</event>
<event>
 9    1  0.1973774E-005  0.1028445E+03  0.7546771E-02  0.1278871E+00
         -2   -1    0    0    0  501 -0.00000000000E+00  0.00000000000E+00  0.34670494887E+02  0.34670494887E+02  0.00000000000E+00 0.  1.
          1   -1    0    0  502    0  0.00000000000E+00 -0.00000000000E+00 -0.41196761126E+03  0.41196761126E+03  0.00000000000E+00 0. -1.
        -24    2    1    2    0    0 -0.29134979907E+02  0.43830261687E+02 -0.83308995632E+02  0.12776031086E+03  0.81316476711E+02 0.  0.
         23    2    1    2    0    0  0.32377168221E+02 -0.24055948861E+02 -0.20764253579E+03  0.23023753765E+03  0.90922667014E+02 0.  0.
         13    1    3    3    0    0  0.27988597474E+02  0.10621690710E+02 -0.34088895205E+02  0.45367771362E+02  0.00000000000E+00 0. -1.
        -14    1    3    3    0    0 -0.57123577381E+02  0.33208570977E+02 -0.49220100427E+02  0.82392539500E+02  0.00000000000E+00 0.  1.
        -11    1    4    4    0    0  0.30162745339E+02 -0.56960906400E+02 -0.15797572764E+03  0.17061848255E+03  0.00000000000E+00 0. -1.
         11    1    4    4    0    0  0.22144228825E+01  0.32904957539E+02 -0.49666808143E+02  0.59619055095E+02  0.00000000000E+00 0.  1.
         21    1    1    2  502  501 -0.32421883142E+01 -0.19774312826E+02 -0.86345584952E+02  0.88640257634E+02  0.00000000000E+00 0. -1.
<scales pt_clust_5="13000.00000" pt_clust_6="13000.00000" pt_clust_7="13000.00000" pt_clust_8="13000.00000" pt_clust_9="20.03834"></scales>
<clustering>
<clus scale="   20.038">  2  9  1 -1</clus>
<clus scale="   81.316">  5  6 -1 -1</clus>
<clus scale="   90.923">  7  8 -1 -1</clus>
<clus scale="   94.459">  1  5  2 -1</clus>
<clus scale="   20.038">  2  5  1 -1</clus>
</clustering>
</event>
<event>
 9    1  0.1973774E-005  0.1251587E+03  0.7546771E-02  0.1236760E+00
          1   -1    0    0  502    0  0.00000000000E+00  0.00000000000E+00  0.83579866183E+03  0.83579866183E+03  0.00000000000E+00 0. -1.
         -2   -1    0    0    0  501 -0.00000000000E+00 -0.00000000000E+00 -0.33517534079E+02  0.33517534079E+02  0.00000000000E+00 0.  1.
         23    2    1    2    0    0  0.38903324079E+02 -0.76156704274E+02  0.13419659646E+03  0.18296313237E+03  0.90296561807E+02 0.  0.
        -24    2    1    2    0    0 -0.13051467003E+02  0.93638276089E+02  0.53294222237E+03  0.54765422603E+03  0.83422247399E+02 0.  0.
         13    1    4    4    0    0 -0.41059220498E+02  0.84311813843E+02  0.34999885220E+03  0.36234450193E+03  0.00000000000E+00 0. -1.
        -14    1    4    4    0    0  0.28007753495E+02  0.93264622452E+01  0.18294337017E+03  0.18530972409E+03  0.00000000000E+00 0.  1.
        -11    1    3    3    0    0  0.43073404782E+02  0.27041332266E+01  0.31584997806E+02  0.53481236171E+02  0.00000000000E+00 0.  1.
         11    1    3    3    0    0 -0.41700807025E+01 -0.78860837500E+02  0.10261159866E+03  0.12948189620E+03  0.00000000000E+00 0. -1.
         21    1    1    2  502  501 -0.25851857076E+02 -0.17481571815E+02  0.13514230892E+03  0.13869883751E+03  0.00000000000E+00 0.  1.
<scales pt_clust_5="13000.00000" pt_clust_6="13000.00000" pt_clust_7="13000.00000" pt_clust_8="13000.00000" pt_clust_9="31.20775"></scales>
<clustering>
<clus scale="   31.208">  1  9  2 -1</clus>
<clus scale="   83.422">  5  6 -1 -1</clus>
<clus scale="   90.297">  7  8 -1 -1</clus>
<clus scale="  120.293">  1  5  2 -1</clus>
<clus scale="   31.208">  1  5  2 -1</clus>
</clustering>
</event>
<event>
 9    1  0.1973774E-005  0.1179488E+03  0.7546771E-02  0.1256266E+00
         -2   -1    0    0    0  501 -0.00000000000E+00  0.00000000000E+00  0.40837179708E+02  0.40837179708E+02  0.00000000000E+00 0.  1.
          1   -1    0    0  502    0  0.00000000000E+00 -0.00000000000E+00 -0.46949189714E+03  0.46949189714E+03  0.00000000000E+00 0. -1.
         23    2    1    2    0    0 -0.47243327141E+02 -0.15389722723E+02 -0.15749229546E+03  0.19586989790E+03  0.10532054998E+03 0.  0.
        -24    2    1    2    0    0  0.26074988529E+02  0.60262875575E+02 -0.14379221867E+03  0.17776657822E+03  0.81321798927E+02 0.  0.
         13    1    4    4    0    0  0.54601415308E+02  0.27684712030E+02 -0.84023953373E+02  0.10396048564E+03  0.00000000000E+00 0. -1.
        -14    1    4    4    0    0 -0.28526426779E+02  0.32578163545E+02 -0.59768265299E+02  0.73806092578E+02  0.00000000000E+00 0.  1.
        -11    1    3    3    0    0 -0.57667672762E+02 -0.51966505368E+02 -0.11605798203E+03  0.13962640637E+03  0.00000000000E+00 0. -1.
         11    1    3    3    0    0  0.10424345621E+02  0.36576782645E+02 -0.41434313426E+02  0.56243491529E+02  0.00000000000E+00 0.  1.
         21    1    1    2  502  501  0.21168338612E+02 -0.44873152853E+02 -0.12737020330E+03  0.13669260073E+03  0.00000000000E+00 0. -1.
<scales pt_clust_5="13000.00000" pt_clust_6="13000.00000" pt_clust_7="13000.00000" pt_clust_8="13000.00000" pt_clust_9="49.61551"></scales>
<clustering>
<clus scale="   49.616">  2  9  1 -1</clus>
<clus scale="   81.322">  5  6 -1 -1</clus>
<clus scale="   97.122">  2  5  1 -1</clus>
<clus scale="  105.321">  7  8 -1 -1</clus>
<clus scale="   49.616">  2  5  1 -1</clus>
</clustering>
</event>
<event>
 9    1  0.1973774E-005  0.1169333E+03  0.7546771E-02  0.1253006E+00
         -2   -1    0    0    0  501 -0.00000000000E+00  0.00000000000E+00  0.72648873665E+02  0.72648873665E+02  0.00000000000E+00 0.  1.
          1   -1    0    0  502    0  0.00000000000E+00 -0.00000000000E+00 -0.25824974258E+03  0.25824974258E+03  0.00000000000E+00 0. -1.
         23    2    1    2    0    0  0.80546273535E+02 -0.10925468898E+02 -0.40587388193E+02  0.12910790686E+03  0.91730297523E+02 0.  0.
        -24    2    1    2    0    0 -0.61863586188E+02 -0.20241912936E+02 -0.88473082172E+02  0.13458010631E+03  0.77765547705E+02 0.  0.
         13    1    4    4    0    0 -0.13530526040E+02 -0.45081846167E+02 -0.41292068751E+02  0.62613759913E+02  0.00000000000E+00 0. -1.
        -14    1    4    4    0    0 -0.48333060148E+02  0.24839933231E+02 -0.47181013421E+02  0.71966346396E+02  0.00000000000E+00 0.  1.
        -11    1    3    3    0    0  0.39614611902E+02 -0.52456723832E+01  0.28167498575E+02  0.48890106677E+02  0.00000000000E+00 0.  1.
         11    1    3    3    0    0  0.40931661633E+02 -0.56797965151E+01 -0.68754886768E+02  0.80217800188E+02  0.00000000000E+00 0. -1.
         21    1    1    2  502  501 -0.18682687347E+02  0.31167381835E+02 -0.56540398549E+02  0.67210603070E+02  0.00000000000E+00 0. -1.
<scales pt_clust_5="13000.00000" pt_clust_6="13000.00000" pt_clust_7="13000.00000" pt_clust_8="13000.00000" pt_clust_9="36.33798"></scales>
<clustering>
<clus scale="   36.338">  2  9  1 -1</clus>
<clus scale="   77.766">  5  6 -1 -1</clus>
<clus scale="   91.730">  7  8 -1 -1</clus>
<clus scale="  106.332">  2  5  1 -1</clus>
<clus scale="   36.338">  2  5  1 -1</clus>
</clustering>
</event>
<event>
 9    1  0.1973774E-005  0.1125932E+03  0.7546771E-02  0.1260952E+00
          1   -1    0    0  502    0  0.00000000000E+00  0.00000000000E+00  0.56144308068E+03  0.56144308068E+03  0.00000000000E+00 0. -1.
         -2   -1    0    0    0  501 -0.00000000000E+00 -0.00000000000E+00 -0.62760987443E+02  0.62760987443E+02  0.00000000000E+00 0.  1.
         23    2    1    2    0    0 -0.29814853239E+02  0.64029932396E+02  0.15918280897E+02  0.11709352599E+03  0.92025781417E+02 0.  0.
        -24    2    1    2    0    0 -0.90034705180E+01 -0.35116117533E+02  0.41457583025E+03  0.42348954088E+03  0.78460614435E+02 0.  0.
         11    1    4    4    0    0  0.27491531553E+02  0.87614832967E+01  0.16162565297E+03  0.16418099645E+03  0.00000000000E+00 0. -1.
        -12    1    4    4    0    0 -0.36495002071E+02 -0.43877600830E+02  0.25295017727E+03  0.25930854443E+03  0.00000000000E+00 0.  1.
        -13    1    3    3    0    0  0.23030178814E+02  0.28846958993E+02  0.34932606647E+02  0.50821483514E+02  0.00000000000E+00 0. -1.
         13    1    3    3    0    0 -0.52845032052E+02  0.35182973403E+02 -0.19014325750E+02  0.66272042475E+02  0.00000000000E+00 0.  1.
         21    1    1    2  502  501  0.38818323757E+02 -0.28913814863E+02  0.68187982095E+02  0.83621001258E+02  0.00000000000E+00 0. -1.
<scales pt_clust_5="13000.00000" pt_clust_6="13000.00000" pt_clust_7="13000.00000" pt_clust_8="13000.00000" pt_clust_9="48.40321"></scales>
<clustering>
<clus scale="   48.403">  1  9  2 -1</clus>
<clus scale="   78.461">  5  6 -1 -1</clus>
<clus scale="   92.026">  7  8 -1 -1</clus>
<clus scale="  101.806">  1  5  2 -1</clus>
<clus scale="   48.403">  1  5  2 -1</clus>
</clustering>
</event>
<event>
 9    1  0.1973774E-005  0.1032544E+03  0.7546771E-02  0.1278179E+00
         -2   -1    0    0    0  501 -0.00000000000E+00  0.00000000000E+00  0.18248511390E+03  0.18248511390E+03  0.00000000000E+00 0.  1.
          1   -1    0    0  502    0  0.00000000000E+00 -0.00000000000E+00 -0.27105178749E+03  0.27105178749E+03  0.00000000000E+00 0. -1.
         23    2    1    2    0    0 -0.23159942660E+02 -0.22775121383E+02  0.13315372400E+03  0.16464245815E+03  0.91225740394E+02 0.  0.
        -24    2    1    2    0    0  0.49775699468E+02 -0.60325269619E+01 -0.22979745303E+03  0.24885049316E+03  0.81275376887E+02 0.  0.
         13    1    4    4    0    0  0.55753150324E+02  0.15289723042E+02 -0.21394145880E+03  0.22161483974E+03  0.00000000000E+00 0. -1.
        -14    1    4    4    0    0 -0.59774508561E+01 -0.21322250004E+02 -0.15855994231E+02  0.27235653417E+02  0.00000000000E+00 0.  1.
        -11    1    3    3    0    0  0.15883970595E+02 -0.35719239560E+02  0.11150668802E+03  0.11816050977E+03  0.00000000000E+00 0.  1.
         11    1    3    3    0    0 -0.39043913256E+02  0.12944118177E+02  0.21647035983E+02  0.46481948373E+02  0.00000000000E+00 0. -1.
         21    1    1    2  502  501 -0.26615756808E+02  0.28807648345E+02  0.80770554343E+01  0.40043950081E+02  0.00000000000E+00 0.  1.
<scales pt_clust_5="13000.00000" pt_clust_6="13000.00000" pt_clust_7="13000.00000" pt_clust_8="13000.00000" pt_clust_9="39.22090"></scales>
<clustering>
<clus scale="   39.221">  1  9  2 -1</clus>
<clus scale="   81.275">  5  6 -1 -1</clus>
<clus scale="   91.226">  7  8 -1 -1</clus>
<clus scale="   94.578">  2  5  1 -1</clus>
<clus scale="   94.578">  2  5  1 -1</clus>
</clustering>
</event>
<event>
 9    1  0.1973774E-005  0.9917761E+02  0.7546771E-02  0.1288902E+00
          3   -1    0    0  502    0  0.00000000000E+00  0.00000000000E+00  0.24192573991E+02  0.24192573991E+02  0.00000000000E+00 0. -1.
         -4   -1    0    0    0  501 -0.00000000000E+00 -0.00000000000E+00 -0.68492288573E+03  0.68492288573E+03  0.00000000000E+00 0.  1.
        -24    2    1    2    0    0 -0.35372957823E+02  0.26111291198E+02 -0.46906418441E+03  0.47736348984E+03  0.76952236270E+02 0.  0.
         23    2    1    2    0    0  0.34919152922E+02 -0.50239461153E+01 -0.18620994978E+03  0.20996546178E+03  0.90370141466E+02 0.  0.
         13    1    3    3    0    0 -0.17574505557E+02 -0.12757459553E+02 -0.34936786584E+02  0.41136298772E+02  0.00000000000E+00 0. -1.
        -14    1    3    3    0    0 -0.17798452266E+02  0.38868750751E+02 -0.43412739783E+03  0.43622719107E+03  0.00000000000E+00 0.  1.
        -11    1    4    4    0    0 -0.30590161974E+02  0.47802286265E+00 -0.71160821997E+02  0.77458692881E+02  0.00000000000E+00 0.  1.
         11    1    4    4    0    0  0.65509314896E+02 -0.55019689780E+01 -0.11504912778E+03  0.13250676890E+03  0.00000000000E+00 0. -1.
         21    1    1    2  502  501  0.45380490117E+00 -0.21087345083E+02 -0.54561775484E+01  0.21786508095E+02  0.00000000000E+00 0.  1.
<scales pt_clust_5="13000.00000" pt_clust_6="13000.00000" pt_clust_7="13000.00000" pt_clust_8="13000.00000" pt_clust_9="21.09223"></scales>
<clustering>
<clus scale="   21.092">  1  9  2 -1</clus>
<clus scale="   76.952">  5  6 -1 -1</clus>
<clus scale="   87.127">  2  5  1 -1</clus>
<clus scale="   90.370">  7  8 -1 -1</clus>
<clus scale="   21.092">  1  5  2 -1</clus>
</clustering>
</event>
<event>
 9    1  0.1973774E-005  0.9503207E+02  0.7546771E-02  0.1293776E+00
         -2   -1    0    0    0  501 -0.00000000000E+00  0.00000000000E+00  0.16314059788E+03  0.16314059788E+03  0.00000000000E+00 0.  1.
          1   -1    0    0  502    0  0.00000000000E+00 -0.00000000000E+00 -0.86052769374E+02  0.86052769374E+02  0.00000000000E+00 0. -1.
         23    2    1    2    0    0  0.86038471613E+00 -0.42813368472E+02  0.97317808168E+02  0.13698673083E+03  0.86376407979E+02 0.  0.
        -24    2    1    2    0    0 -0.18379889199E+02  0.29721759410E+02 -0.15040478322E+02  0.89728776438E+02  0.81263977404E+02 0.  0.
         13    1    4    4    0    0  0.54901223512E+01  0.53655052337E+02 -0.14787998457E+02  0.55925763143E+02  0.00000000000E+00 0. -1.
        -14    1    4    4    0    0 -0.23870011550E+02 -0.23933292927E+02 -0.25247986525E+00  0.33803013295E+02  0.00000000000E+00 0.  1.
        -13    1    3    3    0    0 -0.18928730344E+02 -0.63045780564E+02  0.53506241416E+02  0.84829152712E+02  0.00000000000E+00 0.  1.
         13    1    3    3    0    0  0.19789115061E+02  0.20232412092E+02  0.43811566752E+02  0.52157578118E+02  0.00000000000E+00 0. -1.
         21    1    1    2  502  501  0.17519504482E+02  0.13091609062E+02 -0.51895013433E+01  0.22477859981E+02  0.00000000000E+00 0. -1.
<scales pt_clust_5="13000.00000" pt_clust_6="13000.00000" pt_clust_7="13000.00000" pt_clust_8="13000.00000" pt_clust_9="21.87060"></scales>
<clustering>
<clus scale="   21.871">  2  9  1 -1</clus>
<clus scale="   81.264">  5  6 -1 -1</clus>
<clus scale="   86.376">  7  8 -1 -1</clus>
<clus scale="   90.410">  2  5  1 -1</clus>
<clus scale="   21.871">  2  5  1 -1</clus>
</clustering>
</event>
<event>
 9    1  0.1973774E-005  0.9253084E+02  0.7546771E-02  0.1305732E+00
         -4   -1    0    0    0  501 -0.00000000000E+00  0.00000000000E+00  0.80552109580E+03  0.80552109580E+03  0.00000000000E+00 0.  1.
          3   -1    0    0  502    0  0.00000000000E+00 -0.00000000000E+00 -0.21402458946E+02  0.21402458946E+02  0.00000000000E+00 0. -1.
        -24    2    1    2    0    0 -0.89319468935E+01  0.77452566082E+01  0.61038606822E+03  0.61547407492E+03  0.78085952287E+02 0.  0.
         23    2    1    2    0    0 -0.15311225724E+02  0.73307948463E+00  0.12153151793E+03  0.15327248011E+03  0.92128021091E+02 0.  0.
         11    1    3    3    0    0  0.32402403789E+02 -0.60662197804E+01  0.19037469746E+03  0.19320776441E+03  0.00000000000E+00 0. -1.
        -12    1    3    3    0    0 -0.41334350682E+02  0.13811476389E+02  0.42001137076E+03  0.42226631051E+03  0.00000000000E+00 0.  1.
        -11    1    4    4    0    0 -0.19386912555E+01 -0.31824419158E+02  0.59282179501E+01  0.32429861958E+02  0.00000000000E+00 0. -1.
         11    1    4    4    0    0 -0.13372534469E+02  0.32557498643E+02  0.11560329998E+03  0.12084261815E+03  0.00000000000E+00 0.  1.
         21    1    1    2  502  501  0.24243172618E+02 -0.84783360928E+01  0.52201050706E+02  0.58176999719E+02  0.00000000000E+00 0. -1.
<scales pt_clust_5="13000.00000" pt_clust_6="13000.00000" pt_clust_7="13000.00000" pt_clust_8="13000.00000" pt_clust_9="25.68294"></scales>
<clustering>
<clus scale="   25.683">  2  9  1 -1</clus>
<clus scale="   78.086">  5  6 -1 -1</clus>
<clus scale="   78.561">  1  5  2 -1</clus>
<clus scale="   92.128">  7  8 -1 -1</clus>
<clus scale="   25.683">  2  5  1 -1</clus>
</clustering>
</event>
<event>
 9    1  0.1973774E-005  0.1028308E+03  0.7546771E-02  0.1286639E+00
         -2   -1    0    0    0  501 -0.00000000000E+00  0.00000000000E+00  0.40011029788E+03  0.40011029788E+03  0.00000000000E+00 0.  1.
          1   -1    0    0  502    0  0.00000000000E+00 -0.00000000000E+00 -0.12454707843E+03  0.12454707843E+03  0.00000000000E+00 0. -1.
        -24    2    1    2    0    0  0.24909275582E+02 -0.34507245517E+02  0.32030290547E+03  0.33050513584E+03  0.69487204327E+02 0.  0.
         23    2    1    2    0    0  0.34399446612E+00  0.52813443268E+02  0.31362473522E+02  0.11190636999E+03  0.93541716775E+02 0.  0.
         11    1    3    3    0    0 -0.24400305674E+02 -0.13368055610E+02  0.10668128886E+03  0.11024961324E+03  0.00000000000E+00 0. -1.
        -12    1    3    3    0    0  0.49309581255E+02 -0.21139189907E+02  0.21362161661E+03  0.22025552260E+03  0.00000000000E+00 0.  1.
        -11    1    4    4    0    0  0.36191806457E+02  0.50665435050E+02 -0.28184756685E+01  0.62327979019E+02  0.00000000000E+00 0. -1.
         11    1    4    4    0    0 -0.35847811991E+02  0.21480082174E+01  0.34180949191E+02  0.49578390972E+02  0.00000000000E+00 0.  1.
         21    1    1    2  502  501 -0.25253270048E+02 -0.18306197751E+02 -0.76102159534E+02  0.82245870473E+02  0.00000000000E+00 0.  1.
<scales pt_clust_5="13000.00000" pt_clust_6="13000.00000" pt_clust_7="13000.00000" pt_clust_8="13000.00000" pt_clust_9="31.19046"></scales>
<clustering>
<clus scale="   31.190">  2  9  1 -1</clus>
<clus scale="   69.487">  5  6 -1 -1</clus>
<clus scale="   81.563">  1  5  2 -1</clus>
<clus scale="   93.542">  7  8 -1 -1</clus>
<clus scale="   31.190">  2  5  1 -1</clus>
</clustering>
</event>
<event>
 9    1  0.1973774E-005  0.1378336E+03  0.7546771E-02  0.1219854E+00
          1   -1    0    0  502    0  0.00000000000E+00  0.00000000000E+00  0.48301975626E+03  0.48301975626E+03  0.00000000000E+00 0. -1.
         -2   -1    0    0    0  501 -0.00000000000E+00 -0.00000000000E+00 -0.70701572261E+02  0.70701572261E+02  0.00000000000E+00 0.  1.
        -24    2    1    2    0    0  0.82554243155E+02  0.17069961847E+02  0.76201283128E+02  0.13915297819E+03  0.80313941063E+02 0.  0.
         23    2    1    2    0    0 -0.11957179707E+03 -0.23400644257E+02  0.12170780358E+03  0.19689511394E+03  0.95445752329E+02 0.  0.
         11    1    3    3    0    0  0.52497054746E+02  0.38350159732E+02  0.78890577586E+02  0.10222719179E+03  0.00000000000E+00 0. -1.
        -12    1    3    3    0    0  0.30057188409E+02 -0.21280197885E+02 -0.26892944580E+01  0.36925786407E+02  0.00000000000E+00 0.  1.
        -11    1    4    4    0    0 -0.43133978065E+02 -0.11372440920E+02  0.10991657867E+03  0.11862346624E+03  0.00000000000E+00 0. -1.
         11    1    4    4    0    0 -0.76437819001E+02 -0.12028203337E+02  0.11791224907E+02  0.78271647702E+02  0.00000000000E+00 0.  1.
         21    1    1    2  502  501  0.37017553911E+02  0.63306824097E+01  0.21440909730E+03  0.21767323639E+03  0.00000000000E+00 0. -1.
<scales pt_clust_5="13000.00000" pt_clust_6="13000.00000" pt_clust_7="13000.00000" pt_clust_8="13000.00000" pt_clust_9="37.55498"></scales>
<clustering>
<clus scale="   37.555">  1  9  2 -1</clus>
<clus scale="   80.314">  5  6 -1 -1</clus>
<clus scale="   95.446">  7  8 -1 -1</clus>
<clus scale="  127.822">  2  5  1 -1</clus>
<clus scale="   37.555">  1  5  2 -1</clus>
</clustering>
</event>
<event>
 9    1  0.1973774E-005  0.9371790E+02  0.7546771E-02  0.1301924E+00
         -2   -1    0    0    0  501 -0.00000000000E+00  0.00000000000E+00  0.71573000180E+02  0.71573000180E+02  0.00000000000E+00 0.  1.
          1   -1    0    0  502    0  0.00000000000E+00 -0.00000000000E+00 -0.37574176031E+03  0.37574176031E+03  0.00000000000E+00 0. -1.
        -24    2    1    2    0    0  0.39621726529E+01 -0.17726855019E+02  0.33564258285E+02  0.87375723310E+02  0.78600365068E+02 0.  0.
         23    2    1    2    0    0  0.50023481685E+01  0.37118629737E+02 -0.23452853984E+03  0.25454658983E+03  0.91583373136E+02 0.  0.
         13    1    3    3    0    0 -0.62312143358E+01  0.30626554084E+02  0.12725385143E+02  0.33745359299E+02  0.00000000000E+00 0. -1.
        -14    1    3    3    0    0  0.10193386989E+02 -0.48353409103E+02  0.20838873141E+02  0.53630364011E+02  0.00000000000E+00 0.  1.
        -11    1    4    4    0    0  0.24356435898E+02 -0.62796693431E+01 -0.13657148047E+02  0.28621458899E+02  0.00000000000E+00 0.  1.
         11    1    4    4    0    0 -0.19354087729E+02  0.43398299080E+02 -0.22087139179E+03  0.22592513093E+03  0.00000000000E+00 0. -1.
         21    1    1    2  502  501 -0.89645208214E+01 -0.19391774718E+02 -0.10320447858E+03  0.10539244735E+03  0.00000000000E+00 0.  1.
<scales pt_clust_5="13000.00000" pt_clust_6="13000.00000" pt_clust_7="13000.00000" pt_clust_8="13000.00000" pt_clust_9="21.36360"></scales>
<clustering>
<clus scale="   21.364">  2  9  1 -1</clus>
<clus scale="   78.600">  5  6 -1 -1</clus>
<clus scale="   81.077">  1  5  2 -1</clus>
<clus scale="   91.583">  7  8 -1 -1</clus>
<clus scale="   21.364">  2  5  1 -1</clus>
</clustering>
</event>
<event>
 9    1  0.1973774E-005  0.1201453E+03  0.7546771E-02  0.1245857E+00
         -2   -1    0    0    0  501 -0.00000000000E+00  0.00000000000E+00  0.45069932066E+03  0.45069932066E+03  0.00000000000E+00 0.  1.
          1   -1    0    0  502    0  0.00000000000E+00 -0.00000000000E+00 -0.14352633193E+03  0.14352633193E+03  0.00000000000E+00 0. -1.
        -24    2    1    2    0    0  0.26487504496E+02  0.10745576500E+03  0.31843281171E+03  0.34687244050E+03  0.81686627293E+02 0.  0.
         23    2    1    2    0    0 -0.71358024607E+01 -0.26463740641E+02  0.79592847533E+02  0.12411196850E+03  0.91200384319E+02 0.  0.
         13    1    3    3    0    0 -0.26218041224E+02  0.31454148375E+02  0.14039216248E+03  0.14624195165E+03  0.00000000000E+00 0. -1.
        -14    1    3    3    0    0  0.52705545719E+02  0.76001616621E+02  0.17804064923E+03  0.20063048885E+03  0.00000000000E+00 0.  1.
        -13    1    4    4    0    0  0.10182726065E+02  0.24264918406E+02 -0.21048047061E+01  0.26398946536E+02  0.00000000000E+00 0.  1.
         13    1    4    4    0    0 -0.17318528525E+02 -0.50728659047E+02  0.81697652239E+02  0.97713021959E+02  0.00000000000E+00 0. -1.
         21    1    1    2  502  501 -0.19351702035E+02 -0.80992024355E+02 -0.90852670524E+02  0.12324124359E+03  0.00000000000E+00 0. -1.
<scales pt_clust_5="13000.00000" pt_clust_6="13000.00000" pt_clust_7="13000.00000" pt_clust_8="13000.00000" pt_clust_9="83.27182"></scales>
<clustering>
<clus scale="   81.687">  5  6 -1 -1</clus>
<clus scale="   83.272">  2  9  1 -1</clus>
<clus scale="   91.200">  7  8 -1 -1</clus>
<clus scale="  113.093">  1  5  2 -1</clus>
<clus scale="   83.272">  2  5  1 -1</clus>
</clustering>
</event>
<event>
 9    1  0.1973774E-005  0.1537573E+03  0.7546771E-02  0.1198664E+00
         -4   -1    0    0    0  501 -0.00000000000E+00  0.00000000000E+00  0.18112928341E+03  0.18112928341E+03  0.00000000000E+00 0.  1.
          3   -1    0    0  502    0  0.00000000000E+00 -0.00000000000E+00 -0.31243493278E+03  0.31243493278E+03  0.00000000000E+00 0. -1.
         23    2    1    2    0    0  0.47338184268E+01 -0.68535313113E+02  0.10128005048E+03  0.15342565011E+03  0.92532606712E+02 0.  0.
        -24    2    1    2    0    0 -0.27602143918E+02  0.12998556098E+03 -0.22740924218E+03  0.27436707539E+03  0.76838819738E+02 0.  0.
         11    1    4    4    0    0  0.16433329224E+02  0.88396549894E+02 -0.10843752345E+03  0.14086412189E+03  0.00000000000E+00 0. -1.
        -12    1    4    4    0    0 -0.44035473143E+02  0.41589011089E+02 -0.11897171872E+03  0.13350295350E+03  0.00000000000E+00 0.  1.
        -13    1    3    3    0    0 -0.27912578730E+02 -0.50370460465E+02  0.10076799538E+03  0.11606241524E+03  0.00000000000E+00 0.  1.
         13    1    3    3    0    0  0.32646397157E+02 -0.18164852649E+02  0.51205509893E+00  0.37363234864E+02  0.00000000000E+00 0. -1.
         21    1    1    2  502  501  0.22868325491E+02 -0.61450247869E+02 -0.51764576809E+01  0.65771490694E+02  0.00000000000E+00 0.  1.
<scales pt_clust_5="13000.00000" pt_clust_6="13000.00000" pt_clust_7="13000.00000" pt_clust_8="13000.00000" pt_clust_9="65.56747"></scales>
<clustering>
<clus scale="   65.567">  1  9  2 -1</clus>
<clus scale="   76.839">  5  6 -1 -1</clus>
<clus scale="   92.533">  7  8 -1 -1</clus>
<clus scale="  144.856">  2  5  1 -1</clus>
<clus scale="  144.856">  2  5  1 -1</clus>
</clustering>
</event>
<event>
 9    1  0.1973774E-005  0.1073384E+03  0.7546771E-02  0.1271459E+00
          1   -1    0    0  502    0  0.00000000000E+00  0.00000000000E+00  0.36100257842E+03  0.36100257842E+03  0.00000000000E+00 0. -1.
         -2   -1    0    0    0  501 -0.00000000000E+00 -0.00000000000E+00 -0.29922489737E+03  0.29922489737E+03  0.00000000000E+00 0.  1.
        -24    2    1    2    0    0 -0.18503421926E+02 -0.47298796708E+02 -0.27534765100E+03  0.29148943486E+03  0.81056825302E+02 0.  0.
         23    2    1    2    0    0  0.45745413178E+02  0.43428031045E+02  0.21074504388E+03  0.23939707235E+03  0.94439652790E+02 0.  0.
         11    1    3    3    0    0 -0.50796241803E+02 -0.30051644471E+02 -0.16671877990E+03  0.17685731845E+03  0.00000000000E+00 0. -1.
        -12    1    3    3    0    0  0.32292819877E+02 -0.17247152237E+02 -0.10862887110E+03  0.11463211641E+03  0.00000000000E+00 0.  1.
        -11    1    4    4    0    0  0.54799874357E+02 -0.40490925412E+01  0.61264382083E+02  0.82296694295E+02  0.00000000000E+00 0.  1.
         11    1    4    4    0    0 -0.90544611787E+01  0.47477123586E+02  0.14948066180E+03  0.15710037805E+03  0.00000000000E+00 0. -1.
         21    1    1    2  502  501 -0.27241991253E+02  0.38707656629E+01  0.12638028818E+03  0.12934096859E+03  0.00000000000E+00 0. -1.
<scales pt_clust_5="13000.00000" pt_clust_6="13000.00000" pt_clust_7="13000.00000" pt_clust_8="13000.00000" pt_clust_9="27.51561"></scales>
<clustering>
<clus scale="   27.516">  1  9  2 -1</clus>
<clus scale="   81.057">  5  6 -1 -1</clus>
<clus scale="   94.440">  7  8 -1 -1</clus>
<clus scale="   95.775">  2  5  1 -1</clus>
<clus scale="   27.516">  1  5  2 -1</clus>
</clustering>
</event>
<event>
 9    1  0.1973774E-005  0.9910492E+02  0.7546771E-02  0.1289573E+00
          1   -1    0    0  502    0  0.00000000000E+00  0.00000000000E+00  0.78525386525E+02  0.78525386525E+02  0.00000000000E+00 0. -1.
         -2   -1    0    0    0  501 -0.00000000000E+00 -0.00000000000E+00 -0.31130088701E+03  0.31130088701E+03  0.00000000000E+00 0.  1.
         23    2    1    2    0    0 -0.24289719820E+02 -0.14332510713E+02 -0.20343104327E+03  0.22482459915E+03  0.91468572005E+02 0.  0.
        -24    2    1    2    0    0  0.47714865747E+02  0.50642631511E+02 -0.51906450733E+02  0.11625533211E+03  0.77328119578E+02 0.  0.
         13    1    4    4    0    0 -0.63569794507E+01  0.46580793848E+02 -0.10868385766E+02  0.48252495815E+02  0.00000000000E+00 0. -1.
        -14    1    4    4    0    0  0.54071845197E+02  0.40618376625E+01 -0.41038064967E+02  0.68002836297E+02  0.00000000000E+00 0.  1.
        -13    1    3    3    0    0  0.27357777290E+02 -0.23184152959E+02 -0.42662348334E+02  0.55731758380E+02  0.00000000000E+00 0. -1.
         13    1    3    3    0    0 -0.51647497110E+02  0.88516422462E+01 -0.16076869494E+03  0.16909284077E+03  0.00000000000E+00 0.  1.
         21    1    1    2  502  501 -0.23425145926E+02 -0.36310120797E+02  0.22561993515E+02  0.48746342277E+02  0.00000000000E+00 0.  1.
<scales pt_clust_5="13000.00000" pt_clust_6="13000.00000" pt_clust_7="13000.00000" pt_clust_8="13000.00000" pt_clust_9="43.21067"></scales>
<clustering>
<clus scale="   43.211">  1  9  2 -1</clus>
<clus scale="   77.328">  5  6 -1 -1</clus>
<clus scale="   86.226">  1  5  2 -1</clus>
<clus scale="   91.469">  7  8 -1 -1</clus>
<clus scale="   43.211">  1  5  2 -1</clus>
</clustering>
</event>
<event>
 9    1  0.1973774E-005  0.1594616E+03  0.7546771E-02  0.1191310E+00
          3   -1    0    0  502    0  0.00000000000E+00  0.00000000000E+00  0.27336276775E+03  0.27336276775E+03  0.00000000000E+00 0. -1.
         -4   -1    0    0    0  501 -0.00000000000E+00 -0.00000000000E+00 -0.14486486741E+03  0.14486486741E+03  0.00000000000E+00 0.  1.
         23    2    1    2    0    0 -0.41065551360E+02 -0.12849129503E+03 -0.52844313422E+00  0.16372305913E+03  0.92782371334E+02 0.  0.
        -24    2    1    2    0    0  0.59548107115E+02  0.11002266467E+03  0.29463284861E+02  0.15157014150E+03  0.80339646731E+02 0.  0.
         13    1    4    4    0    0  0.64024389608E+02  0.92590906309E+02  0.50931119382E+02  0.12355637303E+03  0.00000000000E+00 0. -1.
        -14    1    4    4    0    0 -0.44762824935E+01  0.17431758358E+02 -0.21467834521E+02  0.28013768462E+02  0.00000000000E+00 0.  1.
        -13    1    3    3    0    0  0.28974928761E+02 -0.42915722855E+02 -0.99853473134E+01  0.52735310048E+02  0.00000000000E+00 0.  1.
         13    1    3    3    0    0 -0.70040480122E+02 -0.85575572174E+02  0.94569041792E+01  0.11098774908E+03  0.00000000000E+00 0. -1.
         21    1    1    2  502  501 -0.18482555754E+02  0.18468630363E+02  0.99563058612E+02  0.10293443454E+03  0.00000000000E+00 0.  1.
<scales pt_clust_5="13000.00000" pt_clust_6="13000.00000" pt_clust_7="13000.00000" pt_clust_8="13000.00000" pt_clust_9="26.12844"></scales>
<clustering>
<clus scale="   26.128">  1  9  2 -1</clus>
<clus scale="   80.340">  5  6 -1 -1</clus>
<clus scale="   92.782">  7  8 -1 -1</clus>
<clus scale="  152.558">  1  5  2 -1</clus>
<clus scale="   26.128">  1  5  2 -1</clus>
</clustering>
</event>
<event>
 9    1  0.1973774E-005  0.9387453E+02  0.7546771E-02  0.1299923E+00
         -2   -1    0    0    0  501 -0.00000000000E+00  0.00000000000E+00  0.62087696367E+02  0.62087696367E+02  0.00000000000E+00 0.  1.
          1   -1    0    0  502    0  0.00000000000E+00 -0.00000000000E+00 -0.48013698087E+03  0.48013698087E+03  0.00000000000E+00 0. -1.
        -24    2    1    2    0    0 -0.28735810952E+02  0.13992417342E+02  0.75896408964E+00  0.85347332320E+02  0.79133156980E+02 0.  0.
         23    2    1    2    0    0 -0.18027440227E+02 -0.41378915157E+02 -0.13711806160E+03  0.17002166104E+03  0.89826494899E+02 0.  0.
         11    1    3    3    0    0 -0.25292734864E+02  0.32935994616E+02 -0.28468186780E+02  0.50348186033E+02  0.00000000000E+00 0. -1.
        -12    1    3    3    0    0 -0.34430760879E+01 -0.18943577275E+02  0.29227150870E+02  0.34999146288E+02  0.00000000000E+00 0.  1.
        -13    1    4    4    0    0 -0.25014439215E+02  0.21391300319E+02 -0.72719984099E+02  0.79821713750E+02  0.00000000000E+00 0.  1.
         13    1    4    4    0    0  0.69869989882E+01 -0.62770215475E+02 -0.64398077500E+02  0.90199947292E+02  0.00000000000E+00 0. -1.
         21    1    1    2  502  501  0.46763251178E+02  0.27386497815E+02 -0.28169018699E+03  0.28685568388E+03  0.00000000000E+00 0. -1.
<scales pt_clust_5="13000.00000" pt_clust_6="13000.00000" pt_clust_7="13000.00000" pt_clust_8="13000.00000" pt_clust_9="54.19245"></scales>
<clustering>
<clus scale="   54.192">  2  9  1 -1</clus>
<clus scale="   79.133">  5  6 -1 -1</clus>
<clus scale="   83.700">  1  5  2 -1</clus>
<clus scale="   89.826">  7  8 -1 -1</clus>
<clus scale="   54.192">  2  5  1 -1</clus>
</clustering>
</event>
<event>
 9    1  0.1973774E-005  0.9349400E+02  0.7546771E-02  0.1301154E+00
          3   -1    0    0  502    0  0.00000000000E+00  0.00000000000E+00  0.27271155947E+03  0.27271155947E+03  0.00000000000E+00 0. -1.
         -4   -1    0    0    0  501 -0.00000000000E+00 -0.00000000000E+00 -0.17979594914E+03  0.17979594914E+03  0.00000000000E+00 0.  1.
         23    2    1    2    0    0  0.11805698705E+02  0.10949911144E+02 -0.14295234420E+03  0.17049441061E+03  0.91507902713E+02 0.  0.
        -24    2    1    2    0    0 -0.14412122888E+02 -0.43112551629E+02  0.78382528004E+02  0.12125586345E+03  0.80577678860E+02 0.  0.
         13    1    4    4    0    0 -0.13644603453E+02 -0.19004156893E+02  0.91052525098E+02  0.94010081956E+02  0.00000000000E+00 0. -1.
        -14    1    4    4    0    0 -0.76751943474E+00 -0.24108394736E+02 -0.12669997094E+02  0.27245781494E+02  0.00000000000E+00 0.  1.
        -11    1    3    3    0    0 -0.30332408327E+01  0.28676883967E+02 -0.33958727589E+01  0.29036118470E+02  0.00000000000E+00 0. -1.
         11    1    3    3    0    0  0.14838939538E+02 -0.17726972823E+02 -0.13955647144E+03  0.14145829214E+03  0.00000000000E+00 0.  1.
         21    1    1    2  502  501  0.26064241833E+01  0.32162640485E+02  0.15748542653E+03  0.16075723455E+03  0.00000000000E+00 0. -1.
<scales pt_clust_5="13000.00000" pt_clust_6="13000.00000" pt_clust_7="13000.00000" pt_clust_8="13000.00000" pt_clust_9="32.26808"></scales>
<clustering>
<clus scale="   32.268">  1  9  2 -1</clus>
<clus scale="   80.578">  5  6 -1 -1</clus>
<clus scale="   82.826">  1  5  2 -1</clus>
<clus scale="   91.508">  7  8 -1 -1</clus>
<clus scale="   32.268">  1  5  2 -1</clus>
</clustering>
</event>
<event>
 9    1  0.1973774E-005  0.1162526E+03  0.7546771E-02  0.1253315E+00
          1   -1    0    0  502    0  0.00000000000E+00  0.00000000000E+00  0.16446350057E+03  0.16446350057E+03  0.00000000000E+00 0. -1.
         -2   -1    0    0    0  501 -0.00000000000E+00 -0.00000000000E+00 -0.23673186337E+03  0.23673186337E+03  0.00000000000E+00 0.  1.
         23    2    1    2    0    0  0.74061931779E+02 -0.31801476332E+01 -0.17895633794E+03  0.21435450205E+03  0.91799774408E+02 0.  0.
        -24    2    1    2    0    0 -0.52615021835E+02  0.44403522506E+02  0.64081552552E+02  0.12379608552E+03  0.80492310681E+02 0.  0.
         13    1    4    4    0    0 -0.27228022620E+02  0.40478270846E+02  0.79908849593E+02  0.93623073383E+02  0.00000000000E+00 0. -1.
        -14    1    4    4    0    0 -0.25386999215E+02  0.39252516604E+01 -0.15827297041E+02  0.30173012136E+02  0.00000000000E+00 0.  1.
        -11    1    3    3    0    0  0.87953292245E+02  0.19593405253E+02 -0.12418863133E+03  0.15343565198E+03  0.00000000000E+00 0. -1.
         11    1    3    3    0    0 -0.13891360466E+02 -0.22773552886E+02 -0.54767706605E+02  0.60918850066E+02  0.00000000000E+00 0.  1.
         21    1    1    2  502  501 -0.21446909944E+02 -0.41223374873E+02  0.42606422585E+02  0.63044776370E+02  0.00000000000E+00 0.  1.
<scales pt_clust_5="13000.00000" pt_clust_6="13000.00000" pt_clust_7="13000.00000" pt_clust_8="13000.00000" pt_clust_9="46.46866"></scales>
<clustering>
<clus scale="   46.469">  1  9  2 -1</clus>
<clus scale="   80.492">  5  6 -1 -1</clus>
<clus scale="   91.800">  7  8 -1 -1</clus>
<clus scale="  107.548">  1  5  2 -1</clus>
<clus scale="   46.469">  1  5  2 -1</clus>
</clustering>
</event>
<event>
 9    1  0.1973774E-005  0.9514001E+02  0.7546771E-02  0.1300824E+00
          1   -1    0    0  502    0  0.00000000000E+00  0.00000000000E+00  0.74928620288E+03  0.74928620288E+03  0.00000000000E+00 0. -1.
         -2   -1    0    0    0  501 -0.00000000000E+00 -0.00000000000E+00 -0.35346328307E+02  0.35346328307E+02  0.00000000000E+00 0.  1.
        -24    2    1    2    0    0 -0.33947019808E+01 -0.13622935464E+02  0.34793736129E+02  0.87224690585E+02  0.78742835875E+02 0.  0.
         23    2    1    2    0    0 -0.16844117199E+02 -0.37374101995E+02  0.42124445806E+03  0.43373458755E+03  0.94859112396E+02 0.  0.
         13    1    3    3    0    0  0.20327123063E+02  0.10418197151E+02  0.46231476796E+02  0.51566270087E+02  0.00000000000E+00 0. -1.
        -14    1    3    3    0    0 -0.23721825044E+02 -0.24041132616E+02 -0.11437740668E+02  0.35658420498E+02  0.00000000000E+00 0.  1.
        -13    1    4    4    0    0 -0.51036341057E+02 -0.29895869980E+01  0.15812493932E+03  0.16618406113E+03  0.00000000000E+00 0.  1.
         13    1    4    4    0    0  0.34192223858E+02 -0.34384514997E+02  0.26311951874E+03  0.26755052642E+03  0.00000000000E+00 0. -1.
         21    1    1    2  502  501  0.20238819179E+02  0.50997037460E+02  0.25790168038E+03  0.26367325305E+03  0.00000000000E+00 0. -1.
<scales pt_clust_5="13000.00000" pt_clust_6="13000.00000" pt_clust_7="13000.00000" pt_clust_8="13000.00000" pt_clust_9="54.86627"></scales>
<clustering>
<clus scale="   54.866">  1  9  2 -1</clus>
<clus scale="   78.743">  5  6 -1 -1</clus>
<clus scale="   79.081">  2  5  1 -1</clus>
<clus scale="   94.859">  7  8 -1 -1</clus>
<clus scale="   54.866">  1  5  2 -1</clus>
</clustering>
</event>
<event>
 9    1  0.1973774E-005  0.2199983E+03  0.7546771E-02  0.1136665E+00
         -2   -1    0    0    0  501 -0.00000000000E+00  0.00000000000E+00  0.68648000731E+02  0.68648000731E+02  0.00000000000E+00 0.  1.
          1   -1    0    0  502    0  0.00000000000E+00 -0.00000000000E+00 -0.94568129336E+03  0.94568129336E+03  0.00000000000E+00 0. -1.
        -24    2    1    2    0    0 -0.93558520864E+02  0.14904968598E+03 -0.22984343374E+03  0.30058038213E+03  0.80941685000E+02 0.  0.
         23    2    1    2    0    0  0.11009829719E+03 -0.17998485409E+03 -0.41541525178E+03  0.47933471161E+03  0.11258664040E+03 0.  0.
         11    1    3    3    0    0 -0.10396740386E+03  0.14325520194E+03 -0.19309116562E+03  0.26194555196E+03  0.00000000000E+00 0. -1.
        -12    1    3    3    0    0  0.10408882995E+02  0.57944840334E+01 -0.36752268121E+02  0.38634830173E+02  0.00000000000E+00 0.  1.
        -11    1    4    4    0    0  0.12384894945E+03 -0.14752701965E+03 -0.28317997477E+03  0.34248165194E+03  0.00000000000E+00 0.  1.
         11    1    4    4    0    0 -0.13750652262E+02 -0.32457834439E+02 -0.13223527702E+03  0.13685305967E+03  0.00000000000E+00 0. -1.
         21    1    1    2  502  501 -0.16539776326E+02  0.30935168110E+02 -0.23177460710E+03  0.23441420035E+03  0.00000000000E+00 0. -1.
<scales pt_clust_5="13000.00000" pt_clust_6="13000.00000" pt_clust_7="13000.00000" pt_clust_8="13000.00000" pt_clust_9="35.07918"></scales>
<clustering>
<clus scale="   35.079">  2  9  1 -1</clus>
<clus scale="   80.942">  5  6 -1 -1</clus>
<clus scale="  112.587">  7  8 -1 -1</clus>
<clus scale="  205.609">  1  5  2 -1</clus>
<clus scale="   35.079">  2  5  1 -1</clus>
</clustering>
</event>
<event>
 9    1  0.1973774E-005  0.1087661E+03  0.7546771E-02  0.1270912E+00
         -2   -1    0    0    0  501 -0.00000000000E+00  0.00000000000E+00  0.26637358758E+02  0.26637358758E+02  0.00000000000E+00 0.  1.
          1   -1    0    0  502    0  0.00000000000E+00 -0.00000000000E+00 -0.63861847060E+03  0.63861847060E+03  0.00000000000E+00 0. -1.
        -24    2    1    2    0    0 -0.12156295716E+02  0.44892004234E+02 -0.14002419453E+03  0.16549582143E+03  0.74960151320E+02 0.  0.
         23    2    1    2    0    0 -0.13161687585E+02 -0.77696242653E+02 -0.33619180516E+03  0.35781183424E+03  0.93778690137E+02 0.  0.
         13    1    3    3    0    0  0.31535004291E+02  0.24531820969E+02 -0.60418973056E+02  0.72434239423E+02  0.00000000000E+00 0. -1.
        -14    1    3    3    0    0 -0.43691300007E+02  0.20360183265E+02 -0.79605221476E+02  0.93061582004E+02  0.00000000000E+00 0.  1.
        -13    1    4    4    0    0  0.23691789586E+02 -0.44294732891E+00 -0.22587919525E+02  0.32737000544E+02  0.00000000000E+00 0. -1.
         13    1    4    4    0    0 -0.36853477171E+02 -0.77253295324E+02 -0.31360388563E+03  0.32507483370E+03  0.00000000000E+00 0.  1.
         21    1    1    2  502  501  0.25317983300E+02  0.32804238420E+02 -0.13576511215E+03  0.14194817369E+03  0.00000000000E+00 0. -1.
<scales pt_clust_5="13000.00000" pt_clust_6="13000.00000" pt_clust_7="13000.00000" pt_clust_8="13000.00000" pt_clust_9="41.43813"></scales>
<clustering>
<clus scale="   41.438">  2  9  1 -1</clus>
<clus scale="   74.960">  5  6 -1 -1</clus>
<clus scale="   93.030">  1  5  2 -1</clus>
<clus scale="   93.779">  7  8 -1 -1</clus>
<clus scale="   41.438">  2  5  1 -1</clus>
</clustering>
</event>
<event>
 9    1  0.1973774E-005  0.1039800E+03  0.7546771E-02  0.1277757E+00
         -2   -1    0    0    0  501 -0.00000000000E+00  0.00000000000E+00  0.16478155093E+03  0.16478155093E+03  0.00000000000E+00 0.  1.
          1   -1    0    0  502    0  0.00000000000E+00 -0.00000000000E+00 -0.11822767366E+03  0.11822767366E+03  0.00000000000E+00 0. -1.
        -24    2    1    2    0    0 -0.40191101368E+02  0.18977292601E+02  0.95457382462E+02  0.13192050661E+03  0.79469780001E+02 0.  0.
         23    2    1    2    0    0  0.56776490898E+02 -0.40994556771E+02 -0.39414532013E+02  0.12193609066E+03  0.91710311680E+02 0.  0.
         13    1    3    3    0    0 -0.30892290780E+02 -0.27416720888E+02  0.29545699731E+02  0.50783447958E+02  0.00000000000E+00 0. -1.
        -14    1    3    3    0    0 -0.92988105879E+01  0.46394013488E+02  0.65911682731E+02  0.81137058650E+02  0.00000000000E+00 0.  1.
        -11    1    4    4    0    0  0.11881548242E+02  0.21887532869E+02  0.13462969395E+02  0.28310542712E+02  0.00000000000E+00 0.  1.
         11    1    4    4    0    0  0.44894942656E+02 -0.62882089641E+02 -0.52877501408E+02  0.93625547949E+02  0.00000000000E+00 0. -1.
         21    1    1    2  502  501 -0.16585389530E+02  0.22017264171E+02 -0.94889731828E+01  0.29152627317E+02  0.00000000000E+00 0.  1.
<scales pt_clust_5="13000.00000" pt_clust_6="13000.00000" pt_clust_7="13000.00000" pt_clust_8="13000.00000" pt_clust_9="27.56511"></scales>
<clustering>
<clus scale="   27.565">  2  9  1 -1</clus>
<clus scale="   79.470">  5  6 -1 -1</clus>
<clus scale="   91.710">  7  8 -1 -1</clus>
<clus scale="   93.362">  1  5  2 -1</clus>
<clus scale="   27.565">  2  5  1 -1</clus>
</clustering>
</event>
<event>
 9    1  0.1973774E-005  0.9159311E+02  0.7546771E-02  0.1305177E+00
          1   -1    0    0  502    0  0.00000000000E+00  0.00000000000E+00  0.35167799962E+03  0.35167799962E+03  0.00000000000E+00 0. -1.
         -2   -1    0    0    0  501 -0.00000000000E+00 -0.00000000000E+00 -0.42413755859E+02  0.42413755859E+02  0.00000000000E+00 0.  1.
         23    2    1    2    0    0  0.63379763994E+01 -0.28840611704E+02  0.70564286719E+02  0.11873691709E+03  0.90814019242E+02 0.  0.
        -24    2    1    2    0    0 -0.36573241452E+01 -0.90526163494E+01  0.88115225498E+02  0.12005241084E+03  0.80950370610E+02 0.  0.
         11    1    4    4    0    0  0.13168373692E+02  0.25958152010E+02  0.72612262316E+02  0.78228973917E+02  0.00000000000E+00 0. -1.
        -12    1    4    4    0    0 -0.16825697838E+02 -0.35010768360E+02  0.15502963182E+02  0.41823436926E+02  0.00000000000E+00 0.  1.
        -13    1    3    3    0    0 -0.35377243997E+02 -0.30958909864E+02  0.15247113656E+02  0.49421432270E+02  0.00000000000E+00 0.  1.
         13    1    3    3    0    0  0.41715220396E+02  0.21182981602E+01  0.55317173063E+02  0.69315484817E+02  0.00000000000E+00 0. -1.
         21    1    1    2  502  501 -0.26806522542E+01  0.37893228053E+02  0.15058473154E+03  0.15530242755E+03  0.00000000000E+00 0.  1.
<scales pt_clust_5="13000.00000" pt_clust_6="13000.00000" pt_clust_7="13000.00000" pt_clust_8="13000.00000" pt_clust_9="37.98793"></scales>
<clustering>
<clus scale="   37.988">  1  9  2 -1</clus>
<clus scale="   80.950">  5  6 -1 -1</clus>
<clus scale="   81.823">  1  5  2 -1</clus>
<clus scale="   90.814">  7  8 -1 -1</clus>
<clus scale="   37.988">  1  5  2 -1</clus>
</clustering>
</event>
<event>
 9    1  0.1973774E-005  0.1010638E+03  0.7546771E-02  0.1285234E+00
          3   -1    0    0  502    0  0.00000000000E+00  0.00000000000E+00  0.84525278731E+02  0.84525278731E+02  0.00000000000E+00 0. -1.
         -4   -1    0    0    0  501 -0.00000000000E+00 -0.00000000000E+00 -0.44962301609E+03  0.44962301609E+03  0.00000000000E+00 0.  1.
        -24    2    1    2    0    0 -0.38576777971E+02 -0.17985648466E+02 -0.35327707254E+03  0.36431903632E+03  0.78179401942E+02 0.  0.
         23    2    1    2    0    0  0.20921459391E+02  0.30102664509E+02 -0.60679198376E+02  0.11648426198E+03  0.92426945742E+02 0.  0.
         13    1    3    3    0    0 -0.55117803184E+02 -0.24969696620E+02 -0.32662787699E+03  0.33218553250E+03  0.00000000000E+00 0. -1.
        -14    1    3    3    0    0  0.16541025213E+02  0.69840481538E+01 -0.26649195557E+02  0.32133503817E+02  0.00000000000E+00 0.  1.
        -11    1    4    4    0    0  0.44839389899E+02 -0.37747429847E+01 -0.25387274388E+01  0.45069554115E+02  0.00000000000E+00 0.  1.
         11    1    4    4    0    0 -0.23917930508E+02  0.33877407494E+02 -0.58140470937E+02  0.71414707862E+02  0.00000000000E+00 0. -1.
         21    1    1    2  502  501  0.17655318580E+02 -0.12117016043E+02  0.48858533565E+02  0.53344996524E+02  0.00000000000E+00 0. -1.
<scales pt_clust_5="13000.00000" pt_clust_6="13000.00000" pt_clust_7="13000.00000" pt_clust_8="13000.00000" pt_clust_9="21.41337"></scales>
<clustering>
<clus scale="   21.413">  1  9  2 -1</clus>
<clus scale="   78.179">  5  6 -1 -1</clus>
<clus scale="   88.222">  2  5  1 -1</clus>
<clus scale="   92.427">  7  8 -1 -1</clus>
<clus scale="   21.413">  1  5  2 -1</clus>
</clustering>
</event>
<event>
 9    1  0.1973774E-005  0.1368613E+03  0.7546771E-02  0.1220099E+00
          3   -1    0    0  502    0  0.00000000000E+00  0.00000000000E+00  0.23240005833E+03  0.23240005833E+03  0.00000000000E+00 0. -1.
         -4   -1    0    0    0  501 -0.00000000000E+00 -0.00000000000E+00 -0.18819064014E+03  0.18819064014E+03  0.00000000000E+00 0.  1.
        -24    2    1    2    0    0  0.85884552968E+02 -0.54705466379E+02 -0.12839239287E+03  0.18271020364E+03  0.80805739134E+02 0.  0.
         23    2    1    2    0    0 -0.71123573666E+02  0.75324730888E+02  0.14812369978E+03  0.20263537445E+03  0.91586498610E+02 0.  0.
         13    1    3    3    0    0  0.62812598814E+02 -0.34897430890E+01 -0.10383193919E+03  0.12140293437E+03  0.00000000000E+00 0. -1.
        -14    1    3    3    0    0  0.23071954153E+02 -0.51215723290E+02 -0.24560453673E+02  0.61307269269E+02  0.00000000000E+00 0.  1.
        -13    1    4    4    0    0 -0.25355393493E+02  0.42046528562E+02  0.57589737258E+01  0.49436548440E+02  0.00000000000E+00 0.  1.
         13    1    4    4    0    0 -0.45768180172E+02  0.33278202326E+02  0.14236472605E+03  0.15319882601E+03  0.00000000000E+00 0. -1.
         21    1    1    2  502  501 -0.14760979302E+02 -0.20619264509E+02  0.24478111277E+02  0.35245120379E+02  0.00000000000E+00 0.  1.
<scales pt_clust_5="13000.00000" pt_clust_6="13000.00000" pt_clust_7="13000.00000" pt_clust_8="13000.00000" pt_clust_9="25.35824"></scales>
<clustering>
<clus scale="   25.358">  1  9  2 -1</clus>
<clus scale="   80.806">  5  6 -1 -1</clus>
<clus scale="   91.586">  7  8 -1 -1</clus>
<clus scale="  129.894">  2  5  1 -1</clus>
<clus scale="   25.358">  1  5  2 -1</clus>
</clustering>
</event>
<event>
 9    1  0.1973774E-005  0.1426855E+03  0.7546771E-02  0.1227301E+00
         -2   -1    0    0    0  501 -0.00000000000E+00  0.00000000000E+00  0.48800885857E+03  0.48800885857E+03  0.00000000000E+00 0.  1.
          1   -1    0    0  502    0  0.00000000000E+00 -0.00000000000E+00 -0.84438035048E+02  0.84438035048E+02  0.00000000000E+00 0. -1.
        -24    2    1    2    0    0  0.19679865643E+02  0.56742622223E+02  0.14489571063E+03  0.17528150783E+03  0.78242045840E+02 0.  0.
         23    2    1    2    0    0  0.87485155101E+02 -0.88634518058E+01  0.24901238061E+03  0.27939389083E+03  0.91222625462E+02 0.  0.
         11    1    3    3    0    0  0.19360358922E+02  0.46275952415E+02  0.27087734346E+02  0.57009057364E+02  0.00000000000E+00 0. -1.
        -12    1    3    3    0    0  0.31950672086E+00  0.10466669808E+02  0.11780797629E+03  0.11827245046E+03  0.00000000000E+00 0.  1.
        -13    1    4    4    0    0  0.21653823730E+00 -0.33670410782E+02  0.93152592829E+02  0.99051244322E+02  0.00000000000E+00 0. -1.
         13    1    4    4    0    0  0.87268616864E+02  0.24806958976E+02  0.15585978778E+03  0.18034264651E+03  0.00000000000E+00 0.  1.
         21    1    1    2  502  501 -0.10716502074E+03 -0.47879170417E+02  0.96627322831E+01  0.11777149496E+03  0.00000000000E+00 0. -1.
<scales pt_clust_5="13000.00000" pt_clust_6="13000.00000" pt_clust_7="13000.00000" pt_clust_8="13000.00000" pt_clust_9="109.71589"></scales>
<clustering>
<clus scale="   78.242">  5  6 -1 -1</clus>
<clus scale="   91.223">  7  8 -1 -1</clus>
<clus scale="   98.635">  1  5  2 -1</clus>
<clus scale="  109.716">  2  9  1 -1</clus>
<clus scale="  109.716">  2  5  1 -1</clus>
</clustering>
</event>
<event>
 9    1  0.1973774E-005  0.1038861E+03  0.7546771E-02  0.1278706E+00
         -2   -1    0    0    0  501 -0.00000000000E+00  0.00000000000E+00  0.13920711692E+03  0.13920711692E+03  0.00000000000E+00 0.  1.
          1   -1    0    0  502    0  0.00000000000E+00 -0.00000000000E+00 -0.48754403696E+03  0.48754403696E+03  0.00000000000E+00 0. -1.
         23    2    1    2    0    0  0.24695284426E+02 -0.45230861415E+02  0.11102375889E+03  0.15216901605E+03  0.90407115382E+02 0.  0.
        -24    2    1    2    0    0 -0.44058815931E+02  0.26984074428E+02 -0.33908863060E+03  0.35140236191E+03  0.76375395384E+02 0.  0.
         13    1    4    4    0    0 -0.63323119120E+02  0.27009854502E+02 -0.30034227291E+03  0.30813119049E+03  0.00000000000E+00 0. -1.
        -14    1    4    4    0    0  0.19264303189E+02 -0.25780073857E-01 -0.38746357692E+02  0.43271171423E+02  0.00000000000E+00 0.  1.
        -13    1    3    3    0    0 -0.23116334809E+02 -0.49922954908E+02  0.48662422229E+02  0.73448605834E+02  0.00000000000E+00 0. -1.
         13    1    3    3    0    0  0.47811619235E+02  0.46920934927E+01  0.62361336659E+02  0.78720410220E+02  0.00000000000E+00 0.  1.
         21    1    1    2  502  501  0.19363531504E+02  0.18246786987E+02 -0.12027204832E+03  0.12317977592E+03  0.00000000000E+00 0. -1.
<scales pt_clust_5="13000.00000" pt_clust_6="13000.00000" pt_clust_7="13000.00000" pt_clust_8="13000.00000" pt_clust_9="26.60623"></scales>
<clustering>
<clus scale="   26.606">  2  9  1 -1</clus>
<clus scale="   76.375">  5  6 -1 -1</clus>
<clus scale="   90.407">  7  8 -1 -1</clus>
<clus scale="   91.935">  2  5  1 -1</clus>
<clus scale="   26.606">  2  5  1 -1</clus>
</clustering>
</event>
<event>
 9    1  0.1973774E-005  0.1412812E+03  0.7546771E-02  0.1215344E+00
          1   -1    0    0  502    0  0.00000000000E+00  0.00000000000E+00  0.69667511504E+03  0.69667511504E+03  0.00000000000E+00 0. -1.
         -2   -1    0    0    0  501 -0.00000000000E+00 -0.00000000000E+00 -0.53202314230E+02  0.53202314230E+02  0.00000000000E+00 0.  1.
        -24    2    1    2    0    0 -0.73836970496E+02  0.62314211400E+02  0.96567838890E+02  0.16941614719E+03  0.10020740625E+03 0.  0.
         23    2    1    2    0    0  0.11231728509E+03 -0.30282759137E+02  0.38263259972E+03  0.40872847354E+03  0.84374407754E+02 0.  0.
         11    1    3    3    0    0 -0.71491363802E+02  0.46822513254E+02  0.15507362678E+02  0.86855288514E+02  0.00000000000E+00 0. -1.
        -12    1    3    3    0    0 -0.23456066940E+01  0.15491698146E+02  0.81060476212E+02  0.82560858680E+02  0.00000000000E+00 0.  1.
        -11    1    4    4    0    0  0.63018348876E+02 -0.24926765158E+02  0.32807768429E+03  0.33500391467E+03  0.00000000000E+00 0. -1.
         11    1    4    4    0    0  0.49298936210E+02 -0.53559939788E+01  0.54554915436E+02  0.73724558874E+02  0.00000000000E+00 0.  1.
         21    1    1    2  502  501 -0.38480314590E+02 -0.32031452264E+02  0.16427236219E+03  0.17173280853E+03  0.00000000000E+00 0. -1.
<scales pt_clust_5="13000.00000" pt_clust_6="13000.00000" pt_clust_7="13000.00000" pt_clust_8="13000.00000" pt_clust_9="50.06744"></scales>
<clustering>
<clus scale="   50.067">  1  9  2 -1</clus>
<clus scale="   84.374">  7  8 -1 -1</clus>
<clus scale="  100.207">  5  6 -1 -1</clus>
<clus scale="  130.529">  1  7  2 -1</clus>
<clus scale="   50.067">  1  5  2 -1</clus>
</clustering>
</event>
<event>
 9    1  0.1973774E-005  0.1246456E+03  0.7546771E-02  0.1238927E+00
         -2   -1    0    0    0  501 -0.00000000000E+00  0.00000000000E+00  0.22488443809E+03  0.22488443809E+03  0.00000000000E+00 0.  1.
          1   -1    0    0  502    0  0.00000000000E+00 -0.00000000000E+00 -0.18198987335E+03  0.18198987335E+03  0.00000000000E+00 0. -1.
         23    2    1    2    0    0  0.18142481491E+02 -0.94446569941E+02  0.16276389905E+03  0.20955596346E+03  0.90400833943E+02 0.  0.
        -24    2    1    2    0    0 -0.38227626175E+02  0.40871055098E+02 -0.56633414378E+02  0.11203921574E+03  0.78826694027E+02 0.  0.
         13    1    4    4    0    0 -0.62909509481E+02  0.28769631323E+02 -0.41138065734E+02  0.80483778005E+02  0.00000000000E+00 0. -1.
        -14    1    4    4    0    0  0.24681883306E+02  0.12101423776E+02 -0.15495348644E+02  0.31555437733E+02  0.00000000000E+00 0.  1.
        -13    1    3    3    0    0 -0.12156408334E+02 -0.98552311764E+02  0.13902897197E+03  0.17084903121E+03  0.00000000000E+00 0.  1.
         13    1    3    3    0    0  0.30298889825E+02  0.41057418222E+01  0.23734927078E+02  0.38706932246E+02  0.00000000000E+00 0. -1.
         21    1    1    2  502  501  0.20085144684E+02  0.53575514843E+02 -0.63235919933E+02  0.85279132251E+02  0.00000000000E+00 0. -1.
<scales pt_clust_5="13000.00000" pt_clust_6="13000.00000" pt_clust_7="13000.00000" pt_clust_8="13000.00000" pt_clust_9="57.21668"></scales>
<clustering>
<clus scale="   57.217">  2  9  1 -1</clus>
<clus scale="   78.827">  5  6 -1 -1</clus>
<clus scale="   90.401">  7  8 -1 -1</clus>
<clus scale="  116.524">  2  5  1 -1</clus>
<clus scale="   57.217">  2  5  1 -1</clus>
</clustering>
</event>
<event>
 9    1  0.1973774E-005  0.1826459E+03  0.7546771E-02  0.1166752E+00
          1   -1    0    0  502    0  0.00000000000E+00  0.00000000000E+00  0.19450548712E+04  0.19450548712E+04  0.00000000000E+00 0. -1.
         -2   -1    0    0    0  501 -0.00000000000E+00 -0.00000000000E+00 -0.21907690565E+02  0.21907690565E+02  0.00000000000E+00 0.  1.
        -24    2    1    2    0    0 -0.12820565533E+03 -0.86057754092E+02  0.79423090996E+03  0.81285249820E+03  0.77998835872E+02 0.  0.
         23    2    1    2    0    0  0.15918246902E+03  0.47850721390E+02  0.84807488320E+03  0.86899390258E+03  0.91052980348E+02 0.  0.
         11    1    3    3    0    0 -0.67742876302E+02 -0.81086958635E+02  0.60430542121E+03  0.61347309171E+03  0.00000000000E+00 0. -1.
        -12    1    3    3    0    0 -0.60462779025E+02 -0.49707954567E+01  0.18992548875E+03  0.19937940649E+03  0.00000000000E+00 0.  1.
        -11    1    4    4    0    0  0.86662403006E+02 -0.15944625698E+02  0.30829544770E+03  0.32064105516E+03  0.00000000000E+00 0.  1.
         11    1    4    4    0    0  0.72520066016E+02  0.63795347088E+02  0.53977943550E+03  0.54835284742E+03  0.00000000000E+00 0. -1.
         21    1    1    2  502  501 -0.30976813695E+02  0.38207032702E+02  0.28084138748E+03  0.28511616099E+03  0.00000000000E+00 0.  1.
<scales pt_clust_5="13000.00000" pt_clust_6="13000.00000" pt_clust_7="13000.00000" pt_clust_8="13000.00000" pt_clust_9="49.18679"></scales>
<clustering>
<clus scale="   49.187">  1  9  2 -1</clus>
<clus scale="   77.999">  5  6 -1 -1</clus>
<clus scale="   91.053">  7  8 -1 -1</clus>
<clus scale="  176.501">  2  5  1 -1</clus>
<clus scale="   49.187">  1  5  2 -1</clus>
</clustering>
</event>
<event>
 9    1  0.1973774E-005  0.1521860E+03  0.7546771E-02  0.1200072E+00
          3   -1    0    0  502    0  0.00000000000E+00  0.00000000000E+00  0.72984183535E+03  0.72984183535E+03  0.00000000000E+00 0. -1.
         -4   -1    0    0    0  501 -0.00000000000E+00 -0.00000000000E+00 -0.16266699352E+03  0.16266699352E+03  0.00000000000E+00 0.  1.
        -24    2    1    2    0    0 -0.12023671184E+03 -0.46757913315E+02 -0.10617230283E+03  0.18523986570E+03  0.79988003019E+02 0.  0.
         23    2    1    2    0    0  0.58086078884E+02  0.46718684334E+02  0.22335041790E+03  0.25300058784E+03  0.92559495727E+02 0.  0.
         11    1    3    3    0    0 -0.57791025690E+02 -0.52333256430E+02 -0.23393429626E+02  0.81399170319E+02  0.00000000000E+00 0. -1.
        -12    1    3    3    0    0 -0.62445686146E+02  0.55753431154E+01 -0.82778873204E+02  0.10384069539E+03  0.00000000000E+00 0.  1.
        -13    1    4    4    0    0  0.42922823221E+02 -0.87356173069E+01  0.34990427984E+02  0.56062552685E+02  0.00000000000E+00 0.  1.
         13    1    4    4    0    0  0.15163255662E+02  0.55454301641E+02  0.18835998991E+03  0.19693803516E+03  0.00000000000E+00 0. -1.
         21    1    1    2  502  501  0.62150632952E+02  0.39228980429E-01  0.44999672677E+03  0.45426837532E+03  0.00000000000E+00 0. -1.
<scales pt_clust_5="13000.00000" pt_clust_6="13000.00000" pt_clust_7="13000.00000" pt_clust_8="13000.00000" pt_clust_9="62.15065"></scales>
<clustering>
<clus scale="   62.151">  1  9  2 -1</clus>
<clus scale="   79.988">  5  6 -1 -1</clus>
<clus scale="   92.559">  7  8 -1 -1</clus>
<clus scale="  144.884">  2  5  1 -1</clus>
<clus scale="   62.151">  1  5  2 -1</clus>
</clustering>
</event>
<event>
 9    1  0.1973774E-005  0.1364276E+03  0.7546771E-02  0.1223382E+00
          1   -1    0    0  502    0  0.00000000000E+00  0.00000000000E+00  0.42963554080E+02  0.42963554080E+02  0.00000000000E+00 0. -1.
         -2   -1    0    0    0  501 -0.00000000000E+00 -0.00000000000E+00 -0.49786169282E+03  0.49786169282E+03  0.00000000000E+00 0.  1.
         23    2    1    2    0    0 -0.80776351508E+02 -0.20601473345E+02 -0.29305963004E+03  0.32062809573E+03  0.99845827864E+02 0.  0.
        -24    2    1    2    0    0  0.97567381451E+02  0.91410750616E+01 -0.12261440054E+03  0.17601785652E+03  0.79655768259E+02 0.  0.
         13    1    4    4    0    0  0.83175744889E+02  0.95494964897E+01 -0.41145181578E+02  0.93286244367E+02  0.00000000000E+00 0. -1.
        -14    1    4    4    0    0  0.14391636563E+02 -0.40842142810E+00 -0.81469218959E+02  0.82731612149E+02  0.00000000000E+00 0.  1.
        -13    1    3    3    0    0  0.32696817456E+01  0.25253498784E+02 -0.12170579355E+03  0.12434118466E+03  0.00000000000E+00 0.  1.
         13    1    3    3    0    0 -0.84046033254E+02 -0.45854972130E+02 -0.17135383650E+03  0.19628691107E+03  0.00000000000E+00 0. -1.
         21    1    1    2  502  501 -0.16791029943E+02  0.11460398284E+02 -0.39224108157E+02  0.44179294654E+02  0.00000000000E+00 0.  1.
<scales pt_clust_5="13000.00000" pt_clust_6="13000.00000" pt_clust_7="13000.00000" pt_clust_8="13000.00000" pt_clust_9="20.32927"></scales>
<clustering>
<clus scale="   20.329">  2  9  1 -1</clus>
<clus scale="   79.656">  5  6 -1 -1</clus>
<clus scale="   99.846">  7  8 -1 -1</clus>
<clus scale="  122.427">  1  5  2 -1</clus>
<clus scale="  122.427">  1  5  2 -1</clus>
</clustering>
</event>
<event>
 9    1  0.1973774E-005  0.1036267E+03  0.7546771E-02  0.1282468E+00
          1   -1    0    0  502    0  0.00000000000E+00  0.00000000000E+00  0.30907850130E+03  0.30907850130E+03  0.00000000000E+00 0. -1.
         -2   -1    0    0    0  501 -0.00000000000E+00 -0.00000000000E+00 -0.68872528329E+02  0.68872528329E+02  0.00000000000E+00 0.  1.
         23    2    1    2    0    0 -0.39822362243E+01 -0.46223042821E+02 -0.26627652942E+01  0.10696628373E+03  0.96344525753E+02 0.  0.
        -24    2    1    2    0    0  0.10363426690E+02  0.68697337977E+01  0.18300468709E+03  0.19906043050E+03  0.77328815061E+02 0.  0.
         13    1    4    4    0    0 -0.68881400778E+01 -0.30433080001E+02  0.11879020231E+03  0.12281991286E+03  0.00000000000E+00 0. -1.
        -14    1    4    4    0    0  0.17251566768E+02  0.37302813799E+02  0.64214484782E+02  0.76240517634E+02  0.00000000000E+00 0.  1.
        -13    1    3    3    0    0 -0.22742489359E+02 -0.62044157642E+02  0.24392244873E+02  0.70439193137E+02  0.00000000000E+00 0. -1.
         13    1    3    3    0    0  0.18760253135E+02  0.15821114822E+02 -0.27055010167E+02  0.36527090591E+02  0.00000000000E+00 0.  1.
         21    1    1    2  502  501 -0.63811904661E+01  0.39353309023E+02  0.59864051174E+02  0.71924315400E+02  0.00000000000E+00 0.  1.
<scales pt_clust_5="13000.00000" pt_clust_6="13000.00000" pt_clust_7="13000.00000" pt_clust_8="13000.00000" pt_clust_9="39.86731"></scales>
<clustering>
<clus scale="   39.867">  1  9  2 -1</clus>
<clus scale="   77.329">  5  6 -1 -1</clus>
<clus scale="   86.232">  1  5  2 -1</clus>
<clus scale="   96.345">  7  8 -1 -1</clus>
<clus scale="   39.867">  1  5  2 -1</clus>
</clustering>
</event>
<event>
 9    1  0.1973774E-005  0.1082583E+03  0.7546771E-02  0.1271250E+00
          1   -1    0    0  502    0  0.00000000000E+00  0.00000000000E+00  0.60765080480E+02  0.60765080480E+02  0.00000000000E+00 0. -1.
         -2   -1    0    0    0  501 -0.00000000000E+00 -0.00000000000E+00 -0.57583090347E+03  0.57583090347E+03  0.00000000000E+00 0.  1.
        -24    2    1    2    0    0  0.52704925351E+02 -0.82848623779E+01 -0.48164499229E+03  0.49066687156E+03  0.76978127723E+02 0.  0.
         23    2    1    2    0    0 -0.48732303164E+02  0.37545867103E+02 -0.28381579529E+02  0.11597277455E+03  0.94125665318E+02 0.  0.
         11    1    3    3    0    0  0.70828725975E+02 -0.89388548077E+01 -0.31242056071E+03  0.32047342838E+03  0.00000000000E+00 0. -1.
        -12    1    3    3    0    0 -0.18123800624E+02  0.65399242983E+00 -0.16922443158E+03  0.17019344317E+03  0.00000000000E+00 0.  1.
        -13    1    4    4    0    0 -0.65233242365E+02 -0.30971348511E+01 -0.31808846979E+01  0.65384143194E+02  0.00000000000E+00 0.  1.
         13    1    4    4    0    0  0.16500939201E+02  0.40643001954E+02 -0.25200694831E+02  0.50588631354E+02  0.00000000000E+00 0. -1.
         21    1    1    2  502  501 -0.39726221866E+01 -0.29261004725E+02 -0.50392511722E+01  0.29956337842E+02  0.00000000000E+00 0. -1.
<scales pt_clust_5="13000.00000" pt_clust_6="13000.00000" pt_clust_7="13000.00000" pt_clust_8="13000.00000" pt_clust_9="29.52945"></scales>
<clustering>
<clus scale="   29.529">  1  9  2 -1</clus>
<clus scale="   76.978">  5  6 -1 -1</clus>
<clus scale="   93.733">  2  5  1 -1</clus>
<clus scale="   94.126">  7  8 -1 -1</clus>
<clus scale="   29.529">  1  5  2 -1</clus>
</clustering>
</event>
<event>
 9    1  0.1973774E-005  0.2145338E+03  0.7546771E-02  0.1159482E+00
         -2   -1    0    0    0  501 -0.00000000000E+00  0.00000000000E+00  0.16658264123E+03  0.16658264123E+03  0.00000000000E+00 0.  1.
          1   -1    0    0  502    0  0.00000000000E+00 -0.00000000000E+00 -0.56799027933E+03  0.56799027933E+03  0.00000000000E+00 0. -1.
        -24    2    1    2    0    0 -0.15032290121E+03 -0.13488583446E+03 -0.75189193462E+01  0.21716952352E+03  0.79466375456E+02 0.  0.
         23    2    1    2    0    0  0.69351638589E+02 -0.54839005138E+02 -0.14031776077E+03  0.19052407547E+03  0.93773040309E+02 0.  0.
         13    1    3    3    0    0 -0.34821498822E+02 -0.21991347628E+02 -0.34120876491E+02  0.53482617394E+02  0.00000000000E+00 0. -1.
        -14    1    3    3    0    0 -0.11550140239E+03 -0.11289448683E+03  0.26601957145E+02  0.16368690612E+03  0.00000000000E+00 0.  1.
        -11    1    4    4    0    0  0.23439791875E+02  0.26156695469E+02 -0.30187595559E+02  0.46312930016E+02  0.00000000000E+00 0.  1.
         11    1    4    4    0    0  0.45911846713E+02 -0.80995700607E+02 -0.11013016521E+03  0.14421114546E+03  0.00000000000E+00 0. -1.
         21    1    1    2  502  501  0.80971262625E+02  0.18972483960E+03 -0.25357095799E+03  0.32687932156E+03  0.00000000000E+00 0. -1.
<scales pt_clust_5="13000.00000" pt_clust_6="13000.00000" pt_clust_7="13000.00000" pt_clust_8="13000.00000" pt_clust_9="199.27325"></scales>
<clustering>
<clus scale="   79.466">  5  6 -1 -1</clus>
<clus scale="   93.773">  7  8 -1 -1</clus>
<clus scale="  128.881">  2  7  1 -1</clus>
<clus scale="  199.273">  2  9  1 -1</clus>
<clus scale="  128.881">  2  5  1 -1</clus>
</clustering>
</event>
<event>
 9    1  0.1973774E-005  0.1168673E+03  0.7546771E-02  0.1254273E+00
          1   -1    0    0  502    0  0.00000000000E+00  0.00000000000E+00  0.87899086863E+02  0.87899086863E+02  0.00000000000E+00 0. -1.
         -2   -1    0    0    0  501 -0.00000000000E+00 -0.00000000000E+00 -0.42696974225E+03  0.42696974225E+03  0.00000000000E+00 0.  1.
         23    2    1    2    0    0  0.70498921733E+02  0.12277043291E+02 -0.34678957891E+03  0.36640308768E+03  0.94166803406E+02 0.  0.
        -24    2    1    2    0    0 -0.48591940352E+02 -0.47717484982E+02 -0.91115433303E+01  0.10353017251E+03  0.77442503565E+02 0.  0.
         13    1    4    4    0    0 -0.49577984014E+02 -0.67133386153E+02 -0.10096554831E+02  0.84064311421E+02  0.00000000000E+00 0. -1.
        -14    1    4    4    0    0  0.98604366259E+00  0.19415901170E+02  0.98501150087E+00  0.19465861091E+02  0.00000000000E+00 0.  1.
        -13    1    3    3    0    0  0.37454474192E+00 -0.30032614101E+02 -0.15460383635E+03  0.15749426785E+03  0.00000000000E+00 0.  1.
         13    1    3    3    0    0  0.70124376991E+02  0.42309657392E+02 -0.19218574256E+03  0.20890881982E+03  0.00000000000E+00 0. -1.
         21    1    1    2  502  501 -0.21906981381E+02  0.35440441691E+02  0.16830466846E+02  0.44935568927E+02  0.00000000000E+00 0. -1.
<scales pt_clust_5="13000.00000" pt_clust_6="13000.00000" pt_clust_7="13000.00000" pt_clust_8="13000.00000" pt_clust_9="41.66462"></scales>
<clustering>
<clus scale="   41.665">  1  9  2 -1</clus>
<clus scale="   77.443">  5  6 -1 -1</clus>
<clus scale="   94.167">  7  8 -1 -1</clus>
<clus scale="  103.865">  1  5  2 -1</clus>
<clus scale="   41.665">  1  5  2 -1</clus>
</clustering>
</event>
<event>
 9    1  0.1973774E-005  0.9310255E+02  0.7546771E-02  0.1300075E+00
          1   -1    0    0  502    0  0.00000000000E+00  0.00000000000E+00  0.78246899515E+02  0.78246899515E+02  0.00000000000E+00 0. -1.
         -2   -1    0    0    0  501 -0.00000000000E+00 -0.00000000000E+00 -0.16280921220E+03  0.16280921220E+03  0.00000000000E+00 0.  1.
        -24    2    1    2    0    0 -0.18633755678E+02 -0.29840908768E+02 -0.76465126749E+02  0.11706375114E+03  0.81359139224E+02 0.  0.
         23    2    1    2    0    0  0.12229606799E+02  0.58415158714E+01 -0.25322150696E+02  0.93765164318E+02  0.89258098420E+02 0.  0.
         13    1    3    3    0    0 -0.63941068926E+01  0.27517096754E+02 -0.36219149767E+02  0.45933669857E+02  0.00000000000E+00 0. -1.
        -14    1    3    3    0    0 -0.12239648785E+02 -0.57358005523E+02 -0.40245976982E+02  0.71130081282E+02  0.00000000000E+00 0.  1.
        -13    1    4    4    0    0 -0.18829101879E+02 -0.15535898852E+02 -0.45029664087E+02  0.51220795372E+02  0.00000000000E+00 0.  1.
         13    1    4    4    0    0  0.31058708678E+02  0.21377414723E+02  0.19707513391E+02  0.42544368946E+02  0.00000000000E+00 0. -1.
         21    1    1    2  502  501  0.64041488793E+01  0.23999392897E+02  0.17224964763E+02  0.30227196254E+02  0.00000000000E+00 0.  1.
<scales pt_clust_5="13000.00000" pt_clust_6="13000.00000" pt_clust_7="13000.00000" pt_clust_8="13000.00000" pt_clust_9="24.83916"></scales>
<clustering>
<clus scale="   24.839">  1  9  2 -1</clus>
<clus scale="   81.359">  5  6 -1 -1</clus>
<clus scale="   85.559">  2  5  1 -1</clus>
<clus scale="   89.258">  7  8 -1 -1</clus>
<clus scale="   24.839">  1  5  2 -1</clus>
</clustering>
</event>
<event>
 9    1  0.1973774E-005  0.1324027E+03  0.7546771E-02  0.1229035E+00
          1   -1    0    0  502    0  0.00000000000E+00  0.00000000000E+00  0.42324575798E+03  0.42324575798E+03  0.00000000000E+00 0. -1.
         -2   -1    0    0    0  501 -0.00000000000E+00 -0.00000000000E+00 -0.11338159671E+03  0.11338159671E+03  0.00000000000E+00 0.  1.
        -24    2    1    2    0    0  0.84064455367E+02  0.34220142971E+02 -0.57867820274E+02  0.13445365328E+03  0.80568290387E+02 0.  0.
         23    2    1    2    0    0 -0.49230602689E+02 -0.38707346063E+02  0.33180630696E+03  0.35193241980E+03  0.99192196700E+02 0.  0.
         13    1    3    3    0    0  0.23759113952E+02 -0.19962496453E+02  0.55504979172E+01  0.31524669508E+02  0.00000000000E+00 0. -1.
        -14    1    3    3    0    0  0.60305341415E+02  0.54182639425E+02 -0.63418318191E+02  0.10292898377E+03  0.00000000000E+00 0.  1.
        -11    1    4    4    0    0  0.23163366974E+02  0.10196340841E+02  0.40046237925E+02  0.47373073661E+02  0.00000000000E+00 0.  1.
         11    1    4    4    0    0 -0.72393969663E+02 -0.48903686904E+02  0.29176006903E+03  0.30455934614E+03  0.00000000000E+00 0. -1.
         21    1    1    2  502  501 -0.34833852677E+02  0.44872030918E+01  0.35925674589E+02  0.50241281618E+02  0.00000000000E+00 0. -1.
<scales pt_clust_5="13000.00000" pt_clust_6="13000.00000" pt_clust_7="13000.00000" pt_clust_8="13000.00000" pt_clust_9="35.12168"></scales>
<clustering>
<clus scale="   35.122">  1  9  2 -1</clus>
<clus scale="   80.568">  5  6 -1 -1</clus>
<clus scale="   99.192">  7  8 -1 -1</clus>
<clus scale="  119.091">  2  5  1 -1</clus>
<clus scale="   35.122">  1  5  2 -1</clus>
</clustering>
</event>
<event>
 9    1  0.1973774E-005  0.1055950E+03  0.7546771E-02  0.1273468E+00
         -2   -1    0    0    0  501 -0.00000000000E+00  0.00000000000E+00  0.11086713204E+03  0.11086713204E+03  0.00000000000E+00 0.  1.
          1   -1    0    0  502    0  0.00000000000E+00 -0.00000000000E+00 -0.22107258701E+03  0.22107258701E+03  0.00000000000E+00 0. -1.
         23    2    1    2    0    0 -0.39262036819E+02  0.32264037472E+02  0.55653842575E+02  0.11786900779E+03  0.90627132549E+02 0.  0.
        -24    2    1    2    0    0  0.40762917300E+02 -0.58507710475E+02 -0.11818580500E+03  0.15963042374E+03  0.80182417438E+02 0.  0.
         11    1    4    4    0    0  0.15526549534E+02 -0.63757745535E+02 -0.38956377017E+02  0.76313322339E+02  0.00000000000E+00 0. -1.
        -12    1    4    4    0    0  0.25236367766E+02  0.52500350604E+01 -0.79229427988E+02  0.83317101399E+02  0.00000000000E+00 0.  1.
        -11    1    3    3    0    0 -0.16690480976E+02 -0.12509103270E+02  0.63752938206E+02  0.67078215165E+02  0.00000000000E+00 0.  1.
         11    1    3    3    0    0 -0.22571555843E+02  0.44773140742E+02 -0.80990956308E+01  0.50790792622E+02  0.00000000000E+00 0. -1.
         21    1    1    2  502  501 -0.15008804816E+01  0.26243673003E+02 -0.47673492540E+02  0.54440287525E+02  0.00000000000E+00 0. -1.
<scales pt_clust_5="13000.00000" pt_clust_6="13000.00000" pt_clust_7="13000.00000" pt_clust_8="13000.00000" pt_clust_9="26.28656"></scales>
<clustering>
<clus scale="   26.287">  2  9  1 -1</clus>
<clus scale="   80.182">  5  6 -1 -1</clus>
<clus scale="   90.627">  7  8 -1 -1</clus>
<clus scale="   96.779">  2  5  1 -1</clus>
<clus scale="   26.287">  2  5  1 -1</clus>
</clustering>
</event>
<event>
 9    1  0.1973774E-005  0.1084285E+03  0.7546771E-02  0.1269015E+00
          1   -1    0    0  502    0  0.00000000000E+00  0.00000000000E+00  0.85566142240E+02  0.85566142240E+02  0.00000000000E+00 0. -1.
         -2   -1    0    0    0  501 -0.00000000000E+00 -0.00000000000E+00 -0.42993695250E+03  0.42993695250E+03  0.00000000000E+00 0.  1.
        -24    2    1    2    0    0  0.28925891627E+02 -0.50278227553E+02 -0.37063221302E+03  0.38355211356E+03  0.79871015465E+02 0.  0.
         23    2    1    2    0    0 -0.26183864342E+02  0.22379127407E+02  0.30157219542E+02  0.10364805040E+03  0.92989463738E+02 0.  0.
         11    1    3    3    0    0 -0.52564011563E+01 -0.56758267474E+02 -0.15536177763E+03  0.16548840633E+03  0.00000000000E+00 0. -1.
        -12    1    3    3    0    0  0.34182292783E+02  0.64800399217E+01 -0.21527043539E+03  0.21806370723E+03  0.00000000000E+00 0.  1.
        -13    1    4    4    0    0  0.29602071916E+02  0.27299231263E+02  0.25025278666E+02  0.47410919223E+02  0.00000000000E+00 0. -1.
         13    1    4    4    0    0 -0.55785936258E+02 -0.49201038563E+01  0.51319408755E+01  0.56237131179E+02  0.00000000000E+00 0.  1.
         21    1    1    2  502  501 -0.27420272848E+01  0.27899100146E+02 -0.38958167811E+01  0.28302930784E+02  0.00000000000E+00 0. -1.
<scales pt_clust_5="13000.00000" pt_clust_6="13000.00000" pt_clust_7="13000.00000" pt_clust_8="13000.00000" pt_clust_9="28.03352"></scales>
<clustering>
<clus scale="   28.034">  1  9  2 -1</clus>
<clus scale="   79.871">  5  6 -1 -1</clus>
<clus scale="   92.989">  7  8 -1 -1</clus>
<clus scale="   97.412">  2  5  1 -1</clus>
<clus scale="   28.034">  1  5  2 -1</clus>
</clustering>
</event>
<event>
 9    1  0.1973774E-005  0.1017032E+03  0.7546771E-02  0.1280444E+00
          1   -1    0    0  502    0  0.00000000000E+00  0.00000000000E+00  0.51813493018E+03  0.51813493018E+03  0.00000000000E+00 0. -1.
         -2   -1    0    0    0  501 -0.00000000000E+00 -0.00000000000E+00 -0.55578027346E+02  0.55578027346E+02  0.00000000000E+00 0.  1.
         23    2    1    2    0    0 -0.47825548295E+00 -0.16331715714E+02  0.25069705789E+02  0.96571261953E+02  0.91818107257E+02 0.  0.
        -24    2    1    2    0    0  0.44772967981E+02  0.20916297995E+02  0.41676020216E+03  0.42802297952E+03  0.84098125456E+02 0.  0.
         11    1    4    4    0    0  0.23325875600E+02  0.43025222768E+02  0.11896189283E+03  0.12863591339E+03  0.00000000000E+00 0. -1.
        -12    1    4    4    0    0  0.21447092381E+02 -0.22108924773E+02  0.29779830933E+03  0.29938706613E+03  0.00000000000E+00 0.  1.
        -13    1    3    3    0    0 -0.31680271380E+02 -0.15702447085E+02 -0.20851781679E+02  0.41048790949E+02  0.00000000000E+00 0.  1.
         13    1    3    3    0    0  0.31202015898E+02 -0.62926862905E+00  0.45921487468E+02  0.55522471003E+02  0.00000000000E+00 0. -1.
         21    1    1    2  502  501 -0.44294712498E+02 -0.45845822812E+01  0.20726994883E+02  0.49118716055E+02  0.00000000000E+00 0. -1.
<scales pt_clust_5="13000.00000" pt_clust_6="13000.00000" pt_clust_7="13000.00000" pt_clust_8="13000.00000" pt_clust_9="44.53134"></scales>
<clustering>
<clus scale="   44.531">  2  9  1 -1</clus>
<clus scale="   84.098">  5  6 -1 -1</clus>
<clus scale="   91.818">  7  8 -1 -1</clus>
<clus scale="   94.792">  1  5  2 -1</clus>
<clus scale="   94.792">  1  5  2 -1</clus>
</clustering>
</event>
<event>
 9    1  0.1973774E-005  0.6467708E+03  0.7546771E-02  0.9812858E-01
          1   -1    0    0  502    0  0.00000000000E+00  0.00000000000E+00  0.19784201039E+04  0.19784201039E+04  0.00000000000E+00 0. -1.
         -2   -1    0    0    0  501 -0.00000000000E+00 -0.00000000000E+00 -0.22280851911E+03  0.22280851911E+03  0.00000000000E+00 0.  1.
        -24    2    1    2    0    0 -0.25582052390E+02  0.96132159049E+02  0.11887446782E+03  0.17488284393E+03  0.80975530825E+02 0.  0.
         23    2    1    2    0    0 -0.82493380928E+02  0.50287775752E+03  0.42438610490E+03  0.66977357094E+03  0.93818299868E+02 0.  0.
         13    1    3    3    0    0 -0.21272189985E+02  0.40389800426E+02  0.10891424009E+03  0.11809383447E+03  0.00000000000E+00 0. -1.
        -14    1    3    3    0    0 -0.43098624049E+01  0.55742358623E+02  0.99602277309E+01  0.56789009458E+02  0.00000000000E+00 0.  1.
        -11    1    4    4    0    0 -0.70782700390E+01  0.74342656022E+02  0.23918457473E+02  0.78415719208E+02  0.00000000000E+00 0.  1.
         11    1    4    4    0    0 -0.75415110889E+02  0.42853510150E+03  0.40046764743E+03  0.59135785173E+03  0.00000000000E+00 0. -1.
         21    1    1    2  502  501  0.10807543332E+03 -0.59900991657E+03  0.12123510120E+04  0.13565722081E+04  0.00000000000E+00 0.  1.
<scales pt_clust_5="13000.00000" pt_clust_6="13000.00000" pt_clust_7="13000.00000" pt_clust_8="13000.00000" pt_clust_9="608.68151"></scales>
<clustering>
<clus scale="   80.976">  5  6 -1 -1</clus>
<clus scale="   93.818">  7  8 -1 -1</clus>
<clus scale="   94.327">  5  7 -1 -1</clus>
<clus scale="  608.682">  1  9  2 -1</clus>
<clus scale="  608.682">  1  5  2 -1</clus>
</clustering>
</event>
<event>
 9    1  0.1973774E-005  0.1075818E+03  0.7546771E-02  0.1271112E+00
         -2   -1    0    0    0  501 -0.00000000000E+00  0.00000000000E+00  0.27946440842E+03  0.27946440842E+03  0.00000000000E+00 0.  1.
          1   -1    0    0  502    0  0.00000000000E+00 -0.00000000000E+00 -0.43869276969E+03  0.43869276969E+03  0.00000000000E+00 0. -1.
         23    2    1    2    0    0 -0.33580912227E+02  0.52162580593E+02  0.24169602901E+03  0.26672433936E+03  0.94214066287E+02 0.  0.
        -24    2    1    2    0    0  0.31819140748E+01  0.23047054704E+02 -0.65467298348E+02  0.10630670404E+03  0.80460281282E+02 0.  0.
         13    1    4    4    0    0  0.26099284892E+02 -0.18430525068E+02 -0.10275712179E+02  0.33562586118E+02  0.00000000000E+00 0. -1.
        -14    1    4    4    0    0 -0.22917370817E+02  0.41477579771E+02 -0.55191586170E+02  0.72744117926E+02  0.00000000000E+00 0.  1.
        -13    1    3    3    0    0 -0.56099834832E+02  0.62996163309E+02  0.15462165376E+03  0.17613507281E+03  0.00000000000E+00 0.  1.
         13    1    3    3    0    0  0.22518922604E+02 -0.10833582716E+02  0.87074375251E+02  0.90589266556E+02  0.00000000000E+00 0. -1.
         21    1    1    2  502  501  0.30398998153E+02 -0.75209635297E+02 -0.33545709194E+03  0.34512613471E+03  0.00000000000E+00 0. -1.
<scales pt_clust_5="13000.00000" pt_clust_6="13000.00000" pt_clust_7="13000.00000" pt_clust_8="13000.00000" pt_clust_9="81.12083"></scales>
<clustering>
<clus scale="   80.460">  5  6 -1 -1</clus>
<clus scale="   81.121">  2  9  1 -1</clus>
<clus scale="   94.214">  7  8 -1 -1</clus>
<clus scale="   95.767">  2  5  1 -1</clus>
<clus scale="   81.121">  2  5  1 -1</clus>
</clustering>
</event>
<event>
 9    1  0.1973774E-005  0.1441842E+03  0.7546771E-02  0.1210183E+00
          1   -1    0    0  502    0  0.00000000000E+00  0.00000000000E+00  0.42638157473E+03  0.42638157473E+03  0.00000000000E+00 0. -1.
         -2   -1    0    0    0  501 -0.00000000000E+00 -0.00000000000E+00 -0.14525283926E+03  0.14525283926E+03  0.00000000000E+00 0.  1.
        -24    2    1    2    0    0 -0.14751913975E+02 -0.11765768519E+03 -0.71234672484E+02  0.16062224843E+03  0.81634418465E+02 0.  0.
         23    2    1    2    0    0  0.42964735159E+02  0.46418591952E+02  0.29362049777E+03  0.31446320813E+03  0.93131404009E+02 0.  0.
         13    1    3    3    0    0  0.46350480987E+01 -0.12243161397E+03 -0.52676874730E+02  0.13336355162E+03  0.00000000000E+00 0. -1.
        -14    1    3    3    0    0 -0.19386962074E+02  0.47739287793E+01 -0.18557797754E+02  0.27258696813E+02  0.00000000000E+00 0.  1.
        -13    1    4    4    0    0 -0.23687533769E+02 -0.49225743305E+01  0.10783113203E+03  0.11051191804E+03  0.00000000000E+00 0.  1.
         13    1    4    4    0    0  0.66652268927E+02  0.51341166282E+02  0.18578936573E+03  0.20395129009E+03  0.00000000000E+00 0. -1.
         21    1    1    2  502  501 -0.28212821184E+02  0.71239093236E+02  0.58742910183E+02  0.96548957431E+02  0.00000000000E+00 0. -1.
<scales pt_clust_5="13000.00000" pt_clust_6="13000.00000" pt_clust_7="13000.00000" pt_clust_8="13000.00000" pt_clust_9="76.62227"></scales>
<clustering>
<clus scale="   76.622">  1  9  2 -1</clus>
<clus scale="   81.634">  5  6 -1 -1</clus>
<clus scale="   93.131">  7  8 -1 -1</clus>
<clus scale="  137.039">  2  5  1 -1</clus>
<clus scale="   76.622">  1  5  2 -1</clus>
</clustering>
</event>
<event>
 9    1  0.1973774E-005  0.1651543E+03  0.7546771E-02  0.1191588E+00
          1   -1    0    0  502    0  0.00000000000E+00  0.00000000000E+00  0.21055783206E+03  0.21055783206E+03  0.00000000000E+00 0. -1.
         -2   -1    0    0    0  501 -0.00000000000E+00 -0.00000000000E+00 -0.36703396805E+03  0.36703396805E+03  0.00000000000E+00 0.  1.
        -24    2    1    2    0    0 -0.52498372202E+02  0.99072701690E+02 -0.30652561411E+03  0.33595225849E+03  0.79589500391E+02 0.  0.
         23    2    1    2    0    0  0.27441643451E+02 -0.93264192241E+02  0.14891488652E+03  0.21589336256E+03  0.12240525814E+03 0.  0.
         11    1    3    3    0    0  0.13867217246E+02  0.47326299082E+02 -0.76525130707E+02  0.91039408657E+02  0.00000000000E+00 0. -1.
        -12    1    3    3    0    0 -0.66365589448E+02  0.51746402608E+02 -0.23000048341E+03  0.24491284983E+03  0.00000000000E+00 0.  1.
        -11    1    4    4    0    0  0.65082040505E+02 -0.13190051709E+02  0.49617942588E+02  0.82895052247E+02  0.00000000000E+00 0.  1.
         11    1    4    4    0    0 -0.37640397054E+02 -0.80074140532E+02  0.99296943931E+02  0.13299831031E+03  0.00000000000E+00 0. -1.
         21    1    1    2  502  501  0.25056728751E+02 -0.58085094491E+01  0.11345916016E+01  0.25746179053E+02  0.00000000000E+00 0. -1.
<scales pt_clust_5="13000.00000" pt_clust_6="13000.00000" pt_clust_7="13000.00000" pt_clust_8="13000.00000" pt_clust_9="25.72117"></scales>
<clustering>
<clus scale="   25.721">  1  9  2 -1</clus>
<clus scale="   79.590">  5  6 -1 -1</clus>
<clus scale="  122.405">  7  8 -1 -1</clus>
<clus scale="  136.482">  2  5  1 -1</clus>
<clus scale="   25.721">  1  5  2 -1</clus>
</clustering>
</event>
<event>
 9    1  0.1973774E-005  0.9286209E+02  0.7546771E-02  0.1301617E+00
         -2   -1    0    0    0  501 -0.00000000000E+00  0.00000000000E+00  0.30467375260E+03  0.30467375260E+03  0.00000000000E+00 0.  1.
          1   -1    0    0  502    0  0.00000000000E+00 -0.00000000000E+00 -0.31740233039E+03  0.31740233039E+03  0.00000000000E+00 0. -1.
         23    2    1    2    0    0  0.13383444411E+02 -0.16620781110E+02  0.27075412462E+03  0.28617978897E+03  0.90198163313E+02 0.  0.
        -24    2    1    2    0    0  0.28829793562E+02  0.70897845093E+02 -0.18028839164E+03  0.21189216944E+03  0.80850020886E+02 0.  0.
         13    1    4    4    0    0  0.42610035335E+02  0.61406944918E+02 -0.77195830257E+02  0.10745056633E+03  0.00000000000E+00 0. -1.
        -14    1    4    4    0    0 -0.13780241774E+02  0.94909001752E+01 -0.10309256138E+03  0.10444160311E+03  0.00000000000E+00 0.  1.
        -11    1    3    3    0    0 -0.30166530557E+02 -0.22524283208E+02  0.19499524792E+03  0.19859634843E+03  0.00000000000E+00 0.  1.
         11    1    3    3    0    0  0.43549974968E+02  0.59035020979E+01  0.75758876704E+02  0.87583440537E+02  0.00000000000E+00 0. -1.
         21    1    1    2  502  501 -0.42213237972E+02 -0.54277063982E+02 -0.10319431077E+03  0.12400412457E+03  0.00000000000E+00 0. -1.
<scales pt_clust_5="13000.00000" pt_clust_6="13000.00000" pt_clust_7="13000.00000" pt_clust_8="13000.00000" pt_clust_9="68.76014"></scales>
<clustering>
<clus scale="   68.760">  2  9  1 -1</clus>
<clus scale="   80.850">  5  6 -1 -1</clus>
<clus scale="   83.812">  2  5  1 -1</clus>
<clus scale="   90.198">  7  8 -1 -1</clus>
<clus scale="   68.760">  2  5  1 -1</clus>
</clustering>
</event>
<event>
 9    1  0.1973774E-005  0.1585318E+03  0.7546771E-02  0.1193613E+00
         -2   -1    0    0    0  501 -0.00000000000E+00  0.00000000000E+00  0.48721641488E+02  0.48721641488E+02  0.00000000000E+00 0.  1.
          1   -1    0    0  502    0  0.00000000000E+00 -0.00000000000E+00 -0.62971540636E+03  0.62971540636E+03  0.00000000000E+00 0. -1.
         23    2    1    2    0    0 -0.62266979707E+02 -0.82452500847E+02 -0.15964727815E+03  0.21529915895E+03  0.10094990226E+03 0.  0.
        -24    2    1    2    0    0  0.78493953237E+02  0.10666951751E+03 -0.39116398288E+03  0.42117645298E+03  0.82708260674E+02 0.  0.
         11    1    4    4    0    0  0.46930093830E+02  0.75388060001E+02 -0.34827028090E+03  0.35941338575E+03  0.00000000000E+00 0. -1.
        -12    1    4    4    0    0  0.31563859407E+02  0.31281457506E+02 -0.42893701980E+02  0.61763067232E+02  0.00000000000E+00 0.  1.
        -13    1    3    3    0    0 -0.84992661988E+02 -0.66986476427E+02 -0.91141834028E+02  0.14148418472E+03  0.00000000000E+00 0.  1.
         13    1    3    3    0    0  0.22725682281E+02 -0.15466024420E+02 -0.68505444121E+02  0.73814974231E+02  0.00000000000E+00 0. -1.
         21    1    1    2  502  501 -0.16226973530E+02 -0.24217016659E+02 -0.30182503841E+02  0.41961435914E+02  0.00000000000E+00 0.  1.
<scales pt_clust_5="13000.00000" pt_clust_6="13000.00000" pt_clust_7="13000.00000" pt_clust_8="13000.00000" pt_clust_9="29.15096"></scales>
<clustering>
<clus scale="   29.151">  1  9  2 -1</clus>
<clus scale="   82.708">  5  6 -1 -1</clus>
<clus scale="  100.950">  7  8 -1 -1</clus>
<clus scale="  147.588">  2  5  1 -1</clus>
<clus scale="  147.588">  2  5  1 -1</clus>
</clustering>
</event>
<event>
 9    1  0.1973774E-005  0.1061006E+03  0.7546771E-02  0.1268796E+00
         -2   -1    0    0    0  501 -0.00000000000E+00  0.00000000000E+00  0.11330898819E+03  0.11330898819E+03  0.00000000000E+00 0.  1.
          1   -1    0    0  502    0  0.00000000000E+00 -0.00000000000E+00 -0.47708934521E+03  0.47708934521E+03  0.00000000000E+00 0. -1.
        -24    2    1    2    0    0 -0.24504250970E+02 -0.81449643416E+01  0.72006710981E+02  0.11537412085E+03  0.86367948777E+02 0.  0.
         23    2    1    2    0    0  0.45071596567E+02  0.41404771881E+02 -0.41880951897E+03  0.43239244419E+03  0.88408193385E+02 0.  0.
         13    1    3    3    0    0  0.78255056992E+01  0.34561557046E+02  0.19875496523E+02  0.40629732056E+02  0.00000000000E+00 0. -1.
        -14    1    3    3    0    0 -0.32329756669E+02 -0.42706521388E+02  0.52131214458E+02  0.74744388794E+02  0.00000000000E+00 0.  1.
        -11    1    4    4    0    0 -0.83435077125E+01  0.52255273024E+02 -0.19686913004E+03  0.20385701372E+03  0.00000000000E+00 0.  1.
         11    1    4    4    0    0  0.53415104279E+02 -0.10850501143E+02 -0.22194038893E+03  0.22853543047E+03  0.00000000000E+00 0. -1.
         21    1    1    2  502  501 -0.20567345597E+02 -0.33259807540E+02 -0.16977549031E+02  0.42631768361E+02  0.00000000000E+00 0.  1.
<scales pt_clust_5="13000.00000" pt_clust_6="13000.00000" pt_clust_7="13000.00000" pt_clust_8="13000.00000" pt_clust_9="39.10538"></scales>
<clustering>
<clus scale="   39.105">  1  9  2 -1</clus>
<clus scale="   86.368">  5  6 -1 -1</clus>
<clus scale="   88.408">  7  8 -1 -1</clus>
<clus scale="  104.407">  1  5  2 -1</clus>
<clus scale="  106.101">  2  5  1 -1</clus>
</clustering>
</event>
<event>
 9    1  0.1973774E-005  0.1974221E+03  0.7546771E-02  0.1169537E+00
          1   -1    0    0  502    0  0.00000000000E+00  0.00000000000E+00  0.38918038913E+03  0.38918038913E+03  0.00000000000E+00 0. -1.
         -2   -1    0    0    0  501 -0.00000000000E+00 -0.00000000000E+00 -0.21732704248E+03  0.21732704248E+03  0.00000000000E+00 0.  1.
         23    2    1    2    0    0  0.20036082204E+03  0.50854576261E+02 -0.41240788288E+02  0.22989051436E+03  0.91750744081E+02 0.  0.
        -24    2    1    2    0    0 -0.52344753366E+02 -0.90681189042E+02  0.17501456128E+03  0.21867715151E+03  0.78908482950E+02 0.  0.
         13    1    4    4    0    0 -0.38899210404E+02 -0.56050545480E+02  0.16738095112E+03  0.18075174969E+03  0.00000000000E+00 0. -1.
        -14    1    4    4    0    0 -0.13445542962E+02 -0.34630643562E+02  0.76336101612E+01  0.37925401819E+02  0.00000000000E+00 0.  1.
        -11    1    3    3    0    0  0.14801913842E+03 -0.69266899574E+01 -0.28336394317E+02  0.15086615132E+03  0.00000000000E+00 0.  1.
         11    1    3    3    0    0  0.52341683625E+02  0.57781266218E+02 -0.12904393971E+02  0.79024363042E+02  0.00000000000E+00 0. -1.
         21    1    1    2  502  501 -0.14801606868E+03  0.39826612781E+02  0.38079573650E+02  0.15793976574E+03  0.00000000000E+00 0. -1.
<scales pt_clust_5="13000.00000" pt_clust_6="13000.00000" pt_clust_7="13000.00000" pt_clust_8="13000.00000" pt_clust_9="174.80643"></scales>
<clustering>
<clus scale="   78.908">  5  6 -1 -1</clus>
<clus scale="   91.751">  7  8 -1 -1</clus>
<clus scale="  131.109">  1  5  2 -1</clus>
<clus scale="  174.806">  1  9  2 -1</clus>
<clus scale="  131.109">  1  5  2 -1</clus>
</clustering>
</event>
<event>
 9    1  0.1973774E-005  0.1153665E+03  0.7546771E-02  0.1253743E+00
          1   -1    0    0  502    0  0.00000000000E+00  0.00000000000E+00  0.39370500778E+03  0.39370500778E+03  0.00000000000E+00 0. -1.
         -2   -1    0    0    0  501 -0.00000000000E+00 -0.00000000000E+00 -0.59408393850E+02  0.59408393850E+02  0.00000000000E+00 0.  1.
         23    2    1    2    0    0 -0.66484475380E+02  0.15366074745E+02  0.33158497708E+02  0.11672939481E+03  0.88712817122E+02 0.  0.
        -24    2    1    2    0    0  0.86584822840E+02 -0.32306915921E+02  0.23082879924E+03  0.26132125892E+03  0.80412669682E+02 0.  0.
         13    1    4    4    0    0  0.62615063999E+02  0.17639186745E+02  0.14808705246E+03  0.16174536239E+03  0.00000000000E+00 0. -1.
        -14    1    4    4    0    0  0.23969758841E+02 -0.49946102666E+02  0.82741746776E+02  0.99575896531E+02  0.00000000000E+00 0.  1.
        -11    1    3    3    0    0 -0.64103073220E+02 -0.91120665710E+01 -0.11486604170E+02  0.65758465834E+02  0.00000000000E+00 0.  1.
         11    1    3    3    0    0 -0.23814021602E+01  0.24478141316E+02  0.44645101878E+02  0.50970928972E+02  0.00000000000E+00 0. -1.
         21    1    1    2  502  501 -0.20100347460E+02  0.16940841176E+02  0.70309316980E+02  0.75062747897E+02  0.00000000000E+00 0.  1.
<scales pt_clust_5="13000.00000" pt_clust_6="13000.00000" pt_clust_7="13000.00000" pt_clust_8="13000.00000" pt_clust_9="26.28718"></scales>
<clustering>
<clus scale="   26.287">  1  9  2 -1</clus>
<clus scale="   80.413">  5  6 -1 -1</clus>
<clus scale="   88.713">  7  8 -1 -1</clus>
<clus scale="  109.113">  1  5  2 -1</clus>
<clus scale="   26.287">  1  5  2 -1</clus>
</clustering>
</event>
<event>
 9    1  0.1973774E-005  0.1902679E+03  0.7546771E-02  0.1180635E+00
         -2   -1    0    0    0  501 -0.00000000000E+00  0.00000000000E+00  0.28625267018E+03  0.28625267018E+03  0.00000000000E+00 0.  1.
          1   -1    0    0  502    0  0.00000000000E+00 -0.00000000000E+00 -0.13919487184E+04  0.13919487184E+04  0.00000000000E+00 0. -1.
         23    2    1    2    0    0 -0.68493866970E+02 -0.54558738601E+01 -0.75557302943E+02  0.13666795592E+03  0.90818763341E+02 0.  0.
        -24    2    1    2    0    0 -0.56120478586E+02 -0.11491646083E+03  0.22676859574E+03  0.27274097604E+03  0.81291714917E+02 0.  0.
         11    1    4    4    0    0 -0.38570004891E+02 -0.16437960334E+02  0.28585797571E+02  0.50744454278E+02  0.00000000000E+00 0. -1.
        -12    1    4    4    0    0 -0.17550473695E+02 -0.98478500497E+02  0.19818279817E+03  0.22199652177E+03  0.00000000000E+00 0.  1.
        -13    1    3    3    0    0  0.31993541458E+01 -0.23459978163E+02  0.81070612519E+01  0.25026603535E+02  0.00000000000E+00 0.  1.
         13    1    3    3    0    0 -0.71693221116E+02  0.18004104303E+02 -0.83664364195E+02  0.11164135238E+03  0.00000000000E+00 0. -1.
         21    1    1    2  502  501  0.12461434556E+03  0.12037233469E+03 -0.12569073410E+04  0.12687924566E+04  0.00000000000E+00 0. -1.
<scales pt_clust_5="13000.00000" pt_clust_6="13000.00000" pt_clust_7="13000.00000" pt_clust_8="13000.00000" pt_clust_9="172.02769"></scales>
<clustering>
<clus scale="   81.292">  5  6 -1 -1</clus>
<clus scale="   90.819">  7  8 -1 -1</clus>
<clus scale="  113.883">  1  7  2 -1</clus>
<clus scale="  172.028">  2  9  1 -1</clus>
<clus scale="  172.028">  2  5  1 -1</clus>
</clustering>
</event>
<event>
 9    1  0.1973774E-005  0.1775056E+03  0.7546771E-02  0.1185265E+00
         -4   -1    0    0    0  501 -0.00000000000E+00  0.00000000000E+00  0.13610479918E+03  0.13610479918E+03  0.00000000000E+00 0.  1.
          3   -1    0    0  502    0  0.00000000000E+00 -0.00000000000E+00 -0.50333621871E+03  0.50333621871E+03  0.00000000000E+00 0. -1.
         23    2    1    2    0    0  0.76020643091E+02  0.49325799407E+02  0.97729181767E+01  0.12683398274E+03  0.88199640507E+02 0.  0.
        -24    2    1    2    0    0 -0.58740583062E+02 -0.18121354577E+03 -0.27783557712E+03  0.34669313822E+03  0.81943388437E+02 0.  0.
         11    1    4    4    0    0 -0.61769783840E+02 -0.17094536709E+03 -0.28175171132E+03  0.33529367957E+03  0.00000000000E+00 0. -1.
        -12    1    4    4    0    0  0.30292007773E+01 -0.10268178675E+02  0.39161341965E+01  0.11399458658E+02  0.00000000000E+00 0.  1.
        -13    1    3    3    0    0  0.73129190362E+02  0.71508558918E+02 -0.34622141097E+00  0.10228133921E+03  0.00000000000E+00 0.  1.
         13    1    3    3    0    0  0.28914527291E+01 -0.22182759511E+02  0.10119139588E+02  0.24552643532E+02  0.00000000000E+00 0. -1.
         21    1    1    2  502  501 -0.17280060029E+02  0.13188774636E+03 -0.99168760591E+02  0.16591389692E+03  0.00000000000E+00 0.  1.
<scales pt_clust_5="13000.00000" pt_clust_6="13000.00000" pt_clust_7="13000.00000" pt_clust_8="13000.00000" pt_clust_9="157.45953"></scales>
<clustering>
<clus scale="   81.943">  5  6 -1 -1</clus>
<clus scale="   88.200">  7  8 -1 -1</clus>
<clus scale="  126.457">  1  7  2 -1</clus>
<clus scale="  157.460">  1  9  2 -1</clus>
<clus scale="  177.506">  2  5  1 -1</clus>
</clustering>
</event>
<event>
 9    1  0.1973774E-005  0.9868932E+02  0.7546771E-02  0.1287037E+00
         -4   -1    0    0    0  501 -0.00000000000E+00  0.00000000000E+00  0.90011913142E+02  0.90011913142E+02  0.00000000000E+00 0.  1.
          3   -1    0    0  502    0  0.00000000000E+00 -0.00000000000E+00 -0.38954895047E+03  0.38954895047E+03  0.00000000000E+00 0. -1.
         23    2    1    2    0    0  0.31555985242E+02 -0.16268703222E+02  0.49378999017E+02  0.10989489647E+03  0.91532244687E+02 0.  0.
        -24    2    1    2    0    0 -0.52458118258E+02  0.89989614511E+01 -0.29928041855E+03  0.31532037979E+03  0.83817286451E+02 0.  0.
         13    1    4    4    0    0 -0.47523879343E+02 -0.11683645907E+02 -0.28620450922E+03  0.29035848152E+03  0.00000000000E+00 0. -1.
        -14    1    4    4    0    0 -0.49342389160E+01  0.20682607358E+02 -0.13075909323E+02  0.24961898274E+02  0.00000000000E+00 0.  1.
        -13    1    3    3    0    0  0.24638097555E+02 -0.49153016028E+02  0.52658334369E+02  0.76131169794E+02  0.00000000000E+00 0.  1.
         13    1    3    3    0    0  0.69178876869E+01  0.32884312806E+02 -0.32793353513E+01  0.33763726677E+02  0.00000000000E+00 0. -1.
         21    1    1    2  502  501  0.20902133017E+02  0.72697417705E+01 -0.49635617795E+02  0.54345587346E+02  0.00000000000E+00 0. -1.
<scales pt_clust_5="13000.00000" pt_clust_6="13000.00000" pt_clust_7="13000.00000" pt_clust_8="13000.00000" pt_clust_9="22.13026"></scales>
<clustering>
<clus scale="   22.130">  2  9  1 -1</clus>
<clus scale="   83.817">  5  6 -1 -1</clus>
<clus scale="   91.532">  7  8 -1 -1</clus>
<clus scale="   91.579">  2  5  1 -1</clus>
<clus scale="   22.130">  2  5  1 -1</clus>
</clustering>
</event>
<event>
 9    1  0.1973774E-005  0.1076135E+03  0.7546771E-02  0.1271669E+00
          1   -1    0    0  502    0  0.00000000000E+00  0.00000000000E+00  0.71959553413E+02  0.71959553413E+02  0.00000000000E+00 0. -1.
         -2   -1    0    0    0  501 -0.00000000000E+00 -0.00000000000E+00 -0.35998486345E+03  0.35998486345E+03  0.00000000000E+00 0.  1.
         23    2    1    2    0    0  0.29603189002E+02  0.52896528573E+02 -0.28000538138E+03  0.30008180131E+03  0.89284278233E+02 0.  0.
        -24    2    1    2    0    0 -0.18569242305E+01 -0.63687658047E+02 -0.21207177942E+02  0.99301792049E+02  0.73154190262E+02 0.  0.
         11    1    4    4    0    0  0.17521689862E+02 -0.25307046965E+02  0.22395725248E+02  0.38066057730E+02  0.00000000000E+00 0. -1.
        -12    1    4    4    0    0 -0.19378614092E+02 -0.38380611082E+02 -0.43602903189E+02  0.61235734320E+02  0.00000000000E+00 0.  1.
        -13    1    3    3    0    0 -0.17413207012E+02  0.56977452554E+02 -0.13424726253E+03  0.14687401872E+03  0.00000000000E+00 0.  1.
         13    1    3    3    0    0  0.47016396014E+02 -0.40809239809E+01 -0.14575811885E+03  0.15320778259E+03  0.00000000000E+00 0. -1.
         21    1    1    2  502  501 -0.27746264772E+02  0.10791129474E+02  0.13187249281E+02  0.32560823511E+02  0.00000000000E+00 0.  1.
<scales pt_clust_5="13000.00000" pt_clust_6="13000.00000" pt_clust_7="13000.00000" pt_clust_8="13000.00000" pt_clust_9="29.77085"></scales>
<clustering>
<clus scale="   29.771">  1  9  2 -1</clus>
<clus scale="   73.154">  5  6 -1 -1</clus>
<clus scale="   89.284">  7  8 -1 -1</clus>
<clus scale="   94.660">  1  5  2 -1</clus>
<clus scale="   29.771">  1  5  2 -1</clus>
</clustering>
</event>
<event>
 9    1  0.1973774E-005  0.9858930E+02  0.7546771E-02  0.1290297E+00
          1   -1    0    0  502    0  0.00000000000E+00  0.00000000000E+00  0.61193972134E+03  0.61193972134E+03  0.00000000000E+00 0. -1.
         -2   -1    0    0    0  501 -0.00000000000E+00 -0.00000000000E+00 -0.27692933838E+02  0.27692933838E+02  0.00000000000E+00 0.  1.
        -24    2    1    2    0    0  0.19844293256E+02 -0.44422461822E+02  0.14414059668E+03  0.17081005263E+03  0.77668599687E+02 0.  0.
         23    2    1    2    0    0 -0.41529974611E+02 -0.33461062229E+01  0.20768160598E+03  0.23055113446E+03  0.91028791708E+02 0.  0.
         11    1    3    3    0    0  0.39135687679E+02  0.77978173969E+00  0.87265143215E+02  0.95642121108E+02  0.00000000000E+00 0. -1.
        -12    1    3    3    0    0 -0.19291394423E+02 -0.45202243562E+02  0.56875453470E+02  0.75167931521E+02  0.00000000000E+00 0.  1.
        -11    1    4    4    0    0  0.27062818818E+02 -0.71142665984E+00  0.31882188554E+02  0.41825545271E+02  0.00000000000E+00 0.  1.
         11    1    4    4    0    0 -0.68592793429E+02 -0.26346795630E+01  0.17579941742E+03  0.18872558918E+03  0.00000000000E+00 0. -1.
         21    1    1    2  502  501  0.21685681355E+02  0.47768568045E+02  0.23242458484E+03  0.23827146809E+03  0.00000000000E+00 0. -1.
<scales pt_clust_5="13000.00000" pt_clust_6="13000.00000" pt_clust_7="13000.00000" pt_clust_8="13000.00000" pt_clust_9="52.46051"></scales>
<clustering>
<clus scale="   52.461">  1  9  2 -1</clus>
<clus scale="   77.669">  5  6 -1 -1</clus>
<clus scale="   86.406">  2  5  1 -1</clus>
<clus scale="   91.029">  7  8 -1 -1</clus>
<clus scale="   52.461">  1  5  2 -1</clus>
</clustering>
</event>
<event>
 9    1  0.1973774E-005  0.9609328E+02  0.7546771E-02  0.1305051E+00
          1   -1    0    0  502    0  0.00000000000E+00  0.00000000000E+00  0.24405363138E+03  0.24405363138E+03  0.00000000000E+00 0. -1.
         -2   -1    0    0    0  501 -0.00000000000E+00 -0.00000000000E+00 -0.94731484618E+02  0.94731484618E+02  0.00000000000E+00 0.  1.
        -24    2    1    2    0    0  0.13636729071E+02  0.10118150160E+02 -0.51145477850E+02  0.83834023728E+02  0.64217959230E+02 0.  0.
         23    2    1    2    0    0  0.25435896267E+02 -0.25596930666E+02  0.18642095573E+03  0.21063888624E+03  0.91179931906E+02 0.  0.
         11    1    3    3    0    0  0.26831633674E+02 -0.12219925958E+02 -0.36417550985E+01  0.29707331355E+02  0.00000000000E+00 0. -1.
        -12    1    3    3    0    0 -0.13194904603E+02  0.22338076118E+02 -0.47503722751E+02  0.54126692374E+02  0.00000000000E+00 0.  1.
        -13    1    4    4    0    0 -0.34178224955E+02 -0.12287306894E+02  0.58033524797E+02  0.68461806668E+02  0.00000000000E+00 0.  1.
         13    1    4    4    0    0  0.59614121222E+02 -0.13309623773E+02  0.12838743093E+03  0.14217707957E+03  0.00000000000E+00 0. -1.
         21    1    1    2  502  501 -0.39072625338E+02  0.15478780507E+02  0.14046668884E+02  0.44312206033E+02  0.00000000000E+00 0.  1.
<scales pt_clust_5="13000.00000" pt_clust_6="13000.00000" pt_clust_7="13000.00000" pt_clust_8="13000.00000" pt_clust_9="42.02693"></scales>
<clustering>
<clus scale="   42.027">  2  9  1 -1</clus>
<clus scale="   64.218">  5  6 -1 -1</clus>
<clus scale="   71.022">  2  5  1 -1</clus>
<clus scale="   91.180">  7  8 -1 -1</clus>
<clus scale="   96.093">  1  5  2 -1</clus>
</clustering>
</event>
<event>
 9    1  0.1973774E-005  0.9176515E+02  0.7546771E-02  0.1303147E+00
         -2   -1    0    0    0  501 -0.00000000000E+00  0.00000000000E+00  0.24745318412E+03  0.24745318412E+03  0.00000000000E+00 0.  1.
          1   -1    0    0  502    0  0.00000000000E+00 -0.00000000000E+00 -0.14396762932E+03  0.14396762932E+03  0.00000000000E+00 0. -1.
        -24    2    1    2    0    0 -0.10840184681E+01  0.57717410145E+01  0.21237864542E+03  0.22857745705E+03  0.84311782998E+02 0.  0.
         23    2    1    2    0    0  0.13268311607E+02  0.15707034789E+02 -0.98354845393E+02  0.13599471729E+03  0.91641303369E+02 0.  0.
         13    1    3    3    0    0 -0.26193216211E+02  0.23917758585E+02  0.40104065477E+02  0.53539516425E+02  0.00000000000E+00 0. -1.
        -14    1    3    3    0    0  0.25109197743E+02 -0.18146017571E+02  0.17227457994E+03  0.17503794063E+03  0.00000000000E+00 0.  1.
        -11    1    4    4    0    0  0.47693695144E+02  0.30193541857E+02 -0.62566224655E+02  0.84266665972E+02  0.00000000000E+00 0.  1.
         11    1    4    4    0    0 -0.34425383536E+02 -0.14486507068E+02 -0.35788620738E+02  0.51728051316E+02  0.00000000000E+00 0. -1.
         21    1    1    2  502  501 -0.12184293139E+02 -0.21478775804E+02 -0.10538245229E+02  0.26848639106E+02  0.00000000000E+00 0. -1.
<scales pt_clust_5="13000.00000" pt_clust_6="13000.00000" pt_clust_7="13000.00000" pt_clust_8="13000.00000" pt_clust_9="24.69402"></scales>
<clustering>
<clus scale="   24.694">  2  9  1 -1</clus>
<clus scale="   84.312">  5  6 -1 -1</clus>
<clus scale="   84.446">  1  5  2 -1</clus>
<clus scale="   91.641">  7  8 -1 -1</clus>
<clus scale="   24.694">  2  5  1 -1</clus>
</clustering>
</event>
<event>
 9    1  0.1973774E-005  0.9849757E+02  0.7546771E-02  0.1288370E+00
          1   -1    0    0  502    0  0.00000000000E+00  0.00000000000E+00  0.28186982796E+03  0.28186982796E+03  0.00000000000E+00 0. -1.
         -2   -1    0    0    0  501 -0.00000000000E+00 -0.00000000000E+00 -0.90250786706E+02  0.90250786706E+02  0.00000000000E+00 0.  1.
         23    2    1    2    0    0  0.25598566506E+02  0.41417480531E+02 -0.71167179007E+01  0.10316650343E+03  0.90675164496E+02 0.  0.
        -24    2    1    2    0    0 -0.30749462877E+02 -0.87117840660E+01  0.23139443170E+02  0.90263707175E+02  0.81182993009E+02 0.  0.
         13    1    4    4    0    0 -0.16447912634E+02 -0.32111296004E+02  0.43201199377E+02  0.56285102724E+02  0.00000000000E+00 0. -1.
        -14    1    4    4    0    0 -0.14301550243E+02  0.23399511938E+02 -0.20061756208E+02  0.33978604451E+02  0.00000000000E+00 0.  1.
        -11    1    3    3    0    0  0.78518818312E+01  0.32141520633E+02 -0.47618454165E+02  0.57984882288E+02  0.00000000000E+00 0.  1.
         11    1    3    3    0    0  0.17746684675E+02  0.92759598979E+01  0.40501736264E+02  0.45181621146E+02  0.00000000000E+00 0. -1.
         21    1    1    2  502  501  0.51508963710E+01 -0.32705696465E+02  0.17559631599E+03  0.17869040406E+03  0.00000000000E+00 0. -1.
<scales pt_clust_5="13000.00000" pt_clust_6="13000.00000" pt_clust_7="13000.00000" pt_clust_8="13000.00000" pt_clust_9="33.10883"></scales>
<clustering>
<clus scale="   33.109">  1  9  2 -1</clus>
<clus scale="   81.183">  5  6 -1 -1</clus>
<clus scale="   89.836">  1  5  2 -1</clus>
<clus scale="   90.675">  7  8 -1 -1</clus>
<clus scale="   33.109">  1  5  2 -1</clus>
</clustering>
</event>
<event>
 9    1  0.1973774E-005  0.9957032E+02  0.7546771E-02  0.1288638E+00
         -4   -1    0    0    0  501 -0.00000000000E+00  0.00000000000E+00  0.51221614550E+02  0.51221614550E+02  0.00000000000E+00 0.  1.
          3   -1    0    0  502    0  0.00000000000E+00 -0.00000000000E+00 -0.38799467833E+03  0.38799467833E+03  0.00000000000E+00 0. -1.
         23    2    1    2    0    0 -0.22409502908E+02 -0.24180056862E+02 -0.29510895304E+02  0.10191467648E+03  0.91808754320E+02 0.  0.
        -24    2    1    2    0    0  0.15355621398E+02  0.62116315912E+02 -0.22719304524E+03  0.24841977635E+03  0.77469178810E+02 0.  0.
         11    1    4    4    0    0  0.49946843595E+01  0.52439955618E+02 -0.22820595544E+03  0.23420686138E+03  0.00000000000E+00 0. -1.
        -12    1    4    4    0    0  0.10360937038E+02  0.96763602945E+01  0.10129102053E+01  0.14212914970E+02  0.00000000000E+00 0.  1.
        -13    1    3    3    0    0  0.20081868538E+02 -0.42198476076E+02 -0.30402531801E+02  0.55752190693E+02  0.00000000000E+00 0.  1.
         13    1    3    3    0    0 -0.42491371446E+02  0.18018419214E+02  0.89163649679E+00  0.46162485786E+02  0.00000000000E+00 0. -1.
         21    1    1    2  502  501  0.70538815103E+01 -0.37936259050E+02 -0.80069123238E+02  0.88881840053E+02  0.00000000000E+00 0.  1.
<scales pt_clust_5="13000.00000" pt_clust_6="13000.00000" pt_clust_7="13000.00000" pt_clust_8="13000.00000" pt_clust_9="38.58649"></scales>
<clustering>
<clus scale="   38.586">  2  9  1 -1</clus>
<clus scale="   77.469">  5  6 -1 -1</clus>
<clus scale="   86.527">  2  5  1 -1</clus>
<clus scale="   91.809">  7  8 -1 -1</clus>
<clus scale="   38.586">  2  5  1 -1</clus>
</clustering>
</event>
<event>
 9    1  0.1973774E-005  0.1366231E+03  0.7546771E-02  0.1220298E+00
          3   -1    0    0  502    0  0.00000000000E+00  0.00000000000E+00  0.35189029949E+03  0.35189029949E+03  0.00000000000E+00 0. -1.
         -4   -1    0    0    0  501 -0.00000000000E+00 -0.00000000000E+00 -0.24031859258E+03  0.24031859258E+03  0.00000000000E+00 0.  1.
         23    2    1    2    0    0  0.95894090085E+01 -0.10424719641E+03 -0.19856811605E+03  0.24183871083E+03  0.89984613245E+02 0.  0.
        -24    2    1    2    0    0 -0.40072015121E+02  0.80460071877E+02  0.19600184150E+03  0.22986086466E+03  0.79622268680E+02 0.  0.
         11    1    4    4    0    0 -0.42635678652E+02  0.51752824162E+02  0.18851166592E+03  0.20008199342E+03  0.00000000000E+00 0. -1.
        -12    1    4    4    0    0  0.25636635313E+01  0.28707247715E+02  0.74901755745E+01  0.29778871238E+02  0.00000000000E+00 0.  1.
        -13    1    3    3    0    0 -0.15976393629E+01 -0.72032070397E+02 -0.19459577279E+03  0.20750587077E+03  0.00000000000E+00 0.  1.
         13    1    3    3    0    0  0.11187048371E+02 -0.32215126016E+02 -0.39723432562E+01  0.34332840058E+02  0.00000000000E+00 0. -1.
         21    1    1    2  502  501  0.30482606112E+02  0.23787124536E+02  0.11413798146E+03  0.12050931658E+03  0.00000000000E+00 0. -1.
<scales pt_clust_5="13000.00000" pt_clust_6="13000.00000" pt_clust_7="13000.00000" pt_clust_8="13000.00000" pt_clust_9="38.66544"></scales>
<clustering>
<clus scale="   38.665">  1  9  2 -1</clus>
<clus scale="   79.622">  5  6 -1 -1</clus>
<clus scale="   89.985">  7  8 -1 -1</clus>
<clus scale="  130.032">  1  5  2 -1</clus>
<clus scale="   38.665">  1  5  2 -1</clus>
</clustering>
</event>
<event>
 9    1  0.1973774E-005  0.1142198E+03  0.7546771E-02  0.1258182E+00
         -2   -1    0    0    0  501 -0.00000000000E+00  0.00000000000E+00  0.39048050441E+02  0.39048050441E+02  0.00000000000E+00 0.  1.
          1   -1    0    0  502    0  0.00000000000E+00 -0.00000000000E+00 -0.60288070863E+03  0.60288070863E+03  0.00000000000E+00 0. -1.
         23    2    1    2    0    0 -0.93521560426E+02  0.36466339638E+01 -0.20747097876E+03  0.24587035186E+03  0.92997003657E+02 0.  0.
        -24    2    1    2    0    0  0.56138083586E+02 -0.90188556855E+01 -0.34219545287E+03  0.35572148763E+03  0.78785941687E+02 0.  0.
         11    1    4    4    0    0  0.27638239850E+02  0.33277722141E+02 -0.20085538482E+03  0.20546085930E+03  0.00000000000E+00 0. -1.
        -12    1    4    4    0    0  0.28499843736E+02 -0.42296577826E+02 -0.14134006806E+03  0.15026062833E+03  0.00000000000E+00 0.  1.
        -11    1    3    3    0    0 -0.65956786649E+02  0.33739045659E+02 -0.68034834164E+02  0.10058508620E+03  0.00000000000E+00 0.  1.
         11    1    3    3    0    0 -0.27564773778E+02 -0.30092411695E+02 -0.13943614460E+03  0.14528526565E+03  0.00000000000E+00 0. -1.
         21    1    1    2  502  501  0.37383476840E+02  0.53722217216E+01 -0.14166226553E+02  0.40336919585E+02  0.00000000000E+00 0.  1.
<scales pt_clust_5="13000.00000" pt_clust_6="13000.00000" pt_clust_7="13000.00000" pt_clust_8="13000.00000" pt_clust_9="37.76751"></scales>
<clustering>
<clus scale="   37.768">  1  9  2 -1</clus>
<clus scale="   78.786">  5  6 -1 -1</clus>
<clus scale="   92.997">  7  8 -1 -1</clus>
<clus scale="  102.980">  2  5  1 -1</clus>
<clus scale="  102.980">  2  5  1 -1</clus>
</clustering>
</event>
<event>
 9    1  0.1973774E-005  0.1265676E+03  0.7546771E-02  0.1239551E+00
          3   -1    0    0  502    0  0.00000000000E+00  0.00000000000E+00  0.46576159935E+02  0.46576159935E+02  0.00000000000E+00 0. -1.
         -4   -1    0    0    0  501 -0.00000000000E+00 -0.00000000000E+00 -0.92159195460E+03  0.92159195460E+03  0.00000000000E+00 0.  1.
         23    2    1    2    0    0  0.66030577651E+02  0.11457335576E+02 -0.57089274664E+03  0.58339179473E+03  0.99680240064E+02 0.  0.
        -24    2    1    2    0    0  0.51360185270E+02 -0.56099051464E+02 -0.13345136841E+03  0.17287470056E+03  0.79318485607E+02 0.  0.
         13    1    4    4    0    0  0.15741465228E+01 -0.39563537092E+02 -0.13298052030E+02  0.41768284526E+02  0.00000000000E+00 0. -1.
        -14    1    4    4    0    0  0.49786038747E+02 -0.16535514373E+02 -0.12015331638E+03  0.13110641604E+03  0.00000000000E+00 0.  1.
        -13    1    3    3    0    0 -0.44677743318E+01  0.41319177841E+02 -0.15303428287E+03  0.15857719634E+03  0.00000000000E+00 0. -1.
         13    1    3    3    0    0  0.70498351982E+02 -0.29861842265E+02 -0.41785846377E+03  0.42481459839E+03  0.00000000000E+00 0.  1.
         21    1    1    2  502  501 -0.11739076292E+03  0.44641715888E+02 -0.17067167961E+03  0.21190161924E+03  0.00000000000E+00 0. -1.
<scales pt_clust_5="13000.00000" pt_clust_6="13000.00000" pt_clust_7="13000.00000" pt_clust_8="13000.00000" pt_clust_9="77.99484"></scales>
<clustering>
<clus scale="   79.318">  5  6 -1 -1</clus>
<clus scale="   99.680">  7  8 -1 -1</clus>
<clus scale="  109.893">  1  5  2 -1</clus>
<clus scale="   77.995">  1  9  2 -1</clus>
<clus scale="  109.893">  1  5  2 -1</clus>
</clustering>
</event>
<event>
 9    1  0.1973774E-005  0.1422562E+03  0.7546771E-02  0.1212428E+00
          1   -1    0    0  502    0  0.00000000000E+00  0.00000000000E+00  0.35865962528E+03  0.35865962528E+03  0.00000000000E+00 0. -1.
         -2   -1    0    0    0  501 -0.00000000000E+00 -0.00000000000E+00 -0.16363441282E+03  0.16363441282E+03  0.00000000000E+00 0.  1.
         23    2    1    2    0    0 -0.23067797873E+02 -0.10582824827E+03 -0.10285985768E+03  0.17468422625E+03  0.90568687452E+02 0.  0.
        -24    2    1    2    0    0  0.89103671363E+01  0.12230897471E+03  0.28910923497E+03  0.32417772974E+03  0.80424938781E+02 0.  0.
         13    1    4    4    0    0  0.28754340184E+02  0.11960148355E+03  0.26902717125E+03  0.29581572950E+03  0.00000000000E+00 0. -1.
        -14    1    4    4    0    0 -0.19843973048E+02  0.27074911659E+01  0.20082063719E+02  0.28362000246E+02  0.00000000000E+00 0.  1.
        -13    1    3    3    0    0  0.13142250419E+02 -0.92394417192E+02 -0.98706760336E+02  0.13583987489E+03  0.00000000000E+00 0.  1.
         13    1    3    3    0    0 -0.36210048292E+02 -0.13433831074E+02 -0.41530973473E+01  0.38844351355E+02  0.00000000000E+00 0. -1.
         21    1    1    2  502  501  0.14157430737E+02 -0.16480726449E+02  0.87758351683E+01  0.23432082115E+02  0.00000000000E+00 0.  1.
<scales pt_clust_5="13000.00000" pt_clust_6="13000.00000" pt_clust_7="13000.00000" pt_clust_8="13000.00000" pt_clust_9="21.72665"></scales>
<clustering>
<clus scale="   21.727">  1  9  2 -1</clus>
<clus scale="   80.425">  5  6 -1 -1</clus>
<clus scale="   90.569">  7  8 -1 -1</clus>
<clus scale="  136.023">  1  5  2 -1</clus>
<clus scale="   21.727">  1  5  2 -1</clus>
</clustering>
</event>
<event>
 9    1  0.1973774E-005  0.1124609E+03  0.7546771E-02  0.1258406E+00
          1   -1    0    0  502    0  0.00000000000E+00  0.00000000000E+00  0.37615375391E+03  0.37615375391E+03  0.00000000000E+00 0. -1.
         -2   -1    0    0    0  501 -0.00000000000E+00 -0.00000000000E+00 -0.37159633714E+03  0.37159633714E+03  0.00000000000E+00 0.  1.
         23    2    1    2    0    0  0.52297176996E+02 -0.50920663873E+02 -0.27533482848E+03  0.29914143732E+03  0.91369705127E+02 0.  0.
        -24    2    1    2    0    0 -0.59943519119E+02 -0.26563360726E+01 -0.49163361586E+02  0.11513218701E+03  0.85077040127E+02 0.  0.
         11    1    4    4    0    0 -0.29405427806E+02  0.10173932183E+02  0.21002600369E+02  0.37540608716E+02  0.00000000000E+00 0. -1.
        -12    1    4    4    0    0 -0.30538091313E+02 -0.12830268256E+02 -0.70165961955E+02  0.77591578291E+02  0.00000000000E+00 0.  1.
        -13    1    3    3    0    0  0.15532156728E+02 -0.52477661205E+02 -0.24619055154E+03  0.25220019922E+03  0.00000000000E+00 0.  1.
         13    1    3    3    0    0  0.36765020267E+02  0.15569973320E+01 -0.29144276943E+02  0.46941238101E+02  0.00000000000E+00 0. -1.
         21    1    1    2  502  501  0.76463421233E+01  0.53576999946E+02  0.32905560684E+03  0.33347646673E+03  0.00000000000E+00 0. -1.
<scales pt_clust_5="13000.00000" pt_clust_6="13000.00000" pt_clust_7="13000.00000" pt_clust_8="13000.00000" pt_clust_9="54.11988"></scales>
<clustering>
<clus scale="   54.120">  1  9  2 -1</clus>
<clus scale="   85.077">  5  6 -1 -1</clus>
<clus scale="   91.370">  7  8 -1 -1</clus>
<clus scale="  107.411">  1  5  2 -1</clus>
<clus scale="   54.120">  1  5  2 -1</clus>
</clustering>
</event>
<event>
 9    1  0.1973774E-005  0.9567679E+02  0.7546771E-02  0.1294895E+00
          1   -1    0    0  502    0  0.00000000000E+00  0.00000000000E+00  0.58674640038E+03  0.58674640038E+03  0.00000000000E+00 0. -1.
         -2   -1    0    0    0  501 -0.00000000000E+00 -0.00000000000E+00 -0.67718604850E+02  0.67718604850E+02  0.00000000000E+00 0.  1.
         23    2    1    2    0    0 -0.38308371503E+02  0.41675694507E+01 -0.21893442813E+02  0.99728937400E+02  0.89340014296E+02 0.  0.
        -24    2    1    2    0    0  0.22337623502E+01 -0.70664298793E+01  0.27687205892E+03  0.28821824484E+03  0.79728887630E+02 0.  0.
         11    1    4    4    0    0  0.88893021274E+01  0.35700093692E+02  0.12645628117E+03  0.13169930686E+03  0.00000000000E+00 0. -1.
        -12    1    4    4    0    0 -0.66555397772E+01 -0.42766523571E+02  0.15041577776E+03  0.15651893798E+03  0.00000000000E+00 0.  1.
        -11    1    3    3    0    0 -0.25997771648E+02 -0.16674767600E+02  0.29631354950E+02  0.42801275697E+02  0.00000000000E+00 0. -1.
         11    1    3    3    0    0 -0.12310599855E+02  0.20842337050E+02 -0.51524797763E+02  0.56927661703E+02  0.00000000000E+00 0.  1.
         21    1    1    2  502  501  0.36074609153E+02  0.28988604286E+01  0.26404917942E+03  0.26651782298E+03  0.00000000000E+00 0. -1.
<scales pt_clust_5="13000.00000" pt_clust_6="13000.00000" pt_clust_7="13000.00000" pt_clust_8="13000.00000" pt_clust_9="36.19089"></scales>
<clustering>
<clus scale="   36.191">  1  9  2 -1</clus>
<clus scale="   79.729">  5  6 -1 -1</clus>
<clus scale="   86.770">  1  5  2 -1</clus>
<clus scale="   89.340">  7  8 -1 -1</clus>
<clus scale="   36.191">  1  5  2 -1</clus>
</clustering>
</event>
<event>
 9    1  0.1973774E-005  0.9968662E+02  0.7546771E-02  0.1286525E+00
          1   -1    0    0  502    0  0.00000000000E+00  0.00000000000E+00  0.31936520960E+03  0.31936520960E+03  0.00000000000E+00 0. -1.
         -2   -1    0    0    0  501 -0.00000000000E+00 -0.00000000000E+00 -0.13182189764E+03  0.13182189764E+03  0.00000000000E+00 0.  1.
         23    2    1    2    0    0 -0.21952901567E+02  0.35094828045E+02 -0.94847979226E+02  0.13723477101E+03  0.90131383927E+02 0.  0.
        -24    2    1    2    0    0  0.55433943370E+02 -0.26980956080E+02  0.18110404746E+03  0.20696672588E+03  0.78966167100E+02 0.  0.
         11    1    4    4    0    0  0.48985426473E+02 -0.13159220967E+02  0.18449663353E+03  0.19134195798E+03  0.00000000000E+00 0. -1.
        -12    1    4    4    0    0  0.64485168964E+01 -0.13821735113E+02 -0.33925860615E+01  0.15624767898E+02  0.00000000000E+00 0.  1.
        -11    1    3    3    0    0 -0.63302437068E+01 -0.27543127666E+02 -0.53690368931E+02  0.60674142622E+02  0.00000000000E+00 0.  1.
         11    1    3    3    0    0 -0.15622657861E+02  0.62637955711E+02 -0.41157610296E+02  0.76560628390E+02  0.00000000000E+00 0. -1.
         21    1    1    2  502  501 -0.33481041802E+02 -0.81138719652E+01  0.10128724372E+03  0.10698561034E+03  0.00000000000E+00 0.  1.
<scales pt_clust_5="13000.00000" pt_clust_6="13000.00000" pt_clust_7="13000.00000" pt_clust_8="13000.00000" pt_clust_9="34.45018"></scales>
<clustering>
<clus scale="   34.450">  1  9  2 -1</clus>
<clus scale="   78.966">  5  6 -1 -1</clus>
<clus scale="   89.719">  1  5  2 -1</clus>
<clus scale="   90.131">  7  8 -1 -1</clus>
<clus scale="   34.450">  1  5  2 -1</clus>
</clustering>
</event>
<event>
 9    1  0.1973774E-005  0.8215716E+02  0.7546771E-02  0.1324535E+00
         -2   -1    0    0    0  501 -0.00000000000E+00  0.00000000000E+00  0.69196134257E+02  0.69196134257E+02  0.00000000000E+00 0.  1.
          1   -1    0    0  502    0  0.00000000000E+00 -0.00000000000E+00 -0.31702819723E+03  0.31702819723E+03  0.00000000000E+00 0. -1.
        -24    2    1    2    0    0 -0.16907956749E+02 -0.96191754471E+00  0.27013312827E+02  0.86780309155E+02  0.80711205544E+02 0.  0.
         23    2    1    2    0    0  0.14332275839E+01 -0.22368621159E+02 -0.24621182611E+03  0.25939828040E+03  0.78516209820E+02 0.  0.
         13    1    3    3    0    0  0.28544305605E+02  0.17290289858E+02  0.13213794898E+02  0.35893396070E+02  0.00000000000E+00 0. -1.
        -14    1    3    3    0    0 -0.45452262354E+02 -0.18252207402E+02  0.13799517929E+02  0.50886913084E+02  0.00000000000E+00 0.  1.
        -13    1    4    4    0    0 -0.19240303000E+00 -0.50898796727E+02 -0.12724531942E+03  0.13704778670E+03  0.00000000000E+00 0.  1.
         13    1    4    4    0    0  0.16256306139E+01  0.28530175568E+02 -0.11896650670E+03  0.12235049370E+03  0.00000000000E+00 0. -1.
         21    1    1    2  502  501  0.15474729165E+02  0.23330538704E+02 -0.28633549686E+02  0.40045741928E+02  0.00000000000E+00 0. -1.
<scales pt_clust_5="13000.00000" pt_clust_6="13000.00000" pt_clust_7="13000.00000" pt_clust_8="13000.00000" pt_clust_9="27.99609"></scales>
<clustering>
<clus scale="   27.996">  2  9  1 -1</clus>
<clus scale="   78.516">  7  8 -1 -1</clus>
<clus scale="   80.002">  2  7  1 -1</clus>
<clus scale="   80.711">  5  6 -1 -1</clus>
<clus scale="   27.996">  2  5  1 -1</clus>
</clustering>
</event>
<event>
 9    1  0.1973774E-005  0.1469868E+03  0.7546771E-02  0.1205538E+00
          1   -1    0    0  502    0  0.00000000000E+00  0.00000000000E+00  0.22710057967E+03  0.22710057967E+03  0.00000000000E+00 0. -1.
         -2   -1    0    0    0  501 -0.00000000000E+00 -0.00000000000E+00 -0.15803330225E+03  0.15803330225E+03  0.00000000000E+00 0.  1.
         23    2    1    2    0    0 -0.18591530858E+02 -0.11303287831E+03 -0.67423210993E+02  0.15923096411E+03  0.87672880366E+02 0.  0.
        -24    2    1    2    0    0  0.41731736128E+02  0.12326058344E+03  0.10558119816E+03  0.18595971719E+03  0.80615865572E+02 0.  0.
         11    1    4    4    0    0  0.37696986782E+02  0.90444527342E+01  0.28250082743E+02  0.47968032195E+02  0.00000000000E+00 0. -1.
        -12    1    4    4    0    0  0.40347493465E+01  0.11421613071E+03  0.77331115419E+02  0.13799168500E+03  0.00000000000E+00 0.  1.
        -11    1    3    3    0    0 -0.45790811924E+02 -0.33812408718E+02 -0.44891596877E+02  0.72493674966E+02  0.00000000000E+00 0. -1.
         11    1    3    3    0    0  0.27199281066E+02 -0.79220469596E+02 -0.22531614117E+02  0.86737289145E+02  0.00000000000E+00 0.  1.
         21    1    1    2  502  501 -0.23140205271E+02 -0.10227705129E+02  0.30909290244E+02  0.39943200617E+02  0.00000000000E+00 0. -1.
<scales pt_clust_5="13000.00000" pt_clust_6="13000.00000" pt_clust_7="13000.00000" pt_clust_8="13000.00000" pt_clust_9="25.29970"></scales>
<clustering>
<clus scale="   25.300">  1  9  2 -1</clus>
<clus scale="   80.616">  5  6 -1 -1</clus>
<clus scale="   87.673">  7  8 -1 -1</clus>
<clus scale="  142.890">  1  5  2 -1</clus>
<clus scale="   25.300">  1  5  2 -1</clus>
</clustering>
</event>
<event>
 9    1  0.1973774E-005  0.9133004E+02  0.7546771E-02  0.1307688E+00
          1   -1    0    0  502    0  0.00000000000E+00  0.00000000000E+00  0.12829863002E+03  0.12829863002E+03  0.00000000000E+00 0. -1.
         -2   -1    0    0    0  501 -0.00000000000E+00 -0.00000000000E+00 -0.83714597286E+03  0.83714597286E+03  0.00000000000E+00 0.  1.
        -24    2    1    2    0    0 -0.68682452992E+01  0.28178329982E+01 -0.75840178875E+03  0.76247253547E+03  0.78332504020E+02 0.  0.
         23    2    1    2    0    0  0.16146479423E+02 -0.44918954588E+02 -0.34664450116E+02  0.10836016269E+03  0.90894881473E+02 0.  0.
         11    1    3    3    0    0 -0.34490733705E+02 -0.10951083940E+02 -0.20203173428E+03  0.20524706723E+03  0.00000000000E+00 0. -1.
        -12    1    3    3    0    0  0.27622488406E+02  0.13768916938E+02 -0.55637005447E+03  0.55722546824E+03  0.00000000000E+00 0.  1.
        -13    1    4    4    0    0  0.53514964142E+02 -0.33819977119E+02 -0.25936843866E+02  0.68413172044E+02  0.00000000000E+00 0.  1.
         13    1    4    4    0    0 -0.37368484719E+02 -0.11098977469E+02 -0.87276062505E+01  0.39946990649E+02  0.00000000000E+00 0. -1.
         21    1    1    2  502  501 -0.92782341237E+01  0.42101121590E+02  0.84218896025E+02  0.94611904723E+02  0.00000000000E+00 0. -1.
<scales pt_clust_5="13000.00000" pt_clust_6="13000.00000" pt_clust_7="13000.00000" pt_clust_8="13000.00000" pt_clust_9="43.11137"></scales>
<clustering>
<clus scale="   43.111">  1  9  2 -1</clus>
<clus scale="   78.333">  5  6 -1 -1</clus>
<clus scale="   78.837">  2  5  1 -1</clus>
<clus scale="   90.895">  7  8 -1 -1</clus>
<clus scale="   43.111">  1  5  2 -1</clus>
</clustering>
</event>
<event>
 9    1  0.1973774E-005  0.9417189E+02  0.7546771E-02  0.1299000E+00
          1   -1    0    0  502    0  0.00000000000E+00  0.00000000000E+00  0.12256350240E+03  0.12256350240E+03  0.00000000000E+00 0. -1.
         -2   -1    0    0    0  501 -0.00000000000E+00 -0.00000000000E+00 -0.22062135473E+03  0.22062135473E+03  0.00000000000E+00 0.  1.
        -24    2    1    2    0    0  0.20753924101E+02  0.12749295165E+02 -0.16617002799E+03  0.18584390798E+03  0.79575184800E+02 0.  0.
         23    2    1    2    0    0 -0.43560306584E+02 -0.28948679286E+02  0.26775916881E+02  0.10742865188E+03  0.89935750279E+02 0.  0.
         11    1    3    3    0    0 -0.17037139216E+02  0.33083426821E+02 -0.10264105304E+03  0.10917858312E+03  0.00000000000E+00 0. -1.
        -12    1    3    3    0    0  0.37791063318E+02 -0.20334131656E+02 -0.63528974959E+02  0.76665324862E+02  0.00000000000E+00 0.  1.
        -13    1    4    4    0    0 -0.21272318056E+02 -0.46414059336E+02  0.49506928435E+02  0.71117595450E+02  0.00000000000E+00 0. -1.
         13    1    4    4    0    0 -0.22287988529E+02  0.17465380050E+02 -0.22731011554E+02  0.36311056432E+02  0.00000000000E+00 0.  1.
         21    1    1    2  502  501  0.22806382483E+02  0.16199384122E+02  0.41336258789E+02  0.49912297268E+02  0.00000000000E+00 0.  1.
<scales pt_clust_5="13000.00000" pt_clust_6="13000.00000" pt_clust_7="13000.00000" pt_clust_8="13000.00000" pt_clust_9="27.97412"></scales>
<clustering>
<clus scale="   27.974">  1  9  2 -1</clus>
<clus scale="   79.575">  5  6 -1 -1</clus>
<clus scale="   84.333">  2  5  1 -1</clus>
<clus scale="   89.936">  7  8 -1 -1</clus>
<clus scale="   27.974">  1  5  2 -1</clus>
</clustering>
</event>
<event>
 9    1  0.1973774E-005  0.1056472E+03  0.7546771E-02  0.1279689E+00
          1   -1    0    0  502    0  0.00000000000E+00  0.00000000000E+00  0.45991073105E+03  0.45991073105E+03  0.00000000000E+00 0. -1.
         -2   -1    0    0    0  501 -0.00000000000E+00 -0.00000000000E+00 -0.62866407779E+02  0.62866407779E+02  0.00000000000E+00 0.  1.
        -24    2    1    2    0    0 -0.40954500322E+01 -0.20025449841E+02 -0.29060917914E+01  0.85851874244E+02  0.83332512199E+02 0.  0.
         23    2    1    2    0    0  0.57003719440E+02 -0.20551861520E+01  0.25810392653E+03  0.28393093212E+03  0.10366045294E+03 0.  0.
         13    1    3    3    0    0 -0.28934001753E+02 -0.24001968728E+02 -0.30575251462E+02  0.48457372630E+02  0.00000000000E+00 0. -1.
        -14    1    3    3    0    0  0.24838551721E+02  0.39765188871E+01  0.27669159670E+02  0.37394501614E+02  0.00000000000E+00 0.  1.
        -13    1    4    4    0    0  0.26472237493E+02 -0.36311747709E+02  0.21923734051E+03  0.22379529453E+03  0.00000000000E+00 0.  1.
         13    1    4    4    0    0  0.30531481948E+02  0.34256561557E+02  0.38866586023E+02  0.60135637593E+02  0.00000000000E+00 0. -1.
         21    1    1    2  502  501 -0.52908269408E+02  0.22080635993E+02  0.14184648853E+03  0.15299433246E+03  0.00000000000E+00 0. -1.
<scales pt_clust_5="13000.00000" pt_clust_6="13000.00000" pt_clust_7="13000.00000" pt_clust_8="13000.00000" pt_clust_9="57.33096"></scales>
<clustering>
<clus scale="   57.331">  1  9  2 -1</clus>
<clus scale="   83.333">  5  6 -1 -1</clus>
<clus scale="   85.791">  2  5  1 -1</clus>
<clus scale="  103.660">  7  8 -1 -1</clus>
<clus scale="   57.331">  1  5  2 -1</clus>
</clustering>
</event>
<event>
 9    1  0.1973774E-005  0.8780222E+02  0.7546771E-02  0.1308417E+00
         -2   -1    0    0    0  501 -0.00000000000E+00  0.00000000000E+00  0.12394151603E+03  0.12394151603E+03  0.00000000000E+00 0.  1.
          1   -1    0    0  502    0  0.00000000000E+00 -0.00000000000E+00 -0.32523678155E+03  0.32523678155E+03  0.00000000000E+00 0. -1.
         23    2    1    2    0    0  0.35234833618E+02 -0.40487327267E+02  0.66578238694E+02  0.11769051448E+03  0.80855909880E+02 0.  0.
        -24    2    1    2    0    0  0.25946064928E+02 -0.11952092760E+02 -0.50674336291E+02  0.99823211643E+02  0.81121725929E+02 0.  0.
         13    1    4    4    0    0  0.39971615472E+02  0.18627506487E+02 -0.49310182801E+02  0.66152915047E+02  0.00000000000E+00 0. -1.
        -14    1    4    4    0    0 -0.14025550544E+02 -0.30579599247E+02 -0.13641534909E+01  0.33670296597E+02  0.00000000000E+00 0.  1.
        -11    1    3    3    0    0 -0.20444901551E+02  0.20065192429E+01  0.35602527377E+02  0.41104258594E+02  0.00000000000E+00 0.  1.
         11    1    3    3    0    0  0.55679735169E+02 -0.42493846510E+02  0.30975711316E+02  0.76586255890E+02  0.00000000000E+00 0. -1.
         21    1    1    2  502  501 -0.61180898546E+02  0.52439420028E+02 -0.21719916792E+03  0.23166457145E+03  0.00000000000E+00 0. -1.
<scales pt_clust_5="13000.00000" pt_clust_6="13000.00000" pt_clust_7="13000.00000" pt_clust_8="13000.00000" pt_clust_9="80.57912"></scales>
<clustering>
<clus scale="   80.579">  2  9  1 -1</clus>
<clus scale="   80.856">  7  8 -1 -1</clus>
<clus scale="   81.122">  5  6 -1 -1</clus>
<clus scale="   87.557">  1  7  2 -1</clus>
<clus scale="   80.579">  2  5  1 -1</clus>
</clustering>
</event>
<event>
 9    1  0.1973774E-005  0.1497982E+03  0.7546771E-02  0.1202264E+00
         -2   -1    0    0    0  501 -0.00000000000E+00  0.00000000000E+00  0.86254461366E+02  0.86254461366E+02  0.00000000000E+00 0.  1.
          1   -1    0    0  502    0  0.00000000000E+00 -0.00000000000E+00 -0.63846537646E+03  0.63846537646E+03  0.00000000000E+00 0. -1.
        -24    2    1    2    0    0  0.11691215609E+03  0.25474515039E+02 -0.51356669391E+01  0.14476921932E+03  0.81328645808E+02 0.  0.
         23    2    1    2    0    0 -0.11065511095E+03 -0.57919922578E+02 -0.38606199061E+03  0.41558175226E+03  0.89805685842E+02 0.  0.
         11    1    3    3    0    0  0.67848578297E+02  0.36521227028E+02 -0.36747438262E+02  0.85367463470E+02  0.00000000000E+00 0. -1.
        -12    1    3    3    0    0  0.49063577797E+02 -0.11046711989E+02  0.31611771323E+02  0.59401755851E+02  0.00000000000E+00 0.  1.
        -11    1    4    4    0    0 -0.71052477826E+02 -0.68540421426E+02 -0.33939203006E+03  0.35345890007E+03  0.00000000000E+00 0. -1.
         11    1    4    4    0    0 -0.39602633126E+02  0.10620498848E+02 -0.46669960552E+02  0.62122852190E+02  0.00000000000E+00 0.  1.
         21    1    1    2  502  501 -0.62570451420E+01  0.32445407539E+02 -0.16101325754E+03  0.16436886624E+03  0.00000000000E+00 0.  1.
<scales pt_clust_5="13000.00000" pt_clust_6="13000.00000" pt_clust_7="13000.00000" pt_clust_8="13000.00000" pt_clust_9="33.04323"></scales>
<clustering>
<clus scale="   33.043">  2  9  1 -1</clus>
<clus scale="   81.329">  5  6 -1 -1</clus>
<clus scale="   89.806">  7  8 -1 -1</clus>
<clus scale="  144.875">  1  5  2 -1</clus>
<clus scale="   33.043">  2  5  1 -1</clus>
</clustering>
</event>
<event>
 9    1  0.1973774E-005  0.1172767E+03  0.7546771E-02  0.1261178E+00
         -2   -1    0    0    0  501 -0.00000000000E+00  0.00000000000E+00  0.33834781999E+03  0.33834781999E+03  0.00000000000E+00 0.  1.
          1   -1    0    0  502    0  0.00000000000E+00 -0.00000000000E+00 -0.13938464426E+03  0.13938464426E+03  0.00000000000E+00 0. -1.
        -24    2    1    2    0    0 -0.40579915579E+02 -0.72886363381E+02  0.23772966996E+03  0.26459548450E+03  0.80846910391E+02 0.  0.
         23    2    1    2    0    0 -0.12495801070E+02 -0.70277513383E+01  0.30582972563E+02  0.94761957164E+02  0.88537991741E+02 0.  0.
         11    1    3    3    0    0 -0.34258256629E+02  0.76387750563E+01  0.80946124872E+02  0.88228420384E+02  0.00000000000E+00 0. -1.
        -12    1    3    3    0    0 -0.63216589493E+01 -0.80525138438E+02  0.15678354509E+03  0.17636706411E+03  0.00000000000E+00 0.  1.
        -13    1    4    4    0    0 -0.31029619768E+02 -0.39647247474E+02  0.26853110951E+02  0.57059890492E+02  0.00000000000E+00 0.  1.
         13    1    4    4    0    0  0.18533818698E+02  0.32619496136E+02  0.37298616116E+01  0.37702066672E+02  0.00000000000E+00 0. -1.
         21    1    1    2  502  501  0.53075716649E+02  0.79914114720E+02 -0.69349466788E+02  0.11837502259E+03  0.00000000000E+00 0. -1.
<scales pt_clust_5="13000.00000" pt_clust_6="13000.00000" pt_clust_7="13000.00000" pt_clust_8="13000.00000" pt_clust_9="84.95645"></scales>
<clustering>
<clus scale="   80.847">  5  6 -1 -1</clus>
<clus scale="   88.538">  7  8 -1 -1</clus>
<clus scale="   89.691">  2  7  1 -1</clus>
<clus scale="   84.956">  2  9  1 -1</clus>
<clus scale="   89.691">  2  5  1 -1</clus>
</clustering>
</event>
<event>
 9    1  0.1973774E-005  0.9777524E+02  0.7546771E-02  0.1292229E+00
         -4   -1    0    0    0  501 -0.00000000000E+00  0.00000000000E+00  0.39397374797E+02  0.39397374797E+02  0.00000000000E+00 0.  1.
          3   -1    0    0  502    0  0.00000000000E+00 -0.00000000000E+00 -0.48903481106E+03  0.48903481106E+03  0.00000000000E+00 0. -1.
         23    2    1    2    0    0 -0.21724986208E+02  0.83421857395E+01 -0.62295825266E+02  0.11298985746E+03  0.91347528450E+02 0.  0.
        -24    2    1    2    0    0  0.54833535726E+02 -0.32395603959E+02 -0.20289708914E+03  0.22651238207E+03  0.78002811814E+02 0.  0.
         13    1    4    4    0    0  0.29960435661E+02 -0.57413537004E+02 -0.11856123858E+03  0.13509518581E+03  0.00000000000E+00 0. -1.
        -14    1    4    4    0    0  0.24873100065E+02  0.25017933045E+02 -0.84335850566E+02  0.91417196257E+02  0.00000000000E+00 0.  1.
        -13    1    3    3    0    0 -0.22745354440E+02 -0.25382267023E+02 -0.70465351053E+02  0.78275004483E+02  0.00000000000E+00 0. -1.
         13    1    3    3    0    0  0.10203682316E+01  0.33724452763E+02  0.81695257865E+01  0.34714852974E+02  0.00000000000E+00 0.  1.
         21    1    1    2  502  501 -0.33108549518E+02  0.24053418220E+02 -0.18444452185E+03  0.18892994633E+03  0.00000000000E+00 0.  1.
<scales pt_clust_5="13000.00000" pt_clust_6="13000.00000" pt_clust_7="13000.00000" pt_clust_8="13000.00000" pt_clust_9="40.92362"></scales>
<clustering>
<clus scale="   40.924">  2  9  1 -1</clus>
<clus scale="   78.003">  5  6 -1 -1</clus>
<clus scale="   85.440">  2  5  1 -1</clus>
<clus scale="   91.348">  7  8 -1 -1</clus>
<clus scale="   40.924">  2  5  1 -1</clus>
</clustering>
</event>
<event>
 9    1  0.1973774E-005  0.1365946E+03  0.7546771E-02  0.1223013E+00
          1   -1    0    0  502    0  0.00000000000E+00  0.00000000000E+00  0.43151600322E+03  0.43151600322E+03  0.00000000000E+00 0. -1.
         -2   -1    0    0    0  501 -0.00000000000E+00 -0.00000000000E+00 -0.16139840080E+03  0.16139840080E+03  0.00000000000E+00 0.  1.
         23    2    1    2    0    0  0.92394201033E+02 -0.20202053279E+01 -0.11046600763E+03  0.17485517504E+03  0.99150510763E+02 0.  0.
        -24    2    1    2    0    0 -0.10993331062E+03  0.27660284947E+02  0.33915327082E+03  0.36627595893E+03  0.79263565614E+02 0.  0.
         11    1    4    4    0    0 -0.11762208636E+03  0.12622564215E+02  0.31744965908E+03  0.33877510295E+03  0.00000000000E+00 0. -1.
        -12    1    4    4    0    0  0.76887757379E+01  0.15037720732E+02  0.21703611740E+02  0.27500855982E+02  0.00000000000E+00 0.  1.
        -13    1    3    3    0    0  0.47035316840E+02  0.30675131877E+02 -0.10448905616E+03  0.11862228966E+03  0.00000000000E+00 0.  1.
         13    1    3    3    0    0  0.45358884193E+02 -0.32695337205E+02 -0.59769514664E+01  0.56232885388E+02  0.00000000000E+00 0. -1.
         21    1    1    2  502  501  0.17539109587E+02 -0.25640079619E+02  0.41430339227E+02  0.51783270044E+02  0.00000000000E+00 0.  1.
<scales pt_clust_5="13000.00000" pt_clust_6="13000.00000" pt_clust_7="13000.00000" pt_clust_8="13000.00000" pt_clust_9="31.06500"></scales>
<clustering>
<clus scale="   31.065">  1  9  2 -1</clus>
<clus scale="   79.264">  5  6 -1 -1</clus>
<clus scale="   99.151">  7  8 -1 -1</clus>
<clus scale="  122.923">  1  5  2 -1</clus>
<clus scale="   31.065">  1  5  2 -1</clus>
</clustering>
</event>
<event>
 9    1  0.1973774E-005  0.1106563E+03  0.7546771E-02  0.1261865E+00
          1   -1    0    0  502    0  0.00000000000E+00  0.00000000000E+00  0.19538281237E+03  0.19538281237E+03  0.00000000000E+00 0. -1.
         -2   -1    0    0    0  501 -0.00000000000E+00 -0.00000000000E+00 -0.81999280801E+02  0.81999280801E+02  0.00000000000E+00 0.  1.
         23    2    1    2    0    0 -0.77301027907E+01  0.66897700527E+02  0.67142983614E+01  0.11068814444E+03  0.87588393594E+02 0.  0.
        -24    2    1    2    0    0 -0.13181905501E+02 -0.69035669445E+02  0.89679559223E+02  0.13966559280E+03  0.80773561159E+02 0.  0.
         11    1    4    4    0    0  0.31602827003E+02 -0.31118209311E+02  0.57891654051E+02  0.72928219737E+02  0.00000000000E+00 0. -1.
        -12    1    4    4    0    0 -0.44784732505E+02 -0.37917460133E+02  0.31787905172E+02  0.66737373066E+02  0.00000000000E+00 0.  1.
        -13    1    3    3    0    0 -0.35638442468E+02  0.38342075340E+00  0.13778284153E+02  0.38211080948E+02  0.00000000000E+00 0.  1.
         13    1    3    3    0    0  0.27908339677E+02  0.66514279774E+02 -0.70639857913E+01  0.72477063493E+02  0.00000000000E+00 0. -1.
         21    1    1    2  502  501  0.20912008292E+02  0.21379689175E+01  0.16989673982E+02  0.27028355923E+02  0.00000000000E+00 0. -1.
<scales pt_clust_5="13000.00000" pt_clust_6="13000.00000" pt_clust_7="13000.00000" pt_clust_8="13000.00000" pt_clust_9="21.02101"></scales>
<clustering>
<clus scale="   21.021">  1  9  2 -1</clus>
<clus scale="   80.774">  5  6 -1 -1</clus>
<clus scale="   87.588">  7  8 -1 -1</clus>
<clus scale="  105.345">  1  5  2 -1</clus>
<clus scale="   21.021">  1  5  2 -1</clus>
</clustering>
</event>
<event>
 9    1  0.1973774E-005  0.1260647E+03  0.7546771E-02  0.1237655E+00
          1   -1    0    0  502    0  0.00000000000E+00  0.00000000000E+00  0.58136868007E+03  0.58136868007E+03  0.00000000000E+00 0. -1.
         -2   -1    0    0    0  501 -0.00000000000E+00 -0.00000000000E+00 -0.12660903905E+03  0.12660903905E+03  0.00000000000E+00 0.  1.
         23    2    1    2    0    0 -0.88248789582E+02 -0.28092888039E+02 -0.63838130742E+02  0.14615097927E+03  0.93315285904E+02 0.  0.
        -24    2    1    2    0    0  0.29317415098E+02  0.70272103259E+02  0.14715678494E+03  0.18338202819E+03  0.78588609766E+02 0.  0.
         11    1    4    4    0    0  0.23954573244E+02  0.22355177012E+02  0.12693751185E+03  0.13109808325E+03  0.00000000000E+00 0. -1.
        -12    1    4    4    0    0  0.53628418538E+01  0.47916926247E+02  0.20219273089E+02  0.52283944934E+02  0.00000000000E+00 0.  1.
        -13    1    3    3    0    0 -0.74255951859E+02  0.22829576457E+02 -0.29188708301E+02  0.82988653682E+02  0.00000000000E+00 0. -1.
         13    1    3    3    0    0 -0.13992837723E+02 -0.50922464496E+02 -0.34649422441E+02  0.63162325586E+02  0.00000000000E+00 0.  1.
         21    1    1    2  502  501  0.58931374484E+02 -0.42179215220E+02  0.37144098682E+03  0.37844471166E+03  0.00000000000E+00 0. -1.
<scales pt_clust_5="13000.00000" pt_clust_6="13000.00000" pt_clust_7="13000.00000" pt_clust_8="13000.00000" pt_clust_9="72.47064"></scales>
<clustering>
<clus scale="   72.471">  1  9  2 -1</clus>
<clus scale="   78.589">  5  6 -1 -1</clus>
<clus scale="   93.315">  7  8 -1 -1</clus>
<clus scale="  115.589">  1  5  2 -1</clus>
<clus scale="   72.471">  1  5  2 -1</clus>
</clustering>
</event>
<event>
 9    1  0.1973774E-005  0.1257789E+03  0.7546771E-02  0.1246582E+00
          1   -1    0    0  502    0  0.00000000000E+00  0.00000000000E+00  0.66770670272E+03  0.66770670272E+03  0.00000000000E+00 0. -1.
         -2   -1    0    0    0  501 -0.00000000000E+00 -0.00000000000E+00 -0.10177714205E+03  0.10177714205E+03  0.00000000000E+00 0.  1.
        -24    2    1    2    0    0 -0.34696741548E+02  0.44616669223E+02  0.67269379498E+01  0.97374443224E+02  0.79006451966E+02 0.  0.
         23    2    1    2    0    0 -0.29614003283E+02  0.83210782532E+02  0.50478095375E+03  0.51901646449E+03  0.82299791148E+02 0.  0.
         11    1    3    3    0    0 -0.31275572747E+02  0.30793026699E+02  0.41123941109E+02  0.60146076150E+02  0.00000000000E+00 0. -1.
        -12    1    3    3    0    0 -0.34211688002E+01  0.13823642524E+02 -0.34397003159E+02  0.37228367073E+02  0.00000000000E+00 0.  1.
        -11    1    4    4    0    0  0.23669089048E+02  0.46118563442E+01  0.14095910092E+03  0.14300686392E+03  0.00000000000E+00 0.  1.
         11    1    4    4    0    0 -0.53283092331E+02  0.78598926188E+02  0.36382185283E+03  0.37600960057E+03  0.00000000000E+00 0. -1.
         21    1    1    2  502  501  0.64310744830E+02 -0.12782745176E+03  0.54421668976E+02  0.15309293706E+03  0.00000000000E+00 0.  1.
<scales pt_clust_5="13000.00000" pt_clust_6="13000.00000" pt_clust_7="13000.00000" pt_clust_8="13000.00000" pt_clust_9="95.11618"></scales>
<clustering>
<clus scale="   79.006">  5  6 -1 -1</clus>
<clus scale="   82.300">  7  8 -1 -1</clus>
<clus scale="   97.142">  2  5  1 -1</clus>
<clus scale="   95.116">  2  9  1 -1</clus>
<clus scale="  125.779">  1  5  2 -1</clus>
</clustering>
</event>
<event>
 9    1  0.1973774E-005  0.1022086E+03  0.7546771E-02  0.1278852E+00
          1   -1    0    0  502    0  0.00000000000E+00  0.00000000000E+00  0.55993048282E+03  0.55993048282E+03  0.00000000000E+00 0. -1.
         -2   -1    0    0    0  501 -0.00000000000E+00 -0.00000000000E+00 -0.88627552293E+02  0.88627552293E+02  0.00000000000E+00 0.  1.
         23    2    1    2    0    0 -0.14498468034E+02 -0.50034301358E+02 -0.45803238675E+02  0.11308967794E+03  0.89317980807E+02 0.  0.
        -24    2    1    2    0    0 -0.21203217601E+02  0.36170350257E+02  0.26986040222E+03  0.28527385527E+03  0.82454018306E+02 0.  0.
         11    1    4    4    0    0 -0.47294706890E+02  0.16107493530E+02  0.21948231914E+03  0.22509715472E+03  0.00000000000E+00 0. -1.
        -12    1    4    4    0    0  0.26091489289E+02  0.20062856727E+02  0.50378083086E+02  0.60176700547E+02  0.00000000000E+00 0.  1.
        -11    1    3    3    0    0 -0.33704925580E+02 -0.61332520339E+02 -0.54973704621E+02  0.88993304575E+02  0.00000000000E+00 0.  1.
         11    1    3    3    0    0  0.19206457546E+02  0.11298218981E+02  0.91704659459E+01  0.24096373363E+02  0.00000000000E+00 0. -1.
         21    1    1    2  502  501  0.35701685635E+02  0.13863951101E+02  0.24724576698E+03  0.25019450191E+03  0.00000000000E+00 0.  1.
<scales pt_clust_5="13000.00000" pt_clust_6="13000.00000" pt_clust_7="13000.00000" pt_clust_8="13000.00000" pt_clust_9="38.29908"></scales>
<clustering>
<clus scale="   38.299">  1  9  2 -1</clus>
<clus scale="   82.454">  5  6 -1 -1</clus>
<clus scale="   89.318">  7  8 -1 -1</clus>
<clus scale="   96.268">  1  5  2 -1</clus>
<clus scale="   38.299">  1  5  2 -1</clus>
</clustering>
</event>
<event>
 9    1  0.1973774E-005  0.8179404E+02  0.7546771E-02  0.1325381E+00
          1   -1    0    0  502    0  0.00000000000E+00  0.00000000000E+00  0.21102932265E+03  0.21102932265E+03  0.00000000000E+00 0. -1.
         -2   -1    0    0    0  501 -0.00000000000E+00 -0.00000000000E+00 -0.49009749778E+02  0.49009749778E+02  0.00000000000E+00 0.  1.
         23    2    1    2    0    0 -0.17462600165E+01  0.29644357734E+01  0.21897645561E+02  0.82802705040E+02  0.79780597750E+02 0.  0.
        -24    2    1    2    0    0 -0.14490960379E+02 -0.19937766913E+02  0.12505605708E+03  0.14933078117E+03  0.77802071383E+02 0.  0.
         11    1    4    4    0    0 -0.32546719711E+02 -0.40370116936E+02  0.98244243223E+02  0.11108990337E+03  0.00000000000E+00 0. -1.
        -12    1    4    4    0    0  0.18055759332E+02  0.20432350023E+02  0.26811813854E+02  0.38240877797E+02  0.00000000000E+00 0.  1.
        -13    1    3    3    0    0 -0.36857753484E+02 -0.14124698157E+02  0.18541060256E+02  0.43609310993E+02  0.00000000000E+00 0. -1.
         13    1    3    3    0    0  0.35111493468E+02  0.17089133930E+02  0.33565853056E+01  0.39193394047E+02  0.00000000000E+00 0.  1.
         21    1    1    2  502  501  0.16237220395E+02  0.16973331139E+02  0.15065870232E+02  0.27905586214E+02  0.00000000000E+00 0.  1.
<scales pt_clust_5="13000.00000" pt_clust_6="13000.00000" pt_clust_7="13000.00000" pt_clust_8="13000.00000" pt_clust_9="23.48917"></scales>
<clustering>
<clus scale="   23.489">  2  9  1 -1</clus>
<clus scale="   77.802">  5  6 -1 -1</clus>
<clus scale="   79.781">  7  8 -1 -1</clus>
<clus scale="   79.865">  1  5  2 -1</clus>
<clus scale="   79.865">  1  5  2 -1</clus>
</clustering>
</event>
<event>
 9    1  0.1973774E-005  0.9267450E+02  0.7546771E-02  0.1303459E+00
          1   -1    0    0  502    0  0.00000000000E+00  0.00000000000E+00  0.39803758110E+03  0.39803758110E+03  0.00000000000E+00 0. -1.
         -2   -1    0    0    0  501 -0.00000000000E+00 -0.00000000000E+00 -0.92906446075E+02  0.92906446075E+02  0.00000000000E+00 0.  1.
        -24    2    1    2    0    0 -0.11915452542E+02 -0.43193707837E+01 -0.63691915703E+02  0.10359932399E+03  0.80718800987E+02 0.  0.
         23    2    1    2    0    0 -0.52825852262E+01 -0.12941491223E+02  0.31049369659E+03  0.32413059546E+03  0.91972383862E+02 0.  0.
         13    1    3    3    0    0 -0.27750376583E+02 -0.36430314189E+02 -0.33081093066E+02  0.56494335210E+02  0.00000000000E+00 0. -1.
        -14    1    3    3    0    0  0.15834924042E+02  0.32110943405E+02 -0.30610822636E+02  0.47104988783E+02  0.00000000000E+00 0.  1.
        -11    1    4    4    0    0 -0.16365676611E+02  0.37146068335E+02  0.11249288551E+03  0.11959228677E+03  0.00000000000E+00 0.  1.
         11    1    4    4    0    0  0.11083091385E+02 -0.50087559558E+02  0.19800081108E+03  0.20453830870E+03  0.00000000000E+00 0. -1.
         21    1    1    2  502  501  0.17198037768E+02  0.17260862007E+02  0.58329354138E+02  0.63214107717E+02  0.00000000000E+00 0.  1.
<scales pt_clust_5="13000.00000" pt_clust_6="13000.00000" pt_clust_7="13000.00000" pt_clust_8="13000.00000" pt_clust_9="24.36616"></scales>
<clustering>
<clus scale="   24.366">  1  9  2 -1</clus>
<clus scale="   80.719">  5  6 -1 -1</clus>
<clus scale="   81.518">  2  5  1 -1</clus>
<clus scale="   91.972">  7  8 -1 -1</clus>
<clus scale="   24.366">  1  5  2 -1</clus>
</clustering>
</event>
<event>
 9    1  0.1973774E-005  0.9157727E+02  0.7546771E-02  0.1305031E+00
          3   -1    0    0  502    0  0.00000000000E+00  0.00000000000E+00  0.65517541768E+02  0.65517541768E+02  0.00000000000E+00 0. -1.
         -4   -1    0    0    0  501 -0.00000000000E+00 -0.00000000000E+00 -0.26964233578E+03  0.26964233578E+03  0.00000000000E+00 0.  1.
        -24    2    1    2    0    0 -0.45560475287E+02 -0.31028567150E+02 -0.11646198596E+03  0.15189206242E+03  0.80431806912E+02 0.  0.
         23    2    1    2    0    0 -0.11054545920E+02  0.84185403406E+01 -0.22224213113E+02  0.93832454979E+02  0.90097387043E+02 0.  0.
         13    1    3    3    0    0 -0.58144372813E+02 -0.14315712181E+02 -0.38541652360E+02  0.71212124471E+02  0.00000000000E+00 0. -1.
        -14    1    3    3    0    0  0.12583897526E+02 -0.16712854970E+02 -0.77920333603E+02  0.80679937946E+02  0.00000000000E+00 0.  1.
        -11    1    4    4    0    0  0.36043122162E+02  0.18448341356E+02 -0.21117060556E+02  0.45665941363E+02  0.00000000000E+00 0.  1.
         11    1    4    4    0    0 -0.47097668082E+02 -0.10029801015E+02 -0.11071525568E+01  0.48166513617E+02  0.00000000000E+00 0. -1.
         21    1    1    2  502  501  0.56615021207E+02  0.22610026810E+02 -0.65438594937E+02  0.89435360154E+02  0.00000000000E+00 0.  1.
<scales pt_clust_5="13000.00000" pt_clust_6="13000.00000" pt_clust_7="13000.00000" pt_clust_8="13000.00000" pt_clust_9="60.96289"></scales>
<clustering>
<clus scale="   60.963">  2  9  1 -1</clus>
<clus scale="   80.432">  5  6 -1 -1</clus>
<clus scale="   82.086">  2  5  1 -1</clus>
<clus scale="   90.097">  7  8 -1 -1</clus>
<clus scale="   91.577">  1  5  2 -1</clus>
</clustering>
</event>
<event>
 9    1  0.1973774E-005  0.1374973E+03  0.7546771E-02  0.1218983E+00
          1   -1    0    0  502    0  0.00000000000E+00  0.00000000000E+00  0.19643543280E+03  0.19643543280E+03  0.00000000000E+00 0. -1.
         -2   -1    0    0    0  501 -0.00000000000E+00 -0.00000000000E+00 -0.15505793685E+03  0.15505793685E+03  0.00000000000E+00 0.  1.
        -24    2    1    2    0    0 -0.10067096007E+03  0.18589098821E+02 -0.56830520708E+02  0.14252505992E+03  0.81261847289E+02 0.  0.
         23    2    1    2    0    0  0.10625301289E+03  0.81151409248E+01  0.41843364815E+02  0.14634842701E+03  0.91167080951E+02 0.  0.
         13    1    3    3    0    0 -0.65181781034E+02  0.82271677682E+01  0.97010665089E+01  0.66411305963E+02  0.00000000000E+00 0. -1.
        -14    1    3    3    0    0 -0.35489179033E+02  0.10361931052E+02 -0.66531587217E+02  0.76113753955E+02  0.00000000000E+00 0.  1.
        -13    1    4    4    0    0  0.74092071325E+02  0.36080325886E+02 -0.55670646081E+01  0.82597924657E+02  0.00000000000E+00 0. -1.
         13    1    4    4    0    0  0.32160941564E+02 -0.27965184961E+02  0.47410429423E+02  0.63750502353E+02  0.00000000000E+00 0.  1.
         21    1    1    2  502  501 -0.55820528219E+01 -0.26704239745E+02  0.56364651843E+02  0.62619882717E+02  0.00000000000E+00 0. -1.
<scales pt_clust_5="13000.00000" pt_clust_6="13000.00000" pt_clust_7="13000.00000" pt_clust_8="13000.00000" pt_clust_9="27.28142"></scales>
<clustering>
<clus scale="   27.281">  1  9  2 -1</clus>
<clus scale="   81.262">  5  6 -1 -1</clus>
<clus scale="   91.167">  7  8 -1 -1</clus>
<clus scale="  131.139">  2  5  1 -1</clus>
<clus scale="   27.281">  1  5  2 -1</clus>
</clustering>
</event>
<event>
 9    1  0.1973774E-005  0.1299372E+03  0.7546771E-02  0.1230656E+00
          1   -1    0    0  502    0  0.00000000000E+00  0.00000000000E+00  0.94437365350E+02  0.94437365350E+02  0.00000000000E+00 0. -1.
         -2   -1    0    0    0  501 -0.00000000000E+00 -0.00000000000E+00 -0.51142171554E+03  0.51142171554E+03  0.00000000000E+00 0.  1.
         23    2    1    2    0    0  0.35556180473E+02  0.92140905462E+02 -0.43747941607E+03  0.45781100679E+03  0.91915667993E+02 0.  0.
        -24    2    1    2    0    0 -0.32705620224E+02 -0.50140800105E+02 -0.26349754878E+01  0.10001544606E+03  0.80077393345E+02 0.  0.
         11    1    4    4    0    0 -0.25766041123E+02 -0.67268207935E+02  0.15980015276E+02  0.73785239460E+02  0.00000000000E+00 0. -1.
        -12    1    4    4    0    0 -0.69395791010E+01  0.17127407830E+02 -0.18614990764E+02  0.26230206598E+02  0.00000000000E+00 0.  1.
        -13    1    3    3    0    0 -0.10459439764E+02  0.78561178913E+02 -0.34063966236E+03  0.34973795660E+03  0.00000000000E+00 0.  1.
         13    1    3    3    0    0  0.46015620237E+02  0.13579726549E+02 -0.96839753710E+02  0.10807305019E+03  0.00000000000E+00 0. -1.
         21    1    1    2  502  501 -0.28505602489E+01 -0.42000105357E+02  0.23130041362E+02  0.48032628048E+02  0.00000000000E+00 0. -1.
<scales pt_clust_5="13000.00000" pt_clust_6="13000.00000" pt_clust_7="13000.00000" pt_clust_8="13000.00000" pt_clust_9="42.09673"></scales>
<clustering>
<clus scale="   42.097">  1  9  2 -1</clus>
<clus scale="   80.077">  5  6 -1 -1</clus>
<clus scale="   91.916">  7  8 -1 -1</clus>
<clus scale="  121.851">  1  5  2 -1</clus>
<clus scale="   42.097">  1  5  2 -1</clus>
</clustering>
</event>
<event>
 9    1  0.1973774E-005  0.1259114E+03  0.7546771E-02  0.1238849E+00
          3   -1    0    0  502    0  0.00000000000E+00  0.00000000000E+00  0.16686062608E+03  0.16686062608E+03  0.00000000000E+00 0. -1.
         -4   -1    0    0    0  501 -0.00000000000E+00 -0.00000000000E+00 -0.21187995669E+03  0.21187995669E+03  0.00000000000E+00 0.  1.
        -24    2    1    2    0    0 -0.42142658850E+02  0.66404879681E+02 -0.12259871770E+03  0.16491538162E+03  0.77337091845E+02 0.  0.
         23    2    1    2    0    0  0.87560226901E+02 -0.59027910861E+02  0.25409488027E+02  0.14426318908E+03  0.94948080789E+02 0.  0.
         13    1    3    3    0    0  0.19584935927E+02  0.29135869014E+02 -0.59571040299E+02  0.69146058606E+02  0.00000000000E+00 0. -1.
        -14    1    3    3    0    0 -0.61727594778E+02  0.37269010667E+02 -0.63027677396E+02  0.95769323017E+02  0.00000000000E+00 0.  1.
        -11    1    4    4    0    0  0.30216805234E+02 -0.58851052292E+02 -0.22148659932E+02  0.69764352008E+02  0.00000000000E+00 0.  1.
         11    1    4    4    0    0  0.57343421667E+02 -0.17685856954E+00  0.47558147959E+02  0.74498837069E+02  0.00000000000E+00 0. -1.
         21    1    1    2  502  501 -0.45417568050E+02 -0.73769688199E+01  0.52169899055E+02  0.69562012075E+02  0.00000000000E+00 0. -1.
<scales pt_clust_5="13000.00000" pt_clust_6="13000.00000" pt_clust_7="13000.00000" pt_clust_8="13000.00000" pt_clust_9="46.01277"></scales>
<clustering>
<clus scale="   46.013">  1  9  2 -1</clus>
<clus scale="   77.337">  5  6 -1 -1</clus>
<clus scale="   94.948">  7  8 -1 -1</clus>
<clus scale="  113.224">  2  5  1 -1</clus>
<clus scale="   46.013">  1  5  2 -1</clus>
</clustering>
</event>
<event>
 9    1  0.1973774E-005  0.1050831E+03  0.7546771E-02  0.1274810E+00
          1   -1    0    0  502    0  0.00000000000E+00  0.00000000000E+00  0.11803225774E+03  0.11803225774E+03  0.00000000000E+00 0. -1.
         -2   -1    0    0    0  501 -0.00000000000E+00 -0.00000000000E+00 -0.36424346938E+03  0.36424346938E+03  0.00000000000E+00 0.  1.
         23    2    1    2    0    0 -0.29452029626E+02  0.48660224057E+02 -0.31686934345E+03  0.33458777219E+03  0.91145800928E+02 0.  0.
        -24    2    1    2    0    0 -0.31667568598E+01 -0.15885430875E+02  0.56273615348E+02  0.99261860581E+02  0.80148748702E+02 0.  0.
         11    1    4    4    0    0 -0.17743619628E+02 -0.95713206551E+01  0.73272649225E+02  0.75995574483E+02  0.00000000000E+00 0. -1.
        -12    1    4    4    0    0  0.14576862768E+02 -0.63141102199E+01 -0.16999033877E+02  0.23266286098E+02  0.00000000000E+00 0.  1.
        -13    1    3    3    0    0  0.21444814836E+02  0.15522310699E+02 -0.24814140060E+02  0.36284483732E+02  0.00000000000E+00 0. -1.
         13    1    3    3    0    0 -0.50896844463E+02  0.33137913358E+02 -0.29205520339E+03  0.29830328846E+03  0.00000000000E+00 0.  1.
         21    1    1    2  502  501  0.32618786486E+02 -0.32774793182E+02  0.14384516456E+02  0.48426094346E+02  0.00000000000E+00 0. -1.
<scales pt_clust_5="13000.00000" pt_clust_6="13000.00000" pt_clust_7="13000.00000" pt_clust_8="13000.00000" pt_clust_9="46.24038"></scales>
<clustering>
<clus scale="   46.240">  1  9  2 -1</clus>
<clus scale="   80.149">  5  6 -1 -1</clus>
<clus scale="   91.146">  7  8 -1 -1</clus>
<clus scale="   95.701">  1  5  2 -1</clus>
<clus scale="   46.240">  1  5  2 -1</clus>
</clustering>
</event>
<event>
 9    1  0.1973774E-005  0.1178970E+03  0.7546771E-02  0.1255609E+00
         -2   -1    0    0    0  501 -0.00000000000E+00  0.00000000000E+00  0.58802463344E+02  0.58802463344E+02  0.00000000000E+00 0.  1.
          1   -1    0    0  502    0  0.00000000000E+00 -0.00000000000E+00 -0.12858333325E+04  0.12858333325E+04  0.00000000000E+00 0. -1.
         23    2    1    2    0    0 -0.42071694722E+02 -0.23910109826E+02 -0.27900613555E+02  0.11773758609E+03  0.10364349518E+03 0.  0.
        -24    2    1    2    0    0  0.13816723437E+03  0.31239019878E+02 -0.74426018431E+03  0.76193063301E+03  0.80925932509E+02 0.  0.
         11    1    4    4    0    0  0.12745229259E+03  0.38731042039E+02 -0.50372443445E+03  0.52103981265E+03  0.00000000000E+00 0. -1.
        -12    1    4    4    0    0  0.10714941787E+02 -0.74920221613E+01 -0.24053574986E+03  0.24089082036E+03  0.00000000000E+00 0.  1.
        -11    1    3    3    0    0 -0.73375809608E+02 -0.33310596877E+02 -0.12285661814E+02  0.81514064959E+02  0.00000000000E+00 0.  1.
         11    1    3    3    0    0  0.31304114886E+02  0.94004870507E+01 -0.15614951740E+02  0.36223521135E+02  0.00000000000E+00 0. -1.
         21    1    1    2  502  501 -0.96095539653E+02 -0.73289100521E+01 -0.45487007134E+03  0.46496757679E+03  0.00000000000E+00 0.  1.
<scales pt_clust_5="13000.00000" pt_clust_6="13000.00000" pt_clust_7="13000.00000" pt_clust_8="13000.00000" pt_clust_9="96.37461"></scales>
<clustering>
<clus scale="   80.926">  5  6 -1 -1</clus>
<clus scale="   96.375">  2  9  1 -1</clus>
<clus scale="   98.523">  2  5  1 -1</clus>
<clus scale="  103.643">  7  8 -1 -1</clus>
<clus scale="   96.375">  2  5  1 -1</clus>
</clustering>
</event>
<event>
 9    1  0.1973774E-005  0.9145308E+02  0.7546771E-02  0.1306592E+00
         -2   -1    0    0    0  501 -0.00000000000E+00  0.00000000000E+00  0.14677284838E+03  0.14677284838E+03  0.00000000000E+00 0.  1.
          1   -1    0    0  502    0  0.00000000000E+00 -0.00000000000E+00 -0.26302476921E+03  0.26302476921E+03  0.00000000000E+00 0. -1.
        -24    2    1    2    0    0  0.57405267181E+01 -0.31679053243E+01  0.11978247843E+03  0.14404882245E+03  0.79744791914E+02 0.  0.
         23    2    1    2    0    0 -0.25228516909E+02 -0.40075813517E+01 -0.15098329072E+03  0.17819903536E+03  0.91139471993E+02 0.  0.
         13    1    3    3    0    0 -0.27524910868E+02  0.22922987758E+02  0.39554111403E+02  0.53363019170E+02  0.00000000000E+00 0. -1.
        -14    1    3    3    0    0  0.33265437586E+02 -0.26090893082E+02  0.80228367032E+02  0.90685803278E+02  0.00000000000E+00 0.  1.
        -11    1    4    4    0    0 -0.34922552567E+02 -0.41661449095E+02 -0.10275802852E+03  0.11625176749E+03  0.00000000000E+00 0.  1.
         11    1    4    4    0    0  0.96940356583E+01  0.37653867744E+02 -0.48225262193E+02  0.61947267874E+02  0.00000000000E+00 0. -1.
         21    1    1    2  502  501  0.19487990190E+02  0.71754866760E+01 -0.85051108550E+02  0.87549759773E+02  0.00000000000E+00 0. -1.
<scales pt_clust_5="13000.00000" pt_clust_6="13000.00000" pt_clust_7="13000.00000" pt_clust_8="13000.00000" pt_clust_9="20.76703"></scales>
<clustering>
<clus scale="   20.767">  2  9  1 -1</clus>
<clus scale="   79.745">  5  6 -1 -1</clus>
<clus scale="   80.103">  1  5  2 -1</clus>
<clus scale="   91.139">  7  8 -1 -1</clus>
<clus scale="   20.767">  2  5  1 -1</clus>
</clustering>
</event>
<event>
 9    1  0.1973774E-005  0.9834434E+02  0.7546771E-02  0.1289278E+00
          1   -1    0    0  502    0  0.00000000000E+00  0.00000000000E+00  0.17385186252E+03  0.17385186252E+03  0.00000000000E+00 0. -1.
         -2   -1    0    0    0  501 -0.00000000000E+00 -0.00000000000E+00 -0.11258506954E+03  0.11258506954E+03  0.00000000000E+00 0.  1.
        -24    2    1    2    0    0 -0.22841047816E+02 -0.22878788072E+02 -0.59536325624E+02  0.10579851433E+03  0.81262532301E+02 0.  0.
         23    2    1    2    0    0  0.25352442412E+02  0.44565757208E+02  0.72468648722E+02  0.12760208386E+03  0.91660971547E+02 0.  0.
         13    1    3    3    0    0 -0.20342053330E+02  0.25194634202E+02 -0.45140210299E+02  0.55553643553E+02  0.00000000000E+00 0. -1.
        -14    1    3    3    0    0 -0.24989944862E+01 -0.48073422274E+02 -0.14396115325E+02  0.50244870773E+02  0.00000000000E+00 0.  1.
        -13    1    4    4    0    0  0.41099510699E+02 -0.54918950923E+01  0.44636679677E+01  0.41704376547E+02  0.00000000000E+00 0.  1.
         13    1    4    4    0    0 -0.15747068287E+02  0.50057652300E+02  0.68004980754E+02  0.85897707309E+02  0.00000000000E+00 0. -1.
         21    1    1    2  502  501 -0.25113945959E+01 -0.21686969136E+02  0.48334469875E+02  0.53036333878E+02  0.00000000000E+00 0.  1.
<scales pt_clust_5="13000.00000" pt_clust_6="13000.00000" pt_clust_7="13000.00000" pt_clust_8="13000.00000" pt_clust_9="21.83190"></scales>
<clustering>
<clus scale="   21.832">  1  9  2 -1</clus>
<clus scale="   81.263">  5  6 -1 -1</clus>
<clus scale="   88.733">  2  5  1 -1</clus>
<clus scale="   91.661">  7  8 -1 -1</clus>
<clus scale="   21.832">  1  5  2 -1</clus>
</clustering>
</event>
<event>
 9    1  0.1973774E-005  0.2021952E+03  0.7546771E-02  0.1148503E+00
          1   -1    0    0  502    0  0.00000000000E+00  0.00000000000E+00  0.97969499824E+03  0.97969499824E+03  0.00000000000E+00 0. -1.
         -2   -1    0    0    0  501 -0.00000000000E+00 -0.00000000000E+00 -0.12002078108E+03  0.12002078108E+03  0.00000000000E+00 0.  1.
         23    2    1    2    0    0  0.93123544633E+02  0.15687690453E+03  0.41927010646E+01  0.20408569907E+03  0.91384003416E+02 0.  0.
        -24    2    1    2    0    0 -0.30635430427E+02 -0.17326430177E+03  0.71138003311E+03  0.73771064317E+03  0.84831560652E+02 0.  0.
         13    1    4    4    0    0  0.69644899729E+01 -0.14430927771E+03  0.46980976467E+03  0.49152302768E+03  0.00000000000E+00 0. -1.
        -14    1    4    4    0    0 -0.37599920400E+02 -0.28955024053E+02  0.24157026844E+03  0.24618761550E+03  0.00000000000E+00 0.  1.
        -11    1    3    3    0    0  0.16105091741E+02  0.11387056313E+03  0.11467040812E+02  0.11557409810E+03  0.00000000000E+00 0.  1.
         11    1    3    3    0    0  0.77018452892E+02  0.43006341409E+02 -0.72743397470E+01  0.88511600969E+02  0.00000000000E+00 0. -1.
         21    1    1    2  502  501 -0.62488114206E+02  0.16387397232E+02  0.14410148299E+03  0.15791943707E+03  0.00000000000E+00 0. -1.
<scales pt_clust_5="13000.00000" pt_clust_6="13000.00000" pt_clust_7="13000.00000" pt_clust_8="13000.00000" pt_clust_9="64.60117"></scales>
<clustering>
<clus scale="   64.601">  1  9  2 -1</clus>
<clus scale="   84.832">  5  6 -1 -1</clus>
<clus scale="   91.384">  7  8 -1 -1</clus>
<clus scale="  199.319">  1  5  2 -1</clus>
<clus scale="   64.601">  1  5  2 -1</clus>
</clustering>
</event>
<event>
 9    1  0.1973774E-005  0.9652416E+02  0.7546771E-02  0.1294858E+00
          1   -1    0    0  502    0  0.00000000000E+00  0.00000000000E+00  0.15614990874E+03  0.15614990874E+03  0.00000000000E+00 0. -1.
         -2   -1    0    0    0  501 -0.00000000000E+00 -0.00000000000E+00 -0.23292377007E+03  0.23292377007E+03  0.00000000000E+00 0.  1.
         23    2    1    2    0    0  0.39991118194E+02  0.26630582784E+02 -0.18204719190E+03  0.21010069715E+03  0.93234357351E+02 0.  0.
        -24    2    1    2    0    0 -0.22482220086E+02 -0.70283351828E+01  0.12171365855E+03  0.14797146543E+03  0.80786707998E+02 0.  0.
         11    1    4    4    0    0 -0.15427188651E+02 -0.38643355930E+02  0.10173044965E+03  0.10991083428E+03  0.00000000000E+00 0. -1.
        -12    1    4    4    0    0 -0.70550314352E+01  0.31615020748E+02  0.19983208900E+02  0.38060631148E+02  0.00000000000E+00 0.  1.
        -11    1    3    3    0    0 -0.15280672731E+02 -0.23901519666E+02 -0.34754170580E+02  0.44862389305E+02  0.00000000000E+00 0. -1.
         11    1    3    3    0    0  0.55271790924E+02  0.50532102451E+02 -0.14729302132E+03  0.16523830784E+03  0.00000000000E+00 0.  1.
         21    1    1    2  502  501 -0.17508898108E+02 -0.19602247601E+02 -0.16440327987E+02  0.31001516226E+02  0.00000000000E+00 0. -1.
<scales pt_clust_5="13000.00000" pt_clust_6="13000.00000" pt_clust_7="13000.00000" pt_clust_8="13000.00000" pt_clust_9="26.28326"></scales>
<clustering>
<clus scale="   26.283">  2  9  1 -1</clus>
<clus scale="   80.787">  5  6 -1 -1</clus>
<clus scale="   84.562">  1  5  2 -1</clus>
<clus scale="   93.234">  7  8 -1 -1</clus>
<clus scale="   84.562">  1  5  2 -1</clus>
</clustering>
</event>
<event>
 9    1  0.1973774E-005  0.9050024E+02  0.7546771E-02  0.1307722E+00
          1   -1    0    0  502    0  0.00000000000E+00  0.00000000000E+00  0.41812107160E+03  0.41812107160E+03  0.00000000000E+00 0. -1.
         -2   -1    0    0    0  501 -0.00000000000E+00 -0.00000000000E+00 -0.66099192866E+02  0.66099192866E+02  0.00000000000E+00 0.  1.
        -24    2    1    2    0    0 -0.23985959435E+01 -0.15863861132E+02 -0.19578145546E+02  0.84577269559E+02  0.80700652974E+02 0.  0.
         23    2    1    2    0    0 -0.47687650233E+01 -0.75320921541E+01  0.36227853240E+03  0.37345842112E+03  0.90255103660E+02 0.  0.
         11    1    3    3    0    0  0.88995213233E+01  0.31362283542E+02 -0.10923661439E+01  0.32618822366E+02  0.00000000000E+00 0. -1.
        -12    1    3    3    0    0 -0.11298117267E+02 -0.47226144674E+02 -0.18485779402E+02  0.51958447192E+02  0.00000000000E+00 0.  1.
        -13    1    4    4    0    0 -0.46709940178E+02 -0.12070602510E+02  0.20740754725E+03  0.21294461395E+03  0.00000000000E+00 0.  1.
         13    1    4    4    0    0  0.41941175155E+02  0.45385103561E+01  0.15487098515E+03  0.16051380717E+03  0.00000000000E+00 0. -1.
         21    1    1    2  502  501  0.71673609668E+01  0.23395953286E+02  0.93214918784E+01  0.26184573783E+02  0.00000000000E+00 0. -1.
<scales pt_clust_5="13000.00000" pt_clust_6="13000.00000" pt_clust_7="13000.00000" pt_clust_8="13000.00000" pt_clust_9="24.46920"></scales>
<clustering>
<clus scale="   24.469">  2  9  1 -1</clus>
<clus scale="   80.701">  5  6 -1 -1</clus>
<clus scale="   80.975">  2  5  1 -1</clus>
<clus scale="   90.255">  7  8 -1 -1</clus>
<clus scale="   90.500">  1  5  2 -1</clus>
</clustering>
</event>
<event>
 9    1  0.1973774E-005  0.1098286E+03  0.7546771E-02  0.1266547E+00
         -2   -1    0    0    0  501 -0.00000000000E+00  0.00000000000E+00  0.19825224613E+03  0.19825224613E+03  0.00000000000E+00 0.  1.
          1   -1    0    0  502    0  0.00000000000E+00 -0.00000000000E+00 -0.19782064039E+03  0.19782064039E+03  0.00000000000E+00 0. -1.
         23    2    1    2    0    0 -0.60757457559E+01  0.63048675645E+02  0.14302359263E+03  0.18196635051E+03  0.92972869598E+02 0.  0.
        -24    2    1    2    0    0 -0.39291724380E+02 -0.26407344625E+02 -0.12060862186E+03  0.15178428618E+03  0.79062269201E+02 0.  0.
         11    1    4    4    0    0 -0.38617373739E+02 -0.47978424520E+02 -0.11337310677E+03  0.12902206056E+03  0.00000000000E+00 0. -1.
        -12    1    4    4    0    0 -0.67435064160E+00  0.21571079894E+02 -0.72355150893E+01  0.22762225621E+02  0.00000000000E+00 0.  1.
        -13    1    3    3    0    0  0.21363094988E+02  0.33028168761E+02  0.69494185115E+01  0.39944163238E+02  0.00000000000E+00 0. -1.
         13    1    3    3    0    0 -0.27438840744E+02  0.30020506884E+02  0.13607417412E+03  0.14202218727E+03  0.00000000000E+00 0.  1.
         21    1    1    2  502  501  0.45367470136E+02 -0.36641331020E+02 -0.21983365025E+02  0.62322249825E+02  0.00000000000E+00 0.  1.
<scales pt_clust_5="13000.00000" pt_clust_6="13000.00000" pt_clust_7="13000.00000" pt_clust_8="13000.00000" pt_clust_9="58.31633"></scales>
<clustering>
<clus scale="   58.316">  2  9  1 -1</clus>
<clus scale="   79.062">  5  6 -1 -1</clus>
<clus scale="   92.973">  7  8 -1 -1</clus>
<clus scale="   98.332">  2  5  1 -1</clus>
<clus scale="   58.316">  2  5  1 -1</clus>
</clustering>
</event>
<event>
 9    1  0.1973774E-005  0.9967482E+02  0.7546771E-02  0.1286162E+00
          1   -1    0    0  502    0  0.00000000000E+00  0.00000000000E+00  0.17339932433E+03  0.17339932433E+03  0.00000000000E+00 0. -1.
         -2   -1    0    0    0  501 -0.00000000000E+00 -0.00000000000E+00 -0.95394298439E+02  0.95394298439E+02  0.00000000000E+00 0.  1.
        -24    2    1    2    0    0  0.41778659538E+02  0.10840290547E+01 -0.38485015589E+02  0.97648609171E+02  0.79419915238E+02 0.  0.
         23    2    1    2    0    0 -0.46724803297E+02 -0.22083699909E+02  0.93294087069E+02  0.13946690104E+03  0.89868419145E+02 0.  0.
         13    1    3    3    0    0 -0.67742683094E+01 -0.29170171120E+02 -0.24662873686E+02  0.38794934370E+02  0.00000000000E+00 0. -1.
        -14    1    3    3    0    0  0.48552927848E+02  0.30254200175E+02 -0.13822141903E+02  0.58853674801E+02  0.00000000000E+00 0.  1.
        -13    1    4    4    0    0 -0.29520930633E+02 -0.57300776116E+02  0.59201980959E+02  0.87519933949E+02  0.00000000000E+00 0. -1.
         13    1    4    4    0    0 -0.17203872664E+02  0.35217076207E+02  0.34092106111E+02  0.51946967094E+02  0.00000000000E+00 0.  1.
         21    1    1    2  502  501  0.49461437589E+01  0.20999670854E+02  0.23195954411E+02  0.31678112556E+02  0.00000000000E+00 0.  1.
<scales pt_clust_5="13000.00000" pt_clust_6="13000.00000" pt_clust_7="13000.00000" pt_clust_8="13000.00000" pt_clust_9="21.57430"></scales>
<clustering>
<clus scale="   21.574">  1  9  2 -1</clus>
<clus scale="   79.420">  5  6 -1 -1</clus>
<clus scale="   89.868">  7  8 -1 -1</clus>
<clus scale="   90.367">  2  5  1 -1</clus>
<clus scale="   21.574">  1  5  2 -1</clus>
</clustering>
</event>
<event>
 9    1  0.1973774E-005  0.1431587E+03  0.7546771E-02  0.1211770E+00
         -2   -1    0    0    0  501 -0.00000000000E+00  0.00000000000E+00  0.94184115455E+02  0.94184115455E+02  0.00000000000E+00 0.  1.
          1   -1    0    0  502    0  0.00000000000E+00 -0.00000000000E+00 -0.29700580044E+03  0.29700580044E+03  0.00000000000E+00 0. -1.
        -24    2    1    2    0    0  0.26573533535E+02 -0.10616786043E+03 -0.31084603381E+02  0.13801820719E+03  0.78134535757E+02 0.  0.
         23    2    1    2    0    0  0.95960908175E+01  0.11620321546E+03 -0.12862927779E+03  0.19601199539E+03  0.90994170082E+02 0.  0.
         11    1    3    3    0    0  0.42538675902E+02 -0.29595817678E+02  0.46376060046E+01  0.52028441846E+02  0.00000000000E+00 0. -1.
        -12    1    3    3    0    0 -0.15965142367E+02 -0.76572042748E+02 -0.35722209385E+02  0.85989765349E+02  0.00000000000E+00 0.  1.
        -11    1    4    4    0    0 -0.66940031016E+01  0.50842837751E+02 -0.11687997765E+03  0.12763515583E+03  0.00000000000E+00 0. -1.
         11    1    4    4    0    0  0.16290093919E+02  0.65360377706E+02 -0.11749300139E+02  0.68376839555E+02  0.00000000000E+00 0.  1.
         21    1    1    2  502  501 -0.36169624352E+02 -0.10035355032E+02 -0.43107803807E+02  0.57159713308E+02  0.00000000000E+00 0. -1.
<scales pt_clust_5="13000.00000" pt_clust_6="13000.00000" pt_clust_7="13000.00000" pt_clust_8="13000.00000" pt_clust_9="37.53598"></scales>
<clustering>
<clus scale="   37.536">  2  9  1 -1</clus>
<clus scale="   78.135">  5  6 -1 -1</clus>
<clus scale="   90.994">  7  8 -1 -1</clus>
<clus scale="  135.349">  1  5  2 -1</clus>
<clus scale="   37.536">  2  5  1 -1</clus>
</clustering>
</event>
<event>
 9    1  0.1973774E-005  0.2715269E+03  0.7546771E-02  0.1100971E+00
          1   -1    0    0  502    0  0.00000000000E+00  0.00000000000E+00  0.96448687057E+03  0.96448687057E+03  0.00000000000E+00 0. -1.
         -2   -1    0    0    0  501 -0.00000000000E+00 -0.00000000000E+00 -0.11569606256E+03  0.11569606256E+03  0.00000000000E+00 0.  1.
        -24    2    1    2    0    0 -0.26634259190E+03  0.93765987803E+02  0.18411900736E+03  0.34615351463E+03  0.78689326409E+02 0.  0.
         23    2    1    2    0    0  0.22786165949E+03 -0.95794429528E+02  0.62718615091E+03  0.68027004098E+03  0.91144677083E+02 0.  0.
         13    1    3    3    0    0 -0.72062300980E+02  0.57132138346E+02  0.83967571405E+02  0.12452955273E+03  0.00000000000E+00 0. -1.
        -14    1    3    3    0    0 -0.19428029092E+03  0.36633849458E+02  0.10015143595E+03  0.22162396190E+03  0.00000000000E+00 0.  1.
        -11    1    4    4    0    0  0.13289445437E+03 -0.54523748805E+02  0.24211674940E+03  0.28152139444E+03  0.00000000000E+00 0.  1.
         11    1    4    4    0    0  0.94967205120E+02 -0.41270680723E+02  0.38506940151E+03  0.39874864654E+03  0.00000000000E+00 0. -1.
         21    1    1    2  502  501  0.38480932405E+02  0.20284417246E+01  0.37485649741E+02  0.53759377518E+02  0.00000000000E+00 0.  1.
<scales pt_clust_5="13000.00000" pt_clust_6="13000.00000" pt_clust_7="13000.00000" pt_clust_8="13000.00000" pt_clust_9="38.53436"></scales>
<clustering>
<clus scale="   38.534">  2  9  1 -1</clus>
<clus scale="   78.689">  5  6 -1 -1</clus>
<clus scale="   91.145">  7  8 -1 -1</clus>
<clus scale="  267.603">  2  5  1 -1</clus>
<clus scale="  271.527">  1  5  2 -1</clus>
</clustering>
</event>
<event>
 9    1  0.1973774E-005  0.1245523E+03  0.7546771E-02  0.1236234E+00
         -4   -1    0    0    0  501 -0.00000000000E+00  0.00000000000E+00  0.41730919297E+03  0.41730919297E+03  0.00000000000E+00 0.  1.
          3   -1    0    0  502    0  0.00000000000E+00 -0.00000000000E+00 -0.24021850859E+03  0.24021850859E+03  0.00000000000E+00 0. -1.
         23    2    1    2    0    0 -0.98410600640E+01 -0.78796322951E+02  0.33484314255E+03  0.35624801862E+03  0.92124989470E+02 0.  0.
        -24    2    1    2    0    0 -0.56559951271E+01  0.11863199269E+03 -0.12488569182E+02  0.14985763453E+03  0.90530692562E+02 0.  0.
         13    1    4    4    0    0  0.35787145102E+02  0.21382409598E+02 -0.14466559915E+02  0.44127186071E+02  0.00000000000E+00 0. -1.
        -14    1    4    4    0    0 -0.41443140229E+02  0.97249583092E+02  0.19779907324E+01  0.10573044846E+03  0.00000000000E+00 0.  1.
        -13    1    3    3    0    0  0.40453950974E+02 -0.24339680422E+02  0.11857883220E+03  0.12763182063E+03  0.00000000000E+00 0. -1.
         13    1    3    3    0    0 -0.50295011038E+02 -0.54456642529E+02  0.21626431035E+03  0.22861619799E+03  0.00000000000E+00 0.  1.
         21    1    1    2  502  501  0.15497055191E+02 -0.39835669739E+02 -0.14526388898E+03  0.15142204841E+03  0.00000000000E+00 0. -1.
<scales pt_clust_5="13000.00000" pt_clust_6="13000.00000" pt_clust_7="13000.00000" pt_clust_8="13000.00000" pt_clust_9="42.74388"></scales>
<clustering>
<clus scale="   42.744">  2  9  1 -1</clus>
<clus scale="   90.531">  5  6 -1 -1</clus>
<clus scale="   92.125">  7  8 -1 -1</clus>
<clus scale="  123.378">  2  5  1 -1</clus>
<clus scale="   42.744">  2  5  1 -1</clus>
</clustering>
</event>
<event>
 9    1  0.1973774E-005  0.1234001E+03  0.7546771E-02  0.1242417E+00
         -2   -1    0    0    0  501 -0.00000000000E+00  0.00000000000E+00  0.11689119507E+03  0.11689119507E+03  0.00000000000E+00 0.  1.
          1   -1    0    0  502    0  0.00000000000E+00 -0.00000000000E+00 -0.23808850484E+03  0.23808850484E+03  0.00000000000E+00 0. -1.
         23    2    1    2    0    0 -0.42756132266E+02 -0.43633276444E+02  0.91291815540E+01  0.11468980017E+03  0.96635700685E+02 0.  0.
        -24    2    1    2    0    0  0.74104458030E+02  0.92074217285E+02 -0.10156448220E+03  0.17581901137E+03  0.81411599453E+02 0.  0.
         11    1    4    4    0    0  0.49817284052E+02  0.22232383401E+02 -0.58460585833E+01  0.54865445072E+02  0.00000000000E+00 0. -1.
        -12    1    4    4    0    0  0.24287173978E+02  0.69841833884E+02 -0.95718423619E+02  0.12095356630E+03  0.00000000000E+00 0.  1.
        -13    1    3    3    0    0 -0.20679345864E+02 -0.21493329208E+02  0.53000906348E+02  0.60816894195E+02  0.00000000000E+00 0.  1.
         13    1    3    3    0    0 -0.22076786402E+02 -0.22139947236E+02 -0.43871724794E+02  0.53872905972E+02  0.00000000000E+00 0. -1.
         21    1    1    2  502  501 -0.31348325764E+02 -0.48440940841E+02 -0.28762009122E+02  0.64470888365E+02  0.00000000000E+00 0. -1.
<scales pt_clust_5="13000.00000" pt_clust_6="13000.00000" pt_clust_7="13000.00000" pt_clust_8="13000.00000" pt_clust_9="57.69959"></scales>
<clustering>
<clus scale="   57.700">  2  9  1 -1</clus>
<clus scale="   81.412">  5  6 -1 -1</clus>
<clus scale="   96.636">  7  8 -1 -1</clus>
<clus scale="  111.879">  2  5  1 -1</clus>
<clus scale="   57.700">  2  5  1 -1</clus>
</clustering>
</event>
<event>
 9    1  0.1973774E-005  0.9978115E+02  0.7546771E-02  0.1285542E+00
         -2   -1    0    0    0  501 -0.00000000000E+00  0.00000000000E+00  0.17292552403E+03  0.17292552403E+03  0.00000000000E+00 0.  1.
          1   -1    0    0  502    0  0.00000000000E+00 -0.00000000000E+00 -0.29376129926E+03  0.29376129926E+03  0.00000000000E+00 0. -1.
        -24    2    1    2    0    0  0.15345355758E+02  0.44751226689E+02  0.14160704965E+03  0.16917237850E+03  0.79552403511E+02 0.  0.
         23    2    1    2    0    0 -0.17464116394E+02 -0.11501300665E+02 -0.11902048230E+03  0.15027309503E+03  0.89324423336E+02 0.  0.
         13    1    3    3    0    0  0.22809081859E+02  0.90855656487E+01  0.17141698773E+01  0.24611787761E+02  0.00000000000E+00 0. -1.
        -14    1    3    3    0    0 -0.74637261015E+01  0.35665661040E+02  0.13989287977E+03  0.14456059074E+03  0.00000000000E+00 0.  1.
        -11    1    4    4    0    0 -0.35250226182E+02  0.28404524840E+02 -0.78855501000E+02  0.90926264166E+02  0.00000000000E+00 0.  1.
         11    1    4    4    0    0  0.17786109788E+02 -0.39905825505E+02 -0.40164981298E+02  0.59346830861E+02  0.00000000000E+00 0. -1.
         21    1    1    2  502  501  0.21187606362E+01 -0.33249926024E+02 -0.14342234258E+03  0.14724134976E+03  0.00000000000E+00 0. -1.
<scales pt_clust_5="13000.00000" pt_clust_6="13000.00000" pt_clust_7="13000.00000" pt_clust_8="13000.00000" pt_clust_9="33.31736"></scales>
<clustering>
<clus scale="   33.317">  2  9  1 -1</clus>
<clus scale="   79.552">  5  6 -1 -1</clus>
<clus scale="   89.324">  7  8 -1 -1</clus>
<clus scale="   91.137">  1  5  2 -1</clus>
<clus scale="   33.317">  2  5  1 -1</clus>
</clustering>
</event>
<event>
 9    1  0.1973774E-005  0.1070697E+03  0.7546771E-02  0.1271330E+00
          1   -1    0    0  502    0  0.00000000000E+00  0.00000000000E+00  0.22755157779E+02  0.22755157779E+02  0.00000000000E+00 0. -1.
         -2   -1    0    0    0  501 -0.00000000000E+00 -0.00000000000E+00 -0.65237535068E+03  0.65237535068E+03  0.00000000000E+00 0.  1.
         23    2    1    2    0    0 -0.40217236622E+01  0.52341271123E+02 -0.41092845003E+03  0.42455087111E+03  0.92873398735E+02 0.  0.
        -24    2    1    2    0    0  0.26208444209E+02 -0.51141142901E+02 -0.18995054859E+03  0.21425131334E+03  0.80747230999E+02 0.  0.
         13    1    4    4    0    0  0.20440200842E+02  0.12367372009E+02 -0.15417893494E+02  0.28433521426E+02  0.00000000000E+00 0. -1.
        -14    1    4    4    0    0  0.57682433670E+01 -0.63508514910E+02 -0.17453265510E+03  0.18581779192E+03  0.00000000000E+00 0.  1.
        -13    1    3    3    0    0  0.32589625055E+02  0.60841807864E+02 -0.25823875375E+03  0.26730331682E+03  0.00000000000E+00 0. -1.
         13    1    3    3    0    0 -0.36611348717E+02 -0.85005367411E+01 -0.15268969628E+03  0.15724755429E+03  0.00000000000E+00 0.  1.
         21    1    1    2  502  501 -0.22186720547E+02 -0.12001282214E+01 -0.28741194275E+02  0.36328324001E+02  0.00000000000E+00 0. -1.
<scales pt_clust_5="13000.00000" pt_clust_6="13000.00000" pt_clust_7="13000.00000" pt_clust_8="13000.00000" pt_clust_9="22.21916"></scales>
<clustering>
<clus scale="   22.219">  1  9  2 -1</clus>
<clus scale="   80.747">  5  6 -1 -1</clus>
<clus scale="   92.873">  7  8 -1 -1</clus>
<clus scale="   96.740">  1  5  2 -1</clus>
<clus scale="   22.219">  1  5  2 -1</clus>
</clustering>
</event>
<event>
 9    1  0.1973774E-005  0.9910196E+02  0.7546771E-02  0.1287863E+00
          1   -1    0    0  502    0  0.00000000000E+00  0.00000000000E+00  0.32307699817E+03  0.32307699817E+03  0.00000000000E+00 0. -1.
         -2   -1    0    0    0  501 -0.00000000000E+00 -0.00000000000E+00 -0.61288871053E+02  0.61288871053E+02  0.00000000000E+00 0.  1.
         23    2    1    2    0    0  0.19129692674E+02  0.38668159466E+02 -0.11779347401E+01  0.10087680554E+03  0.91178784089E+02 0.  0.
        -24    2    1    2    0    0 -0.13408428522E+02 -0.16665379122E+02  0.19846839062E+03  0.21510189528E+03  0.80134901649E+02 0.  0.
         13    1    4    4    0    0  0.20376975849E+02  0.20802968727E+02  0.10407055617E+03  0.10806787365E+03  0.00000000000E+00 0. -1.
        -14    1    4    4    0    0 -0.33785404371E+02 -0.37468347849E+02  0.94397834446E+02  0.10703402163E+03  0.00000000000E+00 0.  1.
        -11    1    3    3    0    0  0.18647826091E+02  0.60785260620E+02  0.23453662807E+02  0.67769193780E+02  0.00000000000E+00 0. -1.
         11    1    3    3    0    0  0.48186658275E+00 -0.22117101154E+02 -0.24631597548E+02  0.33107611762E+02  0.00000000000E+00 0.  1.
         21    1    1    2  502  501 -0.57212641520E+01 -0.22002780343E+02  0.64497671244E+02  0.68387168403E+02  0.00000000000E+00 0.  1.
<scales pt_clust_5="13000.00000" pt_clust_6="13000.00000" pt_clust_7="13000.00000" pt_clust_8="13000.00000" pt_clust_9="22.73445"></scales>
<clustering>
<clus scale="   22.734">  1  9  2 -1</clus>
<clus scale="   80.135">  5  6 -1 -1</clus>
<clus scale="   89.046">  1  5  2 -1</clus>
<clus scale="   91.179">  7  8 -1 -1</clus>
<clus scale="   22.734">  1  5  2 -1</clus>
</clustering>
</event>
<event>
 9    1  0.1973774E-005  0.1142419E+03  0.7546771E-02  0.1256689E+00
          3   -1    0    0  502    0  0.00000000000E+00  0.00000000000E+00  0.18679454775E+03  0.18679454775E+03  0.00000000000E+00 0. -1.
         -4   -1    0    0    0  501 -0.00000000000E+00 -0.00000000000E+00 -0.18800248946E+03  0.18800248946E+03  0.00000000000E+00 0.  1.
         23    2    1    2    0    0 -0.31605153646E+02  0.84676372979E+02 -0.11746650184E+03  0.17349875471E+03  0.90191268720E+02 0.  0.
        -24    2    1    2    0    0 -0.50024412761E+01 -0.68169936037E+02  0.12186140061E+03  0.16075237903E+03  0.79491897742E+02 0.  0.
         13    1    4    4    0    0  0.18631798811E+02 -0.27779596578E+02  0.10629593960E+03  0.11143462966E+03  0.00000000000E+00 0. -1.
        -14    1    4    4    0    0 -0.23634240087E+02 -0.40390339459E+02  0.15565461014E+02  0.49317749367E+02  0.00000000000E+00 0.  1.
        -13    1    3    3    0    0 -0.62995567907E+02  0.47254688779E+02 -0.69285233324E+02  0.10488989820E+03  0.00000000000E+00 0.  1.
         13    1    3    3    0    0  0.31390414260E+02  0.37421684200E+02 -0.48181268520E+02  0.68608856513E+02  0.00000000000E+00 0. -1.
         21    1    1    2  502  501  0.36607594922E+02 -0.16506436942E+02 -0.56028404767E+01  0.40545903467E+02  0.00000000000E+00 0. -1.
<scales pt_clust_5="13000.00000" pt_clust_6="13000.00000" pt_clust_7="13000.00000" pt_clust_8="13000.00000" pt_clust_9="40.15692"></scales>
<clustering>
<clus scale="   40.157">  2  9  1 -1</clus>
<clus scale="   79.492">  5  6 -1 -1</clus>
<clus scale="   90.191">  7  8 -1 -1</clus>
<clus scale="  105.999">  1  5  2 -1</clus>
<clus scale="  105.999">  1  5  2 -1</clus>
</clustering>
</event>
<event>
 9    1  0.1973774E-005  0.1118203E+03  0.7546771E-02  0.1264224E+00
         -2   -1    0    0    0  501 -0.00000000000E+00  0.00000000000E+00  0.37838804951E+02  0.37838804951E+02  0.00000000000E+00 0.  1.
          1   -1    0    0  502    0  0.00000000000E+00 -0.00000000000E+00 -0.58699309289E+03  0.58699309289E+03  0.00000000000E+00 0. -1.
        -24    2    1    2    0    0 -0.52255129393E+02 -0.30207556768E+02 -0.69187503293E+02  0.12135712745E+03  0.79357083727E+02 0.  0.
         23    2    1    2    0    0  0.22278198425E+02  0.47581816251E+02 -0.28441950164E+03  0.30488166584E+03  0.96426292525E+02 0.  0.
         11    1    3    3    0    0 -0.63666880370E+02 -0.87762202826E+01 -0.72462338524E+02  0.96857029703E+02  0.00000000000E+00 0. -1.
        -12    1    3    3    0    0  0.11411750977E+02 -0.21431336486E+02  0.32748352305E+01  0.24500097749E+02  0.00000000000E+00 0.  1.
        -13    1    4    4    0    0 -0.27299186593E+02  0.52230337386E+02 -0.17519706940E+03  0.18484389863E+03  0.00000000000E+00 0. -1.
         13    1    4    4    0    0  0.49577385019E+02 -0.46485211348E+01 -0.10922243223E+03  0.12003776721E+03  0.00000000000E+00 0.  1.
         21    1    1    2  502  501  0.29976930967E+02 -0.17374259483E+02 -0.19554728301E+03  0.19859310455E+03  0.00000000000E+00 0. -1.
<scales pt_clust_5="13000.00000" pt_clust_6="13000.00000" pt_clust_7="13000.00000" pt_clust_8="13000.00000" pt_clust_9="34.64796"></scales>
<clustering>
<clus scale="   34.648">  2  9  1 -1</clus>
<clus scale="   79.357">  5  6 -1 -1</clus>
<clus scale="   96.426">  7  8 -1 -1</clus>
<clus scale="   97.485">  1  5  2 -1</clus>
<clus scale="   34.648">  2  5  1 -1</clus>
</clustering>
</event>
<event>
 9    1  0.1973774E-005  0.1389580E+03  0.7546771E-02  0.1219064E+00
          3   -1    0    0  502    0  0.00000000000E+00  0.00000000000E+00  0.97001235603E+03  0.97001235603E+03  0.00000000000E+00 0. -1.
         -4   -1    0    0    0  501 -0.00000000000E+00 -0.00000000000E+00 -0.49625356138E+02  0.49625356138E+02  0.00000000000E+00 0.  1.
        -24    2    1    2    0    0  0.39555471162E+02  0.69335350984E+02  0.12550373625E+03  0.16900253811E+03  0.80241160743E+02 0.  0.
         23    2    1    2    0    0 -0.14044966897E+03 -0.86506107322E+02  0.41608933599E+03  0.45825867929E+03  0.98291736718E+02 0.  0.
         11    1    3    3    0    0  0.48059458864E+02  0.60670199489E+01  0.64855526664E+02  0.80949117699E+02  0.00000000000E+00 0. -1.
        -12    1    3    3    0    0 -0.85039877018E+01  0.63268331035E+02  0.60648209589E+02  0.88053420406E+02  0.00000000000E+00 0.  1.
        -13    1    4    4    0    0 -0.26228464561E+02 -0.45253648177E+02  0.23126756084E+03  0.23710864540E+03  0.00000000000E+00 0. -1.
         13    1    4    4    0    0 -0.11422120441E+03 -0.41252459145E+02  0.18482177514E+03  0.22115003389E+03  0.00000000000E+00 0.  1.
         21    1    1    2  502  501  0.10089419781E+03  0.17170756338E+02  0.37879392765E+03  0.39237649477E+03  0.00000000000E+00 0. -1.
<scales pt_clust_5="13000.00000" pt_clust_6="13000.00000" pt_clust_7="13000.00000" pt_clust_8="13000.00000" pt_clust_9="102.34488"></scales>
<clustering>
<clus scale="   80.241">  5  6 -1 -1</clus>
<clus scale="   98.292">  7  8 -1 -1</clus>
<clus scale="  102.345">  1  9  2 -1</clus>
<clus scale="  126.833">  2  5  1 -1</clus>
<clus scale="  102.345">  1  5  2 -1</clus>
</clustering>
</event>
<event>
 9    1  0.1973774E-005  0.1368313E+03  0.7546771E-02  0.1218481E+00
          1   -1    0    0  502    0  0.00000000000E+00  0.00000000000E+00  0.11439220836E+03  0.11439220836E+03  0.00000000000E+00 0. -1.
         -2   -1    0    0    0  501 -0.00000000000E+00 -0.00000000000E+00 -0.68371636416E+03  0.68371636416E+03  0.00000000000E+00 0.  1.
         23    2    1    2    0    0 -0.31348273739E+02  0.10840799617E+03 -0.58843205536E+03  0.60514724001E+03  0.84946397312E+02 0.  0.
        -24    2    1    2    0    0  0.33803452763E+02 -0.41150474685E+02  0.60128159386E+02  0.11414341693E+03  0.81100487615E+02 0.  0.
         13    1    4    4    0    0  0.15897396032E+02  0.12809901945E+02  0.53059608976E+02  0.56851938341E+02  0.00000000000E+00 0. -1.
        -14    1    4    4    0    0  0.17906056731E+02 -0.53960376630E+02  0.70685504096E+01  0.57291478587E+02  0.00000000000E+00 0.  1.
        -11    1    3    3    0    0 -0.16496190044E+02 -0.11582846762E+02 -0.95467854231E+02  0.97572525931E+02  0.00000000000E+00 0. -1.
         11    1    3    3    0    0 -0.14852083695E+02  0.11999084293E+03 -0.49296420113E+03  0.50757471408E+03  0.00000000000E+00 0.  1.
         21    1    1    2  502  501 -0.24551790239E+01 -0.67257521482E+02 -0.41020259831E+02  0.78817915581E+02  0.00000000000E+00 0.  1.
<scales pt_clust_5="13000.00000" pt_clust_6="13000.00000" pt_clust_7="13000.00000" pt_clust_8="13000.00000" pt_clust_9="67.30232"></scales>
<clustering>
<clus scale="   67.302">  1  9  2 -1</clus>
<clus scale="   81.100">  5  6 -1 -1</clus>
<clus scale="   84.946">  7  8 -1 -1</clus>
<clus scale="  134.478">  1  5  2 -1</clus>
<clus scale="   67.302">  1  5  2 -1</clus>
</clustering>
</event>
<event>
 9    1  0.1973774E-005  0.1051218E+03  0.7546771E-02  0.1274144E+00
          1   -1    0    0  502    0  0.00000000000E+00  0.00000000000E+00  0.45020294865E+03  0.45020294865E+03  0.00000000000E+00 0. -1.
         -2   -1    0    0    0  501 -0.00000000000E+00 -0.00000000000E+00 -0.63441744476E+02  0.63441744476E+02  0.00000000000E+00 0.  1.
        -24    2    1    2    0    0  0.57469180103E+02 -0.41658497222E+01 -0.10046409814E+02  0.98630467610E+02  0.79416483334E+02 0.  0.
         23    2    1    2    0    0 -0.37736929297E+02 -0.50982553180E+01  0.35249998698E+03  0.36563456193E+03  0.89343852742E+02 0.  0.
         11    1    3    3    0    0  0.49657167126E+01 -0.35516143265E+02  0.33872548871E+01  0.36021219726E+02  0.00000000000E+00 0. -1.
        -12    1    3    3    0    0  0.52503463391E+02  0.31350293543E+02 -0.13433664701E+02  0.62609247884E+02  0.00000000000E+00 0.  1.
        -13    1    4    4    0    0  0.27968265781E+02 -0.12283137437E+02  0.12889217911E+03  0.13246242181E+03  0.00000000000E+00 0. -1.
         13    1    4    4    0    0 -0.65705195078E+02  0.71848821195E+01  0.22360780786E+03  0.23317214012E+03  0.00000000000E+00 0.  1.
         21    1    1    2  502  501 -0.19732250806E+02  0.92641050401E+01  0.44307627016E+02  0.49379663586E+02  0.00000000000E+00 0.  1.
<scales pt_clust_5="13000.00000" pt_clust_6="13000.00000" pt_clust_7="13000.00000" pt_clust_8="13000.00000" pt_clust_9="21.79875"></scales>
<clustering>
<clus scale="   21.799">  1  9  2 -1</clus>
<clus scale="   79.416">  5  6 -1 -1</clus>
<clus scale="   89.344">  7  8 -1 -1</clus>
<clus scale="   96.826">  2  5  1 -1</clus>
<clus scale="   21.799">  1  5  2 -1</clus>
</clustering>
</event>
<event>
 9    1  0.1973774E-005  0.1163056E+03  0.7546771E-02  0.1253323E+00
         -2   -1    0    0    0  501 -0.00000000000E+00  0.00000000000E+00  0.78078434262E+02  0.78078434262E+02  0.00000000000E+00 0.  1.
          1   -1    0    0  502    0  0.00000000000E+00 -0.00000000000E+00 -0.34827455941E+03  0.34827455941E+03  0.00000000000E+00 0. -1.
         23    2    1    2    0    0  0.67343777559E+02  0.25236587789E+02  0.46368740968E+00  0.11729000502E+03  0.92653443178E+02 0.  0.
        -24    2    1    2    0    0 -0.55441828506E+02 -0.43587832405E+02 -0.26570140581E+03  0.28663509602E+03  0.81171089326E+02 0.  0.
         13    1    4    4    0    0 -0.59577274313E+02  0.33421492885E+01 -0.16499709045E+03  0.17545558251E+03  0.00000000000E+00 0. -1.
        -14    1    4    4    0    0  0.41354458069E+01 -0.46929981694E+02 -0.10070431536E+03  0.11117951352E+03  0.00000000000E+00 0.  1.
        -13    1    3    3    0    0  0.37190670006E+02 -0.33362119743E+02 -0.88309355700E+01  0.50736203960E+02  0.00000000000E+00 0.  1.
         13    1    3    3    0    0  0.30153107553E+02  0.58598707531E+02  0.92946229797E+01  0.66553801062E+02  0.00000000000E+00 0. -1.
         21    1    1    2  502  501 -0.11901949053E+02  0.18351244616E+02 -0.49584067516E+01  0.22427892628E+02  0.00000000000E+00 0. -1.
<scales pt_clust_5="13000.00000" pt_clust_6="13000.00000" pt_clust_7="13000.00000" pt_clust_8="13000.00000" pt_clust_9="21.87292"></scales>
<clustering>
<clus scale="   21.873">  1  9  2 -1</clus>
<clus scale="   81.171">  5  6 -1 -1</clus>
<clus scale="   92.653">  7  8 -1 -1</clus>
<clus scale="  107.383">  2  5  1 -1</clus>
<clus scale="  107.383">  2  5  1 -1</clus>
</clustering>
</event>
<event>
 9    1  0.1973774E-005  0.1148249E+03  0.7546771E-02  0.1257121E+00
          1   -1    0    0  502    0  0.00000000000E+00  0.00000000000E+00  0.45665406739E+03  0.45665406739E+03  0.00000000000E+00 0. -1.
         -2   -1    0    0    0  501 -0.00000000000E+00 -0.00000000000E+00 -0.52182575389E+02  0.52182575389E+02  0.00000000000E+00 0.  1.
        -24    2    1    2    0    0 -0.53297246591E+02  0.44421928513E+02  0.31439560254E+02  0.11075903492E+03  0.80406552224E+02 0.  0.
         23    2    1    2    0    0  0.22848150881E+02 -0.46832138074E+02  0.27628183369E+03  0.29662053312E+03  0.94534659719E+02 0.  0.
         13    1    3    3    0    0 -0.97053368452E+01  0.56948375478E+02  0.30648729223E+02  0.65396143891E+02  0.00000000000E+00 0. -1.
        -14    1    3    3    0    0 -0.43591909745E+02 -0.12526446965E+02  0.79083103144E+00  0.45362891029E+02  0.00000000000E+00 0.  1.
        -13    1    4    4    0    0  0.26719504986E+02  0.22643145832E+02  0.12995369523E+03  0.13459051565E+03  0.00000000000E+00 0.  1.
         13    1    4    4    0    0 -0.38713541052E+01 -0.69475283906E+02  0.14632813846E+03  0.16203001747E+03  0.00000000000E+00 0. -1.
         21    1    1    2  502  501  0.30449095710E+02  0.24102095606E+01  0.96750098059E+02  0.10145707474E+03  0.00000000000E+00 0. -1.
<scales pt_clust_5="13000.00000" pt_clust_6="13000.00000" pt_clust_7="13000.00000" pt_clust_8="13000.00000" pt_clust_9="30.54434"></scales>
<clustering>
<clus scale="   30.544">  1  9  2 -1</clus>
<clus scale="   80.407">  5  6 -1 -1</clus>
<clus scale="   94.535">  7  8 -1 -1</clus>
<clus scale="  103.504">  2  5  1 -1</clus>
<clus scale="   30.544">  1  5  2 -1</clus>
</clustering>
</event>
<event>
 9    1  0.1973774E-005  0.1251155E+03  0.7546771E-02  0.1238327E+00
          1   -1    0    0  502    0  0.00000000000E+00  0.00000000000E+00  0.43912906173E+02  0.43912906173E+02  0.00000000000E+00 0. -1.
         -2   -1    0    0    0  501 -0.00000000000E+00 -0.00000000000E+00 -0.74658532353E+03  0.74658532353E+03  0.00000000000E+00 0.  1.
        -24    2    1    2    0    0  0.75017757241E+02 -0.51561201370E+02 -0.48045930400E+03  0.49554477708E+03  0.80232548917E+02 0.  0.
         23    2    1    2    0    0 -0.67118387556E+02  0.30640209424E+02 -0.23928892661E+03  0.26681679782E+03  0.92132040129E+02 0.  0.
         13    1    3    3    0    0  0.80186819032E+02 -0.15745806233E+02 -0.27355530513E+03  0.28550019497E+03  0.00000000000E+00 0. -1.
        -14    1    3    3    0    0 -0.51690617908E+01 -0.35815395137E+02 -0.20690399886E+03  0.21004458211E+03  0.00000000000E+00 0.  1.
        -13    1    4    4    0    0  0.21344224814E+02  0.16166591114E+02 -0.75438080775E+02  0.80048976460E+02  0.00000000000E+00 0.  1.
         13    1    4    4    0    0 -0.88462612370E+02  0.14473618310E+02 -0.16385084583E+03  0.18676782136E+03  0.00000000000E+00 0. -1.
         21    1    1    2  502  501 -0.78993696845E+01  0.20920991946E+02  0.17075813250E+02  0.28136654804E+02  0.00000000000E+00 0. -1.
<scales pt_clust_5="13000.00000" pt_clust_6="13000.00000" pt_clust_7="13000.00000" pt_clust_8="13000.00000" pt_clust_9="22.36265"></scales>
<clustering>
<clus scale="   22.363">  1  9  2 -1</clus>
<clus scale="   80.233">  5  6 -1 -1</clus>
<clus scale="   92.132">  7  8 -1 -1</clus>
<clus scale="  116.631">  2  5  1 -1</clus>
<clus scale="   22.363">  1  5  2 -1</clus>
</clustering>
</event>
<event>
 9    1  0.1973774E-005  0.1250869E+03  0.7546771E-02  0.1237499E+00
         -2   -1    0    0    0  501 -0.00000000000E+00  0.00000000000E+00  0.12310678626E+03  0.12310678626E+03  0.00000000000E+00 0.  1.
          1   -1    0    0  502    0  0.00000000000E+00 -0.00000000000E+00 -0.45545698023E+03  0.45545698023E+03  0.00000000000E+00 0. -1.
        -24    2    1    2    0    0 -0.37848053201E+02 -0.81500415730E+02  0.79948693882E+02  0.14444956805E+03  0.79994319558E+02 0.  0.
         23    2    1    2    0    0  0.26519488789E+02  0.58277049526E+02 -0.34353399330E+03  0.36065487750E+03  0.89201111674E+02 0.  0.
         11    1    3    3    0    0  0.51542734505E+00 -0.58409975191E+02  0.69662316548E+01  0.58826178276E+02  0.00000000000E+00 0. -1.
        -12    1    3    3    0    0 -0.38363480546E+02 -0.23090440540E+02  0.72982462227E+02  0.85623389775E+02  0.00000000000E+00 0.  1.
        -11    1    4    4    0    0  0.44052101715E+02  0.55912965710E+00 -0.20293425733E+03  0.20766129415E+03  0.00000000000E+00 0.  1.
         11    1    4    4    0    0 -0.17532612926E+02  0.57717919869E+02 -0.14059973597E+03  0.15299358335E+03  0.00000000000E+00 0. -1.
         21    1    1    2  502  501  0.11328564412E+02  0.23223366205E+02 -0.68764894548E+02  0.73459320932E+02  0.00000000000E+00 0. -1.
<scales pt_clust_5="13000.00000" pt_clust_6="13000.00000" pt_clust_7="13000.00000" pt_clust_8="13000.00000" pt_clust_9="25.83914"></scales>
<clustering>
<clus scale="   25.839">  2  9  1 -1</clus>
<clus scale="   79.994">  5  6 -1 -1</clus>
<clus scale="   89.201">  7  8 -1 -1</clus>
<clus scale="  118.697">  1  5  2 -1</clus>
<clus scale="   25.839">  2  5  1 -1</clus>
</clustering>
</event>
<event>
 9    1  0.1973774E-005  0.1648124E+03  0.7546771E-02  0.1185280E+00
         -2   -1    0    0    0  501 -0.00000000000E+00  0.00000000000E+00  0.15429327342E+03  0.15429327342E+03  0.00000000000E+00 0.  1.
          1   -1    0    0  502    0  0.00000000000E+00 -0.00000000000E+00 -0.39671902897E+03  0.39671902897E+03  0.00000000000E+00 0. -1.
        -24    2    1    2    0    0 -0.12208375953E+03  0.10294493458E+03  0.57305529691E+02  0.18770232295E+03  0.80287822307E+02 0.  0.
         23    2    1    2    0    0  0.10854652582E+03 -0.75148416823E+02 -0.28805467352E+03  0.33026082882E+03  0.93097192729E+02 0.  0.
         13    1    3    3    0    0 -0.76240914527E+02  0.74027489037E+02 -0.33988753923E+01  0.10632167481E+03  0.00000000000E+00 0. -1.
        -14    1    3    3    0    0 -0.45842845002E+02  0.28917445543E+02  0.60704405083E+02  0.81380648136E+02  0.00000000000E+00 0.  1.
        -11    1    4    4    0    0 -0.10805954388E+02 -0.33041298504E+02 -0.55220510869E+02  0.65251826623E+02  0.00000000000E+00 0.  1.
         11    1    4    4    0    0  0.11935248021E+03 -0.42107118319E+02 -0.23283416265E+03  0.26500900219E+03  0.00000000000E+00 0. -1.
         21    1    1    2  502  501  0.13537233707E+02 -0.27796517757E+02 -0.11676611726E+02  0.33049150628E+02  0.00000000000E+00 0. -1.
<scales pt_clust_5="13000.00000" pt_clust_6="13000.00000" pt_clust_7="13000.00000" pt_clust_8="13000.00000" pt_clust_9="30.91768"></scales>
<clustering>
<clus scale="   30.918">  1  9  2 -1</clus>
<clus scale="   80.288">  5  6 -1 -1</clus>
<clus scale="   93.097">  7  8 -1 -1</clus>
<clus scale="  157.931">  1  5  2 -1</clus>
<clus scale="  164.812">  2  5  1 -1</clus>
</clustering>
</event>
<event>
 9    1  0.1973774E-005  0.1406974E+03  0.7546771E-02  0.1215489E+00
          1   -1    0    0  502    0  0.00000000000E+00  0.00000000000E+00  0.91963300339E+03  0.91963300339E+03  0.00000000000E+00 0. -1.
         -2   -1    0    0    0  501 -0.00000000000E+00 -0.00000000000E+00 -0.65511557059E+02  0.65511557059E+02  0.00000000000E+00 0.  1.
         23    2    1    2    0    0  0.41176426762E+02  0.69522048365E+02  0.10898240061E+03  0.16516894096E+03  0.94206167969E+02 0.  0.
        -24    2    1    2    0    0 -0.13080276441E+03 -0.75150115937E+02  0.18168105987E+03  0.24940620447E+03  0.80240539703E+02 0.  0.
         11    1    4    4    0    0 -0.25774786854E+02 -0.32669807907E+02  0.10406194706E+03  0.11207383643E+03  0.00000000000E+00 0. -1.
        -12    1    4    4    0    0 -0.10502797755E+03 -0.42480308030E+02  0.77619112815E+02  0.13733236805E+03  0.00000000000E+00 0.  1.
        -11    1    3    3    0    0  0.28760498795E+02  0.49408207323E+02  0.37255386667E+01  0.57290635187E+02  0.00000000000E+00 0.  1.
         11    1    3    3    0    0  0.12415927967E+02  0.20113841042E+02  0.10525686195E+03  0.10787830577E+03  0.00000000000E+00 0. -1.
         21    1    1    2  502  501  0.89626337644E+02  0.56280675715E+01  0.56345798585E+03  0.57056941502E+03  0.00000000000E+00 0. -1.
<scales pt_clust_5="13000.00000" pt_clust_6="13000.00000" pt_clust_7="13000.00000" pt_clust_8="13000.00000" pt_clust_9="89.80287"></scales>
<clustering>
<clus scale="   80.241">  5  6 -1 -1</clus>
<clus scale="   89.803">  1  9  2 -1</clus>
<clus scale="   94.206">  7  8 -1 -1</clus>
<clus scale="  131.755">  1  5  2 -1</clus>
<clus scale="   89.803">  1  5  2 -1</clus>
</clustering>
</event>
<event>
 9    1  0.1973774E-005  0.1493561E+03  0.7546771E-02  0.1204798E+00
         -2   -1    0    0    0  501 -0.00000000000E+00  0.00000000000E+00  0.70065955974E+02  0.70065955974E+02  0.00000000000E+00 0.  1.
          1   -1    0    0  502    0  0.00000000000E+00 -0.00000000000E+00 -0.62814846406E+03  0.62814846406E+03  0.00000000000E+00 0. -1.
         23    2    1    2    0    0 -0.40107454072E+02 -0.93171137530E+02 -0.44815391408E+02  0.14266712624E+03  0.89755338911E+02 0.  0.
        -24    2    1    2    0    0  0.85683240246E+02  0.93591910397E+02 -0.37071696389E+03  0.40588809629E+03  0.10589152962E+03 0.  0.
         13    1    4    4    0    0 -0.13717423761E+02  0.58091285610E+02 -0.13016308964E+03  0.14319635150E+03  0.00000000000E+00 0. -1.
        -14    1    4    4    0    0  0.99400664007E+02  0.35500624787E+02 -0.24055387425E+03  0.26269174480E+03  0.00000000000E+00 0.  1.
        -13    1    3    3    0    0 -0.43593634128E+02 -0.66114815859E+02  0.11565415797E+02  0.80033322154E+02  0.00000000000E+00 0.  1.
         13    1    3    3    0    0  0.34861800556E+01 -0.27056321671E+02 -0.56380807205E+02  0.62633804090E+02  0.00000000000E+00 0. -1.
         21    1    1    2  502  501 -0.45575786174E+02 -0.42077286739E+00 -0.14255015279E+03  0.14965919750E+03  0.00000000000E+00 0.  1.
<scales pt_clust_5="13000.00000" pt_clust_6="13000.00000" pt_clust_7="13000.00000" pt_clust_8="13000.00000" pt_clust_9="45.57773"></scales>
<clustering>
<clus scale="   45.578">  2  9  1 -1</clus>
<clus scale="   89.755">  7  8 -1 -1</clus>
<clus scale="  105.892">  5  6 -1 -1</clus>
<clus scale="  138.384">  1  7  2 -1</clus>
<clus scale="   45.578">  2  5  1 -1</clus>
</clustering>
</event>
<event>
 9    1  0.1973774E-005  0.9039621E+02  0.7546771E-02  0.1304812E+00
          3   -1    0    0  502    0  0.00000000000E+00  0.00000000000E+00  0.92921444251E+03  0.92921444251E+03  0.00000000000E+00 0. -1.
         -4   -1    0    0    0  501 -0.00000000000E+00 -0.00000000000E+00 -0.39230599487E+02  0.39230599487E+02  0.00000000000E+00 0.  1.
         23    2    1    2    0    0 -0.13109649177E+02  0.22539496401E+02  0.57306106139E+02  0.10847332360E+03  0.88332215717E+02 0.  0.
        -24    2    1    2    0    0 -0.70477006688E+02 -0.36806386813E+01  0.26621883272E+03  0.28706851919E+03  0.80964882762E+02 0.  0.
         13    1    4    4    0    0 -0.36486948557E+02  0.31544405631E+02  0.19341852789E+03  0.19934160096E+03  0.00000000000E+00 0. -1.
        -14    1    4    4    0    0 -0.33990058132E+02 -0.35225044312E+02  0.72800304832E+02  0.87726918230E+02  0.00000000000E+00 0.  1.
        -11    1    3    3    0    0  0.27047073139E+02 -0.10369125156E+02  0.47501873750E+02  0.55637136264E+02  0.00000000000E+00 0.  1.
         11    1    3    3    0    0 -0.40156722316E+02  0.32908621557E+02  0.98042323891E+01  0.52836187341E+02  0.00000000000E+00 0. -1.
         21    1    1    2  502  501  0.83586655865E+02 -0.18858857720E+02  0.56645890416E+03  0.57290319920E+03  0.00000000000E+00 0. -1.
<scales pt_clust_5="13000.00000" pt_clust_6="13000.00000" pt_clust_7="13000.00000" pt_clust_8="13000.00000" pt_clust_9="85.68772"></scales>
<clustering>
<clus scale="   80.965">  5  6 -1 -1</clus>
<clus scale="   85.688">  1  9  2 -1</clus>
<clus scale="   85.688">  1  5  2 -1</clus>
<clus scale="   88.332">  7  8 -1 -1</clus>
<clus scale="   85.688">  1  5  2 -1</clus>
</clustering>
</event>
<event>
 9    1  0.1973774E-005  0.2604888E+03  0.7546771E-02  0.1107365E+00
         -2   -1    0    0    0  501 -0.00000000000E+00  0.00000000000E+00  0.93439869012E+03  0.93439869012E+03  0.00000000000E+00 0.  1.
          1   -1    0    0  502    0  0.00000000000E+00 -0.00000000000E+00 -0.16302803608E+03  0.16302803608E+03  0.00000000000E+00 0. -1.
        -24    2    1    2    0    0  0.24329501861E+03  0.36444536734E+02  0.78455091478E+03  0.82624370179E+03  0.81472980381E+02 0.  0.
         23    2    1    2    0    0 -0.22553928843E+03 -0.49254067818E+02 -0.72393119440E+01  0.24849723781E+03  0.91676255054E+02 0.  0.
         11    1    3    3    0    0  0.15264535731E+03 -0.17515638038E+02  0.46839682466E+03  0.49295333251E+03  0.00000000000E+00 0. -1.
        -12    1    3    3    0    0  0.90649661304E+02  0.53960174772E+02  0.31615409012E+03  0.33329036928E+03  0.00000000000E+00 0.  1.
        -11    1    4    4    0    0 -0.10746656442E+03  0.32949772637E+01  0.34121651109E+02  0.11280162418E+03  0.00000000000E+00 0.  1.
         11    1    4    4    0    0 -0.11807272401E+03 -0.52549045082E+02 -0.41360963053E+02  0.13569561363E+03  0.00000000000E+00 0. -1.
         21    1    1    2  502  501 -0.17755730177E+02  0.12809531085E+02 -0.59409487957E+01  0.22685786593E+02  0.00000000000E+00 0. -1.
<scales pt_clust_5="13000.00000" pt_clust_6="13000.00000" pt_clust_7="13000.00000" pt_clust_8="13000.00000" pt_clust_9="21.89406"></scales>
<clustering>
<clus scale="   21.894">  2  9  1 -1</clus>
<clus scale="   81.473">  5  6 -1 -1</clus>
<clus scale="   91.676">  7  8 -1 -1</clus>
<clus scale="  257.075">  1  5  2 -1</clus>
<clus scale="   21.894">  2  5  1 -1</clus>
</clustering>
</event>
<event>
 9    1  0.1973774E-005  0.1079785E+03  0.7546771E-02  0.1268134E+00
          1   -1    0    0  502    0  0.00000000000E+00  0.00000000000E+00  0.42350694213E+03  0.42350694213E+03  0.00000000000E+00 0. -1.
         -2   -1    0    0    0  501 -0.00000000000E+00 -0.00000000000E+00 -0.45543507924E+02  0.45543507924E+02  0.00000000000E+00 0.  1.
         23    2    1    2    0    0 -0.23237514898E+01 -0.59494052776E+02  0.55180226226E+02  0.12074416816E+03  0.89383189921E+02 0.  0.
        -24    2    1    2    0    0 -0.22900758774E+02  0.63588778663E+02  0.27189180838E+03  0.29135913753E+03  0.79981335545E+02 0.  0.
         13    1    4    4    0    0  0.28585098559E+02  0.11021846250E+02  0.93388337617E+02  0.98285149221E+02  0.00000000000E+00 0. -1.
        -14    1    4    4    0    0 -0.51485857332E+02  0.52566932413E+02  0.17850347076E+03  0.19307398831E+03  0.00000000000E+00 0.  1.
        -13    1    3    3    0    0 -0.42554822527E+02 -0.10301593902E+02  0.24582782262E+02  0.50213035568E+02  0.00000000000E+00 0.  1.
         13    1    3    3    0    0  0.40231071037E+02 -0.49192458874E+02  0.30597443964E+02  0.70531132587E+02  0.00000000000E+00 0. -1.
         21    1    1    2  502  501  0.25224510263E+02 -0.40947258864E+01  0.50891399596E+02  0.56947144361E+02  0.00000000000E+00 0. -1.
<scales pt_clust_5="13000.00000" pt_clust_6="13000.00000" pt_clust_7="13000.00000" pt_clust_8="13000.00000" pt_clust_9="25.55470"></scales>
<clustering>
<clus scale="   25.555">  1  9  2 -1</clus>
<clus scale="   79.981">  5  6 -1 -1</clus>
<clus scale="   89.383">  7  8 -1 -1</clus>
<clus scale="  100.334">  1  5  2 -1</clus>
<clus scale="   25.555">  1  5  2 -1</clus>
</clustering>
</event>
<event>
 9    1  0.1973774E-005  0.1122492E+03  0.7546771E-02  0.1258062E+00
         -2   -1    0    0    0  501 -0.00000000000E+00  0.00000000000E+00  0.52539085886E+03  0.52539085886E+03  0.00000000000E+00 0.  1.
          1   -1    0    0  502    0  0.00000000000E+00 -0.00000000000E+00 -0.30811570453E+02  0.30811570453E+02  0.00000000000E+00 0. -1.
         23    2    1    2    0    0  0.59169245636E+02 -0.16129537024E+01  0.27027427166E+03  0.29035489053E+03  0.88057817844E+02 0.  0.
        -24    2    1    2    0    0 -0.70401538583E+02 -0.18527886560E+02  0.20220092880E+03  0.23390370440E+03  0.92336710514E+02 0.  0.
         11    1    4    4    0    0 -0.22818871028E+02 -0.10479791215E+02 -0.92156310708E+00  0.25127199953E+02  0.00000000000E+00 0. -1.
        -12    1    4    4    0    0 -0.47582667555E+02 -0.80480953450E+01  0.20312249190E+03  0.20877650444E+03  0.00000000000E+00 0.  1.
        -11    1    3    3    0    0  0.99433048652E+01  0.40228121524E+02  0.11034872893E+03  0.11787286817E+03  0.00000000000E+00 0. -1.
         11    1    3    3    0    0  0.49225940771E+02 -0.41841075227E+02  0.15992554273E+03  0.17248202237E+03  0.00000000000E+00 0.  1.
         21    1    1    2  502  501  0.11232292947E+02  0.20140840262E+02  0.22104087945E+02  0.31943834385E+02  0.00000000000E+00 0. -1.
<scales pt_clust_5="13000.00000" pt_clust_6="13000.00000" pt_clust_7="13000.00000" pt_clust_8="13000.00000" pt_clust_9="23.06118"></scales>
<clustering>
<clus scale="   23.061">  2  9  1 -1</clus>
<clus scale="   88.058">  7  8 -1 -1</clus>
<clus scale="   92.337">  5  6 -1 -1</clus>
<clus scale="  108.757">  1  7  2 -1</clus>
<clus scale="   23.061">  2  5  1 -1</clus>
</clustering>
</event>
<event>
 9    1  0.1973774E-005  0.9274190E+02  0.7546771E-02  0.1301932E+00
          1   -1    0    0  502    0  0.00000000000E+00  0.00000000000E+00  0.77674233050E+02  0.77674233050E+02  0.00000000000E+00 0. -1.
         -2   -1    0    0    0  501 -0.00000000000E+00 -0.00000000000E+00 -0.19771423782E+03  0.19771423782E+03  0.00000000000E+00 0.  1.
        -24    2    1    2    0    0  0.15651197217E+02  0.19767046571E+02 -0.13207428930E+03  0.15693509067E+03  0.80927799195E+02 0.  0.
         23    2    1    2    0    0 -0.83212859557E+01  0.33612769003E+01  0.20004800645E+02  0.92915641995E+02  0.90291652417E+02 0.  0.
         13    1    3    3    0    0 -0.17098530148E+02  0.37738513678E+02 -0.97896174273E+02  0.10630247450E+03  0.00000000000E+00 0. -1.
        -14    1    3    3    0    0  0.32749727366E+02 -0.17971467107E+02 -0.34178115031E+02  0.50632616164E+02  0.00000000000E+00 0.  1.
        -11    1    4    4    0    0 -0.34424515605E+02  0.11836447716E+02  0.43546224289E+02  0.56757575873E+02  0.00000000000E+00 0. -1.
         11    1    4    4    0    0  0.26103229649E+02 -0.84751708156E+01 -0.23541423644E+02  0.36158066122E+02  0.00000000000E+00 0.  1.
         21    1    1    2  502  501 -0.73299112618E+01 -0.23128323471E+02 -0.79705161079E+01  0.25537738207E+02  0.00000000000E+00 0.  1.
<scales pt_clust_5="13000.00000" pt_clust_6="13000.00000" pt_clust_7="13000.00000" pt_clust_8="13000.00000" pt_clust_9="24.26205"></scales>
<clustering>
<clus scale="   24.262">  1  9  2 -1</clus>
<clus scale="   80.928">  5  6 -1 -1</clus>
<clus scale="   83.653">  2  5  1 -1</clus>
<clus scale="   90.292">  7  8 -1 -1</clus>
<clus scale="   24.262">  1  5  2 -1</clus>
</clustering>
</event>
<event>
 9    1  0.1973774E-005  0.9805539E+02  0.7546771E-02  0.1289467E+00
          1   -1    0    0  502    0  0.00000000000E+00  0.00000000000E+00  0.96869339604E+02  0.96869339604E+02  0.00000000000E+00 0. -1.
         -2   -1    0    0    0  501 -0.00000000000E+00 -0.00000000000E+00 -0.42072359602E+03  0.42072359602E+03  0.00000000000E+00 0.  1.
        -24    2    1    2    0    0  0.17369104755E+02  0.38825354541E+02 -0.36816542452E+03  0.37873632903E+03  0.78014954709E+02 0.  0.
         23    2    1    2    0    0 -0.62954784618E+01 -0.56838857940E+02  0.50991976205E+02  0.11668128922E+03  0.88000299973E+02 0.  0.
         13    1    3    3    0    0 -0.30435404810E+02  0.23903803954E+02 -0.15272064052E+03  0.15754776974E+03  0.00000000000E+00 0. -1.
        -14    1    3    3    0    0  0.47804509565E+02  0.14921550587E+02 -0.21544478400E+03  0.22118855929E+03  0.00000000000E+00 0.  1.
        -11    1    4    4    0    0  0.23195981120E+02 -0.39861564525E+02  0.65152230244E+02  0.79823624149E+02  0.00000000000E+00 0. -1.
         11    1    4    4    0    0 -0.29491459582E+02 -0.16977293415E+02 -0.14160254038E+02  0.36857665069E+02  0.00000000000E+00 0.  1.
         21    1    1    2  502  501 -0.11073626293E+02  0.18013503399E+02 -0.66808081018E+01  0.22175317379E+02  0.00000000000E+00 0.  1.
<scales pt_clust_5="13000.00000" pt_clust_6="13000.00000" pt_clust_7="13000.00000" pt_clust_8="13000.00000" pt_clust_9="21.14501"></scales>
<clustering>
<clus scale="   21.145">  1  9  2 -1</clus>
<clus scale="   78.015">  5  6 -1 -1</clus>
<clus scale="   88.000">  7  8 -1 -1</clus>
<clus scale="   89.203">  2  5  1 -1</clus>
<clus scale="   21.145">  1  5  2 -1</clus>
</clustering>
</event>
<event>
 9    1  0.1973774E-005  0.1677672E+03  0.7546771E-02  0.1181317E+00
          1   -1    0    0  502    0  0.00000000000E+00  0.00000000000E+00  0.82479943838E+03  0.82479943838E+03  0.00000000000E+00 0. -1.
         -2   -1    0    0    0  501 -0.00000000000E+00 -0.00000000000E+00 -0.75275575668E+02  0.75275575668E+02  0.00000000000E+00 0.  1.
        -24    2    1    2    0    0 -0.13720592766E+03  0.82975979984E+02  0.96386003125E+02  0.20373424980E+03  0.80665377363E+02 0.  0.
         23    2    1    2    0    0  0.39765002863E+02 -0.10198212284E+03  0.41708824695E+03  0.44026384823E+03  0.88814646787E+02 0.  0.
         11    1    3    3    0    0 -0.64381159232E+02  0.84812615362E+02  0.52944905392E+02  0.11891709884E+03  0.00000000000E+00 0. -1.
        -12    1    3    3    0    0 -0.72824768424E+02 -0.18366353778E+01  0.43441097733E+02  0.84817150965E+02  0.00000000000E+00 0.  1.
        -11    1    4    4    0    0  0.21611718836E+02 -0.45542432139E+02  0.60356263587E+02  0.78638782228E+02  0.00000000000E+00 0.  1.
         11    1    4    4    0    0  0.18153284027E+02 -0.56439690697E+02  0.35673198336E+03  0.36162506600E+03  0.00000000000E+00 0. -1.
         21    1    1    2  502  501  0.97440924793E+02  0.19006142852E+02  0.23604961263E+03  0.25607691601E+03  0.00000000000E+00 0.  1.
<scales pt_clust_5="13000.00000" pt_clust_6="13000.00000" pt_clust_7="13000.00000" pt_clust_8="13000.00000" pt_clust_9="99.27722"></scales>
<clustering>
<clus scale="   80.665">  5  6 -1 -1</clus>
<clus scale="   88.815">  7  8 -1 -1</clus>
<clus scale="   99.277">  1  9  2 -1</clus>
<clus scale="  163.599">  2  5  1 -1</clus>
<clus scale="   99.277">  1  5  2 -1</clus>
</clustering>
</event>
<event>
 9    1  0.1973774E-005  0.1450544E+03  0.7546771E-02  0.1221977E+00
         -2   -1    0    0    0  501 -0.00000000000E+00  0.00000000000E+00  0.48375025478E+02  0.48375025478E+02  0.00000000000E+00 0.  1.
          1   -1    0    0  502    0  0.00000000000E+00 -0.00000000000E+00 -0.86501576660E+03  0.86501576660E+03  0.00000000000E+00 0. -1.
         23    2    1    2    0    0 -0.39231965975E+02  0.12502118740E+02 -0.91379312841E+02  0.13911392692E+03  0.96473082878E+02 0.  0.
        -24    2    1    2    0    0  0.11227622203E+03 -0.90288792975E+02 -0.45202334703E+03  0.48094210916E+03  0.78880859108E+02 0.  0.
         13    1    4    4    0    0  0.47515011160E+02  0.27361906067E+01 -0.18141293578E+03  0.18755216952E+03  0.00000000000E+00 0. -1.
        -14    1    4    4    0    0  0.64761210873E+02 -0.93024983581E+02 -0.27061041125E+03  0.29338993964E+03  0.00000000000E+00 0.  1.
        -13    1    3    3    0    0 -0.35918130178E+02 -0.36168466339E+02 -0.68091580845E+02  0.85057236110E+02  0.00000000000E+00 0.  1.
         13    1    3    3    0    0 -0.33138357969E+01  0.48670585078E+02 -0.23287731996E+02  0.54056690808E+02  0.00000000000E+00 0. -1.
         21    1    1    2  502  501 -0.73044256058E+02  0.77786674235E+02 -0.27323808125E+03  0.29333475600E+03  0.00000000000E+00 0. -1.
<scales pt_clust_5="13000.00000" pt_clust_6="13000.00000" pt_clust_7="13000.00000" pt_clust_8="13000.00000" pt_clust_9="121.73166"></scales>
<clustering>
<clus scale="   78.881">  5  6 -1 -1</clus>
<clus scale="   96.473">  7  8 -1 -1</clus>
<clus scale="  104.893">  1  7  2 -1</clus>
<clus scale="  121.732">  2  9  1 -1</clus>
<clus scale="  121.732">  2  5  1 -1</clus>
</clustering>
</event>
<event>
 9    1  0.1973774E-005  0.1122328E+03  0.7546771E-02  0.1258568E+00
         -2   -1    0    0    0  501 -0.00000000000E+00  0.00000000000E+00  0.37208322560E+03  0.37208322560E+03  0.00000000000E+00 0.  1.
          1   -1    0    0  502    0  0.00000000000E+00 -0.00000000000E+00 -0.57447659611E+02  0.57447659611E+02  0.00000000000E+00 0. -1.
        -24    2    1    2    0    0  0.94760572287E+02  0.10327200102E+02  0.19955986471E+03  0.23565598186E+03  0.81384181869E+02 0.  0.
         23    2    1    2    0    0 -0.54309683605E+02 -0.30105350596E+02  0.60097957929E+02  0.12281153800E+03  0.87264170484E+02 0.  0.
         13    1    3    3    0    0  0.59074405011E+02 -0.97724518331E+01  0.42715179416E+02  0.73551836788E+02  0.00000000000E+00 0. -1.
        -14    1    3    3    0    0  0.35686167276E+02  0.20099651935E+02  0.15684468530E+03  0.16210414507E+03  0.00000000000E+00 0.  1.
        -13    1    4    4    0    0 -0.40798249511E+02  0.22177125629E+02  0.49330764179E+02  0.67748404843E+02  0.00000000000E+00 0.  1.
         13    1    4    4    0    0 -0.13511434094E+02 -0.52282476225E+02  0.10767193750E+02  0.55063133154E+02  0.00000000000E+00 0. -1.
         21    1    1    2  502  501 -0.40450888683E+02  0.19778150494E+02  0.54977743344E+02  0.71063365353E+02  0.00000000000E+00 0. -1.
<scales pt_clust_5="13000.00000" pt_clust_6="13000.00000" pt_clust_7="13000.00000" pt_clust_8="13000.00000" pt_clust_9="45.02721"></scales>
<clustering>
<clus scale="   45.027">  1  9  2 -1</clus>
<clus scale="   81.384">  5  6 -1 -1</clus>
<clus scale="   87.264">  7  8 -1 -1</clus>
<clus scale="  107.724">  1  5  2 -1</clus>
<clus scale="  112.233">  2  5  1 -1</clus>
</clustering>
</event>
<event>
 9    1  0.1973774E-005  0.1095006E+03  0.7546771E-02  0.1266459E+00
          1   -1    0    0  502    0  0.00000000000E+00  0.00000000000E+00  0.27507041432E+03  0.27507041432E+03  0.00000000000E+00 0. -1.
         -2   -1    0    0    0  501 -0.00000000000E+00 -0.00000000000E+00 -0.56885070139E+02  0.56885070139E+02  0.00000000000E+00 0.  1.
        -24    2    1    2    0    0 -0.40927540672E+02 -0.43365794436E+02  0.46148853554E+02  0.11021912178E+03  0.80392054395E+02 0.  0.
         23    2    1    2    0    0  0.16188529853E+02  0.58595550640E+02  0.13908868103E+03  0.17781003472E+03  0.92602592856E+02 0.  0.
         11    1    3    3    0    0 -0.25546207604E+02 -0.35753575646E+02  0.68900657292E+02  0.81720422599E+02  0.00000000000E+00 0. -1.
        -12    1    3    3    0    0 -0.15381333069E+02 -0.76122187897E+01 -0.22751803738E+02  0.28498699185E+02  0.00000000000E+00 0.  1.
        -11    1    4    4    0    0 -0.70439970722E+00  0.70202591164E+02  0.14070770222E+03  0.15724998394E+03  0.00000000000E+00 0.  1.
         11    1    4    4    0    0  0.16892929560E+02 -0.11607040524E+02 -0.16190211816E+01  0.20560050789E+02  0.00000000000E+00 0. -1.
         21    1    1    2  502  501  0.24739010819E+02 -0.15229756203E+02  0.32947809596E+02  0.43926327954E+02  0.00000000000E+00 0.  1.
<scales pt_clust_5="13000.00000" pt_clust_6="13000.00000" pt_clust_7="13000.00000" pt_clust_8="13000.00000" pt_clust_9="29.05106"></scales>
<clustering>
<clus scale="   29.051">  1  9  2 -1</clus>
<clus scale="   80.392">  5  6 -1 -1</clus>
<clus scale="   92.603">  7  8 -1 -1</clus>
<clus scale="   99.388">  2  5  1 -1</clus>
<clus scale="   29.051">  1  5  2 -1</clus>
</clustering>
</event>
<event>
 9    1  0.1973774E-005  0.1328855E+03  0.7546771E-02  0.1226747E+00
          3   -1    0    0  502    0  0.00000000000E+00  0.00000000000E+00  0.14106426992E+03  0.14106426992E+03  0.00000000000E+00 0. -1.
         -4   -1    0    0    0  501 -0.00000000000E+00 -0.00000000000E+00 -0.26003915613E+03  0.26003915613E+03  0.00000000000E+00 0.  1.
        -24    2    1    2    0    0 -0.84707368644E+02 -0.74806670219E+02 -0.16564909483E+03  0.21532368285E+03  0.78442906407E+02 0.  0.
         23    2    1    2    0    0  0.42893774417E+02  0.13012818195E+02  0.41964305827E+02  0.11101986095E+03  0.92494309233E+02 0.  0.
         13    1    3    3    0    0 -0.37781114850E+02 -0.20298782510E+02 -0.10264578644E+02  0.44100054256E+02  0.00000000000E+00 0. -1.
        -14    1    3    3    0    0 -0.46926253794E+02 -0.54507887709E+02 -0.15538451619E+03  0.17122362859E+03  0.00000000000E+00 0.  1.
        -11    1    4    4    0    0  0.26961389655E+02  0.53127789537E+02  0.22751953745E+02  0.63774053913E+02  0.00000000000E+00 0. -1.
         11    1    4    4    0    0  0.15932384762E+02 -0.40114971343E+02  0.19212352082E+02  0.47245807037E+02  0.00000000000E+00 0.  1.
         21    1    1    2  502  501  0.41813594227E+02  0.61793852025E+02  0.47099027916E+01  0.74759882253E+02  0.00000000000E+00 0. -1.
<scales pt_clust_5="13000.00000" pt_clust_6="13000.00000" pt_clust_7="13000.00000" pt_clust_8="13000.00000" pt_clust_9="74.61137"></scales>
<clustering>
<clus scale="   74.611">  1  9  2 -1</clus>
<clus scale="   78.443">  5  6 -1 -1</clus>
<clus scale="   92.494">  7  8 -1 -1</clus>
<clus scale="  123.518">  2  5  1 -1</clus>
<clus scale="   74.611">  1  5  2 -1</clus>
</clustering>
</event>
<event>
 9    1  0.1973774E-005  0.1030564E+03  0.7546771E-02  0.1280377E+00
         -2   -1    0    0    0  501 -0.00000000000E+00  0.00000000000E+00  0.18498077700E+03  0.18498077700E+03  0.00000000000E+00 0.  1.
          1   -1    0    0  502    0  0.00000000000E+00 -0.00000000000E+00 -0.18166778035E+03  0.18166778035E+03  0.00000000000E+00 0. -1.
        -24    2    1    2    0    0  0.36402498932E+02  0.17134189124E+01  0.14201090203E+03  0.16837532508E+03  0.82795386738E+02 0.  0.
         23    2    1    2    0    0 -0.59426694508E+02 -0.77939237033E+01 -0.13166804335E+03  0.17344371192E+03  0.95676383186E+02 0.  0.
         13    1    3    3    0    0  0.14333294056E+02  0.33218013992E+02  0.21980849714E+02  0.42332464211E+02  0.00000000000E+00 0. -1.
        -14    1    3    3    0    0  0.22069204876E+02 -0.31504595079E+02  0.12003005232E+03  0.12604286086E+03  0.00000000000E+00 0.  1.
        -13    1    4    4    0    0 -0.19383330848E+02 -0.46191438475E+02 -0.93596305696E+02  0.10615851800E+03  0.00000000000E+00 0.  1.
         13    1    4    4    0    0 -0.40043363660E+02  0.38397514772E+02 -0.38071737651E+02  0.67285193926E+02  0.00000000000E+00 0. -1.
         21    1    1    2  502  501  0.23024195576E+02  0.60805047909E+01 -0.70298620423E+01  0.24829520349E+02  0.00000000000E+00 0.  1.
<scales pt_clust_5="13000.00000" pt_clust_6="13000.00000" pt_clust_7="13000.00000" pt_clust_8="13000.00000" pt_clust_9="23.81357"></scales>
<clustering>
<clus scale="   23.814">  2  9  1 -1</clus>
<clus scale="   82.795">  5  6 -1 -1</clus>
<clus scale="   91.223">  1  5  2 -1</clus>
<clus scale="   95.676">  7  8 -1 -1</clus>
<clus scale="   23.814">  2  5  1 -1</clus>
</clustering>
</event>
<event>
 9    1  0.1973774E-005  0.2750055E+03  0.7546771E-02  0.1109835E+00
          1   -1    0    0  502    0  0.00000000000E+00  0.00000000000E+00  0.60374922505E+03  0.60374922505E+03  0.00000000000E+00 0. -1.
         -2   -1    0    0    0  501 -0.00000000000E+00 -0.00000000000E+00 -0.28840481155E+03  0.28840481155E+03  0.00000000000E+00 0.  1.
        -24    2    1    2    0    0  0.18540119599E+03 -0.38034338700E+02  0.25659669682E+02  0.20671794221E+03  0.79080178212E+02 0.  0.
         23    2    1    2    0    0  0.81894875276E+02 -0.20879072979E+03  0.19077900248E+03  0.30840539297E+03  0.91743769187E+02 0.  0.
         11    1    3    3    0    0  0.17995083096E+03 -0.38531095172E+02  0.42616520981E+02  0.18889974780E+03  0.00000000000E+00 0. -1.
        -12    1    3    3    0    0  0.54503650353E+01  0.49675647143E+00 -0.16956851299E+02  0.17818194409E+02  0.00000000000E+00 0.  1.
        -13    1    4    4    0    0  0.83498705347E+01 -0.39145655627E+02  0.88431968740E+02  0.97068613813E+02  0.00000000000E+00 0. -1.
         13    1    4    4    0    0  0.73545004741E+02 -0.16964507416E+03  0.10234703374E+03  0.21133677915E+03  0.00000000000E+00 0.  1.
         21    1    1    2  502  501 -0.26729607127E+03  0.24682506849E+03  0.98905741336E+02  0.37703070143E+03  0.00000000000E+00 0.  1.
<scales pt_clust_5="13000.00000" pt_clust_6="13000.00000" pt_clust_7="13000.00000" pt_clust_8="13000.00000" pt_clust_9="259.25102"></scales>
<clustering>
<clus scale="   79.080">  5  6 -1 -1</clus>
<clus scale="   91.744">  7  8 -1 -1</clus>
<clus scale="  205.119">  2  5  1 -1</clus>
<clus scale="  259.251">  2  9  1 -1</clus>
<clus scale="  275.005">  1  5  2 -1</clus>
</clustering>
</event>
<event>
 9    1  0.1973774E-005  0.1205233E+03  0.7546771E-02  0.1260247E+00
         -2   -1    0    0    0  501 -0.00000000000E+00  0.00000000000E+00  0.71288234849E+02  0.71288234849E+02  0.00000000000E+00 0.  1.
          1   -1    0    0  502    0  0.00000000000E+00 -0.00000000000E+00 -0.66745307359E+03  0.66745307359E+03  0.00000000000E+00 0. -1.
        -24    2    1    2    0    0  0.23353453916E+02  0.44128732951E+01  0.21217523228E+02  0.86987706222E+02  0.80943316471E+02 0.  0.
         23    2    1    2    0    0 -0.23454924680E+01 -0.49843472914E+02 -0.25063690458E+03  0.28160835459E+03  0.11829849665E+03 0.  0.
         11    1    3    3    0    0  0.31513932053E+01  0.40135720575E+02 -0.10963458548E+01  0.40274176831E+02  0.00000000000E+00 0. -1.
        -12    1    3    3    0    0  0.20202060711E+02 -0.35722847280E+02  0.22313869083E+02  0.46713529391E+02  0.00000000000E+00 0.  1.
        -11    1    4    4    0    0 -0.57891870908E+02 -0.35805203632E+02 -0.16588648323E+03  0.17930924862E+03  0.00000000000E+00 0. -1.
         11    1    4    4    0    0  0.55546378440E+02 -0.14038269282E+02 -0.84750421357E+02  0.10229910597E+03  0.00000000000E+00 0.  1.
         21    1    1    2  502  501 -0.21007961448E+02  0.45430599619E+02 -0.36674545739E+03  0.37014524763E+03  0.00000000000E+00 0. -1.
<scales pt_clust_5="13000.00000" pt_clust_6="13000.00000" pt_clust_7="13000.00000" pt_clust_8="13000.00000" pt_clust_9="50.05271"></scales>
<clustering>
<clus scale="   50.053">  2  9  1 -1</clus>
<clus scale="   80.943">  5  6 -1 -1</clus>
<clus scale="   84.162">  1  5  2 -1</clus>
<clus scale="  118.298">  7  8 -1 -1</clus>
<clus scale="   50.053">  2  5  1 -1</clus>
</clustering>
</event>
<event>
 9    1  0.1973774E-005  0.9450335E+02  0.7546771E-02  0.1298800E+00
          1   -1    0    0  502    0  0.00000000000E+00  0.00000000000E+00  0.25118988568E+03  0.25118988568E+03  0.00000000000E+00 0. -1.
         -2   -1    0    0    0  501 -0.00000000000E+00 -0.00000000000E+00 -0.77460042641E+02  0.77460042641E+02  0.00000000000E+00 0.  1.
         23    2    1    2    0    0  0.27349216904E+02  0.77776661851E+01 -0.27654938585E+02  0.99610368214E+02  0.91372633052E+02 0.  0.
        -24    2    1    2    0    0 -0.51056640458E+00 -0.14261591233E+02  0.14832521782E+03  0.16922591822E+03  0.80208400392E+02 0.  0.
         13    1    4    4    0    0 -0.33692759901E+02  0.15307942951E+02  0.65766956683E+02  0.75464082705E+02  0.00000000000E+00 0. -1.
        -14    1    4    4    0    0  0.33182193497E+02 -0.29569534184E+02  0.82558261141E+02  0.93761835518E+02  0.00000000000E+00 0.  1.
        -13    1    3    3    0    0  0.12813174037E+02 -0.30317612077E+02  0.18715344394E+02  0.37862899345E+02  0.00000000000E+00 0. -1.
         13    1    3    3    0    0  0.14536042867E+02  0.38095278263E+02 -0.46370282980E+02  0.61747468869E+02  0.00000000000E+00 0.  1.
         21    1    1    2  502  501 -0.26838650499E+02  0.64839250477E+01  0.53059563796E+02  0.59813641880E+02  0.00000000000E+00 0.  1.
<scales pt_clust_5="13000.00000" pt_clust_6="13000.00000" pt_clust_7="13000.00000" pt_clust_8="13000.00000" pt_clust_9="27.61077"></scales>
<clustering>
<clus scale="   27.611">  1  9  2 -1</clus>
<clus scale="   80.208">  5  6 -1 -1</clus>
<clus scale="   83.757">  1  5  2 -1</clus>
<clus scale="   91.373">  7  8 -1 -1</clus>
<clus scale="   27.611">  1  5  2 -1</clus>
</clustering>
</event>
<event>
 9    1  0.1973774E-005  0.1580579E+03  0.7546771E-02  0.1193107E+00
         -2   -1    0    0    0  501 -0.00000000000E+00  0.00000000000E+00  0.58194417453E+02  0.58194417453E+02  0.00000000000E+00 0.  1.
          1   -1    0    0  502    0  0.00000000000E+00 -0.00000000000E+00 -0.61882451362E+03  0.61882451362E+03  0.00000000000E+00 0. -1.
        -24    2    1    2    0    0  0.13806306034E+03 -0.41236788241E+02 -0.13275720744E+03  0.21162736594E+03  0.79998653450E+02 0.  0.
         23    2    1    2    0    0 -0.95349393471E+02  0.19252987246E+02 -0.30477213409E+03  0.33324944226E+03  0.93311053448E+02 0.  0.
         13    1    3    3    0    0  0.51106753325E+02  0.71129372331E+01 -0.89129540718E+02  0.10298819903E+03  0.00000000000E+00 0. -1.
        -14    1    3    3    0    0  0.86956307016E+02 -0.48349725474E+02 -0.43627666719E+02  0.10863916691E+03  0.00000000000E+00 0.  1.
        -11    1    4    4    0    0 -0.12423850646E+02  0.45820217925E+02 -0.98176015382E+02  0.10905216381E+03  0.00000000000E+00 0.  1.
         11    1    4    4    0    0 -0.82925542825E+02 -0.26567230679E+02 -0.20659611871E+03  0.22419727845E+03  0.00000000000E+00 0. -1.
         21    1    1    2  502  501 -0.42713666870E+02  0.21983800995E+02 -0.12310075463E+03  0.13214212286E+03  0.00000000000E+00 0.  1.
<scales pt_clust_5="13000.00000" pt_clust_6="13000.00000" pt_clust_7="13000.00000" pt_clust_8="13000.00000" pt_clust_9="48.03899"></scales>
<clustering>
<clus scale="   48.039">  2  9  1 -1</clus>
<clus scale="   79.999">  5  6 -1 -1</clus>
<clus scale="   93.311">  7  8 -1 -1</clus>
<clus scale="  150.583">  1  5  2 -1</clus>
<clus scale="   48.039">  2  5  1 -1</clus>
</clustering>
</event>
<event>
 9    1  0.1973774E-005  0.9078098E+02  0.7546771E-02  0.1307609E+00
          1   -1    0    0  502    0  0.00000000000E+00  0.00000000000E+00  0.22123792854E+03  0.22123792854E+03  0.00000000000E+00 0. -1.
         -2   -1    0    0    0  501 -0.00000000000E+00 -0.00000000000E+00 -0.24011126069E+03  0.24011126069E+03  0.00000000000E+00 0.  1.
         23    2    1    2    0    0  0.50653349939E+02  0.24761581729E+02 -0.17769877960E+03  0.20703737089E+03  0.90048425222E+02 0.  0.
        -24    2    1    2    0    0 -0.57727288815E+01  0.10047478669E+02  0.17722356179E+03  0.19460895875E+03  0.79562426713E+02 0.  0.
         11    1    4    4    0    0 -0.29545716396E+02  0.33384274926E+02  0.12451789349E+03  0.13225794860E+03  0.00000000000E+00 0. -1.
        -12    1    4    4    0    0  0.23772987514E+02 -0.23336796257E+02  0.52705668307E+02  0.62351010149E+02  0.00000000000E+00 0.  1.
        -11    1    3    3    0    0  0.69672252067E+02 -0.26732837741E+01 -0.94879291907E+02  0.11774314921E+03  0.00000000000E+00 0.  1.
         11    1    3    3    0    0 -0.19018902128E+02  0.27434865503E+02 -0.82819487695E+02  0.89294221680E+02  0.00000000000E+00 0. -1.
         21    1    1    2  502  501 -0.44880621057E+02 -0.34809060398E+02 -0.18398114341E+02  0.59702859593E+02  0.00000000000E+00 0.  1.
<scales pt_clust_5="13000.00000" pt_clust_6="13000.00000" pt_clust_7="13000.00000" pt_clust_8="13000.00000" pt_clust_9="56.79737"></scales>
<clustering>
<clus scale="   56.797">  2  9  1 -1</clus>
<clus scale="   79.562">  5  6 -1 -1</clus>
<clus scale="   80.391">  1  5  2 -1</clus>
<clus scale="   90.048">  7  8 -1 -1</clus>
<clus scale="   80.391">  1  5  2 -1</clus>
</clustering>
</event>
<event>
 9    1  0.1973774E-005  0.2009751E+03  0.7546771E-02  0.1172893E+00
         -2   -1    0    0    0  501 -0.00000000000E+00  0.00000000000E+00  0.15721993164E+03  0.15721993164E+03  0.00000000000E+00 0.  1.
          1   -1    0    0  502    0  0.00000000000E+00 -0.00000000000E+00 -0.61455114166E+03  0.61455114166E+03  0.00000000000E+00 0. -1.
        -24    2    1    2    0    0  0.87202488219E+02  0.35893676241E+01  0.46775456454E+02  0.12425563408E+03  0.75062385809E+02 0.  0.
         23    2    1    2    0    0 -0.16928035034E+03  0.11425532268E+03 -0.43234806299E+03  0.48697434273E+03  0.92244496527E+02 0.  0.
         13    1    3    3    0    0  0.21123244700E+01  0.26754013386E+02  0.88430937871E+01  0.28256670976E+02  0.00000000000E+00 0. -1.
        -14    1    3    3    0    0  0.85090163749E+02 -0.23164645762E+02  0.37932362667E+02  0.95998963107E+02  0.00000000000E+00 0.  1.
        -11    1    4    4    0    0 -0.12463136002E+03  0.46248876210E+02 -0.33308407309E+03  0.35863203175E+03  0.00000000000E+00 0. -1.
         11    1    4    4    0    0 -0.44648990323E+02  0.68006446470E+02 -0.99263989898E+02  0.12834231098E+03  0.00000000000E+00 0.  1.
         21    1    1    2  502  501  0.82077862122E+02 -0.11784469030E+03 -0.71758603487E+02  0.16054109648E+03  0.00000000000E+00 0.  1.
<scales pt_clust_5="13000.00000" pt_clust_6="13000.00000" pt_clust_7="13000.00000" pt_clust_8="13000.00000" pt_clust_9="178.55511"></scales>
<clustering>
<clus scale="   75.062">  5  6 -1 -1</clus>
<clus scale="   92.244">  7  8 -1 -1</clus>
<clus scale="  115.115">  1  5  2 -1</clus>
<clus scale="  178.555">  1  9  2 -1</clus>
<clus scale="  200.975">  2  5  1 -1</clus>
</clustering>
</event>
<event>
 9    1  0.1973774E-005  0.9028661E+02  0.7546771E-02  0.1306102E+00
         -2   -1    0    0    0  501 -0.00000000000E+00  0.00000000000E+00  0.92926957379E+02  0.92926957379E+02  0.00000000000E+00 0.  1.
          1   -1    0    0  502    0  0.00000000000E+00 -0.00000000000E+00 -0.14941774675E+03  0.14941774675E+03  0.00000000000E+00 0. -1.
        -24    2    1    2    0    0  0.75923328352E+01 -0.19180229296E+02  0.17970083071E+02  0.86582041185E+02  0.82146218760E+02 0.  0.
         23    2    1    2    0    0  0.33125839396E+02  0.11692356233E+02 -0.55013309207E+02  0.11002159268E+03  0.88567794579E+02 0.  0.
         11    1    3    3    0    0  0.17584334456E+02 -0.36135790621E+02 -0.19188650181E+02  0.44533228918E+02  0.00000000000E+00 0. -1.
        -12    1    3    3    0    0 -0.99920016207E+01  0.16955561325E+02  0.37158733252E+02  0.42048812267E+02  0.00000000000E+00 0.  1.
        -11    1    4    4    0    0  0.39427067712E+02 -0.31414901090E+02 -0.20414901361E+02  0.54388949948E+02  0.00000000000E+00 0. -1.
         11    1    4    4    0    0 -0.63012283158E+01  0.43107257323E+02 -0.34598407846E+02  0.55632642735E+02  0.00000000000E+00 0.  1.
         21    1    1    2  502  501 -0.40718172232E+02  0.74878730629E+01 -0.19447563237E+02  0.45741070262E+02  0.00000000000E+00 0. -1.
<scales pt_clust_5="13000.00000" pt_clust_6="13000.00000" pt_clust_7="13000.00000" pt_clust_8="13000.00000" pt_clust_9="41.40094"></scales>
<clustering>
<clus scale="   41.401">  2  9  1 -1</clus>
<clus scale="   82.146">  5  6 -1 -1</clus>
<clus scale="   83.997">  1  5  2 -1</clus>
<clus scale="   88.568">  7  8 -1 -1</clus>
<clus scale="   41.401">  2  5  1 -1</clus>
</clustering>
</event>
<event>
 9    1  0.1973774E-005  0.1415212E+03  0.7546771E-02  0.1213996E+00
          1   -1    0    0  502    0  0.00000000000E+00  0.00000000000E+00  0.11240630440E+03  0.11240630440E+03  0.00000000000E+00 0. -1.
         -2   -1    0    0    0  501 -0.00000000000E+00 -0.00000000000E+00 -0.20470052886E+03  0.20470052886E+03  0.00000000000E+00 0.  1.
        -24    2    1    2    0    0  0.94785108371E+02  0.55582791255E+02 -0.52776529328E+02  0.14682552430E+03  0.81845641826E+02 0.  0.
         23    2    1    2    0    0 -0.97070271890E+02 -0.32206243156E+02 -0.45053472064E+02  0.14614979844E+03  0.94181040855E+02 0.  0.
         11    1    3    3    0    0  0.49107330541E+02  0.65852140881E+02 -0.88410521727E+01  0.82620811997E+02  0.00000000000E+00 0. -1.
        -12    1    3    3    0    0  0.45677777831E+02 -0.10269349626E+02 -0.43935477156E+02  0.64204712305E+02  0.00000000000E+00 0.  1.
        -11    1    4    4    0    0 -0.15609662895E+02  0.26496322026E+02 -0.32857271946E+02  0.45003521822E+02  0.00000000000E+00 0.  1.
         11    1    4    4    0    0 -0.81460608995E+02 -0.58702565183E+02 -0.12196200118E+02  0.10114627662E+03  0.00000000000E+00 0. -1.
         21    1    1    2  502  501  0.22851635188E+01 -0.23376548098E+02  0.55357769377E+01  0.24131510512E+02  0.00000000000E+00 0. -1.
<scales pt_clust_5="13000.00000" pt_clust_6="13000.00000" pt_clust_7="13000.00000" pt_clust_8="13000.00000" pt_clust_9="23.48798"></scales>
<clustering>
<clus scale="   23.488">  1  9  2 -1</clus>
<clus scale="   81.846">  5  6 -1 -1</clus>
<clus scale="   94.181">  7  8 -1 -1</clus>
<clus scale="  133.630">  2  5  1 -1</clus>
<clus scale="   23.488">  1  5  2 -1</clus>
</clustering>
</event>
<event>
 9    1  0.1973774E-005  0.9207294E+02  0.7546771E-02  0.1305826E+00
         -2   -1    0    0    0  501 -0.00000000000E+00  0.00000000000E+00  0.25419633376E+03  0.25419633376E+03  0.00000000000E+00 0.  1.
          1   -1    0    0  502    0  0.00000000000E+00 -0.00000000000E+00 -0.23176883231E+03  0.23176883231E+03  0.00000000000E+00 0. -1.
        -24    2    1    2    0    0 -0.10779636339E+02  0.96155145728E+01  0.19362243144E+03  0.20913054727E+03  0.77699943145E+02 0.  0.
         23    2    1    2    0    0  0.70828280953E+02 -0.48014140829E+02 -0.16297198192E+03  0.20508567391E+03  0.90433752825E+02 0.  0.
         13    1    3    3    0    0  0.78465289701E+01  0.26374137575E+02  0.20779927957E+02  0.34481423341E+02  0.00000000000E+00 0. -1.
        -14    1    3    3    0    0 -0.18626165309E+02 -0.16758623002E+02  0.17284250348E+03  0.17464912393E+03  0.00000000000E+00 0.  1.
        -13    1    4    4    0    0 -0.25935325204E+01 -0.39441795703E+02 -0.10156829557E+03  0.10898853300E+03  0.00000000000E+00 0.  1.
         13    1    4    4    0    0  0.73421813474E+02 -0.85723451255E+01 -0.61403686346E+02  0.96097140913E+02  0.00000000000E+00 0. -1.
         21    1    1    2  502  501 -0.60048644615E+02  0.38398626256E+02 -0.82229480732E+01  0.71748944894E+02  0.00000000000E+00 0. -1.
<scales pt_clust_5="13000.00000" pt_clust_6="13000.00000" pt_clust_7="13000.00000" pt_clust_8="13000.00000" pt_clust_9="71.27618"></scales>
<clustering>
<clus scale="   71.276">  2  9  1 -1</clus>
<clus scale="   77.700">  5  6 -1 -1</clus>
<clus scale="   79.602">  1  5  2 -1</clus>
<clus scale="   90.434">  7  8 -1 -1</clus>
<clus scale="   71.276">  2  5  1 -1</clus>
</clustering>
</event>
<event>
 9    1  0.1973774E-005  0.1611237E+03  0.7546771E-02  0.1188890E+00
          1   -1    0    0  502    0  0.00000000000E+00  0.00000000000E+00  0.30800164395E+03  0.30800164395E+03  0.00000000000E+00 0. -1.
         -2   -1    0    0    0  501 -0.00000000000E+00 -0.00000000000E+00 -0.23324100877E+03  0.23324100877E+03  0.00000000000E+00 0.  1.
        -24    2    1    2    0    0  0.68603660550E+02 -0.13011613764E+03 -0.14660408972E+03  0.22269456702E+03  0.80395519427E+02 0.  0.
         23    2    1    2    0    0  0.10027981988E+02  0.76864670478E+02  0.17845029158E+03  0.21433531033E+03  0.89924305380E+02 0.  0.
         11    1    3    3    0    0 -0.79972170261E+01 -0.21238456879E+02  0.24741635770E+01  0.22828688447E+02  0.00000000000E+00 0. -1.
        -12    1    3    3    0    0  0.76600877576E+02 -0.10887768076E+03 -0.14907825330E+03  0.19986587858E+03  0.00000000000E+00 0.  1.
        -11    1    4    4    0    0  0.10852479645E+02 -0.18933743507E+02  0.45511570809E+02  0.50473419095E+02  0.00000000000E+00 0.  1.
         11    1    4    4    0    0 -0.82449765699E+00  0.95798413985E+02  0.13293872077E+03  0.16386189124E+03  0.00000000000E+00 0. -1.
         21    1    1    2  502  501 -0.78631642538E+02  0.53251467162E+02  0.42914433317E+02  0.10421277537E+03  0.00000000000E+00 0. -1.
<scales pt_clust_5="13000.00000" pt_clust_6="13000.00000" pt_clust_7="13000.00000" pt_clust_8="13000.00000" pt_clust_9="94.96659"></scales>
<clustering>
<clus scale="   80.396">  5  6 -1 -1</clus>
<clus scale="   89.924">  7  8 -1 -1</clus>
<clus scale="   94.967">  1  9  2 -1</clus>
<clus scale="  156.006">  2  5  1 -1</clus>
<clus scale="   94.967">  1  5  2 -1</clus>
</clustering>
</event>
<event>
 9    1  0.1973774E-005  0.1477782E+03  0.7546771E-02  0.1205658E+00
         -2   -1    0    0    0  501 -0.00000000000E+00  0.00000000000E+00  0.66757038992E+02  0.66757038992E+02  0.00000000000E+00 0.  1.
          1   -1    0    0  502    0  0.00000000000E+00 -0.00000000000E+00 -0.45231523103E+03  0.45231523103E+03  0.00000000000E+00 0. -1.
        -24    2    1    2    0    0 -0.86855479394E+02  0.35985557461E+02 -0.14005016068E+03  0.18665759118E+03  0.79926054540E+02 0.  0.
         23    2    1    2    0    0  0.12245703670E+03 -0.74940642945E+02 -0.17739171425E+03  0.24624738676E+03  0.92510158349E+02 0.  0.
         13    1    3    3    0    0 -0.45524533107E+02 -0.17812581779E+02 -0.89760407114E+02  0.10220910854E+03  0.00000000000E+00 0. -1.
        -14    1    3    3    0    0 -0.41330946287E+02  0.53798139240E+02 -0.50289753564E+02  0.84448482640E+02  0.00000000000E+00 0.  1.
        -13    1    4    4    0    0  0.62507812657E+02  0.54712939585E+01 -0.10583995652E+03  0.12304169251E+03  0.00000000000E+00 0. -1.
         13    1    4    4    0    0  0.59949224045E+02 -0.80411936903E+02 -0.71551757738E+02  0.12320569425E+03  0.00000000000E+00 0.  1.
         21    1    1    2  502  501 -0.35601557308E+02  0.38955085483E+02 -0.68116317104E+02  0.86167292076E+02  0.00000000000E+00 0.  1.
<scales pt_clust_5="13000.00000" pt_clust_6="13000.00000" pt_clust_7="13000.00000" pt_clust_8="13000.00000" pt_clust_9="52.77281"></scales>
<clustering>
<clus scale="   52.773">  2  9  1 -1</clus>
<clus scale="   79.926">  5  6 -1 -1</clus>
<clus scale="   92.510">  7  8 -1 -1</clus>
<clus scale="  140.244">  1  5  2 -1</clus>
<clus scale="   52.773">  2  5  1 -1</clus>
</clustering>
</event>
<event>
 9    1  0.1973774E-005  0.9676914E+02  0.7546771E-02  0.1292112E+00
         -2   -1    0    0    0  501 -0.00000000000E+00  0.00000000000E+00  0.27227175907E+03  0.27227175907E+03  0.00000000000E+00 0.  1.
          1   -1    0    0  502    0  0.00000000000E+00 -0.00000000000E+00 -0.56121524028E+02  0.56121524028E+02  0.00000000000E+00 0. -1.
        -24    2    1    2    0    0  0.53210459442E+02 -0.61595744431E+01  0.16098156036E+03  0.18776613671E+03  0.80447286886E+02 0.  0.
         23    2    1    2    0    0 -0.30869048381E+02 -0.41940367057E+01  0.18850649935E+02  0.96748508837E+02  0.89635031474E+02 0.  0.
         13    1    3    3    0    0  0.48533876912E+02 -0.31501930954E+02  0.14800493992E+03  0.15891309292E+03  0.00000000000E+00 0. -1.
        -14    1    3    3    0    0  0.46765825306E+01  0.25342356510E+02  0.12976620440E+02  0.28853043786E+02  0.00000000000E+00 0.  1.
        -13    1    4    4    0    0  0.99492576763E+01  0.29960392768E+02  0.28649742151E+02  0.42631216126E+02  0.00000000000E+00 0.  1.
         13    1    4    4    0    0 -0.40818306057E+02 -0.34154429473E+02 -0.97990922158E+01  0.54117292710E+02  0.00000000000E+00 0. -1.
         21    1    1    2  502  501 -0.22341411061E+02  0.10353611149E+02  0.36318024755E+02  0.43878637560E+02  0.00000000000E+00 0.  1.
<scales pt_clust_5="13000.00000" pt_clust_6="13000.00000" pt_clust_7="13000.00000" pt_clust_8="13000.00000" pt_clust_9="24.62389"></scales>
<clustering>
<clus scale="   24.624">  1  9  2 -1</clus>
<clus scale="   80.447">  5  6 -1 -1</clus>
<clus scale="   88.327">  1  5  2 -1</clus>
<clus scale="   89.635">  7  8 -1 -1</clus>
<clus scale="   96.769">  2  5  1 -1</clus>
</clustering>
</event>
<event>
 9    1  0.1973774E-005  0.9872392E+02  0.7546771E-02  0.1287927E+00
         -2   -1    0    0    0  501 -0.00000000000E+00  0.00000000000E+00  0.16327436622E+03  0.16327436622E+03  0.00000000000E+00 0.  1.
          1   -1    0    0  502    0  0.00000000000E+00 -0.00000000000E+00 -0.17735463736E+03  0.17735463736E+03  0.00000000000E+00 0. -1.
         23    2    1    2    0    0  0.34848522314E+02  0.28111551301E+02  0.10890651198E+03  0.14707039378E+03  0.88115796264E+02 0.  0.
        -24    2    1    2    0    0 -0.53361461733E+02  0.13140766918E+01 -0.38486666266E+02  0.10218647916E+03  0.78177238683E+02 0.  0.
         13    1    4    4    0    0 -0.26475260557E+02  0.38294079874E+02 -0.30807202246E+02  0.55825260278E+02  0.00000000000E+00 0. -1.
        -14    1    4    4    0    0 -0.26886201176E+02 -0.36980003182E+02 -0.76794640205E+01  0.46361218887E+02  0.00000000000E+00 0.  1.
        -11    1    3    3    0    0  0.31055804891E+02 -0.28367518938E+02  0.50727313653E+02  0.65897188852E+02  0.00000000000E+00 0.  1.
         11    1    3    3    0    0  0.37927174227E+01  0.56479070239E+02  0.58179198326E+02  0.81173204929E+02  0.00000000000E+00 0. -1.
         21    1    1    2  502  501  0.18512939419E+02 -0.29425627993E+02 -0.84500116849E+02  0.91372130631E+02  0.00000000000E+00 0. -1.
<scales pt_clust_5="13000.00000" pt_clust_6="13000.00000" pt_clust_7="13000.00000" pt_clust_8="13000.00000" pt_clust_9="34.76487"></scales>
<clustering>
<clus scale="   34.765">  2  9  1 -1</clus>
<clus scale="   78.177">  5  6 -1 -1</clus>
<clus scale="   88.116">  7  8 -1 -1</clus>
<clus scale="   89.965">  2  5  1 -1</clus>
<clus scale="   34.765">  2  5  1 -1</clus>
</clustering>
</event>
<event>
 9    1  0.1973774E-005  0.9196543E+02  0.7546771E-02  0.1305397E+00
         -2   -1    0    0    0  501 -0.00000000000E+00  0.00000000000E+00  0.59056370846E+02  0.59056370846E+02  0.00000000000E+00 0.  1.
          1   -1    0    0  502    0  0.00000000000E+00 -0.00000000000E+00 -0.44231665839E+03  0.44231665839E+03  0.00000000000E+00 0. -1.
         23    2    1    2    0    0  0.89450047277E+01  0.56315414480E+01 -0.17279267757E+02  0.93800080310E+02  0.91586869164E+02 0.  0.
        -24    2    1    2    0    0  0.31361288316E+02 -0.64900615802E+01 -0.76454698313E+02  0.11525321791E+03  0.80077038157E+02 0.  0.
         13    1    4    4    0    0 -0.25537314804E+02 -0.11462341114E+01 -0.39988280426E+02  0.47460835132E+02  0.00000000000E+00 0. -1.
        -14    1    4    4    0    0  0.56898603120E+02 -0.53438274688E+01 -0.36466417887E+02  0.67792382776E+02  0.00000000000E+00 0.  1.
        -13    1    3    3    0    0  0.48627106386E+02 -0.97434715929E+01 -0.10753080518E+02  0.50746028956E+02  0.00000000000E+00 0.  1.
         13    1    3    3    0    0 -0.39682101659E+02  0.15375013041E+02 -0.65261872391E+01  0.43054051353E+02  0.00000000000E+00 0. -1.
         21    1    1    2  502  501 -0.40306293044E+02  0.85852013217E+00 -0.28952632148E+03  0.29231973102E+03  0.00000000000E+00 0. -1.
<scales pt_clust_5="13000.00000" pt_clust_6="13000.00000" pt_clust_7="13000.00000" pt_clust_8="13000.00000" pt_clust_9="40.31544"></scales>
<clustering>
<clus scale="   40.315">  2  9  1 -1</clus>
<clus scale="   80.077">  5  6 -1 -1</clus>
<clus scale="   80.510">  2  5  1 -1</clus>
<clus scale="   91.587">  7  8 -1 -1</clus>
<clus scale="   40.315">  2  5  1 -1</clus>
</clustering>
</event>
<event>
 9    1  0.1973774E-005  0.1268931E+03  0.7546771E-02  0.1249166E+00
          1   -1    0    0  502    0  0.00000000000E+00  0.00000000000E+00  0.59549852150E+03  0.59549852150E+03  0.00000000000E+00 0. -1.
         -2   -1    0    0    0  501 -0.00000000000E+00 -0.00000000000E+00 -0.44285390923E+02  0.44285390923E+02  0.00000000000E+00 0.  1.
         23    2    1    2    0    0  0.15120027807E+02  0.82280990249E+02  0.16027288098E+03  0.20244013304E+03  0.91081471715E+02 0.  0.
        -24    2    1    2    0    0 -0.31952140832E+02  0.10717439662E+02  0.26550535355E+03  0.28028983597E+03  0.83267620178E+02 0.  0.
         11    1    4    4    0    0 -0.44249176020E+02 -0.24322261427E+02  0.12151846952E+03  0.13159141466E+03  0.00000000000E+00 0. -1.
        -12    1    4    4    0    0  0.12297035188E+02  0.35039701089E+02  0.14398688403E+03  0.14869842131E+03  0.00000000000E+00 0.  1.
        -11    1    3    3    0    0  0.53231030637E+02  0.38982611357E+02  0.86848653868E+02  0.10906821393E+03  0.00000000000E+00 0. -1.
         11    1    3    3    0    0 -0.38111002829E+02  0.43298378892E+02  0.73424227109E+02  0.93371919108E+02  0.00000000000E+00 0.  1.
         21    1    1    2  502  501  0.16832113025E+02 -0.92998429911E+02  0.12543489605E+03  0.15705394342E+03  0.00000000000E+00 0. -1.
<scales pt_clust_5="13000.00000" pt_clust_6="13000.00000" pt_clust_7="13000.00000" pt_clust_8="13000.00000" pt_clust_9="88.35175"></scales>
<clustering>
<clus scale="   83.268">  5  6 -1 -1</clus>
<clus scale="   89.829">  1  5  2 -1</clus>
<clus scale="   88.352">  1  9  2 -1</clus>
<clus scale="   91.081">  7  8 -1 -1</clus>
<clus scale="   89.829">  1  5  2 -1</clus>
</clustering>
</event>
<event>
 9    1  0.1973774E-005  0.3495754E+03  0.7546771E-02  0.1063012E+00
         -2   -1    0    0    0  501 -0.00000000000E+00  0.00000000000E+00  0.10740800996E+04  0.10740800996E+04  0.00000000000E+00 0.  1.
          1   -1    0    0  502    0  0.00000000000E+00 -0.00000000000E+00 -0.28192883177E+03  0.28192883177E+03  0.00000000000E+00 0. -1.
         23    2    1    2    0    0 -0.33059408433E+03 -0.26287983306E+02  0.85175836741E+03  0.91869117299E+03  0.92291105797E+02 0.  0.
        -24    2    1    2    0    0  0.35110479888E+03  0.33099666932E+02  0.76502306342E+01  0.36667331830E+03  0.10010308974E+03 0.  0.
         13    1    4    4    0    0  0.34492902747E+03  0.46963336734E+02 -0.30135865703E+01  0.34812450458E+03  0.00000000000E+00 0. -1.
        -14    1    4    4    0    0  0.61757714137E+01 -0.13863669803E+02  0.10663817205E+02  0.18548813717E+02  0.00000000000E+00 0.  1.
        -13    1    3    3    0    0 -0.14985990466E+03  0.34042507385E+02  0.37484115989E+03  0.40512069619E+03  0.00000000000E+00 0.  1.
         13    1    3    3    0    0 -0.18073417967E+03 -0.60330490691E+02  0.47691720752E+03  0.51357047680E+03  0.00000000000E+00 0. -1.
         21    1    1    2  502  501 -0.20510714550E+02 -0.68116836256E+01 -0.67257330221E+02  0.70644440076E+02  0.00000000000E+00 0. -1.
<scales pt_clust_5="13000.00000" pt_clust_6="13000.00000" pt_clust_7="13000.00000" pt_clust_8="13000.00000" pt_clust_9="21.61223"></scales>
<clustering>
<clus scale="   21.612">  2  9  1 -1</clus>
<clus scale="   92.291">  7  8 -1 -1</clus>
<clus scale="  100.103">  5  6 -1 -1</clus>
<clus scale="  347.419">  1  7  2 -1</clus>
<clus scale="   21.612">  2  5  1 -1</clus>
</clustering>
</event>
<event>
 9    1  0.1973774E-005  0.9937351E+02  0.7546771E-02  0.1290231E+00
         -2   -1    0    0    0  501 -0.00000000000E+00  0.00000000000E+00  0.93233830640E+02  0.93233830640E+02  0.00000000000E+00 0.  1.
          1   -1    0    0  502    0  0.00000000000E+00 -0.00000000000E+00 -0.20293263095E+03  0.20293263095E+03  0.00000000000E+00 0. -1.
         23    2    1    2    0    0 -0.18927228835E+01  0.30427530389E+02  0.13906357100E+02  0.96536296195E+02  0.90534262628E+02 0.  0.
        -24    2    1    2    0    0  0.28550594973E+02 -0.52685025180E+02 -0.29929769599E+02  0.99724627510E+02  0.73880727339E+02 0.  0.
         13    1    4    4    0    0  0.24296520685E+02  0.14172979115E+02 -0.83420731571E+01  0.29339128122E+02  0.00000000000E+00 0. -1.
        -14    1    4    4    0    0  0.42540742879E+01 -0.66858004295E+02 -0.21587696442E+02  0.70385499388E+02  0.00000000000E+00 0.  1.
        -11    1    3    3    0    0  0.41494358479E+02  0.44183721121E+01  0.18693179064E+02  0.45724596676E+02  0.00000000000E+00 0. -1.
         11    1    3    3    0    0 -0.43387081362E+02  0.26009158277E+02 -0.47868219633E+01  0.50811699518E+02  0.00000000000E+00 0.  1.
         21    1    1    2  502  501 -0.26657872090E+02  0.22257494791E+02 -0.93675387807E+02  0.99905537882E+02  0.00000000000E+00 0. -1.
<scales pt_clust_5="13000.00000" pt_clust_6="13000.00000" pt_clust_7="13000.00000" pt_clust_8="13000.00000" pt_clust_9="34.72806"></scales>
<clustering>
<clus scale="   34.728">  2  9  1 -1</clus>
<clus scale="   73.881">  5  6 -1 -1</clus>
<clus scale="   84.481">  2  5  1 -1</clus>
<clus scale="   90.534">  7  8 -1 -1</clus>
<clus scale="   34.728">  2  5  1 -1</clus>
</clustering>
</event>
<event>
 9    1  0.1973774E-005  0.1539603E+03  0.7546771E-02  0.1199201E+00
          1   -1    0    0  502    0  0.00000000000E+00  0.00000000000E+00  0.10785263184E+03  0.10785263184E+03  0.00000000000E+00 0. -1.
         -2   -1    0    0    0  501 -0.00000000000E+00 -0.00000000000E+00 -0.53097581346E+03  0.53097581346E+03  0.00000000000E+00 0.  1.
         23    2    1    2    0    0  0.11419905120E+03  0.10752571316E+02 -0.41515344628E+03  0.44241159511E+03  0.10108706370E+03 0.  0.
        -24    2    1    2    0    0 -0.11834861448E+03 -0.39637802993E+02 -0.38036530830E+02  0.15451711660E+03  0.82772046421E+02 0.  0.
         11    1    4    4    0    0 -0.11712386967E+03 -0.28714344041E+02 -0.61051511185E+01  0.12074678990E+03  0.00000000000E+00 0. -1.
        -12    1    4    4    0    0 -0.12247448122E+01 -0.10923458953E+02 -0.31931379712E+02  0.33770326703E+02  0.00000000000E+00 0.  1.
        -11    1    3    3    0    0  0.51653564636E+02 -0.34543471837E+02 -0.98384028937E+02  0.11636476845E+03  0.00000000000E+00 0. -1.
         11    1    3    3    0    0  0.62545486563E+02  0.45296043154E+02 -0.31676941734E+03  0.32604682666E+03  0.00000000000E+00 0.  1.
         21    1    1    2  502  501  0.41495632838E+01  0.28885231677E+02  0.30066795484E+02  0.41899733593E+02  0.00000000000E+00 0. -1.
<scales pt_clust_5="13000.00000" pt_clust_6="13000.00000" pt_clust_7="13000.00000" pt_clust_8="13000.00000" pt_clust_9="29.18177"></scales>
<clustering>
<clus scale="   29.182">  1  9  2 -1</clus>
<clus scale="   82.772">  5  6 -1 -1</clus>
<clus scale="  101.087">  7  8 -1 -1</clus>
<clus scale="  142.606">  1  5  2 -1</clus>
<clus scale="   29.182">  1  5  2 -1</clus>
</clustering>
</event>
<event>
 9    1  0.1973774E-005  0.9031079E+02  0.7546771E-02  0.1312538E+00
         -2   -1    0    0    0  501 -0.00000000000E+00  0.00000000000E+00  0.88565793071E+02  0.88565793071E+02  0.00000000000E+00 0.  1.
          1   -1    0    0  502    0  0.00000000000E+00 -0.00000000000E+00 -0.39336852224E+03  0.39336852224E+03  0.00000000000E+00 0. -1.
         23    2    1    2    0    0  0.87339094434E+01  0.76861371533E+01  0.49716460732E+02  0.10336294597E+03  0.89871097991E+02 0.  0.
        -24    2    1    2    0    0 -0.77804697753E+01  0.38613043954E+02 -0.19129408500E+03  0.20890417130E+03  0.74135166820E+02 0.  0.
         13    1    4    4    0    0 -0.27329451691E+02  0.53003592030E+02 -0.13297211753E+03  0.14573216439E+03  0.00000000000E+00 0. -1.
        -14    1    4    4    0    0  0.19548981916E+02 -0.14390548077E+02 -0.58321967466E+02  0.63172006910E+02  0.00000000000E+00 0.  1.
        -11    1    3    3    0    0  0.37046107123E+02 -0.26251814002E+02  0.32915941712E+02  0.56080576051E+02  0.00000000000E+00 0.  1.
         11    1    3    3    0    0 -0.28312197680E+02  0.33937951156E+02  0.16800519020E+02  0.47282369922E+02  0.00000000000E+00 0. -1.
         21    1    1    2  502  501 -0.95343966809E+00 -0.46299181107E+02 -0.16322510491E+03  0.16966719804E+03  0.00000000000E+00 0. -1.
<scales pt_clust_5="13000.00000" pt_clust_6="13000.00000" pt_clust_7="13000.00000" pt_clust_8="13000.00000" pt_clust_9="46.30900"></scales>
<clustering>
<clus scale="   46.309">  2  9  1 -1</clus>
<clus scale="   74.135">  5  6 -1 -1</clus>
<clus scale="   74.668">  2  5  1 -1</clus>
<clus scale="   89.871">  7  8 -1 -1</clus>
<clus scale="   46.309">  2  5  1 -1</clus>
</clustering>
</event>
<event>
 9    1  0.1973774E-005  0.1007637E+03  0.7546771E-02  0.1283424E+00
          1   -1    0    0  502    0  0.00000000000E+00  0.00000000000E+00  0.17259587326E+03  0.17259587326E+03  0.00000000000E+00 0. -1.
         -2   -1    0    0    0  501 -0.00000000000E+00 -0.00000000000E+00 -0.12991689138E+03  0.12991689138E+03  0.00000000000E+00 0.  1.
         23    2    1    2    0    0  0.37406736900E+02 -0.24829702156E+02 -0.73978374863E+02  0.12441166350E+03  0.89385032270E+02 0.  0.
        -24    2    1    2    0    0 -0.28321242160E+02  0.48429364512E+02  0.55729119690E+02  0.11213337912E+03  0.79502602645E+02 0.  0.
         13    1    4    4    0    0  0.69789664805E+01  0.59620644761E+02  0.30569590745E+02  0.67363396093E+02  0.00000000000E+00 0. -1.
        -14    1    4    4    0    0 -0.35300208641E+02 -0.11191280249E+02  0.25159528946E+02  0.44769983030E+02  0.00000000000E+00 0.  1.
        -11    1    3    3    0    0 -0.26045520751E+02 -0.22219370415E+02 -0.39056446007E+02  0.51937226991E+02  0.00000000000E+00 0.  1.
         11    1    3    3    0    0  0.63452257652E+02 -0.26103317401E+01 -0.34921928856E+02  0.72474436513E+02  0.00000000000E+00 0. -1.
         21    1    1    2  502  501 -0.90854947399E+01 -0.23599662356E+02  0.60928237048E+02  0.65967722014E+02  0.00000000000E+00 0. -1.
<scales pt_clust_5="13000.00000" pt_clust_6="13000.00000" pt_clust_7="13000.00000" pt_clust_8="13000.00000" pt_clust_9="25.28815"></scales>
<clustering>
<clus scale="   25.288">  1  9  2 -1</clus>
<clus scale="   79.503">  5  6 -1 -1</clus>
<clus scale="   89.385">  7  8 -1 -1</clus>
<clus scale="   92.110">  1  5  2 -1</clus>
<clus scale="   25.288">  1  5  2 -1</clus>
</clustering>
</event>
<event>
 9    1  0.1973774E-005  0.1950446E+03  0.7546771E-02  0.1158544E+00
          1   -1    0    0  502    0  0.00000000000E+00  0.00000000000E+00  0.12745583263E+04  0.12745583263E+04  0.00000000000E+00 0. -1.
         -2   -1    0    0    0  501 -0.00000000000E+00 -0.00000000000E+00 -0.35672537172E+02  0.35672537172E+02  0.00000000000E+00 0.  1.
         23    2    1    2    0    0 -0.14594627069E+03  0.10911748660E+03  0.59034877089E+03  0.62937260046E+03  0.11996357410E+03 0.  0.
        -24    2    1    2    0    0  0.10448820733E+03 -0.87468021582E+02  0.51836991307E+03  0.54254360139E+03  0.84129378699E+02 0.  0.
         11    1    4    4    0    0  0.10129322743E+03 -0.49302544047E+02  0.45284074594E+03  0.46664311841E+03  0.00000000000E+00 0. -1.
        -12    1    4    4    0    0  0.31949799014E+01 -0.38165477535E+02  0.65529167128E+02  0.75900482979E+02  0.00000000000E+00 0.  1.
        -11    1    3    3    0    0 -0.13704038110E+03  0.65477734060E+02  0.54516972731E+03  0.56593058875E+03  0.00000000000E+00 0. -1.
         11    1    3    3    0    0 -0.89058895868E+01  0.43639752536E+02  0.45179043574E+02  0.63442011704E+02  0.00000000000E+00 0.  1.
         21    1    1    2  502  501  0.41458063357E+02 -0.21649465014E+02  0.13016710520E+03  0.13831466166E+03  0.00000000000E+00 0. -1.
<scales pt_clust_5="13000.00000" pt_clust_6="13000.00000" pt_clust_7="13000.00000" pt_clust_8="13000.00000" pt_clust_9="46.77040"></scales>
<clustering>
<clus scale="   46.770">  2  9  1 -1</clus>
<clus scale="   84.129">  5  6 -1 -1</clus>
<clus scale="  119.964">  7  8 -1 -1</clus>
<clus scale="  175.297">  1  5  2 -1</clus>
<clus scale="  175.297">  1  5  2 -1</clus>
</clustering>
</event>
<event>
 9    1  0.1973774E-005  0.9448259E+02  0.7546771E-02  0.1297850E+00
         -2   -1    0    0    0  501 -0.00000000000E+00  0.00000000000E+00  0.11605050351E+03  0.11605050351E+03  0.00000000000E+00 0.  1.
          1   -1    0    0  502    0  0.00000000000E+00 -0.00000000000E+00 -0.18025400784E+03  0.18025400784E+03  0.00000000000E+00 0. -1.
        -24    2    1    2    0    0  0.16348195195E+02 -0.24673198013E+02  0.75832018113E+02  0.11440319821E+03  0.80383870291E+02 0.  0.
         23    2    1    2    0    0  0.36024216557E+01  0.27640116130E+02 -0.10236301532E+03  0.13916903602E+03  0.90071528349E+02 0.  0.
         13    1    3    3    0    0 -0.27550777995E+02  0.82836926616E+01  0.38317424103E+02  0.47915445548E+02  0.00000000000E+00 0. -1.
        -14    1    3    3    0    0  0.43898973189E+02 -0.32956890675E+02  0.37514594010E+02  0.66487752660E+02  0.00000000000E+00 0.  1.
        -11    1    4    4    0    0  0.37207779428E+02  0.16499457704E+02 -0.12491883376E+02  0.42575792474E+02  0.00000000000E+00 0.  1.
         11    1    4    4    0    0 -0.33605357772E+02  0.11140658426E+02 -0.89871131947E+02  0.96593243545E+02  0.00000000000E+00 0. -1.
         21    1    1    2  502  501 -0.19950616850E+02 -0.29669181169E+01 -0.37672507115E+02  0.42732277123E+02  0.00000000000E+00 0. -1.
<scales pt_clust_5="13000.00000" pt_clust_6="13000.00000" pt_clust_7="13000.00000" pt_clust_8="13000.00000" pt_clust_9="20.17002"></scales>
<clustering>
<clus scale="   20.170">  2  9  1 -1</clus>
<clus scale="   80.384">  5  6 -1 -1</clus>
<clus scale="   85.297">  1  5  2 -1</clus>
<clus scale="   90.072">  7  8 -1 -1</clus>
<clus scale="   20.170">  2  5  1 -1</clus>
</clustering>
</event>
<event>
 9    1  0.1973774E-005  0.1150704E+03  0.7546771E-02  0.1255200E+00
          1   -1    0    0  502    0  0.00000000000E+00  0.00000000000E+00  0.21955182178E+03  0.21955182178E+03  0.00000000000E+00 0. -1.
         -2   -1    0    0    0  501 -0.00000000000E+00 -0.00000000000E+00 -0.12154667518E+03  0.12154667518E+03  0.00000000000E+00 0.  1.
        -24    2    1    2    0    0  0.23230686210E+02  0.80521122040E+02 -0.44196315147E+02  0.12430309386E+03  0.80465079351E+02 0.  0.
         23    2    1    2    0    0 -0.33164309099E+02 -0.32619553947E+02  0.53399912277E+02  0.11541023515E+03  0.91126642915E+02 0.  0.
         11    1    3    3    0    0  0.22624605482E+02 -0.10624308008E+02 -0.82090191892E+01  0.26308490833E+02  0.00000000000E+00 0. -1.
        -12    1    3    3    0    0  0.60608072799E+00  0.91145430049E+02 -0.35987295958E+02  0.97994603030E+02  0.00000000000E+00 0.  1.
        -11    1    4    4    0    0 -0.22082421323E+01  0.29112576327E+02  0.18908658329E+01  0.29257371846E+02  0.00000000000E+00 0.  1.
         11    1    4    4    0    0 -0.30956066967E+02 -0.61732130275E+02  0.51509046444E+02  0.86152863306E+02  0.00000000000E+00 0. -1.
         21    1    1    2  502  501  0.99336228888E+01 -0.47901568093E+02  0.88801549472E+02  0.10138516794E+03  0.00000000000E+00 0. -1.
<scales pt_clust_5="13000.00000" pt_clust_6="13000.00000" pt_clust_7="13000.00000" pt_clust_8="13000.00000" pt_clust_9="48.92072"></scales>
<clustering>
<clus scale="   48.921">  1  9  2 -1</clus>
<clus scale="   80.465">  5  6 -1 -1</clus>
<clus scale="   91.127">  7  8 -1 -1</clus>
<clus scale="  106.826">  2  5  1 -1</clus>
<clus scale="   48.921">  1  5  2 -1</clus>
</clustering>
</event>
<event>
 9    1  0.1973774E-005  0.4409895E+03  0.7546771E-02  0.1030444E+00
          1   -1    0    0  502    0  0.00000000000E+00  0.00000000000E+00  0.16145866203E+04  0.16145866203E+04  0.00000000000E+00 0. -1.
         -2   -1    0    0    0  501 -0.00000000000E+00 -0.00000000000E+00 -0.28100270686E+03  0.28100270686E+03  0.00000000000E+00 0.  1.
        -24    2    1    2    0    0  0.24767824101E+03 -0.70570840401E+02  0.12357380439E+04  0.12648517142E+04  0.80477270323E+02 0.  0.
         23    2    1    2    0    0  0.81379331958E+02 -0.58995401675E+02  0.22029024919E+03  0.25649314267E+03  0.84604286298E+02 0.  0.
         13    1    3    3    0    0  0.24039457298E+03 -0.77010063358E+02  0.10924668355E+04  0.11212510367E+04  0.00000000000E+00 0. -1.
        -14    1    3    3    0    0  0.72836680309E+01  0.64392229567E+01  0.14327120842E+03  0.14360067749E+03  0.00000000000E+00 0.  1.
        -11    1    4    4    0    0  0.21355218901E+02  0.21840673393E+02  0.56597658330E+02  0.64314503162E+02  0.00000000000E+00 0.  1.
         11    1    4    4    0    0  0.60024113057E+02 -0.80836075068E+02  0.16369259086E+03  0.19217863951E+03  0.00000000000E+00 0. -1.
         21    1    1    2  502  501 -0.32905757297E+03  0.12956624208E+03 -0.12244437971E+03  0.37424447028E+03  0.00000000000E+00 0.  1.
<scales pt_clust_5="13000.00000" pt_clust_6="13000.00000" pt_clust_7="13000.00000" pt_clust_8="13000.00000" pt_clust_9="353.64714"></scales>
<clustering>
<clus scale="   80.477">  5  6 -1 -1</clus>
<clus scale="   84.604">  7  8 -1 -1</clus>
<clus scale="  127.846">  5  7 -1 -1</clus>
<clus scale="  353.647">  2  9  1 -1</clus>
<clus scale="  440.990">  1  5  2 -1</clus>
</clustering>
</event>
<event>
 9    1  0.1973774E-005  0.1353052E+03  0.7546771E-02  0.1221986E+00
         -2   -1    0    0    0  501 -0.00000000000E+00  0.00000000000E+00  0.40328144581E+03  0.40328144581E+03  0.00000000000E+00 0.  1.
          1   -1    0    0  502    0  0.00000000000E+00 -0.00000000000E+00 -0.80038507366E+02  0.80038507366E+02  0.00000000000E+00 0. -1.
        -24    2    1    2    0    0 -0.34741000269E+02  0.95185577189E+02  0.29274346085E+03  0.32019084822E+03  0.80970452689E+02 0.  0.
         23    2    1    2    0    0  0.12868852109E+02 -0.99449365704E+02  0.36898512503E+02  0.13994466178E+03  0.90372697435E+02 0.  0.
         13    1    3    3    0    0 -0.18477536412E+02  0.71045185353E+02  0.93706450328E+02  0.11903670252E+03  0.00000000000E+00 0. -1.
        -14    1    3    3    0    0 -0.16263463857E+02  0.24140391836E+02  0.19903701052E+03  0.20115414570E+03  0.00000000000E+00 0.  1.
        -11    1    4    4    0    0  0.36372671421E+02 -0.40891996754E+01  0.68544107289E+01  0.37238095101E+02  0.00000000000E+00 0.  1.
         11    1    4    4    0    0 -0.23503819312E+02 -0.95360166028E+02  0.30044101774E+02  0.10270656668E+03  0.00000000000E+00 0. -1.
         21    1    1    2  502  501  0.21872148160E+02  0.42637885147E+01 -0.63990349114E+01  0.23184443177E+02  0.00000000000E+00 0.  1.
<scales pt_clust_5="13000.00000" pt_clust_6="13000.00000" pt_clust_7="13000.00000" pt_clust_8="13000.00000" pt_clust_9="22.28387"></scales>
<clustering>
<clus scale="   22.284">  2  9  1 -1</clus>
<clus scale="   80.970">  5  6 -1 -1</clus>
<clus scale="   90.373">  7  8 -1 -1</clus>
<clus scale="  129.215">  1  5  2 -1</clus>
<clus scale="   22.284">  2  5  1 -1</clus>
</clustering>
</event>
<event>
 9    1  0.1973774E-005  0.9323859E+02  0.7546771E-02  0.1300358E+00
         -4   -1    0    0    0  501 -0.00000000000E+00  0.00000000000E+00  0.25036269698E+03  0.25036269698E+03  0.00000000000E+00 0.  1.
          3   -1    0    0  502    0  0.00000000000E+00 -0.00000000000E+00 -0.60362973026E+02  0.60362973026E+02  0.00000000000E+00 0. -1.
        -24    2    1    2    0    0 -0.88166043511E+01 -0.25356824082E+02  0.17466372962E+03  0.19464124670E+03  0.81591025446E+02 0.  0.
         23    2    1    2    0    0 -0.76398388775E+01  0.10995430811E+02  0.20496952565E+02  0.93641169754E+02  0.90384052640E+02 0.  0.
         13    1    3    3    0    0 -0.13291214603E+02 -0.54309527996E+02  0.10251126808E+03  0.11676789499E+03  0.00000000000E+00 0. -1.
        -14    1    3    3    0    0  0.44746102520E+01  0.28952703914E+02  0.72152461533E+02  0.77873351707E+02  0.00000000000E+00 0.  1.
        -13    1    4    4    0    0  0.36877565459E+02 -0.85393140907E+01  0.24130850788E+02  0.44890674745E+02  0.00000000000E+00 0.  1.
         13    1    4    4    0    0 -0.44517404337E+02  0.19534744902E+02 -0.36338982231E+01  0.48750495008E+02  0.00000000000E+00 0. -1.
         21    1    1    2  502  501  0.16456443229E+02  0.14361393271E+02 -0.51609582235E+01  0.22443253557E+02  0.00000000000E+00 0. -1.
<scales pt_clust_5="13000.00000" pt_clust_6="13000.00000" pt_clust_7="13000.00000" pt_clust_8="13000.00000" pt_clust_9="21.84180"></scales>
<clustering>
<clus scale="   21.842">  2  9  1 -1</clus>
<clus scale="   81.591">  5  6 -1 -1</clus>
<clus scale="   84.742">  1  5  2 -1</clus>
<clus scale="   90.384">  7  8 -1 -1</clus>
<clus scale="   21.842">  2  5  1 -1</clus>
</clustering>
</event>
<event>
 9    1  0.1973774E-005  0.2183720E+03  0.7546771E-02  0.1136358E+00
          1   -1    0    0  502    0  0.00000000000E+00  0.00000000000E+00  0.15413999402E+04  0.15413999402E+04  0.00000000000E+00 0. -1.
         -2   -1    0    0    0  501 -0.00000000000E+00 -0.00000000000E+00 -0.12758847451E+03  0.12758847451E+03  0.00000000000E+00 0.  1.
         23    2    1    2    0    0 -0.19353305140E+03 -0.90062665049E+02  0.20753557862E+01  0.23428136983E+03  0.96525268858E+02 0.  0.
        -24    2    1    2    0    0  0.10830174516E+03  0.17960407117E+02  0.59557638863E+03  0.61094749149E+03  0.80583859653E+02 0.  0.
         11    1    4    4    0    0  0.45725563759E+02  0.45448686891E+02  0.35697404207E+03  0.36274905518E+03  0.00000000000E+00 0. -1.
        -12    1    4    4    0    0  0.62576181405E+02 -0.27488279773E+02  0.23860234656E+03  0.24819843631E+03  0.00000000000E+00 0.  1.
        -11    1    3    3    0    0 -0.13227659074E+03 -0.10693527675E+03  0.92122067837E+01  0.17034410652E+03  0.00000000000E+00 0.  1.
         11    1    3    3    0    0 -0.61256460660E+02  0.16872611698E+02 -0.71368509975E+01  0.63937263315E+02  0.00000000000E+00 0. -1.
         21    1    1    2  502  501  0.85231306238E+02  0.72102257932E+02  0.81615972125E+03  0.82375955336E+03  0.00000000000E+00 0. -1.
<scales pt_clust_5="13000.00000" pt_clust_6="13000.00000" pt_clust_7="13000.00000" pt_clust_8="13000.00000" pt_clust_9="111.63831"></scales>
<clustering>
<clus scale="   80.584">  5  6 -1 -1</clus>
<clus scale="   96.525">  7  8 -1 -1</clus>
<clus scale="  111.638">  1  9  2 -1</clus>
<clus scale="  211.809">  1  5  2 -1</clus>
<clus scale="  111.638">  1  5  2 -1</clus>
</clustering>
</event>
<event>
 9    1  0.1973774E-005  0.1067389E+03  0.7546771E-02  0.1270910E+00
         -2   -1    0    0    0  501 -0.00000000000E+00  0.00000000000E+00  0.14504928830E+03  0.14504928830E+03  0.00000000000E+00 0.  1.
          1   -1    0    0  502    0  0.00000000000E+00 -0.00000000000E+00 -0.14843951097E+03  0.14843951097E+03  0.00000000000E+00 0. -1.
        -24    2    1    2    0    0 -0.54702104048E+02  0.18115494011E+02  0.88279842839E+02  0.13188180062E+03  0.79240061671E+02 0.  0.
         23    2    1    2    0    0  0.51326022531E+02 -0.40006921134E+02 -0.71444620120E+02  0.13161197990E+03  0.89344642719E+02 0.  0.
         13    1    3    3    0    0 -0.55993979780E+02  0.21658200751E+02  0.19682262820E+02  0.63180652902E+02  0.00000000000E+00 0. -1.
        -14    1    3    3    0    0  0.12918757317E+01 -0.35427067409E+01  0.68597580018E+02  0.68701147722E+02  0.00000000000E+00 0.  1.
        -13    1    4    4    0    0  0.93772993688E+00 -0.47691475420E+02 -0.51356056711E+01  0.47976354705E+02  0.00000000000E+00 0.  1.
         13    1    4    4    0    0  0.50388292594E+02  0.76845542858E+01 -0.66309014449E+02  0.83635625198E+02  0.00000000000E+00 0. -1.
         21    1    1    2  502  501  0.33760815174E+01  0.21891427124E+02 -0.20225445393E+02  0.29995018741E+02  0.00000000000E+00 0.  1.
<scales pt_clust_5="13000.00000" pt_clust_6="13000.00000" pt_clust_7="13000.00000" pt_clust_8="13000.00000" pt_clust_9="22.15023"></scales>
<clustering>
<clus scale="   22.150">  2  9  1 -1</clus>
<clus scale="   79.240">  5  6 -1 -1</clus>
<clus scale="   89.345">  7  8 -1 -1</clus>
<clus scale="   98.436">  1  5  2 -1</clus>
<clus scale="   22.150">  2  5  1 -1</clus>
</clustering>
</event>
<event>
 9    1  0.1973774E-005  0.1578622E+03  0.7546771E-02  0.1191405E+00
         -2   -1    0    0    0  501 -0.00000000000E+00  0.00000000000E+00  0.76683579781E+02  0.76683579781E+02  0.00000000000E+00 0.  1.
          1   -1    0    0  502    0  0.00000000000E+00 -0.00000000000E+00 -0.60449223655E+03  0.60449223655E+03  0.00000000000E+00 0. -1.
         23    2    1    2    0    0  0.13146053612E+03 -0.35388657376E+02 -0.46799045351E+02  0.16960665205E+03  0.89677400417E+02 0.  0.
        -24    2    1    2    0    0 -0.10153808450E+03  0.24559626553E+02 -0.43247911333E+03  0.45353615415E+03  0.87998305672E+02 0.  0.
         11    1    4    4    0    0 -0.91132049401E+02  0.24430796502E+02 -0.43295721889E+03  0.44311834495E+03  0.00000000000E+00 0. -1.
        -12    1    4    4    0    0 -0.10406035094E+02  0.12883005087E+00  0.47810556437E+00  0.10417809199E+02  0.00000000000E+00 0.  1.
        -13    1    3    3    0    0  0.59956516892E+02 -0.16708413248E+02 -0.68528162493E+02  0.92574640403E+02  0.00000000000E+00 0. -1.
         13    1    3    3    0    0  0.71504019227E+02 -0.18680244128E+02  0.21729117142E+02  0.77032011645E+02  0.00000000000E+00 0.  1.
         21    1    1    2  502  501 -0.29922451624E+02  0.10829030823E+02 -0.48530498092E+02  0.58033010130E+02  0.00000000000E+00 0. -1.
<scales pt_clust_5="13000.00000" pt_clust_6="13000.00000" pt_clust_7="13000.00000" pt_clust_8="13000.00000" pt_clust_9="31.82171"></scales>
<clustering>
<clus scale="   31.822">  2  9  1 -1</clus>
<clus scale="   87.998">  5  6 -1 -1</clus>
<clus scale="   89.677">  7  8 -1 -1</clus>
<clus scale="  156.914">  2  5  1 -1</clus>
<clus scale="   31.822">  2  5  1 -1</clus>
</clustering>
</event>
<event>
 9    1  0.1973774E-005  0.1235486E+03  0.7546771E-02  0.1239719E+00
         -2   -1    0    0    0  501 -0.00000000000E+00  0.00000000000E+00  0.73444777525E+03  0.73444777525E+03  0.00000000000E+00 0.  1.
          1   -1    0    0  502    0  0.00000000000E+00 -0.00000000000E+00 -0.41486258625E+02  0.41486258625E+02  0.00000000000E+00 0. -1.
         23    2    1    2    0    0 -0.31676926313E+02  0.27096755958E+02  0.24019048132E+03  0.26000716768E+03  0.90413483981E+02 0.  0.
        -24    2    1    2    0    0  0.65856873663E+02 -0.10742839472E+03  0.21342024165E+03  0.26115197848E+03  0.82305337103E+02 0.  0.
         13    1    4    4    0    0 -0.13830052773E+02 -0.33965369167E+02  0.88323842465E+02  0.95634814844E+02  0.00000000000E+00 0. -1.
        -14    1    4    4    0    0  0.79686926436E+02 -0.73463025554E+02  0.12509639919E+03  0.16551716364E+03  0.00000000000E+00 0.  1.
        -13    1    3    3    0    0 -0.71474164597E-01  0.56248179510E+02  0.12578028019E+03  0.13778440293E+03  0.00000000000E+00 0. -1.
         13    1    3    3    0    0 -0.31605452148E+02 -0.29151423552E+02  0.11441020113E+03  0.12222276475E+03  0.00000000000E+00 0.  1.
         21    1    1    2  502  501 -0.34179947350E+02  0.80331638763E+02  0.23935079365E+03  0.25477488772E+03  0.00000000000E+00 0.  1.
<scales pt_clust_5="13000.00000" pt_clust_6="13000.00000" pt_clust_7="13000.00000" pt_clust_8="13000.00000" pt_clust_9="87.30086"></scales>
<clustering>
<clus scale="   82.305">  5  6 -1 -1</clus>
<clus scale="   87.301">  1  9  2 -1</clus>
<clus scale="   90.413">  7  8 -1 -1</clus>
<clus scale="  117.745">  2  5  1 -1</clus>
<clus scale="  117.745">  2  5  1 -1</clus>
</clustering>
</event>
<event>
 9    1  0.1973774E-005  0.1068225E+03  0.7546771E-02  0.1269252E+00
          1   -1    0    0  502    0  0.00000000000E+00  0.00000000000E+00  0.46914447139E+03  0.46914447139E+03  0.00000000000E+00 0. -1.
         -2   -1    0    0    0  501 -0.00000000000E+00 -0.00000000000E+00 -0.14749351028E+03  0.14749351028E+03  0.00000000000E+00 0.  1.
         23    2    1    2    0    0 -0.24432377404E+02 -0.46122395414E+02 -0.11419441469E+03  0.15583571625E+03  0.92304873584E+02 0.  0.
        -24    2    1    2    0    0  0.37955572944E+02  0.64377289393E+02  0.26493200648E+03  0.28838562531E+03  0.85978136305E+02 0.  0.
         13    1    4    4    0    0  0.35041222060E+02  0.36584118214E+02  0.25296163403E+03  0.25798424998E+03  0.00000000000E+00 0. -1.
        -14    1    4    4    0    0  0.29143508843E+01  0.27793171180E+02  0.11970372450E+02  0.30401375329E+02  0.00000000000E+00 0.  1.
        -11    1    3    3    0    0 -0.49045724975E+02 -0.58678756511E+02 -0.96060072526E+02  0.12278524805E+03  0.00000000000E+00 0.  1.
         11    1    3    3    0    0  0.24613347570E+02  0.12556361096E+02 -0.18134342163E+02  0.33050468201E+02  0.00000000000E+00 0. -1.
         21    1    1    2  502  501 -0.13523195540E+02 -0.18254893979E+02  0.17091336933E+03  0.17241664011E+03  0.00000000000E+00 0.  1.
<scales pt_clust_5="13000.00000" pt_clust_6="13000.00000" pt_clust_7="13000.00000" pt_clust_8="13000.00000" pt_clust_9="22.71823"></scales>
<clustering>
<clus scale="   22.718">  1  9  2 -1</clus>
<clus scale="   85.978">  5  6 -1 -1</clus>
<clus scale="   92.305">  7  8 -1 -1</clus>
<clus scale="  101.406">  1  5  2 -1</clus>
<clus scale="   22.718">  1  5  2 -1</clus>
</clustering>
</event>
<event>
 9    1  0.1973774E-005  0.1605611E+03  0.7546771E-02  0.1190203E+00
         -2   -1    0    0    0  501 -0.00000000000E+00  0.00000000000E+00  0.30363078424E+02  0.30363078424E+02  0.00000000000E+00 0.  1.
          1   -1    0    0  502    0  0.00000000000E+00 -0.00000000000E+00 -0.10747588065E+04  0.10747588065E+04  0.00000000000E+00 0. -1.
         23    2    1    2    0    0  0.11809804456E+03  0.31224683565E+02 -0.32214213535E+03  0.35654264175E+03  0.91787640926E+02 0.  0.
        -24    2    1    2    0    0 -0.14410123429E+03 -0.34723464621E+02 -0.57114711802E+03  0.59521179538E+03  0.78084353213E+02 0.  0.
         13    1    4    4    0    0 -0.11233837343E+03 -0.11451019919E+02 -0.51095718829E+03  0.52328604441E+03  0.00000000000E+00 0. -1.
        -14    1    4    4    0    0 -0.31762860859E+02 -0.23272444702E+02 -0.60189929723E+02  0.71925750969E+02  0.00000000000E+00 0.  1.
        -13    1    3    3    0    0  0.40940111946E+02  0.36360277148E+02 -0.22914177999E+03  0.23559311929E+03  0.00000000000E+00 0. -1.
         13    1    3    3    0    0  0.77157932611E+02 -0.51355935833E+01 -0.93000355364E+02  0.12094952246E+03  0.00000000000E+00 0.  1.
         21    1    1    2  502  501  0.26003189733E+02  0.34987810560E+01 -0.15110647467E+03  0.15336744776E+03  0.00000000000E+00 0. -1.
<scales pt_clust_5="13000.00000" pt_clust_6="13000.00000" pt_clust_7="13000.00000" pt_clust_8="13000.00000" pt_clust_9="26.23752"></scales>
<clustering>
<clus scale="   26.238">  2  9  1 -1</clus>
<clus scale="   78.084">  5  6 -1 -1</clus>
<clus scale="   91.788">  7  8 -1 -1</clus>
<clus scale="  153.141">  2  5  1 -1</clus>
<clus scale="   26.238">  2  5  1 -1</clus>
</clustering>
</event>
<event>
 9    1  0.1973774E-005  0.9463439E+02  0.7546771E-02  0.1294585E+00
         -2   -1    0    0    0  501 -0.00000000000E+00  0.00000000000E+00  0.53129825958E+02  0.53129825958E+02  0.00000000000E+00 0.  1.
          1   -1    0    0  502    0  0.00000000000E+00 -0.00000000000E+00 -0.71158655342E+03  0.71158655342E+03  0.00000000000E+00 0. -1.
        -24    2    1    2    0    0  0.26347935051E+01  0.29982726390E+02 -0.38715206545E+01  0.91220191869E+02  0.86024582033E+02 0.  0.
         23    2    1    2    0    0 -0.44671974139E+02  0.43999646613E+01 -0.36004128546E+03  0.37398756393E+03  0.90675386796E+02 0.  0.
         13    1    3    3    0    0 -0.15411348417E+02  0.35720154095E+02 -0.36596702682E+02  0.53411213390E+02  0.00000000000E+00 0. -1.
        -14    1    3    3    0    0  0.18046141922E+02 -0.57374277053E+01  0.32725182027E+02  0.37808978479E+02  0.00000000000E+00 0.  1.
        -11    1    4    4    0    0 -0.65428023326E+02 -0.20003970001E+02 -0.26511420837E+03  0.27380016167E+03  0.00000000000E+00 0. -1.
         11    1    4    4    0    0  0.20756049187E+02  0.24403934662E+02 -0.94927077097E+02  0.10018740226E+03  0.00000000000E+00 0.  1.
         21    1    1    2  502  501  0.42037180634E+02 -0.34382691051E+02 -0.29454392134E+03  0.29950862358E+03  0.00000000000E+00 0.  1.
<scales pt_clust_5="13000.00000" pt_clust_6="13000.00000" pt_clust_7="13000.00000" pt_clust_8="13000.00000" pt_clust_9="54.30740"></scales>
<clustering>
<clus scale="   54.307">  2  9  1 -1</clus>
<clus scale="   86.025">  5  6 -1 -1</clus>
<clus scale="   90.188">  1  5  2 -1</clus>
<clus scale="   90.675">  7  8 -1 -1</clus>
<clus scale="   54.307">  2  5  1 -1</clus>
</clustering>
</event>
<event>
 9    1  0.1973774E-005  0.1120430E+03  0.7546771E-02  0.1273406E+00
         -2   -1    0    0    0  501 -0.00000000000E+00  0.00000000000E+00  0.54706096099E+03  0.54706096099E+03  0.00000000000E+00 0.  1.
          1   -1    0    0  502    0  0.00000000000E+00 -0.00000000000E+00 -0.15064877679E+03  0.15064877679E+03  0.00000000000E+00 0. -1.
        -24    2    1    2    0    0 -0.12566045395E+02 -0.54567501670E+01  0.48501091952E+03  0.49171165568E+03  0.79731290342E+02 0.  0.
         23    2    1    2    0    0  0.58505578046E+02 -0.24003042763E+02 -0.42848148300E+02  0.13478406472E+03  0.11104832987E+03 0.  0.
         11    1    3    3    0    0  0.14048921485E+02 -0.27213449855E+02  0.87267123615E+02  0.92485106433E+02  0.00000000000E+00 0. -1.
        -12    1    3    3    0    0 -0.26614966880E+02  0.21756699688E+02  0.39774379590E+03  0.39922654924E+03  0.00000000000E+00 0.  1.
        -13    1    4    4    0    0 -0.30436007896E+02  0.44277461742E+01  0.27330137377E+01  0.30877578871E+02  0.00000000000E+00 0.  1.
         13    1    4    4    0    0  0.88941585942E+02 -0.28430788937E+02 -0.45581162037E+02  0.10390648585E+03  0.00000000000E+00 0. -1.
         21    1    1    2  502  501 -0.45939532651E+02  0.29459792930E+02 -0.45750587009E+02  0.71214017380E+02  0.00000000000E+00 0.  1.
<scales pt_clust_5="13000.00000" pt_clust_6="13000.00000" pt_clust_7="13000.00000" pt_clust_8="13000.00000" pt_clust_9="54.57399"></scales>
<clustering>
<clus scale="   54.574">  2  9  1 -1</clus>
<clus scale="   79.731">  5  6 -1 -1</clus>
<clus scale="   81.111">  1  5  2 -1</clus>
<clus scale="  111.048">  7  8 -1 -1</clus>
<clus scale="   54.574">  2  5  1 -1</clus>
</clustering>
</event>
<event>
 9    1  0.1973774E-005  0.1016777E+03  0.7546771E-02  0.1280786E+00
         -2   -1    0    0    0  501 -0.00000000000E+00  0.00000000000E+00  0.11236040000E+03  0.11236040000E+03  0.00000000000E+00 0.  1.
          1   -1    0    0  502    0  0.00000000000E+00 -0.00000000000E+00 -0.17962585760E+03  0.17962585760E+03  0.00000000000E+00 0. -1.
         23    2    1    2    0    0  0.44268905739E+02  0.29967359588E+02  0.47560069080E+02  0.11399290384E+03  0.88739186938E+02 0.  0.
        -24    2    1    2    0    0 -0.49377012003E+02  0.89980540102E+01 -0.65917893810E+02  0.11525299387E+03  0.80118846605E+02 0.  0.
         11    1    4    4    0    0 -0.46419830193E+02 -0.27898730014E+02 -0.53713914135E+02  0.76277941393E+02  0.00000000000E+00 0. -1.
        -12    1    4    4    0    0 -0.29571818095E+01  0.36896784024E+02 -0.12203979675E+02  0.38975052476E+02  0.00000000000E+00 0.  1.
        -11    1    3    3    0    0  0.30985474556E+02 -0.12385583566E+02 -0.15567806510E+02  0.36821989535E+02  0.00000000000E+00 0. -1.
         11    1    3    3    0    0  0.13283431183E+02  0.42352943154E+02  0.63127875590E+02  0.77170914303E+02  0.00000000000E+00 0.  1.
         21    1    1    2  502  501  0.51081062635E+01 -0.38965413598E+02 -0.48907632874E+02  0.62740359896E+02  0.00000000000E+00 0. -1.
<scales pt_clust_5="13000.00000" pt_clust_6="13000.00000" pt_clust_7="13000.00000" pt_clust_8="13000.00000" pt_clust_9="39.29881"></scales>
<clustering>
<clus scale="   39.299">  2  9  1 -1</clus>
<clus scale="   80.119">  5  6 -1 -1</clus>
<clus scale="   88.739">  7  8 -1 -1</clus>
<clus scale="   94.248">  2  5  1 -1</clus>
<clus scale="   39.299">  2  5  1 -1</clus>
</clustering>
</event>
<event>
 9    1  0.1973774E-005  0.2538650E+03  0.7546771E-02  0.1153177E+00
         -2   -1    0    0    0  501 -0.00000000000E+00  0.00000000000E+00  0.16295090539E+03  0.16295090539E+03  0.00000000000E+00 0.  1.
          1   -1    0    0  502    0  0.00000000000E+00 -0.00000000000E+00 -0.51843346544E+03  0.51843346544E+03  0.00000000000E+00 0. -1.
         23    2    1    2    0    0 -0.20516649556E+03 -0.40858409701E+02 -0.19648741734E+03  0.30472042973E+03  0.10239401629E+03 0.  0.
        -24    2    1    2    0    0 -0.37033418860E+02 -0.18007283246E+02 -0.60905403702E+02  0.10880658120E+03  0.80210146185E+02 0.  0.
         13    1    4    4    0    0 -0.42623874018E+02 -0.22155485629E+02 -0.54003945784E+00  0.48041147180E+02  0.00000000000E+00 0. -1.
        -14    1    4    4    0    0  0.55904551577E+01  0.41482023827E+01 -0.60365364244E+02  0.60765434025E+02  0.00000000000E+00 0.  1.
        -11    1    3    3    0    0 -0.18682586834E+02 -0.38467624413E+02 -0.17432597094E+02  0.46181085092E+02  0.00000000000E+00 0.  1.
         11    1    3    3    0    0 -0.18648390873E+03 -0.23907852880E+01 -0.17905482025E+03  0.25853934463E+03  0.00000000000E+00 0. -1.
         21    1    1    2  502  501  0.24219991442E+03  0.58865692947E+02 -0.98089739009E+02  0.26785735990E+03  0.00000000000E+00 0.  1.
<scales pt_clust_5="13000.00000" pt_clust_6="13000.00000" pt_clust_7="13000.00000" pt_clust_8="13000.00000" pt_clust_9="232.29913"></scales>
<clustering>
<clus scale="   80.210">  5  6 -1 -1</clus>
<clus scale="   90.163">  2  5  1 -1</clus>
<clus scale="  102.394">  7  8 -1 -1</clus>
<clus scale="  232.299">  1  9  2 -1</clus>
<clus scale="   90.163">  2  5  1 -1</clus>
</clustering>
</event>
<event>
 9    1  0.1973774E-005  0.1018130E+03  0.7546771E-02  0.1280620E+00
         -2   -1    0    0    0  501 -0.00000000000E+00  0.00000000000E+00  0.71038137021E+02  0.71038137021E+02  0.00000000000E+00 0.  1.
          1   -1    0    0  502    0  0.00000000000E+00 -0.00000000000E+00 -0.27553015549E+03  0.27553015549E+03  0.00000000000E+00 0. -1.
        -24    2    1    2    0    0  0.10356400656E+02  0.47643994749E+02  0.87795347151E+01  0.95215591089E+02  0.81312503875E+02 0.  0.
         23    2    1    2    0    0 -0.33272250758E+02 -0.35284293988E+02 -0.13847344238E+03  0.17215260188E+03  0.90053317620E+02 0.  0.
         11    1    3    3    0    0  0.31415473902E+02 -0.27461583789E+00 -0.18222724239E+02  0.36319073406E+02  0.00000000000E+00 0. -1.
        -12    1    3    3    0    0 -0.21059073246E+02  0.47918610587E+02  0.27002258954E+02  0.58896517683E+02  0.00000000000E+00 0.  1.
        -11    1    4    4    0    0 -0.18080767243E+02 -0.59489259887E+02 -0.51920132119E+02  0.81003619088E+02  0.00000000000E+00 0.  1.
         11    1    4    4    0    0 -0.15191483515E+02  0.24204965900E+02 -0.86553310265E+02  0.91148982789E+02  0.00000000000E+00 0. -1.
         21    1    1    2  502  501  0.22915850102E+02 -0.12359700761E+02 -0.74798110802E+02  0.79200099547E+02  0.00000000000E+00 0.  1.
<scales pt_clust_5="13000.00000" pt_clust_6="13000.00000" pt_clust_7="13000.00000" pt_clust_8="13000.00000" pt_clust_9="26.03648"></scales>
<clustering>
<clus scale="   26.036">  2  9  1 -1</clus>
<clus scale="   81.313">  5  6 -1 -1</clus>
<clus scale="   90.053">  7  8 -1 -1</clus>
<clus scale="   94.170">  1  5  2 -1</clus>
<clus scale="   26.036">  2  5  1 -1</clus>
</clustering>
</event>
<event>
 9    1  0.1973774E-005  0.9747800E+02  0.7546771E-02  0.1292164E+00
         -2   -1    0    0    0  501 -0.00000000000E+00  0.00000000000E+00  0.10587013128E+03  0.10587013128E+03  0.00000000000E+00 0.  1.
          1   -1    0    0  502    0  0.00000000000E+00 -0.00000000000E+00 -0.29497550503E+03  0.29497550503E+03  0.00000000000E+00 0. -1.
        -24    2    1    2    0    0 -0.39704150457E+02 -0.90539075040E+00  0.65749010067E+02  0.11342148869E+03  0.83452156807E+02 0.  0.
         23    2    1    2    0    0  0.18725551098E+02 -0.86136979605E+01 -0.24260183093E+03  0.26133124182E+03  0.94939599346E+02 0.  0.
         13    1    3    3    0    0  0.70786413690E+01 -0.29928888266E+02  0.45171448300E+02  0.54647097434E+02  0.00000000000E+00 0. -1.
        -14    1    3    3    0    0 -0.46782791827E+02  0.29023497516E+02  0.20577561767E+02  0.58774391255E+02  0.00000000000E+00 0.  1.
        -11    1    4    4    0    0 -0.28195919297E+02  0.25979692281E+02 -0.10968168814E+03  0.11618961653E+03  0.00000000000E+00 0. -1.
         11    1    4    4    0    0  0.46921470396E+02 -0.34593390242E+02 -0.13292014279E+03  0.14514162529E+03  0.00000000000E+00 0.  1.
         21    1    1    2  502  501  0.20978599359E+02  0.95190887109E+01 -0.12252552892E+02  0.26092905805E+02  0.00000000000E+00 0. -1.
<scales pt_clust_5="13000.00000" pt_clust_6="13000.00000" pt_clust_7="13000.00000" pt_clust_8="13000.00000" pt_clust_9="23.03725"></scales>
<clustering>
<clus scale="   23.037">  1  9  2 -1</clus>
<clus scale="   83.452">  5  6 -1 -1</clus>
<clus scale="   86.329">  1  5  2 -1</clus>
<clus scale="   94.940">  7  8 -1 -1</clus>
<clus scale="   97.478">  2  5  1 -1</clus>
</clustering>
</event>
<event>
 9    1  0.1973774E-005  0.9997729E+02  0.7546771E-02  0.1287365E+00
         -2   -1    0    0    0  501 -0.00000000000E+00  0.00000000000E+00  0.15924462104E+03  0.15924462104E+03  0.00000000000E+00 0.  1.
          1   -1    0    0  502    0  0.00000000000E+00 -0.00000000000E+00 -0.13565528754E+03  0.13565528754E+03  0.00000000000E+00 0. -1.
        -24    2    1    2    0    0 -0.17292014961E+02 -0.23973123582E+02  0.75082894817E+02  0.11397443773E+03  0.80492278673E+02 0.  0.
         23    2    1    2    0    0 -0.13158773068E+02  0.69417473394E+02 -0.45130936972E+02  0.12585349604E+03  0.93863528973E+02 0.  0.
         11    1    3    3    0    0 -0.21454868213E+02 -0.19337423020E+01 -0.11579388976E+02  0.24456757316E+02  0.00000000000E+00 0. -1.
        -12    1    3    3    0    0  0.41628532522E+01 -0.22039381280E+02  0.86662283793E+02  0.89517680414E+02  0.00000000000E+00 0.  1.
        -11    1    4    4    0    0  0.36645330792E+02  0.93361061006E+01 -0.24753351561E+02  0.45197030427E+02  0.00000000000E+00 0.  1.
         11    1    4    4    0    0 -0.49804103860E+02  0.60081367293E+02 -0.20377585411E+02  0.80656465608E+02  0.00000000000E+00 0. -1.
         21    1    1    2  502  501  0.30450788029E+02 -0.45444349812E+02 -0.63626243545E+01  0.55071974815E+02  0.00000000000E+00 0.  1.
<scales pt_clust_5="13000.00000" pt_clust_6="13000.00000" pt_clust_7="13000.00000" pt_clust_8="13000.00000" pt_clust_9="54.70319"></scales>
<clustering>
<clus scale="   54.703">  2  9  1 -1</clus>
<clus scale="   80.492">  5  6 -1 -1</clus>
<clus scale="   87.545">  1  5  2 -1</clus>
<clus scale="   93.864">  7  8 -1 -1</clus>
<clus scale="   54.703">  2  5  1 -1</clus>
</clustering>
</event>
<event>
 9    1  0.1973774E-005  0.9751795E+02  0.7546771E-02  0.1288343E+00
          3   -1    0    0  502    0  0.00000000000E+00  0.00000000000E+00  0.28167321355E+03  0.28167321355E+03  0.00000000000E+00 0. -1.
         -4   -1    0    0    0  501 -0.00000000000E+00 -0.00000000000E+00 -0.12255354120E+03  0.12255354120E+03  0.00000000000E+00 0.  1.
        -24    2    1    2    0    0 -0.48904199082E+02  0.86718288778E+01 -0.84556233589E+02  0.12685878772E+03  0.80477164949E+02 0.  0.
         23    2    1    2    0    0  0.11134802455E+02 -0.25313115394E+02  0.15244621300E+03  0.17723647044E+03  0.86070790384E+02 0.  0.
         13    1    3    3    0    0 -0.21002968563E+02  0.16194781822E+02  0.97249492060E+01  0.28248367807E+02  0.00000000000E+00 0. -1.
        -14    1    3    3    0    0 -0.27901230519E+02 -0.75229529437E+01 -0.94281182795E+02  0.98610419909E+02  0.00000000000E+00 0.  1.
        -11    1    4    4    0    0 -0.19294797500E+02 -0.48053167050E+02  0.98128018729E+02  0.11095271125E+03  0.00000000000E+00 0.  1.
         11    1    4    4    0    0  0.30429599955E+02  0.22740051656E+02  0.54318194274E+02  0.66283759187E+02  0.00000000000E+00 0. -1.
         21    1    1    2  502  501  0.37769396628E+02  0.16641286516E+02  0.91229692933E+02  0.10013149660E+03  0.00000000000E+00 0. -1.
<scales pt_clust_5="13000.00000" pt_clust_6="13000.00000" pt_clust_7="13000.00000" pt_clust_8="13000.00000" pt_clust_9="41.27299"></scales>
<clustering>
<clus scale="   41.273">  1  9  2 -1</clus>
<clus scale="   80.477">  5  6 -1 -1</clus>
<clus scale="   86.071">  7  8 -1 -1</clus>
<clus scale="   92.618">  2  5  1 -1</clus>
<clus scale="   41.273">  1  5  2 -1</clus>
</clustering>
</event>
<event>
 9    1  0.1973774E-005  0.1878453E+03  0.7546771E-02  0.1160655E+00
         -4   -1    0    0    0  501 -0.00000000000E+00  0.00000000000E+00  0.52803089846E+03  0.52803089846E+03  0.00000000000E+00 0.  1.
          3   -1    0    0  502    0  0.00000000000E+00 -0.00000000000E+00 -0.76502344121E+02  0.76502344121E+02  0.00000000000E+00 0. -1.
        -24    2    1    2    0    0 -0.16235943723E+03  0.80205595739E+02  0.25935727369E+03  0.32610215281E+03  0.79264709723E+02 0.  0.
         23    2    1    2    0    0  0.14114398051E+03 -0.81173418545E+02  0.16772715627E+03  0.24604980657E+03  0.76794278760E+02 0.  0.
         11    1    3    3    0    0 -0.77275070896E+02  0.60955629755E+02  0.80671648687E+02  0.12725934261E+03  0.00000000000E+00 0. -1.
        -12    1    3    3    0    0 -0.85084366336E+02  0.19249965984E+02  0.17868562500E+03  0.19884281020E+03  0.00000000000E+00 0.  1.
        -11    1    4    4    0    0  0.94014965701E+02 -0.45416538410E+02  0.53283646897E+02  0.11722040251E+03  0.00000000000E+00 0. -1.
         11    1    4    4    0    0  0.47129014807E+02 -0.35756880135E+02  0.11444350937E+03  0.12882940406E+03  0.00000000000E+00 0.  1.
         21    1    1    2  502  501  0.21215456724E+02  0.96782280576E+00  0.24444124386E+02  0.32381283205E+02  0.00000000000E+00 0.  1.
<scales pt_clust_5="13000.00000" pt_clust_6="13000.00000" pt_clust_7="13000.00000" pt_clust_8="13000.00000" pt_clust_9="21.23752"></scales>
<clustering>
<clus scale="   21.238">  1  9  2 -1</clus>
<clus scale="   76.794">  7  8 -1 -1</clus>
<clus scale="   79.265">  5  6 -1 -1</clus>
<clus scale="  186.816">  2  7  1 -1</clus>
<clus scale="  186.816">  2  5  1 -1</clus>
</clustering>
</event>
<event>
 9    1  0.1973774E-005  0.1101715E+03  0.7546771E-02  0.1264811E+00
         -4   -1    0    0    0  501 -0.00000000000E+00  0.00000000000E+00  0.40157328877E+02  0.40157328877E+02  0.00000000000E+00 0.  1.
          3   -1    0    0  502    0  0.00000000000E+00 -0.00000000000E+00 -0.37377904883E+03  0.37377904883E+03  0.00000000000E+00 0. -1.
        -24    2    1    2    0    0 -0.48517188335E+02  0.50677562229E+02 -0.99230458191E+02  0.14476211036E+03  0.78659086480E+02 0.  0.
         23    2    1    2    0    0  0.25961363719E+02 -0.54051606620E+02 -0.20543362648E+03  0.23231380016E+03  0.90394459310E+02 0.  0.
         13    1    3    3    0    0 -0.55383225899E+02  0.18910130028E+02 -0.95557673652E+02  0.11205428917E+03  0.00000000000E+00 0. -1.
        -14    1    3    3    0    0  0.68660375637E+01  0.31767432201E+02 -0.36727845387E+01  0.32707821186E+02  0.00000000000E+00 0.  1.
        -13    1    4    4    0    0  0.21350953481E+02  0.19445812558E+02 -0.28085826471E+02  0.40284196519E+02  0.00000000000E+00 0.  1.
         13    1    4    4    0    0  0.46104102375E+01 -0.73497419178E+02 -0.17734780001E+03  0.19202960364E+03  0.00000000000E+00 0. -1.
         21    1    1    2  502  501  0.22555824616E+02  0.33740443915E+01 -0.28957635280E+02  0.36860467179E+02  0.00000000000E+00 0.  1.
<scales pt_clust_5="13000.00000" pt_clust_6="13000.00000" pt_clust_7="13000.00000" pt_clust_8="13000.00000" pt_clust_9="22.80678"></scales>
<clustering>
<clus scale="   22.807">  1  9  2 -1</clus>
<clus scale="   78.659">  5  6 -1 -1</clus>
<clus scale="   90.394">  7  8 -1 -1</clus>
<clus scale="  100.766">  1  5  2 -1</clus>
<clus scale="  110.171">  2  5  1 -1</clus>
</clustering>
</event>
<event>
 9    1  0.1973774E-005  0.1349447E+03  0.7546771E-02  0.1240199E+00
          1   -1    0    0  502    0  0.00000000000E+00  0.00000000000E+00  0.37901292425E+03  0.37901292425E+03  0.00000000000E+00 0. -1.
         -2   -1    0    0    0  501 -0.00000000000E+00 -0.00000000000E+00 -0.34508541136E+03  0.34508541136E+03  0.00000000000E+00 0.  1.
         23    2    1    2    0    0 -0.62340086815E+02 -0.81283346566E+02 -0.27721543967E+03  0.30934398221E+03  0.91389444071E+02 0.  0.
        -24    2    1    2    0    0  0.37820039463E+02 -0.10659000867E+02  0.30670777925E+03  0.31949523974E+03  0.80396372294E+02 0.  0.
         13    1    4    4    0    0  0.89430285295E+01  0.34571319193E+02  0.11475974818E+03  0.12018716102E+03  0.00000000000E+00 0. -1.
        -14    1    4    4    0    0  0.28877010933E+02 -0.45230320060E+02  0.19194803107E+03  0.19930807872E+03  0.00000000000E+00 0.  1.
        -11    1    3    3    0    0 -0.35522428910E+02 -0.14095243440E+02 -0.22049804911E+02  0.44121567741E+02  0.00000000000E+00 0. -1.
         11    1    3    3    0    0 -0.26817657905E+02 -0.67188103126E+02 -0.25516563476E+03  0.26522241447E+03  0.00000000000E+00 0.  1.
         21    1    1    2  502  501  0.24520047352E+02  0.91942347433E+02  0.44351733053E+01  0.95259113663E+02  0.00000000000E+00 0. -1.
<scales pt_clust_5="13000.00000" pt_clust_6="13000.00000" pt_clust_7="13000.00000" pt_clust_8="13000.00000" pt_clust_9="99.28770"></scales>
<clustering>
<clus scale="   80.396">  5  6 -1 -1</clus>
<clus scale="   89.485">  1  5  2 -1</clus>
<clus scale="   91.389">  7  8 -1 -1</clus>
<clus scale="   99.288">  1  9  2 -1</clus>
<clus scale="   89.485">  1  5  2 -1</clus>
</clustering>
</event>
<event>
 9    1  0.1973774E-005  0.1672451E+03  0.7546771E-02  0.1182325E+00
          1   -1    0    0  502    0  0.00000000000E+00  0.00000000000E+00  0.16289209855E+03  0.16289209855E+03  0.00000000000E+00 0. -1.
         -2   -1    0    0    0  501 -0.00000000000E+00 -0.00000000000E+00 -0.25907207520E+03  0.25907207520E+03  0.00000000000E+00 0.  1.
        -24    2    1    2    0    0 -0.57059468971E+02  0.13811166807E+03 -0.13250844447E+03  0.21496484941E+03  0.79503350670E+02 0.  0.
         23    2    1    2    0    0  0.52099927250E+02 -0.11351117360E+03 -0.96114010328E+01  0.15465189907E+03  0.90695324597E+02 0.  0.
         11    1    3    3    0    0 -0.42598513250E+02  0.66654890588E+02 -0.21183285877E+02  0.81891631873E+02  0.00000000000E+00 0. -1.
        -12    1    3    3    0    0 -0.14460955721E+02  0.71456777484E+02 -0.11132515860E+03  0.13307321753E+03  0.00000000000E+00 0.  1.
        -13    1    4    4    0    0  0.84834217893E+01 -0.99587129995E+02  0.17461234906E+02  0.10146161654E+03  0.00000000000E+00 0. -1.
         13    1    4    4    0    0  0.43616505461E+02 -0.13924043606E+02 -0.27072635939E+02  0.53190282530E+02  0.00000000000E+00 0.  1.
         21    1    1    2  502  501  0.49595417206E+01 -0.24600494471E+02  0.45939868860E+02  0.52347425277E+02  0.00000000000E+00 0. -1.
<scales pt_clust_5="13000.00000" pt_clust_6="13000.00000" pt_clust_7="13000.00000" pt_clust_8="13000.00000" pt_clust_9="25.09545"></scales>
<clustering>
<clus scale="   25.095">  1  9  2 -1</clus>
<clus scale="   79.503">  5  6 -1 -1</clus>
<clus scale="   90.695">  7  8 -1 -1</clus>
<clus scale="  161.450">  2  5  1 -1</clus>
<clus scale="   25.095">  1  5  2 -1</clus>
</clustering>
</event>
<event>
 9    1  0.1973774E-005  0.1108029E+03  0.7546771E-02  0.1261292E+00
         -2   -1    0    0    0  501 -0.00000000000E+00  0.00000000000E+00  0.10728507783E+03  0.10728507783E+03  0.00000000000E+00 0.  1.
          1   -1    0    0  502    0  0.00000000000E+00 -0.00000000000E+00 -0.78014810838E+03  0.78014810838E+03  0.00000000000E+00 0. -1.
        -24    2    1    2    0    0 -0.10919109091E+02 -0.56717593659E+02  0.59568369575E+02  0.12398057711E+03  0.92123180981E+02 0.  0.
         23    2    1    2    0    0  0.59405972367E+00 -0.51826750865E+02 -0.34217079010E+03  0.35824670450E+03  0.92593124373E+02 0.  0.
         11    1    3    3    0    0 -0.26205397770E+02  0.15781066079E+02  0.29510920598E+01  0.30732293491E+02  0.00000000000E+00 0. -1.
        -12    1    3    3    0    0  0.15286288679E+02 -0.72498659738E+02  0.56617277515E+02  0.93248283623E+02  0.00000000000E+00 0.  1.
        -11    1    4    4    0    0  0.22229011552E+02  0.19517702222E+02 -0.68748750171E+02  0.74842904171E+02  0.00000000000E+00 0. -1.
         11    1    4    4    0    0 -0.21634951829E+02 -0.71344453087E+02 -0.27342203993E+03  0.28340380033E+03  0.00000000000E+00 0.  1.
         21    1    1    2  502  501  0.10325049368E+02  0.10854434452E+03 -0.39026061003E+03  0.40520590459E+03  0.00000000000E+00 0. -1.
<scales pt_clust_5="13000.00000" pt_clust_6="13000.00000" pt_clust_7="13000.00000" pt_clust_8="13000.00000" pt_clust_9="61.56785"></scales>
<clustering>
<clus scale="   92.123">  5  6 -1 -1</clus>
<clus scale="   92.593">  7  8 -1 -1</clus>
<clus scale="  106.112">  2  7  1 -1</clus>
<clus scale="   61.568">  2  9  1 -1</clus>
<clus scale="  106.112">  2  5  1 -1</clus>
</clustering>
</event>
<event>
 9    1  0.1973774E-005  0.1436394E+03  0.7546771E-02  0.1220738E+00
         -2   -1    0    0    0  501 -0.00000000000E+00  0.00000000000E+00  0.29931672232E+03  0.29931672232E+03  0.00000000000E+00 0.  1.
          1   -1    0    0  502    0  0.00000000000E+00 -0.00000000000E+00 -0.12221377376E+03  0.12221377376E+03  0.00000000000E+00 0. -1.
        -24    2    1    2    0    0  0.89527876763E+01  0.85885499644E+02  0.19803518118E+03  0.22845614134E+03  0.74281922926E+02 0.  0.
         23    2    1    2    0    0  0.14757762393E+02 -0.68309598706E+02  0.24318558464E+02  0.13904902205E+03  0.11772529644E+03 0.  0.
         11    1    3    3    0    0  0.31489094444E+02  0.73991934246E+02  0.10655296961E+03  0.13349121595E+03  0.00000000000E+00 0. -1.
        -12    1    3    3    0    0 -0.22536306768E+02  0.11893565397E+02  0.91482211572E+02  0.94964925392E+02  0.00000000000E+00 0.  1.
        -13    1    4    4    0    0  0.21319408571E+02 -0.94736192153E+02 -0.72308461653E+01  0.97374269814E+02  0.00000000000E+00 0. -1.
         13    1    4    4    0    0 -0.65616461781E+01  0.26426593447E+02  0.31549404630E+02  0.41674752240E+02  0.00000000000E+00 0.  1.
         21    1    1    2  502  501 -0.23710550069E+02 -0.17575900937E+02 -0.45250791087E+02  0.54025332691E+02  0.00000000000E+00 0. -1.
<scales pt_clust_5="13000.00000" pt_clust_6="13000.00000" pt_clust_7="13000.00000" pt_clust_8="13000.00000" pt_clust_9="29.51445"></scales>
<clustering>
<clus scale="   29.514">  2  9  1 -1</clus>
<clus scale="   74.282">  5  6 -1 -1</clus>
<clus scale="  110.864">  1  5  2 -1</clus>
<clus scale="  117.725">  7  8 -1 -1</clus>
<clus scale="   29.514">  2  5  1 -1</clus>
</clustering>
</event>
<event>
 9    1  0.1973774E-005  0.9258999E+02  0.7546771E-02  0.1302145E+00
          1   -1    0    0  502    0  0.00000000000E+00  0.00000000000E+00  0.27221665107E+03  0.27221665107E+03  0.00000000000E+00 0. -1.
         -2   -1    0    0    0  501 -0.00000000000E+00 -0.00000000000E+00 -0.27002292302E+03  0.27002292302E+03  0.00000000000E+00 0.  1.
        -24    2    1    2    0    0  0.41692902188E+02 -0.50040353007E+02 -0.17535157117E+03  0.20395724651E+03  0.81289912468E+02 0.  0.
         23    2    1    2    0    0  0.17015444386E+02  0.12347805814E+02  0.23194143928E+03  0.24981573431E+03  0.90382941969E+02 0.  0.
         13    1    3    3    0    0  0.52696143977E+02 -0.49400588230E+02 -0.17844500903E+03  0.19250953990E+03  0.00000000000E+00 0. -1.
        -14    1    3    3    0    0 -0.11003241789E+02 -0.63976477738E+00  0.30934378510E+01  0.11447706608E+02  0.00000000000E+00 0.  1.
        -11    1    4    4    0    0 -0.27295235118E+02 -0.19256684552E+02  0.13036432051E+03  0.13457602247E+03  0.00000000000E+00 0.  1.
         11    1    4    4    0    0  0.44310679504E+02  0.31604490367E+02  0.10157711877E+03  0.11523971185E+03  0.00000000000E+00 0. -1.
         21    1    1    2  502  501 -0.58708346574E+02  0.37692547193E+02 -0.54396140057E+02  0.88466593268E+02  0.00000000000E+00 0.  1.
<scales pt_clust_5="13000.00000" pt_clust_6="13000.00000" pt_clust_7="13000.00000" pt_clust_8="13000.00000" pt_clust_9="69.76674"></scales>
<clustering>
<clus scale="   69.767">  2  9  1 -1</clus>
<clus scale="   81.290">  5  6 -1 -1</clus>
<clus scale="   83.737">  2  5  1 -1</clus>
<clus scale="   90.383">  7  8 -1 -1</clus>
<clus scale="   92.590">  1  5  2 -1</clus>
</clustering>
</event>
<event>
 9    1  0.1973774E-005  0.1297494E+03  0.7546771E-02  0.1230281E+00
         -2   -1    0    0    0  501 -0.00000000000E+00  0.00000000000E+00  0.48703901634E+02  0.48703901634E+02  0.00000000000E+00 0.  1.
          1   -1    0    0  502    0  0.00000000000E+00 -0.00000000000E+00 -0.77747170529E+03  0.77747170529E+03  0.00000000000E+00 0. -1.
        -24    2    1    2    0    0  0.91467235382E+02  0.47353106115E+02 -0.71777376505E+02  0.14957508888E+03  0.81315088565E+02 0.  0.
         23    2    1    2    0    0 -0.54921626921E+02 -0.23525709820E+02 -0.34864680083E+03  0.36518581350E+03  0.90753746633E+02 0.  0.
         13    1    3    3    0    0  0.91401892253E+02  0.83622693950E+01 -0.44591305294E+02  0.10204223618E+03  0.00000000000E+00 0. -1.
        -14    1    3    3    0    0  0.65343129160E-01  0.38990836720E+02 -0.27186071212E+02  0.47532852700E+02  0.00000000000E+00 0.  1.
        -13    1    4    4    0    0  0.12290788840E+02 -0.36547948981E+02 -0.15740087418E+03  0.16205508711E+03  0.00000000000E+00 0.  1.
         13    1    4    4    0    0 -0.67212415760E+02  0.13022239160E+02 -0.19124592665E+03  0.20313072639E+03  0.00000000000E+00 0. -1.
         21    1    1    2  502  501 -0.36545608462E+02 -0.23827396295E+02 -0.30834362632E+03  0.31141470454E+03  0.00000000000E+00 0. -1.
<scales pt_clust_5="13000.00000" pt_clust_6="13000.00000" pt_clust_7="13000.00000" pt_clust_8="13000.00000" pt_clust_9="43.62713"></scales>
<clustering>
<clus scale="   43.627">  2  9  1 -1</clus>
<clus scale="   81.315">  5  6 -1 -1</clus>
<clus scale="   90.754">  7  8 -1 -1</clus>
<clus scale="  123.332">  1  5  2 -1</clus>
<clus scale="   43.627">  2  5  1 -1</clus>
</clustering>
</event>
<event>
 9    1  0.1973774E-005  0.2072846E+03  0.7546771E-02  0.1182687E+00
          1   -1    0    0  502    0  0.00000000000E+00  0.00000000000E+00  0.52771843215E+03  0.52771843215E+03  0.00000000000E+00 0. -1.
         -2   -1    0    0    0  501 -0.00000000000E+00 -0.00000000000E+00 -0.29399517725E+03  0.29399517725E+03  0.00000000000E+00 0.  1.
        -24    2    1    2    0    0  0.27565955777E+01  0.22414733525E+02 -0.20519282881E+03  0.22176465425E+03  0.81027438436E+02 0.  0.
         23    2    1    2    0    0 -0.54838695281E+02  0.16351630697E+03  0.12630501193E+03  0.23251381921E+03  0.91459580889E+02 0.  0.
         13    1    3    3    0    0  0.17429557575E+02  0.49869138903E+02 -0.13559729375E+03  0.14552438478E+03  0.00000000000E+00 0. -1.
        -14    1    3    3    0    0 -0.14672961998E+02 -0.27454405379E+02 -0.69595535064E+02  0.76240269473E+02  0.00000000000E+00 0.  1.
        -13    1    4    4    0    0 -0.27620800332E+02  0.12390723366E+03  0.38912349702E+02  0.13277831948E+03  0.00000000000E+00 0.  1.
         13    1    4    4    0    0 -0.27217894949E+02  0.39609073312E+02  0.87392662229E+02  0.99735499726E+02  0.00000000000E+00 0. -1.
         21    1    1    2  502  501  0.52082099703E+02 -0.18593104050E+03  0.31261107178E+03  0.36743513595E+03  0.00000000000E+00 0. -1.
<scales pt_clust_5="13000.00000" pt_clust_6="13000.00000" pt_clust_7="13000.00000" pt_clust_8="13000.00000" pt_clust_9="186.01621"></scales>
<clustering>
<clus scale="   81.027">  5  6 -1 -1</clus>
<clus scale="   84.116">  2  5  1 -1</clus>
<clus scale="   91.460">  7  8 -1 -1</clus>
<clus scale="  186.016">  1  9  2 -1</clus>
<clus scale="  186.016">  1  5  2 -1</clus>
</clustering>
</event>
<event>
 9    1  0.1973774E-005  0.1204191E+03  0.7546771E-02  0.1245828E+00
         -2   -1    0    0    0  501 -0.00000000000E+00  0.00000000000E+00  0.11704210090E+03  0.11704210090E+03  0.00000000000E+00 0.  1.
          1   -1    0    0  502    0  0.00000000000E+00 -0.00000000000E+00 -0.24853713799E+03  0.24853713799E+03  0.00000000000E+00 0. -1.
        -24    2    1    2    0    0  0.32479897673E+02 -0.65458083642E+02  0.49931296559E+02  0.12032971638E+03  0.81525467192E+02 0.  0.
         23    2    1    2    0    0 -0.57469431400E+02  0.80850420530E+02 -0.14449232141E+03  0.19807408303E+03  0.92281013081E+02 0.  0.
         13    1    3    3    0    0  0.34758216012E+02 -0.33316967801E+02 -0.12788970896E+02  0.49816781313E+02  0.00000000000E+00 0. -1.
        -14    1    3    3    0    0 -0.22783183392E+01 -0.32141115842E+02  0.62720267455E+02  0.70512935066E+02  0.00000000000E+00 0.  1.
        -11    1    4    4    0    0 -0.80371788734E+02  0.75905570448E+02 -0.12944984453E+03  0.17023085002E+03  0.00000000000E+00 0. -1.
         11    1    4    4    0    0  0.22902357334E+02  0.49448500826E+01 -0.15042476888E+02  0.27843233014E+02  0.00000000000E+00 0.  1.
         21    1    1    2  502  501  0.24989533727E+02 -0.15392336888E+02 -0.36934012233E+02  0.47175439483E+02  0.00000000000E+00 0. -1.
<scales pt_clust_5="13000.00000" pt_clust_6="13000.00000" pt_clust_7="13000.00000" pt_clust_8="13000.00000" pt_clust_9="29.34963"></scales>
<clustering>
<clus scale="   29.350">  2  9  1 -1</clus>
<clus scale="   81.525">  5  6 -1 -1</clus>
<clus scale="   92.281">  7  8 -1 -1</clus>
<clus scale="  112.389">  1  5  2 -1</clus>
<clus scale="   29.350">  2  5  1 -1</clus>
</clustering>
</event>
<event>
 9    1  0.1973774E-005  0.1056896E+03  0.7546771E-02  0.1269732E+00
          1   -1    0    0  502    0  0.00000000000E+00  0.00000000000E+00  0.91089074818E+03  0.91089074818E+03  0.00000000000E+00 0. -1.
         -2   -1    0    0    0  501 -0.00000000000E+00 -0.00000000000E+00 -0.26390470854E+02  0.26390470854E+02  0.00000000000E+00 0.  1.
         23    2    1    2    0    0  0.34996656337E+02  0.70471045056E+02  0.25723901350E+03  0.28434926853E+03  0.92150215954E+02 0.  0.
        -24    2    1    2    0    0 -0.41585163545E+02 -0.92905318144E+01  0.51109987234E+03  0.52147879345E+03  0.94347298340E+02 0.  0.
         13    1    4    4    0    0 -0.66271602838E+02  0.59563685499E+01  0.24754951949E+03  0.25633604559E+03  0.00000000000E+00 0. -1.
        -14    1    4    4    0    0  0.24686439293E+02 -0.15246900364E+02  0.26355035284E+03  0.26514274785E+03  0.00000000000E+00 0.  1.
        -11    1    3    3    0    0  0.27445840557E+02 -0.16386147030E+02  0.47962815204E+02  0.57638629588E+02  0.00000000000E+00 0.  1.
         11    1    3    3    0    0  0.75508157793E+01  0.86857192087E+02  0.20927619830E+03  0.22671063895E+03  0.00000000000E+00 0. -1.
         21    1    1    2  502  501  0.65885072082E+01 -0.61180513242E+02  0.11616139148E+03  0.13145315705E+03  0.00000000000E+00 0.  1.
<scales pt_clust_5="13000.00000" pt_clust_6="13000.00000" pt_clust_7="13000.00000" pt_clust_8="13000.00000" pt_clust_9="61.53425"></scales>
<clustering>
<clus scale="   61.534">  2  9  1 -1</clus>
<clus scale="   92.150">  7  8 -1 -1</clus>
<clus scale="   94.347">  5  6 -1 -1</clus>
<clus scale="  103.733">  2  7  1 -1</clus>
<clus scale="  105.690">  1  5  2 -1</clus>
</clustering>
</event>
<event>
 9    1  0.1973774E-005  0.1092271E+03  0.7546771E-02  0.1267695E+00
         -2   -1    0    0    0  501 -0.00000000000E+00  0.00000000000E+00  0.35442835929E+03  0.35442835929E+03  0.00000000000E+00 0.  1.
          1   -1    0    0  502    0  0.00000000000E+00 -0.00000000000E+00 -0.25468246808E+03  0.25468246808E+03  0.00000000000E+00 0. -1.
        -24    2    1    2    0    0  0.24484090439E+01 -0.63486714884E+02  0.31292177631E+03  0.32856516526E+03  0.77449803486E+02 0.  0.
         23    2    1    2    0    0  0.26458375869E+02  0.20460590095E+02 -0.50336843086E+02  0.10965562954E+03  0.91497966737E+02 0.  0.
         11    1    3    3    0    0 -0.12213758027E+02 -0.78246315059E+02  0.23957114869E+03  0.25232121787E+03  0.00000000000E+00 0. -1.
        -12    1    3    3    0    0  0.14662167071E+02  0.14759600176E+02  0.73350627621E+02  0.76243947385E+02  0.00000000000E+00 0.  1.
        -11    1    4    4    0    0  0.40566773308E+01  0.51829672691E+02 -0.83442222766E+01  0.52653562535E+02  0.00000000000E+00 0. -1.
         11    1    4    4    0    0  0.22401698538E+02 -0.31369082596E+02 -0.41992620809E+02  0.57002067004E+02  0.00000000000E+00 0.  1.
         21    1    1    2  502  501 -0.28906784912E+02  0.43026124788E+02 -0.16283904201E+03  0.17089003257E+03  0.00000000000E+00 0. -1.
<scales pt_clust_5="13000.00000" pt_clust_6="13000.00000" pt_clust_7="13000.00000" pt_clust_8="13000.00000" pt_clust_9="51.83483"></scales>
<clustering>
<clus scale="   51.835">  2  9  1 -1</clus>
<clus scale="   77.450">  5  6 -1 -1</clus>
<clus scale="   91.498">  7  8 -1 -1</clus>
<clus scale="   97.761">  1  5  2 -1</clus>
<clus scale="   51.835">  2  5  1 -1</clus>
</clustering>
</event>
<event>
 9    1  0.1973774E-005  0.1225535E+03  0.7546771E-02  0.1243673E+00
          1   -1    0    0  502    0  0.00000000000E+00  0.00000000000E+00  0.14336619078E+03  0.14336619078E+03  0.00000000000E+00 0. -1.
         -2   -1    0    0    0  501 -0.00000000000E+00 -0.00000000000E+00 -0.32787475866E+03  0.32787475866E+03  0.00000000000E+00 0.  1.
         23    2    1    2    0    0 -0.68733210875E+02  0.26094803005E+02 -0.25920643872E+03  0.28590389150E+03  0.95644468117E+02 0.  0.
        -24    2    1    2    0    0  0.92819565253E+02 -0.19155967132E+02  0.21299813166E+02  0.12634847877E+03  0.80795007737E+02 0.  0.
         13    1    4    4    0    0  0.77023450106E+02 -0.41696468189E+02  0.36522255965E+02  0.94895113185E+02  0.00000000000E+00 0. -1.
        -14    1    4    4    0    0  0.15796115148E+02  0.22540501057E+02 -0.15222442799E+02  0.31453365582E+02  0.00000000000E+00 0.  1.
        -11    1    3    3    0    0 -0.72692776083E+02  0.41028425271E+01 -0.25217924653E+03  0.26247941899E+03  0.00000000000E+00 0.  1.
         11    1    3    3    0    0  0.39595652073E+01  0.21991960478E+02 -0.70271921820E+01  0.23424472508E+02  0.00000000000E+00 0. -1.
         21    1    1    2  502  501 -0.24086354378E+02 -0.69388358738E+01  0.53398057668E+02  0.58988579176E+02  0.00000000000E+00 0. -1.
<scales pt_clust_5="13000.00000" pt_clust_6="13000.00000" pt_clust_7="13000.00000" pt_clust_8="13000.00000" pt_clust_9="25.06591"></scales>
<clustering>
<clus scale="   25.066">  1  9  2 -1</clus>
<clus scale="   80.795">  5  6 -1 -1</clus>
<clus scale="   95.644">  7  8 -1 -1</clus>
<clus scale="  111.352">  1  5  2 -1</clus>
<clus scale="   25.066">  1  5  2 -1</clus>
</clustering>
</event>
<event>
 9    1  0.1973774E-005  0.1033093E+03  0.7546771E-02  0.1278061E+00
         -2   -1    0    0    0  501 -0.00000000000E+00  0.00000000000E+00  0.20407870252E+03  0.20407870252E+03  0.00000000000E+00 0.  1.
          1   -1    0    0  502    0  0.00000000000E+00 -0.00000000000E+00 -0.23768721313E+03  0.23768721313E+03  0.00000000000E+00 0. -1.
        -24    2    1    2    0    0 -0.21946094764E+02  0.47345046722E+02  0.15897578990E+03  0.18588029073E+03  0.80962930915E+02 0.  0.
         23    2    1    2    0    0 -0.36370776150E+02 -0.37615769459E+02 -0.93685227610E+02  0.14066174333E+03  0.90945174108E+02 0.  0.
         11    1    3    3    0    0 -0.27562087589E+01  0.43601689316E+02  0.24698093635E+02  0.50186649890E+02  0.00000000000E+00 0. -1.
        -12    1    3    3    0    0 -0.19189886005E+02  0.37433574059E+01  0.13427769627E+03  0.13569364084E+03  0.00000000000E+00 0.  1.
        -11    1    4    4    0    0  0.55200827932E+01 -0.57792787393E+02 -0.46118027265E+02  0.74144116608E+02  0.00000000000E+00 0. -1.
         11    1    4    4    0    0 -0.41890858943E+02  0.20177017934E+02 -0.47567200345E+02  0.66517626719E+02  0.00000000000E+00 0.  1.
         21    1    1    2  502  501  0.58316870914E+02 -0.97292772628E+01 -0.98899072903E+02  0.11522388160E+03  0.00000000000E+00 0. -1.
<scales pt_clust_5="13000.00000" pt_clust_6="13000.00000" pt_clust_7="13000.00000" pt_clust_8="13000.00000" pt_clust_9="59.12289"></scales>
<clustering>
<clus scale="   59.123">  2  9  1 -1</clus>
<clus scale="   80.963">  5  6 -1 -1</clus>
<clus scale="   90.945">  7  8 -1 -1</clus>
<clus scale="   94.640">  1  5  2 -1</clus>
<clus scale="   59.123">  2  5  1 -1</clus>
</clustering>
</event>
<event>
 9    1  0.1973774E-005  0.1332276E+03  0.7546771E-02  0.1225541E+00
         -2   -1    0    0    0  501 -0.00000000000E+00  0.00000000000E+00  0.77522382192E+03  0.77522382192E+03  0.00000000000E+00 0.  1.
          1   -1    0    0  502    0  0.00000000000E+00 -0.00000000000E+00 -0.48897056795E+02  0.48897056795E+02  0.00000000000E+00 0. -1.
         23    2    1    2    0    0 -0.19419659701E-01 -0.99297745809E+02  0.59753839628E+03  0.61268086101E+03  0.92009019757E+02 0.  0.
        -24    2    1    2    0    0 -0.41500914413E+02  0.82446709349E+02  0.88809297087E+02  0.15138819217E+03  0.80693913650E+02 0.  0.
         11    1    4    4    0    0 -0.60051860085E+01  0.80197578312E+02  0.36950230911E+02  0.88504425824E+02  0.00000000000E+00 0. -1.
        -12    1    4    4    0    0 -0.35495728404E+02  0.22491310376E+01  0.51859066175E+02  0.62883766347E+02  0.00000000000E+00 0.  1.
        -11    1    3    3    0    0 -0.31052248792E+02 -0.90992673475E+02  0.51892986731E+03  0.52776141955E+03  0.00000000000E+00 0.  1.
         11    1    3    3    0    0  0.31032829132E+02 -0.83050723346E+01  0.78608528977E+02  0.84919441463E+02  0.00000000000E+00 0. -1.
         21    1    1    2  502  501  0.41520334072E+02  0.16851036460E+02  0.39979071752E+02  0.60051825530E+02  0.00000000000E+00 0. -1.
<scales pt_clust_5="13000.00000" pt_clust_6="13000.00000" pt_clust_7="13000.00000" pt_clust_8="13000.00000" pt_clust_9="44.80955"></scales>
<clustering>
<clus scale="   44.810">  2  9  1 -1</clus>
<clus scale="   80.694">  5  6 -1 -1</clus>
<clus scale="   92.009">  7  8 -1 -1</clus>
<clus scale="  125.680">  2  5  1 -1</clus>
<clus scale="   44.810">  2  5  1 -1</clus>
</clustering>
</event>
<event>
 9    1  0.1973774E-005  0.2255410E+03  0.7546771E-02  0.1130754E+00
         -2   -1    0    0    0  501 -0.00000000000E+00  0.00000000000E+00  0.89132421643E+03  0.89132421643E+03  0.00000000000E+00 0.  1.
          1   -1    0    0  502    0  0.00000000000E+00 -0.00000000000E+00 -0.11593644936E+03  0.11593644936E+03  0.00000000000E+00 0. -1.
         23    2    1    2    0    0  0.22389892020E+03  0.16162200481E+02  0.68352499714E+03  0.72525207551E+03  0.91608995834E+02 0.  0.
        -24    2    1    2    0    0 -0.15568619158E+03 -0.46755993003E+02  0.10095133962E+03  0.20669883934E+03  0.78159606466E+02 0.  0.
         13    1    4    4    0    0 -0.14362101046E+03 -0.36502982900E+02  0.54947398604E+02  0.15804644576E+03  0.00000000000E+00 0. -1.
        -14    1    4    4    0    0 -0.12065181127E+02 -0.10253010102E+02  0.46003941019E+02  0.48652393580E+02  0.00000000000E+00 0.  1.
        -11    1    3    3    0    0  0.17354398147E+03 -0.13976418592E+02  0.58710900654E+03  0.61238046943E+03  0.00000000000E+00 0.  1.
         11    1    3    3    0    0  0.50354938733E+02  0.30138619073E+02  0.96415990606E+02  0.11287160608E+03  0.00000000000E+00 0. -1.
         21    1    1    2  502  501 -0.68212728617E+02  0.30593792522E+02 -0.90885696931E+01  0.75309750931E+02  0.00000000000E+00 0. -1.
<scales pt_clust_5="13000.00000" pt_clust_6="13000.00000" pt_clust_7="13000.00000" pt_clust_8="13000.00000" pt_clust_9="74.75932"></scales>
<clustering>
<clus scale="   74.759">  2  9  1 -1</clus>
<clus scale="   78.160">  5  6 -1 -1</clus>
<clus scale="   91.609">  7  8 -1 -1</clus>
<clus scale="  220.421">  2  5  1 -1</clus>
<clus scale="   74.759">  2  5  1 -1</clus>
</clustering>
</event>
<event>
 9    1  0.1973774E-005  0.9122176E+02  0.7546771E-02  0.1304227E+00
          1   -1    0    0  502    0  0.00000000000E+00  0.00000000000E+00  0.11940668244E+03  0.11940668244E+03  0.00000000000E+00 0. -1.
         -2   -1    0    0    0  501 -0.00000000000E+00 -0.00000000000E+00 -0.16129815168E+03  0.16129815168E+03  0.00000000000E+00 0.  1.
        -24    2    1    2    0    0  0.56793373609E+02 -0.92512927613E+01 -0.65915947024E+02  0.11844043787E+03  0.79825757413E+02 0.  0.
         23    2    1    2    0    0 -0.15637086224E+01  0.26888326872E+02  0.43590681076E+02  0.10107438745E+03  0.87123228901E+02 0.  0.
         11    1    3    3    0    0  0.72848664779E+02 -0.22874110377E+02 -0.58230394445E+02  0.96025682621E+02  0.00000000000E+00 0. -1.
        -12    1    3    3    0    0 -0.16055291170E+02  0.13622817616E+02 -0.76855525787E+01  0.22414755247E+02  0.00000000000E+00 0.  1.
        -11    1    4    4    0    0 -0.12908195723E+02  0.56469866121E+02  0.18980577980E+02  0.60956784996E+02  0.00000000000E+00 0.  1.
         11    1    4    4    0    0  0.11344487101E+02 -0.29581539249E+02  0.24610103096E+02  0.40117602450E+02  0.00000000000E+00 0. -1.
         21    1    1    2  502  501 -0.55229664987E+02 -0.17637034110E+02 -0.19566203288E+02  0.61190008807E+02  0.00000000000E+00 0.  1.
<scales pt_clust_5="13000.00000" pt_clust_6="13000.00000" pt_clust_7="13000.00000" pt_clust_8="13000.00000" pt_clust_9="57.97742"></scales>
<clustering>
<clus scale="   57.977">  2  9  1 -1</clus>
<clus scale="   79.826">  5  6 -1 -1</clus>
<clus scale="   84.280">  2  5  1 -1</clus>
<clus scale="   87.123">  7  8 -1 -1</clus>
<clus scale="   91.222">  1  5  2 -1</clus>
</clustering>
</event>
<event>
 9    1  0.1973774E-005  0.9236217E+02  0.7546771E-02  0.1302576E+00
          1   -1    0    0  502    0  0.00000000000E+00  0.00000000000E+00  0.30853393000E+03  0.30853393000E+03  0.00000000000E+00 0. -1.
         -2   -1    0    0    0  501 -0.00000000000E+00 -0.00000000000E+00 -0.38387230247E+02  0.38387230247E+02  0.00000000000E+00 0.  1.
         23    2    1    2    0    0 -0.59632324123E+01 -0.27036993693E+02  0.56347182876E+02  0.10967792712E+03  0.89931549023E+02 0.  0.
        -24    2    1    2    0    0  0.47312428266E+01  0.69086679284E+01  0.15513500297E+03  0.17520943195E+03  0.81002231747E+02 0.  0.
         13    1    4    4    0    0  0.25279045344E+02  0.23232132565E+02  0.14155951143E+03  0.14566350742E+03  0.00000000000E+00 0. -1.
        -14    1    4    4    0    0 -0.20547802517E+02 -0.16323464637E+02  0.13575491535E+02  0.29545924532E+02  0.00000000000E+00 0.  1.
        -11    1    3    3    0    0  0.24989654552E+02 -0.45848780904E+02  0.14216436477E+02  0.54117470480E+02  0.00000000000E+00 0.  1.
         11    1    3    3    0    0 -0.30952886964E+02  0.18811787211E+02  0.42130746399E+02  0.55560456636E+02  0.00000000000E+00 0. -1.
         21    1    1    2  502  501  0.12319895857E+01  0.20128325765E+02  0.58664513911E+02  0.62033801180E+02  0.00000000000E+00 0. -1.
<scales pt_clust_5="13000.00000" pt_clust_6="13000.00000" pt_clust_7="13000.00000" pt_clust_8="13000.00000" pt_clust_9="20.16599"></scales>
<clustering>
<clus scale="   20.166">  1  9  2 -1</clus>
<clus scale="   81.002">  5  6 -1 -1</clus>
<clus scale="   83.693">  1  5  2 -1</clus>
<clus scale="   89.932">  7  8 -1 -1</clus>
<clus scale="   20.166">  1  5  2 -1</clus>
</clustering>
</event>
<event>
 9    1  0.1973774E-005  0.1330565E+03  0.7546771E-02  0.1225973E+00
         -2   -1    0    0    0  501 -0.00000000000E+00  0.00000000000E+00  0.11125132042E+03  0.11125132042E+03  0.00000000000E+00 0.  1.
          1   -1    0    0  502    0  0.00000000000E+00 -0.00000000000E+00 -0.35514801816E+03  0.35514801816E+03  0.00000000000E+00 0. -1.
         23    2    1    2    0    0 -0.94138665975E+02 -0.53265420466E+02  0.33901885287E+02  0.14543364692E+03  0.91117036725E+02 0.  0.
        -24    2    1    2    0    0  0.89662614531E+02  0.32797384476E+02 -0.27252415863E+03  0.29936025053E+03  0.78943585477E+02 0.  0.
         13    1    4    4    0    0  0.75952738026E+02  0.51071357075E-01 -0.23805857599E+03  0.24988138511E+03  0.00000000000E+00 0. -1.
        -14    1    4    4    0    0  0.13709876505E+02  0.32746313119E+02 -0.34465582640E+02  0.49478865421E+02  0.00000000000E+00 0.  1.
        -13    1    3    3    0    0 -0.79178711640E+01 -0.20366258741E+02  0.47374585643E+02  0.52171146659E+02  0.00000000000E+00 0.  1.
         13    1    3    3    0    0 -0.86220794811E+02 -0.32899161725E+02 -0.13472700356E+02  0.93262500261E+02  0.00000000000E+00 0. -1.
         21    1    1    2  502  501  0.44760514447E+01  0.20468035990E+02 -0.52744244013E+01  0.21605441134E+02  0.00000000000E+00 0.  1.
<scales pt_clust_5="13000.00000" pt_clust_6="13000.00000" pt_clust_7="13000.00000" pt_clust_8="13000.00000" pt_clust_9="20.95174"></scales>
<clustering>
<clus scale="   20.952">  1  9  2 -1</clus>
<clus scale="   78.944">  5  6 -1 -1</clus>
<clus scale="   91.117">  7  8 -1 -1</clus>
<clus scale="  125.035">  2  5  1 -1</clus>
<clus scale="  125.035">  2  5  1 -1</clus>
</clustering>
</event>
<event>
 9    1  0.1973774E-005  0.1377112E+03  0.7546771E-02  0.1218887E+00
         -2   -1    0    0    0  501 -0.00000000000E+00  0.00000000000E+00  0.17329807196E+03  0.17329807196E+03  0.00000000000E+00 0.  1.
          1   -1    0    0  502    0  0.00000000000E+00 -0.00000000000E+00 -0.16818002339E+03  0.16818002339E+03  0.00000000000E+00 0. -1.
         23    2    1    2    0    0 -0.49835181352E+01  0.12002567347E+03  0.24192543033E+02  0.15266766098E+03  0.91055685311E+02 0.  0.
        -24    2    1    2    0    0 -0.44959784030E+02 -0.83134024881E+02 -0.37207334349E+00  0.12396363243E+03  0.80213436861E+02 0.  0.
         11    1    4    4    0    0 -0.52082576829E+02 -0.13906346279E+02  0.51451336949E+01  0.54152134553E+02  0.00000000000E+00 0. -1.
        -12    1    4    4    0    0  0.71227927990E+01 -0.69227678602E+02 -0.55172070384E+01  0.69811497873E+02  0.00000000000E+00 0.  1.
        -13    1    3    3    0    0 -0.15979951257E+02  0.83394850984E+02  0.57007406131E+02  0.10227367387E+03  0.00000000000E+00 0.  1.
         13    1    3    3    0    0  0.10996433122E+02  0.36630822483E+02 -0.32814863098E+02  0.50393987115E+02  0.00000000000E+00 0. -1.
         21    1    1    2  502  501  0.49943302165E+02 -0.36891648587E+02 -0.18702421116E+02  0.64846801943E+02  0.00000000000E+00 0.  1.
<scales pt_clust_5="13000.00000" pt_clust_6="13000.00000" pt_clust_7="13000.00000" pt_clust_8="13000.00000" pt_clust_9="62.09128"></scales>
<clustering>
<clus scale="   62.091">  2  9  1 -1</clus>
<clus scale="   80.213">  5  6 -1 -1</clus>
<clus scale="   91.056">  7  8 -1 -1</clus>
<clus scale="  130.795">  2  5  1 -1</clus>
<clus scale="   62.091">  2  5  1 -1</clus>
</clustering>
</event>
<event>
 9    1  0.1973774E-005  0.1068508E+03  0.7546771E-02  0.1273268E+00
         -2   -1    0    0    0  501 -0.00000000000E+00  0.00000000000E+00  0.39226927342E+02  0.39226927342E+02  0.00000000000E+00 0.  1.
          1   -1    0    0  502    0  0.00000000000E+00 -0.00000000000E+00 -0.42418288838E+03  0.42418288838E+03  0.00000000000E+00 0. -1.
         23    2    1    2    0    0 -0.60521922238E+02  0.11242292377E+01 -0.97883628187E+02  0.14749829239E+03  0.92251691728E+02 0.  0.
        -24    2    1    2    0    0  0.44705332614E+02 -0.15545209827E+02 -0.13493291563E+03  0.16227386044E+03  0.76718275194E+02 0.  0.
         13    1    4    4    0    0  0.35129586609E+02 -0.21584116153E+02 -0.14270499337E+03  0.14854183606E+03  0.00000000000E+00 0. -1.
        -14    1    4    4    0    0  0.95757460049E+01  0.60389063265E+01  0.77720777439E+01  0.13732024382E+02  0.00000000000E+00 0.  1.
        -13    1    3    3    0    0  0.41695984646E+00  0.25346331998E+02  0.46649087055E+01  0.25775410269E+02  0.00000000000E+00 0.  1.
         13    1    3    3    0    0 -0.60938882085E+02 -0.24222102761E+02 -0.10254853689E+03  0.12172288212E+03  0.00000000000E+00 0. -1.
         21    1    1    2  502  501  0.15816589624E+02  0.14420980589E+02 -0.15213941723E+03  0.15363766290E+03  0.00000000000E+00 0.  1.
<scales pt_clust_5="13000.00000" pt_clust_6="13000.00000" pt_clust_7="13000.00000" pt_clust_8="13000.00000" pt_clust_9="21.40395"></scales>
<clustering>
<clus scale="   21.404">  2  9  1 -1</clus>
<clus scale="   76.718">  5  6 -1 -1</clus>
<clus scale="   92.252">  7  8 -1 -1</clus>
<clus scale="   93.768">  2  5  1 -1</clus>
<clus scale="   21.404">  2  5  1 -1</clus>
</clustering>
</event>
<event>
 9    1  0.1973774E-005  0.1678253E+03  0.7546771E-02  0.1195447E+00
          3   -1    0    0  502    0  0.00000000000E+00  0.00000000000E+00  0.31799864092E+03  0.31799864092E+03  0.00000000000E+00 0. -1.
         -4   -1    0    0    0  501 -0.00000000000E+00 -0.00000000000E+00 -0.17479628657E+03  0.17479628657E+03  0.00000000000E+00 0.  1.
        -24    2    1    2    0    0  0.18198093803E+03  0.51723000643E+02  0.73417250037E+01  0.20613576746E+03  0.81521304584E+02 0.  0.
         23    2    1    2    0    0 -0.61968306290E+02 -0.50377711732E+02  0.11303005368E+03  0.16448683597E+03  0.88893989391E+02 0.  0.
         11    1    3    3    0    0  0.10232608435E+03 -0.28051868691E+01  0.30604034120E+02  0.10684148781E+03  0.00000000000E+00 0. -1.
        -12    1    3    3    0    0  0.79654853676E+02  0.54528187512E+02 -0.23262309116E+02  0.99294279658E+02  0.00000000000E+00 0.  1.
        -11    1    4    4    0    0  0.21523703884E+02 -0.22569308109E+01  0.31723609742E+02  0.38402486646E+02  0.00000000000E+00 0.  1.
         11    1    4    4    0    0 -0.83492010174E+02 -0.48120780921E+02  0.81306443941E+02  0.12608434933E+03  0.00000000000E+00 0. -1.
         21    1    1    2  502  501 -0.12001263174E+03 -0.13452889109E+01  0.22830575663E+02  0.12217232405E+03  0.00000000000E+00 0.  1.
<scales pt_clust_5="13000.00000" pt_clust_6="13000.00000" pt_clust_7="13000.00000" pt_clust_8="13000.00000" pt_clust_9="146.69566"></scales>
<clustering>
<clus scale="   81.521">  5  6 -1 -1</clus>
<clus scale="   88.894">  7  8 -1 -1</clus>
<clus scale="  119.499">  1  7  2 -1</clus>
<clus scale="  146.696">  2  9  1 -1</clus>
<clus scale="  119.499">  1  5  2 -1</clus>
</clustering>
</event>
<event>
 9    1  0.1973774E-005  0.9612887E+02  0.7546771E-02  0.1294606E+00
         -4   -1    0    0    0  501 -0.00000000000E+00  0.00000000000E+00  0.23557316402E+03  0.23557316402E+03  0.00000000000E+00 0.  1.
          3   -1    0    0  502    0  0.00000000000E+00 -0.00000000000E+00 -0.69457295974E+02  0.69457295974E+02  0.00000000000E+00 0. -1.
         23    2    1    2    0    0  0.45437440167E+02  0.29191080199E+02  0.75250508884E+02  0.13054849053E+03  0.91997767153E+02 0.  0.
        -24    2    1    2    0    0 -0.17467961694E+02  0.20633013586E+02  0.29602262894E+02  0.90709068043E+02  0.81369466764E+02 0.  0.
         13    1    4    4    0    0 -0.15918251988E+02  0.33732460251E+02 -0.17926424518E+02  0.41383889582E+02  0.00000000000E+00 0. -1.
        -14    1    4    4    0    0 -0.15497097060E+01 -0.13099446665E+02  0.47528687412E+02  0.49325178461E+02  0.00000000000E+00 0.  1.
        -13    1    3    3    0    0  0.23689382871E+02 -0.30841451658E+02  0.12061635061E+02  0.40716888898E+02  0.00000000000E+00 0.  1.
         13    1    3    3    0    0  0.21748057296E+02  0.60032531857E+02  0.63188873823E+02  0.89831601636E+02  0.00000000000E+00 0. -1.
         21    1    1    2  502  501 -0.27969478473E+02 -0.49824093785E+02  0.61263096265E+02  0.83772901415E+02  0.00000000000E+00 0.  1.
<scales pt_clust_5="13000.00000" pt_clust_6="13000.00000" pt_clust_7="13000.00000" pt_clust_8="13000.00000" pt_clust_9="57.13783"></scales>
<clustering>
<clus scale="   57.138">  1  9  2 -1</clus>
<clus scale="   81.369">  5  6 -1 -1</clus>
<clus scale="   86.013">  2  5  1 -1</clus>
<clus scale="   91.998">  7  8 -1 -1</clus>
<clus scale="   86.013">  2  5  1 -1</clus>
</clustering>
</event>
<event>
 9    1  0.1973774E-005  0.9920953E+02  0.7546771E-02  0.1284563E+00
         -2   -1    0    0    0  501 -0.00000000000E+00  0.00000000000E+00  0.28043228908E+03  0.28043228908E+03  0.00000000000E+00 0.  1.
          1   -1    0    0  502    0  0.00000000000E+00 -0.00000000000E+00 -0.98097244569E+02  0.98097244569E+02  0.00000000000E+00 0. -1.
        -24    2    1    2    0    0 -0.23344597726E+02  0.40616918035E+02  0.21553190067E+03  0.23469984917E+03  0.80220413370E+02 0.  0.
         23    2    1    2    0    0  0.25545780583E+02 -0.64821578989E+02 -0.11236740832E+02  0.11107365476E+03  0.85771023251E+02 0.  0.
         11    1    3    3    0    0 -0.45670850885E+02  0.47249112392E+02  0.12500859977E+03  0.14122837979E+03  0.00000000000E+00 0. -1.
        -12    1    3    3    0    0  0.22326253159E+02 -0.66321943569E+01  0.90523300898E+02  0.93471469378E+02  0.00000000000E+00 0.  1.
        -11    1    4    4    0    0  0.19605675036E+02  0.17440748483E+02 -0.11367862269E+02  0.28597036452E+02  0.00000000000E+00 0.  1.
         11    1    4    4    0    0  0.59401055465E+01 -0.82262327473E+02  0.13112143706E+00  0.82476618311E+02  0.00000000000E+00 0. -1.
         21    1    1    2  502  501 -0.22011828569E+01  0.24204660955E+02 -0.21960115323E+02  0.32756029718E+02  0.00000000000E+00 0. -1.
<scales pt_clust_5="13000.00000" pt_clust_6="13000.00000" pt_clust_7="13000.00000" pt_clust_8="13000.00000" pt_clust_9="24.30454"></scales>
<clustering>
<clus scale="   24.305">  2  9  1 -1</clus>
<clus scale="   80.220">  5  6 -1 -1</clus>
<clus scale="   85.771">  7  8 -1 -1</clus>
<clus scale="   94.452">  1  5  2 -1</clus>
<clus scale="   24.305">  2  5  1 -1</clus>
</clustering>
</event>
<event>
 9    1  0.2168609E-005  0.9156033E+02  0.7546771E-02  0.1304274E+00
          3   -1    0    0  502    0  0.00000000000E+00  0.00000000000E+00  0.27118967831E+03  0.27118967831E+03  0.00000000000E+00 0. -1.
         -4   -1    0    0    0  501 -0.00000000000E+00 -0.00000000000E+00 -0.14936920658E+03  0.14936920658E+03  0.00000000000E+00 0.  1.
         23    2    1    2    0    0  0.38985151911E+01  0.95841591449E+00 -0.11970081479E+03  0.15070631817E+03  0.91476730878E+02 0.  0.
        -24    2    1    2    0    0 -0.35038440589E+01  0.23039522193E+02  0.22416015277E+03  0.24023051812E+03  0.83185523020E+02 0.  0.
         11    1    4    4    0    0  0.12711777630E+02  0.48723780395E+02  0.94705540626E+02  0.10726013002E+03  0.00000000000E+00 0. -1.
        -12    1    4    4    0    0 -0.16215621689E+02 -0.25684258202E+02  0.12945461214E+03  0.13297038810E+03  0.00000000000E+00 0.  1.
        -13    1    3    3    0    0 -0.30341187282E+02  0.26756253902E+02 -0.89643658775E+02  0.98348717973E+02  0.00000000000E+00 0. -1.
         13    1    3    3    0    0  0.34239702473E+02 -0.25797837987E+02 -0.30057156016E+02  0.52357600193E+02  0.00000000000E+00 0.  1.
         21    1    1    2  502  501 -0.39467113221E+00 -0.23997938108E+02  0.17361133750E+02  0.29622048609E+02  0.00000000000E+00 0.  1.
<scales pt_clust_5="13000.00000" pt_clust_6="13000.00000" pt_clust_7="13000.00000" pt_clust_8="13000.00000" pt_clust_9="24.00118"></scales>
<clustering>
<clus scale="   24.001">  1  9  2 -1</clus>
<clus scale="   83.186">  5  6 -1 -1</clus>
<clus scale="   83.277">  1  5  2 -1</clus>
<clus scale="   91.477">  7  8 -1 -1</clus>
<clus scale="   24.001">  1  5  2 -1</clus>
</clustering>
</event>
<event>
 9    1  0.1973774E-005  0.1138189E+03  0.7546771E-02  0.1256691E+00
         -2   -1    0    0    0  501 -0.00000000000E+00  0.00000000000E+00  0.38969816602E+03  0.38969816602E+03  0.00000000000E+00 0.  1.
          1   -1    0    0  502    0  0.00000000000E+00 -0.00000000000E+00 -0.12437448793E+03  0.12437448793E+03  0.00000000000E+00 0. -1.
        -24    2    1    2    0    0 -0.96066339969E+01  0.69590712700E+02  0.32671973174E+03  0.34420083467E+03  0.82421336842E+02 0.  0.
         23    2    1    2    0    0  0.40438826177E+02 -0.49577390239E+02 -0.17336921897E+02  0.11249269205E+03  0.90889056647E+02 0.  0.
         13    1    3    3    0    0 -0.30848654720E+02  0.63848743494E+02  0.14776939324E+03  0.16390270017E+03  0.00000000000E+00 0. -1.
        -14    1    3    3    0    0  0.21242020723E+02  0.57419692053E+01  0.17895033850E+03  0.18029813450E+03  0.00000000000E+00 0.  1.
        -13    1    4    4    0    0  0.64179084438E+01 -0.66326122139E+02 -0.29210349181E+02  0.72757051384E+02  0.00000000000E+00 0. -1.
         13    1    4    4    0    0  0.34020917733E+02  0.16748731900E+02  0.11873427284E+02  0.39735640666E+02  0.00000000000E+00 0.  1.
         21    1    1    2  502  501 -0.30832192180E+02 -0.20013322461E+02 -0.44059131755E+02  0.57379127229E+02  0.00000000000E+00 0. -1.
<scales pt_clust_5="13000.00000" pt_clust_6="13000.00000" pt_clust_7="13000.00000" pt_clust_8="13000.00000" pt_clust_9="36.75809"></scales>
<clustering>
<clus scale="   36.758">  2  9  1 -1</clus>
<clus scale="   82.421">  5  6 -1 -1</clus>
<clus scale="   90.889">  7  8 -1 -1</clus>
<clus scale="  107.178">  1  5  2 -1</clus>
<clus scale="   36.758">  2  5  1 -1</clus>
</clustering>
</event>
<event>
 9    1  0.1973774E-005  0.2122842E+03  0.7546771E-02  0.1184043E+00
         -2   -1    0    0    0  501 -0.00000000000E+00  0.00000000000E+00  0.46348328362E+02  0.46348328362E+02  0.00000000000E+00 0.  1.
          1   -1    0    0  502    0  0.00000000000E+00 -0.00000000000E+00 -0.13981432536E+04  0.13981432536E+04  0.00000000000E+00 0. -1.
        -24    2    1    2    0    0  0.21815248483E+02 -0.19232577018E+02 -0.13344767539E+03  0.15355892662E+03  0.70187354930E+02 0.  0.
         23    2    1    2    0    0  0.90910478240E+02 -0.14558235426E+03 -0.35861034190E+03  0.40831235084E+03  0.93051929620E+02 0.  0.
         13    1    3    3    0    0  0.21547150108E+02 -0.16663193279E+02 -0.84281637412E+01  0.28512727545E+02  0.00000000000E+00 0. -1.
        -14    1    3    3    0    0  0.26809837556E+00 -0.25693837389E+01 -0.12501951165E+03  0.12504619908E+03  0.00000000000E+00 0.  1.
        -13    1    4    4    0    0 -0.72030759392E+01 -0.69320056261E+02 -0.15189867116E+03  0.16712378886E+03  0.00000000000E+00 0. -1.
         13    1    4    4    0    0  0.98113554180E+02 -0.76262297996E+02 -0.20671167074E+03  0.24118856198E+03  0.00000000000E+00 0.  1.
         21    1    1    2  502  501 -0.11272572672E+03  0.16481493128E+03 -0.85973690795E+03  0.88262030451E+03  0.00000000000E+00 0. -1.
<scales pt_clust_5="13000.00000" pt_clust_6="13000.00000" pt_clust_7="13000.00000" pt_clust_8="13000.00000" pt_clust_9="190.80337"></scales>
<clustering>
<clus scale="   70.187">  5  6 -1 -1</clus>
<clus scale="   75.974">  1  5  2 -1</clus>
<clus scale="   93.052">  7  8 -1 -1</clus>
<clus scale="  190.803">  2  9  1 -1</clus>
<clus scale="  190.803">  2  5  1 -1</clus>
</clustering>
</event>
<event>
 9    1  0.1973774E-005  0.8548816E+02  0.7546771E-02  0.1324846E+00
          1   -1    0    0  502    0  0.00000000000E+00  0.00000000000E+00  0.42423314262E+02  0.42423314262E+02  0.00000000000E+00 0. -1.
         -2   -1    0    0    0  501 -0.00000000000E+00 -0.00000000000E+00 -0.63806867168E+03  0.63806867168E+03  0.00000000000E+00 0.  1.
        -24    2    1    2    0    0  0.31865699182E+02 -0.36637398291E+01 -0.47203310156E+03  0.48007880772E+03  0.81434433018E+02 0.  0.
         23    2    1    2    0    0 -0.58082655736E+01 -0.27025322874E+02 -0.87416534589E+00  0.71241016830E+02  0.65653745427E+02 0.  0.
         13    1    3    3    0    0  0.25440644519E+02 -0.34133975930E+02 -0.13366377226E+03  0.14027957343E+03  0.00000000000E+00 0. -1.
        -14    1    3    3    0    0  0.64250546632E+01  0.30470236101E+02 -0.33836932930E+03  0.33979923429E+03  0.00000000000E+00 0.  1.
        -13    1    4    4    0    0  0.21037533769E+02 -0.11339143745E+02 -0.22929935346E+02  0.33120023293E+02  0.00000000000E+00 0.  1.
         13    1    4    4    0    0 -0.26845799343E+02 -0.15686179129E+02  0.22055770000E+02  0.38120993537E+02  0.00000000000E+00 0. -1.
         21    1    1    2  502  501 -0.26057433609E+02  0.30689062703E+02 -0.12273809051E+03  0.12917216139E+03  0.00000000000E+00 0. -1.
<scales pt_clust_5="13000.00000" pt_clust_6="13000.00000" pt_clust_7="13000.00000" pt_clust_8="13000.00000" pt_clust_9="40.25926"></scales>
<clustering>
<clus scale="   40.259">  2  9  1 -1</clus>
<clus scale="   65.654">  7  8 -1 -1</clus>
<clus scale="   70.619">  1  7  2 -1</clus>
<clus scale="   81.434">  5  6 -1 -1</clus>
<clus scale="   70.619">  1  5  2 -1</clus>
</clustering>
</event>
<event>
 9    1  0.1973774E-005  0.1182860E+03  0.7546771E-02  0.1248622E+00
          1   -1    0    0  502    0  0.00000000000E+00  0.00000000000E+00  0.54804814407E+03  0.54804814407E+03  0.00000000000E+00 0. -1.
         -2   -1    0    0    0  501 -0.00000000000E+00 -0.00000000000E+00 -0.32847410077E+02  0.32847410077E+02  0.00000000000E+00 0.  1.
         23    2    1    2    0    0 -0.11767706755E+02 -0.66117939004E+02  0.17587272975E+03  0.20890482124E+03  0.90553555896E+02 0.  0.
        -24    2    1    2    0    0  0.36757734883E+02  0.82421512554E+02  0.26102439556E+03  0.28819477150E+03  0.82328940453E+02 0.  0.
         13    1    4    4    0    0 -0.11680384507E+02  0.49559029529E+02  0.18708982154E+03  0.19389463663E+03  0.00000000000E+00 0. -1.
        -14    1    4    4    0    0  0.48438119390E+02  0.32862483025E+02  0.73934574019E+02  0.94300134867E+02  0.00000000000E+00 0.  1.
        -11    1    3    3    0    0  0.36122976697E+02 -0.20725762201E+02  0.10016322949E+03  0.10847626102E+03  0.00000000000E+00 0.  1.
         11    1    3    3    0    0 -0.47890683452E+02 -0.45392176802E+02  0.75709500263E+02  0.10042856021E+03  0.00000000000E+00 0. -1.
         21    1    1    2  502  501 -0.24990028128E+02 -0.16303573550E+02  0.78303608682E+02  0.83795961412E+02  0.00000000000E+00 0. -1.
<scales pt_clust_5="13000.00000" pt_clust_6="13000.00000" pt_clust_7="13000.00000" pt_clust_8="13000.00000" pt_clust_9="29.83803"></scales>
<clustering>
<clus scale="   29.838">  1  9  2 -1</clus>
<clus scale="   82.329">  5  6 -1 -1</clus>
<clus scale="   90.554">  7  8 -1 -1</clus>
<clus scale="  112.115">  1  5  2 -1</clus>
<clus scale="   29.838">  1  5  2 -1</clus>
</clustering>
</event>
<event>
 9    1  0.1973774E-005  0.1097232E+03  0.7546771E-02  0.1265327E+00
         -2   -1    0    0    0  501 -0.00000000000E+00  0.00000000000E+00  0.61261182673E+02  0.61261182673E+02  0.00000000000E+00 0.  1.
          1   -1    0    0  502    0  0.00000000000E+00 -0.00000000000E+00 -0.54363205959E+03  0.54363205959E+03  0.00000000000E+00 0. -1.
         23    2    1    2    0    0 -0.41571140583E+02 -0.44066534552E+02 -0.44792797350E+01  0.10860288287E+03  0.90025013322E+02 0.  0.
        -24    2    1    2    0    0  0.61730908932E+02  0.50098100817E+02 -0.41881179562E+03  0.43357497847E+03  0.79141752475E+02 0.  0.
         13    1    4    4    0    0  0.63322971094E+02  0.33185207859E+01 -0.27977730482E+03  0.28687305824E+03  0.00000000000E+00 0. -1.
        -14    1    4    4    0    0 -0.15920621616E+01  0.46779580031E+02 -0.13903449079E+03  0.14670192023E+03  0.00000000000E+00 0.  1.
        -13    1    3    3    0    0 -0.35895823620E+01  0.20025620872E+02  0.21596635342E+02  0.29670275545E+02  0.00000000000E+00 0.  1.
         13    1    3    3    0    0 -0.37981558221E+02 -0.64092155424E+02 -0.26075915077E+02  0.78932607323E+02  0.00000000000E+00 0. -1.
         21    1    1    2  502  501 -0.20159768349E+02 -0.60315662650E+01 -0.59079801567E+02  0.62715380926E+02  0.00000000000E+00 0. -1.
<scales pt_clust_5="13000.00000" pt_clust_6="13000.00000" pt_clust_7="13000.00000" pt_clust_8="13000.00000" pt_clust_9="21.04272"></scales>
<clustering>
<clus scale="   21.043">  2  9  1 -1</clus>
<clus scale="   79.142">  5  6 -1 -1</clus>
<clus scale="   90.025">  7  8 -1 -1</clus>
<clus scale="  100.986">  2  5  1 -1</clus>
<clus scale="   21.043">  2  5  1 -1</clus>
</clustering>
</event>
<event>
 9    1  0.1973774E-005  0.1046875E+03  0.7546771E-02  0.1275979E+00
          1   -1    0    0  502    0  0.00000000000E+00  0.00000000000E+00  0.27683159168E+03  0.27683159168E+03  0.00000000000E+00 0. -1.
         -2   -1    0    0    0  501 -0.00000000000E+00 -0.00000000000E+00 -0.10557883197E+03  0.10557883197E+03  0.00000000000E+00 0.  1.
         23    2    1    2    0    0  0.42790724556E+02 -0.35376229608E+02 -0.52168896706E+02  0.11936700025E+03  0.91893216489E+02 0.  0.
        -24    2    1    2    0    0 -0.37677279599E+02 -0.12681210511E+02  0.15920421509E+03  0.18267213101E+03  0.80266648421E+02 0.  0.
         13    1    4    4    0    0 -0.19929887644E+02  0.34098368335E+02  0.67420099909E+02  0.78136860805E+02  0.00000000000E+00 0. -1.
        -14    1    4    4    0    0 -0.17747391955E+02 -0.46779578846E+02  0.91784115179E+02  0.10453527021E+03  0.00000000000E+00 0.  1.
        -11    1    3    3    0    0  0.64627266396E+02 -0.44554629833E+02 -0.54505599438E+02  0.95564946353E+02  0.00000000000E+00 0.  1.
         11    1    3    3    0    0 -0.21836541840E+02  0.91784002251E+01  0.23367027317E+01  0.23802053900E+02  0.00000000000E+00 0. -1.
         21    1    1    2  502  501 -0.51134449566E+01  0.48057440119E+02  0.64217441320E+02  0.80371292386E+02  0.00000000000E+00 0. -1.
<scales pt_clust_5="13000.00000" pt_clust_6="13000.00000" pt_clust_7="13000.00000" pt_clust_8="13000.00000" pt_clust_9="48.32872"></scales>
<clustering>
<clus scale="   48.329">  1  9  2 -1</clus>
<clus scale="   80.267">  5  6 -1 -1</clus>
<clus scale="   91.893">  7  8 -1 -1</clus>
<clus scale="   94.646">  1  5  2 -1</clus>
<clus scale="   48.329">  1  5  2 -1</clus>
</clustering>
</event>
<event>
 9    1  0.1973774E-005  0.2050129E+03  0.7546771E-02  0.1146241E+00
         -2   -1    0    0    0  501 -0.00000000000E+00  0.00000000000E+00  0.10134542533E+04  0.10134542533E+04  0.00000000000E+00 0.  1.
          1   -1    0    0  502    0  0.00000000000E+00 -0.00000000000E+00 -0.60221329728E+02  0.60221329728E+02  0.00000000000E+00 0. -1.
         23    2    1    2    0    0  0.19572734416E+03  0.40232410774E+02  0.64130072378E+03  0.67782236481E+03  0.90822352900E+02 0.  0.
        -24    2    1    2    0    0 -0.16182930444E+03  0.72780772109E+01  0.26169190432E+03  0.31884405738E+03  0.83289771014E+02 0.  0.
         13    1    4    4    0    0 -0.15491616499E+03  0.12631020736E+02  0.26675968443E+03  0.30873822260E+03  0.00000000000E+00 0. -1.
        -14    1    4    4    0    0 -0.69131394504E+01 -0.53529435247E+01 -0.50677801024E+01  0.10105834780E+02  0.00000000000E+00 0.  1.
        -11    1    3    3    0    0  0.17017502847E+03  0.33353583166E+02  0.62016999864E+03  0.64395871687E+03  0.00000000000E+00 0.  1.
         11    1    3    3    0    0  0.25552315698E+02  0.68788276082E+01  0.21130725144E+02  0.33863647942E+02  0.00000000000E+00 0. -1.
         21    1    1    2  502  501 -0.33898039722E+02 -0.47510487985E+02  0.50240295496E+02  0.77009160865E+02  0.00000000000E+00 0. -1.
<scales pt_clust_5="13000.00000" pt_clust_6="13000.00000" pt_clust_7="13000.00000" pt_clust_8="13000.00000" pt_clust_9="58.36372"></scales>
<clustering>
<clus scale="   58.364">  2  9  1 -1</clus>
<clus scale="   83.290">  5  6 -1 -1</clus>
<clus scale="   90.822">  7  8 -1 -1</clus>
<clus scale="  201.789">  2  5  1 -1</clus>
<clus scale="   58.364">  2  5  1 -1</clus>
</clustering>
</event>
<event>
 9    1  0.1973774E-005  0.1001920E+03  0.7546771E-02  0.1285382E+00
         -2   -1    0    0    0  501 -0.00000000000E+00  0.00000000000E+00  0.10119770290E+03  0.10119770290E+03  0.00000000000E+00 0.  1.
          1   -1    0    0  502    0  0.00000000000E+00 -0.00000000000E+00 -0.30042922823E+03  0.30042922823E+03  0.00000000000E+00 0. -1.
         23    2    1    2    0    0 -0.32856488974E+02  0.19611866320E+02  0.54583909513E+02  0.11298674545E+03  0.91227338559E+02 0.  0.
        -24    2    1    2    0    0  0.51740727503E+02 -0.42727517284E+02 -0.21959190019E+03  0.24322875421E+03  0.80230172820E+02 0.  0.
         13    1    4    4    0    0  0.23974495336E+02  0.96807859684E+01 -0.14310646164E+02  0.29551457447E+02  0.00000000000E+00 0. -1.
        -14    1    4    4    0    0  0.27766232167E+02 -0.52408303252E+02 -0.20528125403E+03  0.21367729676E+03  0.00000000000E+00 0.  1.
        -11    1    3    3    0    0 -0.15805526021E+02 -0.36346672517E+02  0.29141927869E+02  0.49194991775E+02  0.00000000000E+00 0.  1.
         11    1    3    3    0    0 -0.17050962953E+02  0.55958538837E+02  0.25441981644E+02  0.63791753671E+02  0.00000000000E+00 0. -1.
         21    1    1    2  502  501 -0.18884238530E+02  0.23115650964E+02 -0.34223534654E+02  0.45411431474E+02  0.00000000000E+00 0. -1.
<scales pt_clust_5="13000.00000" pt_clust_6="13000.00000" pt_clust_7="13000.00000" pt_clust_8="13000.00000" pt_clust_9="29.84875"></scales>
<clustering>
<clus scale="   29.849">  2  9  1 -1</clus>
<clus scale="   80.230">  5  6 -1 -1</clus>
<clus scale="   90.293">  2  5  1 -1</clus>
<clus scale="   91.227">  7  8 -1 -1</clus>
<clus scale="   29.849">  2  5  1 -1</clus>
</clustering>
</event>
<event>
 9    1  0.1973774E-005  0.1421707E+03  0.7546771E-02  0.1213577E+00
          1   -1    0    0  502    0  0.00000000000E+00  0.00000000000E+00  0.14464832131E+04  0.14464832131E+04  0.00000000000E+00 0. -1.
         -2   -1    0    0    0  501 -0.00000000000E+00 -0.00000000000E+00 -0.19511469301E+02  0.19511469301E+02  0.00000000000E+00 0.  1.
         23    2    1    2    0    0  0.10073155263E+03 -0.65880363287E+02  0.53231107625E+03  0.55355633303E+03  0.92641588812E+02 0.  0.
        -24    2    1    2    0    0 -0.98239582356E+02  0.16263204694E+02  0.55794094200E+03  0.57207347762E+03  0.77810421396E+02 0.  0.
         11    1    4    4    0    0  0.71784505101E+01  0.19456052998E+02  0.10311446467E+03  0.10517918508E+03  0.00000000000E+00 0. -1.
        -12    1    4    4    0    0 -0.10541803287E+03 -0.31928483041E+01  0.45482647733E+03  0.46689429254E+03  0.00000000000E+00 0.  1.
        -11    1    3    3    0    0  0.83606589339E+02 -0.24129372950E+01  0.24727103407E+03  0.26103418998E+03  0.00000000000E+00 0.  1.
         11    1    3    3    0    0  0.17124963286E+02 -0.63467425992E+02  0.28504004218E+03  0.29252214305E+03  0.00000000000E+00 0. -1.
         21    1    1    2  502  501 -0.24919702693E+01  0.49617158593E+02  0.33671972560E+03  0.34036487179E+03  0.00000000000E+00 0. -1.
<scales pt_clust_5="13000.00000" pt_clust_6="13000.00000" pt_clust_7="13000.00000" pt_clust_8="13000.00000" pt_clust_9="49.67970"></scales>
<clustering>
<clus scale="   49.680">  1  9  2 -1</clus>
<clus scale="   77.810">  5  6 -1 -1</clus>
<clus scale="   92.642">  7  8 -1 -1</clus>
<clus scale="  132.983">  1  5  2 -1</clus>
<clus scale="   49.680">  1  5  2 -1</clus>
</clustering>
</event>
<event>
 9    1  0.1973774E-005  0.1295195E+03  0.7546771E-02  0.1235286E+00
         -2   -1    0    0    0  501 -0.00000000000E+00  0.00000000000E+00  0.90531472934E+02  0.90531472934E+02  0.00000000000E+00 0.  1.
          1   -1    0    0  502    0  0.00000000000E+00 -0.00000000000E+00 -0.28847079641E+03  0.28847079641E+03  0.00000000000E+00 0. -1.
         23    2    1    2    0    0 -0.42031459904E+02 -0.64920403308E+02 -0.23684999735E+02  0.13023630286E+03  0.10207454621E+03 0.  0.
        -24    2    1    2    0    0  0.63602908437E+02  0.55331207064E+02 -0.55797835012E+02  0.12798012377E+03  0.78477010979E+02 0.  0.
         13    1    4    4    0    0 -0.38827611364E+01  0.28653116787E+02  0.94220001921E+01  0.30411363391E+02  0.00000000000E+00 0. -1.
        -14    1    4    4    0    0  0.67485669574E+02  0.26678090277E+02 -0.65219835204E+02  0.97568760383E+02  0.00000000000E+00 0.  1.
        -11    1    3    3    0    0  0.31159310402E+02 -0.30081732266E+02 -0.23290834910E+02  0.49175972097E+02  0.00000000000E+00 0.  1.
         11    1    3    3    0    0 -0.73190770306E+02 -0.34838671042E+02 -0.39416482424E+00  0.81060330766E+02  0.00000000000E+00 0. -1.
         21    1    1    2  502  501 -0.21571448533E+02  0.95891962440E+01 -0.11845648873E+03  0.12078584271E+03  0.00000000000E+00 0. -1.
<scales pt_clust_5="13000.00000" pt_clust_6="13000.00000" pt_clust_7="13000.00000" pt_clust_8="13000.00000" pt_clust_9="23.60678"></scales>
<clustering>
<clus scale="   23.607">  2  9  1 -1</clus>
<clus scale="   78.477">  5  6 -1 -1</clus>
<clus scale="  102.075">  7  8 -1 -1</clus>
<clus scale="  111.869">  2  5  1 -1</clus>
<clus scale="   23.607">  2  5  1 -1</clus>
</clustering>
</event>
<event>
 9    1  0.1973774E-005  0.1816986E+03  0.7546771E-02  0.1167714E+00
          3   -1    0    0  502    0  0.00000000000E+00  0.00000000000E+00  0.47066327571E+03  0.47066327571E+03  0.00000000000E+00 0. -1.
         -4   -1    0    0    0  501 -0.00000000000E+00 -0.00000000000E+00 -0.85920411510E+02  0.85920411510E+02  0.00000000000E+00 0.  1.
         23    2    1    2    0    0  0.12983204065E+03  0.77405023237E+02  0.12664983199E+03  0.20817386559E+03  0.66695441895E+02 0.  0.
        -24    2    1    2    0    0 -0.15208667610E+03 -0.89795238587E+02  0.17598967760E+03  0.26244618354E+03  0.81927350205E+02 0.  0.
         13    1    4    4    0    0 -0.92354296737E+02 -0.74051241170E+01  0.76877584540E+02  0.12039233777E+03  0.00000000000E+00 0. -1.
        -14    1    4    4    0    0 -0.59732379366E+02 -0.82390114470E+02  0.99112093063E+02  0.14205384577E+03  0.00000000000E+00 0.  1.
        -11    1    3    3    0    0  0.83336077145E+02  0.10961767887E+02  0.61527827919E+02  0.10416686478E+03  0.00000000000E+00 0.  1.
         11    1    3    3    0    0  0.46495963507E+02  0.66443255350E+02  0.65122004067E+02  0.10400700081E+03  0.00000000000E+00 0. -1.
         21    1    1    2  502  501  0.22254635452E+02  0.12390215351E+02  0.82103354606E+02  0.85963638087E+02  0.00000000000E+00 0. -1.
<scales pt_clust_5="13000.00000" pt_clust_6="13000.00000" pt_clust_7="13000.00000" pt_clust_8="13000.00000" pt_clust_9="25.47128"></scales>
<clustering>
<clus scale="   25.471">  1  9  2 -1</clus>
<clus scale="   66.695">  7  8 -1 -1</clus>
<clus scale="   81.927">  5  6 -1 -1</clus>
<clus scale="  175.358">  2  7  1 -1</clus>
<clus scale="   25.471">  1  5  2 -1</clus>
</clustering>
</event>
<event>
 9    1  0.1973774E-005  0.1292262E+03  0.7546771E-02  0.1232982E+00
         -2   -1    0    0    0  501 -0.00000000000E+00  0.00000000000E+00  0.34637539220E+03  0.34637539220E+03  0.00000000000E+00 0.  1.
          1   -1    0    0  502    0  0.00000000000E+00 -0.00000000000E+00 -0.23146162891E+03  0.23146162891E+03  0.00000000000E+00 0. -1.
        -24    2    1    2    0    0  0.80728619198E+02 -0.27123599061E+02  0.30288707686E+03  0.32478797621E+03  0.80584418923E+02 0.  0.
         23    2    1    2    0    0 -0.98707891718E+02  0.42408497900E+02 -0.17250486230E+03  0.22483281983E+03  0.96177652144E+02 0.  0.
         13    1    3    3    0    0  0.38923040672E+02 -0.27976821764E+02  0.53141764626E+02  0.71566422286E+02  0.00000000000E+00 0. -1.
        -14    1    3    3    0    0  0.41805578525E+02  0.85322270327E+00  0.24974531224E+03  0.25322155392E+03  0.00000000000E+00 0.  1.
        -11    1    4    4    0    0 -0.95075456813E+01  0.53215390738E+02 -0.71705194589E+02  0.89799254826E+02  0.00000000000E+00 0. -1.
         11    1    4    4    0    0 -0.89200346036E+02 -0.10806892838E+02 -0.10079966772E+03  0.13503356500E+03  0.00000000000E+00 0.  1.
         21    1    1    2  502  501  0.17979272520E+02 -0.15284898839E+02 -0.15468451268E+02  0.28216225075E+02  0.00000000000E+00 0. -1.
<scales pt_clust_5="13000.00000" pt_clust_6="13000.00000" pt_clust_7="13000.00000" pt_clust_8="13000.00000" pt_clust_9="23.59836"></scales>
<clustering>
<clus scale="   23.598">  2  9  1 -1</clus>
<clus scale="   80.584">  5  6 -1 -1</clus>
<clus scale="   96.178">  7  8 -1 -1</clus>
<clus scale="  118.081">  1  5  2 -1</clus>
<clus scale="   23.598">  2  5  1 -1</clus>
</clustering>
</event>
<event>
 9    1  0.1973774E-005  0.1374034E+03  0.7546771E-02  0.1219889E+00
          1   -1    0    0  502    0  0.00000000000E+00  0.00000000000E+00  0.31692062532E+03  0.31692062532E+03  0.00000000000E+00 0. -1.
         -2   -1    0    0    0  501 -0.00000000000E+00 -0.00000000000E+00 -0.30563534378E+03  0.30563534378E+03  0.00000000000E+00 0.  1.
         23    2    1    2    0    0  0.14326891876E+02 -0.10128937552E+03 -0.25228022240E+03  0.28762708597E+03  0.92839821966E+02 0.  0.
        -24    2    1    2    0    0 -0.79751440950E+02  0.77948551023E+02  0.17019621138E+03  0.21855452813E+03  0.79768806296E+02 0.  0.
         11    1    4    4    0    0 -0.12787857924E+02  0.68122298180E+02  0.81581511175E+02  0.10705008073E+03  0.00000000000E+00 0. -1.
        -12    1    4    4    0    0 -0.66963583026E+02  0.98262528425E+01  0.88614700210E+02  0.11150444740E+03  0.00000000000E+00 0.  1.
        -13    1    3    3    0    0 -0.35919466879E+02 -0.70676059664E+02 -0.14763071359E+03  0.16757130155E+03  0.00000000000E+00 0. -1.
         13    1    3    3    0    0  0.50246358754E+02 -0.30613315857E+02 -0.10464950882E+03  0.12005578441E+03  0.00000000000E+00 0.  1.
         21    1    1    2  502  501  0.65424549074E+02  0.23340824498E+02  0.93369292555E+02  0.11637435500E+03  0.00000000000E+00 0.  1.
<scales pt_clust_5="13000.00000" pt_clust_6="13000.00000" pt_clust_7="13000.00000" pt_clust_8="13000.00000" pt_clust_9="69.46341"></scales>
<clustering>
<clus scale="   69.463">  1  9  2 -1</clus>
<clus scale="   79.769">  5  6 -1 -1</clus>
<clus scale="   92.840">  7  8 -1 -1</clus>
<clus scale="  128.932">  1  5  2 -1</clus>
<clus scale="   69.463">  1  5  2 -1</clus>
</clustering>
</event>
<event>
 9    1  0.1973774E-005  0.1142110E+03  0.7546771E-02  0.1257739E+00
         -2   -1    0    0    0  501 -0.00000000000E+00  0.00000000000E+00  0.92633480064E+03  0.92633480064E+03  0.00000000000E+00 0.  1.
          1   -1    0    0  502    0  0.00000000000E+00 -0.00000000000E+00 -0.20017618687E+02  0.20017618687E+02  0.00000000000E+00 0. -1.
        -24    2    1    2    0    0  0.59793072039E+01  0.78475379086E+02  0.60689316955E+03  0.61686259359E+03  0.77498405708E+02 0.  0.
         23    2    1    2    0    0 -0.16966592804E+02 -0.46035758113E+02  0.22326566930E+03  0.24598448053E+03  0.90849597015E+02 0.  0.
         11    1    3    3    0    0  0.28769814065E+02  0.73557613760E+02  0.34462803958E+03  0.35356316325E+03  0.00000000000E+00 0. -1.
        -12    1    3    3    0    0 -0.22790506862E+02  0.49177653262E+01  0.26226512997E+03  0.26329943034E+03  0.00000000000E+00 0.  1.
        -11    1    4    4    0    0 -0.42896223906E+02 -0.59070259695E+02  0.17572398646E+03  0.19028478926E+03  0.00000000000E+00 0.  1.
         11    1    4    4    0    0  0.25929631102E+02  0.13034501582E+02  0.47541682839E+02  0.55699691271E+02  0.00000000000E+00 0. -1.
         21    1    1    2  502  501  0.10987285600E+02 -0.32439620973E+02  0.76158343096E+02  0.83505345199E+02  0.00000000000E+00 0.  1.
<scales pt_clust_5="13000.00000" pt_clust_6="13000.00000" pt_clust_7="13000.00000" pt_clust_8="13000.00000" pt_clust_9="34.24981"></scales>
<clustering>
<clus scale="   34.250">  2  9  1 -1</clus>
<clus scale="   77.498">  5  6 -1 -1</clus>
<clus scale="   90.850">  7  8 -1 -1</clus>
<clus scale="  103.906">  1  5  2 -1</clus>
<clus scale="   34.250">  2  5  1 -1</clus>
</clustering>
</event>
<event>
 9    1  0.1973774E-005  0.1347671E+03  0.7546771E-02  0.1223858E+00
          1   -1    0    0  502    0  0.00000000000E+00  0.00000000000E+00  0.56489272479E+03  0.56489272479E+03  0.00000000000E+00 0. -1.
         -2   -1    0    0    0  501 -0.00000000000E+00 -0.00000000000E+00 -0.53511428201E+02  0.53511428201E+02  0.00000000000E+00 0.  1.
        -24    2    1    2    0    0 -0.27639996029E+02 -0.10989651398E+03  0.11419443978E+03  0.17959406796E+03  0.79827601777E+02 0.  0.
         23    2    1    2    0    0 -0.24823909510E+02  0.70251407492E+02  0.28027373720E+03  0.30467256831E+03  0.93383721172E+02 0.  0.
         13    1    3    3    0    0 -0.11111058398E+02 -0.11484895623E+03  0.11419395221E+03  0.16233914219E+03  0.00000000000E+00 0. -1.
        -14    1    3    3    0    0 -0.16528937631E+02  0.49524422426E+01  0.48757115189E-03  0.17254925778E+02  0.00000000000E+00 0.  1.
        -13    1    4    4    0    0 -0.57198288095E+02  0.24568424506E+02  0.16911344387E+03  0.18020712678E+03  0.00000000000E+00 0.  1.
         13    1    4    4    0    0  0.32374378585E+02  0.45682982986E+02  0.11116029333E+03  0.12446544153E+03  0.00000000000E+00 0. -1.
         21    1    1    2  502  501  0.52463905538E+02  0.39645106492E+02  0.11691311961E+03  0.13413751671E+03  0.00000000000E+00 0. -1.
<scales pt_clust_5="13000.00000" pt_clust_6="13000.00000" pt_clust_7="13000.00000" pt_clust_8="13000.00000" pt_clust_9="65.75862"></scales>
<clustering>
<clus scale="   65.759">  1  9  2 -1</clus>
<clus scale="   79.828">  5  6 -1 -1</clus>
<clus scale="   93.384">  7  8 -1 -1</clus>
<clus scale="  125.754">  2  5  1 -1</clus>
<clus scale="   65.759">  1  5  2 -1</clus>
</clustering>
</event>
<event>
 9    1  0.1973774E-005  0.1166884E+03  0.7546771E-02  0.1252127E+00
          1   -1    0    0  502    0  0.00000000000E+00  0.00000000000E+00  0.30141380099E+03  0.30141380099E+03  0.00000000000E+00 0. -1.
         -2   -1    0    0    0  501 -0.00000000000E+00 -0.00000000000E+00 -0.15178954076E+03  0.15178954076E+03  0.00000000000E+00 0.  1.
         23    2    1    2    0    0  0.56917146785E+02 -0.48198211647E+02 -0.11267719622E+03  0.16320879321E+03  0.91533220353E+02 0.  0.
        -24    2    1    2    0    0 -0.32898660657E+02  0.44865854737E+02  0.19575378304E+03  0.21916669304E+03  0.81358644099E+02 0.  0.
         11    1    4    4    0    0 -0.32501589037E+02  0.21390665825E+01  0.16050096771E+03  0.16377267639E+03  0.00000000000E+00 0. -1.
        -12    1    4    4    0    0 -0.39707162014E+00  0.42726788155E+02  0.35252815323E+02  0.55394016645E+02  0.00000000000E+00 0.  1.
        -13    1    3    3    0    0  0.18762746663E+02 -0.39610097029E+02  0.11435103091E+00  0.43829368295E+02  0.00000000000E+00 0. -1.
         13    1    3    3    0    0  0.38154400122E+02 -0.85881146182E+01 -0.11279154725E+03  0.11937942491E+03  0.00000000000E+00 0.  1.
         21    1    1    2  502  501 -0.24018486128E+02  0.33323569098E+01  0.66547673412E+02  0.70827855502E+02  0.00000000000E+00 0.  1.
<scales pt_clust_5="13000.00000" pt_clust_6="13000.00000" pt_clust_7="13000.00000" pt_clust_8="13000.00000" pt_clust_9="24.24855"></scales>
<clustering>
<clus scale="   24.249">  1  9  2 -1</clus>
<clus scale="   81.359">  5  6 -1 -1</clus>
<clus scale="   91.533">  7  8 -1 -1</clus>
<clus scale="  108.890">  1  5  2 -1</clus>
<clus scale="   24.249">  1  5  2 -1</clus>
</clustering>
</event>
<event>
 9    1  0.1973774E-005  0.1009355E+03  0.7546771E-02  0.1281490E+00
          1   -1    0    0  502    0  0.00000000000E+00  0.00000000000E+00  0.22278387693E+02  0.22278387693E+02  0.00000000000E+00 0. -1.
         -2   -1    0    0    0  501 -0.00000000000E+00 -0.00000000000E+00 -0.88754656726E+03  0.88754656726E+03  0.00000000000E+00 0.  1.
        -24    2    1    2    0    0  0.49572110336E+02  0.34952406181E+01 -0.58774074482E+03  0.59598482312E+03  0.85376316616E+02 0.  0.
         23    2    1    2    0    0 -0.11268167316E+02 -0.30928913986E+02 -0.16270513796E+03  0.18972744785E+03  0.91869326956E+02 0.  0.
         11    1    3    3    0    0  0.38011956484E+02  0.42771892088E+02 -0.30906690822E+03  0.31431941930E+03  0.00000000000E+00 0. -1.
        -12    1    3    3    0    0  0.11560153852E+02 -0.39276651470E+02 -0.27867383660E+03  0.28166540383E+03  0.00000000000E+00 0.  1.
        -13    1    4    4    0    0 -0.40697528998E+02 -0.30562770772E+02 -0.43530069601E+02  0.66971925337E+02  0.00000000000E+00 0. -1.
         13    1    4    4    0    0  0.29429361682E+02 -0.36614321326E+00 -0.11917506836E+03  0.12275552252E+03  0.00000000000E+00 0.  1.
         21    1    1    2  502  501 -0.38303943019E+02  0.27433673368E+02 -0.11482229679E+03  0.12411268398E+03  0.00000000000E+00 0. -1.
<scales pt_clust_5="13000.00000" pt_clust_6="13000.00000" pt_clust_7="13000.00000" pt_clust_8="13000.00000" pt_clust_9="47.11474"></scales>
<clustering>
<clus scale="   47.115">  1  9  2 -1</clus>
<clus scale="   85.376">  5  6 -1 -1</clus>
<clus scale="   91.869">  7  8 -1 -1</clus>
<clus scale="   95.064">  2  5  1 -1</clus>
<clus scale="   47.115">  1  5  2 -1</clus>
</clustering>
</event>
<event>
 9    1  0.1973774E-005  0.1409405E+03  0.7546771E-02  0.1213472E+00
          1   -1    0    0  502    0  0.00000000000E+00  0.00000000000E+00  0.54958979968E+03  0.54958979968E+03  0.00000000000E+00 0. -1.
         -2   -1    0    0    0  501 -0.00000000000E+00 -0.00000000000E+00 -0.69980684314E+03  0.69980684314E+03  0.00000000000E+00 0.  1.
         23    2    1    2    0    0 -0.10085069205E+03  0.42462719679E+02 -0.63061619817E+03  0.64616044524E+03  0.88727599666E+02 0.  0.
        -24    2    1    2    0    0  0.13926957223E+03  0.36512855963E+02  0.48773200352E+03  0.51510605193E+03  0.81991067021E+02 0.  0.
         11    1    4    4    0    0  0.52959604307E+02 -0.10168163522E+02  0.28276922255E+03  0.28786549717E+03  0.00000000000E+00 0. -1.
        -12    1    4    4    0    0  0.86309967924E+02  0.46681019485E+02  0.20496278097E+03  0.22724055476E+03  0.00000000000E+00 0.  1.
        -11    1    3    3    0    0 -0.45940523085E+02 -0.26255628529E+02 -0.23537629693E+03  0.24125068051E+03  0.00000000000E+00 0.  1.
         11    1    3    3    0    0 -0.54910168967E+02  0.68718348208E+02 -0.39523990124E+03  0.40490976472E+03  0.00000000000E+00 0. -1.
         21    1    1    2  502  501 -0.38418880179E+02 -0.78975575643E+02 -0.73328488110E+01  0.88130145659E+02  0.00000000000E+00 0.  1.
<scales pt_clust_5="13000.00000" pt_clust_6="13000.00000" pt_clust_7="13000.00000" pt_clust_8="13000.00000" pt_clust_9="87.82455"></scales>
<clustering>
<clus scale="   81.991">  5  6 -1 -1</clus>
<clus scale="   87.825">  1  9  2 -1</clus>
<clus scale="   88.728">  7  8 -1 -1</clus>
<clus scale="  136.800">  1  5  2 -1</clus>
<clus scale="   87.825">  1  5  2 -1</clus>
</clustering>
</event>
<event>
 9    1  0.1973774E-005  0.1800725E+03  0.7546771E-02  0.1169181E+00
         -2   -1    0    0    0  501 -0.00000000000E+00  0.00000000000E+00  0.66823259039E+03  0.66823259039E+03  0.00000000000E+00 0.  1.
          1   -1    0    0  502    0  0.00000000000E+00 -0.00000000000E+00 -0.78394315735E+02  0.78394315735E+02  0.00000000000E+00 0. -1.
        -24    2    1    2    0    0  0.24898531179E+02  0.15469750474E+03  0.37147052977E+03  0.41087562337E+03  0.79228584297E+02 0.  0.
         23    2    1    2    0    0  0.15715997988E+02 -0.15510720844E+03  0.23091746029E+03  0.29324007020E+03  0.91441930210E+02 0.  0.
         13    1    3    3    0    0  0.82462222408E+01  0.12124304072E+03  0.18957600394E+03  0.22518200722E+03  0.00000000000E+00 0. -1.
        -14    1    3    3    0    0  0.16652308938E+02  0.33454464020E+02  0.18189452583E+03  0.18569361616E+03  0.00000000000E+00 0.  1.
        -11    1    4    4    0    0 -0.18604285447E+02 -0.50896668017E+02  0.24491224883E+02  0.59467725268E+02  0.00000000000E+00 0.  1.
         11    1    4    4    0    0  0.34320283435E+02 -0.10421054042E+03  0.20642623541E+03  0.23377234493E+03  0.00000000000E+00 0. -1.
         21    1    1    2  502  501 -0.40614529167E+02  0.40970370037E+00 -0.12549715398E+02  0.42511212558E+02  0.00000000000E+00 0.  1.
<scales pt_clust_5="13000.00000" pt_clust_6="13000.00000" pt_clust_7="13000.00000" pt_clust_8="13000.00000" pt_clust_9="40.61660"></scales>
<clustering>
<clus scale="   40.617">  2  9  1 -1</clus>
<clus scale="   79.229">  5  6 -1 -1</clus>
<clus scale="   91.442">  7  8 -1 -1</clus>
<clus scale="  174.188">  1  5  2 -1</clus>
<clus scale="   40.617">  2  5  1 -1</clus>
</clustering>
</event>
<event>
 9    1  0.1973774E-005  0.1511718E+03  0.7546771E-02  0.1199613E+00
          1   -1    0    0  502    0  0.00000000000E+00  0.00000000000E+00  0.28689971999E+03  0.28689971999E+03  0.00000000000E+00 0. -1.
         -2   -1    0    0    0  501 -0.00000000000E+00 -0.00000000000E+00 -0.18847489084E+03  0.18847489084E+03  0.00000000000E+00 0.  1.
        -24    2    1    2    0    0  0.12124883844E+03  0.36156188174E+01 -0.12321759493E+03  0.19783081067E+03  0.96125441100E+02 0.  0.
         23    2    1    2    0    0 -0.91292990079E+02 -0.21449236213E+02  0.17573276794E+03  0.21989757489E+03  0.93158241426E+02 0.  0.
         13    1    3    3    0    0  0.10535765827E+03 -0.24262394413E+02 -0.52531020101E+02  0.12020153082E+03  0.00000000000E+00 0. -1.
        -14    1    3    3    0    0  0.15891180173E+02  0.27878013230E+02 -0.70686574825E+02  0.77629279846E+02  0.00000000000E+00 0.  1.
        -11    1    4    4    0    0 -0.25039699998E+02  0.12977241574E+02 -0.81114218600E+00  0.28214416998E+02  0.00000000000E+00 0.  1.
         11    1    4    4    0    0 -0.66253290080E+02 -0.34426477787E+02  0.17654391012E+03  0.19168315790E+03  0.00000000000E+00 0. -1.
         21    1    1    2  502  501 -0.29955848366E+02  0.17833617395E+02  0.45909656138E+02  0.57646225266E+02  0.00000000000E+00 0. -1.
<scales pt_clust_5="13000.00000" pt_clust_6="13000.00000" pt_clust_7="13000.00000" pt_clust_8="13000.00000" pt_clust_9="34.86245"></scales>
<clustering>
<clus scale="   34.862">  1  9  2 -1</clus>
<clus scale="   93.158">  7  8 -1 -1</clus>
<clus scale="   96.125">  5  6 -1 -1</clus>
<clus scale="  149.303">  1  7  2 -1</clus>
<clus scale="   34.862">  1  5  2 -1</clus>
</clustering>
</event>
<event>
 9    1  0.1973774E-005  0.1109640E+03  0.7546771E-02  0.1262992E+00
          1   -1    0    0  502    0  0.00000000000E+00  0.00000000000E+00  0.16946395866E+03  0.16946395866E+03  0.00000000000E+00 0. -1.
         -2   -1    0    0    0  501 -0.00000000000E+00 -0.00000000000E+00 -0.85973572143E+02  0.85973572143E+02  0.00000000000E+00 0.  1.
        -24    2    1    2    0    0  0.60342005617E+02  0.45351355410E+02  0.40334901285E+02  0.11741852595E+03  0.80388450004E+02 0.  0.
         23    2    1    2    0    0 -0.39993166838E+02 -0.33211085486E+02  0.44942480393E+02  0.11425653981E+03  0.91281437062E+02 0.  0.
         11    1    3    3    0    0  0.45338111187E+02 -0.15222984369E+02  0.19125282156E+02  0.51507863445E+02  0.00000000000E+00 0. -1.
        -12    1    3    3    0    0  0.15003894430E+02  0.60574339778E+02  0.21209619130E+02  0.65910662501E+02  0.00000000000E+00 0.  1.
        -11    1    4    4    0    0 -0.19859290401E+02 -0.44989214265E+02 -0.13779396316E+02  0.51071445821E+02  0.00000000000E+00 0. -1.
         11    1    4    4    0    0 -0.20133876437E+02  0.11778128778E+02  0.58721876709E+02  0.63185093987E+02  0.00000000000E+00 0.  1.
         21    1    1    2  502  501 -0.20348838780E+02 -0.12140269923E+02 -0.17869951615E+01  0.23762465049E+02  0.00000000000E+00 0. -1.
<scales pt_clust_5="13000.00000" pt_clust_6="13000.00000" pt_clust_7="13000.00000" pt_clust_8="13000.00000" pt_clust_9="23.69518"></scales>
<clustering>
<clus scale="   23.695">  2  9  1 -1</clus>
<clus scale="   80.388">  5  6 -1 -1</clus>
<clus scale="   91.281">  7  8 -1 -1</clus>
<clus scale="  102.191">  2  5  1 -1</clus>
<clus scale="  110.964">  1  5  2 -1</clus>
</clustering>
</event>
<event>
 9    1  0.1973774E-005  0.1837273E+03  0.7546771E-02  0.1165819E+00
         -2   -1    0    0    0  501 -0.00000000000E+00  0.00000000000E+00  0.57991867684E+03  0.57991867684E+03  0.00000000000E+00 0.  1.
          1   -1    0    0  502    0  0.00000000000E+00 -0.00000000000E+00 -0.34685842499E+03  0.34685842499E+03  0.00000000000E+00 0. -1.
         23    2    1    2    0    0  0.14807210548E+03  0.50405564348E+02  0.52160842992E+03  0.55262498370E+03  0.94090111609E+02 0.  0.
        -24    2    1    2    0    0 -0.18022166858E+03 -0.43806509049E+02 -0.26686237656E+03  0.33481491023E+03  0.80539655008E+02 0.  0.
         13    1    4    4    0    0 -0.14466042858E+03 -0.41733387055E+02 -0.25699782859E+03  0.29785264661E+03  0.00000000000E+00 0. -1.
        -14    1    4    4    0    0 -0.35561240005E+02 -0.20731219940E+01 -0.98645479677E+01  0.36962263622E+02  0.00000000000E+00 0.  1.
        -11    1    3    3    0    0  0.10078807977E+03  0.76842202678E+02  0.32983505634E+03  0.35334703271E+03  0.00000000000E+00 0.  1.
         11    1    3    3    0    0  0.47284025704E+02 -0.26436638330E+02  0.19177337358E+03  0.19927795098E+03  0.00000000000E+00 0. -1.
         21    1    1    2  502  501  0.32149563105E+02 -0.65990552988E+01 -0.21685801511E+02  0.39337207906E+02  0.00000000000E+00 0. -1.
<scales pt_clust_5="13000.00000" pt_clust_6="13000.00000" pt_clust_7="13000.00000" pt_clust_8="13000.00000" pt_clust_9="32.81984"></scales>
<clustering>
<clus scale="   32.820">  2  9  1 -1</clus>
<clus scale="   80.540">  5  6 -1 -1</clus>
<clus scale="   94.090">  7  8 -1 -1</clus>
<clus scale="  177.171">  2  5  1 -1</clus>
<clus scale="   32.820">  2  5  1 -1</clus>
</clustering>
</event>
<event>
 9    1  0.1973774E-005  0.9425676E+02  0.7546771E-02  0.1298646E+00
          1   -1    0    0  502    0  0.00000000000E+00  0.00000000000E+00  0.66299420815E+02  0.66299420815E+02  0.00000000000E+00 0. -1.
         -2   -1    0    0    0  501 -0.00000000000E+00 -0.00000000000E+00 -0.25392963762E+03  0.25392963762E+03  0.00000000000E+00 0.  1.
         23    2    1    2    0    0 -0.22111840433E+02 -0.17540128874E+02 -0.15838339783E+03  0.18489402104E+03  0.91125785037E+02 0.  0.
        -24    2    1    2    0    0  0.24116023017E+02 -0.10096044226E+02 -0.51663076909E+02  0.99694282195E+02  0.81156415098E+02 0.  0.
         11    1    4    4    0    0  0.50620429334E+02 -0.18385488437E+02 -0.19684082417E+02  0.57340362326E+02  0.00000000000E+00 0. -1.
        -12    1    4    4    0    0 -0.26504406317E+02  0.82894442108E+01 -0.31978994493E+02  0.42353919869E+02  0.00000000000E+00 0.  1.
        -13    1    3    3    0    0 -0.55917769037E+02 -0.35241460475E+01 -0.11651264388E+03  0.12928423215E+03  0.00000000000E+00 0.  1.
         13    1    3    3    0    0  0.33805928603E+02 -0.14015982826E+02 -0.41870753949E+02  0.55609788883E+02  0.00000000000E+00 0. -1.
         21    1    1    2  502  501 -0.20041825839E+01  0.27636173100E+02  0.22416257937E+02  0.35640755201E+02  0.00000000000E+00 0. -1.
<scales pt_clust_5="13000.00000" pt_clust_6="13000.00000" pt_clust_7="13000.00000" pt_clust_8="13000.00000" pt_clust_9="27.70875"></scales>
<clustering>
<clus scale="   27.709">  1  9  2 -1</clus>
<clus scale="   81.156">  5  6 -1 -1</clus>
<clus scale="   84.657">  1  5  2 -1</clus>
<clus scale="   91.126">  7  8 -1 -1</clus>
<clus scale="   27.709">  1  5  2 -1</clus>
</clustering>
</event>
<event>
 9    1  0.1973774E-005  0.9683526E+02  0.7546771E-02  0.1292655E+00
          1   -1    0    0  502    0  0.00000000000E+00  0.00000000000E+00  0.11753283364E+03  0.11753283364E+03  0.00000000000E+00 0. -1.
         -2   -1    0    0    0  501 -0.00000000000E+00 -0.00000000000E+00 -0.38542739012E+03  0.38542739012E+03  0.00000000000E+00 0.  1.
        -24    2    1    2    0    0  0.28988198605E+02  0.49616276252E+01 -0.31206660602E+03  0.32404232662E+03  0.82176209708E+02 0.  0.
         23    2    1    2    0    0 -0.19532127295E+02 -0.40175465874E+02 -0.20611632123E+02  0.10457842514E+03  0.92283452314E+02 0.  0.
         13    1    3    3    0    0  0.72561338670E+01  0.42579083397E+02 -0.13594679420E+03  0.14264347400E+03  0.00000000000E+00 0. -1.
        -14    1    3    3    0    0  0.21732064738E+02 -0.37617455772E+02 -0.17611981181E+03  0.18139885261E+03  0.00000000000E+00 0.  1.
        -13    1    4    4    0    0  0.86843700842E+01  0.27417282042E+02 -0.11113667307E+01  0.28781257345E+02  0.00000000000E+00 0.  1.
         13    1    4    4    0    0 -0.28216497379E+02 -0.67592747917E+02 -0.19500265393E+02  0.75797167794E+02  0.00000000000E+00 0. -1.
         21    1    1    2  502  501 -0.94560713097E+01  0.35213838249E+02  0.64783681660E+02  0.74339472007E+02  0.00000000000E+00 0.  1.
<scales pt_clust_5="13000.00000" pt_clust_6="13000.00000" pt_clust_7="13000.00000" pt_clust_8="13000.00000" pt_clust_9="36.46137"></scales>
<clustering>
<clus scale="   36.461">  1  9  2 -1</clus>
<clus scale="   82.176">  5  6 -1 -1</clus>
<clus scale="   87.257">  2  5  1 -1</clus>
<clus scale="   92.283">  7  8 -1 -1</clus>
<clus scale="   36.461">  1  5  2 -1</clus>
</clustering>
</event>
<event>
 9    1  0.1973774E-005  0.1469825E+03  0.7546771E-02  0.1205634E+00
          1   -1    0    0  502    0  0.00000000000E+00  0.00000000000E+00  0.46802970703E+03  0.46802970703E+03  0.00000000000E+00 0. -1.
         -2   -1    0    0    0  501 -0.00000000000E+00 -0.00000000000E+00 -0.80344857772E+02  0.80344857772E+02  0.00000000000E+00 0.  1.
        -24    2    1    2    0    0  0.88945755740E+02 -0.79120690885E+02  0.19146666267E+02  0.14733905612E+03  0.84680407643E+02 0.  0.
         23    2    1    2    0    0 -0.67868341557E+02  0.69601405071E+02  0.33024144399E+03  0.35629722073E+03  0.91857665967E+02 0.  0.
         11    1    3    3    0    0  0.43919812668E+02 -0.65565557649E+02  0.47810308023E+02  0.92269268166E+02  0.00000000000E+00 0. -1.
        -12    1    3    3    0    0  0.45025943071E+02 -0.13555133237E+02 -0.28663641756E+02  0.55069787953E+02  0.00000000000E+00 0.  1.
        -11    1    4    4    0    0 -0.15815191618E+02  0.39309908713E+02  0.34948422273E+02  0.54925234896E+02  0.00000000000E+00 0.  1.
         11    1    4    4    0    0 -0.52053149939E+02  0.30291496357E+02  0.29529302172E+03  0.30137198583E+03  0.00000000000E+00 0. -1.
         21    1    1    2  502  501 -0.21077414183E+02  0.95192858145E+01  0.38296739002E+02  0.44738287956E+02  0.00000000000E+00 0. -1.
<scales pt_clust_5="13000.00000" pt_clust_6="13000.00000" pt_clust_7="13000.00000" pt_clust_8="13000.00000" pt_clust_9="23.12735"></scales>
<clustering>
<clus scale="   23.127">  1  9  2 -1</clus>
<clus scale="   84.680">  5  6 -1 -1</clus>
<clus scale="   91.858">  7  8 -1 -1</clus>
<clus scale="  142.607">  2  5  1 -1</clus>
<clus scale="   23.127">  1  5  2 -1</clus>
</clustering>
</event>
<event>
 9    1  0.1973774E-005  0.9808093E+02  0.7546771E-02  0.1291032E+00
         -2   -1    0    0    0  501 -0.00000000000E+00  0.00000000000E+00  0.39626875425E+03  0.39626875425E+03  0.00000000000E+00 0.  1.
          1   -1    0    0  502    0  0.00000000000E+00 -0.00000000000E+00 -0.96542323948E+02  0.96542323948E+02  0.00000000000E+00 0. -1.
         23    2    1    2    0    0  0.12736178022E+02  0.32441777825E+02  0.34416040242E+03  0.35821796983E+03  0.93054028049E+02 0.  0.
        -24    2    1    2    0    0 -0.21756913393E+02  0.88030261689E+01 -0.22999974334E+02  0.87244150791E+02  0.80818849767E+02 0.  0.
         11    1    4    4    0    0  0.20057149978E+02 -0.23804862140E+02 -0.89355843595E+01  0.32385265084E+02  0.00000000000E+00 0. -1.
        -12    1    4    4    0    0 -0.41814063371E+02  0.32607888309E+02 -0.14064389974E+02  0.54858885706E+02  0.00000000000E+00 0.  1.
        -13    1    3    3    0    0  0.48194236026E+02  0.20015245876E+02  0.11893410432E+03  0.12987923477E+03  0.00000000000E+00 0. -1.
         13    1    3    3    0    0 -0.35458058004E+02  0.12426531949E+02  0.22522629810E+03  0.22833873506E+03  0.00000000000E+00 0.  1.
         21    1    1    2  502  501  0.90207353711E+01 -0.41244803994E+02 -0.21433997781E+02  0.47348957581E+02  0.00000000000E+00 0.  1.
<scales pt_clust_5="13000.00000" pt_clust_6="13000.00000" pt_clust_7="13000.00000" pt_clust_8="13000.00000" pt_clust_9="42.21975"></scales>
<clustering>
<clus scale="   42.220">  2  9  1 -1</clus>
<clus scale="   80.819">  5  6 -1 -1</clus>
<clus scale="   86.559">  2  5  1 -1</clus>
<clus scale="   93.054">  7  8 -1 -1</clus>
<clus scale="   42.220">  2  5  1 -1</clus>
</clustering>
</event>
<event>
 9    1  0.1973774E-005  0.1253982E+03  0.7546771E-02  0.1235032E+00
         -2   -1    0    0    0  501 -0.00000000000E+00  0.00000000000E+00  0.26369640099E+03  0.26369640099E+03  0.00000000000E+00 0.  1.
          1   -1    0    0  502    0  0.00000000000E+00 -0.00000000000E+00 -0.75567517778E+03  0.75567517778E+03  0.00000000000E+00 0. -1.
         23    2    1    2    0    0  0.40611254701E+01  0.84946682698E+02  0.11290944637E+03  0.16763473731E+03  0.90113430910E+02 0.  0.
        -24    2    1    2    0    0  0.89871339849E+02  0.32228504184E+02 -0.67476431245E+03  0.68609868065E+03  0.79429138416E+02 0.  0.
         13    1    4    4    0    0  0.98178704664E+02  0.22038599023E+02 -0.45739236131E+03  0.46832951015E+03  0.00000000000E+00 0. -1.
        -14    1    4    4    0    0 -0.83073648154E+01  0.10189905161E+02 -0.21737195114E+03  0.21776917050E+03  0.00000000000E+00 0.  1.
        -13    1    3    3    0    0  0.34912846896E+02  0.67912715824E+02  0.38979660752E+02  0.85734810907E+02  0.00000000000E+00 0.  1.
         13    1    3    3    0    0 -0.30851721426E+02  0.17033966874E+02  0.73929785620E+02  0.81899926399E+02  0.00000000000E+00 0. -1.
         21    1    1    2  502  501 -0.93932465319E+02 -0.11717518688E+03  0.69876089284E+02  0.16563816081E+03  0.00000000000E+00 0.  1.
<scales pt_clust_5="13000.00000" pt_clust_6="13000.00000" pt_clust_7="13000.00000" pt_clust_8="13000.00000" pt_clust_9="97.03458"></scales>
<clustering>
<clus scale="   79.429">  5  6 -1 -1</clus>
<clus scale="   90.113">  7  8 -1 -1</clus>
<clus scale="  123.907">  1  7  2 -1</clus>
<clus scale="   97.035">  1  9  2 -1</clus>
<clus scale="  125.398">  2  5  1 -1</clus>
</clustering>
</event>
<event>
 9    1  0.1973774E-005  0.1083933E+03  0.7546771E-02  0.1267881E+00
         -4   -1    0    0    0  501 -0.00000000000E+00  0.00000000000E+00  0.43971066726E+03  0.43971066726E+03  0.00000000000E+00 0.  1.
          3   -1    0    0  502    0  0.00000000000E+00 -0.00000000000E+00 -0.91039407979E+02  0.91039407979E+02  0.00000000000E+00 0. -1.
         23    2    1    2    0    0 -0.31485094191E+02  0.57131395391E+02  0.36835183727E+03  0.38531582881E+03  0.92357481631E+02 0.  0.
        -24    2    1    2    0    0  0.25518800661E+02 -0.49591041932E+01  0.75078249255E+01  0.86300889683E+02  0.81949217344E+02 0.  0.
         13    1    4    4    0    0  0.45687201995E+02 -0.28149275718E+02 -0.31929517688E+01  0.53757763072E+02  0.00000000000E+00 0. -1.
        -14    1    4    4    0    0 -0.20168401334E+02  0.23190171525E+02  0.10700776694E+02  0.32543126610E+02  0.00000000000E+00 0.  1.
        -11    1    3    3    0    0  0.18083660840E+02  0.14454277798E+02  0.19160390605E+02  0.30051048305E+02  0.00000000000E+00 0. -1.
         11    1    3    3    0    0 -0.49568755031E+02  0.42677117592E+02  0.34919144667E+03  0.35526478051E+03  0.00000000000E+00 0.  1.
         21    1    1    2  502  501  0.59662935305E+01 -0.52172291197E+02 -0.27188402915E+02  0.59133356749E+02  0.00000000000E+00 0.  1.
<scales pt_clust_5="13000.00000" pt_clust_6="13000.00000" pt_clust_7="13000.00000" pt_clust_8="13000.00000" pt_clust_9="52.51233"></scales>
<clustering>
<clus scale="   52.512">  2  9  1 -1</clus>
<clus scale="   81.949">  5  6 -1 -1</clus>
<clus scale="   92.357">  7  8 -1 -1</clus>
<clus scale="   99.674">  2  5  1 -1</clus>
<clus scale="   52.512">  2  5  1 -1</clus>
</clustering>
</event>
<event>
 9    1  0.1973774E-005  0.2096460E+03  0.7546771E-02  0.1142502E+00
         -2   -1    0    0    0  501 -0.00000000000E+00  0.00000000000E+00  0.40741476334E+03  0.40741476334E+03  0.00000000000E+00 0.  1.
          1   -1    0    0  502    0  0.00000000000E+00 -0.00000000000E+00 -0.31347776788E+03  0.31347776788E+03  0.00000000000E+00 0. -1.
        -24    2    1    2    0    0  0.29238903652E+02  0.11069182490E+03  0.28337843268E+03  0.32113036948E+03  0.98558533411E+02 0.  0.
         23    2    1    2    0    0 -0.73960379237E+02 -0.18080376283E+03 -0.22287248649E+03  0.31013331999E+03  0.91380482506E+02 0.  0.
         11    1    3    3    0    0 -0.13360526287E+01  0.29344728800E+02  0.53779005792E+01  0.29863354795E+02  0.00000000000E+00 0. -1.
        -12    1    3    3    0    0  0.30574956281E+02  0.81347096098E+02  0.27800053210E+03  0.29126701468E+03  0.00000000000E+00 0.  1.
        -11    1    4    4    0    0 -0.30298868416E+02 -0.12091669472E+02 -0.82147459393E+01  0.33640926693E+02  0.00000000000E+00 0.  1.
         11    1    4    4    0    0 -0.43661510821E+02 -0.16871209335E+03 -0.21465774055E+03  0.27649239330E+03  0.00000000000E+00 0. -1.
         21    1    1    2  502  501  0.44721475585E+02  0.70111937927E+02  0.33431049283E+02  0.89628841756E+02  0.00000000000E+00 0.  1.
<scales pt_clust_5="13000.00000" pt_clust_6="13000.00000" pt_clust_7="13000.00000" pt_clust_8="13000.00000" pt_clust_9="83.16065"></scales>
<clustering>
<clus scale="   83.161">  1  9  2 -1</clus>
<clus scale="   91.380">  7  8 -1 -1</clus>
<clus scale="   98.559">  5  6 -1 -1</clus>
<clus scale="  206.369">  2  7  1 -1</clus>
<clus scale="  206.369">  2  5  1 -1</clus>
</clustering>
</event>
<event>
 9    1  0.1973774E-005  0.1298573E+03  0.7546771E-02  0.1230150E+00
         -2   -1    0    0    0  501 -0.00000000000E+00  0.00000000000E+00  0.18158353334E+03  0.18158353334E+03  0.00000000000E+00 0.  1.
          1   -1    0    0  502    0  0.00000000000E+00 -0.00000000000E+00 -0.15877133258E+03  0.15877133258E+03  0.00000000000E+00 0. -1.
         23    2    1    2    0    0 -0.90057462579E+02  0.38806960649E+02  0.91947722303E+02  0.16263065726E+03  0.91531526167E+02 0.  0.
        -24    2    1    2    0    0  0.52670659953E+02 -0.63937188496E+02 -0.62194269359E+02  0.13214480164E+03  0.82048515937E+02 0.  0.
         13    1    4    4    0    0  0.47152772295E+02 -0.37490606569E+02 -0.79735643865E+02  0.99933489975E+02  0.00000000000E+00 0. -1.
        -14    1    4    4    0    0  0.55178876576E+01 -0.26446581928E+02  0.17541374505E+02  0.32211311668E+02  0.00000000000E+00 0.  1.
        -11    1    3    3    0    0 -0.10288086560E+03  0.12362902927E+02  0.79983302823E+02  0.13089936060E+03  0.00000000000E+00 0.  1.
         11    1    3    3    0    0  0.12823403023E+02  0.26444057722E+02  0.11964419480E+02  0.31731296655E+02  0.00000000000E+00 0. -1.
         21    1    1    2  502  501  0.37386802626E+02  0.25130227847E+02 -0.69412521894E+01  0.45579407019E+02  0.00000000000E+00 0. -1.
<scales pt_clust_5="13000.00000" pt_clust_6="13000.00000" pt_clust_7="13000.00000" pt_clust_8="13000.00000" pt_clust_9="45.04777"></scales>
<clustering>
<clus scale="   45.048">  2  9  1 -1</clus>
<clus scale="   82.049">  5  6 -1 -1</clus>
<clus scale="   91.532">  7  8 -1 -1</clus>
<clus scale="  123.357">  2  5  1 -1</clus>
<clus scale="   45.048">  2  5  1 -1</clus>
</clustering>
</event>
<event>
 9    1  0.2079121E-005  0.1254958E+03  0.7546771E-02  0.1236672E+00
          1   -1    0    0  502    0  0.00000000000E+00  0.00000000000E+00  0.32979551644E+03  0.32979551644E+03  0.00000000000E+00 0. -1.
         -2   -1    0    0    0  501 -0.00000000000E+00 -0.00000000000E+00 -0.19485135469E+03  0.19485135469E+03  0.00000000000E+00 0.  1.
         23    2    1    2    0    0 -0.76937042344E+02  0.37267089421E+02 -0.15798858808E+03  0.20240466067E+03  0.93269010178E+02 0.  0.
        -24    2    1    2    0    0  0.55906312799E+02 -0.32811739157E+02  0.27182598237E+03  0.29211518996E+03  0.85086975947E+02 0.  0.
         11    1    4    4    0    0  0.62408307460E+02 -0.35374009409E+02  0.27517042963E+03  0.28436751348E+03  0.00000000000E+00 0. -1.
        -12    1    4    4    0    0 -0.65019946605E+01  0.25622702527E+01 -0.33444472546E+01  0.77476764808E+01  0.00000000000E+00 0.  1.
        -13    1    3    3    0    0 -0.13163861369E+02  0.55794962094E+02 -0.94502415317E+02  0.11053086240E+03  0.00000000000E+00 0. -1.
         13    1    3    3    0    0 -0.63773180976E+02 -0.18527872673E+02 -0.63486172761E+02  0.91873798275E+02  0.00000000000E+00 0.  1.
         21    1    1    2  502  501  0.21030729545E+02 -0.44553502646E+01  0.21106767454E+02  0.30127020489E+02  0.00000000000E+00 0. -1.
<scales pt_clust_5="13000.00000" pt_clust_6="13000.00000" pt_clust_7="13000.00000" pt_clust_8="13000.00000" pt_clust_9="21.49748"></scales>
<clustering>
<clus scale="   21.497">  1  9  2 -1</clus>
<clus scale="   85.087">  5  6 -1 -1</clus>
<clus scale="   93.269">  7  8 -1 -1</clus>
<clus scale="  119.540">  1  5  2 -1</clus>
<clus scale="   21.497">  1  5  2 -1</clus>
</clustering>
</event>
<event>
 9    1  0.1973774E-005  0.1490554E+03  0.7546771E-02  0.1205707E+00
          1   -1    0    0  502    0  0.00000000000E+00  0.00000000000E+00  0.87626583370E+02  0.87626583370E+02  0.00000000000E+00 0. -1.
         -2   -1    0    0    0  501 -0.00000000000E+00 -0.00000000000E+00 -0.49845653147E+03  0.49845653147E+03  0.00000000000E+00 0.  1.
        -24    2    1    2    0    0 -0.13310990838E+03  0.37450215002E+02 -0.32459652627E+03  0.35978807715E+03  0.70454164407E+02 0.  0.
         23    2    1    2    0    0  0.45968198654E+02 -0.42817213318E+02 -0.13318830846E+02  0.11254522528E+03  0.92426443369E+02 0.  0.
         11    1    3    3    0    0 -0.35084039690E+02  0.37562085461E+02 -0.69005528005E+02  0.86043959697E+02  0.00000000000E+00 0. -1.
        -12    1    3    3    0    0 -0.98025868689E+02 -0.11187045909E+00 -0.25559099827E+03  0.27374411746E+03  0.00000000000E+00 0.  1.
        -11    1    4    4    0    0 -0.79750004564E+01  0.23908898486E+02  0.23850113634E+01  0.25316483530E+02  0.00000000000E+00 0.  1.
         11    1    4    4    0    0  0.53943199111E+02 -0.66726111804E+02 -0.15703842209E+02  0.87228741748E+02  0.00000000000E+00 0. -1.
         21    1    1    2  502  501  0.87141709725E+02  0.53669983160E+01 -0.72914590986E+02  0.11374981241E+03  0.00000000000E+00 0.  1.
<scales pt_clust_5="13000.00000" pt_clust_6="13000.00000" pt_clust_7="13000.00000" pt_clust_8="13000.00000" pt_clust_9="87.30683"></scales>
<clustering>
<clus scale="   70.454">  5  6 -1 -1</clus>
<clus scale="   87.307">  1  9  2 -1</clus>
<clus scale="   92.426">  7  8 -1 -1</clus>
<clus scale="  136.523">  2  5  1 -1</clus>
<clus scale="   87.307">  1  5  2 -1</clus>
</clustering>
</event>
<event>
 9    1  0.1973774E-005  0.1312389E+03  0.7546771E-02  0.1229254E+00
         -2   -1    0    0    0  501 -0.00000000000E+00  0.00000000000E+00  0.49589968483E+03  0.49589968483E+03  0.00000000000E+00 0.  1.
          1   -1    0    0  502    0  0.00000000000E+00 -0.00000000000E+00 -0.12913564854E+03  0.12913564854E+03  0.00000000000E+00 0. -1.
        -24    2    1    2    0    0  0.15111331359E+02 -0.91915678943E+02  0.44673851095E+03  0.46336000890E+03  0.80314110264E+02 0.  0.
         23    2    1    2    0    0 -0.78528081361E+01  0.71340357789E+02 -0.63271449978E+02  0.13419767841E+03  0.94099029021E+02 0.  0.
         13    1    3    3    0    0 -0.19615438743E+02 -0.45439833228E+02  0.97576515615E+02  0.10941078686E+03  0.00000000000E+00 0. -1.
        -14    1    3    3    0    0  0.34726770102E+02 -0.46475845715E+02  0.34916199533E+03  0.35394922204E+03  0.00000000000E+00 0.  1.
        -11    1    4    4    0    0  0.28445149310E+02  0.43167348775E+02  0.49633483643E+01  0.51934394639E+02  0.00000000000E+00 0.  1.
         11    1    4    4    0    0 -0.36297957446E+02  0.28173009014E+02 -0.68234798342E+02  0.82263283769E+02  0.00000000000E+00 0. -1.
         21    1    1    2  502  501 -0.72585232232E+01  0.20575321155E+02 -0.16703024674E+02  0.27477646065E+02  0.00000000000E+00 0.  1.
<scales pt_clust_5="13000.00000" pt_clust_6="13000.00000" pt_clust_7="13000.00000" pt_clust_8="13000.00000" pt_clust_9="21.81811"></scales>
<clustering>
<clus scale="   21.818">  2  9  1 -1</clus>
<clus scale="   80.314">  5  6 -1 -1</clus>
<clus scale="   94.099">  7  8 -1 -1</clus>
<clus scale="  121.735">  1  5  2 -1</clus>
<clus scale="   21.818">  2  5  1 -1</clus>
</clustering>
</event>
<event>
 9    1  0.1973774E-005  0.9245000E+02  0.7546771E-02  0.1303676E+00
         -2   -1    0    0    0  501 -0.00000000000E+00  0.00000000000E+00  0.73968788876E+02  0.73968788876E+02  0.00000000000E+00 0.  1.
          1   -1    0    0  502    0  0.00000000000E+00 -0.00000000000E+00 -0.36461193730E+03  0.36461193730E+03  0.00000000000E+00 0. -1.
        -24    2    1    2    0    0  0.95918803281E+00  0.46641496732E+01  0.15624784360E+02  0.82001901086E+02  0.80358593577E+02 0.  0.
         23    2    1    2    0    0  0.20962776873E+01 -0.60816811624E+02 -0.12246580589E+03  0.16436623662E+03  0.91188306115E+02 0.  0.
         11    1    3    3    0    0 -0.19078679938E+02  0.63308907519E+01 -0.27707801672E+02  0.34231542171E+02  0.00000000000E+00 0. -1.
        -12    1    3    3    0    0  0.20037867971E+02 -0.16667410787E+01  0.43332586032E+02  0.47770358915E+02  0.00000000000E+00 0.  1.
        -11    1    4    4    0    0  0.24277247869E+02 -0.71880128358E+01  0.36094322175E+01  0.25574993520E+02  0.00000000000E+00 0.  1.
         11    1    4    4    0    0 -0.22180970181E+02 -0.53628798789E+02 -0.12607523810E+03  0.13879124310E+03  0.00000000000E+00 0. -1.
         21    1    1    2  502  501 -0.30554657201E+01  0.56152661951E+02 -0.18380212690E+03  0.19221258847E+03  0.00000000000E+00 0. -1.
<scales pt_clust_5="13000.00000" pt_clust_6="13000.00000" pt_clust_7="13000.00000" pt_clust_8="13000.00000" pt_clust_9="56.23573"></scales>
<clustering>
<clus scale="   56.236">  2  9  1 -1</clus>
<clus scale="   80.359">  5  6 -1 -1</clus>
<clus scale="   81.788">  1  5  2 -1</clus>
<clus scale="   91.188">  7  8 -1 -1</clus>
<clus scale="   56.236">  2  5  1 -1</clus>
</clustering>
</event>
<event>
 9    1  0.1973774E-005  0.1257742E+03  0.7546771E-02  0.1241326E+00
         -2   -1    0    0    0  501 -0.00000000000E+00  0.00000000000E+00  0.16694148620E+03  0.16694148620E+03  0.00000000000E+00 0.  1.
          1   -1    0    0  502    0  0.00000000000E+00 -0.00000000000E+00 -0.34546898994E+03  0.34546898994E+03  0.00000000000E+00 0. -1.
         23    2    1    2    0    0 -0.78950375413E+02 -0.21874179708E+01  0.12647284646E+03  0.18025508831E+03  0.10128459605E+03 0.  0.
        -24    2    1    2    0    0  0.35605440103E+02 -0.76989653351E-01 -0.22984448672E+03  0.24536647855E+03  0.78156685098E+02 0.  0.
         13    1    4    4    0    0  0.38978284220E+02 -0.88254845677E+01 -0.23226880661E+03  0.23568197713E+03  0.00000000000E+00 0. -1.
        -14    1    4    4    0    0 -0.33728441178E+01  0.87484949143E+01  0.24243198925E+01  0.96845014147E+01  0.00000000000E+00 0.  1.
        -11    1    3    3    0    0 -0.14741024905E+02  0.39921083439E+02  0.15465554931E+02  0.45278848346E+02  0.00000000000E+00 0. -1.
         11    1    3    3    0    0 -0.64209350508E+02 -0.42108501410E+02  0.11100729153E+03  0.13497623997E+03  0.00000000000E+00 0.  1.
         21    1    1    2  502  501  0.43344935310E+02  0.22644076242E+01 -0.75155863479E+02  0.86788909281E+02  0.00000000000E+00 0. -1.
<scales pt_clust_5="13000.00000" pt_clust_6="13000.00000" pt_clust_7="13000.00000" pt_clust_8="13000.00000" pt_clust_9="43.40404"></scales>
<clustering>
<clus scale="   43.404">  2  9  1 -1</clus>
<clus scale="   78.157">  5  6 -1 -1</clus>
<clus scale="  101.285">  7  8 -1 -1</clus>
<clus scale="  108.023">  2  5  1 -1</clus>
<clus scale="   43.404">  2  5  1 -1</clus>
</clustering>
</event>
<event>
 9    1  0.1973774E-005  0.1219316E+03  0.7546771E-02  0.1244250E+00
         -2   -1    0    0    0  501 -0.00000000000E+00  0.00000000000E+00  0.95514533046E+02  0.95514533046E+02  0.00000000000E+00 0.  1.
          1   -1    0    0  502    0  0.00000000000E+00 -0.00000000000E+00 -0.71938413530E+03  0.71938413530E+03  0.00000000000E+00 0. -1.
        -24    2    1    2    0    0 -0.20908117917E+02  0.74780168706E+02  0.51021716897E+02  0.12250427571E+03  0.79842713792E+02 0.  0.
         23    2    1    2    0    0  0.45256139087E+02 -0.77733240024E+02 -0.58445906038E+03  0.59869519204E+03  0.93557281838E+02 0.  0.
         11    1    3    3    0    0 -0.44007027954E+02  0.43192750811E+02  0.46641378212E+01  0.61838389481E+02  0.00000000000E+00 0. -1.
        -12    1    3    3    0    0  0.23098910038E+02  0.31587417895E+02  0.46357579076E+02  0.60665886229E+02  0.00000000000E+00 0.  1.
        -13    1    4    4    0    0  0.11067071812E+01 -0.77620235879E+02 -0.46296465679E+03  0.46942773592E+03  0.00000000000E+00 0. -1.
         13    1    4    4    0    0  0.44149431906E+02 -0.11300414572E+00 -0.12149440359E+03  0.12926745612E+03  0.00000000000E+00 0.  1.
         21    1    1    2  502  501 -0.24348021171E+02  0.29530713182E+01 -0.90432258777E+02  0.93699200597E+02  0.00000000000E+00 0.  1.
<scales pt_clust_5="13000.00000" pt_clust_6="13000.00000" pt_clust_7="13000.00000" pt_clust_8="13000.00000" pt_clust_9="24.52645"></scales>
<clustering>
<clus scale="   24.526">  2  9  1 -1</clus>
<clus scale="   79.843">  5  6 -1 -1</clus>
<clus scale="   93.557">  7  8 -1 -1</clus>
<clus scale="  111.755">  1  5  2 -1</clus>
<clus scale="   24.526">  2  5  1 -1</clus>
</clustering>
</event>
<event>
 9    1  0.1973774E-005  0.1038183E+03  0.7546771E-02  0.1276372E+00
          3   -1    0    0  502    0  0.00000000000E+00  0.00000000000E+00  0.17299153315E+03  0.17299153315E+03  0.00000000000E+00 0. -1.
         -4   -1    0    0    0  501 -0.00000000000E+00 -0.00000000000E+00 -0.35570638223E+03  0.35570638223E+03  0.00000000000E+00 0.  1.
         23    2    1    2    0    0 -0.69371191954E+02 -0.10134393689E+03 -0.25807984436E+03  0.29965915737E+03  0.90041372240E+02 0.  0.
        -24    2    1    2    0    0  0.15710496548E+02  0.44769547747E+02  0.10909724361E+03  0.14407996615E+03  0.81275432791E+02 0.  0.
         13    1    4    4    0    0  0.26086214356E+02 -0.16594118956E+02  0.26906992554E+02  0.40985870878E+02  0.00000000000E+00 0. -1.
        -14    1    4    4    0    0 -0.10375717807E+02  0.61363666704E+02  0.82190251056E+02  0.10309409527E+03  0.00000000000E+00 0.  1.
        -11    1    3    3    0    0 -0.43190359589E+02 -0.52980907268E+02 -0.22573617130E+03  0.23585843791E+03  0.00000000000E+00 0.  1.
         11    1    3    3    0    0 -0.26180832365E+02 -0.48363029621E+02 -0.32343673051E+02  0.63800719462E+02  0.00000000000E+00 0. -1.
         21    1    1    2  502  501  0.53660695406E+02  0.56574389142E+02 -0.33732248335E+02  0.84958791870E+02  0.00000000000E+00 0. -1.
<scales pt_clust_5="13000.00000" pt_clust_6="13000.00000" pt_clust_7="13000.00000" pt_clust_8="13000.00000" pt_clust_9="77.97520"></scales>
<clustering>
<clus scale="   77.975">  2  9  1 -1</clus>
<clus scale="   81.275">  5  6 -1 -1</clus>
<clus scale="   90.041">  7  8 -1 -1</clus>
<clus scale="   96.315">  1  5  2 -1</clus>
<clus scale="   96.315">  1  5  2 -1</clus>
</clustering>
</event>
<event>
 9    1  0.1973774E-005  0.1105956E+03  0.7546771E-02  0.1262143E+00
          1   -1    0    0  502    0  0.00000000000E+00  0.00000000000E+00  0.50079723197E+03  0.50079723197E+03  0.00000000000E+00 0. -1.
         -2   -1    0    0    0  501 -0.00000000000E+00 -0.00000000000E+00 -0.94975291715E+02  0.94975291715E+02  0.00000000000E+00 0.  1.
         23    2    1    2    0    0  0.10999029619E+02 -0.66371139948E+02 -0.47836453330E+02  0.12058790546E+03  0.87903411801E+02 0.  0.
        -24    2    1    2    0    0 -0.42904137765E+02  0.58553186386E+02  0.35206751763E+03  0.36841494836E+03  0.80677112846E+02 0.  0.
         11    1    4    4    0    0 -0.61571315357E+02  0.42864033987E+02  0.31664188488E+03  0.32540810614E+03  0.00000000000E+00 0. -1.
        -12    1    4    4    0    0  0.18667177592E+02  0.15689152398E+02  0.35425632751E+02  0.43006842224E+02  0.00000000000E+00 0.  1.
        -13    1    3    3    0    0  0.43722779622E+02 -0.22648028693E+02 -0.19866922771E+01  0.49280438388E+02  0.00000000000E+00 0. -1.
         13    1    3    3    0    0 -0.32723750002E+02 -0.43723111255E+02 -0.45849761053E+02  0.71307467075E+02  0.00000000000E+00 0.  1.
         21    1    1    2  502  501  0.31905108145E+02  0.78179535622E+01  0.10159087596E+03  0.10676966986E+03  0.00000000000E+00 0. -1.
<scales pt_clust_5="13000.00000" pt_clust_6="13000.00000" pt_clust_7="13000.00000" pt_clust_8="13000.00000" pt_clust_9="32.84899"></scales>
<clustering>
<clus scale="   32.849">  1  9  2 -1</clus>
<clus scale="   80.677">  5  6 -1 -1</clus>
<clus scale="   87.903">  7  8 -1 -1</clus>
<clus scale="  104.944">  1  5  2 -1</clus>
<clus scale="   32.849">  1  5  2 -1</clus>
</clustering>
</event>
<event>
 9    1  0.1973774E-005  0.1128615E+03  0.7546771E-02  0.1259650E+00
          1   -1    0    0  502    0  0.00000000000E+00  0.00000000000E+00  0.28271642052E+03  0.28271642052E+03  0.00000000000E+00 0. -1.
         -2   -1    0    0    0  501 -0.00000000000E+00 -0.00000000000E+00 -0.14838168089E+03  0.14838168089E+03  0.00000000000E+00 0.  1.
         23    2    1    2    0    0  0.14232044164E+02 -0.63920366913E+02 -0.78641654902E+02  0.13776488124E+03  0.92229540988E+02 0.  0.
        -24    2    1    2    0    0 -0.46129627533E+02  0.52705928656E+02  0.35469109436E+02  0.11263442186E+03  0.80762601568E+02 0.  0.
         13    1    4    4    0    0 -0.56977831555E+02  0.11197027833E+02  0.17966690524E+01  0.58095393455E+02  0.00000000000E+00 0. -1.
        -14    1    4    4    0    0  0.10848204023E+02  0.41508900823E+02  0.33672440384E+02  0.54539028406E+02  0.00000000000E+00 0.  1.
        -13    1    3    3    0    0 -0.14201190597E+02 -0.59843108123E+02 -0.86524767493E+01  0.62110681514E+02  0.00000000000E+00 0. -1.
         13    1    3    3    0    0  0.28433234761E+02 -0.40772587902E+01 -0.69989178153E+02  0.75654199730E+02  0.00000000000E+00 0.  1.
         21    1    1    2  502  501  0.31897583369E+02  0.11214438257E+02  0.17750728509E+03  0.18069879831E+03  0.00000000000E+00 0. -1.
<scales pt_clust_5="13000.00000" pt_clust_6="13000.00000" pt_clust_7="13000.00000" pt_clust_8="13000.00000" pt_clust_9="33.81153"></scales>
<clustering>
<clus scale="   33.812">  1  9  2 -1</clus>
<clus scale="   80.763">  5  6 -1 -1</clus>
<clus scale="   92.230">  7  8 -1 -1</clus>
<clus scale="  103.702">  1  5  2 -1</clus>
<clus scale="   33.812">  1  5  2 -1</clus>
</clustering>
</event>
<event>
 9    1  0.1973774E-005  0.9751795E+02  0.7546771E-02  0.1292620E+00
         -2   -1    0    0    0  501 -0.00000000000E+00  0.00000000000E+00  0.15667651181E+03  0.15667651181E+03  0.00000000000E+00 0.  1.
          1   -1    0    0  502    0  0.00000000000E+00 -0.00000000000E+00 -0.32338928577E+03  0.32338928577E+03  0.00000000000E+00 0. -1.
         23    2    1    2    0    0 -0.64729277673E+01  0.33973093866E+02  0.11502087240E+03  0.15189300128E+03  0.92981787727E+02 0.  0.
        -24    2    1    2    0    0 -0.28652822659E+02  0.27170199083E+02 -0.20656051058E+03  0.22510330053E+03  0.80281052642E+02 0.  0.
         13    1    4    4    0    0 -0.50622562203E+02  0.26894242970E+02 -0.91569293735E+02  0.10803184560E+03  0.00000000000E+00 0. -1.
        -14    1    4    4    0    0  0.21969739544E+02  0.27595611327E+00 -0.11499121684E+03  0.11707145492E+03  0.00000000000E+00 0.  1.
        -11    1    3    3    0    0 -0.39128627918E+02  0.48589488400E+02  0.83349333242E+02  0.10411099489E+03  0.00000000000E+00 0.  1.
         11    1    3    3    0    0  0.32655700151E+02 -0.14616394534E+02  0.31671539158E+02  0.47782006385E+02  0.00000000000E+00 0. -1.
         21    1    1    2  502  501  0.35125750427E+02 -0.61143292949E+02 -0.75173135781E+02  0.10306949577E+03  0.00000000000E+00 0.  1.
<scales pt_clust_5="13000.00000" pt_clust_6="13000.00000" pt_clust_7="13000.00000" pt_clust_8="13000.00000" pt_clust_9="70.51468"></scales>
<clustering>
<clus scale="   70.515">  2  9  1 -1</clus>
<clus scale="   80.281">  5  6 -1 -1</clus>
<clus scale="   85.494">  2  5  1 -1</clus>
<clus scale="   92.982">  7  8 -1 -1</clus>
<clus scale="   70.515">  2  5  1 -1</clus>
</clustering>
</event>
<event>
 9    1  0.1973774E-005  0.1097381E+03  0.7546771E-02  0.1267481E+00
          1   -1    0    0  502    0  0.00000000000E+00  0.00000000000E+00  0.16487954653E+03  0.16487954653E+03  0.00000000000E+00 0. -1.
         -2   -1    0    0    0  501 -0.00000000000E+00 -0.00000000000E+00 -0.27839055933E+03  0.27839055933E+03  0.00000000000E+00 0.  1.
        -24    2    1    2    0    0  0.52180762815E+02 -0.36541059996E+01 -0.20516655225E+03  0.22659365158E+03  0.80716691427E+02 0.  0.
         23    2    1    2    0    0 -0.59915758456E+02 -0.25489589138E+02 -0.44435818247E+01  0.11595790468E+03  0.95848176677E+02 0.  0.
         11    1    3    3    0    0  0.32463338177E+02 -0.40995465684E+02 -0.92262868825E+02  0.10605156055E+03  0.00000000000E+00 0. -1.
        -12    1    3    3    0    0  0.19717424638E+02  0.37341359685E+02 -0.11290368343E+03  0.12054209103E+03  0.00000000000E+00 0.  1.
        -11    1    4    4    0    0 -0.84555484796E+02 -0.80864624581E+01  0.25979856125E+01  0.84981000309E+02  0.00000000000E+00 0. -1.
         11    1    4    4    0    0  0.24639726341E+02 -0.17403126680E+02 -0.70415674371E+01  0.30976904370E+02  0.00000000000E+00 0.  1.
         21    1    1    2  502  501  0.77349956406E+01  0.29143695138E+02  0.96099121273E+02  0.10071854960E+03  0.00000000000E+00 0. -1.
<scales pt_clust_5="13000.00000" pt_clust_6="13000.00000" pt_clust_7="13000.00000" pt_clust_8="13000.00000" pt_clust_9="30.15270"></scales>
<clustering>
<clus scale="   30.153">  1  9  2 -1</clus>
<clus scale="   80.717">  5  6 -1 -1</clus>
<clus scale="   95.848">  7  8 -1 -1</clus>
<clus scale="   96.803">  2  5  1 -1</clus>
<clus scale="   30.153">  1  5  2 -1</clus>
</clustering>
</event>
<event>
 9    1  0.1973774E-005  0.1772953E+03  0.7546771E-02  0.1188827E+00
          3   -1    0    0  502    0  0.00000000000E+00  0.00000000000E+00  0.83196962745E+03  0.83196962745E+03  0.00000000000E+00 0. -1.
         -4   -1    0    0    0  501 -0.00000000000E+00 -0.00000000000E+00 -0.72837211840E+02  0.72837211840E+02  0.00000000000E+00 0.  1.
        -24    2    1    2    0    0  0.78481600644E+02 -0.27636988964E+02  0.14032718828E+03  0.18286837110E+03  0.82619347495E+02 0.  0.
         23    2    1    2    0    0  0.44375764683E+02  0.14459137240E+03  0.44718736552E+03  0.48064000049E+03  0.90345983459E+02 0.  0.
         11    1    3    3    0    0  0.74141213593E+02 -0.28720338808E+02  0.15135476041E+03  0.17096795289E+03  0.00000000000E+00 0. -1.
        -12    1    3    3    0    0  0.43403870508E+01  0.10833498441E+01 -0.11027572132E+02  0.11900418217E+02  0.00000000000E+00 0.  1.
        -13    1    4    4    0    0 -0.21945664048E+02  0.65649935190E+01  0.64825669880E+02  0.68753754704E+02  0.00000000000E+00 0. -1.
         13    1    4    4    0    0  0.66321428732E+02  0.13802637888E+03  0.38236169564E+03  0.41188624579E+03  0.00000000000E+00 0.  1.
         21    1    1    2  502  501 -0.12285736533E+03 -0.11695438344E+03  0.17161786181E+03  0.24129846769E+03  0.00000000000E+00 0. -1.
<scales pt_clust_5="13000.00000" pt_clust_6="13000.00000" pt_clust_7="13000.00000" pt_clust_8="13000.00000" pt_clust_9="152.54908"></scales>
<clustering>
<clus scale="   82.619">  5  6 -1 -1</clus>
<clus scale="   90.346">  7  8 -1 -1</clus>
<clus scale="  117.257">  2  5  1 -1</clus>
<clus scale="  152.549">  2  9  1 -1</clus>
<clus scale="  177.295">  1  5  2 -1</clus>
</clustering>
</event>
<event>
 9    1  0.1973774E-005  0.1312825E+03  0.7546771E-02  0.1230163E+00
          1   -1    0    0  502    0  0.00000000000E+00  0.00000000000E+00  0.34195007734E+03  0.34195007734E+03  0.00000000000E+00 0. -1.
         -2   -1    0    0    0  501 -0.00000000000E+00 -0.00000000000E+00 -0.80766637617E+02  0.80766637617E+02  0.00000000000E+00 0.  1.
        -24    2    1    2    0    0 -0.11757078748E+03  0.59320470580E+01  0.51817846835E+02  0.15238049184E+03  0.81710744661E+02 0.  0.
         23    2    1    2    0    0  0.75172712316E+02  0.33699581083E+01  0.17781667902E+03  0.21667564127E+03  0.98322270546E+02 0.  0.
         13    1    3    3    0    0 -0.34502152361E+02  0.39601577509E+02  0.28531131114E+02  0.59772141516E+02  0.00000000000E+00 0. -1.
        -14    1    3    3    0    0 -0.83068635120E+02 -0.33669530451E+02  0.23286715721E+02  0.92608350329E+02  0.00000000000E+00 0.  1.
        -13    1    4    4    0    0  0.61304681495E+02 -0.37661082794E+02  0.69558369109E+02  0.10007491116E+03  0.00000000000E+00 0. -1.
         13    1    4    4    0    0  0.13868030821E+02  0.41031040902E+02  0.10825830992E+03  0.11660073011E+03  0.00000000000E+00 0.  1.
         21    1    1    2  502  501  0.42398075164E+02 -0.93020051663E+01  0.31548913863E+02  0.53660581843E+02  0.00000000000E+00 0. -1.
<scales pt_clust_5="13000.00000" pt_clust_6="13000.00000" pt_clust_7="13000.00000" pt_clust_8="13000.00000" pt_clust_9="43.40650"></scales>
<clustering>
<clus scale="   43.406">  2  9  1 -1</clus>
<clus scale="   81.711">  5  6 -1 -1</clus>
<clus scale="   98.322">  7  8 -1 -1</clus>
<clus scale="  119.350">  2  5  1 -1</clus>
<clus scale="  131.282">  1  5  2 -1</clus>
</clustering>
</event>
<event>
 9    1  0.1973774E-005  0.1520660E+03  0.7546771E-02  0.1220626E+00
          1   -1    0    0  502    0  0.00000000000E+00  0.00000000000E+00  0.21151337961E+03  0.21151337961E+03  0.00000000000E+00 0. -1.
         -2   -1    0    0    0  501 -0.00000000000E+00 -0.00000000000E+00 -0.27464680619E+03  0.27464680619E+03  0.00000000000E+00 0.  1.
        -24    2    1    2    0    0  0.53548104328E+02  0.15855851454E+01 -0.36176893533E+02  0.10040043017E+03  0.76821645356E+02 0.  0.
         23    2    1    2    0    0 -0.62141257149E+01 -0.12531762409E+03  0.11550797847E+03  0.19121860308E+03  0.86483170650E+02 0.  0.
         11    1    3    3    0    0  0.33565864023E+02 -0.34540176565E+02 -0.45172659261E+01  0.48374546160E+02  0.00000000000E+00 0. -1.
        -12    1    3    3    0    0  0.19982240305E+02  0.36125761710E+02 -0.31659627607E+02  0.52025884010E+02  0.00000000000E+00 0.  1.
        -13    1    4    4    0    0 -0.10446862338E+02 -0.24435522233E+02 -0.11507398914E+02  0.28959487380E+02  0.00000000000E+00 0.  1.
         13    1    4    4    0    0  0.42327366233E+01 -0.10088210186E+03  0.12701537738E+03  0.16225911570E+03  0.00000000000E+00 0. -1.
         21    1    1    2  502  501 -0.47333978613E+02  0.12373203895E+03 -0.14246451151E+03  0.19454115255E+03  0.00000000000E+00 0.  1.
<scales pt_clust_5="13000.00000" pt_clust_6="13000.00000" pt_clust_7="13000.00000" pt_clust_8="13000.00000" pt_clust_9="125.07883"></scales>
<clustering>
<clus scale="   76.822">  5  6 -1 -1</clus>
<clus scale="   86.483">  7  8 -1 -1</clus>
<clus scale="   93.656">  2  5  1 -1</clus>
<clus scale="  125.079">  2  9  1 -1</clus>
<clus scale="  152.066">  1  5  2 -1</clus>
</clustering>
</event>
<event>
 9    1  0.1973774E-005  0.3854282E+03  0.7546771E-02  0.1049179E+00
          1   -1    0    0  502    0  0.00000000000E+00  0.00000000000E+00  0.11290887175E+04  0.11290887175E+04  0.00000000000E+00 0. -1.
         -2   -1    0    0    0  501 -0.00000000000E+00 -0.00000000000E+00 -0.33868686413E+03  0.33868686413E+03  0.00000000000E+00 0.  1.
        -24    2    1    2    0    0  0.23071969027E+03  0.32906291011E+03 -0.12168163088E+03  0.42728115028E+03  0.79049274502E+02 0.  0.
         23    2    1    2    0    0 -0.15803510757E+03 -0.17051773436E+03  0.78767183330E+03  0.82625652574E+03  0.90672688243E+02 0.  0.
         13    1    3    3    0    0  0.66526945636E+02  0.15296539151E+03 -0.70719430350E+02  0.18117804317E+03  0.00000000000E+00 0. -1.
        -14    1    3    3    0    0  0.16419274463E+03  0.17609751860E+03 -0.50962200529E+02  0.24610310711E+03  0.00000000000E+00 0.  1.
        -11    1    4    4    0    0 -0.52460607977E+02 -0.17265673327E+02  0.10456355629E+03  0.11825293302E+03  0.00000000000E+00 0.  1.
         11    1    4    4    0    0 -0.10557449959E+03 -0.15325206103E+03  0.68310827701E+03  0.70800359271E+03  0.00000000000E+00 0. -1.
         21    1    1    2  502  501 -0.72684582700E+02 -0.15854517575E+03  0.12441165098E+03  0.21423790565E+03  0.00000000000E+00 0. -1.
<scales pt_clust_5="13000.00000" pt_clust_6="13000.00000" pt_clust_7="13000.00000" pt_clust_8="13000.00000" pt_clust_9="174.41222"></scales>
<clustering>
<clus scale="   79.049">  5  6 -1 -1</clus>
<clus scale="   90.673">  7  8 -1 -1</clus>
<clus scale="  174.412">  1  9  2 -1</clus>
<clus scale="  382.861">  2  5  1 -1</clus>
<clus scale="  174.412">  1  5  2 -1</clus>
</clustering>
</event>
<event>
 9    1  0.1973774E-005  0.1873260E+03  0.7546771E-02  0.1162424E+00
          1   -1    0    0  502    0  0.00000000000E+00  0.00000000000E+00  0.50708879501E+02  0.50708879501E+02  0.00000000000E+00 0. -1.
         -2   -1    0    0    0  501 -0.00000000000E+00 -0.00000000000E+00 -0.80935830840E+03  0.80935830840E+03  0.00000000000E+00 0.  1.
         23    2    1    2    0    0 -0.16225451868E+03 -0.50198263390E+02 -0.43692315423E+03  0.47794171073E+03  0.93166741254E+02 0.  0.
        -24    2    1    2    0    0  0.15269089881E+03  0.26618459376E+02 -0.30647967510E+03  0.35246188365E+03  0.79224587177E+02 0.  0.
         13    1    4    4    0    0  0.12781703437E+03  0.49504735458E+02 -0.21541226997E+03  0.25532402778E+03  0.00000000000E+00 0. -1.
        -14    1    4    4    0    0  0.24873864446E+02 -0.22886276081E+02 -0.91067405135E+02  0.97137855872E+02  0.00000000000E+00 0.  1.
        -11    1    3    3    0    0 -0.11213294282E+03 -0.55705880040E+02 -0.20191446379E+03  0.23758449575E+03  0.00000000000E+00 0. -1.
         11    1    3    3    0    0 -0.50121575857E+02  0.55076166505E+01 -0.23500869044E+03  0.24035721497E+03  0.00000000000E+00 0.  1.
         21    1    1    2  502  501  0.95636198678E+01  0.23579804013E+02 -0.15246599564E+02  0.29663593520E+02  0.00000000000E+00 0. -1.
<scales pt_clust_5="13000.00000" pt_clust_6="13000.00000" pt_clust_7="13000.00000" pt_clust_8="13000.00000" pt_clust_9="25.44543"></scales>
<clustering>
<clus scale="   25.445">  1  9  2 -1</clus>
<clus scale="   79.225">  5  6 -1 -1</clus>
<clus scale="   93.167">  7  8 -1 -1</clus>
<clus scale="  180.797">  1  5  2 -1</clus>
<clus scale="   25.445">  1  5  2 -1</clus>
</clustering>
</event>
<event>
 9    1  0.1973774E-005  0.1528002E+03  0.7546771E-02  0.1204268E+00
         -2   -1    0    0    0  501 -0.00000000000E+00  0.00000000000E+00  0.79481850155E+02  0.79481850155E+02  0.00000000000E+00 0.  1.
          1   -1    0    0  502    0  0.00000000000E+00 -0.00000000000E+00 -0.59574514589E+03  0.59574514589E+03  0.00000000000E+00 0. -1.
        -24    2    1    2    0    0  0.54574022369E+02 -0.89032641794E+02 -0.10340010231E+02  0.13113808664E+03  0.78645703843E+02 0.  0.
         23    2    1    2    0    0 -0.33430969754E+02  0.10131313265E+03 -0.30653380800E+03  0.34320585172E+03  0.11155850760E+03 0.  0.
         11    1    3    3    0    0  0.50852530564E+02 -0.68203287331E+02 -0.40558714431E+02  0.94247957983E+02  0.00000000000E+00 0. -1.
        -12    1    3    3    0    0  0.37214918045E+01 -0.20829354463E+02  0.30218704200E+02  0.36890128654E+02  0.00000000000E+00 0.  1.
        -11    1    4    4    0    0 -0.52479027461E+02  0.18249881317E+01 -0.91209748014E+02  0.10524541338E+03  0.00000000000E+00 0. -1.
         11    1    4    4    0    0  0.19048057707E+02  0.99488144519E+02 -0.21532405999E+03  0.23796043834E+03  0.00000000000E+00 0.  1.
         21    1    1    2  502  501 -0.21143052614E+02 -0.12280490856E+02 -0.19938947750E+03  0.20088305770E+03  0.00000000000E+00 0.  1.
<scales pt_clust_5="13000.00000" pt_clust_6="13000.00000" pt_clust_7="13000.00000" pt_clust_8="13000.00000" pt_clust_9="24.45075"></scales>
<clustering>
<clus scale="   24.451">  2  9  1 -1</clus>
<clus scale="   78.646">  5  6 -1 -1</clus>
<clus scale="  111.559">  7  8 -1 -1</clus>
<clus scale="  130.720">  1  5  2 -1</clus>
<clus scale="   24.451">  2  5  1 -1</clus>
</clustering>
</event>
<event>
 9    1  0.1973774E-005  0.9452888E+02  0.7546771E-02  0.1298572E+00
          1   -1    0    0  502    0  0.00000000000E+00  0.00000000000E+00  0.48245165562E+02  0.48245165562E+02  0.00000000000E+00 0. -1.
         -2   -1    0    0    0  501 -0.00000000000E+00 -0.00000000000E+00 -0.51931902926E+03  0.51931902926E+03  0.00000000000E+00 0.  1.
        -24    2    1    2    0    0 -0.23253377177E+02 -0.31982203367E+02 -0.29838445731E+03  0.31125995790E+03  0.79283643635E+02 0.  0.
         23    2    1    2    0    0  0.99194964402E+01  0.46516282092E+01 -0.19724459178E+03  0.21721830793E+03  0.90323475683E+02 0.  0.
         11    1    3    3    0    0 -0.15796445210E+02  0.24686700126E+02 -0.71209349618E+02  0.77004755161E+02  0.00000000000E+00 0. -1.
        -12    1    3    3    0    0 -0.74569319677E+01 -0.56668903493E+02 -0.22717510769E+03  0.23425520274E+03  0.00000000000E+00 0.  1.
        -11    1    4    4    0    0 -0.65940839289E+01 -0.31860029329E+02 -0.26875515628E+02  0.42199961516E+02  0.00000000000E+00 0.  1.
         11    1    4    4    0    0  0.16513580369E+02  0.36511657539E+02 -0.17036907616E+03  0.17501834642E+03  0.00000000000E+00 0. -1.
         21    1    1    2  502  501  0.13333880737E+02  0.27330575158E+02  0.24555185401E+02  0.39085928978E+02  0.00000000000E+00 0. -1.
<scales pt_clust_5="13000.00000" pt_clust_6="13000.00000" pt_clust_7="13000.00000" pt_clust_8="13000.00000" pt_clust_9="30.40975"></scales>
<clustering>
<clus scale="   30.410">  1  9  2 -1</clus>
<clus scale="   79.284">  5  6 -1 -1</clus>
<clus scale="   84.043">  2  5  1 -1</clus>
<clus scale="   90.323">  7  8 -1 -1</clus>
<clus scale="   30.410">  1  5  2 -1</clus>
</clustering>
</event>
<event>
 9    1  0.1973774E-005  0.1199967E+03  0.7546771E-02  0.1246203E+00
          1   -1    0    0  502    0  0.00000000000E+00  0.00000000000E+00  0.20322852504E+03  0.20322852504E+03  0.00000000000E+00 0. -1.
         -2   -1    0    0    0  501 -0.00000000000E+00 -0.00000000000E+00 -0.14649459319E+03  0.14649459319E+03  0.00000000000E+00 0.  1.
         23    2    1    2    0    0  0.84305024620E+02 -0.20463477981E+02 -0.82167138972E+02  0.15086086962E+03  0.92094908379E+02 0.  0.
        -24    2    1    2    0    0 -0.37111127231E+02  0.19629197560E+02  0.10917875029E+03  0.14308253623E+03  0.82401890135E+02 0.  0.
         11    1    4    4    0    0  0.71817291105E+01  0.31050634881E+02  0.86180355370E+02  0.91884562421E+02  0.00000000000E+00 0. -1.
        -12    1    4    4    0    0 -0.44292856341E+02 -0.11421437321E+02  0.22998394922E+02  0.51197973811E+02  0.00000000000E+00 0.  1.
        -11    1    3    3    0    0  0.63149741696E+02 -0.51661060218E+02 -0.78106911613E+02  0.11294885861E+03  0.00000000000E+00 0.  1.
         11    1    3    3    0    0  0.21155282924E+02  0.31197582237E+02 -0.40602273588E+01  0.37912011016E+02  0.00000000000E+00 0. -1.
         21    1    1    2  502  501 -0.47193897390E+02  0.83428042065E+00  0.29722320534E+02  0.55779712375E+02  0.00000000000E+00 0. -1.
<scales pt_clust_5="13000.00000" pt_clust_6="13000.00000" pt_clust_7="13000.00000" pt_clust_8="13000.00000" pt_clust_9="47.20127"></scales>
<clustering>
<clus scale="   47.201">  1  9  2 -1</clus>
<clus scale="   82.402">  5  6 -1 -1</clus>
<clus scale="   92.095">  7  8 -1 -1</clus>
<clus scale="  112.729">  1  5  2 -1</clus>
<clus scale="   47.201">  1  5  2 -1</clus>
</clustering>
</event>
<event>
 9    1  0.1973774E-005  0.9696678E+02  0.7546771E-02  0.1295277E+00
         -2   -1    0    0    0  501 -0.00000000000E+00  0.00000000000E+00  0.95536110768E+02  0.95536110768E+02  0.00000000000E+00 0.  1.
          1   -1    0    0  502    0  0.00000000000E+00 -0.00000000000E+00 -0.17002403789E+03  0.17002403789E+03  0.00000000000E+00 0. -1.
         23    2    1    2    0    0  0.10176362661E+02  0.28140738100E+02  0.27260385010E+02  0.10351276786E+03  0.95269643757E+02 0.  0.
        -24    2    1    2    0    0  0.17735301680E+02  0.49333830386E+01 -0.66182407433E+02  0.10603048984E+03  0.80768029122E+02 0.  0.
         13    1    4    4    0    0  0.39273992665E+02  0.71027282700E+01 -0.73115842934E+02  0.83299590255E+02  0.00000000000E+00 0. -1.
        -14    1    4    4    0    0 -0.21538690985E+02 -0.21693452314E+01  0.69334355012E+01  0.22730899585E+02  0.00000000000E+00 0.  1.
        -11    1    3    3    0    0  0.43379994064E+02 -0.71248895004E+01 -0.65445595561E+01  0.44445688151E+02  0.00000000000E+00 0. -1.
         11    1    3    3    0    0 -0.33203631403E+02  0.35265627601E+02  0.33804944566E+02  0.59067079710E+02  0.00000000000E+00 0.  1.
         21    1    1    2  502  501 -0.27911664341E+02 -0.33074121139E+02 -0.35565904701E+02  0.56016890958E+02  0.00000000000E+00 0.  1.
<scales pt_clust_5="13000.00000" pt_clust_6="13000.00000" pt_clust_7="13000.00000" pt_clust_8="13000.00000" pt_clust_9="43.27769"></scales>
<clustering>
<clus scale="   43.278">  2  9  1 -1</clus>
<clus scale="   80.768">  5  6 -1 -1</clus>
<clus scale="   82.763">  2  5  1 -1</clus>
<clus scale="   95.270">  7  8 -1 -1</clus>
<clus scale="   43.278">  2  5  1 -1</clus>
</clustering>
</event>
<event>
 9    1  0.1973774E-005  0.1598169E+03  0.7546771E-02  0.1189172E+00
         -2   -1    0    0    0  501 -0.00000000000E+00  0.00000000000E+00  0.10699603040E+03  0.10699603040E+03  0.00000000000E+00 0.  1.
          1   -1    0    0  502    0  0.00000000000E+00 -0.00000000000E+00 -0.35361767854E+03  0.35361767854E+03  0.00000000000E+00 0. -1.
         23    2    1    2    0    0  0.45620397093E+02  0.13444059441E+03 -0.19357198369E+01  0.16432364819E+03  0.82722550049E+02 0.  0.
        -24    2    1    2    0    0 -0.43667927014E+02 -0.11370138208E+03 -0.21640771517E+03  0.26116764048E+03  0.80878582532E+02 0.  0.
         11    1    4    4    0    0 -0.45852525838E+02 -0.34842456198E+02 -0.47150975167E+02  0.74428928104E+02  0.00000000000E+00 0. -1.
        -12    1    4    4    0    0  0.21845988233E+01 -0.78858925885E+02 -0.16925674001E+03  0.18673871238E+03  0.00000000000E+00 0.  1.
        -11    1    3    3    0    0  0.23747302480E+02  0.12078537746E+03  0.26520830975E+02  0.12592218335E+03  0.00000000000E+00 0.  1.
         11    1    3    3    0    0  0.21873094612E+02  0.13655216950E+02 -0.28456550811E+02  0.38401464841E+02  0.00000000000E+00 0. -1.
         21    1    1    2  502  501 -0.19524700782E+01 -0.20739212330E+02 -0.28278213132E+02  0.35122420267E+02  0.00000000000E+00 0. -1.
<scales pt_clust_5="13000.00000" pt_clust_6="13000.00000" pt_clust_7="13000.00000" pt_clust_8="13000.00000" pt_clust_9="20.83092"></scales>
<clustering>
<clus scale="   20.831">  2  9  1 -1</clus>
<clus scale="   80.879">  5  6 -1 -1</clus>
<clus scale="   82.723">  7  8 -1 -1</clus>
<clus scale="  158.870">  2  5  1 -1</clus>
<clus scale="   20.831">  2  5  1 -1</clus>
</clustering>
</event>
<event>
 9    1  0.1973774E-005  0.1539053E+03  0.7546771E-02  0.1197004E+00
         -2   -1    0    0    0  501 -0.00000000000E+00  0.00000000000E+00  0.45346914350E+03  0.45346914350E+03  0.00000000000E+00 0.  1.
          1   -1    0    0  502    0  0.00000000000E+00 -0.00000000000E+00 -0.14315466893E+03  0.14315466893E+03  0.00000000000E+00 0. -1.
        -24    2    1    2    0    0 -0.83121151391E+02 -0.88958595354E+02  0.36080967073E+03  0.38981491161E+03  0.83362397556E+02 0.  0.
         23    2    1    2    0    0  0.10407367154E+03  0.97024056499E+02 -0.21360844012E+02  0.17002751641E+03  0.90598421796E+02 0.  0.
         13    1    3    3    0    0 -0.94371509308E+02 -0.61138437441E+02  0.31984254834E+03  0.33903266219E+03  0.00000000000E+00 0. -1.
        -14    1    3    3    0    0  0.11250357917E+02 -0.27820157913E+02  0.40967122389E+02  0.50782249423E+02  0.00000000000E+00 0.  1.
        -13    1    4    4    0    0  0.76722221908E+02  0.91153045156E+02  0.19275948507E+02  0.12069274695E+03  0.00000000000E+00 0.  1.
         13    1    4    4    0    0  0.27351449628E+02  0.58710113431E+01 -0.40636792520E+02  0.49334769456E+02  0.00000000000E+00 0. -1.
         21    1    1    2  502  501 -0.20952520145E+02 -0.80654611448E+01 -0.29134352154E+02  0.36781384413E+02  0.00000000000E+00 0.  1.
<scales pt_clust_5="13000.00000" pt_clust_6="13000.00000" pt_clust_7="13000.00000" pt_clust_8="13000.00000" pt_clust_9="22.45128"></scales>
<clustering>
<clus scale="   22.451">  2  9  1 -1</clus>
<clus scale="   83.362">  5  6 -1 -1</clus>
<clus scale="   90.598">  7  8 -1 -1</clus>
<clus scale="  149.760">  1  5  2 -1</clus>
<clus scale="   22.451">  2  5  1 -1</clus>
</clustering>
</event>
<event>
 9    1  0.1973774E-005  0.1014697E+03  0.7546771E-02  0.1282033E+00
         -2   -1    0    0    0  501 -0.00000000000E+00  0.00000000000E+00  0.15783335197E+03  0.15783335197E+03  0.00000000000E+00 0.  1.
          1   -1    0    0  502    0  0.00000000000E+00 -0.00000000000E+00 -0.21941654511E+03  0.21941654511E+03  0.00000000000E+00 0. -1.
         23    2    1    2    0    0 -0.44816103320E+02  0.12950488378E+02  0.11377731209E+03  0.15192294353E+03  0.89213820446E+02 0.  0.
        -24    2    1    2    0    0  0.66208897680E+02  0.16201109879E+02 -0.11790542213E+03  0.15744062278E+03  0.78992196066E+02 0.  0.
         11    1    4    4    0    0  0.70848630896E+02 -0.30425123998E+01 -0.11797239639E+03  0.13764545649E+03  0.00000000000E+00 0. -1.
        -12    1    4    4    0    0 -0.46397332164E+01  0.19243622279E+02  0.66974264435E-01  0.19795166286E+02  0.00000000000E+00 0.  1.
        -11    1    3    3    0    0 -0.19028629627E+02 -0.38578425681E+02  0.50670149518E+02  0.66466891951E+02  0.00000000000E+00 0.  1.
         11    1    3    3    0    0 -0.25787473693E+02  0.51528914059E+02  0.63107162576E+02  0.85456051582E+02  0.00000000000E+00 0. -1.
         21    1    1    2  502  501 -0.21392794360E+02 -0.29151598257E+02 -0.57455083107E+02  0.67886330777E+02  0.00000000000E+00 0. -1.
<scales pt_clust_5="13000.00000" pt_clust_6="13000.00000" pt_clust_7="13000.00000" pt_clust_8="13000.00000" pt_clust_9="36.15892"></scales>
<clustering>
<clus scale="   36.159">  2  9  1 -1</clus>
<clus scale="   78.992">  5  6 -1 -1</clus>
<clus scale="   89.214">  7  8 -1 -1</clus>
<clus scale="   92.611">  2  5  1 -1</clus>
<clus scale="   36.159">  2  5  1 -1</clus>
</clustering>
</event>
<event>
 9    1  0.1973774E-005  0.1317137E+03  0.7546771E-02  0.1227817E+00
         -2   -1    0    0    0  501 -0.00000000000E+00  0.00000000000E+00  0.10115472363E+03  0.10115472363E+03  0.00000000000E+00 0.  1.
          1   -1    0    0  502    0  0.00000000000E+00 -0.00000000000E+00 -0.86570648224E+03  0.86570648224E+03  0.00000000000E+00 0. -1.
        -24    2    1    2    0    0  0.18665587659E+02  0.10228757383E+03  0.25835365165E+02  0.13395175670E+03  0.80401835230E+02 0.  0.
         23    2    1    2    0    0 -0.87128758038E+02 -0.29057690101E+02 -0.23441515843E+03  0.26797171116E+03  0.91774733172E+02 0.  0.
         13    1    3    3    0    0  0.39020585660E+02  0.28018425794E+02 -0.99141772502E+01  0.49050272168E+02  0.00000000000E+00 0. -1.
        -14    1    3    3    0    0 -0.20354998001E+02  0.74269148035E+02  0.35749542415E+02  0.84901484536E+02  0.00000000000E+00 0.  1.
        -11    1    4    4    0    0 -0.83221064534E+02  0.76525858913E+01 -0.10970023167E+03  0.13790739096E+03  0.00000000000E+00 0.  1.
         11    1    4    4    0    0 -0.39076935039E+01 -0.36710275992E+02 -0.12471492677E+03  0.13006432020E+03  0.00000000000E+00 0. -1.
         21    1    1    2  502  501  0.68463170379E+02 -0.73229883728E+02 -0.55597196534E+03  0.56493773800E+03  0.00000000000E+00 0. -1.
<scales pt_clust_5="13000.00000" pt_clust_6="13000.00000" pt_clust_7="13000.00000" pt_clust_8="13000.00000" pt_clust_9="100.24880"></scales>
<clustering>
<clus scale="   80.402">  5  6 -1 -1</clus>
<clus scale="   91.775">  7  8 -1 -1</clus>
<clus scale="  100.249">  2  9  1 -1</clus>
<clus scale="  124.058">  1  5  2 -1</clus>
<clus scale="  100.249">  2  5  1 -1</clus>
</clustering>
</event>
<event>
 9    1  0.1973774E-005  0.1274107E+03  0.7546771E-02  0.1234005E+00
         -4   -1    0    0    0  501 -0.00000000000E+00  0.00000000000E+00  0.15955068697E+03  0.15955068697E+03  0.00000000000E+00 0.  1.
          3   -1    0    0  502    0  0.00000000000E+00 -0.00000000000E+00 -0.22652993898E+03  0.22652993898E+03  0.00000000000E+00 0. -1.
        -24    2    1    2    0    0 -0.93123819058E+02 -0.72119028252E+01  0.99355039145E+02  0.15792177070E+03  0.79648004617E+02 0.  0.
         23    2    1    2    0    0  0.72368272812E+02  0.35862212289E+02 -0.13316164609E+03  0.17966084176E+03  0.89569687342E+02 0.  0.
         11    1    3    3    0    0 -0.21810929884E+02  0.93445493108E+01 -0.10467398616E+02  0.25934604258E+02  0.00000000000E+00 0. -1.
        -12    1    3    3    0    0 -0.71312889174E+02 -0.16556452136E+02  0.10982243776E+03  0.13198716644E+03  0.00000000000E+00 0.  1.
        -13    1    4    4    0    0  0.28074689721E+02  0.97146603755E+01  0.68610056509E+01  0.30489936498E+02  0.00000000000E+00 0.  1.
         13    1    4    4    0    0  0.44293583091E+02  0.26147551914E+02 -0.14002265175E+03  0.14917090526E+03  0.00000000000E+00 0. -1.
         21    1    1    2  502  501  0.20755546246E+02 -0.28650309464E+02 -0.33172645061E+02  0.48498013492E+02  0.00000000000E+00 0. -1.
<scales pt_clust_5="13000.00000" pt_clust_6="13000.00000" pt_clust_7="13000.00000" pt_clust_8="13000.00000" pt_clust_9="35.37842"></scales>
<clustering>
<clus scale="   35.378">  2  9  1 -1</clus>
<clus scale="   79.648">  5  6 -1 -1</clus>
<clus scale="   89.570">  7  8 -1 -1</clus>
<clus scale="  120.642">  1  5  2 -1</clus>
<clus scale="   35.378">  2  5  1 -1</clus>
</clustering>
</event>
<event>
 9    1  0.1973774E-005  0.9949939E+02  0.7546771E-02  0.1292323E+00
         -2   -1    0    0    0  501 -0.00000000000E+00  0.00000000000E+00  0.11125418167E+03  0.11125418167E+03  0.00000000000E+00 0.  1.
          1   -1    0    0  502    0  0.00000000000E+00 -0.00000000000E+00 -0.14278139280E+03  0.14278139280E+03  0.00000000000E+00 0. -1.
         23    2    1    2    0    0 -0.34822890882E+02  0.49465383043E+01  0.45977556580E+02  0.10775008401E+03  0.90879276652E+02 0.  0.
        -24    2    1    2    0    0  0.49685813139E+02 -0.32588787823E+02 -0.64816400778E+02  0.11243294148E+03  0.70066335718E+02 0.  0.
         11    1    4    4    0    0  0.37697435416E+02 -0.46859580343E+02 -0.70764894098E+02  0.92868655334E+02  0.00000000000E+00 0. -1.
        -12    1    4    4    0    0  0.11988377722E+02  0.14270792521E+02  0.59484933200E+01  0.19564286145E+02  0.00000000000E+00 0.  1.
        -13    1    3    3    0    0 -0.46625846470E+02  0.34698663806E+02  0.48423175498E+02  0.75648997047E+02  0.00000000000E+00 0.  1.
         13    1    3    3    0    0  0.11802955587E+02 -0.29752125501E+02 -0.24456189175E+01  0.32101086965E+02  0.00000000000E+00 0. -1.
         21    1    1    2  502  501 -0.14862922256E+02  0.27642249518E+02 -0.12688366935E+02  0.33852548972E+02  0.00000000000E+00 0.  1.
<scales pt_clust_5="13000.00000" pt_clust_6="13000.00000" pt_clust_7="13000.00000" pt_clust_8="13000.00000" pt_clust_9="31.38472"></scales>
<clustering>
<clus scale="   31.385">  2  9  1 -1</clus>
<clus scale="   70.066">  5  6 -1 -1</clus>
<clus scale="   80.934">  2  5  1 -1</clus>
<clus scale="   90.879">  7  8 -1 -1</clus>
<clus scale="   31.385">  2  5  1 -1</clus>
</clustering>
</event>
<event>
 9    1  0.1973774E-005  0.1083494E+03  0.7546771E-02  0.1268682E+00
          3   -1    0    0  502    0  0.00000000000E+00  0.00000000000E+00  0.10691612057E+03  0.10691612057E+03  0.00000000000E+00 0. -1.
         -4   -1    0    0    0  501 -0.00000000000E+00 -0.00000000000E+00 -0.18242067576E+03  0.18242067576E+03  0.00000000000E+00 0.  1.
         23    2    1    2    0    0 -0.86225849309E+02 -0.53349320671E+01 -0.62146331908E+02  0.14041278591E+03  0.91598172956E+02 0.  0.
        -24    2    1    2    0    0  0.28939899416E+02 -0.18067523376E+02 -0.89646630717E+01  0.86886454482E+02  0.79403637254E+02 0.  0.
         13    1    4    4    0    0  0.52239348863E+02  0.48031200500E+01 -0.12841326969E+02  0.54008510535E+02  0.00000000000E+00 0. -1.
        -14    1    4    4    0    0 -0.23299449446E+02 -0.22870643426E+02  0.38766638972E+01  0.32877943947E+02  0.00000000000E+00 0.  1.
        -11    1    3    3    0    0 -0.74729132329E+02  0.16427461880E+02 -0.32521245009E+01  0.76582511295E+02  0.00000000000E+00 0. -1.
         11    1    3    3    0    0 -0.11496716980E+02 -0.21762393947E+02 -0.58894207408E+02  0.63830274618E+02  0.00000000000E+00 0.  1.
         21    1    1    2  502  501  0.57285949893E+02  0.23402455443E+02 -0.43935602125E+01  0.62037555941E+02  0.00000000000E+00 0. -1.
<scales pt_clust_5="13000.00000" pt_clust_6="13000.00000" pt_clust_7="13000.00000" pt_clust_8="13000.00000" pt_clust_9="61.88178"></scales>
<clustering>
<clus scale="   61.882">  1  9  2 -1</clus>
<clus scale="   79.404">  5  6 -1 -1</clus>
<clus scale="   91.598">  7  8 -1 -1</clus>
<clus scale="   98.256">  1  5  2 -1</clus>
<clus scale="   61.882">  1  5  2 -1</clus>
</clustering>
</event>
<event>
 9    1  0.1973774E-005  0.1000142E+03  0.7546771E-02  0.1283635E+00
         -2   -1    0    0    0  501 -0.00000000000E+00  0.00000000000E+00  0.59480437777E+03  0.59480437777E+03  0.00000000000E+00 0.  1.
          1   -1    0    0  502    0  0.00000000000E+00 -0.00000000000E+00 -0.72563879108E+02  0.72563879108E+02  0.00000000000E+00 0. -1.
        -24    2    1    2    0    0  0.23779396878E+02  0.44271161700E+02  0.49060374764E+03  0.49993477767E+03  0.81959436607E+02 0.  0.
         23    2    1    2    0    0  0.14635500338E+01  0.81647850256E+01 -0.17742665702E+02  0.91111387561E+02  0.88981329861E+02 0.  0.
         13    1    3    3    0    0 -0.94562152106E+01  0.24775680823E+02  0.41948133070E+02  0.49627615643E+02  0.00000000000E+00 0. -1.
        -14    1    3    3    0    0  0.33235612088E+02  0.19495480877E+02  0.44865561457E+03  0.45030716202E+03  0.00000000000E+00 0.  1.
        -11    1    4    4    0    0  0.37788739148E+02 -0.20436488701E+02 -0.57193960217E+01  0.43339939637E+02  0.00000000000E+00 0.  1.
         11    1    4    4    0    0 -0.36325189114E+02  0.28601273727E+02 -0.12023269680E+02  0.47771447924E+02  0.00000000000E+00 0. -1.
         21    1    1    2  502  501 -0.25242946911E+02 -0.52435946726E+02  0.49379416725E+02  0.76322091650E+02  0.00000000000E+00 0. -1.
<scales pt_clust_5="13000.00000" pt_clust_6="13000.00000" pt_clust_7="13000.00000" pt_clust_8="13000.00000" pt_clust_9="58.19566"></scales>
<clustering>
<clus scale="   58.196">  2  9  1 -1</clus>
<clus scale="   81.959">  5  6 -1 -1</clus>
<clus scale="   88.981">  7  8 -1 -1</clus>
<clus scale="   93.822">  1  5  2 -1</clus>
<clus scale="   58.196">  2  5  1 -1</clus>
</clustering>
</event>
<event>
 9    1  0.1973774E-005  0.1409650E+03  0.7546771E-02  0.1214424E+00
          1   -1    0    0  502    0  0.00000000000E+00  0.00000000000E+00  0.61858391050E+03  0.61858391050E+03  0.00000000000E+00 0. -1.
         -2   -1    0    0    0  501 -0.00000000000E+00 -0.00000000000E+00 -0.69015979683E+02  0.69015979683E+02  0.00000000000E+00 0.  1.
        -24    2    1    2    0    0 -0.59197035271E+02  0.80157251325E+02  0.41264873883E+02  0.13459803199E+03  0.80525564107E+02 0.  0.
         23    2    1    2    0    0  0.97481256379E+02 -0.96149286264E+02  0.31712838096E+03  0.35737674860E+03  0.91653967930E+02 0.  0.
         13    1    3    3    0    0 -0.47949398259E+02  0.73030830962E+02  0.63966865385E+02  0.10827930057E+03  0.00000000000E+00 0. -1.
        -14    1    3    3    0    0 -0.11247637012E+02  0.71264203636E+01 -0.22701991503E+02  0.26318731424E+02  0.00000000000E+00 0.  1.
        -13    1    4    4    0    0 -0.77325809069E+01 -0.48720926467E+02  0.97847024174E+02  0.10957901999E+03  0.00000000000E+00 0.  1.
         13    1    4    4    0    0  0.10521383729E+03 -0.47428359797E+02  0.21928135679E+03  0.24779772861E+03  0.00000000000E+00 0. -1.
         21    1    1    2  502  501 -0.38284221109E+02  0.15992034939E+02  0.19117467597E+03  0.19562510958E+03  0.00000000000E+00 0. -1.
<scales pt_clust_5="13000.00000" pt_clust_6="13000.00000" pt_clust_7="13000.00000" pt_clust_8="13000.00000" pt_clust_9="41.49008"></scales>
<clustering>
<clus scale="   41.490">  1  9  2 -1</clus>
<clus scale="   80.526">  5  6 -1 -1</clus>
<clus scale="   91.654">  7  8 -1 -1</clus>
<clus scale="  133.996">  2  5  1 -1</clus>
<clus scale="   41.490">  1  5  2 -1</clus>
</clustering>
</event>
<event>
 9    1  0.1973774E-005  0.9481240E+02  0.7546771E-02  0.1300390E+00
         -2   -1    0    0    0  501 -0.00000000000E+00  0.00000000000E+00  0.79859851830E+02  0.79859851830E+02  0.00000000000E+00 0.  1.
          1   -1    0    0  502    0  0.00000000000E+00 -0.00000000000E+00 -0.29945521853E+03  0.29945521853E+03  0.00000000000E+00 0. -1.
         23    2    1    2    0    0 -0.27491945777E+02  0.75376848459E+01  0.16107254526E+02  0.99415085166E+02  0.93868481051E+02 0.  0.
        -24    2    1    2    0    0 -0.31511243221E+02  0.13492884172E+02 -0.11495126232E+03  0.14386854830E+03  0.79431417644E+02 0.  0.
         11    1    4    4    0    0 -0.20248195632E+02  0.46732760097E+02 -0.75416305353E+02  0.91003073606E+02  0.00000000000E+00 0. -1.
        -12    1    4    4    0    0 -0.11263047590E+02 -0.33239875924E+02 -0.39534956965E+02  0.52865474695E+02  0.00000000000E+00 0.  1.
        -11    1    3    3    0    0 -0.41073241790E+02 -0.34379919987E+02  0.13696111324E+02  0.55286287223E+02  0.00000000000E+00 0.  1.
         11    1    3    3    0    0  0.13581296014E+02  0.41917604833E+02  0.24111432016E+01  0.44128797943E+02  0.00000000000E+00 0. -1.
         21    1    1    2  502  501  0.59003188998E+02 -0.21030569018E+02 -0.12075135891E+03  0.13603143690E+03  0.00000000000E+00 0. -1.
<scales pt_clust_5="13000.00000" pt_clust_6="13000.00000" pt_clust_7="13000.00000" pt_clust_8="13000.00000" pt_clust_9="62.63913"></scales>
<clustering>
<clus scale="   62.639">  2  9  1 -1</clus>
<clus scale="   79.431">  5  6 -1 -1</clus>
<clus scale="   80.545">  2  5  1 -1</clus>
<clus scale="   93.868">  7  8 -1 -1</clus>
<clus scale="   62.639">  2  5  1 -1</clus>
</clustering>
</event>
<event>
 9    1  0.1973774E-005  0.1498216E+03  0.7546771E-02  0.1223135E+00
          1   -1    0    0  502    0  0.00000000000E+00  0.00000000000E+00  0.57401211941E+03  0.57401211941E+03  0.00000000000E+00 0. -1.
         -2   -1    0    0    0  501 -0.00000000000E+00 -0.00000000000E+00 -0.10676337240E+03  0.10676337240E+03  0.00000000000E+00 0.  1.
        -24    2    1    2    0    0  0.55208884733E+01  0.46012889406E+02 -0.39652983911E+02  0.10102542097E+03  0.80536391449E+02 0.  0.
         23    2    1    2    0    0 -0.11879394890E+03 -0.46061014987E+02  0.22131872683E+03  0.27252305257E+03  0.95148389047E+02 0.  0.
         13    1    3    3    0    0 -0.21572101252E+02  0.59030678595E+02 -0.26091240691E+02  0.68049462956E+02  0.00000000000E+00 0. -1.
        -14    1    3    3    0    0  0.27092989725E+02 -0.13017789189E+02 -0.13561743221E+02  0.32975958012E+02  0.00000000000E+00 0.  1.
        -11    1    4    4    0    0 -0.89054087007E+02 -0.21830245402E+02  0.67141088219E+02  0.11364469083E+03  0.00000000000E+00 0.  1.
         11    1    4    4    0    0 -0.29739861890E+02 -0.24230769585E+02  0.15417763861E+03  0.15887836173E+03  0.00000000000E+00 0. -1.
         21    1    1    2  502  501  0.11327306042E+03  0.48125581509E-01  0.28558300409E+03  0.30722701828E+03  0.00000000000E+00 0. -1.
<scales pt_clust_5="13000.00000" pt_clust_6="13000.00000" pt_clust_7="13000.00000" pt_clust_8="13000.00000" pt_clust_9="115.72941"></scales>
<clustering>
<clus scale="   80.536">  5  6 -1 -1</clus>
<clus scale="   92.918">  2  5  1 -1</clus>
<clus scale="   95.148">  7  8 -1 -1</clus>
<clus scale="  115.729">  1  9  2 -1</clus>
<clus scale="  115.729">  1  5  2 -1</clus>
</clustering>
</event>
<event>
 9    1  0.1973774E-005  0.1255741E+03  0.7546771E-02  0.1237002E+00
         -4   -1    0    0    0  501 -0.00000000000E+00  0.00000000000E+00  0.16863024908E+04  0.16863024908E+04  0.00000000000E+00 0.  1.
          3   -1    0    0  502    0  0.00000000000E+00 -0.00000000000E+00 -0.19918456288E+02  0.19918456288E+02  0.00000000000E+00 0. -1.
        -24    2    1    2    0    0 -0.76918729304E+02  0.39655103751E+02  0.99768613024E+03  0.10046560937E+04  0.80419114622E+02 0.  0.
         23    2    1    2    0    0  0.10512316945E+03  0.25651873849E+02  0.44021372561E+03  0.46226271868E+03  0.90497499868E+02 0.  0.
         13    1    3    3    0    0 -0.25481424194E+02  0.48267737016E+02  0.29283903516E+03  0.29788215443E+03  0.00000000000E+00 0. -1.
        -14    1    3    3    0    0 -0.51437305110E+02 -0.86126332642E+01  0.70484709508E+03  0.70677393929E+03  0.00000000000E+00 0.  1.
        -13    1    4    4    0    0  0.78954313489E+02  0.15714912629E+02  0.42022479685E+03  0.42786635996E+03  0.00000000000E+00 0.  1.
         13    1    4    4    0    0  0.26168855960E+02  0.99369612202E+01  0.19988928761E+02  0.34396358725E+02  0.00000000000E+00 0. -1.
         21    1    1    2  502  501 -0.28204440146E+02 -0.65306977600E+02  0.22848417866E+03  0.23930213469E+03  0.00000000000E+00 0.  1.
<scales pt_clust_5="13000.00000" pt_clust_6="13000.00000" pt_clust_7="13000.00000" pt_clust_8="13000.00000" pt_clust_9="71.13713"></scales>
<clustering>
<clus scale="   71.137">  2  9  1 -1</clus>
<clus scale="   80.419">  5  6 -1 -1</clus>
<clus scale="   90.497">  7  8 -1 -1</clus>
<clus scale="  118.517">  1  5  2 -1</clus>
<clus scale="   71.137">  2  5  1 -1</clus>
</clustering>
</event>
<event>
 9    1  0.1973774E-005  0.1934859E+03  0.7546771E-02  0.1156429E+00
         -2   -1    0    0    0  501 -0.00000000000E+00  0.00000000000E+00  0.15126019529E+03  0.15126019529E+03  0.00000000000E+00 0.  1.
          1   -1    0    0  502    0  0.00000000000E+00 -0.00000000000E+00 -0.27617769240E+03  0.27617769240E+03  0.00000000000E+00 0. -1.
        -24    2    1    2    0    0 -0.81523277468E+02 -0.13661871081E+03 -0.27319903174E+02  0.18044183867E+03  0.80635991473E+02 0.  0.
         23    2    1    2    0    0  0.87667842005E+02  0.15718661549E+03 -0.10026832513E+03  0.22536442445E+03  0.91335120155E+02 0.  0.
         13    1    3    3    0    0 -0.53371330318E+02 -0.17837360799E+02 -0.74767769119E+01  0.56767706781E+02  0.00000000000E+00 0. -1.
        -14    1    3    3    0    0 -0.28151947151E+02 -0.11878135001E+03 -0.19843126263E+02  0.12367413189E+03  0.00000000000E+00 0.  1.
        -11    1    4    4    0    0  0.55391100038E+02  0.97562588187E+02 -0.10970218331E+03  0.15691144509E+03  0.00000000000E+00 0.  1.
         11    1    4    4    0    0  0.32276741967E+02  0.59624027302E+02  0.94338581779E+01  0.68452979364E+02  0.00000000000E+00 0. -1.
         21    1    1    2  502  501 -0.61445645363E+01 -0.20567904678E+02  0.26707311940E+01  0.21631624565E+02  0.00000000000E+00 0. -1.
<scales pt_clust_5="13000.00000" pt_clust_6="13000.00000" pt_clust_7="13000.00000" pt_clust_8="13000.00000" pt_clust_9="21.46612"></scales>
<clustering>
<clus scale="   21.466">  1  9  2 -1</clus>
<clus scale="   80.636">  5  6 -1 -1</clus>
<clus scale="   91.335">  7  8 -1 -1</clus>
<clus scale="  188.671">  1  5  2 -1</clus>
<clus scale="  193.486">  2  5  1 -1</clus>
</clustering>
</event>
<event>
 9    1  0.1973774E-005  0.3997746E+03  0.7546771E-02  0.1043858E+00
         -2   -1    0    0    0  501 -0.00000000000E+00  0.00000000000E+00  0.12150889513E+03  0.12150889513E+03  0.00000000000E+00 0.  1.
          1   -1    0    0  502    0  0.00000000000E+00 -0.00000000000E+00 -0.11364757820E+04  0.11364757820E+04  0.00000000000E+00 0. -1.
        -24    2    1    2    0    0 -0.23037873435E+03 -0.17545269279E+02 -0.35516681296E+03  0.43005148988E+03  0.73611284490E+02 0.  0.
         23    2    1    2    0    0 -0.96453237066E+02 -0.65461942533E+02 -0.11368671647E+03  0.18610055025E+03  0.90112443326E+02 0.  0.
         11    1    3    3    0    0 -0.21531519279E+03 -0.16724541915E+02 -0.35431054292E+03  0.41494132522E+03  0.00000000000E+00 0. -1.
        -12    1    3    3    0    0 -0.15063541555E+02 -0.82072736411E+00 -0.85627003731E+00  0.15110164657E+02  0.00000000000E+00 0.  1.
        -11    1    4    4    0    0 -0.27947451859E+02  0.32474757064E+00  0.10413094416E+02  0.29826130519E+02  0.00000000000E+00 0. -1.
         11    1    4    4    0    0 -0.68505785207E+02 -0.65786690103E+02 -0.12409981088E+03  0.15627441973E+03  0.00000000000E+00 0.  1.
         21    1    1    2  502  501  0.32683197141E+03  0.83007211812E+02 -0.54611335742E+03  0.64183263699E+03  0.00000000000E+00 0.  1.
<scales pt_clust_5="13000.00000" pt_clust_6="13000.00000" pt_clust_7="13000.00000" pt_clust_8="13000.00000" pt_clust_9="337.20815"></scales>
<clustering>
<clus scale="   73.611">  5  6 -1 -1</clus>
<clus scale="   90.112">  7  8 -1 -1</clus>
<clus scale="  127.315">  5  7 -1 -1</clus>
<clus scale="  337.208">  2  9  1 -1</clus>
<clus scale="  337.208">  2  5  1 -1</clus>
</clustering>
</event>
<event>
 9    1  0.1973774E-005  0.9901152E+02  0.7546771E-02  0.1287714E+00
          1   -1    0    0  502    0  0.00000000000E+00  0.00000000000E+00  0.41699156664E+03  0.41699156664E+03  0.00000000000E+00 0. -1.
         -2   -1    0    0    0  501 -0.00000000000E+00 -0.00000000000E+00 -0.91039664478E+02  0.91039664478E+02  0.00000000000E+00 0.  1.
         23    2    1    2    0    0  0.38093860238E+02  0.15245681668E+01 -0.49401740173E+02  0.11010375166E+03  0.90712941203E+02 0.  0.
        -24    2    1    2    0    0 -0.49742614076E+02 -0.20855785002E+02  0.21192674687E+03  0.23294948222E+03  0.80269694191E+02 0.  0.
         11    1    4    4    0    0 -0.38491345016E+02 -0.29843418123E+02  0.21301106818E+03  0.21850841726E+03  0.00000000000E+00 0. -1.
        -12    1    4    4    0    0 -0.11251269060E+02  0.89876331215E+01 -0.10843213078E+01  0.14441064964E+02  0.00000000000E+00 0.  1.
        -11    1    3    3    0    0  0.20907260139E+01 -0.41818781864E+02 -0.17766407029E+02  0.45484358527E+02  0.00000000000E+00 0. -1.
         11    1    3    3    0    0  0.36003134224E+02  0.43343350031E+02 -0.31635333143E+02  0.64619393134E+02  0.00000000000E+00 0.  1.
         21    1    1    2  502  501  0.11648753838E+02  0.19331216835E+02  0.16342689547E+03  0.16497799724E+03  0.00000000000E+00 0. -1.
<scales pt_clust_5="13000.00000" pt_clust_6="13000.00000" pt_clust_7="13000.00000" pt_clust_8="13000.00000" pt_clust_9="22.56966"></scales>
<clustering>
<clus scale="   22.570">  1  9  2 -1</clus>
<clus scale="   80.270">  5  6 -1 -1</clus>
<clus scale="   89.541">  1  5  2 -1</clus>
<clus scale="   90.713">  7  8 -1 -1</clus>
<clus scale="   22.570">  1  5  2 -1</clus>
</clustering>
</event>
<event>
 9    1  0.1973774E-005  0.1336656E+03  0.7546771E-02  0.1227325E+00
         -2   -1    0    0    0  501 -0.00000000000E+00  0.00000000000E+00  0.51164145657E+02  0.51164145657E+02  0.00000000000E+00 0.  1.
          1   -1    0    0  502    0  0.00000000000E+00 -0.00000000000E+00 -0.52560066813E+03  0.52560066813E+03  0.00000000000E+00 0. -1.
        -24    2    1    2    0    0 -0.85911174368E+02 -0.35092033961E+02 -0.73311487890E+02  0.13710522760E+03  0.69362010136E+02 0.  0.
         23    2    1    2    0    0  0.11195747365E+03  0.21551054087E+02 -0.28898599090E+03  0.32374180084E+03  0.91087468034E+02 0.  0.
         13    1    3    3    0    0 -0.21633429656E+02 -0.43812072092E+02 -0.44645073342E+02  0.66186747264E+02  0.00000000000E+00 0. -1.
        -14    1    3    3    0    0 -0.64277744712E+02  0.87200381311E+01 -0.28666414548E+02  0.70918480337E+02  0.00000000000E+00 0.  1.
        -13    1    4    4    0    0 -0.62933128254E+01  0.26767109599E+02 -0.50689021988E+02  0.57666809281E+02  0.00000000000E+00 0.  1.
         13    1    4    4    0    0  0.11825078648E+03 -0.52160555127E+01 -0.23829696892E+03  0.26607499156E+03  0.00000000000E+00 0. -1.
         21    1    1    2  502  501 -0.26046299285E+02  0.13540979875E+02 -0.11213904368E+03  0.11591778535E+03  0.00000000000E+00 0. -1.
<scales pt_clust_5="13000.00000" pt_clust_6="13000.00000" pt_clust_7="13000.00000" pt_clust_8="13000.00000" pt_clust_9="29.35588"></scales>
<clustering>
<clus scale="   29.356">  2  9  1 -1</clus>
<clus scale="   69.362">  5  6 -1 -1</clus>
<clus scale="   91.087">  7  8 -1 -1</clus>
<clus scale="  119.919">  1  5  2 -1</clus>
<clus scale="   29.356">  2  5  1 -1</clus>
</clustering>
</event>
<event>
 9    1  0.1973774E-005  0.1111800E+03  0.7546771E-02  0.1262361E+00
         -2   -1    0    0    0  501 -0.00000000000E+00  0.00000000000E+00  0.47787333688E+02  0.47787333688E+02  0.00000000000E+00 0.  1.
          1   -1    0    0  502    0  0.00000000000E+00 -0.00000000000E+00 -0.36843248719E+03  0.36843248719E+03  0.00000000000E+00 0. -1.
         23    2    1    2    0    0  0.39831426585E+02 -0.26058636622E+02 -0.50329128169E+02  0.11470098088E+03  0.91420450589E+02 0.  0.
        -24    2    1    2    0    0 -0.55908802238E+02  0.39553660576E+02 -0.25280173814E+03  0.27418117486E+03  0.81094461019E+02 0.  0.
         13    1    4    4    0    0 -0.13223842389E+02  0.54654854346E+02 -0.17873037996E+03  0.18736747805E+03  0.00000000000E+00 0. -1.
        -14    1    4    4    0    0 -0.42684959849E+02 -0.15101193770E+02 -0.74071358180E+02  0.86813696807E+02  0.00000000000E+00 0.  1.
        -11    1    3    3    0    0  0.30222674545E+02 -0.45679034058E+02  0.52101210021E+01  0.55019356321E+02  0.00000000000E+00 0.  1.
         11    1    3    3    0    0  0.96087520401E+01  0.19620397437E+02 -0.55539249171E+02  0.59681624557E+02  0.00000000000E+00 0. -1.
         21    1    1    2  502  501  0.16077375653E+02 -0.13495023954E+02 -0.17514287190E+02  0.27337665137E+02  0.00000000000E+00 0.  1.
<scales pt_clust_5="13000.00000" pt_clust_6="13000.00000" pt_clust_7="13000.00000" pt_clust_8="13000.00000" pt_clust_9="20.99042"></scales>
<clustering>
<clus scale="   20.990">  1  9  2 -1</clus>
<clus scale="   81.094">  5  6 -1 -1</clus>
<clus scale="   91.420">  7  8 -1 -1</clus>
<clus scale="  102.857">  2  5  1 -1</clus>
<clus scale="  102.857">  2  5  1 -1</clus>
</clustering>
</event>
<event>
 9    1  0.1973774E-005  0.9319620E+02  0.7546771E-02  0.1298768E+00
          1   -1    0    0  502    0  0.00000000000E+00  0.00000000000E+00  0.88441963668E+03  0.88441963668E+03  0.00000000000E+00 0. -1.
         -2   -1    0    0    0  501 -0.00000000000E+00 -0.00000000000E+00 -0.26153438037E+02  0.26153438037E+02  0.00000000000E+00 0.  1.
         23    2    1    2    0    0 -0.53632559079E+02  0.66516860203E+01  0.12736322200E+03  0.16353186732E+03  0.87181333965E+02 0.  0.
        -24    2    1    2    0    0 -0.55475675576E+01  0.20453940403E+01  0.26043421490E+03  0.27278517700E+03  0.80937095056E+02 0.  0.
         11    1    4    4    0    0  0.21731571169E+02  0.29152047428E+02  0.17993007850E+03  0.18356725254E+03  0.00000000000E+00 0. -1.
        -12    1    4    4    0    0 -0.27279138727E+02 -0.27106653388E+02  0.80504136403E+02  0.89217924464E+02  0.00000000000E+00 0.  1.
        -11    1    3    3    0    0 -0.19261233964E+02  0.17255145197E+02  0.12482185865E+03  0.12747247376E+03  0.00000000000E+00 0. -1.
         11    1    3    3    0    0 -0.34371325114E+02 -0.10603459177E+02  0.25413633509E+01  0.36059393566E+02  0.00000000000E+00 0.  1.
         21    1    1    2  502  501  0.59180126636E+02 -0.86970800605E+01  0.47046876174E+03  0.47425603039E+03  0.00000000000E+00 0. -1.
<scales pt_clust_5="13000.00000" pt_clust_6="13000.00000" pt_clust_7="13000.00000" pt_clust_8="13000.00000" pt_clust_9="59.81577"></scales>
<clustering>
<clus scale="   59.816">  1  9  2 -1</clus>
<clus scale="   80.937">  5  6 -1 -1</clus>
<clus scale="   87.181">  7  8 -1 -1</clus>
<clus scale="   87.383">  1  5  2 -1</clus>
<clus scale="   59.816">  1  5  2 -1</clus>
</clustering>
</event>
<event>
 9    1  0.1973774E-005  0.1073565E+03  0.7546771E-02  0.1269352E+00
          1   -1    0    0  502    0  0.00000000000E+00  0.00000000000E+00  0.38325944113E+03  0.38325944113E+03  0.00000000000E+00 0. -1.
         -2   -1    0    0    0  501 -0.00000000000E+00 -0.00000000000E+00 -0.16025181532E+03  0.16025181532E+03  0.00000000000E+00 0.  1.
         23    2    1    2    0    0  0.60312837388E+02  0.81938800700E+00 -0.12926496114E+03  0.16845159046E+03  0.89600214292E+02 0.  0.
        -24    2    1    2    0    0 -0.44995714587E+02  0.24484439453E+02  0.22363547539E+03  0.24306571004E+03  0.80274600192E+02 0.  0.
         11    1    4    4    0    0 -0.58465576529E+02  0.13229372522E+02  0.21556835839E+03  0.22374752976E+03  0.00000000000E+00 0. -1.
        -12    1    4    4    0    0  0.13469861942E+02  0.11255066931E+02  0.80671169990E+01  0.19318180272E+02  0.00000000000E+00 0.  1.
        -13    1    3    3    0    0  0.20484370058E+02 -0.42172100302E+02 -0.75771866999E+02  0.89103710860E+02  0.00000000000E+00 0. -1.
         13    1    3    3    0    0  0.39828467330E+02  0.42991488309E+02 -0.53493094141E+02  0.79347879605E+02  0.00000000000E+00 0.  1.
         21    1    1    2  502  501 -0.15317122801E+02 -0.25303827460E+02  0.12863711157E+03  0.13199395595E+03  0.00000000000E+00 0.  1.
<scales pt_clust_5="13000.00000" pt_clust_6="13000.00000" pt_clust_7="13000.00000" pt_clust_8="13000.00000" pt_clust_9="29.57867"></scales>
<clustering>
<clus scale="   29.579">  1  9  2 -1</clus>
<clus scale="   80.275">  5  6 -1 -1</clus>
<clus scale="   89.600">  7  8 -1 -1</clus>
<clus scale="   99.706">  1  5  2 -1</clus>
<clus scale="   29.579">  1  5  2 -1</clus>
</clustering>
</event>
<event>
 9    1  0.1973774E-005  0.1478836E+03  0.7546771E-02  0.1205070E+00
          1   -1    0    0  502    0  0.00000000000E+00  0.00000000000E+00  0.38921444063E+03  0.38921444063E+03  0.00000000000E+00 0. -1.
         -2   -1    0    0    0  501 -0.00000000000E+00 -0.00000000000E+00 -0.23657585322E+03  0.23657585322E+03  0.00000000000E+00 0.  1.
         23    2    1    2    0    0 -0.11250979835E+03  0.37843887878E+02 -0.19189717467E+03  0.24357419612E+03  0.91723763517E+02 0.  0.
        -24    2    1    2    0    0  0.81824030719E+02 -0.45786531098E+02  0.20976317795E+03  0.24376628246E+03  0.81423775447E+02 0.  0.
         11    1    4    4    0    0  0.71598796936E+02 -0.13594631917E+02  0.19250002295E+03  0.20583357495E+03  0.00000000000E+00 0. -1.
        -12    1    4    4    0    0  0.10225233782E+02 -0.32191899181E+02  0.17263155001E+02  0.37932707514E+02  0.00000000000E+00 0.  1.
        -11    1    3    3    0    0  0.14819739804E+01  0.35957985920E+02 -0.47618866999E+02  0.59688604378E+02  0.00000000000E+00 0. -1.
         11    1    3    3    0    0 -0.11399177233E+03  0.18859019583E+01 -0.14427830767E+03  0.18388559174E+03  0.00000000000E+00 0.  1.
         21    1    1    2  502  501  0.30685767633E+02  0.79426432199E+01  0.13477258412E+03  0.13844981527E+03  0.00000000000E+00 0. -1.
<scales pt_clust_5="13000.00000" pt_clust_6="13000.00000" pt_clust_7="13000.00000" pt_clust_8="13000.00000" pt_clust_9="31.69703"></scales>
<clustering>
<clus scale="   31.697">  1  9  2 -1</clus>
<clus scale="   81.424">  5  6 -1 -1</clus>
<clus scale="   91.724">  7  8 -1 -1</clus>
<clus scale="  141.726">  1  5  2 -1</clus>
<clus scale="   31.697">  1  5  2 -1</clus>
</clustering>
</event>
<event>
 9    1  0.1973774E-005  0.1029969E+03  0.7546771E-02  0.1277804E+00
          1   -1    0    0  502    0  0.00000000000E+00  0.00000000000E+00  0.25835224549E+03  0.25835224549E+03  0.00000000000E+00 0. -1.
         -2   -1    0    0    0  501 -0.00000000000E+00 -0.00000000000E+00 -0.94098318500E+02  0.94098318500E+02  0.00000000000E+00 0.  1.
         23    2    1    2    0    0 -0.53486681398E+02 -0.84215044834E+01 -0.33402699504E+02  0.11016604037E+03  0.89939253344E+02 0.  0.
        -24    2    1    2    0    0  0.41148110729E+02 -0.15171620851E+02  0.82799981938E+02  0.12438234091E+03  0.81803328937E+02 0.  0.
         13    1    4    4    0    0  0.98405032622E+01  0.30253812888E+02  0.52641283256E+02  0.61507994615E+02  0.00000000000E+00 0. -1.
        -14    1    4    4    0    0  0.31307607466E+02 -0.45425433739E+02  0.30158698681E+02  0.62874346293E+02  0.00000000000E+00 0.  1.
        -13    1    3    3    0    0 -0.54360770324E+02  0.14694899041E+02  0.13465754755E+02  0.57899567867E+02  0.00000000000E+00 0. -1.
         13    1    3    3    0    0  0.87408892612E+00 -0.23116403525E+02 -0.46868454259E+02  0.52266472504E+02  0.00000000000E+00 0.  1.
         21    1    1    2  502  501  0.12338570670E+02  0.23593125335E+02  0.11485664456E+03  0.11790218271E+03  0.00000000000E+00 0. -1.
<scales pt_clust_5="13000.00000" pt_clust_6="13000.00000" pt_clust_7="13000.00000" pt_clust_8="13000.00000" pt_clust_9="26.62472"></scales>
<clustering>
<clus scale="   26.625">  1  9  2 -1</clus>
<clus scale="   81.803">  5  6 -1 -1</clus>
<clus scale="   89.939">  7  8 -1 -1</clus>
<clus scale="   95.974">  1  5  2 -1</clus>
<clus scale="   26.625">  1  5  2 -1</clus>
</clustering>
</event>
<event>
 9    1  0.1973774E-005  0.9668620E+02  0.7546771E-02  0.1292449E+00
         -2   -1    0    0    0  501 -0.00000000000E+00  0.00000000000E+00  0.16170374253E+03  0.16170374253E+03  0.00000000000E+00 0.  1.
          1   -1    0    0  502    0  0.00000000000E+00 -0.00000000000E+00 -0.10595869460E+03  0.10595869460E+03  0.00000000000E+00 0. -1.
        -24    2    1    2    0    0 -0.19986266224E+02 -0.52764830606E+02  0.63880194977E+02  0.11687948153E+03  0.79978470270E+02 0.  0.
         23    2    1    2    0    0 -0.78149374970E+01  0.13059336389E+02  0.22448258973E+02  0.93469973450E+02  0.89448823865E+02 0.  0.
         13    1    3    3    0    0  0.30137690859E+02 -0.13539813986E+02  0.13439993615E+02  0.35668479102E+02  0.00000000000E+00 0. -1.
        -14    1    3    3    0    0 -0.50123957083E+02 -0.39225016620E+02  0.50440201362E+02  0.81211002431E+02  0.00000000000E+00 0.  1.
        -13    1    4    4    0    0 -0.16053482536E+02 -0.36431579250E+02  0.39933860657E+01  0.40011515848E+02  0.00000000000E+00 0.  1.
         13    1    4    4    0    0  0.82385450387E+01  0.49490915639E+02  0.18454872907E+02  0.53458457602E+02  0.00000000000E+00 0. -1.
         21    1    1    2  502  501  0.27801203721E+02  0.39705494217E+02 -0.30583406014E+02  0.57312982149E+02  0.00000000000E+00 0. -1.
<scales pt_clust_5="13000.00000" pt_clust_6="13000.00000" pt_clust_7="13000.00000" pt_clust_8="13000.00000" pt_clust_9="48.47095"></scales>
<clustering>
<clus scale="   48.471">  2  9  1 -1</clus>
<clus scale="   79.978">  5  6 -1 -1</clus>
<clus scale="   87.998">  1  5  2 -1</clus>
<clus scale="   89.449">  7  8 -1 -1</clus>
<clus scale="   48.471">  2  5  1 -1</clus>
</clustering>
</event>
<event>
 9    1  0.1973774E-005  0.1001842E+03  0.7546771E-02  0.1284970E+00
         -2   -1    0    0    0  501 -0.00000000000E+00  0.00000000000E+00  0.20851071017E+03  0.20851071017E+03  0.00000000000E+00 0.  1.
          1   -1    0    0  502    0  0.00000000000E+00 -0.00000000000E+00 -0.38953246445E+03  0.38953246445E+03  0.00000000000E+00 0. -1.
        -24    2    1    2    0    0  0.39664172880E+02  0.86796968318E+01  0.18552535138E+03  0.20668170812E+03  0.81541944535E+02 0.  0.
         23    2    1    2    0    0 -0.41227232940E+02  0.23566316705E+02 -0.30266135304E+03  0.31978187490E+03  0.91659679624E+02 0.  0.
         11    1    3    3    0    0 -0.17056511352E+02  0.24435090637E+02  0.41504926636E+02  0.51094590409E+02  0.00000000000E+00 0. -1.
        -12    1    3    3    0    0  0.56720684232E+02 -0.15755393806E+02  0.14402042475E+03  0.15558711771E+03  0.00000000000E+00 0.  1.
        -11    1    4    4    0    0 -0.68088207371E+02  0.21376654567E+02 -0.16933213145E+03  0.18375618652E+03  0.00000000000E+00 0. -1.
         11    1    4    4    0    0  0.26860974432E+02  0.21896621381E+01 -0.13332922160E+03  0.13602568838E+03  0.00000000000E+00 0.  1.
         21    1    1    2  502  501  0.15630600592E+01 -0.32246013537E+02 -0.63885752616E+02  0.71579591597E+02  0.00000000000E+00 0. -1.
<scales pt_clust_5="13000.00000" pt_clust_6="13000.00000" pt_clust_7="13000.00000" pt_clust_8="13000.00000" pt_clust_9="32.28387"></scales>
<clustering>
<clus scale="   32.284">  2  9  1 -1</clus>
<clus scale="   81.542">  5  6 -1 -1</clus>
<clus scale="   91.019">  1  5  2 -1</clus>
<clus scale="   91.660">  7  8 -1 -1</clus>
<clus scale="   32.284">  2  5  1 -1</clus>
</clustering>
</event>
<event>
 9    1  0.1973774E-005  0.1358465E+03  0.7546771E-02  0.1221382E+00
         -4   -1    0    0    0  501 -0.00000000000E+00  0.00000000000E+00  0.38632295521E+02  0.38632295521E+02  0.00000000000E+00 0.  1.
          3   -1    0    0  502    0  0.00000000000E+00 -0.00000000000E+00 -0.63887876635E+03  0.63887876635E+03  0.00000000000E+00 0. -1.
         23    2    1    2    0    0  0.95949964948E+02  0.45874313313E+02 -0.16161561152E+03  0.21380228926E+03  0.90999805550E+02 0.  0.
        -24    2    1    2    0    0 -0.71361633229E+02 -0.56331992202E+02 -0.38521378842E+03  0.40398162161E+03  0.80905573144E+02 0.  0.
         11    1    4    4    0    0 -0.14131485064E+02  0.17792350577E+02 -0.37216534166E+02  0.43604323461E+02  0.00000000000E+00 0. -1.
        -12    1    4    4    0    0 -0.57230148165E+02 -0.74124342779E+02 -0.34799725425E+03  0.36037729814E+03  0.00000000000E+00 0.  1.
        -11    1    3    3    0    0  0.66407446734E+02  0.70361943741E+02 -0.87994795544E+02  0.13078163538E+03  0.00000000000E+00 0. -1.
         11    1    3    3    0    0  0.29542518214E+02 -0.24487630428E+02 -0.73620815973E+02  0.83020653882E+02  0.00000000000E+00 0.  1.
         21    1    1    2  502  501 -0.24588331719E+02  0.10457678889E+02 -0.53417070891E+02  0.59727151004E+02  0.00000000000E+00 0.  1.
<scales pt_clust_5="13000.00000" pt_clust_6="13000.00000" pt_clust_7="13000.00000" pt_clust_8="13000.00000" pt_clust_9="26.71983"></scales>
<clustering>
<clus scale="   26.720">  2  9  1 -1</clus>
<clus scale="   80.906">  5  6 -1 -1</clus>
<clus scale="   91.000">  7  8 -1 -1</clus>
<clus scale="  129.302">  2  5  1 -1</clus>
<clus scale="   26.720">  2  5  1 -1</clus>
</clustering>
</event>
<event>
 9    1  0.1973774E-005  0.1012755E+03  0.7546771E-02  0.1280715E+00
          1   -1    0    0  502    0  0.00000000000E+00  0.00000000000E+00  0.32768789155E+03  0.32768789155E+03  0.00000000000E+00 0. -1.
         -2   -1    0    0    0  501 -0.00000000000E+00 -0.00000000000E+00 -0.29747323691E+03  0.29747323691E+03  0.00000000000E+00 0.  1.
         23    2    1    2    0    0 -0.49976461113E+02 -0.25054329757E+02 -0.25876655656E+03  0.27872858875E+03  0.87201658758E+02 0.  0.
        -24    2    1    2    0    0  0.57556993957E+01  0.32157951621E+02  0.43873326193E+02  0.97266305043E+02  0.80427628446E+02 0.  0.
         13    1    4    4    0    0 -0.14973906688E+02 -0.21347608735E+02  0.18464415128E+01  0.26140918623E+02  0.00000000000E+00 0. -1.
        -14    1    4    4    0    0  0.20729606083E+02  0.53505560356E+02  0.42026884681E+02  0.71125386420E+02  0.00000000000E+00 0.  1.
        -13    1    3    3    0    0 -0.61151055700E+02 -0.47660298919E+02 -0.20944904188E+03  0.22333798792E+03  0.00000000000E+00 0.  1.
         13    1    3    3    0    0  0.11174594587E+02  0.22605969162E+02 -0.49317514680E+02  0.55390600828E+02  0.00000000000E+00 0. -1.
         21    1    1    2  502  501  0.44220761717E+02 -0.71036218642E+01  0.24510788500E+03  0.24916623467E+03  0.00000000000E+00 0. -1.
<scales pt_clust_5="13000.00000" pt_clust_6="13000.00000" pt_clust_7="13000.00000" pt_clust_8="13000.00000" pt_clust_9="44.78769"></scales>
<clustering>
<clus scale="   44.788">  1  9  2 -1</clus>
<clus scale="   80.428">  5  6 -1 -1</clus>
<clus scale="   87.202">  7  8 -1 -1</clus>
<clus scale="   95.505">  1  5  2 -1</clus>
<clus scale="   44.788">  1  5  2 -1</clus>
</clustering>
</event>
<event>
 9    1  0.1973774E-005  0.1156828E+03  0.7546771E-02  0.1254441E+00
          1   -1    0    0  502    0  0.00000000000E+00  0.00000000000E+00  0.27658447849E+03  0.27658447849E+03  0.00000000000E+00 0. -1.
         -2   -1    0    0    0  501 -0.00000000000E+00 -0.00000000000E+00 -0.11982084517E+03  0.11982084517E+03  0.00000000000E+00 0.  1.
        -24    2    1    2    0    0  0.55607941809E+02 -0.45751408444E+02 -0.46088609903E+02  0.11641006226E+03  0.79004481305E+02 0.  0.
         23    2    1    2    0    0 -0.90315209362E+02 -0.56810292217E+01  0.15799409875E+03  0.20343062732E+03  0.90734633732E+02 0.  0.
         13    1    3    3    0    0  0.22704952699E+02 -0.31804191086E+02  0.18005834573E+02  0.43025940157E+02  0.00000000000E+00 0. -1.
        -14    1    3    3    0    0  0.32902989110E+02 -0.13947217358E+02 -0.64094444476E+02  0.73384122105E+02  0.00000000000E+00 0.  1.
        -11    1    4    4    0    0 -0.24486108707E+02 -0.14741934709E+02  0.12687617010E+03  0.13005559080E+03  0.00000000000E+00 0. -1.
         11    1    4    4    0    0 -0.65829100655E+02  0.90609054875E+01  0.31117928644E+02  0.73375036521E+02  0.00000000000E+00 0.  1.
         21    1    1    2  502  501  0.34707267554E+02  0.51432437666E+02  0.44858144479E+02  0.76564634077E+02  0.00000000000E+00 0. -1.
<scales pt_clust_5="13000.00000" pt_clust_6="13000.00000" pt_clust_7="13000.00000" pt_clust_8="13000.00000" pt_clust_9="62.04748"></scales>
<clustering>
<clus scale="   62.047">  1  9  2 -1</clus>
<clus scale="   79.004">  5  6 -1 -1</clus>
<clus scale="   90.735">  7  8 -1 -1</clus>
<clus scale="  106.731">  2  5  1 -1</clus>
<clus scale="   62.047">  1  5  2 -1</clus>
</clustering>
</event>
<event>
 9    1  0.1973774E-005  0.2761778E+03  0.7546771E-02  0.1098341E+00
          1   -1    0    0  502    0  0.00000000000E+00  0.00000000000E+00  0.52293633113E+03  0.52293633113E+03  0.00000000000E+00 0. -1.
         -2   -1    0    0    0  501 -0.00000000000E+00 -0.00000000000E+00 -0.25037880431E+03  0.25037880431E+03  0.00000000000E+00 0.  1.
        -24    2    1    2    0    0  0.21175909389E+03  0.11708773851E+03 -0.41469804052E+02  0.25709311122E+03  0.76326082266E+02 0.  0.
         23    2    1    2    0    0 -0.27359865108E+03 -0.15966606814E+03  0.21988539603E+03  0.39580712115E+03  0.89242448284E+02 0.  0.
         13    1    3    3    0    0  0.11005467177E+03  0.42326189440E+02  0.14901784578E+02  0.11885116859E+03  0.00000000000E+00 0. -1.
        -14    1    3    3    0    0  0.10170442212E+03  0.74761549071E+02 -0.56371588630E+02  0.13824194263E+03  0.00000000000E+00 0.  1.
        -11    1    4    4    0    0 -0.21337976186E+03 -0.11571117926E+03  0.20929091529E+03  0.32050380185E+03  0.00000000000E+00 0.  1.
         11    1    4    4    0    0 -0.60218889211E+02 -0.43954888888E+02  0.10594480745E+02  0.75303319297E+02  0.00000000000E+00 0. -1.
         21    1    1    2  502  501  0.61839557185E+02  0.42578329633E+02  0.94141934831E+02  0.12041490307E+03  0.00000000000E+00 0. -1.
<scales pt_clust_5="13000.00000" pt_clust_6="13000.00000" pt_clust_7="13000.00000" pt_clust_8="13000.00000" pt_clust_9="75.08026"></scales>
<clustering>
<clus scale="   75.080">  1  9  2 -1</clus>
<clus scale="   76.326">  5  6 -1 -1</clus>
<clus scale="   89.242">  7  8 -1 -1</clus>
<clus scale="  272.279">  2  5  1 -1</clus>
<clus scale="   75.080">  1  5  2 -1</clus>
</clustering>
</event>
<event>
 9    1  0.1973774E-005  0.9702087E+02  0.7546771E-02  0.1292495E+00
         -2   -1    0    0    0  501 -0.00000000000E+00  0.00000000000E+00  0.18013870000E+03  0.18013870000E+03  0.00000000000E+00 0.  1.
          1   -1    0    0  502    0  0.00000000000E+00 -0.00000000000E+00 -0.10268300355E+03  0.10268300355E+03  0.00000000000E+00 0. -1.
        -24    2    1    2    0    0 -0.34626320487E+02 -0.10026759827E+02  0.12886494675E+03  0.15600683045E+03  0.80202485409E+02 0.  0.
         23    2    1    2    0    0  0.16763708936E+02  0.19925311731E+02 -0.35996700044E+02  0.10122970305E+03  0.90959608513E+02 0.  0.
         11    1    3    3    0    0 -0.37339328671E+02  0.28889920930E+02  0.55083569803E+02  0.72546899722E+02  0.00000000000E+00 0. -1.
        -12    1    3    3    0    0  0.27130081848E+01 -0.38916680756E+02  0.73781376942E+02  0.83459930733E+02  0.00000000000E+00 0.  1.
        -13    1    4    4    0    0  0.19141526445E+02 -0.34829623761E+02 -0.16970902060E+02  0.43214722522E+02  0.00000000000E+00 0.  1.
         13    1    4    4    0    0 -0.23778175081E+01  0.54754935491E+02 -0.19025797984E+02  0.58014980528E+02  0.00000000000E+00 0. -1.
         21    1    1    2  502  501  0.17862611550E+02 -0.98985519040E+01 -0.15412550253E+02  0.25585170050E+02  0.00000000000E+00 0.  1.
<scales pt_clust_5="13000.00000" pt_clust_6="13000.00000" pt_clust_7="13000.00000" pt_clust_8="13000.00000" pt_clust_9="20.42191"></scales>
<clustering>
<clus scale="   20.422">  2  9  1 -1</clus>
<clus scale="   80.202">  5  6 -1 -1</clus>
<clus scale="   87.016">  1  5  2 -1</clus>
<clus scale="   90.960">  7  8 -1 -1</clus>
<clus scale="   20.422">  2  5  1 -1</clus>
</clustering>
</event>
<event>
 9    1  0.1973774E-005  0.1647234E+03  0.7546771E-02  0.1185988E+00
          1   -1    0    0  502    0  0.00000000000E+00  0.00000000000E+00  0.31435317297E+03  0.31435317297E+03  0.00000000000E+00 0. -1.
         -2   -1    0    0    0  501 -0.00000000000E+00 -0.00000000000E+00 -0.13424748472E+03  0.13424748472E+03  0.00000000000E+00 0.  1.
        -24    2    1    2    0    0  0.12520693789E+03 -0.49147325245E+02 -0.25951803593E+02  0.15825997743E+03  0.79249526631E+02 0.  0.
         23    2    1    2    0    0 -0.13116528332E+03  0.28073709557E+02  0.12630541108E+03  0.20763642678E+03  0.95746353149E+02 0.  0.
         13    1    3    3    0    0  0.10395761084E+03 -0.62491172393E+02  0.11855043900E+01  0.12130019332E+03  0.00000000000E+00 0. -1.
        -14    1    3    3    0    0  0.21249327051E+02  0.13343847148E+02 -0.27137307983E+02  0.36959784110E+02  0.00000000000E+00 0.  1.
        -13    1    4    4    0    0 -0.57952891097E+02  0.34219336583E+02  0.71889116904E+01  0.67684422388E+02  0.00000000000E+00 0. -1.
         13    1    4    4    0    0 -0.73212392220E+02 -0.61456270252E+01  0.11911649939E+03  0.13995200439E+03  0.00000000000E+00 0.  1.
         21    1    1    2  502  501  0.59583454221E+01  0.21073615687E+02  0.79752080763E+02  0.82704253484E+02  0.00000000000E+00 0.  1.
<scales pt_clust_5="13000.00000" pt_clust_6="13000.00000" pt_clust_7="13000.00000" pt_clust_8="13000.00000" pt_clust_9="21.89975"></scales>
<clustering>
<clus scale="   21.900">  1  9  2 -1</clus>
<clus scale="   79.250">  5  6 -1 -1</clus>
<clus scale="   95.746">  7  8 -1 -1</clus>
<clus scale="  155.714">  2  5  1 -1</clus>
<clus scale="   21.900">  1  5  2 -1</clus>
</clustering>
</event>
<event>
 9    1  0.1973774E-005  0.3575873E+03  0.7546771E-02  0.1080010E+00
          1   -1    0    0  502    0  0.00000000000E+00  0.00000000000E+00  0.21612357894E+03  0.21612357894E+03  0.00000000000E+00 0. -1.
         -2   -1    0    0    0  501 -0.00000000000E+00 -0.00000000000E+00 -0.19737218403E+04  0.19737218403E+04  0.00000000000E+00 0.  1.
         23    2    1    2    0    0  0.84495740824E+02 -0.16181317802E+03 -0.73574863459E+03  0.76345658766E+03  0.90646969837E+02 0.  0.
        -24    2    1    2    0    0 -0.52105467710E+02  0.48548062813E+03 -0.98082214596E+03  0.10985275770E+04  0.79651336335E+02 0.  0.
         11    1    4    4    0    0  0.75111125691E+00  0.70129345093E+02 -0.20895363251E+03  0.22040941394E+03  0.00000000000E+00 0. -1.
        -12    1    4    4    0    0 -0.52856578967E+02  0.41535128303E+03 -0.77186851345E+03  0.87811816307E+03  0.00000000000E+00 0.  1.
        -11    1    3    3    0    0  0.96772996719E+02 -0.95535400236E+02 -0.46826161762E+03  0.48760739138E+03  0.00000000000E+00 0.  1.
         11    1    3    3    0    0 -0.12277255895E+02 -0.66277777785E+02 -0.26748701697E+03  0.27584919628E+03  0.00000000000E+00 0. -1.
         21    1    1    2  502  501 -0.32390273114E+02 -0.32366745011E+03 -0.41027480769E+02  0.32786125454E+03  0.00000000000E+00 0. -1.
<scales pt_clust_5="13000.00000" pt_clust_6="13000.00000" pt_clust_7="13000.00000" pt_clust_8="13000.00000" pt_clust_9="348.60343"></scales>
<clustering>
<clus scale="   79.651">  5  6 -1 -1</clus>
<clus scale="   90.647">  7  8 -1 -1</clus>
<clus scale="  203.813">  2  7  1 -1</clus>
<clus scale="  348.603">  1  9  2 -1</clus>
<clus scale="  348.603">  1  5  2 -1</clus>
</clustering>
</event>
<event>
 9    1  0.1973774E-005  0.1053557E+03  0.7546771E-02  0.1275122E+00
         -2   -1    0    0    0  501 -0.00000000000E+00  0.00000000000E+00  0.23727233331E+03  0.23727233331E+03  0.00000000000E+00 0.  1.
          1   -1    0    0  502    0  0.00000000000E+00 -0.00000000000E+00 -0.88797477082E+02  0.88797477082E+02  0.00000000000E+00 0. -1.
        -24    2    1    2    0    0 -0.30068317916E+02 -0.49799370450E+02  0.16794817656E+03  0.19449694567E+03  0.78983484503E+02 0.  0.
         23    2    1    2    0    0  0.15627032786E+02  0.18030487365E+02 -0.18629264127E+02  0.96665486136E+02  0.91803399172E+02 0.  0.
         11    1    3    3    0    0 -0.35434865595E+02 -0.64744628252E+02  0.97523903133E+02  0.12230457174E+03  0.00000000000E+00 0. -1.
        -12    1    3    3    0    0  0.53665476787E+01  0.14945257802E+02  0.70424273431E+02  0.72192373926E+02  0.00000000000E+00 0.  1.
        -13    1    4    4    0    0 -0.18804179787E+02 -0.10978843088E+02  0.25561943365E+02  0.33578938661E+02  0.00000000000E+00 0.  1.
         13    1    4    4    0    0  0.34431212573E+02  0.29009330454E+02 -0.44191207492E+02  0.63086547474E+02  0.00000000000E+00 0. -1.
         21    1    1    2  502  501  0.14441285130E+02  0.31768883084E+02 -0.84405621199E+00  0.34907378583E+02  0.00000000000E+00 0. -1.
<scales pt_clust_5="13000.00000" pt_clust_6="13000.00000" pt_clust_7="13000.00000" pt_clust_8="13000.00000" pt_clust_9="34.89717"></scales>
<clustering>
<clus scale="   34.897">  2  9  1 -1</clus>
<clus scale="   78.983">  5  6 -1 -1</clus>
<clus scale="   91.803">  7  8 -1 -1</clus>
<clus scale="   94.395">  1  5  2 -1</clus>
<clus scale="   34.897">  2  5  1 -1</clus>
</clustering>
</event>
<event>
 9    1  0.1973774E-005  0.1487268E+03  0.7546771E-02  0.1221634E+00
         -4   -1    0    0    0  501 -0.00000000000E+00  0.00000000000E+00  0.22674698217E+03  0.22674698217E+03  0.00000000000E+00 0.  1.
          3   -1    0    0  502    0  0.00000000000E+00 -0.00000000000E+00 -0.63578606673E+03  0.63578606673E+03  0.00000000000E+00 0. -1.
        -24    2    1    2    0    0  0.28765261470E+02 -0.49509465503E+02  0.19907408269E+02  0.10001519812E+03  0.79549402949E+02 0.  0.
         23    2    1    2    0    0  0.79133289849E+02 -0.25282278049E+01  0.13800788257E+03  0.18304629609E+03  0.90505808434E+02 0.  0.
         11    1    3    3    0    0  0.53041658220E+01 -0.66303733114E+02  0.30204969752E+01  0.66584101720E+02  0.00000000000E+00 0. -1.
        -12    1    3    3    0    0  0.23461095648E+02  0.16794267610E+02  0.16886911294E+02  0.33431096402E+02  0.00000000000E+00 0.  1.
        -11    1    4    4    0    0  0.11695015498E+02 -0.35374902426E+02  0.79901401794E+02  0.88161165588E+02  0.00000000000E+00 0.  1.
         11    1    4    4    0    0  0.67438274351E+02  0.32846674621E+02  0.58106480780E+02  0.94885130499E+02  0.00000000000E+00 0. -1.
         21    1    1    2  502  501 -0.10789855132E+03  0.52037693308E+02 -0.56695437540E+03  0.57947155468E+03  0.00000000000E+00 0. -1.
<scales pt_clust_5="13000.00000" pt_clust_6="13000.00000" pt_clust_7="13000.00000" pt_clust_8="13000.00000" pt_clust_9="118.01842"></scales>
<clustering>
<clus scale="   79.549">  5  6 -1 -1</clus>
<clus scale="   90.506">  7  8 -1 -1</clus>
<clus scale="   98.014">  1  5  2 -1</clus>
<clus scale="  118.018">  2  9  1 -1</clus>
<clus scale="  118.018">  2  5  1 -1</clus>
</clustering>
</event>
<event>
 9    1  0.1973774E-005  0.1046636E+03  0.7546771E-02  0.1275799E+00
         -4   -1    0    0    0  501 -0.00000000000E+00  0.00000000000E+00  0.14035609238E+03  0.14035609238E+03  0.00000000000E+00 0.  1.
          3   -1    0    0  502    0  0.00000000000E+00 -0.00000000000E+00 -0.14079971506E+03  0.14079971506E+03  0.00000000000E+00 0. -1.
        -24    2    1    2    0    0  0.58874884495E+02 -0.49962130300E+02  0.75368113528E+02  0.13055868539E+03  0.73503410154E+02 0.  0.
         23    2    1    2    0    0 -0.45985834215E+02  0.32172797124E+02 -0.77770945599E+02  0.12854204342E+03  0.85585928310E+02 0.  0.
         13    1    3    3    0    0  0.25380297988E+01 -0.35170581745E+02 -0.56094428418E-01  0.35262083916E+02  0.00000000000E+00 0. -1.
        -14    1    3    3    0    0  0.56336854696E+02 -0.14791548556E+02  0.75424207956E+02  0.95296601469E+02  0.00000000000E+00 0.  1.
        -11    1    4    4    0    0 -0.31682977720E+02 -0.66189098143E+01  0.79871943903E+01  0.33337911130E+02  0.00000000000E+00 0.  1.
         11    1    4    4    0    0 -0.14302856495E+02  0.38791706938E+02 -0.85758139989E+02  0.95204132292E+02  0.00000000000E+00 0. -1.
         21    1    1    2  502  501 -0.12889050280E+02  0.17789333176E+02  0.19592093915E+01  0.22055078631E+02  0.00000000000E+00 0.  1.
<scales pt_clust_5="13000.00000" pt_clust_6="13000.00000" pt_clust_7="13000.00000" pt_clust_8="13000.00000" pt_clust_9="21.96789"></scales>
<clustering>
<clus scale="   21.968">  1  9  2 -1</clus>
<clus scale="   73.503">  5  6 -1 -1</clus>
<clus scale="   85.586">  7  8 -1 -1</clus>
<clus scale="   95.038">  1  5  2 -1</clus>
<clus scale="  104.664">  2  5  1 -1</clus>
</clustering>
</event>
<event>
 9    1  0.1973774E-005  0.1049838E+03  0.7546771E-02  0.1289273E+00
         -2   -1    0    0    0  501 -0.00000000000E+00  0.00000000000E+00  0.17379930607E+03  0.17379930607E+03  0.00000000000E+00 0.  1.
          1   -1    0    0  502    0  0.00000000000E+00 -0.00000000000E+00 -0.13502646415E+03  0.13502646415E+03  0.00000000000E+00 0. -1.
         23    2    1    2    0    0 -0.42899336269E+02  0.24520737176E+02  0.94789017343E+02  0.14094791518E+03  0.91868043303E+02 0.  0.
        -24    2    1    2    0    0  0.91675100123E+01 -0.77152232374E+02 -0.46699878829E+02  0.10467418607E+03  0.52338287568E+02 0.  0.
         13    1    4    4    0    0 -0.56085551308E+01 -0.69671635537E+02 -0.52183832946E+02  0.87228121096E+02  0.00000000000E+00 0. -1.
        -14    1    4    4    0    0  0.14776065143E+02 -0.74805968373E+01  0.54839541163E+01  0.17446064969E+02  0.00000000000E+00 0.  1.
        -13    1    3    3    0    0  0.12608532248E+02  0.34895647520E+02  0.88962632445E+01  0.38155272257E+02  0.00000000000E+00 0.  1.
         13    1    3    3    0    0 -0.55507868517E+02 -0.10374910344E+02  0.85892754099E+02  0.10279264292E+03  0.00000000000E+00 0. -1.
         21    1    1    2  502  501  0.33731826256E+02  0.52631495198E+02 -0.93162965952E+01  0.63203668973E+02  0.00000000000E+00 0.  1.
<scales pt_clust_5="13000.00000" pt_clust_6="13000.00000" pt_clust_7="13000.00000" pt_clust_8="13000.00000" pt_clust_9="62.51328"></scales>
<clustering>
<clus scale="   52.338">  5  6 -1 -1</clus>
<clus scale="   62.513">  2  9  1 -1</clus>
<clus scale="   72.946">  2  5  1 -1</clus>
<clus scale="   91.868">  7  8 -1 -1</clus>
<clus scale="   62.513">  2  5  1 -1</clus>
</clustering>
</event>
<event>
 9    1  0.1973774E-005  0.1441915E+03  0.7546771E-02  0.1212202E+00
          3   -1    0    0  502    0  0.00000000000E+00  0.00000000000E+00  0.63637251430E+03  0.63637251430E+03  0.00000000000E+00 0. -1.
         -4   -1    0    0    0  501 -0.00000000000E+00 -0.00000000000E+00 -0.54562251803E+02  0.54562251803E+02  0.00000000000E+00 0.  1.
        -24    2    1    2    0    0  0.11907035410E+03 -0.24747707616E+02  0.12998024510E+03  0.19510078094E+03  0.79870221908E+02 0.  0.
         23    2    1    2    0    0 -0.78505032942E+02  0.63272943206E+02  0.37400534206E+03  0.39998817592E+03  0.99719804697E+02 0.  0.
         11    1    3    3    0    0  0.23975786846E+02 -0.39501173691E+02  0.61794019733E+02  0.77160105965E+02  0.00000000000E+00 0. -1.
        -12    1    3    3    0    0  0.95094567258E+02  0.14753466074E+02  0.68186225365E+02  0.11794067497E+03  0.00000000000E+00 0.  1.
        -13    1    4    4    0    0  0.22148591677E+02  0.12927627678E+02  0.11084349892E+03  0.11377154707E+03  0.00000000000E+00 0.  1.
         13    1    4    4    0    0 -0.10065362462E+03  0.50345315528E+02  0.26316184314E+03  0.28621662885E+03  0.00000000000E+00 0. -1.
         21    1    1    2  502  501 -0.40565321161E+02 -0.38525235590E+02  0.77824675342E+02  0.95845809248E+02  0.00000000000E+00 0. -1.
<scales pt_clust_5="13000.00000" pt_clust_6="13000.00000" pt_clust_7="13000.00000" pt_clust_8="13000.00000" pt_clust_9="55.94407"></scales>
<clustering>
<clus scale="   55.944">  2  9  1 -1</clus>
<clus scale="   79.870">  5  6 -1 -1</clus>
<clus scale="   99.720">  7  8 -1 -1</clus>
<clus scale="  131.249">  2  5  1 -1</clus>
<clus scale="  144.192">  1  5  2 -1</clus>
</clustering>
</event>
<event>
 9    1  0.1973774E-005  0.1330692E+03  0.7546771E-02  0.1225560E+00
         -2   -1    0    0    0  501 -0.00000000000E+00  0.00000000000E+00  0.18340620551E+03  0.18340620551E+03  0.00000000000E+00 0.  1.
          1   -1    0    0  502    0  0.00000000000E+00 -0.00000000000E+00 -0.16814978383E+03  0.16814978383E+03  0.00000000000E+00 0. -1.
         23    2    1    2    0    0 -0.16621417875E+02  0.11160530963E+03  0.10532402533E+03  0.17571664013E+03  0.83971248883E+02 0.  0.
        -24    2    1    2    0    0 -0.10239387509E+02 -0.80727957775E+02 -0.55326118606E+02  0.12215616277E+03  0.72383012364E+02 0.  0.
         13    1    4    4    0    0  0.20084258141E+02 -0.47293447143E+02 -0.57315658259E+02  0.76974880639E+02  0.00000000000E+00 0. -1.
        -14    1    4    4    0    0 -0.30323645650E+02 -0.33434510632E+02  0.19895396531E+01  0.45181282128E+02  0.00000000000E+00 0.  1.
        -13    1    3    3    0    0  0.12442333711E+02  0.11066865232E+03  0.79552189843E+02  0.13686092643E+03  0.00000000000E+00 0.  1.
         13    1    3    3    0    0 -0.29063751586E+02  0.93665730939E+00  0.25771835483E+02  0.38855713702E+02  0.00000000000E+00 0. -1.
         21    1    1    2  502  501  0.26860805384E+02 -0.30877351853E+02 -0.34741485042E+02  0.53683186439E+02  0.00000000000E+00 0. -1.
<scales pt_clust_5="13000.00000" pt_clust_6="13000.00000" pt_clust_7="13000.00000" pt_clust_8="13000.00000" pt_clust_9="40.92571"></scales>
<clustering>
<clus scale="   40.926">  2  9  1 -1</clus>
<clus scale="   72.383">  5  6 -1 -1</clus>
<clus scale="   83.971">  7  8 -1 -1</clus>
<clus scale="  126.078">  2  5  1 -1</clus>
<clus scale="   40.926">  2  5  1 -1</clus>
</clustering>
</event>
<event>
 9    1  0.1973774E-005  0.9980078E+02  0.7546771E-02  0.1283751E+00
         -2   -1    0    0    0  501 -0.00000000000E+00  0.00000000000E+00  0.64985706269E+02  0.64985706269E+02  0.00000000000E+00 0.  1.
          1   -1    0    0  502    0  0.00000000000E+00 -0.00000000000E+00 -0.45228971356E+03  0.45228971356E+03  0.00000000000E+00 0. -1.
         23    2    1    2    0    0 -0.63927041146E+02  0.22407372212E+02 -0.12538819984E+02  0.11052381020E+03  0.86426464087E+02 0.  0.
        -24    2    1    2    0    0  0.32922556186E+00 -0.20888583037E+02 -0.13136830178E+03  0.15517849352E+03  0.79914284375E+02 0.  0.
         13    1    4    4    0    0  0.14357859240E+02 -0.42204421283E+02 -0.11848221483E+03  0.12659145520E+03  0.00000000000E+00 0. -1.
        -14    1    4    4    0    0 -0.14028633678E+02  0.21315838246E+02 -0.12886086946E+02  0.28587038318E+02  0.00000000000E+00 0.  1.
        -11    1    3    3    0    0 -0.30069961327E+02 -0.14705634574E+02 -0.40886817162E+02  0.52841177883E+02  0.00000000000E+00 0. -1.
         11    1    3    3    0    0 -0.33857079819E+02  0.37113006786E+02  0.28347997178E+02  0.57682632313E+02  0.00000000000E+00 0.  1.
         21    1    1    2  502  501  0.63597815585E+02 -0.15187891746E+01 -0.24339688552E+03  0.25157311611E+03  0.00000000000E+00 0. -1.
<scales pt_clust_5="13000.00000" pt_clust_6="13000.00000" pt_clust_7="13000.00000" pt_clust_8="13000.00000" pt_clust_9="63.61595"></scales>
<clustering>
<clus scale="   63.616">  2  9  1 -1</clus>
<clus scale="   79.914">  5  6 -1 -1</clus>
<clus scale="   86.426">  7  8 -1 -1</clus>
<clus scale="   94.218">  2  5  1 -1</clus>
<clus scale="   63.616">  2  5  1 -1</clus>
</clustering>
</event>
<event>
 9    1  0.1973774E-005  0.3213403E+03  0.7546771E-02  0.1120829E+00
         -2   -1    0    0    0  501 -0.00000000000E+00  0.00000000000E+00  0.11361133861E+03  0.11361133861E+03  0.00000000000E+00 0.  1.
          1   -1    0    0  502    0  0.00000000000E+00 -0.00000000000E+00 -0.21576978428E+04  0.21576978428E+04  0.00000000000E+00 0. -1.
        -24    2    1    2    0    0 -0.51893245793E+02 -0.28147926228E+02  0.69196260707E+01  0.97676849196E+02  0.77509166774E+02 0.  0.
         23    2    1    2    0    0 -0.23379906210E+03  0.16679193883E+03 -0.44733816601E+03  0.53882555569E+03  0.87977226582E+02 0.  0.
         13    1    3    3    0    0 -0.83300848008E+01  0.23946999411E+02  0.14725901572E+02  0.29320662862E+02  0.00000000000E+00 0. -1.
        -14    1    3    3    0    0 -0.43563160993E+02 -0.52094925639E+02 -0.78062755012E+01  0.68356186334E+02  0.00000000000E+00 0.  1.
        -11    1    4    4    0    0 -0.15381259588E+02  0.50343943260E+02 -0.71039727168E+02  0.88417976711E+02  0.00000000000E+00 0. -1.
         11    1    4    4    0    0 -0.21841780251E+03  0.11644799557E+03 -0.37629843884E+03  0.45040757898E+03  0.00000000000E+00 0.  1.
         21    1    1    2  502  501  0.28569230789E+03 -0.13864401260E+03 -0.16036679643E+04  0.16348067766E+04  0.00000000000E+00 0. -1.
<scales pt_clust_5="13000.00000" pt_clust_6="13000.00000" pt_clust_7="13000.00000" pt_clust_8="13000.00000" pt_clust_9="309.06245"></scales>
<clustering>
<clus scale="   77.509">  5  6 -1 -1</clus>
<clus scale="   87.977">  7  8 -1 -1</clus>
<clus scale="   97.431">  1  5  2 -1</clus>
<clus scale="  309.062">  2  9  1 -1</clus>
<clus scale="  309.062">  2  5  1 -1</clus>
</clustering>
</event>
<event>
 9    1  0.1973774E-005  0.1133332E+03  0.7546771E-02  0.1261701E+00
         -2   -1    0    0    0  501 -0.00000000000E+00  0.00000000000E+00  0.65085480863E+02  0.65085480863E+02  0.00000000000E+00 0.  1.
          1   -1    0    0  502    0  0.00000000000E+00 -0.00000000000E+00 -0.31667856094E+03  0.31667856094E+03  0.00000000000E+00 0. -1.
         23    2    1    2    0    0  0.70575258749E+02  0.29322791221E+02 -0.68179410281E+02  0.14034518851E+03  0.95956483465E+02 0.  0.
        -24    2    1    2    0    0 -0.18712328958E+02 -0.51655811857E+02 -0.83311022532E+02  0.12648814684E+03  0.77717762844E+02 0.  0.
         13    1    4    4    0    0  0.21477812462E+02 -0.43188261228E+02 -0.66401145563E+02  0.82070911217E+02  0.00000000000E+00 0. -1.
        -14    1    4    4    0    0 -0.40190141420E+02 -0.84675506290E+01 -0.16909876970E+02  0.44417235620E+02  0.00000000000E+00 0.  1.
        -11    1    3    3    0    0  0.25712415513E+00  0.28182450274E+02  0.14586994629E+02  0.31734792083E+02  0.00000000000E+00 0.  1.
         11    1    3    3    0    0  0.70318134593E+02  0.11403409477E+01 -0.82766404910E+02  0.10861039643E+03  0.00000000000E+00 0. -1.
         21    1    1    2  502  501 -0.51862929790E+02  0.22333020635E+02 -0.10010264726E+03  0.11493070645E+03  0.00000000000E+00 0.  1.
<scales pt_clust_5="13000.00000" pt_clust_6="13000.00000" pt_clust_7="13000.00000" pt_clust_8="13000.00000" pt_clust_9="56.46705"></scales>
<clustering>
<clus scale="   56.467">  2  9  1 -1</clus>
<clus scale="   77.718">  5  6 -1 -1</clus>
<clus scale="   95.956">  7  8 -1 -1</clus>
<clus scale="   98.371">  2  5  1 -1</clus>
<clus scale="   56.467">  2  5  1 -1</clus>
</clustering>
</event>
<event>
 9    1  0.1973774E-005  0.2153274E+03  0.7546771E-02  0.1138357E+00
          1   -1    0    0  502    0  0.00000000000E+00  0.00000000000E+00  0.64441563505E+03  0.64441563505E+03  0.00000000000E+00 0. -1.
         -2   -1    0    0    0  501 -0.00000000000E+00 -0.00000000000E+00 -0.13555576906E+03  0.13555576906E+03  0.00000000000E+00 0.  1.
         23    2    1    2    0    0 -0.14040457146E+03  0.11071494172E+03  0.44911262464E+02  0.20599419096E+03  0.91898548440E+02 0.  0.
        -24    2    1    2    0    0  0.11212601336E+03 -0.16751971550E+03  0.46216161340E+03  0.51049766916E+03  0.79871242422E+02 0.  0.
         13    1    4    4    0    0  0.10654480537E+03 -0.12877313629E+03  0.42432361475E+03  0.45605355630E+03  0.00000000000E+00 0. -1.
        -14    1    4    4    0    0  0.55812079884E+01 -0.38746579211E+02  0.37837998645E+02  0.54444112855E+02  0.00000000000E+00 0.  1.
        -13    1    3    3    0    0 -0.14705949276E+03  0.83215241920E+02  0.52064264015E+02  0.17681051576E+03  0.00000000000E+00 0.  1.
         13    1    3    3    0    0  0.66549212959E+01  0.27499699802E+02 -0.71530015516E+01  0.29183675194E+02  0.00000000000E+00 0. -1.
         21    1    1    2  502  501  0.28278558098E+02  0.56804773781E+02  0.17869901280E+01  0.63479543997E+02  0.00000000000E+00 0.  1.
<scales pt_clust_5="13000.00000" pt_clust_6="13000.00000" pt_clust_7="13000.00000" pt_clust_8="13000.00000" pt_clust_9="63.45439"></scales>
<clustering>
<clus scale="   63.454">  2  9  1 -1</clus>
<clus scale="   79.871">  5  6 -1 -1</clus>
<clus scale="   91.899">  7  8 -1 -1</clus>
<clus scale="  210.476">  1  5  2 -1</clus>
<clus scale="  210.476">  1  5  2 -1</clus>
</clustering>
</event>
<event>
 9    1  0.1973774E-005  0.1197573E+03  0.7546771E-02  0.1247012E+00
          1   -1    0    0  502    0  0.00000000000E+00  0.00000000000E+00  0.12780836997E+03  0.12780836997E+03  0.00000000000E+00 0. -1.
         -2   -1    0    0    0  501 -0.00000000000E+00 -0.00000000000E+00 -0.27012769141E+03  0.27012769141E+03  0.00000000000E+00 0.  1.
        -24    2    1    2    0    0  0.68805543113E+02 -0.33710465765E+02 -0.20995898712E+03  0.23853293830E+03  0.83334195376E+02 0.  0.
         23    2    1    2    0    0 -0.63343336810E+02  0.77744739138E+01  0.38392426777E+02  0.11993272462E+03  0.94005634072E+02 0.  0.
         11    1    3    3    0    0  0.47579702942E+02  0.68258740027E+01 -0.40034318356E+02  0.62555314197E+02  0.00000000000E+00 0. -1.
        -12    1    3    3    0    0  0.21225840171E+02 -0.40536339768E+02 -0.16992466876E+03  0.17597762411E+03  0.00000000000E+00 0.  1.
        -11    1    4    4    0    0 -0.12820997830E+02  0.45717440313E+02  0.31514910422E+01  0.47585651513E+02  0.00000000000E+00 0. -1.
         11    1    4    4    0    0 -0.50522338980E+02 -0.37942966399E+02  0.35240935735E+02  0.72347073104E+02  0.00000000000E+00 0.  1.
         21    1    1    2  502  501 -0.54622063027E+01  0.25935991851E+02  0.29247238902E+02  0.39470398458E+02  0.00000000000E+00 0. -1.
<scales pt_clust_5="13000.00000" pt_clust_6="13000.00000" pt_clust_7="13000.00000" pt_clust_8="13000.00000" pt_clust_9="26.50493"></scales>
<clustering>
<clus scale="   26.505">  1  9  2 -1</clus>
<clus scale="   83.334">  5  6 -1 -1</clus>
<clus scale="   94.006">  7  8 -1 -1</clus>
<clus scale="  111.577">  2  5  1 -1</clus>
<clus scale="   26.505">  1  5  2 -1</clus>
</clustering>
</event>
<event>
 9    1  0.1973774E-005  0.1197485E+03  0.7546771E-02  0.1249158E+00
         -2   -1    0    0    0  501 -0.00000000000E+00  0.00000000000E+00  0.17121009287E+03  0.17121009287E+03  0.00000000000E+00 0.  1.
          1   -1    0    0  502    0  0.00000000000E+00 -0.00000000000E+00 -0.31795592950E+03  0.31795592950E+03  0.00000000000E+00 0. -1.
        -24    2    1    2    0    0  0.37574594181E+01 -0.67794326882E+02  0.13044815602E+03  0.16791630929E+03  0.81049221195E+02 0.  0.
         23    2    1    2    0    0  0.52598074875E+01  0.92953024117E+02 -0.21741751932E+03  0.25577072475E+03  0.97367117984E+02 0.  0.
         13    1    3    3    0    0 -0.21844680810E+02 -0.29357025974E+02  0.85719950338E+01  0.37583296191E+02  0.00000000000E+00 0. -1.
        -14    1    3    3    0    0  0.25602140228E+02 -0.38437300908E+02  0.12187616099E+03  0.13033301310E+03  0.00000000000E+00 0.  1.
        -11    1    4    4    0    0  0.34045017005E+02  0.47083143984E+02 -0.18203450452E+03  0.19108230286E+03  0.00000000000E+00 0. -1.
         11    1    4    4    0    0 -0.28785209517E+02  0.45869880133E+02 -0.35383014801E+02  0.64688421891E+02  0.00000000000E+00 0.  1.
         21    1    1    2  502  501 -0.90172669056E+01 -0.25158697235E+02 -0.59776473336E+02  0.65478988336E+02  0.00000000000E+00 0. -1.
<scales pt_clust_5="13000.00000" pt_clust_6="13000.00000" pt_clust_7="13000.00000" pt_clust_8="13000.00000" pt_clust_9="26.72585"></scales>
<clustering>
<clus scale="   26.726">  2  9  1 -1</clus>
<clus scale="   81.049">  5  6 -1 -1</clus>
<clus scale="   97.367">  7  8 -1 -1</clus>
<clus scale="  106.903">  1  5  2 -1</clus>
<clus scale="   26.726">  2  5  1 -1</clus>
</clustering>
</event>
<event>
 9    1  0.1973774E-005  0.1153052E+03  0.7546771E-02  0.1255187E+00
          1   -1    0    0  502    0  0.00000000000E+00  0.00000000000E+00  0.40385003295E+03  0.40385003295E+03  0.00000000000E+00 0. -1.
         -2   -1    0    0    0  501 -0.00000000000E+00 -0.00000000000E+00 -0.84194405697E+02  0.84194405697E+02  0.00000000000E+00 0.  1.
        -24    2    1    2    0    0 -0.72179148374E+02 -0.12952028902E+02 -0.28843550477E+02  0.11189074554E+03  0.79435533737E+02 0.  0.
         23    2    1    2    0    0  0.45270990531E+02  0.33797239463E+02  0.27290817067E+03  0.29325271537E+03  0.91250038213E+02 0.  0.
         13    1    3    3    0    0 -0.35184268402E+02  0.18556934335E+02  0.18657673696E+02  0.43936332831E+02  0.00000000000E+00 0. -1.
        -14    1    3    3    0    0 -0.36994879972E+02 -0.31508963236E+02 -0.47501224173E+02  0.67954412707E+02  0.00000000000E+00 0.  1.
        -11    1    4    4    0    0  0.21278176771E+02 -0.24525591087E+02  0.37788261139E+02  0.49821863723E+02  0.00000000000E+00 0.  1.
         11    1    4    4    0    0  0.23992813760E+02  0.58322830550E+02  0.23511990954E+03  0.24343085165E+03  0.00000000000E+00 0. -1.
         21    1    1    2  502  501  0.26908157843E+02 -0.20845210562E+02  0.75591007056E+02  0.82900977737E+02  0.00000000000E+00 0. -1.
<scales pt_clust_5="13000.00000" pt_clust_6="13000.00000" pt_clust_7="13000.00000" pt_clust_8="13000.00000" pt_clust_9="34.03780"></scales>
<clustering>
<clus scale="   34.038">  1  9  2 -1</clus>
<clus scale="   79.436">  5  6 -1 -1</clus>
<clus scale="   91.250">  7  8 -1 -1</clus>
<clus scale="  106.201">  2  5  1 -1</clus>
<clus scale="   34.038">  1  5  2 -1</clus>
</clustering>
</event>
<event>
 9    1  0.2183150E-005  0.9600616E+02  0.7546771E-02  0.1294656E+00
          1   -1    0    0  502    0  0.00000000000E+00  0.00000000000E+00  0.13134595820E+03  0.13134595820E+03  0.00000000000E+00 0. -1.
         -2   -1    0    0    0  501 -0.00000000000E+00 -0.00000000000E+00 -0.21051965511E+03  0.21051965511E+03  0.00000000000E+00 0.  1.
         23    2    1    2    0    0  0.80827374614E+01 -0.16373086419E+02 -0.16661684240E+03  0.19230129465E+03  0.94261376777E+02 0.  0.
        -24    2    1    2    0    0 -0.28696419283E+02  0.38859103381E+01  0.88259586623E+02  0.12544959243E+03  0.84316432749E+02 0.  0.
         11    1    4    4    0    0 -0.47879031894E+02  0.28519655122E+01  0.93889322395E+02  0.10543121104E+03  0.00000000000E+00 0. -1.
        -12    1    4    4    0    0  0.19182612611E+02  0.10339448258E+01 -0.56297357726E+01  0.20018381387E+02  0.00000000000E+00 0.  1.
        -11    1    3    3    0    0  0.46121473682E+02 -0.20328435500E+02 -0.12968779500E+03  0.13913791646E+03  0.00000000000E+00 0.  1.
         11    1    3    3    0    0 -0.38038736220E+02  0.39553490806E+01 -0.36929047395E+02  0.53163378195E+02  0.00000000000E+00 0. -1.
         21    1    1    2  502  501  0.20613681821E+02  0.12487176081E+02 -0.81644114520E+00  0.24114726224E+02  0.00000000000E+00 0. -1.
<scales pt_clust_5="13000.00000" pt_clust_6="13000.00000" pt_clust_7="13000.00000" pt_clust_8="13000.00000" pt_clust_9="24.10090"></scales>
<clustering>
<clus scale="   24.101">  1  9  2 -1</clus>
<clus scale="   84.316">  5  6 -1 -1</clus>
<clus scale="   86.263">  1  5  2 -1</clus>
<clus scale="   94.261">  7  8 -1 -1</clus>
<clus scale="   24.101">  1  5  2 -1</clus>
</clustering>
</event>
<event>
 9    1  0.1973774E-005  0.1539620E+03  0.7546771E-02  0.1198134E+00
         -4   -1    0    0    0  501 -0.00000000000E+00  0.00000000000E+00  0.22099498633E+03  0.22099498633E+03  0.00000000000E+00 0.  1.
          3   -1    0    0  502    0  0.00000000000E+00 -0.00000000000E+00 -0.12353974850E+03  0.12353974850E+03  0.00000000000E+00 0. -1.
         23    2    1    2    0    0  0.12536399237E+03  0.35897528567E+02  0.85938005737E+02  0.18155784502E+03  0.92591290728E+02 0.  0.
        -24    2    1    2    0    0 -0.10403790675E+03 -0.46548172417E+02  0.13353504199E+02  0.13906852228E+03  0.78556472797E+02 0.  0.
         11    1    4    4    0    0 -0.34788728166E+02 -0.18333215930E+02 -0.32789701849E+02  0.51200849222E+02  0.00000000000E+00 0. -1.
        -12    1    4    4    0    0 -0.69249178586E+02 -0.28214956486E+02  0.46143206048E+02  0.87867673059E+02  0.00000000000E+00 0.  1.
        -11    1    3    3    0    0  0.43270457524E+02 -0.11506764030E+02 -0.10859619978E+02  0.46072437084E+02  0.00000000000E+00 0.  1.
         11    1    3    3    0    0  0.82093534848E+02  0.47404292597E+02  0.96797625715E+02  0.13548540794E+03  0.00000000000E+00 0. -1.
         21    1    1    2  502  501 -0.21326085620E+02  0.10650643850E+02 -0.18362721027E+01  0.23908367521E+02  0.00000000000E+00 0. -1.
<scales pt_clust_5="13000.00000" pt_clust_6="13000.00000" pt_clust_7="13000.00000" pt_clust_8="13000.00000" pt_clust_9="23.83775"></scales>
<clustering>
<clus scale="   23.838">  2  9  1 -1</clus>
<clus scale="   78.556">  5  6 -1 -1</clus>
<clus scale="   92.591">  7  8 -1 -1</clus>
<clus scale="  145.953">  2  5  1 -1</clus>
<clus scale="   23.838">  2  5  1 -1</clus>
</clustering>
</event>
<event>
 9    1  0.1973774E-005  0.1784797E+03  0.7546771E-02  0.1192619E+00
          1   -1    0    0  502    0  0.00000000000E+00  0.00000000000E+00  0.12590017236E+04  0.12590017236E+04  0.00000000000E+00 0. -1.
         -2   -1    0    0    0  501 -0.00000000000E+00 -0.00000000000E+00 -0.39160967549E+03  0.39160967549E+03  0.00000000000E+00 0.  1.
         23    2    1    2    0    0 -0.27839820057E+02  0.41004746770E+02 -0.35528823950E+03  0.37068141811E+03  0.93373099797E+02 0.  0.
        -24    2    1    2    0    0  0.15464398361E+03  0.57432829725E+02  0.37468676211E+03  0.41687594348E+03  0.78626273941E+02 0.  0.
         13    1    4    4    0    0  0.33061286834E+02 -0.65268999132E+01  0.27496579739E+02  0.43493804236E+02  0.00000000000E+00 0. -1.
        -14    1    4    4    0    0  0.12158269678E+03  0.63959729639E+02  0.34719018237E+03  0.37338213924E+03  0.00000000000E+00 0.  1.
        -13    1    3    3    0    0  0.72298488373E+01  0.63000534345E+02 -0.19071124754E+03  0.20097790421E+03  0.00000000000E+00 0.  1.
         13    1    3    3    0    0 -0.35069668894E+02 -0.21995787575E+02 -0.16457699196E+03  0.16970351390E+03  0.00000000000E+00 0. -1.
         21    1    1    2  502  501 -0.12680416355E+03 -0.98437576496E+02  0.84799352550E+03  0.86305403750E+03  0.00000000000E+00 0. -1.
<scales pt_clust_5="13000.00000" pt_clust_6="13000.00000" pt_clust_7="13000.00000" pt_clust_8="13000.00000" pt_clust_9="160.22771"></scales>
<clustering>
<clus scale="   78.626">  5  6 -1 -1</clus>
<clus scale="   93.373">  7  8 -1 -1</clus>
<clus scale="  105.712">  2  7  1 -1</clus>
<clus scale="  160.228">  1  9  2 -1</clus>
<clus scale="  160.228">  1  5  2 -1</clus>
</clustering>
</event>
<event>
 9    1  0.1973774E-005  0.9491638E+02  0.7546771E-02  0.1299982E+00
          1   -1    0    0  502    0  0.00000000000E+00  0.00000000000E+00  0.87367462913E+02  0.87367462913E+02  0.00000000000E+00 0. -1.
         -2   -1    0    0    0  501 -0.00000000000E+00 -0.00000000000E+00 -0.13584267085E+03  0.13584267085E+03  0.00000000000E+00 0.  1.
        -24    2    1    2    0    0  0.12628244096E+01  0.24153762255E+02 -0.67115163471E+02  0.10540396661E+03  0.77592216450E+02 0.  0.
         23    2    1    2    0    0  0.18422200423E+02 -0.17808135867E+02  0.14565835980E+02  0.96726185482E+02  0.92126457702E+02 0.  0.
         13    1    3    3    0    0 -0.33142376507E+02  0.30083040352E+02 -0.27205265419E+02  0.52378744772E+02  0.00000000000E+00 0. -1.
        -14    1    3    3    0    0  0.34405200916E+02 -0.59292780974E+01 -0.39909898053E+02  0.53025221842E+02  0.00000000000E+00 0.  1.
        -11    1    4    4    0    0  0.90974466389E+01 -0.54141969245E+02 -0.36573846506E+01  0.55022657439E+02  0.00000000000E+00 0. -1.
         11    1    4    4    0    0  0.93247537838E+01  0.36333833379E+02  0.18223220631E+02  0.41703528044E+02  0.00000000000E+00 0.  1.
         21    1    1    2  502  501 -0.19685024832E+02 -0.63456263884E+01  0.40741195545E+01  0.21079981666E+02  0.00000000000E+00 0. -1.
<scales pt_clust_5="13000.00000" pt_clust_6="13000.00000" pt_clust_7="13000.00000" pt_clust_8="13000.00000" pt_clust_9="20.68253"></scales>
<clustering>
<clus scale="   20.683">  1  9  2 -1</clus>
<clus scale="   77.592">  5  6 -1 -1</clus>
<clus scale="   80.885">  2  5  1 -1</clus>
<clus scale="   92.126">  7  8 -1 -1</clus>
<clus scale="   20.683">  1  5  2 -1</clus>
</clustering>
</event>
<event>
 9    1  0.1973774E-005  0.1475697E+03  0.7546771E-02  0.1206172E+00
          1   -1    0    0  502    0  0.00000000000E+00  0.00000000000E+00  0.45048936781E+03  0.45048936781E+03  0.00000000000E+00 0. -1.
         -2   -1    0    0    0  501 -0.00000000000E+00 -0.00000000000E+00 -0.65844063188E+02  0.65844063188E+02  0.00000000000E+00 0.  1.
         23    2    1    2    0    0  0.98068674344E+02  0.39384600918E+02  0.94055543049E+02  0.17008160177E+03  0.94407067554E+02 0.  0.
        -24    2    1    2    0    0 -0.11973081985E+03 -0.38731040713E+02  0.18227505766E+03  0.23579029397E+03  0.80853592057E+02 0.  0.
         11    1    4    4    0    0 -0.51431845605E+02  0.16404621987E+02  0.10825981331E+03  0.12097327615E+03  0.00000000000E+00 0. -1.
        -12    1    4    4    0    0 -0.68298974244E+02 -0.55135662700E+02  0.74015244346E+02  0.11481701781E+03  0.00000000000E+00 0.  1.
        -13    1    3    3    0    0  0.24378051176E+01 -0.24579991627E+02  0.66077397321E+01  0.25569143641E+02  0.00000000000E+00 0. -1.
         13    1    3    3    0    0  0.95630869226E+02  0.63964592545E+02  0.87447803317E+02  0.14451245813E+03  0.00000000000E+00 0.  1.
         21    1    1    2  502  501  0.21662145506E+02 -0.65356020447E+00  0.10831470391E+03  0.11046153526E+03  0.00000000000E+00 0.  1.
<scales pt_clust_5="13000.00000" pt_clust_6="13000.00000" pt_clust_7="13000.00000" pt_clust_8="13000.00000" pt_clust_9="21.67200"></scales>
<clustering>
<clus scale="   21.672">  1  9  2 -1</clus>
<clus scale="   80.854">  5  6 -1 -1</clus>
<clus scale="   94.407">  7  8 -1 -1</clus>
<clus scale="  139.289">  1  5  2 -1</clus>
<clus scale="   21.672">  1  5  2 -1</clus>
</clustering>
</event>
<event>
 9    1  0.1973774E-005  0.1029895E+03  0.7546771E-02  0.1277154E+00
          3   -1    0    0  502    0  0.00000000000E+00  0.00000000000E+00  0.46953751183E+03  0.46953751183E+03  0.00000000000E+00 0. -1.
         -4   -1    0    0    0  501 -0.00000000000E+00 -0.00000000000E+00 -0.95574766611E+02  0.95574766611E+02  0.00000000000E+00 0.  1.
        -24    2    1    2    0    0 -0.55074093808E+02  0.37698266871E+01 -0.45513175423E+02  0.10836219257E+03  0.81385184402E+02 0.  0.
         23    2    1    2    0    0  0.24139253714E+02 -0.57024314206E+02  0.33699072922E+03  0.35380926998E+03  0.88225687636E+02 0.  0.
         13    1    3    3    0    0  0.13247799303E+02  0.22604733659E+02 -0.48222563938E+01  0.26640801919E+02  0.00000000000E+00 0. -1.
        -14    1    3    3    0    0 -0.68321893112E+02 -0.18834906972E+02 -0.40690919029E+02  0.81721390654E+02  0.00000000000E+00 0.  1.
        -11    1    4    4    0    0  0.35056490865E+02 -0.75313078439E+02  0.29820788810E+03  0.30956253304E+03  0.00000000000E+00 0.  1.
         11    1    4    4    0    0 -0.10917237151E+02  0.18288764233E+02  0.38782841120E+02  0.44246736936E+02  0.00000000000E+00 0. -1.
         21    1    1    2  502  501  0.30934840094E+02  0.53254487519E+02  0.82485191417E+02  0.10294081589E+03  0.00000000000E+00 0. -1.
<scales pt_clust_5="13000.00000" pt_clust_6="13000.00000" pt_clust_7="13000.00000" pt_clust_8="13000.00000" pt_clust_9="61.58738"></scales>
<clustering>
<clus scale="   61.587">  1  9  2 -1</clus>
<clus scale="   81.385">  5  6 -1 -1</clus>
<clus scale="   88.226">  7  8 -1 -1</clus>
<clus scale="   97.194">  2  5  1 -1</clus>
<clus scale="   61.587">  1  5  2 -1</clus>
</clustering>
</event>
<event>
 9    1  0.1973774E-005  0.8139611E+02  0.7546771E-02  0.1326045E+00
         -2   -1    0    0    0  501 -0.00000000000E+00  0.00000000000E+00  0.46179119524E+02  0.46179119524E+02  0.00000000000E+00 0.  1.
          1   -1    0    0  502    0  0.00000000000E+00 -0.00000000000E+00 -0.42061250887E+03  0.42061250887E+03  0.00000000000E+00 0. -1.
         23    2    1    2    0    0  0.16674632115E+02  0.92188820294E+01 -0.16974203568E+02  0.83495212156E+02  0.79500287573E+02 0.  0.
        -24    2    1    2    0    0  0.21653736347E+02 -0.38379181542E+02 -0.21752193792E+03  0.23530378049E+03  0.78167958679E+02 0.  0.
         13    1    4    4    0    0  0.13138009204E+02  0.23622622530E+02 -0.60159249463E+02  0.65952792791E+02  0.00000000000E+00 0. -1.
        -14    1    4    4    0    0  0.85157271429E+01 -0.62001804072E+02 -0.15736268846E+03  0.16935098770E+03  0.00000000000E+00 0.  1.
        -13    1    3    3    0    0  0.36533600638E+02  0.26601479320E+02 -0.29819044835E+02  0.54143495570E+02  0.00000000000E+00 0.  1.
         13    1    3    3    0    0 -0.19858968523E+02 -0.17382597291E+02  0.12844841267E+02  0.29351716586E+02  0.00000000000E+00 0. -1.
         21    1    1    2  502  501 -0.38328368462E+02  0.29160299513E+02 -0.13993724785E+03  0.14799263574E+03  0.00000000000E+00 0.  1.
<scales pt_clust_5="13000.00000" pt_clust_6="13000.00000" pt_clust_7="13000.00000" pt_clust_8="13000.00000" pt_clust_9="48.16001"></scales>
<clustering>
<clus scale="   48.160">  2  9  1 -1</clus>
<clus scale="   78.168">  5  6 -1 -1</clus>
<clus scale="   79.500">  7  8 -1 -1</clus>
<clus scale="   80.095">  2  5  1 -1</clus>
<clus scale="   48.160">  2  5  1 -1</clus>
</clustering>
</event>
<event>
 9    1  0.1973774E-005  0.3027735E+03  0.7546771E-02  0.1083862E+00
          1   -1    0    0  502    0  0.00000000000E+00  0.00000000000E+00  0.57919037810E+03  0.57919037810E+03  0.00000000000E+00 0. -1.
         -2   -1    0    0    0  501 -0.00000000000E+00 -0.00000000000E+00 -0.16835616986E+03  0.16835616986E+03  0.00000000000E+00 0.  1.
        -24    2    1    2    0    0 -0.10359990553E+03 -0.11576302514E+03  0.32021647509E+02  0.17898332619E+03  0.82919399006E+02 0.  0.
         23    2    1    2    0    0 -0.83997964318E+02  0.39019016355E+01 -0.74983840542E+01  0.12478172397E+03  0.91887812178E+02 0.  0.
         11    1    3    3    0    0 -0.60069714161E+02 -0.26017527978E+02 -0.17300735328E+02  0.67709657837E+02  0.00000000000E+00 0. -1.
        -12    1    3    3    0    0 -0.43530191369E+02 -0.89745497160E+02  0.49322382837E+02  0.11127366836E+03  0.00000000000E+00 0.  1.
        -13    1    4    4    0    0 -0.52107270533E+02 -0.20016267846E+02 -0.43732957546E+02  0.70911142965E+02  0.00000000000E+00 0. -1.
         13    1    4    4    0    0 -0.31890693785E+02  0.23918169481E+02  0.36234573491E+02  0.53870581002E+02  0.00000000000E+00 0.  1.
         21    1    1    2  502  501  0.18759786985E+03  0.11186112350E+03  0.38631094479E+03  0.44378149780E+03  0.00000000000E+00 0. -1.
<scales pt_clust_5="13000.00000" pt_clust_6="13000.00000" pt_clust_7="13000.00000" pt_clust_8="13000.00000" pt_clust_9="218.41674"></scales>
<clustering>
<clus scale="   82.919">  5  6 -1 -1</clus>
<clus scale="   91.888">  7  8 -1 -1</clus>
<clus scale="  122.858">  5  7 -1 -1</clus>
<clus scale="  218.417">  1  9  2 -1</clus>
<clus scale="  218.417">  1  5  2 -1</clus>
</clustering>
</event>
<event>
 9    1  0.1973774E-005  0.1114421E+03  0.7546771E-02  0.1258483E+00
          1   -1    0    0  502    0  0.00000000000E+00  0.00000000000E+00  0.18206997951E+03  0.18206997951E+03  0.00000000000E+00 0. -1.
         -2   -1    0    0    0  501 -0.00000000000E+00 -0.00000000000E+00 -0.22833001588E+03  0.22833001588E+03  0.00000000000E+00 0.  1.
        -24    2    1    2    0    0 -0.52599049871E+02  0.45053997061E+02 -0.17517340638E+03  0.20840540838E+03  0.89165964598E+02 0.  0.
         23    2    1    2    0    0  0.32938057556E+02 -0.30775589665E+02  0.38437605507E+02  0.10831272378E+03  0.90676039062E+02 0.  0.
         11    1    3    3    0    0 -0.18041808548E+02  0.12105991033E+02  0.47620515750E+01  0.22242729369E+02  0.00000000000E+00 0. -1.
        -12    1    3    3    0    0 -0.34557241324E+02  0.32948006028E+02 -0.17993545795E+03  0.18616267901E+03  0.00000000000E+00 0.  1.
        -11    1    4    4    0    0 -0.10186537740E+02 -0.44075753157E+02 -0.52011801575E+01  0.45535588746E+02  0.00000000000E+00 0. -1.
         11    1    4    4    0    0  0.43124595295E+02  0.13300163492E+02  0.43638785664E+02  0.62777135030E+02  0.00000000000E+00 0.  1.
         21    1    1    2  502  501  0.19660992316E+02 -0.14278407397E+02  0.90475764501E+02  0.93681863232E+02  0.00000000000E+00 0. -1.
<scales pt_clust_5="13000.00000" pt_clust_6="13000.00000" pt_clust_7="13000.00000" pt_clust_8="13000.00000" pt_clust_9="24.29871"></scales>
<clustering>
<clus scale="   24.299">  1  9  2 -1</clus>
<clus scale="   89.166">  5  6 -1 -1</clus>
<clus scale="   90.676">  7  8 -1 -1</clus>
<clus scale="  110.217">  2  5  1 -1</clus>
<clus scale="   24.299">  1  5  2 -1</clus>
</clustering>
</event>
<event>
 9    1  0.1973774E-005  0.1164223E+03  0.7546771E-02  0.1250597E+00
          1   -1    0    0  502    0  0.00000000000E+00  0.00000000000E+00  0.26093845696E+03  0.26093845696E+03  0.00000000000E+00 0. -1.
         -2   -1    0    0    0  501 -0.00000000000E+00 -0.00000000000E+00 -0.24169520400E+03  0.24169520400E+03  0.00000000000E+00 0.  1.
        -24    2    1    2    0    0 -0.81733021206E+02  0.47085662721E+00 -0.21049263608E+03  0.24118816163E+03  0.84758899262E+02 0.  0.
         23    2    1    2    0    0  0.56709875749E+02  0.65236854081E+01  0.17156773902E+03  0.19773823834E+03  0.80039698578E+02 0.  0.
         13    1    3    3    0    0 -0.39352389719E+02 -0.29110796931E+02 -0.40561159623E+02  0.63570879690E+02  0.00000000000E+00 0. -1.
        -14    1    3    3    0    0 -0.42380631487E+02  0.29581653558E+02 -0.16993147646E+03  0.17761728194E+03  0.00000000000E+00 0.  1.
        -13    1    4    4    0    0  0.22631130852E+02 -0.33221612468E+02  0.10887954968E+03  0.11606291378E+03  0.00000000000E+00 0. -1.
         13    1    4    4    0    0  0.34078744897E+02  0.39745297877E+02  0.62688189347E+02  0.81675324552E+02  0.00000000000E+00 0.  1.
         21    1    1    2  502  501  0.25023145457E+02 -0.69945420353E+01  0.58168150017E+02  0.63707260993E+02  0.00000000000E+00 0. -1.
<scales pt_clust_5="13000.00000" pt_clust_6="13000.00000" pt_clust_7="13000.00000" pt_clust_8="13000.00000" pt_clust_9="25.98233"></scales>
<clustering>
<clus scale="   25.982">  1  9  2 -1</clus>
<clus scale="   80.040">  7  8 -1 -1</clus>
<clus scale="   84.759">  5  6 -1 -1</clus>
<clus scale="  113.033">  1  7  2 -1</clus>
<clus scale="   25.982">  1  5  2 -1</clus>
</clustering>
</event>
<event>
 9    1  0.1973774E-005  0.1108567E+03  0.7546771E-02  0.1260650E+00
         -2   -1    0    0    0  501 -0.00000000000E+00  0.00000000000E+00  0.49420807539E+03  0.49420807539E+03  0.00000000000E+00 0.  1.
          1   -1    0    0  502    0  0.00000000000E+00 -0.00000000000E+00 -0.53773554007E+02  0.53773554007E+02  0.00000000000E+00 0. -1.
        -24    2    1    2    0    0  0.48466722131E+02  0.52072553068E+02  0.36596529997E+03  0.38265346052E+03  0.86211925712E+02 0.  0.
         23    2    1    2    0    0 -0.43622218172E+01 -0.40577039088E+02  0.36008059473E+02  0.10569080837E+03  0.90600450037E+02 0.  0.
         13    1    3    3    0    0 -0.17936638455E+02  0.10899234799E+02  0.24031447884E+02  0.31906532336E+02  0.00000000000E+00 0. -1.
        -14    1    3    3    0    0  0.66403360586E+02  0.41173318269E+02  0.34193385208E+03  0.35074692819E+03  0.00000000000E+00 0.  1.
        -11    1    4    4    0    0 -0.20689769495E+02 -0.68705714502E+01  0.58205422572E+02  0.62154183533E+02  0.00000000000E+00 0.  1.
         11    1    4    4    0    0  0.16327547678E+02 -0.33706467638E+02 -0.22197363099E+02  0.43536624839E+02  0.00000000000E+00 0. -1.
         21    1    1    2  502  501 -0.44104500314E+02 -0.11495513980E+02  0.38461161948E+02  0.59637360505E+02  0.00000000000E+00 0. -1.
<scales pt_clust_5="13000.00000" pt_clust_6="13000.00000" pt_clust_7="13000.00000" pt_clust_8="13000.00000" pt_clust_9="45.57800"></scales>
<clustering>
<clus scale="   45.578">  2  9  1 -1</clus>
<clus scale="   86.212">  5  6 -1 -1</clus>
<clus scale="   90.600">  7  8 -1 -1</clus>
<clus scale="  107.300">  1  5  2 -1</clus>
<clus scale="   45.578">  2  5  1 -1</clus>
</clustering>
</event>
<event>
 9    1  0.1973774E-005  0.9112303E+02  0.7546771E-02  0.1304646E+00
         -2   -1    0    0    0  501 -0.00000000000E+00  0.00000000000E+00  0.18109848186E+03  0.18109848186E+03  0.00000000000E+00 0.  1.
          1   -1    0    0  502    0  0.00000000000E+00 -0.00000000000E+00 -0.23514428334E+03  0.23514428334E+03  0.00000000000E+00 0. -1.
        -24    2    1    2    0    0 -0.30301342969E+01 -0.36173849751E+01  0.14260241784E+03  0.16355915870E+03  0.79961751061E+02 0.  0.
         23    2    1    2    0    0 -0.22479283635E+01  0.26726224529E+02 -0.20736966803E+03  0.22666772917E+03  0.87502776940E+02 0.  0.
         11    1    3    3    0    0 -0.38636196125E+02  0.12614909590E+02  0.80009077706E+02  0.89740426288E+02  0.00000000000E+00 0. -1.
        -12    1    3    3    0    0  0.35606061828E+02 -0.16232294565E+02  0.62593340132E+02  0.73818732410E+02  0.00000000000E+00 0.  1.
        -13    1    4    4    0    0 -0.11834756738E+02 -0.30888487524E+02 -0.78053909160E+02  0.84773656661E+02  0.00000000000E+00 0.  1.
         13    1    4    4    0    0  0.95868283748E+01  0.57614712053E+02 -0.12931575887E+03  0.14189407251E+03  0.00000000000E+00 0. -1.
         21    1    1    2  502  501  0.52780626605E+01 -0.23108839554E+02  0.10721448710E+02  0.26015877333E+02  0.00000000000E+00 0.  1.
<scales pt_clust_5="13000.00000" pt_clust_6="13000.00000" pt_clust_7="13000.00000" pt_clust_8="13000.00000" pt_clust_9="23.70393"></scales>
<clustering>
<clus scale="   23.704">  1  9  2 -1</clus>
<clus scale="   79.962">  5  6 -1 -1</clus>
<clus scale="   83.908">  1  5  2 -1</clus>
<clus scale="   87.503">  7  8 -1 -1</clus>
<clus scale="   91.123">  2  5  1 -1</clus>
</clustering>
</event>
<event>
 9    1  0.1973774E-005  0.2497739E+03  0.7546771E-02  0.1134999E+00
          1   -1    0    0  502    0  0.00000000000E+00  0.00000000000E+00  0.60807755677E+03  0.60807755677E+03  0.00000000000E+00 0. -1.
         -2   -1    0    0    0  501 -0.00000000000E+00 -0.00000000000E+00 -0.74775844139E+03  0.74775844139E+03  0.00000000000E+00 0.  1.
        -24    2    1    2    0    0  0.86390308678E+00 -0.12140896601E+03 -0.63097761913E+03  0.64771579253E+03  0.81621741498E+02 0.  0.
         23    2    1    2    0    0  0.23065932932E+03  0.48274271721E+02  0.33059759618E+03  0.41695718649E+03  0.94996806542E+02 0.  0.
         13    1    3    3    0    0  0.34366570801E+02 -0.21462334429E+02 -0.19645592229E+03  0.20059068371E+03  0.00000000000E+00 0. -1.
        -14    1    3    3    0    0 -0.33502667714E+02 -0.99946631578E+02 -0.43452169685E+03  0.44712510882E+03  0.00000000000E+00 0.  1.
        -11    1    4    4    0    0  0.11188894328E+03 -0.14744015921E+02  0.10397701512E+03  0.15345273314E+03  0.00000000000E+00 0.  1.
         11    1    4    4    0    0  0.11877038604E+03  0.63018287642E+02  0.22662058106E+03  0.26350445336E+03  0.00000000000E+00 0. -1.
         21    1    1    2  502  501 -0.23152323241E+03  0.73134694286E+02  0.16069913834E+03  0.29116301914E+03  0.00000000000E+00 0. -1.
<scales pt_clust_5="13000.00000" pt_clust_6="13000.00000" pt_clust_7="13000.00000" pt_clust_8="13000.00000" pt_clust_9="231.00343"></scales>
<clustering>
<clus scale="   81.622">  5  6 -1 -1</clus>
<clus scale="   94.997">  7  8 -1 -1</clus>
<clus scale="  146.298">  2  5  1 -1</clus>
<clus scale="  231.003">  2  9  1 -1</clus>
<clus scale="  249.774">  1  5  2 -1</clus>
</clustering>
</event>
<event>
 9    1  0.1973774E-005  0.1044050E+03  0.7546771E-02  0.1277238E+00
          3   -1    0    0  502    0  0.00000000000E+00  0.00000000000E+00  0.41458755769E+03  0.41458755769E+03  0.00000000000E+00 0. -1.
         -4   -1    0    0    0  501 -0.00000000000E+00 -0.00000000000E+00 -0.46796652820E+02  0.46796652820E+02  0.00000000000E+00 0.  1.
         23    2    1    2    0    0 -0.20543137458E+02  0.21100872616E+02  0.31943832710E+02  0.99697534808E+02  0.89732506244E+02 0.  0.
        -24    2    1    2    0    0  0.35873512897E+02 -0.46498143770E+02  0.30040804584E+03  0.31547015939E+03  0.76337678516E+02 0.  0.
         13    1    4    4    0    0  0.97750616965E+01 -0.63301687564E+02  0.17750261934E+03  0.18870568447E+03  0.00000000000E+00 0. -1.
        -14    1    4    4    0    0  0.26098451200E+02  0.16803543794E+02  0.12290542650E+03  0.12676447492E+03  0.00000000000E+00 0.  1.
        -11    1    3    3    0    0  0.77842507409E+01  0.48451042741E+02  0.34890074414E+02  0.60211422462E+02  0.00000000000E+00 0.  1.
         11    1    3    3    0    0 -0.28327388199E+02 -0.27350170124E+02 -0.29462417043E+01  0.39486112346E+02  0.00000000000E+00 0. -1.
         21    1    1    2  502  501 -0.15330375439E+02  0.25397271154E+02  0.35439026321E+02  0.46216516309E+02  0.00000000000E+00 0.  1.
<scales pt_clust_5="13000.00000" pt_clust_6="13000.00000" pt_clust_7="13000.00000" pt_clust_8="13000.00000" pt_clust_9="29.66550"></scales>
<clustering>
<clus scale="   29.665">  2  9  1 -1</clus>
<clus scale="   76.338">  5  6 -1 -1</clus>
<clus scale="   89.733">  7  8 -1 -1</clus>
<clus scale="   93.145">  1  5  2 -1</clus>
<clus scale="   93.145">  1  5  2 -1</clus>
</clustering>
</event>
<event>
 9    1  0.1973774E-005  0.1094397E+03  0.7546771E-02  0.1268971E+00
         -2   -1    0    0    0  501 -0.00000000000E+00  0.00000000000E+00  0.10754424065E+03  0.10754424065E+03  0.00000000000E+00 0.  1.
          1   -1    0    0  502    0  0.00000000000E+00 -0.00000000000E+00 -0.47232484517E+03  0.47232484517E+03  0.00000000000E+00 0. -1.
        -24    2    1    2    0    0  0.49142630741E+02  0.22184769667E+02  0.64187996874E+02  0.11564075146E+03  0.79658786669E+02 0.  0.
         23    2    1    2    0    0 -0.77761256254E+01 -0.53608611442E+02 -0.19219630868E+03  0.22182420037E+03  0.96603330432E+02 0.  0.
         13    1    3    3    0    0 -0.14895763775E+01 -0.26002258825E+02  0.13801274212E+02  0.29475608080E+02  0.00000000000E+00 0. -1.
        -14    1    3    3    0    0  0.50632207118E+02  0.48187028493E+02  0.50386722662E+02  0.86165143378E+02  0.00000000000E+00 0.  1.
        -13    1    4    4    0    0 -0.34914390408E+02 -0.64404209180E+02 -0.17008620506E+03  0.18519242416E+03  0.00000000000E+00 0. -1.
         13    1    4    4    0    0  0.27138264783E+02  0.10795597738E+02 -0.22110103623E+02  0.36631776208E+02  0.00000000000E+00 0.  1.
         21    1    1    2  502  501 -0.41366505116E+02  0.31423841775E+02 -0.23677229272E+03  0.24240413399E+03  0.00000000000E+00 0.  1.
<scales pt_clust_5="13000.00000" pt_clust_6="13000.00000" pt_clust_7="13000.00000" pt_clust_8="13000.00000" pt_clust_9="51.94849"></scales>
<clustering>
<clus scale="   51.948">  2  9  1 -1</clus>
<clus scale="   79.659">  5  6 -1 -1</clus>
<clus scale="   94.818">  1  5  2 -1</clus>
<clus scale="   96.603">  7  8 -1 -1</clus>
<clus scale="   51.948">  2  5  1 -1</clus>
</clustering>
</event>
<event>
 9    1  0.1973774E-005  0.1070843E+03  0.7546771E-02  0.1271304E+00
         -2   -1    0    0    0  501 -0.00000000000E+00  0.00000000000E+00  0.28016025173E+02  0.28016025173E+02  0.00000000000E+00 0.  1.
          1   -1    0    0  502    0  0.00000000000E+00 -0.00000000000E+00 -0.60519848596E+03  0.60519848596E+03  0.00000000000E+00 0. -1.
         23    2    1    2    0    0 -0.48574252812E+02 -0.10089637525E+02 -0.12264577877E+03  0.16181895837E+03  0.93177944901E+02 0.  0.
        -24    2    1    2    0    0  0.55155025276E+02  0.31128294136E+02 -0.37618675839E+03  0.39000364795E+03  0.81088351264E+02 0.  0.
         13    1    4    4    0    0  0.33141092056E+02  0.54900528737E+02 -0.30672827196E+03  0.31336022859E+03  0.00000000000E+00 0. -1.
        -14    1    4    4    0    0  0.22013933220E+02 -0.23772234601E+02 -0.69458486432E+02  0.76643419360E+02  0.00000000000E+00 0.  1.
        -11    1    3    3    0    0 -0.32984700339E+02  0.30179987303E+02 -0.10687132702E+03  0.11584602983E+03  0.00000000000E+00 0.  1.
         11    1    3    3    0    0 -0.15589552474E+02 -0.40269624828E+02 -0.15774451757E+02  0.45972928537E+02  0.00000000000E+00 0. -1.
         21    1    1    2  502  501 -0.65807724637E+01 -0.21038656611E+02 -0.78349923617E+02  0.81391904813E+02  0.00000000000E+00 0. -1.
<scales pt_clust_5="13000.00000" pt_clust_6="13000.00000" pt_clust_7="13000.00000" pt_clust_8="13000.00000" pt_clust_9="22.04386"></scales>
<clustering>
<clus scale="   22.044">  2  9  1 -1</clus>
<clus scale="   81.088">  5  6 -1 -1</clus>
<clus scale="   93.178">  7  8 -1 -1</clus>
<clus scale="   96.748">  2  5  1 -1</clus>
<clus scale="   22.044">  2  5  1 -1</clus>
</clustering>
</event>
<event>
 9    1  0.1973774E-005  0.9161142E+02  0.7546771E-02  0.1305950E+00
         -2   -1    0    0    0  501 -0.00000000000E+00  0.00000000000E+00  0.59197843798E+02  0.59197843798E+02  0.00000000000E+00 0.  1.
          1   -1    0    0  502    0  0.00000000000E+00 -0.00000000000E+00 -0.38131834380E+03  0.38131834380E+03  0.00000000000E+00 0. -1.
        -24    2    1    2    0    0 -0.79282502925E+01 -0.37401172338E+01  0.55300558232E+01  0.80265965952E+02  0.79593957957E+02 0.  0.
         23    2    1    2    0    0  0.37268425140E+02 -0.24160551169E+02 -0.17236767572E+03  0.19977571897E+03  0.90703111906E+02 0.  0.
         13    1    3    3    0    0  0.30992594258E+02 -0.53930069710E+01 -0.16488968842E+02  0.35517763394E+02  0.00000000000E+00 0. -1.
        -14    1    3    3    0    0 -0.38920844550E+02  0.16528897372E+01  0.22019024665E+02  0.44748202558E+02  0.00000000000E+00 0.  1.
        -13    1    4    4    0    0  0.34703246291E+02  0.14482658069E+02 -0.15086006393E+03  0.15547611256E+03  0.00000000000E+00 0.  1.
         13    1    4    4    0    0  0.25651788484E+01 -0.38643209238E+02 -0.21507611794E+02  0.44299606407E+02  0.00000000000E+00 0. -1.
         21    1    1    2  502  501 -0.29340174847E+02  0.27900668403E+02 -0.15528288010E+03  0.16047450268E+03  0.00000000000E+00 0.  1.
<scales pt_clust_5="13000.00000" pt_clust_6="13000.00000" pt_clust_7="13000.00000" pt_clust_8="13000.00000" pt_clust_9="40.48819"></scales>
<clustering>
<clus scale="   40.488">  2  9  1 -1</clus>
<clus scale="   79.594">  5  6 -1 -1</clus>
<clus scale="   80.628">  1  5  2 -1</clus>
<clus scale="   90.703">  7  8 -1 -1</clus>
<clus scale="   40.488">  2  5  1 -1</clus>
</clustering>
</event>
<event>
 9    1  0.1973774E-005  0.3418875E+03  0.7546771E-02  0.1090959E+00
          1   -1    0    0  502    0  0.00000000000E+00  0.00000000000E+00  0.12854709164E+04  0.12854709164E+04  0.00000000000E+00 0. -1.
         -2   -1    0    0    0  501 -0.00000000000E+00 -0.00000000000E+00 -0.16768935604E+03  0.16768935604E+03  0.00000000000E+00 0.  1.
         23    2    1    2    0    0 -0.26215226293E+02  0.27053511105E+03  0.57016738558E+03  0.63811966987E+03  0.90715936332E+02 0.  0.
        -24    2    1    2    0    0  0.13271386968E+03  0.78497551635E+02  0.37053843970E+03  0.40942800834E+03  0.80979762286E+02 0.  0.
         11    1    4    4    0    0  0.10639289653E+03  0.62536118602E+02  0.19190458164E+03  0.22816130920E+03  0.00000000000E+00 0. -1.
        -12    1    4    4    0    0  0.26320973153E+02  0.15961433033E+02  0.17863385805E+03  0.18126669914E+03  0.00000000000E+00 0.  1.
        -11    1    3    3    0    0 -0.24189095271E+02  0.14761047770E+02  0.35530634792E+02  0.45446967666E+02  0.00000000000E+00 0.  1.
         11    1    3    3    0    0 -0.20261310227E+01  0.25577406328E+03  0.53463675079E+03  0.59267270221E+03  0.00000000000E+00 0. -1.
         21    1    1    2  502  501 -0.10649864339E+03 -0.34903266268E+03  0.17707573513E+03  0.40561259427E+03  0.00000000000E+00 0.  1.
<scales pt_clust_5="13000.00000" pt_clust_6="13000.00000" pt_clust_7="13000.00000" pt_clust_8="13000.00000" pt_clust_9="329.63266"></scales>
<clustering>
<clus scale="   80.980">  5  6 -1 -1</clus>
<clus scale="   90.716">  7  8 -1 -1</clus>
<clus scale="  174.162">  1  5  2 -1</clus>
<clus scale="  329.633">  2  9  1 -1</clus>
<clus scale="  174.162">  1  5  2 -1</clus>
</clustering>
</event>
<event>
 9    1  0.1973774E-005  0.1592072E+03  0.7546771E-02  0.1191606E+00
         -2   -1    0    0    0  501 -0.00000000000E+00  0.00000000000E+00  0.58332251990E+03  0.58332251990E+03  0.00000000000E+00 0.  1.
          1   -1    0    0  502    0  0.00000000000E+00 -0.00000000000E+00 -0.15443917776E+03  0.15443917776E+03  0.00000000000E+00 0. -1.
         23    2    1    2    0    0 -0.76498437315E+01 -0.13708627219E+03  0.49983332735E+03  0.52657427165E+03  0.92714304749E+02 0.  0.
        -24    2    1    2    0    0  0.36847850223E+02  0.65310865574E+02 -0.75940266395E+02  0.13353991810E+03  0.80266508819E+02 0.  0.
         13    1    4    4    0    0  0.39529069274E+02  0.58089552292E+02 -0.91979910507E+02  0.11574647874E+03  0.00000000000E+00 0. -1.
        -14    1    4    4    0    0 -0.26812190507E+01  0.72213132817E+01  0.16039644113E+02  0.17793439363E+02  0.00000000000E+00 0.  1.
        -11    1    3    3    0    0 -0.33878136001E+02 -0.81000999272E+02  0.39655691922E+03  0.40616041186E+03  0.00000000000E+00 0.  1.
         11    1    3    3    0    0  0.26228292270E+02 -0.56085272921E+02  0.10327640813E+03  0.12041385979E+03  0.00000000000E+00 0. -1.
         21    1    1    2  502  501 -0.29198006492E+02  0.71775406619E+02  0.49902811786E+01  0.77647507910E+02  0.00000000000E+00 0. -1.
<scales pt_clust_5="13000.00000" pt_clust_6="13000.00000" pt_clust_7="13000.00000" pt_clust_8="13000.00000" pt_clust_9="77.48698"></scales>
<clustering>
<clus scale="   77.487">  2  9  1 -1</clus>
<clus scale="   80.267">  5  6 -1 -1</clus>
<clus scale="   92.714">  7  8 -1 -1</clus>
<clus scale="  152.295">  2  5  1 -1</clus>
<clus scale="   77.487">  2  5  1 -1</clus>
</clustering>
</event>
<event>
 9    1  0.1973774E-005  0.1102162E+03  0.7546771E-02  0.1264621E+00
         -2   -1    0    0    0  501 -0.00000000000E+00  0.00000000000E+00  0.16008023363E+04  0.16008023363E+04  0.00000000000E+00 0.  1.
          1   -1    0    0  502    0  0.00000000000E+00 -0.00000000000E+00 -0.39303993483E+02  0.39303993483E+02  0.00000000000E+00 0. -1.
        -24    2    1    2    0    0 -0.49362239303E+02  0.11663989896E+03  0.11064000696E+04  0.11165277679E+04  0.80446540781E+02 0.  0.
         23    2    1    2    0    0 -0.22007716640E+02 -0.53609219093E+02  0.75412068181E+02  0.13213488578E+03  0.91729820940E+02 0.  0.
         13    1    3    3    0    0 -0.21554233325E+02  0.13389226463E+02  0.67034637387E+02  0.71676348743E+02  0.00000000000E+00 0. -1.
        -14    1    3    3    0    0 -0.27808005978E+02  0.10325067249E+03  0.10393654322E+04  0.10448514192E+04  0.00000000000E+00 0.  1.
        -13    1    4    4    0    0  0.35972661060E+02 -0.25020891151E+02  0.28758896599E+02  0.52413275716E+02  0.00000000000E+00 0. -1.
         13    1    4    4    0    0 -0.57980377700E+02 -0.28588327942E+02  0.46653171582E+02  0.79721610065E+02  0.00000000000E+00 0.  1.
         21    1    1    2  502  501  0.71369955943E+02 -0.63030679863E+02  0.37968620504E+03  0.39144367604E+03  0.00000000000E+00 0. -1.
<scales pt_clust_5="13000.00000" pt_clust_6="13000.00000" pt_clust_7="13000.00000" pt_clust_8="13000.00000" pt_clust_9="95.21837"></scales>
<clustering>
<clus scale="   80.447">  5  6 -1 -1</clus>
<clus scale="   91.730">  7  8 -1 -1</clus>
<clus scale="   95.218">  1  9  2 -1</clus>
<clus scale="  101.019">  1  5  2 -1</clus>
<clus scale="  110.216">  2  5  1 -1</clus>
</clustering>
</event>
<event>
 9    1  0.1973774E-005  0.1193141E+03  0.7546771E-02  0.1247607E+00
          3   -1    0    0  502    0  0.00000000000E+00  0.00000000000E+00  0.34065723587E+03  0.34065723587E+03  0.00000000000E+00 0. -1.
         -4   -1    0    0    0  501 -0.00000000000E+00 -0.00000000000E+00 -0.15729333356E+03  0.15729333356E+03  0.00000000000E+00 0.  1.
        -24    2    1    2    0    0  0.60487962191E+02 -0.33141437701E+02 -0.85110994955E+02  0.13575075297E+03  0.80170050569E+02 0.  0.
         23    2    1    2    0    0 -0.12608127701E+03  0.53735345710E+02  0.13759060745E+03  0.21435770704E+03  0.90741806889E+02 0.  0.
         11    1    3    3    0    0  0.56861354306E+02 -0.48084043293E+02 -0.92451453258E+02  0.11871208886E+03  0.00000000000E+00 0. -1.
        -12    1    3    3    0    0  0.36266078843E+01  0.14942605592E+02  0.73404583025E+01  0.17038664111E+02  0.00000000000E+00 0.  1.
        -13    1    4    4    0    0 -0.98530381147E+02  0.78166774060E+02  0.11884035473E+03  0.17303557579E+03  0.00000000000E+00 0.  1.
         13    1    4    4    0    0 -0.27550895864E+02 -0.24431428350E+02  0.18750252722E+02  0.41322131252E+02  0.00000000000E+00 0. -1.
         21    1    1    2  502  501  0.65593314821E+02 -0.20593908009E+02  0.13088428982E+03  0.14784210942E+03  0.00000000000E+00 0. -1.
<scales pt_clust_5="13000.00000" pt_clust_6="13000.00000" pt_clust_7="13000.00000" pt_clust_8="13000.00000" pt_clust_9="68.75021"></scales>
<clustering>
<clus scale="   68.750">  1  9  2 -1</clus>
<clus scale="   80.170">  5  6 -1 -1</clus>
<clus scale="   90.742">  7  8 -1 -1</clus>
<clus scale="  111.485">  2  5  1 -1</clus>
<clus scale="   68.750">  1  5  2 -1</clus>
</clustering>
</event>
<event>
 9    1  0.1973774E-005  0.1175101E+03  0.7546771E-02  0.1251739E+00
          1   -1    0    0  502    0  0.00000000000E+00  0.00000000000E+00  0.28059668653E+02  0.28059668653E+02  0.00000000000E+00 0. -1.
         -2   -1    0    0    0  501 -0.00000000000E+00 -0.00000000000E+00 -0.16320517973E+04  0.16320517973E+04  0.00000000000E+00 0.  1.
        -24    2    1    2    0    0 -0.34870951324E+02 -0.68977341744E+02 -0.14344220981E+04  0.14386072592E+04  0.77783247976E+02 0.  0.
         23    2    1    2    0    0  0.11323152804E+02  0.40602862560E+02 -0.94725200463E+02  0.13806945100E+03  0.91178415535E+02 0.  0.
         13    1    3    3    0    0 -0.19241221802E+02 -0.37065192103E+02 -0.23654474129E+03  0.24020297191E+03  0.00000000000E+00 0. -1.
        -14    1    3    3    0    0 -0.15629729522E+02 -0.31912149641E+02 -0.11978773568E+04  0.11984042872E+04  0.00000000000E+00 0.  1.
        -11    1    4    4    0    0 -0.10500469516E+02  0.17117949246E+02 -0.10301610960E+03  0.10495524229E+03  0.00000000000E+00 0.  1.
         11    1    4    4    0    0  0.21823622320E+02  0.23484913314E+02  0.82909091356E+01  0.33114208715E+02  0.00000000000E+00 0. -1.
         21    1    1    2  502  501  0.23547798521E+02  0.28374479183E+02 -0.74844830088E+02  0.83434755798E+02  0.00000000000E+00 0. -1.
<scales pt_clust_5="13000.00000" pt_clust_6="13000.00000" pt_clust_7="13000.00000" pt_clust_8="13000.00000" pt_clust_9="36.87289"></scales>
<clustering>
<clus scale="   36.873">  1  9  2 -1</clus>
<clus scale="   77.783">  5  6 -1 -1</clus>
<clus scale="   91.178">  7  8 -1 -1</clus>
<clus scale="  107.449">  2  5  1 -1</clus>
<clus scale="   36.873">  1  5  2 -1</clus>
</clustering>
</event>
<event>
 9    1  0.1973774E-005  0.1351564E+03  0.7546771E-02  0.1231442E+00
          1   -1    0    0  502    0  0.00000000000E+00  0.00000000000E+00  0.63485153742E+03  0.63485153742E+03  0.00000000000E+00 0. -1.
         -2   -1    0    0    0  501 -0.00000000000E+00 -0.00000000000E+00 -0.75976351304E+02  0.75976351304E+02  0.00000000000E+00 0.  1.
        -24    2    1    2    0    0 -0.39592864224E+02  0.36659079455E+02  0.17911828819E+02  0.95262479815E+02  0.76437055444E+02 0.  0.
         23    2    1    2    0    0  0.22190096947E+02 -0.77056877429E+02  0.55289775660E+03  0.56998835024E+03  0.11296294698E+03 0.  0.
         13    1    3    3    0    0 -0.19099011160E+02  0.46322691152E+02 -0.17626609148E+02  0.53115546622E+02  0.00000000000E+00 0. -1.
        -14    1    3    3    0    0 -0.20493853065E+02 -0.96636116970E+01  0.35538437967E+02  0.42146933193E+02  0.00000000000E+00 0.  1.
        -13    1    4    4    0    0  0.61931483719E+02 -0.28278928126E+02  0.19357454448E+03  0.20519822300E+03  0.00000000000E+00 0.  1.
         13    1    4    4    0    0 -0.39741386773E+02 -0.48777949303E+02  0.35932321212E+03  0.36479012724E+03  0.00000000000E+00 0. -1.
         21    1    1    2  502  501  0.17402767278E+02  0.40397797973E+02 -0.11934399308E+02  0.45577058668E+02  0.00000000000E+00 0.  1.
<scales pt_clust_5="13000.00000" pt_clust_6="13000.00000" pt_clust_7="13000.00000" pt_clust_8="13000.00000" pt_clust_9="43.98680"></scales>
<clustering>
<clus scale="   43.987">  2  9  1 -1</clus>
<clus scale="   76.437">  5  6 -1 -1</clus>
<clus scale="  106.533">  2  5  1 -1</clus>
<clus scale="  112.963">  7  8 -1 -1</clus>
<clus scale="  135.156">  1  5  2 -1</clus>
</clustering>
</event>
<event>
 9    1  0.1973774E-005  0.1043449E+03  0.7546771E-02  0.1278027E+00
         -2   -1    0    0    0  501 -0.00000000000E+00  0.00000000000E+00  0.23032316123E+03  0.23032316123E+03  0.00000000000E+00 0.  1.
          1   -1    0    0  502    0  0.00000000000E+00 -0.00000000000E+00 -0.15266627896E+03  0.15266627896E+03  0.00000000000E+00 0. -1.
         23    2    1    2    0    0  0.45899195828E+01  0.41511839260E+02  0.18315308172E+03  0.21013506789E+03  0.94166847955E+02 0.  0.
        -24    2    1    2    0    0 -0.96535483677E+01 -0.70615481825E+02 -0.85607679894E+02  0.13724235808E+03  0.80168901236E+02 0.  0.
         11    1    4    4    0    0 -0.13764109844E+02 -0.74519382505E+02 -0.30248824810E+02  0.81593997886E+02  0.00000000000E+00 0. -1.
        -12    1    4    4    0    0  0.41105614765E+01  0.39039006797E+01 -0.55358855084E+02  0.55648360195E+02  0.00000000000E+00 0.  1.
        -13    1    3    3    0    0 -0.29245286404E+02  0.21698298017E+02  0.16106826545E+03  0.16513354913E+03  0.00000000000E+00 0.  1.
         13    1    3    3    0    0  0.33835205987E+02  0.19813541243E+02  0.22084816263E+02  0.45001518754E+02  0.00000000000E+00 0. -1.
         21    1    1    2  502  501  0.50636287849E+01  0.29103642564E+02 -0.19888519546E+02  0.35612014219E+02  0.00000000000E+00 0.  1.
<scales pt_clust_5="13000.00000" pt_clust_6="13000.00000" pt_clust_7="13000.00000" pt_clust_8="13000.00000" pt_clust_9="29.54086"></scales>
<clustering>
<clus scale="   29.541">  2  9  1 -1</clus>
<clus scale="   80.169">  5  6 -1 -1</clus>
<clus scale="   91.910">  2  5  1 -1</clus>
<clus scale="   94.167">  7  8 -1 -1</clus>
<clus scale="   29.541">  2  5  1 -1</clus>
</clustering>
</event>
<event>
 9    1  0.2636643E-005  0.1061145E+03  0.7546771E-02  0.1272573E+00
          1   -1    0    0  502    0  0.00000000000E+00  0.00000000000E+00  0.44783141472E+03  0.44783141472E+03  0.00000000000E+00 0. -1.
         -2   -1    0    0    0  501 -0.00000000000E+00 -0.00000000000E+00 -0.12629600970E+03  0.12629600970E+03  0.00000000000E+00 0.  1.
         23    2    1    2    0    0  0.54639105728E+02  0.10776533266E+02 -0.94451485743E+02  0.14264920176E+03  0.91247718100E+02 0.  0.
        -24    2    1    2    0    0 -0.29545199167E+02 -0.11435161627E+02  0.35778760827E+03  0.36809609253E+03  0.80492726324E+02 0.  0.
         11    1    4    4    0    0 -0.52072182435E+02 -0.27140900359E+02  0.22854032971E+03  0.23596360516E+03  0.00000000000E+00 0. -1.
        -12    1    4    4    0    0  0.22526983269E+02  0.15705738732E+02  0.12924727856E+03  0.13213248737E+03  0.00000000000E+00 0.  1.
        -11    1    3    3    0    0  0.42317389382E+02  0.40915405330E+02 -0.92992081468E+02  0.11005616318E+03  0.00000000000E+00 0.  1.
         11    1    3    3    0    0  0.12321716346E+02 -0.30138872064E+02 -0.14594042753E+01  0.32593038579E+02  0.00000000000E+00 0. -1.
         21    1    1    2  502  501 -0.25093906561E+02  0.65862836100E+00  0.58199282488E+02  0.63382130131E+02  0.00000000000E+00 0. -1.
<scales pt_clust_5="13000.00000" pt_clust_6="13000.00000" pt_clust_7="13000.00000" pt_clust_8="13000.00000" pt_clust_9="25.10255"></scales>
<clustering>
<clus scale="   25.103">  1  9  2 -1</clus>
<clus scale="   80.493">  5  6 -1 -1</clus>
<clus scale="   91.248">  7  8 -1 -1</clus>
<clus scale="   97.022">  1  5  2 -1</clus>
<clus scale="   25.103">  1  5  2 -1</clus>
</clustering>
</event>
<event>
 9    1  0.1973774E-005  0.1216267E+03  0.7546771E-02  0.1244291E+00
          1   -1    0    0  502    0  0.00000000000E+00  0.00000000000E+00  0.16116800159E+03  0.16116800159E+03  0.00000000000E+00 0. -1.
         -2   -1    0    0    0  501 -0.00000000000E+00 -0.00000000000E+00 -0.38977720874E+03  0.38977720874E+03  0.00000000000E+00 0.  1.
         23    2    1    2    0    0 -0.55713399829E+02  0.54393739901E+02 -0.34192046734E+03  0.36256106105E+03  0.92077441003E+02 0.  0.
        -24    2    1    2    0    0  0.77311162705E+02 -0.62429515349E+02  0.93333194927E+02  0.15788562243E+03  0.79638710618E+02 0.  0.
         11    1    4    4    0    0  0.64056009376E+02 -0.52202459382E+02  0.10775276841E+03  0.13579001511E+03  0.00000000000E+00 0. -1.
        -12    1    4    4    0    0  0.13255153330E+02 -0.10227055967E+02 -0.14419573482E+02  0.22095607323E+02  0.00000000000E+00 0.  1.
        -13    1    3    3    0    0 -0.72847822634E+02  0.18056537938E+02 -0.16705291704E+03  0.18313798327E+03  0.00000000000E+00 0.  1.
         13    1    3    3    0    0  0.17134422805E+02  0.36337201963E+02 -0.17486755030E+03  0.17942307778E+03  0.00000000000E+00 0. -1.
         21    1    1    2  502  501 -0.21597762877E+02  0.80357754478E+01  0.19978065262E+02  0.30498526849E+02  0.00000000000E+00 0.  1.
<scales pt_clust_5="13000.00000" pt_clust_6="13000.00000" pt_clust_7="13000.00000" pt_clust_8="13000.00000" pt_clust_9="23.04424"></scales>
<clustering>
<clus scale="   23.044">  1  9  2 -1</clus>
<clus scale="   79.639">  5  6 -1 -1</clus>
<clus scale="   92.077">  7  8 -1 -1</clus>
<clus scale="  112.504">  1  5  2 -1</clus>
<clus scale="   23.044">  1  5  2 -1</clus>
</clustering>
</event>
<event>
 9    1  0.1973774E-005  0.1208366E+03  0.7546771E-02  0.1244928E+00
         -2   -1    0    0    0  501 -0.00000000000E+00  0.00000000000E+00  0.11399218560E+03  0.11399218560E+03  0.00000000000E+00 0.  1.
          1   -1    0    0  502    0  0.00000000000E+00 -0.00000000000E+00 -0.87090227627E+03  0.87090227627E+03  0.00000000000E+00 0. -1.
        -24    2    1    2    0    0  0.25604768702E+02 -0.75733357502E+02  0.73822453170E+02  0.13629698699E+03  0.82072945919E+02 0.  0.
         23    2    1    2    0    0  0.30762578443E+02  0.58887536966E+02 -0.51030308536E+03  0.52281212015E+03  0.92245302396E+02 0.  0.
         11    1    3    3    0    0  0.45251456052E+02 -0.37159183012E+02  0.10339593493E+02  0.59459283132E+02  0.00000000000E+00 0. -1.
        -12    1    3    3    0    0 -0.19646687350E+02 -0.38574174490E+02  0.63482859677E+02  0.76837703859E+02  0.00000000000E+00 0.  1.
        -11    1    4    4    0    0 -0.32203939029E+02  0.15314798347E+02 -0.20329652584E+03  0.20640037344E+03  0.00000000000E+00 0.  1.
         11    1    4    4    0    0  0.62966517472E+02  0.43572738619E+02 -0.30700655952E+03  0.31641174672E+03  0.00000000000E+00 0. -1.
         21    1    1    2  502  501 -0.56367347145E+02  0.16845820536E+02 -0.32042945848E+03  0.32578535473E+03  0.00000000000E+00 0. -1.
<scales pt_clust_5="13000.00000" pt_clust_6="13000.00000" pt_clust_7="13000.00000" pt_clust_8="13000.00000" pt_clust_9="58.83077"></scales>
<clustering>
<clus scale="   58.831">  2  9  1 -1</clus>
<clus scale="   82.073">  5  6 -1 -1</clus>
<clus scale="   92.245">  7  8 -1 -1</clus>
<clus scale="  113.262">  1  5  2 -1</clus>
<clus scale="   58.831">  2  5  1 -1</clus>
</clustering>
</event>
<event>
 9    1  0.1973774E-005  0.9776240E+02  0.7546771E-02  0.1289611E+00
         -2   -1    0    0    0  501 -0.00000000000E+00  0.00000000000E+00  0.13968041032E+03  0.13968041032E+03  0.00000000000E+00 0.  1.
          1   -1    0    0  502    0  0.00000000000E+00 -0.00000000000E+00 -0.11479707032E+03  0.11479707032E+03  0.00000000000E+00 0. -1.
         23    2    1    2    0    0  0.56052866298E+02  0.10504124726E+02 -0.62919178847E+01  0.10761045059E+03  0.91039334290E+02 0.  0.
        -24    2    1    2    0    0 -0.18779924189E+02 -0.10325647904E+02 -0.16125194150E+02  0.86645465570E+02  0.82389988835E+02 0.  0.
         13    1    4    4    0    0 -0.47831116750E+02 -0.26023591055E+01 -0.26625229209E+02  0.54804113285E+02  0.00000000000E+00 0. -1.
        -14    1    4    4    0    0  0.29051192561E+02 -0.77232887989E+01  0.10500035059E+02  0.31841352285E+02  0.00000000000E+00 0.  1.
        -11    1    3    3    0    0 -0.10337618588E+02  0.29025271324E+02 -0.20799572030E+02  0.37174654405E+02  0.00000000000E+00 0.  1.
         11    1    3    3    0    0  0.66390484886E+02 -0.18521146599E+02  0.14507654146E+02  0.70435796180E+02  0.00000000000E+00 0. -1.
         21    1    1    2  502  501 -0.37272942109E+02 -0.17847682121E+00  0.47300452034E+02  0.60221564493E+02  0.00000000000E+00 0. -1.
<scales pt_clust_5="13000.00000" pt_clust_6="13000.00000" pt_clust_7="13000.00000" pt_clust_8="13000.00000" pt_clust_9="37.27337"></scales>
<clustering>
<clus scale="   37.273">  1  9  2 -1</clus>
<clus scale="   82.390">  5  6 -1 -1</clus>
<clus scale="   89.763">  2  5  1 -1</clus>
<clus scale="   91.039">  7  8 -1 -1</clus>
<clus scale="   89.763">  2  5  1 -1</clus>
</clustering>
</event>
<event>
 9    1  0.1973774E-005  0.1119353E+03  0.7546771E-02  0.1261198E+00
         -2   -1    0    0    0  501 -0.00000000000E+00  0.00000000000E+00  0.82094926658E+02  0.82094926658E+02  0.00000000000E+00 0.  1.
          1   -1    0    0  502    0  0.00000000000E+00 -0.00000000000E+00 -0.49264690606E+03  0.49264690606E+03  0.00000000000E+00 0. -1.
        -24    2    1    2    0    0  0.32238513202E+02 -0.65177224747E+02  0.17122645452E+02  0.10947375392E+03  0.80024530308E+02 0.  0.
         23    2    1    2    0    0  0.38740210706E+02  0.36129992867E+02 -0.27265986189E+03  0.29231924918E+03  0.91109619952E+02 0.  0.
         13    1    3    3    0    0 -0.20005738046E+02  0.47746893118E+01  0.35930350687E+00  0.20570763520E+02  0.00000000000E+00 0. -1.
        -14    1    3    3    0    0  0.52244251248E+02 -0.69951914058E+02  0.16763341945E+02  0.88902990400E+02  0.00000000000E+00 0.  1.
        -13    1    4    4    0    0  0.43390359202E+02 -0.93127120303E+01 -0.21080286798E+03  0.21542353405E+03  0.00000000000E+00 0.  1.
         13    1    4    4    0    0 -0.46501484961E+01  0.45442704898E+02 -0.61856993912E+02  0.76895715130E+02  0.00000000000E+00 0. -1.
         21    1    1    2  502  501 -0.70978723908E+02  0.29047231879E+02 -0.15501476297E+03  0.17294882961E+03  0.00000000000E+00 0. -1.
<scales pt_clust_5="13000.00000" pt_clust_6="13000.00000" pt_clust_7="13000.00000" pt_clust_8="13000.00000" pt_clust_9="76.69238"></scales>
<clustering>
<clus scale="   76.692">  2  9  1 -1</clus>
<clus scale="   80.025">  5  6 -1 -1</clus>
<clus scale="   91.110">  7  8 -1 -1</clus>
<clus scale="  103.114">  1  5  2 -1</clus>
<clus scale="   76.692">  2  5  1 -1</clus>
</clustering>
</event>
<event>
 9    1  0.1973774E-005  0.9235678E+02  0.7546771E-02  0.1304432E+00
         -2   -1    0    0    0  501 -0.00000000000E+00  0.00000000000E+00  0.81422080115E+02  0.81422080115E+02  0.00000000000E+00 0.  1.
          1   -1    0    0  502    0  0.00000000000E+00 -0.00000000000E+00 -0.35058890136E+03  0.35058890136E+03  0.00000000000E+00 0. -1.
        -24    2    1    2    0    0  0.21540461405E+01  0.10178933553E+02  0.47601461181E+02  0.93687504908E+02  0.80019990417E+02 0.  0.
         23    2    1    2    0    0  0.54375399351E+01 -0.29819819683E+02 -0.23845843855E+03  0.25723199591E+03  0.91581025971E+02 0.  0.
         11    1    3    3    0    0  0.32851434724E+02 -0.16517882919E+02  0.95662304461E+01  0.37994341480E+02  0.00000000000E+00 0. -1.
        -12    1    3    3    0    0 -0.30697388583E+02  0.26696816473E+02  0.38035230735E+02  0.55693163428E+02  0.00000000000E+00 0.  1.
        -11    1    4    4    0    0 -0.23737710813E+02  0.14488884601E+02 -0.16077145213E+03  0.16315902216E+03  0.00000000000E+00 0.  1.
         11    1    4    4    0    0  0.29175250748E+02 -0.44308704284E+02 -0.77686986422E+02  0.94072973753E+02  0.00000000000E+00 0. -1.
         21    1    1    2  502  501 -0.75915860756E+01  0.19640886130E+02 -0.78309843872E+02  0.81091480652E+02  0.00000000000E+00 0.  1.
<scales pt_clust_5="13000.00000" pt_clust_6="13000.00000" pt_clust_7="13000.00000" pt_clust_8="13000.00000" pt_clust_9="21.05698"></scales>
<clustering>
<clus scale="   21.057">  2  9  1 -1</clus>
<clus scale="   80.020">  5  6 -1 -1</clus>
<clus scale="   80.907">  1  5  2 -1</clus>
<clus scale="   91.581">  7  8 -1 -1</clus>
<clus scale="   21.057">  2  5  1 -1</clus>
</clustering>
</event>
<event>
 9    1  0.1973774E-005  0.9532048E+02  0.7546771E-02  0.1293719E+00
          1   -1    0    0  502    0  0.00000000000E+00  0.00000000000E+00  0.32397705427E+02  0.32397705427E+02  0.00000000000E+00 0. -1.
         -2   -1    0    0    0  501 -0.00000000000E+00 -0.00000000000E+00 -0.40725223488E+03  0.40725223488E+03  0.00000000000E+00 0.  1.
         23    2    1    2    0    0  0.14535737812E+02 -0.48553689139E+02 -0.18692784310E+03  0.21189169103E+03  0.85949530523E+02 0.  0.
        -24    2    1    2    0    0 -0.36408936355E+02  0.15846249964E+02 -0.13758019662E+03  0.16386003006E+03  0.79656039713E+02 0.  0.
         13    1    4    4    0    0 -0.41144133844E+02  0.16068131149E+02 -0.24170188594E+02  0.50350994083E+02  0.00000000000E+00 0. -1.
        -14    1    4    4    0    0  0.47351974897E+01 -0.22188118564E+00 -0.11341000803E+03  0.11350903597E+03  0.00000000000E+00 0.  1.
        -11    1    3    3    0    0 -0.24280343327E+02 -0.13516560339E+02 -0.13775682116E+02  0.31016155359E+02  0.00000000000E+00 0. -1.
         11    1    3    3    0    0  0.38816081139E+02 -0.35037128801E+02 -0.17315216099E+03  0.18087553567E+03  0.00000000000E+00 0.  1.
         21    1    1    2  502  501  0.21873198543E+02  0.32707439175E+02 -0.50346489729E+02  0.63898219224E+02  0.00000000000E+00 0.  1.
<scales pt_clust_5="13000.00000" pt_clust_6="13000.00000" pt_clust_7="13000.00000" pt_clust_8="13000.00000" pt_clust_9="39.34734"></scales>
<clustering>
<clus scale="   39.347">  1  9  2 -1</clus>
<clus scale="   79.656">  5  6 -1 -1</clus>
<clus scale="   85.950">  7  8 -1 -1</clus>
<clus scale="   89.687">  1  5  2 -1</clus>
<clus scale="   39.347">  1  5  2 -1</clus>
</clustering>
</event>
<event>
 9    1  0.1973774E-005  0.1015315E+03  0.7546771E-02  0.1284091E+00
          1   -1    0    0  502    0  0.00000000000E+00  0.00000000000E+00  0.48332677164E+03  0.48332677164E+03  0.00000000000E+00 0. -1.
         -2   -1    0    0    0  501 -0.00000000000E+00 -0.00000000000E+00 -0.48424122367E+02  0.48424122367E+02  0.00000000000E+00 0.  1.
         23    2    1    2    0    0  0.11390109400E+02  0.46615604738E+02  0.22812629822E+02  0.10567276641E+03  0.91343134850E+02 0.  0.
        -24    2    1    2    0    0  0.66514046519E+01 -0.29106335798E+02  0.29787829107E+03  0.30913203049E+03  0.77069553120E+02 0.  0.
         13    1    4    4    0    0  0.21310417681E+02 -0.50464423703E+02  0.16833027422E+03  0.17701941470E+03  0.00000000000E+00 0. -1.
        -14    1    4    4    0    0 -0.14659013029E+02  0.21358087905E+02  0.12954801685E+03  0.13211261579E+03  0.00000000000E+00 0.  1.
        -13    1    3    3    0    0 -0.27080602421E+02 -0.13650445277E+02  0.14744390152E+02  0.33720775862E+02  0.00000000000E+00 0. -1.
         13    1    3    3    0    0  0.38470711821E+02  0.60266050016E+02  0.80682396700E+01  0.71951990549E+02  0.00000000000E+00 0.  1.
         21    1    1    2  502  501 -0.18041514052E+02 -0.17509268940E+02  0.11421172838E+03  0.11694609710E+03  0.00000000000E+00 0. -1.
<scales pt_clust_5="13000.00000" pt_clust_6="13000.00000" pt_clust_7="13000.00000" pt_clust_8="13000.00000" pt_clust_9="25.14102"></scales>
<clustering>
<clus scale="   25.141">  1  9  2 -1</clus>
<clus scale="   77.070">  5  6 -1 -1</clus>
<clus scale="   88.909">  1  5  2 -1</clus>
<clus scale="   91.343">  7  8 -1 -1</clus>
<clus scale="   25.141">  1  5  2 -1</clus>
</clustering>
</event>
<event>
 9    1  0.1973774E-005  0.9700664E+02  0.7546771E-02  0.1291773E+00
         -4   -1    0    0    0  501 -0.00000000000E+00  0.00000000000E+00  0.70561819994E+02  0.70561819994E+02  0.00000000000E+00 0.  1.
          3   -1    0    0  502    0  0.00000000000E+00 -0.00000000000E+00 -0.60066415083E+03  0.60066415083E+03  0.00000000000E+00 0. -1.
        -24    2    1    2    0    0 -0.14218694597E+02 -0.25437175386E+02  0.15491594368E+02  0.87395305835E+02  0.80924216514E+02 0.  0.
         23    2    1    2    0    0  0.44428502292E+02  0.90465695877E+02 -0.37913571684E+03  0.40258586896E+03  0.90407721743E+02 0.  0.
         11    1    3    3    0    0 -0.24913457228E+01 -0.53584813771E+02  0.10440127441E+01  0.53652856709E+02  0.00000000000E+00 0. -1.
        -12    1    3    3    0    0 -0.11727348874E+02  0.28147638385E+02  0.14447581624E+02  0.33742449127E+02  0.00000000000E+00 0.  1.
        -11    1    4    4    0    0 -0.52341646162E+01  0.36911038642E+02 -0.36218852886E+02  0.51977173425E+02  0.00000000000E+00 0.  1.
         11    1    4    4    0    0  0.49662666908E+02  0.53554657235E+02 -0.34291686396E+03  0.35060869553E+03  0.00000000000E+00 0. -1.
         21    1    1    2  502  501 -0.30209807695E+02 -0.65028520491E+02 -0.16645820836E+03  0.18124479603E+03  0.00000000000E+00 0. -1.
<scales pt_clust_5="13000.00000" pt_clust_6="13000.00000" pt_clust_7="13000.00000" pt_clust_8="13000.00000" pt_clust_9="71.70314"></scales>
<clustering>
<clus scale="   71.703">  2  9  1 -1</clus>
<clus scale="   80.924">  5  6 -1 -1</clus>
<clus scale="   88.235">  1  5  2 -1</clus>
<clus scale="   90.408">  7  8 -1 -1</clus>
<clus scale="   71.703">  2  5  1 -1</clus>
</clustering>
</event>
<event>
 9    1  0.1973774E-005  0.2154862E+03  0.7546771E-02  0.1138066E+00
          1   -1    0    0  502    0  0.00000000000E+00  0.00000000000E+00  0.64210773885E+03  0.64210773885E+03  0.00000000000E+00 0. -1.
         -2   -1    0    0    0  501 -0.00000000000E+00 -0.00000000000E+00 -0.96494550816E+02  0.96494550816E+02  0.00000000000E+00 0.  1.
         23    2    1    2    0    0  0.15066085114E+03 -0.16354800309E+03  0.19319273449E+03  0.30843777073E+03  0.91453728039E+02 0.  0.
        -24    2    1    2    0    0 -0.12272892228E+03  0.10644419410E+03  0.27949790240E+03  0.33342395807E+03  0.81607006720E+02 0.  0.
         11    1    4    4    0    0 -0.13020292549E+03  0.94100200003E+02  0.27468349733E+03  0.31821167979E+03  0.00000000000E+00 0. -1.
        -12    1    4    4    0    0  0.74740032146E+01  0.12343994094E+02  0.48144050698E+01  0.15212278279E+02  0.00000000000E+00 0.  1.
        -13    1    3    3    0    0  0.12205588789E+03 -0.92234755206E+02  0.16882373354E+03  0.22782963557E+03  0.00000000000E+00 0. -1.
         13    1    3    3    0    0  0.28604963242E+02 -0.71313247888E+02  0.24369000945E+02  0.80608135157E+02  0.00000000000E+00 0.  1.
         21    1    1    2  502  501 -0.27931928857E+02  0.57103808997E+02  0.72922551143E+02  0.96740560867E+02  0.00000000000E+00 0.  1.
<scales pt_clust_5="13000.00000" pt_clust_6="13000.00000" pt_clust_7="13000.00000" pt_clust_8="13000.00000" pt_clust_9="63.56916"></scales>
<clustering>
<clus scale="   63.569">  1  9  2 -1</clus>
<clus scale="   81.607">  5  6 -1 -1</clus>
<clus scale="   91.454">  7  8 -1 -1</clus>
<clus scale="  211.495">  1  5  2 -1</clus>
<clus scale="   63.569">  1  5  2 -1</clus>
</clustering>
</event>
<event>
 9    1  0.1659069E-004  0.9737737E+02  0.7546771E-02  0.1286453E+00
         -2   -1    0    0    0  501 -0.00000000000E+00  0.00000000000E+00  0.33923997483E+03  0.33923997483E+03  0.00000000000E+00 0.  1.
          1   -1    0    0  502    0  0.00000000000E+00 -0.00000000000E+00 -0.35656737032E+03  0.35656737032E+03  0.00000000000E+00 0. -1.
        -24    2    1    2    0    0 -0.37295153685E+01 -0.31050473510E+02  0.31614951234E+03  0.33076635794E+03  0.92075122608E+02 0.  0.
         23    2    1    2    0    0  0.15197938048E+02  0.49413677676E+02 -0.32558093521E+03  0.34199584954E+03  0.91024869519E+02 0.  0.
         11    1    3    3    0    0 -0.10908112247E+02  0.18297675624E+02  0.16365424595E+02  0.26862966482E+02  0.00000000000E+00 0. -1.
        -12    1    3    3    0    0  0.71785968780E+01 -0.49348149134E+02  0.29978408775E+03  0.30390339146E+03  0.00000000000E+00 0.  1.
        -13    1    4    4    0    0 -0.32894080011E+02 -0.15734325573E+01 -0.77563157330E+02  0.84264699399E+02  0.00000000000E+00 0.  1.
         13    1    4    4    0    0  0.48092018058E+02  0.50987110234E+02 -0.24801777788E+03  0.25773115014E+03  0.00000000000E+00 0. -1.
         21    1    1    2  502  501 -0.11468422679E+02 -0.18363204166E+02 -0.78959726265E+01  0.23045137659E+02  0.00000000000E+00 0. -1.
<scales pt_clust_5="13000.00000" pt_clust_6="13000.00000" pt_clust_7="13000.00000" pt_clust_8="13000.00000" pt_clust_9="21.65022"></scales>
<clustering>
<clus scale="   21.650">  2  9  1 -1</clus>
<clus scale="   91.025">  7  8 -1 -1</clus>
<clus scale="   92.075">  5  6 -1 -1</clus>
<clus scale="   96.385">  2  7  1 -1</clus>
<clus scale="   21.650">  2  5  1 -1</clus>
</clustering>
</event>
<event>
 9    1  0.1973774E-005  0.1087805E+03  0.7546771E-02  0.1275818E+00
          3   -1    0    0  502    0  0.00000000000E+00  0.00000000000E+00  0.15145017979E+03  0.15145017979E+03  0.00000000000E+00 0. -1.
         -4   -1    0    0    0  501 -0.00000000000E+00 -0.00000000000E+00 -0.19666976877E+03  0.19666976877E+03  0.00000000000E+00 0.  1.
         23    2    1    2    0    0  0.16545077793E+02 -0.97132137887E+01 -0.95408332890E+02  0.14347864073E+03  0.10542904837E+03 0.  0.
        -24    2    1    2    0    0  0.36236098309E+02  0.72806700859E+02  0.15282754445E+02  0.11528209587E+03  0.80265363233E+02 0.  0.
         13    1    4    4    0    0  0.61314212593E+02  0.61190461030E+02  0.11934971016E+02  0.87442259349E+02  0.00000000000E+00 0. -1.
        -14    1    4    4    0    0 -0.25078114284E+02  0.11616239830E+02  0.33477834287E+01  0.27839836524E+02  0.00000000000E+00 0.  1.
        -13    1    3    3    0    0 -0.24197510372E+02  0.32759179189E+02 -0.66322938301E+02  0.77829399806E+02  0.00000000000E+00 0.  1.
         13    1    3    3    0    0  0.40742588165E+02 -0.42472392978E+02 -0.29085394590E+02  0.65649240925E+02  0.00000000000E+00 0. -1.
         21    1    1    2  502  501 -0.52781176101E+02 -0.63093487071E+02  0.34905989468E+02  0.89359211960E+02  0.00000000000E+00 0. -1.
<scales pt_clust_5="13000.00000" pt_clust_6="13000.00000" pt_clust_7="13000.00000" pt_clust_8="13000.00000" pt_clust_9="82.25959"></scales>
<clustering>
<clus scale="   80.265">  5  6 -1 -1</clus>
<clus scale="   82.260">  1  9  2 -1</clus>
<clus scale="   84.619">  1  5  2 -1</clus>
<clus scale="  105.429">  7  8 -1 -1</clus>
<clus scale="   82.260">  1  5  2 -1</clus>
</clustering>
</event>
<event>
 9    1  0.1973774E-005  0.1039381E+03  0.7546771E-02  0.1280349E+00
         -2   -1    0    0    0  501 -0.00000000000E+00  0.00000000000E+00  0.22193889755E+03  0.22193889755E+03  0.00000000000E+00 0.  1.
          1   -1    0    0  502    0  0.00000000000E+00 -0.00000000000E+00 -0.69191511523E+02  0.69191511523E+02  0.00000000000E+00 0. -1.
        -24    2    1    2    0    0 -0.36847665436E+02  0.17762401085E+02  0.13698074657E+03  0.16417050732E+03  0.80715408719E+02 0.  0.
         23    2    1    2    0    0  0.30486874695E+02  0.54641184772E+01  0.14744810887E+02  0.10285647868E+03  0.96967724729E+02 0.  0.
         11    1    3    3    0    0 -0.56252555288E+01 -0.30358365763E+02  0.66340300805E+02  0.73173146594E+02  0.00000000000E+00 0. -1.
        -12    1    3    3    0    0 -0.31222409907E+02  0.48120766848E+02  0.70640445761E+02  0.90997360729E+02  0.00000000000E+00 0.  1.
        -11    1    4    4    0    0  0.42298564964E+02  0.42542298466E+02 -0.30445327872E+01  0.60069001463E+02  0.00000000000E+00 0. -1.
         11    1    4    4    0    0 -0.11811690270E+02 -0.37078179989E+02  0.17789343674E+02  0.42787477218E+02  0.00000000000E+00 0.  1.
         21    1    1    2  502  501  0.63607907414E+01 -0.23226519562E+02  0.10218285690E+01  0.24103423065E+02  0.00000000000E+00 0. -1.
<scales pt_clust_5="13000.00000" pt_clust_6="13000.00000" pt_clust_7="13000.00000" pt_clust_8="13000.00000" pt_clust_9="24.08175"></scales>
<clustering>
<clus scale="   24.082">  2  9  1 -1</clus>
<clus scale="   80.715">  5  6 -1 -1</clus>
<clus scale="   88.968">  1  5  2 -1</clus>
<clus scale="   96.968">  7  8 -1 -1</clus>
<clus scale="   24.082">  2  5  1 -1</clus>
</clustering>
</event>
<event>
 9    1  0.1973774E-005  0.1075260E+03  0.7546771E-02  0.1272842E+00
         -2   -1    0    0    0  501 -0.00000000000E+00  0.00000000000E+00  0.14557621192E+04  0.14557621192E+04  0.00000000000E+00 0.  1.
          1   -1    0    0  502    0  0.00000000000E+00 -0.00000000000E+00 -0.32239106025E+02  0.32239106025E+02  0.00000000000E+00 0. -1.
        -24    2    1    2    0    0  0.30316798635E+02 -0.33313684048E+02  0.12885339906E+04  0.12918618102E+04  0.80982603173E+02 0.  0.
         23    2    1    2    0    0 -0.15942842217E+02  0.51158712388E+02  0.81470803083E+02  0.13792210246E+03  0.97537820983E+02 0.  0.
         11    1    3    3    0    0  0.28830324962E+02  0.46789732090E+01  0.15727711433E+03  0.15996615617E+03  0.00000000000E+00 0. -1.
        -12    1    3    3    0    0  0.14864736725E+01 -0.37992657257E+02  0.11312568762E+04  0.11318956540E+04  0.00000000000E+00 0.  1.
        -13    1    4    4    0    0 -0.37970294505E+02  0.64220724292E+02  0.29960462587E+02  0.80396977629E+02  0.00000000000E+00 0. -1.
         13    1    4    4    0    0  0.22027452288E+02 -0.13062011905E+02  0.51510340496E+02  0.57525124836E+02  0.00000000000E+00 0.  1.
         21    1    1    2  502  501 -0.14373956418E+02 -0.17845028340E+02  0.53518219566E+02  0.58217312589E+02  0.00000000000E+00 0. -1.
<scales pt_clust_5="13000.00000" pt_clust_6="13000.00000" pt_clust_7="13000.00000" pt_clust_8="13000.00000" pt_clust_9="22.91409"></scales>
<clustering>
<clus scale="   22.914">  2  9  1 -1</clus>
<clus scale="   80.983">  5  6 -1 -1</clus>
<clus scale="   92.771">  1  5  2 -1</clus>
<clus scale="   97.538">  7  8 -1 -1</clus>
<clus scale="   22.914">  2  5  1 -1</clus>
</clustering>
</event>
<event>
 9    1  0.1973774E-005  0.2147188E+03  0.7546771E-02  0.1138658E+00
         -4   -1    0    0    0  501 -0.00000000000E+00  0.00000000000E+00  0.22806982312E+03  0.22806982312E+03  0.00000000000E+00 0.  1.
          3   -1    0    0  502    0  0.00000000000E+00 -0.00000000000E+00 -0.62285788558E+03  0.62285788558E+03  0.00000000000E+00 0. -1.
        -24    2    1    2    0    0 -0.19641842795E+03 -0.34852080349E+02  0.14047638232E+03  0.25689566032E+03  0.80417037763E+02 0.  0.
         23    2    1    2    0    0  0.16853166039E+03  0.13147773344E+02 -0.29915756672E+03  0.35529535950E+03  0.90353518233E+02 0.  0.
         13    1    3    3    0    0 -0.27418332747E+02 -0.32467020021E+02  0.10752957697E+02  0.43834900010E+02  0.00000000000E+00 0. -1.
        -14    1    3    3    0    0 -0.16900009520E+03 -0.23850603283E+01  0.12972342462E+03  0.21306076031E+03  0.00000000000E+00 0.  1.
        -11    1    4    4    0    0  0.19832298356E+02 -0.27313137260E+02 -0.30077564794E+02  0.45210479194E+02  0.00000000000E+00 0.  1.
         11    1    4    4    0    0  0.14869936204E+03  0.40460910604E+02 -0.26908000193E+03  0.31008488031E+03  0.00000000000E+00 0. -1.
         21    1    1    2  502  501  0.27886767556E+02  0.21704307005E+02 -0.23610687806E+03  0.23873668887E+03  0.00000000000E+00 0. -1.
<scales pt_clust_5="13000.00000" pt_clust_6="13000.00000" pt_clust_7="13000.00000" pt_clust_8="13000.00000" pt_clust_9="35.33764"></scales>
<clustering>
<clus scale="   35.338">  2  9  1 -1</clus>
<clus scale="   80.417">  5  6 -1 -1</clus>
<clus scale="   90.354">  7  8 -1 -1</clus>
<clus scale="  210.730">  1  5  2 -1</clus>
<clus scale="   35.338">  2  5  1 -1</clus>
</clustering>
</event>
<event>
 9    1  0.1973774E-005  0.1865767E+03  0.7546771E-02  0.1163038E+00
          1   -1    0    0  502    0  0.00000000000E+00  0.00000000000E+00  0.20404347960E+03  0.20404347960E+03  0.00000000000E+00 0. -1.
         -2   -1    0    0    0  501 -0.00000000000E+00 -0.00000000000E+00 -0.82973132613E+03  0.82973132613E+03  0.00000000000E+00 0.  1.
        -24    2    1    2    0    0  0.86439862571E+02 -0.14451013055E+03 -0.64171486184E+03  0.66814822890E+03  0.79177422289E+02 0.  0.
         23    2    1    2    0    0 -0.92309964894E+02  0.10981557947E+03 -0.13057188281E+03  0.21486382644E+03  0.92395109270E+02 0.  0.
         11    1    3    3    0    0  0.48302100949E+02 -0.66098264608E+02 -0.17300618976E+03  0.19139805442E+03  0.00000000000E+00 0. -1.
        -12    1    3    3    0    0  0.38137761622E+02 -0.78411865944E+02 -0.46870867209E+03  0.47675017449E+03  0.00000000000E+00 0.  1.
        -11    1    4    4    0    0 -0.44450394703E+02  0.18995998456E+02  0.54135751896E+00  0.48342306674E+02  0.00000000000E+00 0.  1.
         11    1    4    4    0    0 -0.47859570191E+02  0.90819581019E+02 -0.13111324032E+03  0.16652151976E+03  0.00000000000E+00 0. -1.
         21    1    1    2  502  501  0.58701023227E+01  0.34694551077E+02  0.14659889812E+03  0.15076275039E+03  0.00000000000E+00 0. -1.
<scales pt_clust_5="13000.00000" pt_clust_6="13000.00000" pt_clust_7="13000.00000" pt_clust_8="13000.00000" pt_clust_9="35.18764"></scales>
<clustering>
<clus scale="   35.188">  1  9  2 -1</clus>
<clus scale="   79.177">  5  6 -1 -1</clus>
<clus scale="   92.395">  7  8 -1 -1</clus>
<clus scale="  180.397">  2  5  1 -1</clus>
<clus scale="   35.188">  1  5  2 -1</clus>
</clustering>
</event>
<event>
 9    1  0.1973774E-005  0.9131780E+02  0.7546771E-02  0.1307290E+00
          1   -1    0    0  502    0  0.00000000000E+00  0.00000000000E+00  0.90556416366E+03  0.90556416366E+03  0.00000000000E+00 0. -1.
         -2   -1    0    0    0  501 -0.00000000000E+00 -0.00000000000E+00 -0.56198139371E+02  0.56198139371E+02  0.00000000000E+00 0.  1.
         23    2    1    2    0    0  0.61049953515E+00 -0.13536296516E+02 -0.82891495174E+01  0.91841594789E+02  0.90457528712E+02 0.  0.
        -24    2    1    2    0    0  0.47952149035E+02 -0.62903407942E+01  0.59281634524E+03  0.59993731709E+03  0.78451183969E+02 0.  0.
         13    1    4    4    0    0 -0.21870866057E+02  0.10601618919E+01  0.13228321207E+03  0.13408320895E+03  0.00000000000E+00 0. -1.
        -14    1    4    4    0    0  0.69823015092E+02 -0.73505026861E+01  0.46053313317E+03  0.46585410814E+03  0.00000000000E+00 0.  1.
        -13    1    3    3    0    0  0.33912551301E+02  0.53393938217E+01 -0.31902263434E+02  0.46864962118E+02  0.00000000000E+00 0. -1.
         13    1    3    3    0    0 -0.33302051766E+02 -0.18875690338E+02  0.23613113916E+02  0.44976632671E+02  0.00000000000E+00 0.  1.
         21    1    1    2  502  501 -0.48562648570E+02  0.19826637310E+02  0.26483882857E+03  0.26998339115E+03  0.00000000000E+00 0. -1.
<scales pt_clust_5="13000.00000" pt_clust_6="13000.00000" pt_clust_7="13000.00000" pt_clust_8="13000.00000" pt_clust_9="52.45404"></scales>
<clustering>
<clus scale="   52.454">  1  9  2 -1</clus>
<clus scale="   78.451">  5  6 -1 -1</clus>
<clus scale="   79.442">  1  5  2 -1</clus>
<clus scale="   90.458">  7  8 -1 -1</clus>
<clus scale="   52.454">  1  5  2 -1</clus>
</clustering>
</event>
<event>
 9    1  0.1973774E-005  0.1060928E+03  0.7546771E-02  0.1271843E+00
         -4   -1    0    0    0  501 -0.00000000000E+00  0.00000000000E+00  0.35222652573E+02  0.35222652573E+02  0.00000000000E+00 0.  1.
          3   -1    0    0  502    0  0.00000000000E+00 -0.00000000000E+00 -0.43344158793E+03  0.43344158793E+03  0.00000000000E+00 0. -1.
        -24    2    1    2    0    0 -0.57280057177E+02 -0.26633367328E+02 -0.87357253866E+02  0.13448305931E+03  0.80399391991E+02 0.  0.
         23    2    1    2    0    0  0.35112908899E+02  0.21436403420E+02 -0.26954127880E+03  0.28700315055E+03  0.89587229487E+02 0.  0.
         13    1    3    3    0    0 -0.91285742214E+01 -0.36927720447E+02 -0.74410553563E+02  0.83569838376E+02  0.00000000000E+00 0. -1.
        -14    1    3    3    0    0 -0.48151482955E+02  0.10294353119E+02 -0.12946700304E+02  0.50913220932E+02  0.00000000000E+00 0.  1.
        -11    1    4    4    0    0 -0.29890550602E+02 -0.66470015704E+00 -0.84804013580E+02  0.89920006456E+02  0.00000000000E+00 0.  1.
         11    1    4    4    0    0  0.65003459502E+02  0.22101103577E+02 -0.18473726522E+03  0.19708314410E+03  0.00000000000E+00 0. -1.
         21    1    1    2  502  501  0.22167148277E+02  0.51969639080E+01 -0.41320402689E+02  0.47178030639E+02  0.00000000000E+00 0. -1.
<scales pt_clust_5="13000.00000" pt_clust_6="13000.00000" pt_clust_7="13000.00000" pt_clust_8="13000.00000" pt_clust_9="22.76820"></scales>
<clustering>
<clus scale="   22.768">  2  9  1 -1</clus>
<clus scale="   80.399">  5  6 -1 -1</clus>
<clus scale="   89.587">  7  8 -1 -1</clus>
<clus scale="   98.457">  1  5  2 -1</clus>
<clus scale="   22.768">  2  5  1 -1</clus>
</clustering>
</event>
<event>
 9    1  0.1973774E-005  0.1615212E+03  0.7546771E-02  0.1188904E+00
          1   -1    0    0  502    0  0.00000000000E+00  0.00000000000E+00  0.53216458183E+03  0.53216458183E+03  0.00000000000E+00 0. -1.
         -2   -1    0    0    0  501 -0.00000000000E+00 -0.00000000000E+00 -0.21421311556E+03  0.21421311556E+03  0.00000000000E+00 0.  1.
        -24    2    1    2    0    0 -0.30316854024E+01  0.13325478055E+03 -0.16347358554E+03  0.22540390508E+03  0.79481316056E+02 0.  0.
         23    2    1    2    0    0 -0.31025161357E+02 -0.12801716210E+03  0.34965040298E+03  0.38476858122E+03  0.91872206671E+02 0.  0.
         11    1    3    3    0    0  0.16965659199E+02  0.93965454781E+02 -0.15257646443E+03  0.17999143808E+03  0.00000000000E+00 0. -1.
        -12    1    3    3    0    0 -0.19997344601E+02  0.39289325770E+02 -0.10897121102E+02  0.45412466998E+02  0.00000000000E+00 0.  1.
        -11    1    4    4    0    0  0.20052631020E+02 -0.10031198656E+03  0.23193001763E+03  0.25348794003E+03  0.00000000000E+00 0. -1.
         11    1    4    4    0    0 -0.51077792377E+02 -0.27705175538E+02  0.11772038535E+03  0.13128064119E+03  0.00000000000E+00 0.  1.
         21    1    1    2  502  501  0.34056846759E+02 -0.52376184522E+01  0.13177464882E+03  0.13620521110E+03  0.00000000000E+00 0. -1.
<scales pt_clust_5="13000.00000" pt_clust_6="13000.00000" pt_clust_7="13000.00000" pt_clust_8="13000.00000" pt_clust_9="34.45724"></scales>
<clustering>
<clus scale="   34.457">  1  9  2 -1</clus>
<clus scale="   79.481">  5  6 -1 -1</clus>
<clus scale="   91.872">  7  8 -1 -1</clus>
<clus scale="  154.809">  2  5  1 -1</clus>
<clus scale="   34.457">  1  5  2 -1</clus>
</clustering>
</event>
<event>
 9    1  0.1973774E-005  0.1229162E+03  0.7546771E-02  0.1243148E+00
          3   -1    0    0  502    0  0.00000000000E+00  0.00000000000E+00  0.77911834093E+03  0.77911834093E+03  0.00000000000E+00 0. -1.
         -4   -1    0    0    0  501 -0.00000000000E+00 -0.00000000000E+00 -0.34109488210E+02  0.34109488210E+02  0.00000000000E+00 0.  1.
         23    2    1    2    0    0  0.67206012962E+02  0.61820197917E+02  0.15506950375E+03  0.20252331671E+03  0.92901871705E+02 0.  0.
        -24    2    1    2    0    0 -0.76202323010E+02 -0.22837834444E+02  0.50191056958E+03  0.51401105735E+03  0.77232030300E+02 0.  0.
         11    1    4    4    0    0 -0.12074387313E+02 -0.41294120317E+02  0.16223753192E+03  0.16784520239E+03  0.00000000000E+00 0. -1.
        -12    1    4    4    0    0 -0.64127935697E+02  0.18456285872E+02  0.33967303766E+03  0.34616585496E+03  0.00000000000E+00 0.  1.
        -11    1    3    3    0    0  0.30505053941E+02  0.91629109360E+01 -0.29282542804E+01  0.31985808195E+02  0.00000000000E+00 0.  1.
         11    1    3    3    0    0  0.36700959021E+02  0.52657286981E+02  0.15799775803E+03  0.17053750851E+03  0.00000000000E+00 0. -1.
         21    1    1    2  502  501  0.89963100478E+01 -0.38982363473E+02  0.88028779389E+02  0.96693455089E+02  0.00000000000E+00 0.  1.
<scales pt_clust_5="13000.00000" pt_clust_6="13000.00000" pt_clust_7="13000.00000" pt_clust_8="13000.00000" pt_clust_9="40.00698"></scales>
<clustering>
<clus scale="   40.007">  2  9  1 -1</clus>
<clus scale="   77.232">  5  6 -1 -1</clus>
<clus scale="   92.902">  7  8 -1 -1</clus>
<clus scale="  111.546">  1  5  2 -1</clus>
<clus scale="  111.546">  1  5  2 -1</clus>
</clustering>
</event>
<event>
 9    1  0.1973774E-005  0.9378669E+02  0.7546771E-02  0.1296705E+00
         -4   -1    0    0    0  501 -0.00000000000E+00  0.00000000000E+00  0.13984406502E+04  0.13984406502E+04  0.00000000000E+00 0.  1.
          3   -1    0    0  502    0  0.00000000000E+00 -0.00000000000E+00 -0.21484853292E+02  0.21484853292E+02  0.00000000000E+00 0. -1.
        -24    2    1    2    0    0 -0.31472975875E+02 -0.63153371426E+01  0.11433136812E+04  0.11467081781E+04  0.82116019022E+02 0.  0.
         23    2    1    2    0    0  0.50489430709E+02  0.34768181467E+02  0.16358694426E+03  0.19524991578E+03  0.87199955408E+02 0.  0.
         13    1    3    3    0    0  0.22134670014E+02 -0.85772023864E+01  0.14303296057E+03  0.14498944730E+03  0.00000000000E+00 0. -1.
        -14    1    3    3    0    0 -0.53607645889E+02  0.22618652437E+01  0.10002807206E+04  0.10017187308E+04  0.00000000000E+00 0.  1.
        -13    1    4    4    0    0  0.43212053185E+02 -0.20248044363E+02  0.51706895919E+02  0.70362404212E+02  0.00000000000E+00 0. -1.
         13    1    4    4    0    0  0.72773775237E+01  0.55016225829E+02  0.11188004834E+03  0.12488751157E+03  0.00000000000E+00 0.  1.
         21    1    1    2  502  501 -0.19016454834E+02 -0.28452844324E+02  0.70055171496E+02  0.77967409588E+02  0.00000000000E+00 0. -1.
<scales pt_clust_5="13000.00000" pt_clust_6="13000.00000" pt_clust_7="13000.00000" pt_clust_8="13000.00000" pt_clust_9="34.22265"></scales>
<clustering>
<clus scale="   34.223">  2  9  1 -1</clus>
<clus scale="   82.116">  5  6 -1 -1</clus>
<clus scale="   87.200">  7  8 -1 -1</clus>
<clus scale="   89.079">  1  5  2 -1</clus>
<clus scale="   34.223">  2  5  1 -1</clus>
</clustering>
</event>
<event>
 9    1  0.1973774E-005  0.1032805E+03  0.7546771E-02  0.1278735E+00
          3   -1    0    0  502    0  0.00000000000E+00  0.00000000000E+00  0.69980566846E+02  0.69980566846E+02  0.00000000000E+00 0. -1.
         -4   -1    0    0    0  501 -0.00000000000E+00 -0.00000000000E+00 -0.28362628970E+03  0.28362628970E+03  0.00000000000E+00 0.  1.
        -24    2    1    2    0    0 -0.66372334389E+02 -0.75087043374E+01 -0.11897643626E+03  0.15881782366E+03  0.81277557266E+02 0.  0.
         23    2    1    2    0    0  0.50276698832E+01  0.39956494215E+02 -0.59128091287E+02  0.11681978577E+03  0.92352218566E+02 0.  0.
         11    1    3    3    0    0 -0.12810824517E+02 -0.20146088171E+02  0.38906371786E+01  0.24189236264E+02  0.00000000000E+00 0. -1.
        -12    1    3    3    0    0 -0.53561509872E+02  0.12637383833E+02 -0.12286707344E+03  0.13462858740E+03  0.00000000000E+00 0.  1.
        -13    1    4    4    0    0  0.45373647339E+02  0.39530354446E+02 -0.39189978561E+02  0.71814143558E+02  0.00000000000E+00 0. -1.
         13    1    4    4    0    0 -0.40345977456E+02  0.42613976942E+00 -0.19938112726E+02  0.45005642213E+02  0.00000000000E+00 0.  1.
         21    1    1    2  502  501  0.61344664506E+02 -0.32447789878E+02 -0.35541195307E+02  0.77969247112E+02  0.00000000000E+00 0. -1.
<scales pt_clust_5="13000.00000" pt_clust_6="13000.00000" pt_clust_7="13000.00000" pt_clust_8="13000.00000" pt_clust_9="69.39760"></scales>
<clustering>
<clus scale="   69.398">  1  9  2 -1</clus>
<clus scale="   81.278">  5  6 -1 -1</clus>
<clus scale="   92.352">  7  8 -1 -1</clus>
<clus scale="   93.509">  2  5  1 -1</clus>
<clus scale="   69.398">  1  5  2 -1</clus>
</clustering>
</event>
<event>
 9    1  0.1973774E-005  0.1047298E+03  0.7546771E-02  0.1275618E+00
          3   -1    0    0  502    0  0.00000000000E+00  0.00000000000E+00  0.21027684829E+03  0.21027684829E+03  0.00000000000E+00 0. -1.
         -4   -1    0    0    0  501 -0.00000000000E+00 -0.00000000000E+00 -0.13553955784E+03  0.13553955784E+03  0.00000000000E+00 0.  1.
         23    2    1    2    0    0 -0.28968526709E+02  0.28973042861E+02 -0.78612797482E+02  0.12933438826E+03  0.94174302786E+02 0.  0.
        -24    2    1    2    0    0  0.57565095155E+02 -0.49718680315E+02  0.13707344312E+03  0.17758376127E+03  0.83433662892E+02 0.  0.
         13    1    4    4    0    0  0.63523958271E+02 -0.66358302340E+02  0.12844933322E+03  0.15791753788E+03  0.00000000000E+00 0. -1.
        -14    1    4    4    0    0 -0.59588631161E+01  0.16639622026E+02  0.86241098993E+01  0.19666223388E+02  0.00000000000E+00 0.  1.
        -11    1    3    3    0    0  0.32191382064E+02  0.12176490296E+02 -0.47584846405E+02  0.58727077252E+02  0.00000000000E+00 0. -1.
         11    1    3    3    0    0 -0.61159908773E+02  0.16796552565E+02 -0.31027951077E+02  0.70607311004E+02  0.00000000000E+00 0.  1.
         21    1    1    2  502  501 -0.28596568446E+02  0.20745637454E+02  0.16276644809E+02  0.38898256600E+02  0.00000000000E+00 0.  1.
<scales pt_clust_5="13000.00000" pt_clust_6="13000.00000" pt_clust_7="13000.00000" pt_clust_8="13000.00000" pt_clust_9="35.32910"></scales>
<clustering>
<clus scale="   35.329">  1  9  2 -1</clus>
<clus scale="   83.434">  5  6 -1 -1</clus>
<clus scale="   94.174">  7  8 -1 -1</clus>
<clus scale="   95.188">  1  5  2 -1</clus>
<clus scale="   35.329">  1  5  2 -1</clus>
</clustering>
</event>
<event>
 9    1  0.1973774E-005  0.1528490E+03  0.7546771E-02  0.1198929E+00
          1   -1    0    0  502    0  0.00000000000E+00  0.00000000000E+00  0.67479123901E+03  0.67479123901E+03  0.00000000000E+00 0. -1.
         -2   -1    0    0    0  501 -0.00000000000E+00 -0.00000000000E+00 -0.51599758763E+02  0.51599758763E+02  0.00000000000E+00 0.  1.
         23    2    1    2    0    0 -0.11523260659E+03  0.23038247723E+02  0.12017065096E+03  0.19127989708E+03  0.91311002602E+02 0.  0.
        -24    2    1    2    0    0  0.13343760822E+03 -0.35395499947E+02  0.45645514860E+03  0.48360880575E+03  0.80422245690E+02 0.  0.
         13    1    4    4    0    0  0.10871751223E+03 -0.18059974111E+01  0.24446806611E+03  0.26755820757E+03  0.00000000000E+00 0. -1.
        -14    1    4    4    0    0  0.24720095998E+02 -0.33589502536E+02  0.21198708250E+03  0.21605059817E+03  0.00000000000E+00 0.  1.
        -11    1    3    3    0    0 -0.33207175167E+02 -0.88873610579E+01 -0.84744146493E+01  0.35405047278E+02  0.00000000000E+00 0.  1.
         11    1    3    3    0    0 -0.82025431421E+02  0.31925608781E+02  0.12864506561E+03  0.15587484980E+03  0.00000000000E+00 0. -1.
         21    1    1    2  502  501 -0.18205001636E+02  0.12357252225E+02  0.46565680686E+02  0.51502294947E+02  0.00000000000E+00 0.  1.
<scales pt_clust_5="13000.00000" pt_clust_6="13000.00000" pt_clust_7="13000.00000" pt_clust_8="13000.00000" pt_clust_9="22.00281"></scales>
<clustering>
<clus scale="   22.003">  1  9  2 -1</clus>
<clus scale="   80.422">  5  6 -1 -1</clus>
<clus scale="   91.311">  7  8 -1 -1</clus>
<clus scale="  146.604">  1  5  2 -1</clus>
<clus scale="   22.003">  1  5  2 -1</clus>
</clustering>
</event>
<event>
 9    1  0.1973774E-005  0.1140393E+03  0.7546771E-02  0.1257111E+00
          3   -1    0    0  502    0  0.00000000000E+00  0.00000000000E+00  0.63569536140E+03  0.63569536140E+03  0.00000000000E+00 0. -1.
         -4   -1    0    0    0  501 -0.00000000000E+00 -0.00000000000E+00 -0.53148718451E+02  0.53148718451E+02  0.00000000000E+00 0.  1.
         23    2    1    2    0    0  0.39505661172E+02 -0.32765949510E+01  0.14052172388E+03  0.17232560055E+03  0.91533187344E+02 0.  0.
        -24    2    1    2    0    0 -0.66162822773E+02 -0.90199192129E+02  0.12967885242E+03  0.18939710674E+03  0.80877969169E+02 0.  0.
         11    1    4    4    0    0  0.12918544042E+02 -0.40240002486E+02  0.25384180386E+02  0.49300133814E+02  0.00000000000E+00 0. -1.
        -12    1    4    4    0    0 -0.79081366815E+02 -0.49959189643E+02  0.10429467204E+03  0.14009697292E+03  0.00000000000E+00 0.  1.
        -11    1    3    3    0    0  0.20277020705E+02 -0.32226922178E+02  0.13081167375E+03  0.13624032469E+03  0.00000000000E+00 0.  1.
         11    1    3    3    0    0  0.19228640467E+02  0.28950327227E+02  0.97100501263E+01  0.36085275864E+02  0.00000000000E+00 0. -1.
         21    1    1    2  502  501  0.26657161601E+02  0.93475787080E+02  0.31234606665E+03  0.32712137256E+03  0.00000000000E+00 0. -1.
<scales pt_clust_5="13000.00000" pt_clust_6="13000.00000" pt_clust_7="13000.00000" pt_clust_8="13000.00000" pt_clust_9="97.20251"></scales>
<clustering>
<clus scale="   80.878">  5  6 -1 -1</clus>
<clus scale="   91.533">  7  8 -1 -1</clus>
<clus scale="   97.203">  1  9  2 -1</clus>
<clus scale="  105.678">  1  5  2 -1</clus>
<clus scale="   97.203">  1  5  2 -1</clus>
</clustering>
</event>
<event>
 9    1  0.1973774E-005  0.1289593E+03  0.7546771E-02  0.1229512E+00
         -2   -1    0    0    0  501 -0.00000000000E+00  0.00000000000E+00  0.68103338707E+03  0.68103338707E+03  0.00000000000E+00 0.  1.
          1   -1    0    0  502    0  0.00000000000E+00 -0.00000000000E+00 -0.12037893473E+03  0.12037893473E+03  0.00000000000E+00 0. -1.
        -24    2    1    2    0    0 -0.84452525796E+02 -0.45079428644E+02  0.57010042852E+03  0.58461548775E+03  0.87157248264E+02 0.  0.
         23    2    1    2    0    0  0.64847377313E+02  0.49945240457E+02  0.66602294908E+02  0.13811152725E+03  0.89102294494E+02 0.  0.
         13    1    3    3    0    0 -0.51284930365E+02  0.14841020437E+02  0.15583375482E+03  0.16472570871E+03  0.00000000000E+00 0. -1.
        -14    1    3    3    0    0 -0.33167595431E+02 -0.59920449081E+02  0.41426667370E+03  0.41988977904E+03  0.00000000000E+00 0.  1.
        -11    1    4    4    0    0  0.37857967494E+01  0.53759985363E+02  0.52687031739E+02  0.75368372656E+02  0.00000000000E+00 0. -1.
         11    1    4    4    0    0  0.61061580563E+02 -0.38147449064E+01  0.13915263169E+02  0.62743154596E+02  0.00000000000E+00 0.  1.
         21    1    1    2  502  501  0.19605148484E+02 -0.48658118131E+01 -0.76048271086E+02  0.78685306804E+02  0.00000000000E+00 0. -1.
<scales pt_clust_5="13000.00000" pt_clust_6="13000.00000" pt_clust_7="13000.00000" pt_clust_8="13000.00000" pt_clust_9="20.19995"></scales>
<clustering>
<clus scale="   20.200">  2  9  1 -1</clus>
<clus scale="   87.157">  5  6 -1 -1</clus>
<clus scale="   89.102">  7  8 -1 -1</clus>
<clus scale="  127.623">  1  5  2 -1</clus>
<clus scale="   20.200">  2  5  1 -1</clus>
</clustering>
</event>
<event>
 9    1  0.1973774E-005  0.1387582E+03  0.7546771E-02  0.1218061E+00
         -2   -1    0    0    0  501 -0.00000000000E+00  0.00000000000E+00  0.82530946484E+03  0.82530946484E+03  0.00000000000E+00 0.  1.
          1   -1    0    0  502    0  0.00000000000E+00 -0.00000000000E+00 -0.55081786315E+02  0.55081786315E+02  0.00000000000E+00 0. -1.
        -24    2    1    2    0    0  0.20028955150E+02 -0.93682927186E+02  0.44325723226E+03  0.46510217037E+03  0.10327344790E+03 0.  0.
         23    2    1    2    0    0 -0.77790541073E+02  0.64309439935E+02  0.32283988823E+03  0.35035631501E+03  0.91306525996E+02 0.  0.
         11    1    3    3    0    0 -0.16672605242E+02 -0.38768370343E+02  0.46137311799E+02  0.62526904966E+02  0.00000000000E+00 0. -1.
        -12    1    3    3    0    0  0.36701560392E+02 -0.54914556843E+02  0.39711992046E+03  0.40257526540E+03  0.00000000000E+00 0.  1.
        -11    1    4    4    0    0 -0.23297424426E+02  0.75314142438E+02  0.21563702854E+03  0.22959598889E+03  0.00000000000E+00 0.  1.
         11    1    4    4    0    0 -0.54493116648E+02 -0.11004702504E+02  0.10720285969E+03  0.12076032612E+03  0.00000000000E+00 0. -1.
         21    1    1    2  502  501  0.57761585924E+02  0.29373487251E+02  0.41305580374E+01  0.64932765777E+02  0.00000000000E+00 0.  1.
<scales pt_clust_5="13000.00000" pt_clust_6="13000.00000" pt_clust_7="13000.00000" pt_clust_8="13000.00000" pt_clust_9="64.80125"></scales>
<clustering>
<clus scale="   64.801">  2  9  1 -1</clus>
<clus scale="   91.307">  7  8 -1 -1</clus>
<clus scale="  103.273">  5  6 -1 -1</clus>
<clus scale="  130.097">  2  7  1 -1</clus>
<clus scale="   64.801">  2  5  1 -1</clus>
</clustering>
</event>
<event>
 9    1  0.1973774E-005  0.1689055E+03  0.7546771E-02  0.1187250E+00
         -2   -1    0    0    0  501 -0.00000000000E+00  0.00000000000E+00  0.55457346479E+02  0.55457346479E+02  0.00000000000E+00 0.  1.
          1   -1    0    0  502    0  0.00000000000E+00 -0.00000000000E+00 -0.65617306267E+03  0.65617306267E+03  0.00000000000E+00 0. -1.
        -24    2    1    2    0    0  0.10566619967E+03  0.50140099678E+02 -0.92036700003E+02  0.16915959763E+03  0.80404228585E+02 0.  0.
         23    2    1    2    0    0 -0.10605540529E+03 -0.28552084422E+02 -0.46914357522E+03  0.49742366981E+03  0.12357848762E+03 0.  0.
         11    1    3    3    0    0  0.48829314790E+02  0.10843599560E+02 -0.86396386467E+02  0.99830963277E+02  0.00000000000E+00 0. -1.
        -12    1    3    3    0    0  0.56836884881E+02  0.39296500118E+02 -0.56403135358E+01  0.69328634353E+02  0.00000000000E+00 0.  1.
        -11    1    4    4    0    0 -0.70841823281E+02  0.40785510186E+02 -0.17461811633E+03  0.19280432650E+03  0.00000000000E+00 0.  1.
         11    1    4    4    0    0 -0.35213582007E+02 -0.69337594609E+02 -0.29452545888E+03  0.30461934330E+03  0.00000000000E+00 0. -1.
         21    1    1    2  502  501  0.38920561761E+00 -0.21588015256E+02 -0.39535440971E+02  0.45047141713E+02  0.00000000000E+00 0.  1.
<scales pt_clust_5="13000.00000" pt_clust_6="13000.00000" pt_clust_7="13000.00000" pt_clust_8="13000.00000" pt_clust_9="21.59152"></scales>
<clustering>
<clus scale="   21.592">  2  9  1 -1</clus>
<clus scale="   80.404">  5  6 -1 -1</clus>
<clus scale="  123.578">  7  8 -1 -1</clus>
<clus scale="  140.436">  1  5  2 -1</clus>
<clus scale="   21.592">  2  5  1 -1</clus>
</clustering>
</event>
<event>
 9    1  0.1973774E-005  0.1236511E+03  0.7546771E-02  0.1240366E+00
         -4   -1    0    0    0  501 -0.00000000000E+00  0.00000000000E+00  0.98425824014E+02  0.98425824014E+02  0.00000000000E+00 0.  1.
          3   -1    0    0  502    0  0.00000000000E+00 -0.00000000000E+00 -0.19095866220E+03  0.19095866220E+03  0.00000000000E+00 0. -1.
         23    2    1    2    0    0 -0.87622383725E+02  0.15900048232E+02  0.50223206040E+00  0.12710679746E+03  0.90693947215E+02 0.  0.
        -24    2    1    2    0    0  0.71659973588E+02 -0.28608999323E+02 -0.68872128875E+02  0.13065232376E+03  0.79831277770E+02 0.  0.
         13    1    4    4    0    0  0.37318343722E+02 -0.49230711377E+02 -0.66137905923E+02  0.90501626067E+02  0.00000000000E+00 0. -1.
        -14    1    4    4    0    0  0.34341629866E+02  0.20621712053E+02 -0.27342229513E+01  0.40150697690E+02  0.00000000000E+00 0.  1.
        -11    1    3    3    0    0 -0.47541652372E+02 -0.35524600697E+02  0.12912960044E+02  0.60736731077E+02  0.00000000000E+00 0.  1.
         11    1    3    3    0    0 -0.40080731353E+02  0.51424648928E+02 -0.12410727983E+02  0.66370066387E+02  0.00000000000E+00 0. -1.
         21    1    1    2  502  501  0.15962410136E+02  0.12708951092E+02 -0.24162941373E+02  0.31625364994E+02  0.00000000000E+00 0. -1.
<scales pt_clust_5="13000.00000" pt_clust_6="13000.00000" pt_clust_7="13000.00000" pt_clust_8="13000.00000" pt_clust_9="20.40382"></scales>
<clustering>
<clus scale="   20.404">  2  9  1 -1</clus>
<clus scale="   79.831">  5  6 -1 -1</clus>
<clus scale="   90.694">  7  8 -1 -1</clus>
<clus scale="  115.919">  2  5  1 -1</clus>
<clus scale="   20.404">  2  5  1 -1</clus>
</clustering>
</event>
<event>
 9    1  0.1973774E-005  0.1046317E+03  0.7546771E-02  0.1283036E+00
         -2   -1    0    0    0  501 -0.00000000000E+00  0.00000000000E+00  0.24663706096E+03  0.24663706096E+03  0.00000000000E+00 0.  1.
          1   -1    0    0  502    0  0.00000000000E+00 -0.00000000000E+00 -0.18844240932E+03  0.18844240932E+03  0.00000000000E+00 0. -1.
         23    2    1    2    0    0 -0.17929337824E+02 -0.15832636803E+02  0.21696974652E+03  0.24093195335E+03  0.10198137917E+03 0.  0.
        -24    2    1    2    0    0 -0.43495955554E+01  0.29359864650E+02 -0.13075059551E+03  0.15587599578E+03  0.79502749644E+02 0.  0.
         13    1    4    4    0    0  0.19143692835E+02  0.46605279746E+02 -0.54377161688E+02  0.74131024469E+02  0.00000000000E+00 0. -1.
        -14    1    4    4    0    0 -0.23493288390E+02 -0.17245415096E+02 -0.76373433824E+02  0.81744971315E+02  0.00000000000E+00 0.  1.
        -13    1    3    3    0    0 -0.88622916655E+01  0.40852899283E+02  0.13140574938E+03  0.13789478077E+03  0.00000000000E+00 0.  1.
         13    1    3    3    0    0 -0.90670461589E+01 -0.56685536086E+02  0.85563997141E+02  0.10303717258E+03  0.00000000000E+00 0. -1.
         21    1    1    2  502  501  0.22278933380E+02 -0.13527227847E+02 -0.28024499363E+02  0.38271521140E+02  0.00000000000E+00 0.  1.
<scales pt_clust_5="13000.00000" pt_clust_6="13000.00000" pt_clust_7="13000.00000" pt_clust_8="13000.00000" pt_clust_9="26.06409"></scales>
<clustering>
<clus scale="   26.064">  2  9  1 -1</clus>
<clus scale="   79.503">  5  6 -1 -1</clus>
<clus scale="   82.875">  2  5  1 -1</clus>
<clus scale="  101.981">  7  8 -1 -1</clus>
<clus scale="   26.064">  2  5  1 -1</clus>
</clustering>
</event>
<event>
 9    1  0.1973774E-005  0.9983474E+02  0.7546771E-02  0.1283157E+00
         -2   -1    0    0    0  501 -0.00000000000E+00  0.00000000000E+00  0.58910035739E+02  0.58910035739E+02  0.00000000000E+00 0.  1.
          1   -1    0    0  502    0  0.00000000000E+00 -0.00000000000E+00 -0.35478469696E+03  0.35478469696E+03  0.00000000000E+00 0. -1.
        -24    2    1    2    0    0 -0.30115485007E+02 -0.37912283531E+02 -0.11527146074E+02  0.98984542503E+02  0.85561561921E+02 0.  0.
         23    2    1    2    0    0  0.12364760531E+02  0.49904058063E+01 -0.23867211550E+03  0.25567477383E+03  0.90705125560E+02 0.  0.
         11    1    3    3    0    0 -0.16814511281E+02 -0.55381847309E+02 -0.34358798916E+02  0.67308274855E+02  0.00000000000E+00 0. -1.
        -12    1    3    3    0    0 -0.13300973726E+02  0.17469563778E+02  0.22831652842E+02  0.31676267649E+02  0.00000000000E+00 0.  1.
        -11    1    4    4    0    0 -0.28738579160E+02 -0.26419762200E+02 -0.85166376655E+02  0.93686826605E+02  0.00000000000E+00 0. -1.
         11    1    4    4    0    0  0.41103339690E+02  0.31410168006E+02 -0.15350573885E+03  0.16198794723E+03  0.00000000000E+00 0.  1.
         21    1    1    2  502  501  0.17750724476E+02  0.32921877724E+02 -0.45675399639E+02  0.59035416358E+02  0.00000000000E+00 0.  1.
<scales pt_clust_5="13000.00000" pt_clust_6="13000.00000" pt_clust_7="13000.00000" pt_clust_8="13000.00000" pt_clust_9="37.40238"></scales>
<clustering>
<clus scale="   37.402">  2  9  1 -1</clus>
<clus scale="   85.562">  5  6 -1 -1</clus>
<clus scale="   90.705">  7  8 -1 -1</clus>
<clus scale="   95.186">  1  5  2 -1</clus>
<clus scale="   37.402">  2  5  1 -1</clus>
</clustering>
</event>
<event>
 9    1  0.1973774E-005  0.1311656E+03  0.7546771E-02  0.1228799E+00
         -2   -1    0    0    0  501 -0.00000000000E+00  0.00000000000E+00  0.10351376742E+03  0.10351376742E+03  0.00000000000E+00 0.  1.
          1   -1    0    0  502    0  0.00000000000E+00 -0.00000000000E+00 -0.45607360331E+03  0.45607360331E+03  0.00000000000E+00 0. -1.
         23    2    1    2    0    0 -0.21228959129E+02 -0.11385480856E+03  0.23888482092E+02  0.14807522437E+03  0.89118047308E+02 0.  0.
        -24    2    1    2    0    0  0.26796627959E+02  0.90168743254E+02 -0.36492794201E+03  0.38459100804E+03  0.76742290031E+02 0.  0.
         11    1    4    4    0    0  0.22520205924E+02  0.10225676225E+03 -0.34764450951E+03  0.36307066818E+03  0.00000000000E+00 0. -1.
        -12    1    4    4    0    0  0.42764220353E+01 -0.12088019001E+02 -0.17283432494E+02  0.21520339857E+02  0.00000000000E+00 0.  1.
        -11    1    3    3    0    0  0.30876574343E+02 -0.14888669812E+02  0.48041914389E+01  0.34613806310E+02  0.00000000000E+00 0. -1.
         11    1    3    3    0    0 -0.52105533472E+02 -0.98966138752E+02  0.19084290653E+02  0.11346141806E+03  0.00000000000E+00 0.  1.
         21    1    1    2  502  501 -0.55676688304E+01  0.23686065310E+02 -0.11520375981E+02  0.26921138327E+02  0.00000000000E+00 0. -1.
<scales pt_clust_5="13000.00000" pt_clust_6="13000.00000" pt_clust_7="13000.00000" pt_clust_8="13000.00000" pt_clust_9="24.33164"></scales>
<clustering>
<clus scale="   24.332">  1  9  2 -1</clus>
<clus scale="   76.742">  5  6 -1 -1</clus>
<clus scale="   89.118">  7  8 -1 -1</clus>
<clus scale="  123.092">  2  5  1 -1</clus>
<clus scale="  123.092">  2  5  1 -1</clus>
</clustering>
</event>
<event>
 9    1  0.1973774E-005  0.2462894E+03  0.7546771E-02  0.1116021E+00
          1   -1    0    0  502    0  0.00000000000E+00  0.00000000000E+00  0.62361529089E+03  0.62361529089E+03  0.00000000000E+00 0. -1.
         -2   -1    0    0    0  501 -0.00000000000E+00 -0.00000000000E+00 -0.67154227826E+03  0.67154227826E+03  0.00000000000E+00 0.  1.
         23    2    1    2    0    0 -0.47568155637E+02 -0.23252910193E+03 -0.52715476411E+03  0.58529382490E+03  0.91346611708E+02 0.  0.
        -24    2    1    2    0    0 -0.51227223001E+02  0.20457871783E+03  0.80873938422E+01  0.22766564057E+03  0.85378907168E+02 0.  0.
         13    1    4    4    0    0 -0.27370031282E+02  0.21101049283E+02 -0.20897858061E+02  0.40386796911E+02  0.00000000000E+00 0. -1.
        -14    1    4    4    0    0 -0.23857191719E+02  0.18347766855E+03  0.28985251903E+02  0.18727884365E+03  0.00000000000E+00 0.  1.
        -11    1    3    3    0    0 -0.52489790178E+02 -0.18041192665E+03 -0.47751559776E+03  0.51315181716E+03  0.00000000000E+00 0.  1.
         11    1    3    3    0    0  0.49216345410E+01 -0.52117175271E+02 -0.49639166350E+02  0.72142007739E+02  0.00000000000E+00 0. -1.
         21    1    1    2  502  501  0.98795378638E+02  0.27950384095E+02  0.47114038289E+03  0.48219810369E+03  0.00000000000E+00 0. -1.
<scales pt_clust_5="13000.00000" pt_clust_6="13000.00000" pt_clust_7="13000.00000" pt_clust_8="13000.00000" pt_clust_9="102.67303"></scales>
<clustering>
<clus scale="   85.379">  5  6 -1 -1</clus>
<clus scale="   91.347">  7  8 -1 -1</clus>
<clus scale="  102.673">  1  9  2 -1</clus>
<clus scale="  244.139">  1  5  2 -1</clus>
<clus scale="  102.673">  1  5  2 -1</clus>
</clustering>
</event>
<event>
 9    1  0.1973774E-005  0.1030594E+03  0.7546771E-02  0.1280767E+00
         -2   -1    0    0    0  501 -0.00000000000E+00  0.00000000000E+00  0.50562651840E+02  0.50562651840E+02  0.00000000000E+00 0.  1.
          1   -1    0    0  502    0  0.00000000000E+00 -0.00000000000E+00 -0.40332880721E+03  0.40332880721E+03  0.00000000000E+00 0. -1.
        -24    2    1    2    0    0 -0.18967650706E+02  0.35844558213E+02 -0.20999619899E+02  0.94541876719E+02  0.82780301345E+02 0.  0.
         23    2    1    2    0    0  0.24310089947E+02 -0.13003493289E+02 -0.18193673042E+03  0.20769462401E+03  0.96312053518E+02 0.  0.
         13    1    3    3    0    0  0.20935244132E+02  0.42632283883E+02  0.28169146913E+01  0.47578683087E+02  0.00000000000E+00 0. -1.
        -14    1    3    3    0    0 -0.39902894837E+02 -0.67877256702E+01 -0.23816534590E+02  0.46963193631E+02  0.00000000000E+00 0.  1.
        -13    1    4    4    0    0 -0.16172691363E+02 -0.42207524294E+02 -0.54341019202E+02  0.70682228466E+02  0.00000000000E+00 0.  1.
         13    1    4    4    0    0  0.40482781311E+02  0.29204031005E+02 -0.12759571122E+03  0.13701239554E+03  0.00000000000E+00 0. -1.
         21    1    1    2  502  501 -0.53424392418E+01 -0.22841064924E+02 -0.14982980505E+03  0.15165495833E+03  0.00000000000E+00 0.  1.
<scales pt_clust_5="13000.00000" pt_clust_6="13000.00000" pt_clust_7="13000.00000" pt_clust_8="13000.00000" pt_clust_9="23.45753"></scales>
<clustering>
<clus scale="   23.458">  2  9  1 -1</clus>
<clus scale="   82.780">  5  6 -1 -1</clus>
<clus scale="   90.542">  1  5  2 -1</clus>
<clus scale="   96.312">  7  8 -1 -1</clus>
<clus scale="   23.458">  2  5  1 -1</clus>
</clustering>
</event>
<event>
 9    1  0.1973774E-005  0.1402229E+03  0.7546771E-02  0.1215532E+00
          1   -1    0    0  502    0  0.00000000000E+00  0.00000000000E+00  0.22212914085E+03  0.22212914085E+03  0.00000000000E+00 0. -1.
         -2   -1    0    0    0  501 -0.00000000000E+00 -0.00000000000E+00 -0.12368527858E+03  0.12368527858E+03  0.00000000000E+00 0.  1.
         23    2    1    2    0    0 -0.45925031100E+02 -0.10475869930E+03 -0.24524324684E+02  0.14850595983E+03  0.91482698050E+02 0.  0.
        -24    2    1    2    0    0  0.48656836317E+02  0.78540555953E+02  0.77278291798E+02  0.14455980729E+03  0.79934328370E+02 0.  0.
         11    1    4    4    0    0  0.61260975317E+02  0.38600631720E+02  0.72400724837E+02  0.10239521875E+03  0.00000000000E+00 0. -1.
        -12    1    4    4    0    0 -0.12604139000E+02  0.39939924233E+02  0.48775669607E+01  0.42164588544E+02  0.00000000000E+00 0.  1.
        -11    1    3    3    0    0  0.62453013808E+01 -0.89031668443E+02 -0.28972992544E+02  0.93835366851E+02  0.00000000000E+00 0.  1.
         11    1    3    3    0    0 -0.52170332480E+02 -0.15727030859E+02  0.44486678607E+01  0.54670592977E+02  0.00000000000E+00 0. -1.
         21    1    1    2  502  501 -0.27318052177E+01  0.26218143349E+02  0.45689895160E+02  0.52748652306E+02  0.00000000000E+00 0. -1.
<scales pt_clust_5="13000.00000" pt_clust_6="13000.00000" pt_clust_7="13000.00000" pt_clust_8="13000.00000" pt_clust_9="26.36008"></scales>
<clustering>
<clus scale="   26.360">  1  9  2 -1</clus>
<clus scale="   79.934">  5  6 -1 -1</clus>
<clus scale="   91.483">  7  8 -1 -1</clus>
<clus scale="  132.977">  1  5  2 -1</clus>
<clus scale="   26.360">  1  5  2 -1</clus>
</clustering>
</event>
<event>
 9    1  0.1973774E-005  0.1105826E+03  0.7546771E-02  0.1266953E+00
          1   -1    0    0  502    0  0.00000000000E+00  0.00000000000E+00  0.76323931131E+02  0.76323931131E+02  0.00000000000E+00 0. -1.
         -2   -1    0    0    0  501 -0.00000000000E+00 -0.00000000000E+00 -0.20683370979E+03  0.20683370979E+03  0.00000000000E+00 0.  1.
         23    2    1    2    0    0  0.52510045035E+02  0.18906079453E+02 -0.11204834163E+03  0.15509634872E+03  0.91571293830E+02 0.  0.
        -24    2    1    2    0    0 -0.73846483098E+02 -0.16942755033E+02 -0.12208595671E+02  0.10574098179E+03  0.72744384026E+02 0.  0.
         13    1    4    4    0    0 -0.40316548187E+02 -0.19907079288E+02  0.28257042320E+02  0.53105332163E+02  0.00000000000E+00 0. -1.
        -14    1    4    4    0    0 -0.33529934912E+02  0.29643242549E+01 -0.40465637991E+02  0.52635649626E+02  0.00000000000E+00 0.  1.
        -11    1    3    3    0    0  0.37600077605E+02  0.39684183898E+01 -0.12482458782E+03  0.13042504325E+03  0.00000000000E+00 0.  1.
         11    1    3    3    0    0  0.14909967430E+02  0.14937661063E+02  0.12776246195E+02  0.24671305471E+02  0.00000000000E+00 0. -1.
         21    1    1    2  502  501  0.21336438063E+02 -0.19633244200E+01 -0.62528413607E+01  0.22320310416E+02  0.00000000000E+00 0.  1.
<scales pt_clust_5="13000.00000" pt_clust_6="13000.00000" pt_clust_7="13000.00000" pt_clust_8="13000.00000" pt_clust_9="21.42658"></scales>
<clustering>
<clus scale="   21.427">  1  9  2 -1</clus>
<clus scale="   72.744">  5  6 -1 -1</clus>
<clus scale="   91.571">  7  8 -1 -1</clus>
<clus scale="   95.577">  1  5  2 -1</clus>
<clus scale="   21.427">  1  5  2 -1</clus>
</clustering>
</event>
<event>
 9    1  0.1973774E-005  0.1096254E+03  0.7546771E-02  0.1265088E+00
          3   -1    0    0  502    0  0.00000000000E+00  0.00000000000E+00  0.34905458551E+03  0.34905458551E+03  0.00000000000E+00 0. -1.
         -4   -1    0    0    0  501 -0.00000000000E+00 -0.00000000000E+00 -0.62004778908E+02  0.62004778908E+02  0.00000000000E+00 0.  1.
        -24    2    1    2    0    0 -0.46238721191E+02 -0.29595131874E+02  0.15073475941E+02  0.99966720937E+02  0.82172041777E+02 0.  0.
         23    2    1    2    0    0  0.66167630080E+02  0.40292805881E+02  0.18006994475E+03  0.21644389595E+03  0.91766604026E+02 0.  0.
         13    1    3    3    0    0 -0.10037916100E+02  0.22528298558E+02  0.25702155719E+02  0.35621409351E+02  0.00000000000E+00 0. -1.
        -14    1    3    3    0    0 -0.36200805090E+02 -0.52123430432E+02 -0.10628679778E+02  0.64345311585E+02  0.00000000000E+00 0.  1.
        -13    1    4    4    0    0  0.73472362655E+01 -0.24084089684E+02  0.13847541752E+02  0.28736382327E+02  0.00000000000E+00 0.  1.
         13    1    4    4    0    0  0.58820393815E+02  0.64376895565E+02  0.16622240300E+03  0.18770751362E+03  0.00000000000E+00 0. -1.
         21    1    1    2  502  501 -0.19928908890E+02 -0.10697674007E+02  0.91906385911E+02  0.94648747535E+02  0.00000000000E+00 0. -1.
<scales pt_clust_5="13000.00000" pt_clust_6="13000.00000" pt_clust_7="13000.00000" pt_clust_8="13000.00000" pt_clust_9="22.61861"></scales>
<clustering>
<clus scale="   22.619">  1  9  2 -1</clus>
<clus scale="   82.172">  5  6 -1 -1</clus>
<clus scale="   91.767">  7  8 -1 -1</clus>
<clus scale="  101.729">  2  5  1 -1</clus>
<clus scale="   22.619">  1  5  2 -1</clus>
</clustering>
</event>
<event>
 9    1  0.1973774E-005  0.1055861E+03  0.7546771E-02  0.1273434E+00
         -2   -1    0    0    0  501 -0.00000000000E+00  0.00000000000E+00  0.30601244100E+03  0.30601244100E+03  0.00000000000E+00 0.  1.
          1   -1    0    0  502    0  0.00000000000E+00 -0.00000000000E+00 -0.60593231830E+02  0.60593231830E+02  0.00000000000E+00 0. -1.
        -24    2    1    2    0    0 -0.21658694719E+02 -0.56734896375E+02  0.15644579773E+03  0.18683573781E+03  0.82124038928E+02 0.  0.
         23    2    1    2    0    0  0.15384844053E+02  0.36344700217E+02  0.11064266708E+03  0.14936141744E+03  0.92246423127E+02 0.  0.
         11    1    3    3    0    0 -0.47710876054E+02 -0.56351067306E+02  0.96785372319E+02  0.12173404937E+03  0.00000000000E+00 0. -1.
        -12    1    3    3    0    0  0.26052181335E+02 -0.38382906825E+00  0.59660425416E+02  0.65101688441E+02  0.00000000000E+00 0.  1.
        -11    1    4    4    0    0  0.47554690456E+02  0.28818276504E+02  0.10040307987E+03  0.11477247097E+03  0.00000000000E+00 0.  1.
         11    1    4    4    0    0 -0.32169846403E+02  0.75264237125E+01  0.10239587209E+02  0.34588946467E+02  0.00000000000E+00 0. -1.
         21    1    1    2  502  501  0.62738506651E+01  0.20390196158E+02 -0.21669255644E+02  0.30408517585E+02  0.00000000000E+00 0. -1.
<scales pt_clust_5="13000.00000" pt_clust_6="13000.00000" pt_clust_7="13000.00000" pt_clust_8="13000.00000" pt_clust_9="21.33357"></scales>
<clustering>
<clus scale="   21.334">  2  9  1 -1</clus>
<clus scale="   82.124">  5  6 -1 -1</clus>
<clus scale="   92.246">  7  8 -1 -1</clus>
<clus scale="   96.868">  1  5  2 -1</clus>
<clus scale="   21.334">  2  5  1 -1</clus>
</clustering>
</event>
<event>
 9    1  0.1973774E-005  0.2313318E+03  0.7546771E-02  0.1161516E+00
          1   -1    0    0  502    0  0.00000000000E+00  0.00000000000E+00  0.95973180233E+03  0.95973180233E+03  0.00000000000E+00 0. -1.
         -2   -1    0    0    0  501 -0.00000000000E+00 -0.00000000000E+00 -0.18715876659E+03  0.18715876659E+03  0.00000000000E+00 0.  1.
         23    2    1    2    0    0 -0.17510188389E+03 -0.13132830658E+03 -0.66995250871E+02  0.24652187766E+03  0.91525289802E+02 0.  0.
        -24    2    1    2    0    0  0.53669555240E+02 -0.16719233733E+02  0.50893170613E+03  0.51828959867E+03  0.80328529514E+02 0.  0.
         13    1    4    4    0    0  0.14436451528E+02 -0.46558049392E+02  0.25640864288E+03  0.26100087211E+03  0.00000000000E+00 0. -1.
        -14    1    4    4    0    0  0.39233103712E+02  0.29838815659E+02  0.25252306325E+03  0.25728872657E+03  0.00000000000E+00 0.  1.
        -11    1    3    3    0    0 -0.52435052653E+02 -0.82249835964E+00  0.66592710730E+01  0.52862625185E+02  0.00000000000E+00 0. -1.
         11    1    3    3    0    0 -0.12266683124E+03 -0.13050580822E+03 -0.73654521944E+02  0.19365925247E+03  0.00000000000E+00 0.  1.
         21    1    1    2  502  501  0.12143232865E+03  0.14804754032E+03  0.33063658048E+03  0.38207909258E+03  0.00000000000E+00 0. -1.
<scales pt_clust_5="13000.00000" pt_clust_6="13000.00000" pt_clust_7="13000.00000" pt_clust_8="13000.00000" pt_clust_9="212.45599"></scales>
<clustering>
<clus scale="   80.329">  5  6 -1 -1</clus>
<clus scale="   91.525">  7  8 -1 -1</clus>
<clus scale="   98.044">  1  5  2 -1</clus>
<clus scale="  212.456">  1  9  2 -1</clus>
<clus scale="   98.044">  1  5  2 -1</clus>
</clustering>
</event>
<event>
 9    1  0.1973774E-005  0.1073449E+03  0.7546771E-02  0.1269510E+00
          1   -1    0    0  502    0  0.00000000000E+00  0.00000000000E+00  0.51312593034E+03  0.51312593034E+03  0.00000000000E+00 0. -1.
         -2   -1    0    0    0  501 -0.00000000000E+00 -0.00000000000E+00 -0.32198644187E+02  0.32198644187E+02  0.00000000000E+00 0.  1.
        -24    2    1    2    0    0  0.33612354739E+02 -0.55385367992E+02  0.10367679858E+03  0.14637356183E+03  0.80492308074E+02 0.  0.
         23    2    1    2    0    0 -0.67632860947E+01  0.44859438380E+02  0.29921831715E+03  0.31576034434E+03  0.90082642554E+02 0.  0.
         13    1    3    3    0    0  0.22001465331E+02  0.61087296535E+01  0.73369161919E+02  0.76840191147E+02  0.00000000000E+00 0. -1.
        -14    1    3    3    0    0  0.11610889408E+02 -0.61494097646E+02  0.30307636661E+02  0.69533370680E+02  0.00000000000E+00 0.  1.
        -13    1    4    4    0    0  0.95051114587E+01  0.69421416843E+02  0.18564701236E+03  0.19843007197E+03  0.00000000000E+00 0.  1.
         13    1    4    4    0    0 -0.16268397553E+02 -0.24561978463E+02  0.11357130478E+03  0.11733027237E+03  0.00000000000E+00 0. -1.
         21    1    1    2  502  501 -0.26849068645E+02  0.10525929613E+02  0.78032170420E+02  0.83190668358E+02  0.00000000000E+00 0. -1.
<scales pt_clust_5="13000.00000" pt_clust_6="13000.00000" pt_clust_7="13000.00000" pt_clust_8="13000.00000" pt_clust_9="28.83865"></scales>
<clustering>
<clus scale="   28.839">  1  9  2 -1</clus>
<clus scale="   80.492">  5  6 -1 -1</clus>
<clus scale="   90.083">  7  8 -1 -1</clus>
<clus scale="   99.434">  2  5  1 -1</clus>
<clus scale="   28.839">  1  5  2 -1</clus>
</clustering>
</event>
<event>
 9    1  0.1973774E-005  0.1214419E+03  0.7546771E-02  0.1244080E+00
         -2   -1    0    0    0  501 -0.00000000000E+00  0.00000000000E+00  0.84831974973E+02  0.84831974973E+02  0.00000000000E+00 0.  1.
          1   -1    0    0  502    0  0.00000000000E+00 -0.00000000000E+00 -0.35105700163E+03  0.35105700163E+03  0.00000000000E+00 0. -1.
         23    2    1    2    0    0  0.88007936809E+02 -0.21010188399E+02  0.63472338459E+01  0.12878484192E+03  0.91424412340E+02 0.  0.
        -24    2    1    2    0    0 -0.40818205153E+02  0.25944281048E+02 -0.18520840273E+03  0.20768753804E+03  0.80577474668E+02 0.  0.
         11    1    4    4    0    0 -0.44546567267E+02  0.74197313468E+01 -0.18320113737E+03  0.18868520292E+03  0.00000000000E+00 0. -1.
        -12    1    4    4    0    0  0.37283621139E+01  0.18524549702E+02 -0.20072653622E+01  0.19002335118E+02  0.00000000000E+00 0.  1.
        -11    1    3    3    0    0  0.78378058867E+02 -0.20217931148E+01  0.40723556542E+02  0.88349396244E+02  0.00000000000E+00 0.  1.
         11    1    3    3    0    0  0.96298779421E+01 -0.18988395284E+02 -0.34376322696E+02  0.40435445672E+02  0.00000000000E+00 0. -1.
         21    1    1    2  502  501 -0.47189731656E+02 -0.49340926493E+01 -0.87363857778E+02  0.99416596652E+02  0.00000000000E+00 0. -1.
<scales pt_clust_5="13000.00000" pt_clust_6="13000.00000" pt_clust_7="13000.00000" pt_clust_8="13000.00000" pt_clust_9="47.44698"></scales>
<clustering>
<clus scale="   47.447">  2  9  1 -1</clus>
<clus scale="   80.577">  5  6 -1 -1</clus>
<clus scale="   91.424">  7  8 -1 -1</clus>
<clus scale="  113.501">  2  5  1 -1</clus>
<clus scale="   47.447">  2  5  1 -1</clus>
</clustering>
</event>
<event>
 9    1  0.1973774E-005  0.9823187E+02  0.7546771E-02  0.1301012E+00
         -2   -1    0    0    0  501 -0.00000000000E+00  0.00000000000E+00  0.30187478093E+03  0.30187478093E+03  0.00000000000E+00 0.  1.
          1   -1    0    0  502    0  0.00000000000E+00 -0.00000000000E+00 -0.17867830177E+03  0.17867830177E+03  0.00000000000E+00 0. -1.
        -24    2    1    2    0    0 -0.12231198703E+02 -0.19782768137E+02  0.27263391582E+03  0.28187243253E+03  0.67689408537E+02 0.  0.
         23    2    1    2    0    0  0.37117385685E+02  0.62766950485E+01 -0.11516824655E+03  0.15422714972E+03  0.95421126989E+02 0.  0.
         11    1    3    3    0    0  0.14408124603E+02 -0.35636919623E+02  0.18403912830E+03  0.18801059768E+03  0.00000000000E+00 0. -1.
        -12    1    3    3    0    0 -0.26639323306E+02  0.15854151486E+02  0.88594787515E+02  0.93861834845E+02  0.00000000000E+00 0.  1.
        -13    1    4    4    0    0  0.17437335955E+02  0.22552540223E+02 -0.12397699160E+03  0.12721231152E+03  0.00000000000E+00 0. -1.
         13    1    4    4    0    0  0.19680049730E+02 -0.16275845174E+02  0.88087450513E+01  0.27014838198E+02  0.00000000000E+00 0.  1.
         21    1    1    2  502  501 -0.24886186982E+02  0.13506073089E+02 -0.34269190109E+02  0.44453500463E+02  0.00000000000E+00 0.  1.
<scales pt_clust_5="13000.00000" pt_clust_6="13000.00000" pt_clust_7="13000.00000" pt_clust_8="13000.00000" pt_clust_9="28.31495"></scales>
<clustering>
<clus scale="   28.315">  2  9  1 -1</clus>
<clus scale="   67.689">  5  6 -1 -1</clus>
<clus scale="   71.597">  1  5  2 -1</clus>
<clus scale="   95.421">  7  8 -1 -1</clus>
<clus scale="   28.315">  2  5  1 -1</clus>
</clustering>
</event>
<event>
 9    1  0.1973774E-005  0.1700771E+03  0.7546771E-02  0.1179075E+00
          1   -1    0    0  502    0  0.00000000000E+00  0.00000000000E+00  0.16351158055E+04  0.16351158055E+04  0.00000000000E+00 0. -1.
         -2   -1    0    0    0  501 -0.00000000000E+00 -0.00000000000E+00 -0.53017133003E+02  0.53017133003E+02  0.00000000000E+00 0.  1.
         23    2    1    2    0    0  0.18931478968E+02 -0.11989683360E+03  0.86219472144E+02  0.17431783472E+03  0.90660126413E+02 0.  0.
        -24    2    1    2    0    0  0.85468823152E+01  0.14647813491E+03  0.14085110601E+04  0.14184483494E+04  0.81014937875E+02 0.  0.
         13    1    4    4    0    0  0.22795703732E+02  0.10004223221E+03  0.61916867761E+03  0.62761289317E+03  0.00000000000E+00 0. -1.
        -14    1    4    4    0    0 -0.14248821417E+02  0.46435902704E+02  0.78934238251E+03  0.79083545621E+03  0.00000000000E+00 0.  1.
        -13    1    3    3    0    0  0.38784388584E+02 -0.61916546214E+02  0.59152494692E+01  0.73299915888E+02  0.00000000000E+00 0.  1.
         13    1    3    3    0    0 -0.19852909616E+02 -0.57980287383E+02  0.80304222674E+02  0.10101791883E+03  0.00000000000E+00 0. -1.
         21    1    1    2  502  501 -0.27478361284E+02 -0.26581301315E+02  0.87368140201E+02  0.95366754379E+02  0.00000000000E+00 0. -1.
<scales pt_clust_5="13000.00000" pt_clust_6="13000.00000" pt_clust_7="13000.00000" pt_clust_8="13000.00000" pt_clust_9="38.23122"></scales>
<clustering>
<clus scale="   38.231">  2  9  1 -1</clus>
<clus scale="   81.015">  5  6 -1 -1</clus>
<clus scale="   90.660">  7  8 -1 -1</clus>
<clus scale="  165.137">  1  5  2 -1</clus>
<clus scale="  165.137">  1  5  2 -1</clus>
</clustering>
</event>
<event>
 9    1  0.1973774E-005  0.1382292E+03  0.7546771E-02  0.1218844E+00
          1   -1    0    0  502    0  0.00000000000E+00  0.00000000000E+00  0.22747768958E+03  0.22747768958E+03  0.00000000000E+00 0. -1.
         -2   -1    0    0    0  501 -0.00000000000E+00 -0.00000000000E+00 -0.13551977753E+03  0.13551977753E+03  0.00000000000E+00 0.  1.
        -24    2    1    2    0    0  0.74207812747E+02 -0.54069499104E+02 -0.11837527514E+01  0.12185500672E+03  0.80105750022E+02 0.  0.
         23    2    1    2    0    0 -0.99802984861E+02  0.56055353200E+02  0.35333275525E+01  0.14792920728E+03  0.93636144479E+02 0.  0.
         13    1    3    3    0    0  0.22881714239E+02  0.11990267170E+02  0.23196534780E+02  0.34719138514E+02  0.00000000000E+00 0. -1.
        -14    1    3    3    0    0  0.51326098509E+02 -0.66059766274E+02 -0.24380287532E+02  0.87135868209E+02  0.00000000000E+00 0.  1.
        -13    1    4    4    0    0 -0.26327682865E+02  0.37862399420E+01 -0.39813504903E+02  0.47881078419E+02  0.00000000000E+00 0.  1.
         13    1    4    4    0    0 -0.73475301996E+02  0.52269113258E+02  0.43346832456E+02  0.10004812886E+03  0.00000000000E+00 0. -1.
         21    1    1    2  502  501  0.25595172113E+02 -0.19858540962E+01  0.89608337246E+02  0.93213253113E+02  0.00000000000E+00 0. -1.
<scales pt_clust_5="13000.00000" pt_clust_6="13000.00000" pt_clust_7="13000.00000" pt_clust_8="13000.00000" pt_clust_9="25.67209"></scales>
<clustering>
<clus scale="   25.672">  1  9  2 -1</clus>
<clus scale="   80.106">  5  6 -1 -1</clus>
<clus scale="   93.636">  7  8 -1 -1</clus>
<clus scale="  129.447">  2  5  1 -1</clus>
<clus scale="   25.672">  1  5  2 -1</clus>
</clustering>
</event>
<event>
 9    1  0.1973774E-005  0.1262166E+03  0.7546771E-02  0.1244552E+00
          1   -1    0    0  502    0  0.00000000000E+00  0.00000000000E+00  0.79804248812E+02  0.79804248812E+02  0.00000000000E+00 0. -1.
         -2   -1    0    0    0  501 -0.00000000000E+00 -0.00000000000E+00 -0.42164958455E+03  0.42164958455E+03  0.00000000000E+00 0.  1.
        -24    2    1    2    0    0 -0.39320503478E+02  0.18152004297E+01 -0.21865923946E+03  0.24050041102E+03  0.92082505144E+02 0.  0.
         23    2    1    2    0    0 -0.57379150246E+02  0.52782576308E+02 -0.43854025024E+02  0.12447881743E+03  0.86564618838E+02 0.  0.
         11    1    3    3    0    0 -0.57985591215E+02  0.18856831462E+02 -0.19998911312E+03  0.20907786647E+03  0.00000000000E+00 0. -1.
        -12    1    3    3    0    0  0.18665087737E+02 -0.17041631033E+02 -0.18670126340E+02  0.31422544551E+02  0.00000000000E+00 0.  1.
        -13    1    4    4    0    0  0.14887929854E+02  0.30086509252E+02 -0.34533576493E+02  0.48160319764E+02  0.00000000000E+00 0.  1.
         13    1    4    4    0    0 -0.72267080100E+02  0.22696067055E+02 -0.93204485308E+01  0.76318497671E+02  0.00000000000E+00 0. -1.
         21    1    1    2  502  501  0.96699653724E+02 -0.54597776737E+02 -0.79332071257E+02  0.13647460491E+03  0.00000000000E+00 0.  1.
<scales pt_clust_5="13000.00000" pt_clust_6="13000.00000" pt_clust_7="13000.00000" pt_clust_8="13000.00000" pt_clust_9="91.85428"></scales>
<clustering>
<clus scale="   86.565">  7  8 -1 -1</clus>
<clus scale="   92.083">  5  6 -1 -1</clus>
<clus scale="  100.143">  2  5  1 -1</clus>
<clus scale="   91.854">  2  9  1 -1</clus>
<clus scale="  126.217">  1  5  2 -1</clus>
</clustering>
</event>
<event>
 9    1  0.1973774E-005  0.1499063E+03  0.7546771E-02  0.1203201E+00
          1   -1    0    0  502    0  0.00000000000E+00  0.00000000000E+00  0.12349944568E+03  0.12349944568E+03  0.00000000000E+00 0. -1.
         -2   -1    0    0    0  501 -0.00000000000E+00 -0.00000000000E+00 -0.68613238051E+03  0.68613238051E+03  0.00000000000E+00 0.  1.
         23    2    1    2    0    0 -0.10203207272E+03 -0.59857920760E+02 -0.61164668536E+03  0.63007209889E+03  0.94263818829E+02 0.  0.
        -24    2    1    2    0    0  0.67704142852E+02  0.80543119904E+02  0.41003964582E+02  0.13868869962E+03  0.80512018782E+02 0.  0.
         11    1    4    4    0    0  0.44301954180E+02  0.43943242604E+02  0.64127064108E+02  0.89475985973E+02  0.00000000000E+00 0. -1.
        -12    1    4    4    0    0  0.23402188672E+02  0.36599877300E+02 -0.23123099526E+02  0.49212713649E+02  0.00000000000E+00 0.  1.
        -11    1    3    3    0    0 -0.11864885162E+03 -0.44235292894E+02 -0.54867652667E+03  0.56309878534E+03  0.00000000000E+00 0.  1.
         11    1    3    3    0    0  0.16616778897E+02 -0.15622627866E+02 -0.62970158690E+02  0.66973313550E+02  0.00000000000E+00 0. -1.
         21    1    1    2  502  501  0.34327929871E+02 -0.20685199144E+02  0.80097859516E+01  0.40871027682E+02  0.00000000000E+00 0. -1.
<scales pt_clust_5="13000.00000" pt_clust_6="13000.00000" pt_clust_7="13000.00000" pt_clust_8="13000.00000" pt_clust_9="40.07848"></scales>
<clustering>
<clus scale="   40.078">  1  9  2 -1</clus>
<clus scale="   80.512">  5  6 -1 -1</clus>
<clus scale="   94.264">  7  8 -1 -1</clus>
<clus scale="  141.663">  1  5  2 -1</clus>
<clus scale="   40.078">  1  5  2 -1</clus>
</clustering>
</event>
<event>
 9    1  0.1973774E-005  0.9435965E+02  0.7546771E-02  0.1297969E+00
         -2   -1    0    0    0  501 -0.00000000000E+00  0.00000000000E+00  0.16538961818E+03  0.16538961818E+03  0.00000000000E+00 0.  1.
          1   -1    0    0  502    0  0.00000000000E+00 -0.00000000000E+00 -0.16091038281E+03  0.16091038281E+03  0.00000000000E+00 0. -1.
         23    2    1    2    0    0  0.17041038687E+02  0.29805721951E+01  0.11630126257E+03  0.15037192625E+03  0.93736074804E+02 0.  0.
        -24    2    1    2    0    0  0.69329052565E+01  0.11082568541E+02 -0.11950549359E+03  0.14709133478E+03  0.84754995531E+02 0.  0.
         13    1    4    4    0    0 -0.18474434038E+02  0.41824122374E+02 -0.59440982445E+02  0.74991948364E+02  0.00000000000E+00 0. -1.
        -14    1    4    4    0    0  0.25407339294E+02 -0.30741553833E+02 -0.60064511150E+02  0.72099386417E+02  0.00000000000E+00 0.  1.
        -11    1    3    3    0    0 -0.30507132956E+02  0.92747120105E+01  0.90407561854E+02  0.95865701293E+02  0.00000000000E+00 0. -1.
         11    1    3    3    0    0  0.47548171643E+02 -0.62941398154E+01  0.25893700716E+02  0.54506224960E+02  0.00000000000E+00 0.  1.
         21    1    1    2  502  501 -0.23973943944E+02 -0.14063140736E+02  0.76834663921E+01  0.28836739958E+02  0.00000000000E+00 0.  1.
<scales pt_clust_5="13000.00000" pt_clust_6="13000.00000" pt_clust_7="13000.00000" pt_clust_8="13000.00000" pt_clust_9="27.79428"></scales>
<clustering>
<clus scale="   27.794">  1  9  2 -1</clus>
<clus scale="   84.755">  5  6 -1 -1</clus>
<clus scale="   85.444">  2  5  1 -1</clus>
<clus scale="   93.736">  7  8 -1 -1</clus>
<clus scale="   85.444">  2  5  1 -1</clus>
</clustering>
</event>
<event>
 9    1  0.1973774E-005  0.1377323E+03  0.7546771E-02  0.1231439E+00
         -2   -1    0    0    0  501 -0.00000000000E+00  0.00000000000E+00  0.44820487814E+03  0.44820487814E+03  0.00000000000E+00 0.  1.
          1   -1    0    0  502    0  0.00000000000E+00 -0.00000000000E+00 -0.81498567301E+02  0.81498567301E+02  0.00000000000E+00 0. -1.
         23    2    1    2    0    0 -0.33156324992E+02 -0.98669937316E+02  0.19275167807E+03  0.23719418056E+03  0.90954777090E+02 0.  0.
        -24    2    1    2    0    0  0.59267718514E+02 -0.85401388223E+01  0.19269833983E+02  0.10250086435E+03  0.80929007542E+02 0.  0.
         11    1    4    4    0    0  0.78538320107E+02 -0.97676803924E+01  0.66267284962E+01  0.79420330118E+02  0.00000000000E+00 0. -1.
        -12    1    4    4    0    0 -0.19270601593E+02  0.12275415701E+01  0.12643105487E+02  0.23080534232E+02  0.00000000000E+00 0.  1.
        -11    1    3    3    0    0 -0.49179374296E+02 -0.25414599302E+02  0.12255558848E+03  0.13447819519E+03  0.00000000000E+00 0.  1.
         11    1    3    3    0    0  0.16023049304E+02 -0.73255338015E+02  0.70196089588E+02  0.10271598537E+03  0.00000000000E+00 0. -1.
         21    1    1    2  502  501 -0.26111393522E+02  0.10721007614E+03  0.15468479878E+03  0.19000840053E+03  0.00000000000E+00 0.  1.
<scales pt_clust_5="13000.00000" pt_clust_6="13000.00000" pt_clust_7="13000.00000" pt_clust_8="13000.00000" pt_clust_9="103.42825"></scales>
<clustering>
<clus scale="   80.929">  5  6 -1 -1</clus>
<clus scale="   90.955">  7  8 -1 -1</clus>
<clus scale="  100.673">  2  5  1 -1</clus>
<clus scale="  103.428">  2  9  1 -1</clus>
<clus scale="  100.673">  2  5  1 -1</clus>
</clustering>
</event>
<event>
 9    1  0.1973774E-005  0.1021096E+03  0.7546771E-02  0.1281161E+00
          1   -1    0    0  502    0  0.00000000000E+00  0.00000000000E+00  0.33570794557E+03  0.33570794557E+03  0.00000000000E+00 0. -1.
         -2   -1    0    0    0  501 -0.00000000000E+00 -0.00000000000E+00 -0.84156612791E+02  0.84156612791E+02  0.00000000000E+00 0.  1.
        -24    2    1    2    0    0  0.13722013714E+02 -0.62267378428E+02 -0.14797675247E+02  0.10395159941E+03  0.80755456472E+02 0.  0.
         23    2    1    2    0    0  0.56657646834E+01 -0.43642213766E+01  0.10110648712E+03  0.13669034108E+03  0.91709215938E+02 0.  0.
         13    1    3    3    0    0  0.39475245608E+02 -0.52540164314E+01 -0.10810935758E+02  0.41264706911E+02  0.00000000000E+00 0. -1.
        -14    1    3    3    0    0 -0.25753231894E+02 -0.57013361996E+02 -0.39867394892E+01  0.62686892497E+02  0.00000000000E+00 0.  1.
        -11    1    4    4    0    0  0.15837436275E+02 -0.24328118085E+02 -0.39272107094E+01  0.29293424199E+02  0.00000000000E+00 0.  1.
         11    1    4    4    0    0 -0.10171671592E+02  0.19963896709E+02  0.10503369783E+03  0.10739691688E+03  0.00000000000E+00 0. -1.
         21    1    1    2  502  501 -0.19387778398E+02  0.66631599805E+02  0.16524252090E+03  0.17922261787E+03  0.00000000000E+00 0. -1.
<scales pt_clust_5="13000.00000" pt_clust_6="13000.00000" pt_clust_7="13000.00000" pt_clust_8="13000.00000" pt_clust_9="69.39493"></scales>
<clustering>
<clus scale="   69.395">  1  9  2 -1</clus>
<clus scale="   80.755">  5  6 -1 -1</clus>
<clus scale="   91.709">  7  8 -1 -1</clus>
<clus scale="   92.397">  2  5  1 -1</clus>
<clus scale="   69.395">  1  5  2 -1</clus>
</clustering>
</event>
<event>
 9    1  0.1973774E-005  0.9789866E+02  0.7546771E-02  0.1289548E+00
         -2   -1    0    0    0  501 -0.00000000000E+00  0.00000000000E+00  0.11980409449E+02  0.11980409449E+02  0.00000000000E+00 0.  1.
          1   -1    0    0  502    0  0.00000000000E+00 -0.00000000000E+00 -0.91715233112E+03  0.91715233112E+03  0.00000000000E+00 0. -1.
        -24    2    1    2    0    0 -0.57796099649E+01  0.29683537777E+02 -0.33776913381E+03  0.34896474299E+03  0.82303631698E+02 0.  0.
         23    2    1    2    0    0  0.25987959581E+02 -0.32468414341E+02 -0.48460656801E+03  0.49489580426E+03  0.91371545580E+02 0.  0.
         11    1    3    3    0    0 -0.44033818120E+02  0.15585396181E+02 -0.19215603633E+03  0.19775192543E+03  0.00000000000E+00 0. -1.
        -12    1    3    3    0    0  0.38254208156E+02  0.14098141596E+02 -0.14561309748E+03  0.15121281757E+03  0.00000000000E+00 0.  1.
        -13    1    4    4    0    0  0.59989554570E+02 -0.15240049151E+02 -0.27862022904E+03  0.28541239950E+03  0.00000000000E+00 0.  1.
         13    1    4    4    0    0 -0.34001594989E+02 -0.17228365191E+02 -0.20598633897E+03  0.20948340476E+03  0.00000000000E+00 0. -1.
         21    1    1    2  502  501 -0.20208349616E+02  0.27848765647E+01 -0.82796219847E+02  0.85272193315E+02  0.00000000000E+00 0.  1.
<scales pt_clust_5="13000.00000" pt_clust_6="13000.00000" pt_clust_7="13000.00000" pt_clust_8="13000.00000" pt_clust_9="20.39934"></scales>
<clustering>
<clus scale="   20.399">  1  9  2 -1</clus>
<clus scale="   82.304">  5  6 -1 -1</clus>
<clus scale="   89.495">  1  5  2 -1</clus>
<clus scale="   91.372">  7  8 -1 -1</clus>
<clus scale="   97.899">  2  5  1 -1</clus>
</clustering>
</event>
<event>
 9    1  0.1973774E-005  0.1347722E+03  0.7546771E-02  0.1222775E+00
          3   -1    0    0  502    0  0.00000000000E+00  0.00000000000E+00  0.50273003895E+03  0.50273003895E+03  0.00000000000E+00 0. -1.
         -4   -1    0    0    0  501 -0.00000000000E+00 -0.00000000000E+00 -0.69185658810E+02  0.69185658810E+02  0.00000000000E+00 0.  1.
         23    2    1    2    0    0  0.29164345801E+02  0.99262240833E+02  0.46587056429E+02  0.14524696950E+03  0.90679528021E+02 0.  0.
        -24    2    1    2    0    0 -0.51298388032E+02 -0.79206712842E+02  0.18811603760E+03  0.22559660912E+03  0.81246282827E+02 0.  0.
         13    1    4    4    0    0 -0.35290383170E+01 -0.66645589404E+02  0.14658740300E+03  0.16106506578E+03  0.00000000000E+00 0. -1.
        -14    1    4    4    0    0 -0.47769349715E+02 -0.12561123438E+02  0.41528634600E+02  0.64531543341E+02  0.00000000000E+00 0.  1.
        -13    1    3    3    0    0  0.53332763350E+02  0.97060901050E+02  0.26826871665E+02  0.11395123169E+03  0.00000000000E+00 0.  1.
         13    1    3    3    0    0 -0.24168417550E+02  0.22013397827E+01  0.19760184764E+02  0.31295737818E+02  0.00000000000E+00 0. -1.
         21    1    1    2  502  501  0.22134042231E+02 -0.20055527991E+02  0.19884128611E+03  0.20107211913E+03  0.00000000000E+00 0. -1.
<scales pt_clust_5="13000.00000" pt_clust_6="13000.00000" pt_clust_7="13000.00000" pt_clust_8="13000.00000" pt_clust_9="29.86871"></scales>
<clustering>
<clus scale="   29.869">  1  9  2 -1</clus>
<clus scale="   81.246">  5  6 -1 -1</clus>
<clus scale="   90.680">  7  8 -1 -1</clus>
<clus scale="  128.615">  1  5  2 -1</clus>
<clus scale="   29.869">  1  5  2 -1</clus>
</clustering>
</event>
<event>
 9    1  0.1973774E-005  0.1453477E+03  0.7546771E-02  0.1208532E+00
          1   -1    0    0  502    0  0.00000000000E+00  0.00000000000E+00  0.85292359489E+03  0.85292359489E+03  0.00000000000E+00 0. -1.
         -2   -1    0    0    0  501 -0.00000000000E+00 -0.00000000000E+00 -0.57524179823E+02  0.57524179823E+02  0.00000000000E+00 0.  1.
         23    2    1    2    0    0 -0.83913529076E+02 -0.11043475952E+03  0.11474689836E+03  0.20140695430E+03  0.90336006575E+02 0.  0.
        -24    2    1    2    0    0  0.37585632673E+02  0.64785780247E+02  0.23896742202E+03  0.26259280982E+03  0.78991631684E+02 0.  0.
         11    1    4    4    0    0  0.56448926084E+02  0.63573963711E+02  0.15771534642E+03  0.17917103732E+03  0.00000000000E+00 0. -1.
        -12    1    4    4    0    0 -0.18863293411E+02  0.12118165361E+01  0.81252075598E+02  0.83421772497E+02  0.00000000000E+00 0.  1.
        -13    1    3    3    0    0 -0.40444895145E+02 -0.75438184578E+02  0.11768794960E+03  0.14552375310E+03  0.00000000000E+00 0. -1.
         13    1    3    3    0    0 -0.43468633931E+02 -0.34996574945E+02 -0.29410512406E+01  0.55883201198E+02  0.00000000000E+00 0.  1.
         21    1    1    2  502  501  0.46327896403E+02  0.45648979277E+02  0.44168509469E+03  0.44644801060E+03  0.00000000000E+00 0. -1.
<scales pt_clust_5="13000.00000" pt_clust_6="13000.00000" pt_clust_7="13000.00000" pt_clust_8="13000.00000" pt_clust_9="65.03924"></scales>
<clustering>
<clus scale="   65.039">  1  9  2 -1</clus>
<clus scale="   78.992">  5  6 -1 -1</clus>
<clus scale="   90.336">  7  8 -1 -1</clus>
<clus scale="  138.582">  1  5  2 -1</clus>
<clus scale="   65.039">  1  5  2 -1</clus>
</clustering>
</event>
<event>
 9    1  0.1973774E-005  0.1191151E+03  0.7546771E-02  0.1248568E+00
          1   -1    0    0  502    0  0.00000000000E+00  0.00000000000E+00  0.29736248832E+03  0.29736248832E+03  0.00000000000E+00 0. -1.
         -2   -1    0    0    0  501 -0.00000000000E+00 -0.00000000000E+00 -0.78591762040E+02  0.78591762040E+02  0.00000000000E+00 0.  1.
         23    2    1    2    0    0  0.42993208222E+02 -0.17741141001E+02  0.25747803340E+02  0.10568535878E+03  0.91341565815E+02 0.  0.
        -24    2    1    2    0    0 -0.87373684124E+02  0.19270958245E+02  0.19174247036E+03  0.22584359990E+03  0.78959649000E+02 0.  0.
         11    1    4    4    0    0 -0.86626068261E+02  0.26618165120E+02  0.10463477924E+03  0.13842340642E+03  0.00000000000E+00 0. -1.
        -12    1    4    4    0    0 -0.74761586354E+00 -0.73472068754E+01  0.87107691113E+02  0.87420193487E+02  0.00000000000E+00 0.  1.
        -11    1    3    3    0    0  0.68513727359E+02  0.95042171616E+00  0.27891256539E+02  0.73979431800E+02  0.00000000000E+00 0.  1.
         11    1    3    3    0    0 -0.25520519137E+02 -0.18691562717E+02 -0.21434531982E+01  0.31705926977E+02  0.00000000000E+00 0. -1.
         21    1    1    2  502  501  0.44380475902E+02 -0.15298172433E+01  0.12804525837E+01  0.44425291681E+02  0.00000000000E+00 0.  1.
<scales pt_clust_5="13000.00000" pt_clust_6="13000.00000" pt_clust_7="13000.00000" pt_clust_8="13000.00000" pt_clust_9="44.40683"></scales>
<clustering>
<clus scale="   44.407">  2  9  1 -1</clus>
<clus scale="   78.960">  5  6 -1 -1</clus>
<clus scale="   91.342">  7  8 -1 -1</clus>
<clus scale="  109.908">  1  5  2 -1</clus>
<clus scale="  109.908">  1  5  2 -1</clus>
</clustering>
</event>
<event>
 9    1  0.1973774E-005  0.1459089E+03  0.7546771E-02  0.1206985E+00
          1   -1    0    0  502    0  0.00000000000E+00  0.00000000000E+00  0.14518271046E+03  0.14518271046E+03  0.00000000000E+00 0. -1.
         -2   -1    0    0    0  501 -0.00000000000E+00 -0.00000000000E+00 -0.37210810787E+03  0.37210810787E+03  0.00000000000E+00 0.  1.
        -24    2    1    2    0    0 -0.10452965301E+03  0.60755682869E+02 -0.21846419071E+03  0.26323983849E+03  0.83372109174E+02 0.  0.
         23    2    1    2    0    0  0.10291149754E+03 -0.26174959296E+02 -0.89619396900E+02  0.16581778480E+03  0.90487549616E+02 0.  0.
         13    1    3    3    0    0 -0.65872691864E+02  0.47170379038E+01 -0.54226989194E+02  0.85451906573E+02  0.00000000000E+00 0. -1.
        -14    1    3    3    0    0 -0.38656961145E+02  0.56038644965E+02 -0.16423720151E+03  0.17778793192E+03  0.00000000000E+00 0.  1.
        -11    1    4    4    0    0  0.10162045092E+02 -0.43367512784E+02 -0.36310516239E+02  0.57467050690E+02  0.00000000000E+00 0. -1.
         11    1    4    4    0    0  0.92749452448E+02  0.17192553488E+02 -0.53308880661E+02  0.10835073411E+03  0.00000000000E+00 0.  1.
         21    1    1    2  502  501  0.16181554689E+01 -0.34580723574E+02  0.81158190198E+02  0.88233195035E+02  0.00000000000E+00 0. -1.
<scales pt_clust_5="13000.00000" pt_clust_6="13000.00000" pt_clust_7="13000.00000" pt_clust_8="13000.00000" pt_clust_9="34.61856"></scales>
<clustering>
<clus scale="   34.619">  1  9  2 -1</clus>
<clus scale="   83.372">  5  6 -1 -1</clus>
<clus scale="   90.488">  7  8 -1 -1</clus>
<clus scale="  141.606">  2  5  1 -1</clus>
<clus scale="   34.619">  1  5  2 -1</clus>
</clustering>
</event>
<event>
 9    1  0.1973774E-005  0.9189810E+02  0.7546771E-02  0.1304361E+00
          1   -1    0    0  502    0  0.00000000000E+00  0.00000000000E+00  0.21648325857E+03  0.21648325857E+03  0.00000000000E+00 0. -1.
         -2   -1    0    0    0  501 -0.00000000000E+00 -0.00000000000E+00 -0.66623808686E+02  0.66623808686E+02  0.00000000000E+00 0.  1.
         23    2    1    2    0    0 -0.11735097144E+02  0.12967889704E+02  0.29080388098E+01  0.92046690377E+02  0.90323074855E+02 0.  0.
        -24    2    1    2    0    0 -0.20315856259E+02 -0.25885558490E+02  0.96197602557E+02  0.12965940897E+03  0.80466063924E+02 0.  0.
         11    1    4    4    0    0  0.35271663021E+01  0.20746814387E+02  0.10757811211E+01  0.21071984110E+02  0.00000000000E+00 0. -1.
        -12    1    4    4    0    0 -0.23843022561E+02 -0.46632372877E+02  0.95121821436E+02  0.10858742486E+03  0.00000000000E+00 0.  1.
        -13    1    3    3    0    0 -0.33523311151E+02  0.27478033427E+02  0.31271989850E+02  0.53448966882E+02  0.00000000000E+00 0. -1.
         13    1    3    3    0    0  0.21788214006E+02 -0.14510143723E+02 -0.28363951040E+02  0.38597723496E+02  0.00000000000E+00 0.  1.
         21    1    1    2  502  501  0.32050953403E+02  0.12917668786E+02  0.50753808517E+02  0.61400967906E+02  0.00000000000E+00 0. -1.
<scales pt_clust_5="13000.00000" pt_clust_6="13000.00000" pt_clust_7="13000.00000" pt_clust_8="13000.00000" pt_clust_9="34.55618"></scales>
<clustering>
<clus scale="   34.556">  1  9  2 -1</clus>
<clus scale="   80.466">  5  6 -1 -1</clus>
<clus scale="   82.230">  1  5  2 -1</clus>
<clus scale="   90.323">  7  8 -1 -1</clus>
<clus scale="   34.556">  1  5  2 -1</clus>
</clustering>
</event>
<event>
 9    1  0.1973774E-005  0.9998833E+02  0.7546771E-02  0.1284134E+00
         -2   -1    0    0    0  501 -0.00000000000E+00  0.00000000000E+00  0.20633251784E+03  0.20633251784E+03  0.00000000000E+00 0.  1.
          1   -1    0    0  502    0  0.00000000000E+00 -0.00000000000E+00 -0.75327175448E+02  0.75327175448E+02  0.00000000000E+00 0. -1.
        -24    2    1    2    0    0 -0.37753797259E+02  0.37471643922E+02  0.13019676987E+03  0.16176238173E+03  0.79914929483E+02 0.  0.
         23    2    1    2    0    0  0.26211136139E+02 -0.20839065762E+02  0.14848620396E+02  0.95259969451E+02  0.87935714772E+02 0.  0.
         11    1    3    3    0    0  0.33190934687E+01  0.48891982182E+02  0.45168756625E+02  0.66645771645E+02  0.00000000000E+00 0. -1.
        -12    1    3    3    0    0 -0.41072890727E+02 -0.11420338259E+02  0.85028013241E+02  0.95116610087E+02  0.00000000000E+00 0.  1.
        -11    1    4    4    0    0  0.38213074739E+01  0.33923478271E+02  0.11421374980E+02  0.35997952376E+02  0.00000000000E+00 0.  1.
         11    1    4    4    0    0  0.22389828665E+02 -0.54762544033E+02  0.34272454163E+01  0.59262017075E+02  0.00000000000E+00 0. -1.
         21    1    1    2  502  501  0.11542661120E+02 -0.16632578160E+02 -0.14040047868E+02  0.24637342108E+02  0.00000000000E+00 0. -1.
<scales pt_clust_5="13000.00000" pt_clust_6="13000.00000" pt_clust_7="13000.00000" pt_clust_8="13000.00000" pt_clust_9="20.24539"></scales>
<clustering>
<clus scale="   20.245">  2  9  1 -1</clus>
<clus scale="   79.915">  5  6 -1 -1</clus>
<clus scale="   87.936">  7  8 -1 -1</clus>
<clus scale="   93.013">  1  5  2 -1</clus>
<clus scale="   20.245">  2  5  1 -1</clus>
</clustering>
</event>
<event>
 9    1  0.1973774E-005  0.1014621E+03  0.7546771E-02  0.1281180E+00
         -2   -1    0    0    0  501 -0.00000000000E+00  0.00000000000E+00  0.49972706933E+03  0.49972706933E+03  0.00000000000E+00 0.  1.
          1   -1    0    0  502    0  0.00000000000E+00 -0.00000000000E+00 -0.18879156443E+03  0.18879156443E+03  0.00000000000E+00 0. -1.
         23    2    1    2    0    0  0.48942073588E+02 -0.42039143381E+01  0.45623496208E+03  0.46749334956E+03  0.89368293043E+02 0.  0.
        -24    2    1    2    0    0 -0.21085000310E+02 -0.39687035143E+02 -0.14123018670E+03  0.16888133977E+03  0.80964827487E+02 0.  0.
         11    1    4    4    0    0 -0.11091163600E+02 -0.63129909785E+02 -0.79658971016E+02  0.10224456505E+03  0.00000000000E+00 0. -1.
        -12    1    4    4    0    0 -0.99938367093E+01  0.23442874642E+02 -0.61571215683E+02  0.66636774714E+02  0.00000000000E+00 0.  1.
        -13    1    3    3    0    0  0.71323437681E+02 -0.20324488112E+02  0.34613869122E+03  0.35399450722E+03  0.00000000000E+00 0.  1.
         13    1    3    3    0    0 -0.22381364093E+02  0.16120573774E+02  0.11009627085E+03  0.11349884234E+03  0.00000000000E+00 0. -1.
         21    1    1    2  502  501 -0.27857073278E+02  0.43890949481E+02 -0.40692704802E+01  0.52143944425E+02  0.00000000000E+00 0.  1.
<scales pt_clust_5="13000.00000" pt_clust_6="13000.00000" pt_clust_7="13000.00000" pt_clust_8="13000.00000" pt_clust_9="51.98492"></scales>
<clustering>
<clus scale="   51.985">  2  9  1 -1</clus>
<clus scale="   80.965">  5  6 -1 -1</clus>
<clus scale="   89.368">  7  8 -1 -1</clus>
<clus scale="   94.144">  2  5  1 -1</clus>
<clus scale="   51.985">  2  5  1 -1</clus>
</clustering>
</event>
<event>
 9    1  0.1973774E-005  0.9794833E+02  0.7546771E-02  0.1286278E+00
         -4   -1    0    0    0  501 -0.00000000000E+00  0.00000000000E+00  0.14761371262E+03  0.14761371262E+03  0.00000000000E+00 0.  1.
          3   -1    0    0  502    0  0.00000000000E+00 -0.00000000000E+00 -0.40305539334E+03  0.40305539334E+03  0.00000000000E+00 0. -1.
         23    2    1    2    0    0 -0.50252783946E+02 -0.58928981093E+01  0.12276918881E+03  0.15742176716E+03  0.84553358963E+02 0.  0.
        -24    2    1    2    0    0  0.28947848089E+02  0.41736673156E+01 -0.29719105334E+03  0.30945553335E+03  0.81146826969E+02 0.  0.
         11    1    4    4    0    0  0.54850740718E+01  0.34208347516E+02 -0.60516991109E+02  0.69732369028E+02  0.00000000000E+00 0. -1.
        -12    1    4    4    0    0  0.23462774018E+02 -0.30034680200E+02 -0.23667406223E+03  0.23972316432E+03  0.00000000000E+00 0.  1.
        -11    1    3    3    0    0 -0.65633183677E+01 -0.27313183610E+02  0.99681964320E+02  0.10356438170E+03  0.00000000000E+00 0.  1.
         11    1    3    3    0    0 -0.43689465578E+02  0.21420285500E+02  0.23087224488E+02  0.53857385454E+02  0.00000000000E+00 0. -1.
         21    1    1    2  502  501  0.21304935856E+02  0.17192307937E+01 -0.81019816182E+02  0.83791805450E+02  0.00000000000E+00 0. -1.
<scales pt_clust_5="13000.00000" pt_clust_6="13000.00000" pt_clust_7="13000.00000" pt_clust_8="13000.00000" pt_clust_9="21.37419"></scales>
<clustering>
<clus scale="   21.374">  2  9  1 -1</clus>
<clus scale="   81.147">  5  6 -1 -1</clus>
<clus scale="   84.553">  7  8 -1 -1</clus>
<clus scale="   95.023">  2  5  1 -1</clus>
<clus scale="   21.374">  2  5  1 -1</clus>
</clustering>
</event>
<event>
 9    1  0.1973774E-005  0.9919145E+02  0.7546771E-02  0.1285903E+00
          1   -1    0    0  502    0  0.00000000000E+00  0.00000000000E+00  0.45632567074E+02  0.45632567074E+02  0.00000000000E+00 0. -1.
         -2   -1    0    0    0  501 -0.00000000000E+00 -0.00000000000E+00 -0.83581413450E+03  0.83581413450E+03  0.00000000000E+00 0.  1.
        -24    2    1    2    0    0  0.16641671308E+02 -0.41433799743E+02 -0.75714670095E+03  0.76282057010E+03  0.81427209320E+02 0.  0.
         23    2    1    2    0    0 -0.14327139783E+02  0.20373667144E+02 -0.26169844625E+02  0.96354742510E+02  0.89325373714E+02 0.  0.
         13    1    3    3    0    0  0.10494052660E+01 -0.32599942906E+02 -0.95221605597E+02  0.10065292694E+03  0.00000000000E+00 0. -1.
        -14    1    3    3    0    0  0.15592266042E+02 -0.88338568378E+01 -0.66192509536E+03  0.66216764316E+03  0.00000000000E+00 0.  1.
        -11    1    4    4    0    0  0.88894166236E+01  0.46327247471E+02  0.76774326534E+01  0.47793080653E+02  0.00000000000E+00 0. -1.
         11    1    4    4    0    0 -0.23216556407E+02 -0.25953580327E+02 -0.33847277279E+02  0.48561661857E+02  0.00000000000E+00 0.  1.
         21    1    1    2  502  501 -0.23145315245E+01  0.21060132599E+02 -0.68650218436E+01  0.22271388959E+02  0.00000000000E+00 0.  1.
<scales pt_clust_5="13000.00000" pt_clust_6="13000.00000" pt_clust_7="13000.00000" pt_clust_8="13000.00000" pt_clust_9="21.18694"></scales>
<clustering>
<clus scale="   21.187">  1  9  2 -1</clus>
<clus scale="   81.427">  5  6 -1 -1</clus>
<clus scale="   89.325">  7  8 -1 -1</clus>
<clus scale="   92.143">  2  5  1 -1</clus>
<clus scale="   21.187">  1  5  2 -1</clus>
</clustering>
</event>
<event>
 9    1  0.1973774E-005  0.1339809E+03  0.7546771E-02  0.1225278E+00
         -4   -1    0    0    0  501 -0.00000000000E+00  0.00000000000E+00  0.18653257328E+03  0.18653257328E+03  0.00000000000E+00 0.  1.
          3   -1    0    0  502    0  0.00000000000E+00 -0.00000000000E+00 -0.21127532224E+03  0.21127532224E+03  0.00000000000E+00 0. -1.
        -24    2    1    2    0    0  0.76012472315E+02  0.66033967826E+02  0.12510435582E+03  0.17972443708E+03  0.80693200359E+02 0.  0.
         23    2    1    2    0    0 -0.60543761622E+02 -0.32842173810E+02 -0.89831850341E+02  0.14777835930E+03  0.94997508859E+02 0.  0.
         13    1    3    3    0    0  0.34954770239E+02 -0.13013600236E+02  0.54599999186E+02  0.66123745089E+02  0.00000000000E+00 0. -1.
        -14    1    3    3    0    0  0.41057702075E+02  0.79047568062E+02  0.70504356637E+02  0.11360069199E+03  0.00000000000E+00 0.  1.
        -13    1    4    4    0    0 -0.12057332365E+02  0.18436240990E+02  0.11063653292E+02  0.24651139320E+02  0.00000000000E+00 0.  1.
         13    1    4    4    0    0 -0.48486429257E+02 -0.51278414800E+02 -0.10089550363E+03  0.12312721998E+03  0.00000000000E+00 0. -1.
         21    1    1    2  502  501 -0.15468710692E+02 -0.33191794016E+02 -0.60015254434E+02  0.70305099142E+02  0.00000000000E+00 0. -1.
<scales pt_clust_5="13000.00000" pt_clust_6="13000.00000" pt_clust_7="13000.00000" pt_clust_8="13000.00000" pt_clust_9="36.61934"></scales>
<clustering>
<clus scale="   36.619">  2  9  1 -1</clus>
<clus scale="   80.693">  5  6 -1 -1</clus>
<clus scale="   94.998">  7  8 -1 -1</clus>
<clus scale="  124.249">  1  5  2 -1</clus>
<clus scale="   36.619">  2  5  1 -1</clus>
</clustering>
</event>
<event>
 9    1  0.1973774E-005  0.9354221E+02  0.7546771E-02  0.1300895E+00
          1   -1    0    0  502    0  0.00000000000E+00  0.00000000000E+00  0.95774390979E+02  0.95774390979E+02  0.00000000000E+00 0. -1.
         -2   -1    0    0    0  501 -0.00000000000E+00 -0.00000000000E+00 -0.14392206581E+03  0.14392206581E+03  0.00000000000E+00 0.  1.
        -24    2    1    2    0    0 -0.20232630750E+02  0.20033137658E+02 -0.86353996022E+02  0.12082671600E+03  0.79570074270E+02 0.  0.
         23    2    1    2    0    0  0.21998211141E+01 -0.90252978734E+01  0.26359583962E+02  0.94647851045E+02  0.90427279214E+02 0.  0.
         13    1    3    3    0    0 -0.25870978416E+02 -0.25942766353E+02 -0.26869896634E+02  0.45434854411E+02  0.00000000000E+00 0. -1.
        -14    1    3    3    0    0  0.56383476665E+01  0.45975904011E+02 -0.59484099388E+02  0.75391861590E+02  0.00000000000E+00 0.  1.
        -11    1    4    4    0    0  0.26070686556E+02 -0.26338856847E+02 -0.18142634584E+02  0.41262225669E+02  0.00000000000E+00 0.  1.
         11    1    4    4    0    0 -0.23870865442E+02  0.17313558974E+02  0.44502218546E+02  0.53385625376E+02  0.00000000000E+00 0. -1.
         21    1    1    2  502  501  0.18032809636E+02 -0.11007839785E+02  0.11846737224E+02  0.24221889747E+02  0.00000000000E+00 0.  1.
<scales pt_clust_5="13000.00000" pt_clust_6="13000.00000" pt_clust_7="13000.00000" pt_clust_8="13000.00000" pt_clust_9="21.12711"></scales>
<clustering>
<clus scale="   21.127">  1  9  2 -1</clus>
<clus scale="   79.570">  5  6 -1 -1</clus>
<clus scale="   83.093">  2  5  1 -1</clus>
<clus scale="   90.427">  7  8 -1 -1</clus>
<clus scale="   21.127">  1  5  2 -1</clus>
</clustering>
</event>
<event>
 9    1  0.1973774E-005  0.1616010E+03  0.7546771E-02  0.1190495E+00
          1   -1    0    0  502    0  0.00000000000E+00  0.00000000000E+00  0.37761090220E+03  0.37761090220E+03  0.00000000000E+00 0. -1.
         -2   -1    0    0    0  501 -0.00000000000E+00 -0.00000000000E+00 -0.23296166914E+03  0.23296166914E+03  0.00000000000E+00 0.  1.
         23    2    1    2    0    0  0.44774360002E+02  0.11516480030E+03 -0.16675090808E+03  0.23100097962E+03  0.10142934831E+03 0.  0.
        -24    2    1    2    0    0 -0.19923390938E+02 -0.14289199450E+03  0.18575542531E+03  0.24852594097E+03  0.80280767961E+02 0.  0.
         11    1    4    4    0    0 -0.40484220234E+02 -0.13660469190E+03  0.17033493715E+03  0.22206711767E+03  0.00000000000E+00 0. -1.
        -12    1    4    4    0    0  0.20560829296E+02 -0.62873026026E+01  0.15420488161E+02  0.26458823301E+02  0.00000000000E+00 0.  1.
        -11    1    3    3    0    0 -0.47510970366E+01  0.10901743538E+03 -0.12504710848E+03  0.16596431388E+03  0.00000000000E+00 0.  1.
         11    1    3    3    0    0  0.49525457038E+02  0.61473649156E+01 -0.41703799597E+02  0.65036665744E+02  0.00000000000E+00 0. -1.
         21    1    1    2  502  501 -0.24850969063E+02  0.27727194203E+02  0.12564471583E+03  0.13104565074E+03  0.00000000000E+00 0. -1.
<scales pt_clust_5="13000.00000" pt_clust_6="13000.00000" pt_clust_7="13000.00000" pt_clust_8="13000.00000" pt_clust_9="37.23396"></scales>
<clustering>
<clus scale="   37.234">  1  9  2 -1</clus>
<clus scale="   80.281">  5  6 -1 -1</clus>
<clus scale="  101.429">  7  8 -1 -1</clus>
<clus scale="  149.238">  1  5  2 -1</clus>
<clus scale="   37.234">  1  5  2 -1</clus>
</clustering>
</event>
<event>
 9    1  0.1973774E-005  0.1094555E+03  0.7546771E-02  0.1265414E+00
          1   -1    0    0  502    0  0.00000000000E+00  0.00000000000E+00  0.16444780971E+03  0.16444780971E+03  0.00000000000E+00 0. -1.
         -2   -1    0    0    0  501 -0.00000000000E+00 -0.00000000000E+00 -0.27015807053E+03  0.27015807053E+03  0.00000000000E+00 0.  1.
        -24    2    1    2    0    0 -0.12783104236E+02  0.62278418725E+02 -0.17108013273E+03  0.19954276763E+03  0.80665327772E+02 0.  0.
         23    2    1    2    0    0 -0.14701455389E+02 -0.59532203965E+02 -0.47310266312E+02  0.11904692294E+03  0.90408475620E+02 0.  0.
         11    1    3    3    0    0  0.27928523850E+02  0.70505586631E+01 -0.83235521821E+02  0.88078742695E+02  0.00000000000E+00 0. -1.
        -12    1    3    3    0    0 -0.40711628086E+02  0.55227860062E+02 -0.87844610913E+02  0.11146402494E+03  0.00000000000E+00 0.  1.
        -13    1    4    4    0    0 -0.50470051643E+02 -0.17178492808E+02 -0.17554262546E+02  0.56129126677E+02  0.00000000000E+00 0.  1.
         13    1    4    4    0    0  0.35768596253E+02 -0.42353711157E+02 -0.29756003766E+02  0.62917796265E+02  0.00000000000E+00 0. -1.
         21    1    1    2  502  501  0.27484559625E+02 -0.27462147596E+01  0.11268013823E+03  0.11601618967E+03  0.00000000000E+00 0. -1.
<scales pt_clust_5="13000.00000" pt_clust_6="13000.00000" pt_clust_7="13000.00000" pt_clust_8="13000.00000" pt_clust_9="27.62142"></scales>
<clustering>
<clus scale="   27.621">  1  9  2 -1</clus>
<clus scale="   80.665">  5  6 -1 -1</clus>
<clus scale="   90.408">  7  8 -1 -1</clus>
<clus scale="  101.556">  2  5  1 -1</clus>
<clus scale="   27.621">  1  5  2 -1</clus>
</clustering>
</event>
<event>
 9    1  0.1973774E-005  0.1606899E+03  0.7546771E-02  0.1193466E+00
         -2   -1    0    0    0  501 -0.00000000000E+00  0.00000000000E+00  0.19298346959E+03  0.19298346959E+03  0.00000000000E+00 0.  1.
          1   -1    0    0  502    0  0.00000000000E+00 -0.00000000000E+00 -0.32479387883E+03  0.32479387883E+03  0.00000000000E+00 0. -1.
        -24    2    1    2    0    0  0.28415973394E+02  0.11886503975E+03  0.12866285948E+03  0.19481084574E+03  0.80378908852E+02 0.  0.
         23    2    1    2    0    0  0.86526728955E+01 -0.86654841650E+02 -0.21047826702E+03  0.25288739314E+03  0.10984990846E+03 0.  0.
         13    1    3    3    0    0 -0.26453200334E+01  0.27166714496E+02 -0.69676155810E+01  0.28170476771E+02  0.00000000000E+00 0. -1.
        -14    1    3    3    0    0  0.31061293428E+02  0.91698325254E+02  0.13563047506E+03  0.16664036897E+03  0.00000000000E+00 0.  1.
        -13    1    4    4    0    0 -0.63097382353E+01 -0.10926761236E+03 -0.14235772305E+03  0.17956877574E+03  0.00000000000E+00 0. -1.
         13    1    4    4    0    0  0.14962411131E+02  0.22612770715E+02 -0.68120543970E+02  0.73318617397E+02  0.00000000000E+00 0.  1.
         21    1    1    2  502  501 -0.37068646290E+02 -0.32210198100E+02 -0.49995001699E+02  0.70079109543E+02  0.00000000000E+00 0.  1.
<scales pt_clust_5="13000.00000" pt_clust_6="13000.00000" pt_clust_7="13000.00000" pt_clust_8="13000.00000" pt_clust_9="49.10785"></scales>
<clustering>
<clus scale="   49.108">  2  9  1 -1</clus>
<clus scale="   80.379">  5  6 -1 -1</clus>
<clus scale="  109.850">  7  8 -1 -1</clus>
<clus scale="  142.180">  1  5  2 -1</clus>
<clus scale="   49.108">  2  5  1 -1</clus>
</clustering>
</event>
<event>
 9    1  0.1973774E-005  0.1619318E+03  0.7546771E-02  0.1208888E+00
          1   -1    0    0  502    0  0.00000000000E+00  0.00000000000E+00  0.39266800903E+03  0.39266800903E+03  0.00000000000E+00 0. -1.
         -2   -1    0    0    0  501 -0.00000000000E+00 -0.00000000000E+00 -0.24656718469E+03  0.24656718469E+03  0.00000000000E+00 0.  1.
         23    2    1    2    0    0 -0.36753117069E+02  0.14567256812E+02 -0.15271276577E+03  0.18224274138E+03  0.91259144046E+02 0.  0.
        -24    2    1    2    0    0  0.16247161044E+03  0.31679696224E+02  0.79647263818E+02  0.20013101338E+03  0.79423601856E+02 0.  0.
         11    1    4    4    0    0  0.30792275955E+02  0.40391082851E+02  0.30884662370E+02  0.59442965960E+02  0.00000000000E+00 0. -1.
        -12    1    4    4    0    0  0.13167933449E+03 -0.87113866277E+01  0.48762601448E+02  0.14068804742E+03  0.00000000000E+00 0.  1.
        -11    1    3    3    0    0 -0.10267266277E+02 -0.38000357194E+02 -0.75571879004E+02  0.85208877471E+02  0.00000000000E+00 0.  1.
         11    1    3    3    0    0 -0.26485850792E+02  0.52567614006E+02 -0.77140886762E+02  0.97033863908E+02  0.00000000000E+00 0. -1.
         21    1    1    2  502  501 -0.12571849337E+03 -0.46246953036E+02  0.21916632629E+03  0.25686143895E+03  0.00000000000E+00 0. -1.
<scales pt_clust_5="13000.00000" pt_clust_6="13000.00000" pt_clust_7="13000.00000" pt_clust_8="13000.00000" pt_clust_9="141.11629"></scales>
<clustering>
<clus scale="   79.424">  5  6 -1 -1</clus>
<clus scale="   91.259">  7  8 -1 -1</clus>
<clus scale="   99.455">  2  7  1 -1</clus>
<clus scale="  141.116">  1  9  2 -1</clus>
<clus scale="  141.116">  1  5  2 -1</clus>
</clustering>
</event>
<event>
 9    1  0.1973774E-005  0.1031334E+03  0.7546771E-02  0.1282677E+00
         -2   -1    0    0    0  501 -0.00000000000E+00  0.00000000000E+00  0.77790403587E+02  0.77790403587E+02  0.00000000000E+00 0.  1.
          1   -1    0    0  502    0  0.00000000000E+00 -0.00000000000E+00 -0.28073751809E+03  0.28073751809E+03  0.00000000000E+00 0. -1.
        -24    2    1    2    0    0  0.70926658323E+01  0.29799055862E+02  0.12359774508E+02  0.10580658786E+03  0.10051855735E+03 0.  0.
         23    2    1    2    0    0 -0.90025645831E+01  0.10481724180E+02 -0.17999855942E+03  0.19912220049E+03  0.84019382436E+02 0.  0.
         11    1    3    3    0    0  0.27357548660E+02  0.16008229423E+02 -0.38188047744E+02  0.49628881394E+02  0.00000000000E+00 0. -1.
        -12    1    3    3    0    0 -0.20264882827E+02  0.13790826439E+02  0.50547822252E+02  0.56177706470E+02  0.00000000000E+00 0.  1.
        -13    1    4    4    0    0 -0.13626968286E+02 -0.35961527806E+02 -0.83366270533E+02  0.91808827514E+02  0.00000000000E+00 0. -1.
         13    1    4    4    0    0  0.46244037030E+01  0.46443251986E+02 -0.96632288889E+02  0.10731337298E+03  0.00000000000E+00 0.  1.
         21    1    1    2  502  501  0.19098987509E+01 -0.40280780042E+02 -0.35308329589E+02  0.53599133318E+02  0.00000000000E+00 0. -1.
<scales pt_clust_5="13000.00000" pt_clust_6="13000.00000" pt_clust_7="13000.00000" pt_clust_8="13000.00000" pt_clust_9="40.32603"></scales>
<clustering>
<clus scale="   40.326">  2  9  1 -1</clus>
<clus scale="   84.019">  7  8 -1 -1</clus>
<clus scale="   87.131">  2  7  1 -1</clus>
<clus scale="  100.519">  5  6 -1 -1</clus>
<clus scale="   40.326">  2  5  1 -1</clus>
</clustering>
</event>
<event>
 9    1  0.1973774E-005  0.9843972E+02  0.7546771E-02  0.1290913E+00
          1   -1    0    0  502    0  0.00000000000E+00  0.00000000000E+00  0.17902187134E+03  0.17902187134E+03  0.00000000000E+00 0. -1.
         -2   -1    0    0    0  501 -0.00000000000E+00 -0.00000000000E+00 -0.23003691938E+03  0.23003691938E+03  0.00000000000E+00 0.  1.
        -24    2    1    2    0    0  0.12115235576E+02  0.27915845154E+02 -0.18987756218E+03  0.20843510239E+03  0.80409140942E+02 0.  0.
         23    2    1    2    0    0  0.16786247581E+02 -0.30410659911E+02  0.13946210845E+03  0.17160853121E+03  0.93772181089E+02 0.  0.
         11    1    3    3    0    0  0.44267784127E+02  0.15870211483E+01 -0.92419179146E+02  0.10248638945E+03  0.00000000000E+00 0. -1.
        -12    1    3    3    0    0 -0.32152548551E+02  0.26328824005E+02 -0.97458383031E+02  0.10594871295E+03  0.00000000000E+00 0.  1.
        -11    1    4    4    0    0  0.18494793931E+02  0.18254134549E+02  0.11347683242E+03  0.11641418439E+03  0.00000000000E+00 0. -1.
         11    1    4    4    0    0 -0.17085463492E+01 -0.48664794460E+02  0.25985276028E+02  0.55194346818E+02  0.00000000000E+00 0.  1.
         21    1    1    2  502  501 -0.28901483157E+02  0.24948147572E+01 -0.59959431964E+00  0.29015157120E+02  0.00000000000E+00 0.  1.
<scales pt_clust_5="13000.00000" pt_clust_6="13000.00000" pt_clust_7="13000.00000" pt_clust_8="13000.00000" pt_clust_9="29.00896"></scales>
<clustering>
<clus scale="   29.009">  1  9  2 -1</clus>
<clus scale="   80.409">  5  6 -1 -1</clus>
<clus scale="   85.807">  2  5  1 -1</clus>
<clus scale="   93.772">  7  8 -1 -1</clus>
<clus scale="   29.009">  1  5  2 -1</clus>
</clustering>
</event>
<event>
 9    1  0.1973774E-005  0.1007713E+03  0.7546771E-02  0.1285147E+00
          1   -1    0    0  502    0  0.00000000000E+00  0.00000000000E+00  0.59579913093E+03  0.59579913093E+03  0.00000000000E+00 0. -1.
         -2   -1    0    0    0  501 -0.00000000000E+00 -0.00000000000E+00 -0.15468164887E+03  0.15468164887E+03  0.00000000000E+00 0.  1.
        -24    2    1    2    0    0 -0.34500708976E+02 -0.18185946560E+02 -0.11146201484E+03  0.14284610424E+03  0.80375376648E+02 0.  0.
         23    2    1    2    0    0  0.56128062019E+02 -0.44890970049E+02  0.11327346024E+03  0.16329670323E+03  0.93109494421E+02 0.  0.
         13    1    3    3    0    0  0.22099456905E+02  0.51135265900E+01 -0.11007749173E+02  0.25213184875E+02  0.00000000000E+00 0. -1.
        -14    1    3    3    0    0 -0.56600165881E+02 -0.23299473150E+02 -0.10045426567E+03  0.11763291936E+03  0.00000000000E+00 0.  1.
        -13    1    4    4    0    0 -0.62703252322E+00 -0.58183686645E+02  0.45227476324E+02  0.73697077120E+02  0.00000000000E+00 0.  1.
         13    1    4    4    0    0  0.56755094542E+02  0.13292716596E+02  0.68045983918E+02  0.89599626106E+02  0.00000000000E+00 0. -1.
         21    1    1    2  502  501 -0.21627353044E+02  0.63076916609E+02  0.43930603666E+03  0.44433797233E+03  0.00000000000E+00 0. -1.
<scales pt_clust_5="13000.00000" pt_clust_6="13000.00000" pt_clust_7="13000.00000" pt_clust_8="13000.00000" pt_clust_9="66.68163"></scales>
<clustering>
<clus scale="   66.682">  1  9  2 -1</clus>
<clus scale="   80.375">  5  6 -1 -1</clus>
<clus scale="   89.139">  2  5  1 -1</clus>
<clus scale="   93.109">  7  8 -1 -1</clus>
<clus scale="   66.682">  1  5  2 -1</clus>
</clustering>
</event>
<event>
 9    1  0.1973774E-005  0.9466814E+02  0.7546771E-02  0.1300943E+00
         -2   -1    0    0    0  501 -0.00000000000E+00  0.00000000000E+00  0.20153794409E+03  0.20153794409E+03  0.00000000000E+00 0.  1.
          1   -1    0    0  502    0  0.00000000000E+00 -0.00000000000E+00 -0.37823527343E+03  0.37823527343E+03  0.00000000000E+00 0. -1.
        -24    2    1    2    0    0  0.21788733883E+01  0.56813937076E+01  0.16578110029E+03  0.18410469966E+03  0.79838220812E+02 0.  0.
         23    2    1    2    0    0  0.29904403667E+02 -0.13598470752E+02 -0.72113701400E+02  0.12329175115E+03  0.94452518266E+02 0.  0.
         11    1    3    3    0    0  0.15644632256E+02 -0.33709435912E+02  0.94696457316E+02  0.10172757550E+03  0.00000000000E+00 0. -1.
        -12    1    3    3    0    0 -0.13465758868E+02  0.39390829620E+02  0.71084642970E+02  0.82377124168E+02  0.00000000000E+00 0.  1.
        -11    1    4    4    0    0  0.42243456796E+02  0.31596423189E+02 -0.43680090331E+02  0.68489370647E+02  0.00000000000E+00 0.  1.
         11    1    4    4    0    0 -0.12339053129E+02 -0.45194893941E+02 -0.28433611069E+02  0.54802380504E+02  0.00000000000E+00 0. -1.
         21    1    1    2  502  501 -0.32083277055E+02  0.79170770444E+01 -0.27036472822E+03  0.27237676670E+03  0.00000000000E+00 0. -1.
<scales pt_clust_5="13000.00000" pt_clust_6="13000.00000" pt_clust_7="13000.00000" pt_clust_8="13000.00000" pt_clust_9="33.04568"></scales>
<clustering>
<clus scale="   33.046">  2  9  1 -1</clus>
<clus scale="   79.838">  5  6 -1 -1</clus>
<clus scale="   80.093">  1  5  2 -1</clus>
<clus scale="   94.453">  7  8 -1 -1</clus>
<clus scale="   33.046">  2  5  1 -1</clus>
</clustering>
</event>
<event>
 9    1  0.1973774E-005  0.1111691E+03  0.7546771E-02  0.1267670E+00
         -2   -1    0    0    0  501 -0.00000000000E+00  0.00000000000E+00  0.28595930711E+03  0.28595930711E+03  0.00000000000E+00 0.  1.
          1   -1    0    0  502    0  0.00000000000E+00 -0.00000000000E+00 -0.69709058297E+02  0.69709058297E+02  0.00000000000E+00 0. -1.
        -24    2    1    2    0    0  0.46766974566E+01 -0.41276096362E+02  0.19085025892E+03  0.21155515769E+03  0.81278384471E+02 0.  0.
         23    2    1    2    0    0  0.67959654512E+01  0.61072467755E+02  0.19408319201E+02  0.12046117964E+03  0.10177515160E+03 0.  0.
         11    1    3    3    0    0 -0.26461292205E+02 -0.50758597242E+02  0.10251360517E+03  0.11741241171E+03  0.00000000000E+00 0. -1.
        -12    1    3    3    0    0  0.31137989661E+02  0.94825008803E+01  0.88336653751E+02  0.94142745972E+02  0.00000000000E+00 0.  1.
        -13    1    4    4    0    0 -0.59027574521E+01  0.88232162744E+02  0.19145709069E+02  0.90478258514E+02  0.00000000000E+00 0.  1.
         13    1    4    4    0    0  0.12698722903E+02 -0.27159694989E+02  0.26261013208E+00  0.29982921128E+02  0.00000000000E+00 0. -1.
         21    1    1    2  502  501 -0.11472662908E+02 -0.19796371394E+02  0.59916706862E+01  0.23652028077E+02  0.00000000000E+00 0. -1.
<scales pt_clust_5="13000.00000" pt_clust_6="13000.00000" pt_clust_7="13000.00000" pt_clust_8="13000.00000" pt_clust_9="22.88052"></scales>
<clustering>
<clus scale="   22.881">  2  9  1 -1</clus>
<clus scale="   81.278">  5  6 -1 -1</clus>
<clus scale="   92.772">  1  5  2 -1</clus>
<clus scale="  101.775">  7  8 -1 -1</clus>
<clus scale="   22.881">  2  5  1 -1</clus>
</clustering>
</event>
<event>
 9    1  0.1973774E-005  0.1337532E+03  0.7546771E-02  0.1224202E+00
          1   -1    0    0  502    0  0.00000000000E+00  0.00000000000E+00  0.13186231912E+03  0.13186231912E+03  0.00000000000E+00 0. -1.
         -2   -1    0    0    0  501 -0.00000000000E+00 -0.00000000000E+00 -0.49469610415E+03  0.49469610415E+03  0.00000000000E+00 0.  1.
        -24    2    1    2    0    0  0.90595005896E+02  0.34686119010E+02 -0.40970834137E+03  0.42876440554E+03  0.81039549166E+02 0.  0.
         23    2    1    2    0    0 -0.12103776286E+03 -0.10183481075E+02  0.47822691824E+02  0.15870386962E+03  0.90255554145E+02 0.  0.
         13    1    3    3    0    0 -0.82815610567E+01  0.23666475808E+02 -0.56537594404E+02  0.61848087373E+02  0.00000000000E+00 0. -1.
        -14    1    3    3    0    0  0.98876566952E+02  0.11019643202E+02 -0.35317074696E+03  0.36691631817E+03  0.00000000000E+00 0.  1.
        -13    1    4    4    0    0 -0.11039927010E+03 -0.41644773156E+02  0.39947716764E+02  0.12457169038E+03  0.00000000000E+00 0. -1.
         13    1    4    4    0    0 -0.10638492768E+02  0.31461292082E+02  0.78749750600E+01  0.34132179245E+02  0.00000000000E+00 0.  1.
         21    1    1    2  502  501  0.30442756968E+02 -0.24502637935E+02 -0.94813548175E+00  0.39090148100E+02  0.00000000000E+00 0. -1.
<scales pt_clust_5="13000.00000" pt_clust_6="13000.00000" pt_clust_7="13000.00000" pt_clust_8="13000.00000" pt_clust_9="39.07865"></scales>
<clustering>
<clus scale="   39.079">  1  9  2 -1</clus>
<clus scale="   81.040">  5  6 -1 -1</clus>
<clus scale="   90.256">  7  8 -1 -1</clus>
<clus scale="  127.716">  2  5  1 -1</clus>
<clus scale="   39.079">  1  5  2 -1</clus>
</clustering>
</event>
<event>
 9    1  0.1973774E-005  0.1423013E+03  0.7546771E-02  0.1224623E+00
          1   -1    0    0  502    0  0.00000000000E+00  0.00000000000E+00  0.89914373457E+02  0.89914373457E+02  0.00000000000E+00 0. -1.
         -2   -1    0    0    0  501 -0.00000000000E+00 -0.00000000000E+00 -0.83018203916E+03  0.83018203916E+03  0.00000000000E+00 0.  1.
        -24    2    1    2    0    0  0.11295873898E+02 -0.32154292214E+02 -0.53343032401E+03  0.54369091062E+03  0.99450492436E+02 0.  0.
         23    2    1    2    0    0 -0.11734681686E+03  0.40181531880E+02 -0.22051930363E+03  0.26917474540E+03  0.91877360425E+02 0.  0.
         11    1    3    3    0    0 -0.25103061929E+01  0.33014410526E+02 -0.10453549385E+03  0.10965364752E+03  0.00000000000E+00 0. -1.
        -12    1    3    3    0    0  0.13806180091E+02 -0.65168702740E+02 -0.42889483016E+03  0.43403726310E+03  0.00000000000E+00 0.  1.
        -11    1    4    4    0    0 -0.96997007963E+02  0.31704614273E+02 -0.22465464267E+03  0.24674543683E+03  0.00000000000E+00 0.  1.
         11    1    4    4    0    0 -0.20349808893E+02  0.84769176064E+01  0.41353390462E+01  0.22429308574E+02  0.00000000000E+00 0. -1.
         21    1    1    2  502  501  0.10605094296E+03 -0.80272396652E+01  0.13681961927E+02  0.10723075660E+03  0.00000000000E+00 0. -1.
<scales pt_clust_5="13000.00000" pt_clust_6="13000.00000" pt_clust_7="13000.00000" pt_clust_8="13000.00000" pt_clust_9="108.66556"></scales>
<clustering>
<clus scale="   91.877">  7  8 -1 -1</clus>
<clus scale="   99.450">  5  6 -1 -1</clus>
<clus scale="  105.128">  2  5  1 -1</clus>
<clus scale="  108.666">  1  9  2 -1</clus>
<clus scale="  108.666">  1  5  2 -1</clus>
</clustering>
</event>
<event>
 9    1  0.1973774E-005  0.2102778E+03  0.7546771E-02  0.1141532E+00
         -2   -1    0    0    0  501 -0.00000000000E+00  0.00000000000E+00  0.77165923589E+03  0.77165923589E+03  0.00000000000E+00 0.  1.
          1   -1    0    0  502    0  0.00000000000E+00 -0.00000000000E+00 -0.75076625570E+02  0.75076625570E+02  0.00000000000E+00 0. -1.
         23    2    1    2    0    0  0.14957142593E+03 -0.95846005011E+02  0.38354002687E+03  0.43139599344E+03  0.86264029676E+02 0.  0.
        -24    2    1    2    0    0 -0.18622140422E+03  0.11042392315E+03  0.28095141586E+03  0.36449127272E+03  0.83954366314E+02 0.  0.
         13    1    4    4    0    0 -0.39799751377E+02 -0.10673299863E+02  0.63751940465E+02  0.75909481969E+02  0.00000000000E+00 0. -1.
        -14    1    4    4    0    0 -0.14642165285E+03  0.12109722301E+03  0.21719947539E+03  0.28858179075E+03  0.00000000000E+00 0.  1.
        -13    1    3    3    0    0  0.11148904741E+03 -0.10978808901E+03  0.31595368549E+03  0.35257618121E+03  0.00000000000E+00 0. -1.
         13    1    3    3    0    0  0.38082378518E+02  0.13942083994E+02  0.67586341379E+02  0.78819812235E+02  0.00000000000E+00 0.  1.
         21    1    1    2  502  501  0.36649978291E+02 -0.14577918139E+02  0.32091167594E+02  0.50848595295E+02  0.00000000000E+00 0. -1.
<scales pt_clust_5="13000.00000" pt_clust_6="13000.00000" pt_clust_7="13000.00000" pt_clust_8="13000.00000" pt_clust_9="39.44283"></scales>
<clustering>
<clus scale="   39.443">  2  9  1 -1</clus>
<clus scale="   83.954">  5  6 -1 -1</clus>
<clus scale="   86.264">  7  8 -1 -1</clus>
<clus scale="  209.341">  2  5  1 -1</clus>
<clus scale="   39.443">  2  5  1 -1</clus>
</clustering>
</event>
<event>
 9    1  0.1973774E-005  0.1236533E+03  0.7546771E-02  0.1239147E+00
          1   -1    0    0  502    0  0.00000000000E+00  0.00000000000E+00  0.25671278879E+03  0.25671278879E+03  0.00000000000E+00 0. -1.
         -2   -1    0    0    0  501 -0.00000000000E+00 -0.00000000000E+00 -0.14938389118E+03  0.14938389118E+03  0.00000000000E+00 0.  1.
         23    2    1    2    0    0  0.88199717403E+02  0.75269521774E+02 -0.67636917579E+02  0.15909138593E+03  0.85385159126E+02 0.  0.
        -24    2    1    2    0    0 -0.21830800282E+02 -0.38993053963E+02  0.56126706059E+02  0.10613816113E+03  0.78218028721E+02 0.  0.
         11    1    4    4    0    0  0.11423097731E+02 -0.31925082611E+02  0.62915078131E+02  0.71470309344E+02  0.00000000000E+00 0. -1.
        -12    1    4    4    0    0 -0.33253898013E+02 -0.70679713520E+01 -0.67883720726E+01  0.34667851787E+02  0.00000000000E+00 0.  1.
        -11    1    3    3    0    0  0.75644628995E+02  0.25677598423E+02 -0.76439574136E+01  0.80248856948E+02  0.00000000000E+00 0.  1.
         11    1    3    3    0    0  0.12555088408E+02  0.49591923351E+02 -0.59992960166E+02  0.78842528981E+02  0.00000000000E+00 0. -1.
         21    1    1    2  502  501 -0.66368917121E+02 -0.36276467811E+02  0.11883910913E+03  0.14086713291E+03  0.00000000000E+00 0. -1.
<scales pt_clust_5="13000.00000" pt_clust_6="13000.00000" pt_clust_7="13000.00000" pt_clust_8="13000.00000" pt_clust_9="75.63607"></scales>
<clustering>
<clus scale="   75.636">  1  9  2 -1</clus>
<clus scale="   78.218">  5  6 -1 -1</clus>
<clus scale="   85.385">  7  8 -1 -1</clus>
<clus scale="  118.817">  1  5  2 -1</clus>
<clus scale="   75.636">  1  5  2 -1</clus>
</clustering>
</event>
<event>
 9    1  0.1973774E-005  0.1340056E+03  0.7546771E-02  0.1224287E+00
          1   -1    0    0  502    0  0.00000000000E+00  0.00000000000E+00  0.54628961337E+03  0.54628961337E+03  0.00000000000E+00 0. -1.
         -2   -1    0    0    0  501 -0.00000000000E+00 -0.00000000000E+00 -0.12320229281E+03  0.12320229281E+03  0.00000000000E+00 0.  1.
         23    2    1    2    0    0  0.37651711622E+02 -0.54710774456E+02 -0.59130192862E+02  0.12646153063E+03  0.89917844680E+02 0.  0.
        -24    2    1    2    0    0 -0.10022705772E+03  0.28198071542E+02  0.44860883855E+03  0.46721388406E+03  0.78729467786E+02 0.  0.
         11    1    4    4    0    0 -0.10245451196E+03  0.29360346196E+02  0.29631373059E+03  0.31489805316E+03  0.00000000000E+00 0. -1.
        -12    1    4    4    0    0  0.22274542331E+01 -0.11622746541E+01  0.15229510796E+03  0.15231583090E+03  0.00000000000E+00 0.  1.
        -13    1    3    3    0    0 -0.25851219092E+02 -0.26649007346E+02 -0.31203185753E+01  0.37258442118E+02  0.00000000000E+00 0. -1.
         13    1    3    3    0    0  0.63502930714E+02 -0.28061767110E+02 -0.56009874287E+02  0.89203088513E+02  0.00000000000E+00 0.  1.
         21    1    1    2  502  501  0.62575346100E+02  0.26512702914E+02  0.33608674871E+02  0.75816491491E+02  0.00000000000E+00 0.  1.
<scales pt_clust_5="13000.00000" pt_clust_6="13000.00000" pt_clust_7="13000.00000" pt_clust_8="13000.00000" pt_clust_9="67.96026"></scales>
<clustering>
<clus scale="   67.960">  2  9  1 -1</clus>
<clus scale="   78.729">  5  6 -1 -1</clus>
<clus scale="   89.918">  7  8 -1 -1</clus>
<clus scale="  126.770">  1  5  2 -1</clus>
<clus scale="  126.770">  1  5  2 -1</clus>
</clustering>
</event>
<event>
 9    1  0.1973774E-005  0.1001627E+03  0.7546771E-02  0.1283951E+00
          1   -1    0    0  502    0  0.00000000000E+00  0.00000000000E+00  0.28566894978E+03  0.28566894978E+03  0.00000000000E+00 0. -1.
         -2   -1    0    0    0  501 -0.00000000000E+00 -0.00000000000E+00 -0.67217813479E+02  0.67217813479E+02  0.00000000000E+00 0.  1.
         23    2    1    2    0    0 -0.37243032880E+02 -0.18261047569E+02  0.21622977628E+02  0.10114812260E+03  0.89682106288E+02 0.  0.
        -24    2    1    2    0    0  0.51897226940E+02  0.26084607559E+00  0.61612962881E+02  0.11454570414E+03  0.81432001918E+02 0.  0.
         13    1    4    4    0    0  0.73333842186E+01  0.35106050922E+02  0.40669045295E+02  0.54223468910E+02  0.00000000000E+00 0. -1.
        -14    1    4    4    0    0  0.44563842722E+02 -0.34845204846E+02  0.20943917586E+02  0.60322235227E+02  0.00000000000E+00 0.  1.
        -11    1    3    3    0    0 -0.61067337826E+02 -0.24667884462E+02  0.33359406824E+02  0.73828004826E+02  0.00000000000E+00 0.  1.
         11    1    3    3    0    0  0.23824304946E+02  0.64068368929E+01 -0.11736429195E+02  0.27320117778E+02  0.00000000000E+00 0. -1.
         21    1    1    2  502  501 -0.14654194060E+02  0.18000201494E+02  0.13521519579E+03  0.13719293652E+03  0.00000000000E+00 0. -1.
<scales pt_clust_5="13000.00000" pt_clust_6="13000.00000" pt_clust_7="13000.00000" pt_clust_8="13000.00000" pt_clust_9="23.21105"></scales>
<clustering>
<clus scale="   23.211">  1  9  2 -1</clus>
<clus scale="   81.432">  5  6 -1 -1</clus>
<clus scale="   89.682">  7  8 -1 -1</clus>
<clus scale="   92.849">  1  5  2 -1</clus>
<clus scale="   23.211">  1  5  2 -1</clus>
</clustering>
</event>
<event>
 9    1  0.1973774E-005  0.1201047E+03  0.7546771E-02  0.1248887E+00
          1   -1    0    0  502    0  0.00000000000E+00  0.00000000000E+00  0.95228781060E+03  0.95228781060E+03  0.00000000000E+00 0. -1.
         -2   -1    0    0    0  501 -0.00000000000E+00 -0.00000000000E+00 -0.51634169132E+02  0.51634169132E+02  0.00000000000E+00 0.  1.
         23    2    1    2    0    0  0.65901381361E+02 -0.45061704512E+01  0.40435796105E+02  0.12352309165E+03  0.96226830594E+02 0.  0.
        -24    2    1    2    0    0 -0.11299689710E+03  0.31616310448E+01  0.57104291082E+03  0.58741093926E+03  0.78634031423E+02 0.  0.
         13    1    4    4    0    0 -0.99059274523E+02 -0.32209831373E+01  0.55952828105E+03  0.56823851673E+03  0.00000000000E+00 0. -1.
        -14    1    4    4    0    0 -0.13937622577E+02  0.63826141821E+01  0.11514629772E+02  0.19172422530E+02  0.00000000000E+00 0.  1.
        -11    1    3    3    0    0  0.25800042907E+02  0.27267207470E+02 -0.21443599491E+02  0.43231594654E+02  0.00000000000E+00 0.  1.
         11    1    3    3    0    0  0.40101338454E+02 -0.31773377921E+02  0.61879395596E+02  0.80291496994E+02  0.00000000000E+00 0. -1.
         21    1    1    2  502  501  0.47095515739E+02  0.13445394064E+01  0.28917493455E+03  0.29298794883E+03  0.00000000000E+00 0.  1.
<scales pt_clust_5="13000.00000" pt_clust_6="13000.00000" pt_clust_7="13000.00000" pt_clust_8="13000.00000" pt_clust_9="47.11470"></scales>
<clustering>
<clus scale="   47.115">  1  9  2 -1</clus>
<clus scale="   78.634">  5  6 -1 -1</clus>
<clus scale="   96.227">  7  8 -1 -1</clus>
<clus scale="  106.531">  1  5  2 -1</clus>
<clus scale="   47.115">  1  5  2 -1</clus>
</clustering>
</event>
<event>
 9    1  0.1973774E-005  0.1018287E+03  0.7546771E-02  0.1287230E+00
          3   -1    0    0  502    0  0.00000000000E+00  0.00000000000E+00  0.23650381299E+03  0.23650381299E+03  0.00000000000E+00 0. -1.
         -4   -1    0    0    0  501 -0.00000000000E+00 -0.00000000000E+00 -0.16425746286E+03  0.16425746286E+03  0.00000000000E+00 0.  1.
         23    2    1    2    0    0 -0.75814859444E+01  0.30774131115E+02 -0.12847377870E+03  0.16419683268E+03  0.97214000911E+02 0.  0.
        -24    2    1    2    0    0  0.35761306286E+02 -0.69026031107E+01  0.16126007645E+03  0.18251772395E+03  0.77339448816E+02 0.  0.
         13    1    4    4    0    0  0.46308962919E+02 -0.17291299951E+02  0.16022496544E+03  0.16767691746E+03  0.00000000000E+00 0. -1.
        -14    1    4    4    0    0 -0.10547656633E+02  0.10388696840E+02  0.10351110139E+01  0.14840806490E+02  0.00000000000E+00 0.  1.
        -11    1    3    3    0    0  0.11701753506E+02  0.61316340223E+02 -0.58993665549E+02  0.85888748904E+02  0.00000000000E+00 0.  1.
         11    1    3    3    0    0 -0.19283239450E+02 -0.30542209108E+02 -0.69480113154E+02  0.78308083776E+02  0.00000000000E+00 0. -1.
         21    1    1    2  502  501 -0.28179820342E+02 -0.23871528004E+02  0.39460052387E+02  0.54046719217E+02  0.00000000000E+00 0.  1.
<scales pt_clust_5="13000.00000" pt_clust_6="13000.00000" pt_clust_7="13000.00000" pt_clust_8="13000.00000" pt_clust_9="36.93172"></scales>
<clustering>
<clus scale="   36.932">  1  9  2 -1</clus>
<clus scale="   77.339">  5  6 -1 -1</clus>
<clus scale="   83.066">  1  5  2 -1</clus>
<clus scale="   97.214">  7  8 -1 -1</clus>
<clus scale="   36.932">  1  5  2 -1</clus>
</clustering>
</event>
<event>
 9    1  0.1973774E-005  0.1522855E+03  0.7546771E-02  0.1215169E+00
         -2   -1    0    0    0  501 -0.00000000000E+00  0.00000000000E+00  0.19764735585E+03  0.19764735585E+03  0.00000000000E+00 0.  1.
          1   -1    0    0  502    0  0.00000000000E+00 -0.00000000000E+00 -0.52917857554E+03  0.52917857554E+03  0.00000000000E+00 0. -1.
         23    2    1    2    0    0  0.43854673478E+02 -0.24296965637E+02  0.46079054514E+02  0.11431443331E+03  0.91820125637E+02 0.  0.
        -24    2    1    2    0    0  0.17537270637E+02 -0.12476948385E+03 -0.42002593405E+03  0.44581157197E+03  0.80319315655E+02 0.  0.
         13    1    4    4    0    0  0.49573020086E+02 -0.70354948597E+02 -0.23053139848E+03  0.24607321837E+03  0.00000000000E+00 0. -1.
        -14    1    4    4    0    0 -0.32035749449E+02 -0.54414535252E+02 -0.18949453557E+03  0.19973835360E+03  0.00000000000E+00 0.  1.
        -13    1    3    3    0    0  0.39015271903E+02  0.30131921083E+02  0.28348802602E+02  0.56866323240E+02  0.00000000000E+00 0.  1.
         13    1    3    3    0    0  0.48394015747E+01 -0.54428886721E+02  0.17730251912E+02  0.57448110066E+02  0.00000000000E+00 0. -1.
         21    1    1    2  502  501 -0.61391944115E+02  0.14906644949E+03  0.42415659844E+02  0.16669992611E+03  0.00000000000E+00 0.  1.
<scales pt_clust_5="13000.00000" pt_clust_6="13000.00000" pt_clust_7="13000.00000" pt_clust_8="13000.00000" pt_clust_9="129.38188"></scales>
<clustering>
<clus scale="   80.319">  5  6 -1 -1</clus>
<clus scale="   91.820">  7  8 -1 -1</clus>
<clus scale="  104.616">  1  7  2 -1</clus>
<clus scale="  129.382">  1  9  2 -1</clus>
<clus scale="  152.285">  2  5  1 -1</clus>
</clustering>
</event>
<event>
 9    1  0.1973774E-005  0.2513525E+03  0.7546771E-02  0.1113032E+00
         -2   -1    0    0    0  501 -0.00000000000E+00  0.00000000000E+00  0.60922338658E+03  0.60922338658E+03  0.00000000000E+00 0.  1.
          1   -1    0    0  502    0  0.00000000000E+00 -0.00000000000E+00 -0.19858334433E+03  0.19858334433E+03  0.00000000000E+00 0. -1.
        -24    2    1    2    0    0 -0.14898098973E+03 -0.18093003828E+03  0.31688646293E+03  0.40212170633E+03  0.79710866609E+02 0.  0.
         23    2    1    2    0    0  0.51692083371E+02  0.25108933553E+03  0.42071461490E+02  0.27507683344E+03  0.90439651259E+02 0.  0.
         13    1    3    3    0    0 -0.74315842696E+01 -0.54163673557E+02  0.98388880504E+02  0.11255800187E+03  0.00000000000E+00 0. -1.
        -14    1    3    3    0    0 -0.14154940546E+03 -0.12676636473E+03  0.21849758243E+03  0.28956370446E+03  0.00000000000E+00 0.  1.
        -13    1    4    4    0    0  0.76742909383E+02  0.17687587002E+03  0.38856743877E+02  0.19668348706E+03  0.00000000000E+00 0.  1.
         13    1    4    4    0    0 -0.25050826012E+02  0.74213465512E+02  0.32147176131E+01  0.78393346379E+02  0.00000000000E+00 0. -1.
         21    1    1    2  502  501  0.97288906363E+02 -0.70159297249E+02  0.51682117832E+02  0.13060819115E+03  0.00000000000E+00 0. -1.
<scales pt_clust_5="13000.00000" pt_clust_6="13000.00000" pt_clust_7="13000.00000" pt_clust_8="13000.00000" pt_clust_9="119.94773"></scales>
<clustering>
<clus scale="   79.711">  5  6 -1 -1</clus>
<clus scale="   90.440">  7  8 -1 -1</clus>
<clus scale="  119.948">  2  9  1 -1</clus>
<clus scale="  247.695">  1  5  2 -1</clus>
<clus scale="  119.948">  2  5  1 -1</clus>
</clustering>
</event>
<event>
 9    1  0.1973774E-005  0.8622612E+02  0.7546771E-02  0.1313900E+00
         -2   -1    0    0    0  501 -0.00000000000E+00  0.00000000000E+00  0.91884782065E+02  0.91884782065E+02  0.00000000000E+00 0.  1.
          1   -1    0    0  502    0  0.00000000000E+00 -0.00000000000E+00 -0.19494121976E+03  0.19494121976E+03  0.00000000000E+00 0. -1.
        -24    2    1    2    0    0  0.10335144201E+02  0.16762435076E+02  0.46041070192E+02  0.97245485386E+02  0.83361321056E+02 0.  0.
         23    2    1    2    0    0  0.14112077813E+01 -0.36323878210E+02 -0.90142169721E+02  0.12636375647E+03  0.80751300622E+02 0.  0.
         13    1    3    3    0    0  0.30965785960E+02  0.37859342346E+02  0.87412287288E+01  0.49685196816E+02  0.00000000000E+00 0. -1.
        -14    1    3    3    0    0 -0.20630641759E+02 -0.21096907269E+02  0.37299841463E+02  0.47560288570E+02  0.00000000000E+00 0.  1.
        -13    1    4    4    0    0 -0.32507501937E+02 -0.34253414894E+02 -0.26330372337E+02  0.54067759539E+02  0.00000000000E+00 0.  1.
         13    1    4    4    0    0  0.33918709718E+02 -0.20704633160E+01 -0.63811797384E+02  0.72295996934E+02  0.00000000000E+00 0. -1.
         21    1    1    2  502  501 -0.11746351982E+02  0.19561443133E+02 -0.58955338167E+02  0.63216759967E+02  0.00000000000E+00 0. -1.
<scales pt_clust_5="13000.00000" pt_clust_6="13000.00000" pt_clust_7="13000.00000" pt_clust_8="13000.00000" pt_clust_9="22.81725"></scales>
<clustering>
<clus scale="   22.817">  2  9  1 -1</clus>
<clus scale="   80.751">  7  8 -1 -1</clus>
<clus scale="   83.361">  5  6 -1 -1</clus>
<clus scale="   83.705">  2  7  1 -1</clus>
<clus scale="   22.817">  2  5  1 -1</clus>
</clustering>
</event>
<event>
 9    1  0.1973774E-005  0.9378606E+02  0.7546771E-02  0.1299870E+00
         -2   -1    0    0    0  501 -0.00000000000E+00  0.00000000000E+00  0.36817857845E+02  0.36817857845E+02  0.00000000000E+00 0.  1.
          1   -1    0    0  502    0  0.00000000000E+00 -0.00000000000E+00 -0.39079200264E+03  0.39079200264E+03  0.00000000000E+00 0. -1.
         23    2    1    2    0    0  0.20923661323E+02  0.42785879071E+01 -0.55276943876E+02  0.10791833617E+03  0.90192687280E+02 0.  0.
        -24    2    1    2    0    0 -0.33037889510E+02 -0.24858140125E+02 -0.23848548231E+03  0.25491711925E+03  0.79987393638E+02 0.  0.
         11    1    4    4    0    0 -0.23637029491E+02 -0.52181207207E+02 -0.19026807517E+03  0.19870462496E+03  0.00000000000E+00 0. -1.
        -12    1    4    4    0    0 -0.94008600191E+01  0.27323067082E+02 -0.48217407134E+02  0.56212494293E+02  0.00000000000E+00 0.  1.
        -13    1    3    3    0    0  0.22610110541E+02 -0.41251380367E+02 -0.25781365311E+02  0.53643007729E+02  0.00000000000E+00 0. -1.
         13    1    3    3    0    0 -0.16864492181E+01  0.45529968274E+02 -0.29495578565E+02  0.54275328437E+02  0.00000000000E+00 0.  1.
         21    1    1    2  502  501  0.12114228187E+02  0.20579552218E+02 -0.60211718608E+02  0.64774405067E+02  0.00000000000E+00 0. -1.
<scales pt_clust_5="13000.00000" pt_clust_6="13000.00000" pt_clust_7="13000.00000" pt_clust_8="13000.00000" pt_clust_9="23.88038"></scales>
<clustering>
<clus scale="   23.880">  2  9  1 -1</clus>
<clus scale="   79.987">  5  6 -1 -1</clus>
<clus scale="   84.018">  2  5  1 -1</clus>
<clus scale="   90.193">  7  8 -1 -1</clus>
<clus scale="   23.880">  2  5  1 -1</clus>
</clustering>
</event>
<event>
 9    1  0.1973774E-005  0.9656955E+02  0.7546771E-02  0.1295649E+00
          1   -1    0    0  502    0  0.00000000000E+00  0.00000000000E+00  0.38178134527E+02  0.38178134527E+02  0.00000000000E+00 0. -1.
         -2   -1    0    0    0  501 -0.00000000000E+00 -0.00000000000E+00 -0.55218598594E+03  0.55218598594E+03  0.00000000000E+00 0.  1.
        -24    2    1    2    0    0 -0.34114060992E+02 -0.16320196234E+01 -0.35478504781E+03  0.36454848664E+03  0.76529316729E+02 0.  0.
         23    2    1    2    0    0  0.22798187440E+02 -0.43003045347E+02 -0.14443806708E+03  0.17745318503E+03  0.90874960234E+02 0.  0.
         13    1    3    3    0    0 -0.55090811214E+02  0.94646408897E+01 -0.18962409130E+03  0.19769135770E+03  0.00000000000E+00 0. -1.
        -14    1    3    3    0    0  0.20976750222E+02 -0.11096660513E+02 -0.16516095651E+03  0.16685712894E+03  0.00000000000E+00 0.  1.
        -11    1    4    4    0    0  0.57785135610E+02 -0.23927725377E+02 -0.77967644283E+02  0.99953046448E+02  0.00000000000E+00 0.  1.
         11    1    4    4    0    0 -0.34986948170E+02 -0.19075319970E+02 -0.66470422792E+02  0.77500138583E+02  0.00000000000E+00 0. -1.
         21    1    1    2  502  501  0.11315873553E+02  0.44635064970E+02 -0.14784736530E+02  0.48362448795E+02  0.00000000000E+00 0. -1.
<scales pt_clust_5="13000.00000" pt_clust_6="13000.00000" pt_clust_7="13000.00000" pt_clust_8="13000.00000" pt_clust_9="46.04713"></scales>
<clustering>
<clus scale="   46.047">  1  9  2 -1</clus>
<clus scale="   76.529">  5  6 -1 -1</clus>
<clus scale="   83.212">  2  5  1 -1</clus>
<clus scale="   90.875">  7  8 -1 -1</clus>
<clus scale="   46.047">  1  5  2 -1</clus>
</clustering>
</event>
<event>
 9    1  0.1973774E-005  0.1252576E+03  0.7546771E-02  0.1255736E+00
          1   -1    0    0  502    0  0.00000000000E+00  0.00000000000E+00  0.17011201602E+02  0.17011201602E+02  0.00000000000E+00 0. -1.
         -2   -1    0    0    0  501 -0.00000000000E+00 -0.00000000000E+00 -0.10217673677E+04  0.10217673677E+04  0.00000000000E+00 0.  1.
        -24    2    1    2    0    0 -0.62839885981E-01  0.12303927844E+02 -0.61633812633E+03  0.62170826406E+03  0.80604522481E+02 0.  0.
         23    2    1    2    0    0  0.18949204555E+02 -0.24393118167E+02 -0.30839469163E+03  0.33396447187E+03  0.12438201670E+03 0.  0.
         11    1    3    3    0    0 -0.28359347705E+02 -0.77071210307E+01 -0.10053851831E+03  0.10474562511E+03  0.00000000000E+00 0. -1.
        -12    1    3    3    0    0  0.28296507819E+02  0.20011048875E+02 -0.51579960802E+03  0.51696263895E+03  0.00000000000E+00 0.  1.
        -11    1    4    4    0    0 -0.43105561858E+02 -0.36631620027E+01 -0.44429521297E+02  0.62012019655E+02  0.00000000000E+00 0. -1.
         11    1    4    4    0    0  0.62054766413E+02 -0.20729956164E+02 -0.26396517033E+03  0.27195245221E+03  0.00000000000E+00 0.  1.
         21    1    1    2  502  501 -0.18886364669E+02  0.12089190323E+02 -0.80023348114E+02  0.83105833348E+02  0.00000000000E+00 0.  1.
<scales pt_clust_5="13000.00000" pt_clust_6="13000.00000" pt_clust_7="13000.00000" pt_clust_8="13000.00000" pt_clust_9="22.42417"></scales>
<clustering>
<clus scale="   22.424">  1  9  2 -1</clus>
<clus scale="   80.605">  5  6 -1 -1</clus>
<clus scale="   81.949">  2  5  1 -1</clus>
<clus scale="  124.382">  7  8 -1 -1</clus>
<clus scale="   22.424">  1  5  2 -1</clus>
</clustering>
</event>
<event>
 9    1  0.1973774E-005  0.1658327E+03  0.7546771E-02  0.1183664E+00
          1   -1    0    0  502    0  0.00000000000E+00  0.00000000000E+00  0.17062080826E+03  0.17062080826E+03  0.00000000000E+00 0. -1.
         -2   -1    0    0    0  501 -0.00000000000E+00 -0.00000000000E+00 -0.38095978211E+03  0.38095978211E+03  0.00000000000E+00 0.  1.
         23    2    1    2    0    0  0.84583070501E+01 -0.13591541736E+03 -0.25885823080E+03  0.30684790896E+03  0.92755118158E+02 0.  0.
        -24    2    1    2    0    0 -0.62791175752E+02  0.13606151856E+03 -0.67286885206E+00  0.17143911275E+03  0.83279337420E+02 0.  0.
         11    1    4    4    0    0 -0.18323630954E+01  0.52521944327E+02 -0.34226028702E+02  0.62716291592E+02  0.00000000000E+00 0. -1.
        -12    1    4    4    0    0 -0.60958812656E+02  0.83539574234E+02  0.33553159849E+02  0.10872282115E+03  0.00000000000E+00 0.  1.
        -11    1    3    3    0    0  0.44446735026E+02 -0.11101700299E+03 -0.20632694467E+03  0.23847661375E+03  0.00000000000E+00 0. -1.
         11    1    3    3    0    0 -0.35988427976E+02 -0.24898414378E+02 -0.52531286121E+02  0.68371295207E+02  0.00000000000E+00 0.  1.
         21    1    1    2  502  501  0.54332868702E+02 -0.14610119742E+00  0.49192125795E+02  0.73293568662E+02  0.00000000000E+00 0. -1.
<scales pt_clust_5="13000.00000" pt_clust_6="13000.00000" pt_clust_7="13000.00000" pt_clust_8="13000.00000" pt_clust_9="54.33307"></scales>
<clustering>
<clus scale="   54.333">  1  9  2 -1</clus>
<clus scale="   83.279">  5  6 -1 -1</clus>
<clus scale="   92.755">  7  8 -1 -1</clus>
<clus scale="  160.725">  1  5  2 -1</clus>
<clus scale="   54.333">  1  5  2 -1</clus>
</clustering>
</event>
<event>
 9    1  0.1973774E-005  0.8687921E+02  0.7546771E-02  0.1314802E+00
          3   -1    0    0  502    0  0.00000000000E+00  0.00000000000E+00  0.26243314079E+03  0.26243314079E+03  0.00000000000E+00 0. -1.
         -4   -1    0    0    0  501 -0.00000000000E+00 -0.00000000000E+00 -0.67154064724E+02  0.67154064724E+02  0.00000000000E+00 0.  1.
        -24    2    1    2    0    0  0.18818911556E+01 -0.50128911323E+01 -0.15278387952E+02  0.81808854576E+02  0.80190953086E+02 0.  0.
         23    2    1    2    0    0  0.31363695118E+02  0.14499600473E+02  0.17440338827E+03  0.19775451808E+03  0.86581682790E+02 0.  0.
         11    1    3    3    0    0 -0.15184387826E+02  0.30561285595E+02 -0.23591774509E+02  0.41486499435E+02  0.00000000000E+00 0. -1.
        -12    1    3    3    0    0  0.17066278982E+02 -0.35574176727E+02  0.83133865566E+01  0.40322355142E+02  0.00000000000E+00 0.  1.
        -13    1    4    4    0    0  0.57629837694E+02  0.97166723383E+01  0.76462339097E+02  0.96239810963E+02  0.00000000000E+00 0.  1.
         13    1    4    4    0    0 -0.26266142576E+02  0.47829281346E+01  0.97941049178E+02  0.10151470712E+03  0.00000000000E+00 0. -1.
         21    1    1    2  502  501 -0.33245586273E+02 -0.94867093406E+01  0.36154075746E+02  0.50023832858E+02  0.00000000000E+00 0.  1.
<scales pt_clust_5="13000.00000" pt_clust_6="13000.00000" pt_clust_7="13000.00000" pt_clust_8="13000.00000" pt_clust_9="34.57263"></scales>
<clustering>
<clus scale="   34.573">  1  9  2 -1</clus>
<clus scale="   80.191">  5  6 -1 -1</clus>
<clus scale="   80.512">  2  5  1 -1</clus>
<clus scale="   86.582">  7  8 -1 -1</clus>
<clus scale="   34.573">  1  5  2 -1</clus>
</clustering>
</event>
<event>
 9    1  0.1973774E-005  0.1115257E+03  0.7546771E-02  0.1280066E+00
          1   -1    0    0  502    0  0.00000000000E+00  0.00000000000E+00  0.57130402598E+03  0.57130402598E+03  0.00000000000E+00 0. -1.
         -2   -1    0    0    0  501 -0.00000000000E+00 -0.00000000000E+00 -0.70438829361E+02  0.70438829361E+02  0.00000000000E+00 0.  1.
        -24    2    1    2    0    0 -0.15896500806E+02  0.11425655777E+02 -0.30025057612E+02  0.78384295041E+02  0.69709032964E+02 0.  0.
         23    2    1    2    0    0 -0.26540336173E+02 -0.72358161244E+02  0.35132626703E+03  0.36904726146E+03  0.82617445778E+02 0.  0.
         13    1    3    3    0    0 -0.23781938904E+02  0.36773228890E+02 -0.27515909633E+02  0.51720172698E+02  0.00000000000E+00 0. -1.
        -14    1    3    3    0    0  0.78854380981E+01 -0.25347573113E+02 -0.25091479789E+01  0.26664122343E+02  0.00000000000E+00 0.  1.
        -11    1    4    4    0    0  0.14442834765E+02 -0.70483040900E+02  0.22631167144E+03  0.23747300301E+03  0.00000000000E+00 0.  1.
         11    1    4    4    0    0 -0.40983170938E+02 -0.18751203445E+01  0.12501459559E+03  0.13157425845E+03  0.00000000000E+00 0. -1.
         21    1    1    2  502  501  0.42436836980E+02  0.60932505468E+02  0.17956398720E+03  0.19431129883E+03  0.00000000000E+00 0. -1.
<scales pt_clust_5="13000.00000" pt_clust_6="13000.00000" pt_clust_7="13000.00000" pt_clust_8="13000.00000" pt_clust_9="74.91554"></scales>
<clustering>
<clus scale="   69.709">  5  6 -1 -1</clus>
<clus scale="   72.406">  2  5  1 -1</clus>
<clus scale="   74.916">  2  9  1 -1</clus>
<clus scale="   82.617">  7  8 -1 -1</clus>
<clus scale="  111.526">  1  5  2 -1</clus>
</clustering>
</event>
<event>
 9    1  0.1973774E-005  0.1104407E+03  0.7546771E-02  0.1264204E+00
         -2   -1    0    0    0  501 -0.00000000000E+00  0.00000000000E+00  0.33675073223E+03  0.33675073223E+03  0.00000000000E+00 0.  1.
          1   -1    0    0  502    0  0.00000000000E+00 -0.00000000000E+00 -0.11204697918E+03  0.11204697918E+03  0.00000000000E+00 0. -1.
         23    2    1    2    0    0 -0.62918426474E+02 -0.62959408124E+00  0.21874257110E+03  0.24524471496E+03  0.91310092671E+02 0.  0.
        -24    2    1    2    0    0  0.59018029415E+02 -0.25125269799E+02  0.76811417041E+02  0.12806603119E+03  0.79915627868E+02 0.  0.
         11    1    4    4    0    0  0.49301167170E+02  0.16977204280E+02  0.18154899342E+02  0.55212597472E+02  0.00000000000E+00 0. -1.
        -12    1    4    4    0    0  0.97168622446E+01 -0.42102474078E+02  0.58656517700E+02  0.72853433715E+02  0.00000000000E+00 0.  1.
        -11    1    3    3    0    0  0.70667270234E+01 -0.32705827679E+02  0.56532139086E+02  0.65692408577E+02  0.00000000000E+00 0.  1.
         11    1    3    3    0    0 -0.69985153497E+02  0.32076233597E+02  0.16221043202E+03  0.17955230638E+03  0.00000000000E+00 0. -1.
         21    1    1    2  502  501  0.39003970589E+01  0.25754863880E+02 -0.70850235099E+02  0.75486965260E+02  0.00000000000E+00 0. -1.
<scales pt_clust_5="13000.00000" pt_clust_6="13000.00000" pt_clust_7="13000.00000" pt_clust_8="13000.00000" pt_clust_9="26.04853"></scales>
<clustering>
<clus scale="   26.049">  2  9  1 -1</clus>
<clus scale="   79.916">  5  6 -1 -1</clus>
<clus scale="   91.310">  7  8 -1 -1</clus>
<clus scale="  101.223">  2  5  1 -1</clus>
<clus scale="   26.049">  2  5  1 -1</clus>
</clustering>
</event>
<event>
 9    1  0.1973774E-005  0.9274944E+02  0.7546771E-02  0.1300738E+00
         -2   -1    0    0    0  501 -0.00000000000E+00  0.00000000000E+00  0.30875900403E+03  0.30875900403E+03  0.00000000000E+00 0.  1.
          1   -1    0    0  502    0  0.00000000000E+00 -0.00000000000E+00 -0.69193245731E+02  0.69193245731E+02  0.00000000000E+00 0. -1.
         23    2    1    2    0    0  0.63620872023E+01  0.26405403516E+02  0.23891411144E+03  0.25605173440E+03  0.88004639399E+02 0.  0.
        -24    2    1    2    0    0  0.16194141603E+02 -0.42734938215E+02  0.89563026246E+01  0.92841876919E+02  0.80317330550E+02 0.  0.
         11    1    4    4    0    0  0.73921192014E+01 -0.30082621691E+02 -0.34717245222E+02  0.46528428620E+02  0.00000000000E+00 0. -1.
        -12    1    4    4    0    0  0.88020224013E+01 -0.12652316524E+02  0.43673547847E+02  0.46313448298E+02  0.00000000000E+00 0.  1.
        -11    1    3    3    0    0  0.37685215987E+02  0.42159246521E+02  0.16002470783E+03  0.16972178613E+03  0.00000000000E+00 0.  1.
         11    1    3    3    0    0 -0.31323128785E+02 -0.15753843005E+02  0.78889403604E+02  0.86329948264E+02  0.00000000000E+00 0. -1.
         21    1    1    2  502  501 -0.22556228805E+02  0.16329534699E+02 -0.83046557573E+01  0.29058638451E+02  0.00000000000E+00 0. -1.
<scales pt_clust_5="13000.00000" pt_clust_6="13000.00000" pt_clust_7="13000.00000" pt_clust_8="13000.00000" pt_clust_9="27.84667"></scales>
<clustering>
<clus scale="   27.847">  2  9  1 -1</clus>
<clus scale="   80.317">  5  6 -1 -1</clus>
<clus scale="   85.490">  2  5  1 -1</clus>
<clus scale="   88.005">  7  8 -1 -1</clus>
<clus scale="   27.847">  2  5  1 -1</clus>
</clustering>
</event>
<event>
 9    1  0.1973774E-005  0.9854902E+02  0.7546771E-02  0.1288663E+00
          1   -1    0    0  502    0  0.00000000000E+00  0.00000000000E+00  0.36882680019E+03  0.36882680019E+03  0.00000000000E+00 0. -1.
         -2   -1    0    0    0  501 -0.00000000000E+00 -0.00000000000E+00 -0.93075914300E+02  0.93075914300E+02  0.00000000000E+00 0.  1.
         23    2    1    2    0    0 -0.13698518761E+02  0.38759959354E+02 -0.53810466269E+02  0.11345746577E+03  0.91033215875E+02 0.  0.
        -24    2    1    2    0    0  0.11322584309E+02 -0.83185187560E+01  0.22367778663E+03  0.23824699184E+03  0.80823747878E+02 0.  0.
         13    1    4    4    0    0  0.44945702263E+02 -0.59755055475E+01  0.95579143885E+02  0.10578844722E+03  0.00000000000E+00 0. -1.
        -14    1    4    4    0    0 -0.33623117954E+02 -0.23430132085E+01  0.12809864274E+03  0.13245854462E+03  0.00000000000E+00 0.  1.
        -11    1    3    3    0    0 -0.31715809805E+02  0.56937080725E+02 -0.58333559960E+02  0.87467296578E+02  0.00000000000E+00 0.  1.
         11    1    3    3    0    0  0.18017291044E+02 -0.18177121371E+02  0.45230936901E+01  0.25990169188E+02  0.00000000000E+00 0. -1.
         21    1    1    2  502  501  0.23759344516E+01 -0.30441440598E+02  0.10588356554E+03  0.11019825689E+03  0.00000000000E+00 0. -1.
<scales pt_clust_5="13000.00000" pt_clust_6="13000.00000" pt_clust_7="13000.00000" pt_clust_8="13000.00000" pt_clust_9="30.53402"></scales>
<clustering>
<clus scale="   30.534">  1  9  2 -1</clus>
<clus scale="   80.824">  5  6 -1 -1</clus>
<clus scale="   89.204">  1  5  2 -1</clus>
<clus scale="   91.033">  7  8 -1 -1</clus>
<clus scale="   30.534">  1  5  2 -1</clus>
</clustering>
</event>
<event>
 9    1  0.1973774E-005  0.1104533E+03  0.7546771E-02  0.1262663E+00
         -2   -1    0    0    0  501 -0.00000000000E+00  0.00000000000E+00  0.20401280471E+03  0.20401280471E+03  0.00000000000E+00 0.  1.
          1   -1    0    0  502    0  0.00000000000E+00 -0.00000000000E+00 -0.13032550067E+03  0.13032550067E+03  0.00000000000E+00 0. -1.
         23    2    1    2    0    0 -0.71289970683E+02 -0.10325940820E+02  0.50214701776E+02  0.12241115803E+03  0.85288277983E+02 0.  0.
        -24    2    1    2    0    0  0.46688386807E+02 -0.75656619874E+02 -0.57583312924E+01  0.11783843310E+03  0.77129814882E+02 0.  0.
         11    1    4    4    0    0  0.85774570162E+01 -0.78928769625E+02 -0.22280891613E+01  0.79424730561E+02  0.00000000000E+00 0. -1.
        -12    1    4    4    0    0  0.38110929791E+02  0.32721497514E+01 -0.35302421311E+01  0.38413702543E+02  0.00000000000E+00 0.  1.
        -13    1    3    3    0    0 -0.42989111486E+02  0.17118803204E+02  0.65443146936E+02  0.80149376856E+02  0.00000000000E+00 0.  1.
         13    1    3    3    0    0 -0.28300859197E+02 -0.27444744024E+02 -0.15228445160E+02  0.42261781172E+02  0.00000000000E+00 0. -1.
         21    1    1    2  502  501  0.24601583876E+02  0.85982560694E+02  0.29230933558E+02  0.94088714251E+02  0.00000000000E+00 0.  1.
<scales pt_clust_5="13000.00000" pt_clust_6="13000.00000" pt_clust_7="13000.00000" pt_clust_8="13000.00000" pt_clust_9="89.43287"></scales>
<clustering>
<clus scale="   77.130">  5  6 -1 -1</clus>
<clus scale="   85.288">  7  8 -1 -1</clus>
<clus scale="   89.433">  1  9  2 -1</clus>
<clus scale="  104.283">  2  5  1 -1</clus>
<clus scale="  104.283">  2  5  1 -1</clus>
</clustering>
</event>
<event>
 9    1  0.1973774E-005  0.2117807E+03  0.7546771E-02  0.1141110E+00
         -2   -1    0    0    0  501 -0.00000000000E+00  0.00000000000E+00  0.28513846236E+02  0.28513846236E+02  0.00000000000E+00 0.  1.
          1   -1    0    0  502    0  0.00000000000E+00 -0.00000000000E+00 -0.17663251084E+04  0.17663251084E+04  0.00000000000E+00 0. -1.
         23    2    1    2    0    0  0.12175050347E+03  0.15910869996E+03 -0.74234104138E+03  0.77433001692E+03  0.91531360119E+02 0.  0.
        -24    2    1    2    0    0 -0.97808823342E+02 -0.15214875143E+03 -0.83350361818E+03  0.85663451845E+03  0.79866189318E+02 0.  0.
         11    1    4    4    0    0 -0.67812696871E+02 -0.10843896163E+03 -0.40120007174E+03  0.42109270692E+03  0.00000000000E+00 0. -1.
        -12    1    4    4    0    0 -0.29996126471E+02 -0.43709789802E+02 -0.43230354644E+03  0.43554181153E+03  0.00000000000E+00 0.  1.
        -13    1    3    3    0    0  0.73841887098E+02  0.25688068105E+02 -0.28420337181E+03  0.29476101791E+03  0.00000000000E+00 0. -1.
         13    1    3    3    0    0  0.47908616375E+02  0.13342063186E+03 -0.45813766956E+03  0.47956899900E+03  0.00000000000E+00 0.  1.
         21    1    1    2  502  501 -0.23941680132E+02 -0.69599485361E+01 -0.16196660265E+03  0.16387441931E+03  0.00000000000E+00 0.  1.
<scales pt_clust_5="13000.00000" pt_clust_6="13000.00000" pt_clust_7="13000.00000" pt_clust_8="13000.00000" pt_clust_9="24.93281"></scales>
<clustering>
<clus scale="   24.933">  2  9  1 -1</clus>
<clus scale="   79.866">  5  6 -1 -1</clus>
<clus scale="   91.531">  7  8 -1 -1</clus>
<clus scale="  207.007">  2  5  1 -1</clus>
<clus scale="   24.933">  2  5  1 -1</clus>
</clustering>
</event>
<event>
 9    1  0.1973774E-005  0.2996721E+03  0.7546771E-02  0.1085606E+00
          1   -1    0    0  502    0  0.00000000000E+00  0.00000000000E+00  0.55807031440E+03  0.55807031440E+03  0.00000000000E+00 0. -1.
         -2   -1    0    0    0  501 -0.00000000000E+00 -0.00000000000E+00 -0.33295903921E+03  0.33295903921E+03  0.00000000000E+00 0.  1.
        -24    2    1    2    0    0 -0.13178072440E+03 -0.21714527515E+03 -0.78089297449E+02  0.27943393916E+03  0.86412719748E+02 0.  0.
         23    2    1    2    0    0  0.23082339144E+03  0.29726312992E+03  0.15783514224E+03  0.41830954093E+03  0.91793972921E+02 0.  0.
         13    1    3    3    0    0  0.91901255933E+01 -0.21630580815E+02 -0.21479075278E+02  0.31838516134E+02  0.00000000000E+00 0. -1.
        -14    1    3    3    0    0 -0.14097084999E+03 -0.19551469434E+03 -0.56610222171E+02  0.24759542302E+03  0.00000000000E+00 0.  1.
        -13    1    4    4    0    0  0.16590128453E+03  0.13955149820E+03  0.91619843948E+02  0.23535516282E+03  0.00000000000E+00 0. -1.
         13    1    4    4    0    0  0.64922106910E+02  0.15771163171E+03  0.66215298290E+02  0.18295437811E+03  0.00000000000E+00 0.  1.
         21    1    1    2  502  501 -0.99042667043E+02 -0.80117854766E+02  0.14536543040E+03  0.19328587352E+03  0.00000000000E+00 0.  1.
<scales pt_clust_5="13000.00000" pt_clust_6="13000.00000" pt_clust_7="13000.00000" pt_clust_8="13000.00000" pt_clust_9="127.39043"></scales>
<clustering>
<clus scale="   86.413">  5  6 -1 -1</clus>
<clus scale="   91.794">  7  8 -1 -1</clus>
<clus scale="  127.390">  1  9  2 -1</clus>
<clus scale="  298.068">  2  5  1 -1</clus>
<clus scale="  127.390">  1  5  2 -1</clus>
</clustering>
</event>
<event>
 9    1  0.1973774E-005  0.3369827E+03  0.7546771E-02  0.1068471E+00
          1   -1    0    0  502    0  0.00000000000E+00  0.00000000000E+00  0.26966874979E+03  0.26966874979E+03  0.00000000000E+00 0. -1.
         -2   -1    0    0    0  501 -0.00000000000E+00 -0.00000000000E+00 -0.89021032154E+03  0.89021032154E+03  0.00000000000E+00 0.  1.
        -24    2    1    2    0    0 -0.32123130305E+03  0.59865202926E+02 -0.71953428043E+03  0.79445865699E+03  0.81618529593E+02 0.  0.
         23    2    1    2    0    0  0.29715378645E+03 -0.69584326341E+02  0.71377138236E+02  0.32751516541E+03  0.95021768221E+02 0.  0.
         13    1    3    3    0    0 -0.10318618505E+03 -0.14984820718E+02 -0.18563913613E+03  0.21291740769E+03  0.00000000000E+00 0. -1.
        -14    1    3    3    0    0 -0.21804511800E+03  0.74850023644E+02 -0.53389514431E+03  0.58154124930E+03  0.00000000000E+00 0.  1.
        -13    1    4    4    0    0  0.24679985812E+03 -0.92766218853E+02  0.66185556919E+02  0.27183868245E+03  0.00000000000E+00 0. -1.
         13    1    4    4    0    0  0.50353928332E+02  0.23181892512E+02  0.51915813173E+01  0.55676482966E+02  0.00000000000E+00 0.  1.
         21    1    1    2  502  501  0.24077516593E+02  0.97191234148E+01  0.27615570440E+02  0.37905248923E+02  0.00000000000E+00 0. -1.
<scales pt_clust_5="13000.00000" pt_clust_6="13000.00000" pt_clust_7="13000.00000" pt_clust_8="13000.00000" pt_clust_9="25.96513"></scales>
<clustering>
<clus scale="   25.965">  1  9  2 -1</clus>
<clus scale="   81.619">  5  6 -1 -1</clus>
<clus scale="   95.022">  7  8 -1 -1</clus>
<clus scale="  333.451">  2  5  1 -1</clus>
<clus scale="   25.965">  1  5  2 -1</clus>
</clustering>
</event>
<event>
 9    1  0.1973774E-005  0.1091990E+03  0.7546771E-02  0.1269995E+00
         -2   -1    0    0    0  501 -0.00000000000E+00  0.00000000000E+00  0.29745926787E+03  0.29745926787E+03  0.00000000000E+00 0.  1.
          1   -1    0    0  502    0  0.00000000000E+00 -0.00000000000E+00 -0.28298361906E+03  0.28298361906E+03  0.00000000000E+00 0. -1.
         23    2    1    2    0    0  0.99226442498E+01  0.42901551730E+02  0.25653782912E+03  0.27352952715E+03  0.84069866446E+02 0.  0.
        -24    2    1    2    0    0  0.60116610166E+01 -0.13398679250E+02 -0.53489251132E+02  0.11538249754E+03  0.10117487870E+03 0.  0.
         13    1    4    4    0    0  0.51188166260E+02 -0.22507206845E+02 -0.33174868506E+02  0.65018263783E+02  0.00000000000E+00 0. -1.
        -14    1    4    4    0    0 -0.45176505243E+02  0.91085275951E+01 -0.20314382625E+02  0.50364233761E+02  0.00000000000E+00 0.  1.
        -11    1    3    3    0    0 -0.19765175056E+02 -0.14268337210E+02  0.33868257253E+02  0.41728964055E+02  0.00000000000E+00 0. -1.
         11    1    3    3    0    0  0.29687819306E+02  0.57169888940E+02  0.22266957186E+03  0.23180056309E+03  0.00000000000E+00 0.  1.
         21    1    1    2  502  501 -0.15934305266E+02 -0.29502872480E+02 -0.18857292918E+03  0.19153086224E+03  0.00000000000E+00 0. -1.
<scales pt_clust_5="13000.00000" pt_clust_6="13000.00000" pt_clust_7="13000.00000" pt_clust_8="13000.00000" pt_clust_9="33.53090"></scales>
<clustering>
<clus scale="   33.531">  2  9  1 -1</clus>
<clus scale="   84.070">  7  8 -1 -1</clus>
<clus scale="   93.572">  1  7  2 -1</clus>
<clus scale="  101.175">  5  6 -1 -1</clus>
<clus scale="   33.531">  2  5  1 -1</clus>
</clustering>
</event>
<event>
 9    1  0.1973774E-005  0.1025397E+03  0.7546771E-02  0.1281478E+00
          1   -1    0    0  502    0  0.00000000000E+00  0.00000000000E+00  0.45970743152E+03  0.45970743152E+03  0.00000000000E+00 0. -1.
         -2   -1    0    0    0  501 -0.00000000000E+00 -0.00000000000E+00 -0.70501004767E+02  0.70501004767E+02  0.00000000000E+00 0.  1.
         23    2    1    2    0    0  0.35161440157E+02  0.16996872808E+02 -0.15521533957E+02  0.10220455060E+03  0.93164540396E+02 0.  0.
        -24    2    1    2    0    0 -0.67467263479E+02 -0.19594303776E+02  0.29613430727E+03  0.31467694963E+03  0.79939266367E+02 0.  0.
         13    1    4    4    0    0  0.45677994404E+01  0.20983531643E+02  0.91183770414E+02  0.93678457389E+02  0.00000000000E+00 0. -1.
        -14    1    4    4    0    0 -0.72035062919E+02 -0.40577835419E+02  0.20495053685E+03  0.22099849224E+03  0.00000000000E+00 0.  1.
        -11    1    3    3    0    0 -0.28394989805E+02  0.13778787752E+02 -0.21648325988E+02  0.38272450353E+02  0.00000000000E+00 0.  1.
         11    1    3    3    0    0  0.63556429962E+02  0.32180850556E+01  0.61267920308E+01  0.63932100244E+02  0.00000000000E+00 0. -1.
         21    1    1    2  502  501  0.32305823321E+02  0.25974309679E+01  0.10859365344E+03  0.11332693606E+03  0.00000000000E+00 0. -1.
<scales pt_clust_5="13000.00000" pt_clust_6="13000.00000" pt_clust_7="13000.00000" pt_clust_8="13000.00000" pt_clust_9="32.41007"></scales>
<clustering>
<clus scale="   32.410">  1  9  2 -1</clus>
<clus scale="   79.939">  5  6 -1 -1</clus>
<clus scale="   90.692">  1  5  2 -1</clus>
<clus scale="   93.165">  7  8 -1 -1</clus>
<clus scale="   32.410">  1  5  2 -1</clus>
</clustering>
</event>
<event>
 9    1  0.1973774E-005  0.1085497E+03  0.7546771E-02  0.1268531E+00
          1   -1    0    0  502    0  0.00000000000E+00  0.00000000000E+00  0.17894323201E+03  0.17894323201E+03  0.00000000000E+00 0. -1.
         -2   -1    0    0    0  501 -0.00000000000E+00 -0.00000000000E+00 -0.15953330393E+03  0.15953330393E+03  0.00000000000E+00 0.  1.
         23    2    1    2    0    0 -0.36810953852E+01  0.50889699110E+02 -0.92825041039E+02  0.14074550034E+03  0.92679532168E+02 0.  0.
        -24    2    1    2    0    0 -0.29323056095E+02 -0.79592451518E+02  0.65721796960E+02  0.13388279996E+03  0.80065283194E+02 0.  0.
         13    1    4    4    0    0 -0.44917076151E+02 -0.88049794968E+02  0.54196929788E+02  0.11272806803E+03  0.00000000000E+00 0. -1.
        -14    1    4    4    0    0  0.15594020056E+02  0.84573434501E+01  0.11524867172E+02  0.21154731931E+02  0.00000000000E+00 0.  1.
        -13    1    3    3    0    0 -0.12311274671E+02 -0.18431654268E+02  0.27795194934E+01  0.22338735231E+02  0.00000000000E+00 0. -1.
         13    1    3    3    0    0  0.86301792862E+01  0.69321353379E+02 -0.95604560532E+02  0.11840676511E+03  0.00000000000E+00 0.  1.
         21    1    1    2  502  501  0.33004151480E+02  0.28702752407E+02  0.46513172156E+02  0.63848235643E+02  0.00000000000E+00 0.  1.
<scales pt_clust_5="13000.00000" pt_clust_6="13000.00000" pt_clust_7="13000.00000" pt_clust_8="13000.00000" pt_clust_9="43.73925"></scales>
<clustering>
<clus scale="   43.739">  1  9  2 -1</clus>
<clus scale="   80.065">  5  6 -1 -1</clus>
<clus scale="   92.680">  7  8 -1 -1</clus>
<clus scale="   98.000">  1  5  2 -1</clus>
<clus scale="   43.739">  1  5  2 -1</clus>
</clustering>
</event>
<event>
 9    1  0.1973774E-005  0.9557130E+02  0.7546771E-02  0.1296206E+00
          1   -1    0    0  502    0  0.00000000000E+00  0.00000000000E+00  0.46618544895E+02  0.46618544895E+02  0.00000000000E+00 0. -1.
         -2   -1    0    0    0  501 -0.00000000000E+00 -0.00000000000E+00 -0.10207548753E+04  0.10207548753E+04  0.00000000000E+00 0.  1.
        -24    2    1    2    0    0 -0.31768173852E+02 -0.16446731834E+02 -0.79076869510E+03  0.79554885968E+03  0.79392361960E+02 0.  0.
         23    2    1    2    0    0 -0.13332926216E+02  0.29640790927E+02 -0.19999847036E+03  0.22197702202E+03  0.90653553435E+02 0.  0.
         13    1    3    3    0    0 -0.55087999141E+01 -0.42214648302E+02 -0.25596670716E+03  0.25948290615E+03  0.00000000000E+00 0. -1.
        -14    1    3    3    0    0 -0.26259373938E+02  0.25767916467E+02 -0.53480198794E+03  0.53606595354E+03  0.00000000000E+00 0.  1.
        -13    1    4    4    0    0  0.13619066201E+02  0.55892180187E+02 -0.10366972727E+03  0.11856149090E+03  0.00000000000E+00 0. -1.
         13    1    4    4    0    0 -0.26951992417E+02 -0.26251389260E+02 -0.96328743089E+02  0.10341553113E+03  0.00000000000E+00 0.  1.
         21    1    1    2  502  501  0.45101100068E+02 -0.13194059093E+02  0.16630835026E+02  0.49847538519E+02  0.00000000000E+00 0. -1.
<scales pt_clust_5="13000.00000" pt_clust_6="13000.00000" pt_clust_7="13000.00000" pt_clust_8="13000.00000" pt_clust_9="46.99141"></scales>
<clustering>
<clus scale="   46.991">  1  9  2 -1</clus>
<clus scale="   79.392">  5  6 -1 -1</clus>
<clus scale="   84.964">  2  5  1 -1</clus>
<clus scale="   90.654">  7  8 -1 -1</clus>
<clus scale="   46.991">  1  5  2 -1</clus>
</clustering>
</event>
<event>
 9    1  0.1973774E-005  0.1241417E+03  0.7546771E-02  0.1246183E+00
         -2   -1    0    0    0  501 -0.00000000000E+00  0.00000000000E+00  0.48733955556E+03  0.48733955556E+03  0.00000000000E+00 0.  1.
          1   -1    0    0  502    0  0.00000000000E+00 -0.00000000000E+00 -0.58476390573E+02  0.58476390573E+02  0.00000000000E+00 0. -1.
        -24    2    1    2    0    0  0.47458533654E+01  0.58380982824E+02  0.16341030259E+03  0.18871768427E+03  0.74030906265E+02 0.  0.
         23    2    1    2    0    0  0.42458363189E+02 -0.80717248374E+02  0.27180599887E+03  0.30449114103E+03  0.10255909105E+03 0.  0.
         11    1    3    3    0    0 -0.33105232071E+02  0.34864131238E+02  0.10281968935E+03  0.11350485697E+03  0.00000000000E+00 0. -1.
        -12    1    3    3    0    0  0.37851085436E+02  0.23516851586E+02  0.60590613243E+02  0.75212827300E+02  0.00000000000E+00 0.  1.
        -13    1    4    4    0    0  0.57685231253E+02 -0.40847249912E+02  0.74791739379E+02  0.10290718152E+03  0.00000000000E+00 0. -1.
         13    1    4    4    0    0 -0.15226868064E+02 -0.39869998461E+02  0.19701425949E+03  0.20158395950E+03  0.00000000000E+00 0.  1.
         21    1    1    2  502  501 -0.47204216555E+02  0.22336265550E+02 -0.63531364744E+01  0.52607120833E+02  0.00000000000E+00 0.  1.
<scales pt_clust_5="13000.00000" pt_clust_6="13000.00000" pt_clust_7="13000.00000" pt_clust_8="13000.00000" pt_clust_9="52.22209"></scales>
<clustering>
<clus scale="   52.222">  2  9  1 -1</clus>
<clus scale="   74.031">  5  6 -1 -1</clus>
<clus scale="  101.850">  1  5  2 -1</clus>
<clus scale="  102.559">  7  8 -1 -1</clus>
<clus scale="   52.222">  2  5  1 -1</clus>
</clustering>
</event>
<event>
 9    1  0.1973774E-005  0.1004980E+03  0.7546771E-02  0.1287425E+00
         -2   -1    0    0    0  501 -0.00000000000E+00  0.00000000000E+00  0.46289857666E+02  0.46289857666E+02  0.00000000000E+00 0.  1.
          1   -1    0    0  502    0  0.00000000000E+00 -0.00000000000E+00 -0.33734976831E+03  0.33734976831E+03  0.00000000000E+00 0. -1.
        -24    2    1    2    0    0  0.33690065915E+02 -0.40625274914E+02 -0.62378256723E+02  0.11245552563E+03  0.77264253253E+02 0.  0.
         23    2    1    2    0    0  0.29542687099E+01  0.21659179705E+02 -0.11101034670E+03  0.14648824407E+03  0.93046551833E+02 0.  0.
         11    1    3    3    0    0  0.55876386836E+02 -0.12179913834E+02 -0.42632006965E+02  0.71330280560E+02  0.00000000000E+00 0. -1.
        -12    1    3    3    0    0 -0.22186320921E+02 -0.28445361080E+02 -0.19746249757E+02  0.41125245075E+02  0.00000000000E+00 0.  1.
        -11    1    4    4    0    0 -0.20481434676E+02 -0.31431433349E+02 -0.41770486273E+02  0.56144435987E+02  0.00000000000E+00 0.  1.
         11    1    4    4    0    0  0.23435703386E+02  0.53090613054E+02 -0.69239860427E+02  0.90343808087E+02  0.00000000000E+00 0. -1.
         21    1    1    2  502  501 -0.36644334625E+02  0.18966095209E+02 -0.11767130722E+03  0.12469585627E+03  0.00000000000E+00 0.  1.
<scales pt_clust_5="13000.00000" pt_clust_6="13000.00000" pt_clust_7="13000.00000" pt_clust_8="13000.00000" pt_clust_9="41.26160"></scales>
<clustering>
<clus scale="   41.262">  2  9  1 -1</clus>
<clus scale="   77.264">  5  6 -1 -1</clus>
<clus scale="   86.093">  1  5  2 -1</clus>
<clus scale="   93.047">  7  8 -1 -1</clus>
<clus scale="   41.262">  2  5  1 -1</clus>
</clustering>
</event>
<event>
 9    1  0.1973774E-005  0.1021279E+03  0.7546771E-02  0.1277720E+00
          3   -1    0    0  502    0  0.00000000000E+00  0.00000000000E+00  0.59130249636E+03  0.59130249636E+03  0.00000000000E+00 0. -1.
         -4   -1    0    0    0  501 -0.00000000000E+00 -0.00000000000E+00 -0.57769002519E+02  0.57769002519E+02  0.00000000000E+00 0.  1.
        -24    2    1    2    0    0 -0.40542601518E+02  0.34608023658E+02  0.40680254238E+01  0.10152336302E+03  0.86307743392E+02 0.  0.
         23    2    1    2    0    0  0.22317214455E+02  0.14352850209E+01  0.28595644236E+03  0.30071229849E+03  0.90314347890E+02 0.  0.
         11    1    3    3    0    0 -0.15154729960E+02 -0.16658813013E+02  0.30980130518E+02  0.38300788217E+02  0.00000000000E+00 0. -1.
        -12    1    3    3    0    0 -0.25387871558E+02  0.51266836672E+02 -0.26912105094E+02  0.63222574806E+02  0.00000000000E+00 0.  1.
        -11    1    4    4    0    0 -0.12191874856E+02 -0.37700705473E+02  0.14819714477E+03  0.15340266856E+03  0.00000000000E+00 0. -1.
         11    1    4    4    0    0  0.34509089310E+02  0.39135990494E+02  0.13775929759E+03  0.14730962993E+03  0.00000000000E+00 0.  1.
         21    1    1    2  502  501  0.18225387064E+02 -0.36043308679E+02  0.24350902606E+03  0.24683583736E+03  0.00000000000E+00 0. -1.
<scales pt_clust_5="13000.00000" pt_clust_6="13000.00000" pt_clust_7="13000.00000" pt_clust_8="13000.00000" pt_clust_9="40.38917"></scales>
<clustering>
<clus scale="   40.389">  1  9  2 -1</clus>
<clus scale="   86.308">  5  6 -1 -1</clus>
<clus scale="   90.314">  7  8 -1 -1</clus>
<clus scale="   98.603">  2  5  1 -1</clus>
<clus scale="   40.389">  1  5  2 -1</clus>
</clustering>
</event>
<event>
 9    1  0.1973774E-005  0.1084154E+03  0.7546771E-02  0.1267582E+00
          1   -1    0    0  502    0  0.00000000000E+00  0.00000000000E+00  0.72262150385E+02  0.72262150385E+02  0.00000000000E+00 0. -1.
         -2   -1    0    0    0  501 -0.00000000000E+00 -0.00000000000E+00 -0.23271730796E+03  0.23271730796E+03  0.00000000000E+00 0.  1.
         23    2    1    2    0    0  0.44934462688E+02  0.29977046986E+02 -0.10237083738E+03  0.14706603512E+03  0.90724313483E+02 0.  0.
        -24    2    1    2    0    0 -0.73408570761E+02 -0.54287609047E+01 -0.42579076554E+02  0.11724641251E+03  0.80718360862E+02 0.  0.
         13    1    4    4    0    0 -0.79081249551E+02 -0.26500514181E+02 -0.19840690114E+02  0.85730824484E+02  0.00000000000E+00 0. -1.
        -14    1    4    4    0    0  0.56726787901E+01  0.21071753276E+02 -0.22738386440E+02  0.31515588027E+02  0.00000000000E+00 0.  1.
        -13    1    3    3    0    0  0.60802216068E+02  0.15067025701E+02 -0.26296376235E+02  0.67936912980E+02  0.00000000000E+00 0. -1.
         13    1    3    3    0    0 -0.15867753380E+02  0.14910021285E+02 -0.76074461145E+02  0.79129122139E+02  0.00000000000E+00 0.  1.
         21    1    1    2  502  501  0.28474108073E+02 -0.24548286082E+02 -0.15505243643E+02  0.40667010716E+02  0.00000000000E+00 0. -1.
<scales pt_clust_5="13000.00000" pt_clust_6="13000.00000" pt_clust_7="13000.00000" pt_clust_8="13000.00000" pt_clust_9="37.59512"></scales>
<clustering>
<clus scale="   37.595">  1  9  2 -1</clus>
<clus scale="   80.718">  5  6 -1 -1</clus>
<clus scale="   90.724">  7  8 -1 -1</clus>
<clus scale="  100.192">  1  5  2 -1</clus>
<clus scale="   37.595">  1  5  2 -1</clus>
</clustering>
</event>
<event>
 9    1  0.1973774E-005  0.9503503E+02  0.7546771E-02  0.1296560E+00
          1   -1    0    0  502    0  0.00000000000E+00  0.00000000000E+00  0.72690109651E+03  0.72690109651E+03  0.00000000000E+00 0. -1.
         -2   -1    0    0    0  501 -0.00000000000E+00 -0.00000000000E+00 -0.36771528712E+02  0.36771528712E+02  0.00000000000E+00 0.  1.
        -24    2    1    2    0    0 -0.19354822229E+02 -0.38183116011E+02  0.58028782927E+02  0.10768455114E+03  0.79975392557E+02 0.  0.
         23    2    1    2    0    0  0.26855494668E+02 -0.21137906135E+02  0.22681996426E+03  0.24632017528E+03  0.89768056076E+02 0.  0.
         13    1    3    3    0    0  0.27344926386E+02 -0.11068885306E+02  0.42056766765E+02  0.51371556835E+02  0.00000000000E+00 0. -1.
        -14    1    3    3    0    0 -0.46699748614E+02 -0.27114230705E+02  0.15972016161E+02  0.56312994305E+02  0.00000000000E+00 0.  1.
        -11    1    4    4    0    0  0.43695893847E+02  0.33762353616E+01  0.20447813301E+03  0.20912206240E+03  0.00000000000E+00 0. -1.
         11    1    4    4    0    0 -0.16840399179E+02 -0.24514141497E+02  0.22341831253E+02  0.37198112876E+02  0.00000000000E+00 0.  1.
         21    1    1    2  502  501 -0.75006724397E+01  0.59321022146E+02  0.40528082061E+03  0.40966789881E+03  0.00000000000E+00 0. -1.
<scales pt_clust_5="13000.00000" pt_clust_6="13000.00000" pt_clust_7="13000.00000" pt_clust_8="13000.00000" pt_clust_9="59.79334"></scales>
<clustering>
<clus scale="   59.793">  1  9  2 -1</clus>
<clus scale="   79.975">  5  6 -1 -1</clus>
<clus scale="   85.845">  2  5  1 -1</clus>
<clus scale="   89.768">  7  8 -1 -1</clus>
<clus scale="   59.793">  1  5  2 -1</clus>
</clustering>
</event>
<event>
 9    1  0.1973774E-005  0.1150340E+03  0.7546771E-02  0.1252414E+00
         -2   -1    0    0    0  501 -0.00000000000E+00  0.00000000000E+00  0.38338943389E+02  0.38338943389E+02  0.00000000000E+00 0.  1.
          1   -1    0    0  502    0  0.00000000000E+00 -0.00000000000E+00 -0.69706242800E+03  0.69706242800E+03  0.00000000000E+00 0. -1.
        -24    2    1    2    0    0  0.56679690647E+02 -0.49013451584E+01 -0.90814379738E+02  0.13776771128E+03  0.86579906380E+02 0.  0.
         23    2    1    2    0    0 -0.71048339470E+02 -0.34749896437E+02 -0.52137374461E+03  0.53483064439E+03  0.89206584718E+02 0.  0.
         11    1    3    3    0    0 -0.19803236407E+02 -0.89564711774E+01 -0.40994567303E+02  0.46399796298E+02  0.00000000000E+00 0. -1.
        -12    1    3    3    0    0  0.76482927053E+02  0.40551260190E+01 -0.49819812434E+02  0.91367914985E+02  0.00000000000E+00 0.  1.
        -11    1    4    4    0    0 -0.15477403165E+01 -0.45923442616E+02 -0.15137810957E+03  0.15819826213E+03  0.00000000000E+00 0.  1.
         11    1    4    4    0    0 -0.69500599154E+02  0.11173546179E+02 -0.36999563504E+03  0.37663238226E+03  0.00000000000E+00 0. -1.
         21    1    1    2  502  501  0.14368648824E+02  0.39651241595E+02 -0.46535360254E+02  0.62803015716E+02  0.00000000000E+00 0. -1.
<scales pt_clust_5="13000.00000" pt_clust_6="13000.00000" pt_clust_7="13000.00000" pt_clust_8="13000.00000" pt_clust_9="42.17439"></scales>
<clustering>
<clus scale="   42.174">  1  9  2 -1</clus>
<clus scale="   86.580">  5  6 -1 -1</clus>
<clus scale="   89.207">  7  8 -1 -1</clus>
<clus scale="  113.009">  1  5  2 -1</clus>
<clus scale="  115.034">  2  5  1 -1</clus>
</clustering>
</event>
<event>
 9    1  0.1973774E-005  0.9130323E+02  0.7546771E-02  0.1306744E+00
         -2   -1    0    0    0  501 -0.00000000000E+00  0.00000000000E+00  0.94695462590E+02  0.94695462590E+02  0.00000000000E+00 0.  1.
          1   -1    0    0  502    0  0.00000000000E+00 -0.00000000000E+00 -0.28043698836E+03  0.28043698836E+03  0.00000000000E+00 0. -1.
        -24    2    1    2    0    0 -0.35732380049E+00  0.12420202911E+01  0.48237414447E+02  0.93538556103E+02  0.80130787034E+02 0.  0.
         23    2    1    2    0    0 -0.22382104007E+02  0.45779328584E+02 -0.15595843452E+03  0.18770412897E+03  0.91176209774E+02 0.  0.
         13    1    3    3    0    0  0.27597625016E+02 -0.75024364415E+01 -0.83727119227E+01  0.29799626911E+02  0.00000000000E+00 0. -1.
        -14    1    3    3    0    0 -0.27954948817E+02  0.87444567326E+01  0.56610126370E+02  0.63738929192E+02  0.00000000000E+00 0.  1.
        -11    1    4    4    0    0  0.17037003654E+02  0.56410663310E+02 -0.63483005714E+02  0.86617056306E+02  0.00000000000E+00 0. -1.
         11    1    4    4    0    0 -0.39419107661E+02 -0.10631334726E+02 -0.92475428802E+02  0.10108707266E+03  0.00000000000E+00 0.  1.
         21    1    1    2  502  501  0.22739427807E+02 -0.47021348875E+02 -0.78020505699E+02  0.93889765878E+02  0.00000000000E+00 0. -1.
<scales pt_clust_5="13000.00000" pt_clust_6="13000.00000" pt_clust_7="13000.00000" pt_clust_8="13000.00000" pt_clust_9="52.23111"></scales>
<clustering>
<clus scale="   52.231">  2  9  1 -1</clus>
<clus scale="   80.131">  5  6 -1 -1</clus>
<clus scale="   80.275">  1  5  2 -1</clus>
<clus scale="   91.176">  7  8 -1 -1</clus>
<clus scale="   52.231">  2  5  1 -1</clus>
</clustering>
</event>
<event>
 9    1  0.1973774E-005  0.1531192E+03  0.7546771E-02  0.1199095E+00
          1   -1    0    0  502    0  0.00000000000E+00  0.00000000000E+00  0.14384840990E+03  0.14384840990E+03  0.00000000000E+00 0. -1.
         -2   -1    0    0    0  501 -0.00000000000E+00 -0.00000000000E+00 -0.10797454078E+04  0.10797454078E+04  0.00000000000E+00 0.  1.
        -24    2    1    2    0    0 -0.82952353440E+02  0.91740647971E+02 -0.10256249574E+04  0.10360760911E+04  0.79054878701E+02 0.  0.
         23    2    1    2    0    0  0.62434821326E+02 -0.60184754351E+02  0.66143444140E+02  0.14309956696E+03  0.92640268197E+02 0.  0.
         13    1    3    3    0    0 -0.75562114159E+02  0.64784760542E+02 -0.50579139808E+03  0.51549164559E+03  0.00000000000E+00 0. -1.
        -14    1    3    3    0    0 -0.73902392802E+01  0.26955887429E+02 -0.51983355930E+03  0.52058444549E+03  0.00000000000E+00 0.  1.
        -11    1    4    4    0    0  0.16070543737E+02  0.24845011620E+02  0.20752409806E+02  0.36141381977E+02  0.00000000000E+00 0.  1.
         11    1    4    4    0    0  0.46364277589E+02 -0.85029765971E+02  0.45391034334E+02  0.10695818499E+03  0.00000000000E+00 0. -1.
         21    1    1    2  502  501  0.20517532113E+02 -0.31555893620E+02  0.23584515325E+02  0.44418159679E+02  0.00000000000E+00 0.  1.
<scales pt_clust_5="13000.00000" pt_clust_6="13000.00000" pt_clust_7="13000.00000" pt_clust_8="13000.00000" pt_clust_9="37.63965"></scales>
<clustering>
<clus scale="   37.640">  1  9  2 -1</clus>
<clus scale="   79.055">  5  6 -1 -1</clus>
<clus scale="   92.640">  7  8 -1 -1</clus>
<clus scale="  145.303">  2  5  1 -1</clus>
<clus scale="   37.640">  1  5  2 -1</clus>
</clustering>
</event>
<event>
 9    1  0.1973774E-005  0.1254721E+03  0.7546771E-02  0.1235777E+00
          1   -1    0    0  502    0  0.00000000000E+00  0.00000000000E+00  0.79871181989E+02  0.79871181989E+02  0.00000000000E+00 0. -1.
         -2   -1    0    0    0  501 -0.00000000000E+00 -0.00000000000E+00 -0.98006181440E+03  0.98006181440E+03  0.00000000000E+00 0.  1.
        -24    2    1    2    0    0  0.33750640507E+02 -0.86204448697E+02 -0.82013913811E+03  0.82909835785E+03  0.78775430374E+02 0.  0.
         23    2    1    2    0    0  0.16797460767E+02  0.11057644401E+03 -0.90851719318E+01  0.14036186026E+03  0.84318484388E+02 0.  0.
         11    1    3    3    0    0  0.15833692723E+02 -0.54441880265E+02 -0.19981697135E+03  0.20770519058E+03  0.00000000000E+00 0. -1.
        -12    1    3    3    0    0  0.17916947784E+02 -0.31762568432E+02 -0.62032216675E+03  0.62139316728E+03  0.00000000000E+00 0.  1.
        -13    1    4    4    0    0 -0.29848250483E+02  0.75281466800E+02 -0.11623479871E+02  0.81812728745E+02  0.00000000000E+00 0. -1.
         13    1    4    4    0    0  0.46645711250E+02  0.35294977205E+02  0.25383079387E+01  0.58549131515E+02  0.00000000000E+00 0.  1.
         21    1    1    2  502  501 -0.50548101274E+02 -0.24371995308E+02 -0.70966322368E+02  0.90472778271E+02  0.00000000000E+00 0.  1.
<scales pt_clust_5="13000.00000" pt_clust_6="13000.00000" pt_clust_7="13000.00000" pt_clust_8="13000.00000" pt_clust_9="56.11688"></scales>
<clustering>
<clus scale="   56.117">  1  9  2 -1</clus>
<clus scale="   78.775">  5  6 -1 -1</clus>
<clus scale="   84.318">  7  8 -1 -1</clus>
<clus scale="  121.816">  2  5  1 -1</clus>
<clus scale="   56.117">  1  5  2 -1</clus>
</clustering>
</event>
<event>
 9    1  0.1973774E-005  0.1926137E+03  0.7546771E-02  0.1157107E+00
          1   -1    0    0  502    0  0.00000000000E+00  0.00000000000E+00  0.87904854698E+03  0.87904854698E+03  0.00000000000E+00 0. -1.
         -2   -1    0    0    0  501 -0.00000000000E+00 -0.00000000000E+00 -0.12326042705E+03  0.12326042705E+03  0.00000000000E+00 0.  1.
        -24    2    1    2    0    0 -0.16337066096E+03 -0.25570192994E+02  0.34854982577E+02  0.18787839622E+03  0.82095154091E+02 0.  0.
         23    2    1    2    0    0  0.18526069574E+03 -0.75612481191E+02  0.25373149122E+03  0.33589689527E+03  0.91696684342E+02 0.  0.
         13    1    3    3    0    0 -0.12413175032E+03  0.16782779679E+02  0.12190122331E+02  0.12585289911E+03  0.00000000000E+00 0. -1.
        -14    1    3    3    0    0 -0.39238910635E+02 -0.42352972674E+02  0.22664860247E+02  0.62025497113E+02  0.00000000000E+00 0.  1.
        -11    1    4    4    0    0  0.36981310788E+02  0.13832083310E+02  0.86854204788E+02  0.95407529921E+02  0.00000000000E+00 0.  1.
         11    1    4    4    0    0  0.14827938495E+03 -0.89444564501E+02  0.16687728643E+03  0.24048936535E+03  0.00000000000E+00 0. -1.
         21    1    1    2  502  501 -0.21890034781E+02  0.10118267419E+03  0.46720164613E+03  0.47853368254E+03  0.00000000000E+00 0.  1.
<scales pt_clust_5="13000.00000" pt_clust_6="13000.00000" pt_clust_7="13000.00000" pt_clust_8="13000.00000" pt_clust_9="103.52346"></scales>
<clustering>
<clus scale="   82.095">  5  6 -1 -1</clus>
<clus scale="   91.697">  7  8 -1 -1</clus>
<clus scale="  103.523">  1  9  2 -1</clus>
<clus scale="  188.232">  2  5  1 -1</clus>
<clus scale="  103.523">  1  5  2 -1</clus>
</clustering>
</event>
<event>
 9    1  0.1973774E-005  0.9885637E+02  0.7546771E-02  0.1286998E+00
         -2   -1    0    0    0  501 -0.00000000000E+00  0.00000000000E+00  0.98056940239E+02  0.98056940239E+02  0.00000000000E+00 0.  1.
          1   -1    0    0  502    0  0.00000000000E+00 -0.00000000000E+00 -0.18664963387E+03  0.18664963387E+03  0.00000000000E+00 0. -1.
        -24    2    1    2    0    0  0.41327380453E+02  0.71235667436E+01  0.35406304859E+02  0.97459942374E+02  0.80536552977E+02 0.  0.
         23    2    1    2    0    0 -0.46891092240E+02  0.18151186041E+02 -0.60994647641E+02  0.11913410540E+03  0.89131071706E+02 0.  0.
         13    1    3    3    0    0  0.25953239432E+02  0.23665920970E+02 -0.18005827598E+02  0.39469688114E+02  0.00000000000E+00 0. -1.
        -14    1    3    3    0    0  0.15374141021E+02 -0.16542354226E+02  0.53412132457E+02  0.57990254259E+02  0.00000000000E+00 0.  1.
        -13    1    4    4    0    0  0.10391395476E+02  0.39740908569E+02 -0.22812306348E+02  0.46986404786E+02  0.00000000000E+00 0.  1.
         13    1    4    4    0    0 -0.57282487717E+02 -0.21589722528E+02 -0.38182341293E+02  0.72147700618E+02  0.00000000000E+00 0. -1.
         21    1    1    2  502  501  0.55637117874E+01 -0.25274752785E+02 -0.63004350849E+02  0.68112526330E+02  0.00000000000E+00 0.  1.
<scales pt_clust_5="13000.00000" pt_clust_6="13000.00000" pt_clust_7="13000.00000" pt_clust_8="13000.00000" pt_clust_9="25.87988"></scales>
<clustering>
<clus scale="   25.880">  2  9  1 -1</clus>
<clus scale="   80.537">  5  6 -1 -1</clus>
<clus scale="   89.131">  7  8 -1 -1</clus>
<clus scale="   91.183">  1  5  2 -1</clus>
<clus scale="   25.880">  2  5  1 -1</clus>
</clustering>
</event>
<event>
 9    1  0.1973774E-005  0.9346330E+02  0.7546771E-02  0.1300391E+00
          1   -1    0    0  502    0  0.00000000000E+00  0.00000000000E+00  0.29348449980E+03  0.29348449980E+03  0.00000000000E+00 0. -1.
         -2   -1    0    0    0  501 -0.00000000000E+00 -0.00000000000E+00 -0.90762576150E+02  0.90762576150E+02  0.00000000000E+00 0.  1.
         23    2    1    2    0    0  0.45530647177E+02 -0.30193962549E+02 -0.33303275274E+02  0.11026546861E+03  0.89803397581E+02 0.  0.
        -24    2    1    2    0    0 -0.13848319679E+02  0.18555490787E+02  0.22258195031E+03  0.23765056230E+03  0.79993643248E+02 0.  0.
         11    1    4    4    0    0 -0.39681638352E+02  0.67168780750E+01  0.19088030307E+03  0.19507700780E+03  0.00000000000E+00 0. -1.
        -12    1    4    4    0    0  0.25833318673E+02  0.11838612712E+02  0.31701647246E+02  0.42573554499E+02  0.00000000000E+00 0.  1.
        -13    1    3    3    0    0  0.43166201346E+02  0.39348466194E+01 -0.54793445014E+02  0.69865052588E+02  0.00000000000E+00 0.  1.
         13    1    3    3    0    0  0.23644458310E+01 -0.34128809169E+02  0.21490169740E+02  0.40400416023E+02  0.00000000000E+00 0. -1.
         21    1    1    2  502  501 -0.31682327498E+02  0.11638471762E+02  0.13443248614E+02  0.36331045043E+02  0.00000000000E+00 0. -1.
<scales pt_clust_5="13000.00000" pt_clust_6="13000.00000" pt_clust_7="13000.00000" pt_clust_8="13000.00000" pt_clust_9="33.75239"></scales>
<clustering>
<clus scale="   33.752">  2  9  1 -1</clus>
<clus scale="   79.994">  5  6 -1 -1</clus>
<clus scale="   84.082">  1  5  2 -1</clus>
<clus scale="   89.803">  7  8 -1 -1</clus>
<clus scale="   84.082">  1  5  2 -1</clus>
</clustering>
</event>
<event>
 9    1  0.1973774E-005  0.1032053E+03  0.7546771E-02  0.1276232E+00
          1   -1    0    0  502    0  0.00000000000E+00  0.00000000000E+00  0.13848789029E+03  0.13848789029E+03  0.00000000000E+00 0. -1.
         -2   -1    0    0    0  501 -0.00000000000E+00 -0.00000000000E+00 -0.24722974675E+03  0.24722974675E+03  0.00000000000E+00 0.  1.
        -24    2    1    2    0    0 -0.40326047124E+02  0.40810666081E+02 -0.20252141672E+03  0.22544045346E+03  0.80726533947E+02 0.  0.
         23    2    1    2    0    0  0.48404012859E+02 -0.16753846948E+02  0.57201910307E+02  0.11575855205E+03  0.86627616742E+02 0.  0.
         11    1    3    3    0    0 -0.58150098696E+02  0.16524428372E+02 -0.86223875494E+02  0.10530454604E+03  0.00000000000E+00 0. -1.
        -12    1    3    3    0    0  0.17824051572E+02  0.24286237709E+02 -0.11629754122E+03  0.12013590742E+03  0.00000000000E+00 0.  1.
        -13    1    4    4    0    0  0.22736304549E+02 -0.93204025024E+01 -0.21495725430E+02  0.32647751211E+02  0.00000000000E+00 0.  1.
         13    1    4    4    0    0  0.25667708310E+02 -0.74334444452E+01  0.78697635737E+02  0.83110800843E+02  0.00000000000E+00 0. -1.
         21    1    1    2  502  501 -0.80779657342E+01 -0.24056819133E+02  0.36577649955E+02  0.44518631532E+02  0.00000000000E+00 0. -1.
<scales pt_clust_5="13000.00000" pt_clust_6="13000.00000" pt_clust_7="13000.00000" pt_clust_8="13000.00000" pt_clust_9="25.37684"></scales>
<clustering>
<clus scale="   25.377">  1  9  2 -1</clus>
<clus scale="   80.727">  5  6 -1 -1</clus>
<clus scale="   86.628">  7  8 -1 -1</clus>
<clus scale="   98.304">  2  5  1 -1</clus>
<clus scale="   25.377">  1  5  2 -1</clus>
</clustering>
</event>
<event>
 9    1  0.1973774E-005  0.1010377E+03  0.7546771E-02  0.1286351E+00
         -2   -1    0    0    0  501 -0.00000000000E+00  0.00000000000E+00  0.56561092259E+02  0.56561092259E+02  0.00000000000E+00 0.  1.
          1   -1    0    0  502    0  0.00000000000E+00 -0.00000000000E+00 -0.55540351820E+03  0.55540351820E+03  0.00000000000E+00 0. -1.
         23    2    1    2    0    0  0.34692302022E+02 -0.99210688958E+01 -0.36237018503E+00  0.10077809179E+03  0.94096275402E+02 0.  0.
        -24    2    1    2    0    0 -0.46285585863E+02 -0.73825482771E+01 -0.43199120230E+03  0.44151165210E+03  0.78225843554E+02 0.  0.
         11    1    4    4    0    0 -0.41078187997E+02  0.29705391517E+02 -0.19031689940E+03  0.19695265932E+03  0.00000000000E+00 0. -1.
        -12    1    4    4    0    0 -0.52073978658E+01 -0.37087939794E+02 -0.24167430289E+03  0.24455899278E+03  0.00000000000E+00 0.  1.
        -13    1    3    3    0    0  0.25760852233E+02  0.39468032571E+02  0.12901067197E+02  0.48864963292E+02  0.00000000000E+00 0.  1.
         13    1    3    3    0    0  0.89314497895E+01 -0.49389101467E+02 -0.13263437382E+02  0.51913128495E+02  0.00000000000E+00 0. -1.
         21    1    1    2  502  501  0.11593283840E+02  0.17303617173E+02 -0.66488853456E+02  0.69674866569E+02  0.00000000000E+00 0. -1.
<scales pt_clust_5="13000.00000" pt_clust_6="13000.00000" pt_clust_7="13000.00000" pt_clust_8="13000.00000" pt_clust_9="20.82833"></scales>
<clustering>
<clus scale="   20.828">  2  9  1 -1</clus>
<clus scale="   78.226">  5  6 -1 -1</clus>
<clus scale="   86.451">  2  5  1 -1</clus>
<clus scale="   94.096">  7  8 -1 -1</clus>
<clus scale="   20.828">  2  5  1 -1</clus>
</clustering>
</event>
<event>
 9    1  0.1973774E-005  0.1359489E+03  0.7546771E-02  0.1223318E+00
         -2   -1    0    0    0  501 -0.00000000000E+00  0.00000000000E+00  0.20977591120E+03  0.20977591120E+03  0.00000000000E+00 0.  1.
          1   -1    0    0  502    0  0.00000000000E+00 -0.00000000000E+00 -0.54117360644E+03  0.54117360644E+03  0.00000000000E+00 0. -1.
         23    2    1    2    0    0 -0.14231726772E+02  0.10454834670E+03  0.11741157081E+03  0.18273753523E+03  0.92057758919E+02 0.  0.
        -24    2    1    2    0    0 -0.97454543007E+02 -0.82377138015E+02 -0.52942188024E+02  0.15629435858E+03  0.73086732260E+02 0.  0.
         11    1    4    4    0    0 -0.89999202859E+02 -0.95802337395E+02 -0.50142825635E+02  0.14068492218E+03  0.00000000000E+00 0. -1.
        -12    1    4    4    0    0 -0.74553401476E+01  0.13425199381E+02 -0.27993623887E+01  0.15609436406E+02  0.00000000000E+00 0.  1.
        -13    1    3    3    0    0 -0.37489468040E+02  0.10899395371E+03  0.88208383264E+02  0.14514083174E+03  0.00000000000E+00 0. -1.
         13    1    3    3    0    0  0.23257741268E+02 -0.44456070111E+01  0.29203187549E+02  0.37596703494E+02  0.00000000000E+00 0.  1.
         21    1    1    2  502  501  0.11168626978E+03 -0.22171208685E+02 -0.39586707803E+03  0.41191762383E+03  0.00000000000E+00 0. -1.
<scales pt_clust_5="13000.00000" pt_clust_6="13000.00000" pt_clust_7="13000.00000" pt_clust_8="13000.00000" pt_clust_9="113.86565"></scales>
<clustering>
<clus scale="   73.087">  5  6 -1 -1</clus>
<clus scale="   92.058">  7  8 -1 -1</clus>
<clus scale="  113.866">  2  9  1 -1</clus>
<clus scale="  123.892">  2  5  1 -1</clus>
<clus scale="  113.866">  2  5  1 -1</clus>
</clustering>
</event>
<event>
 9    1  0.1973774E-005  0.9865674E+02  0.7546771E-02  0.1286206E+00
         -2   -1    0    0    0  501 -0.00000000000E+00  0.00000000000E+00  0.19953164123E+03  0.19953164123E+03  0.00000000000E+00 0.  1.
          1   -1    0    0  502    0  0.00000000000E+00 -0.00000000000E+00 -0.20149237617E+03  0.20149237617E+03  0.00000000000E+00 0. -1.
        -24    2    1    2    0    0  0.48767731267E+02  0.21771220825E+02  0.16001263404E+03  0.18914920983E+03  0.85563443464E+02 0.  0.
         23    2    1    2    0    0 -0.35380161120E+02 -0.39666767913E+01 -0.16216079401E+03  0.18959782505E+03  0.91562666089E+02 0.  0.
         11    1    3    3    0    0  0.22396646674E+01 -0.24316228800E+02  0.11817234468E+02  0.27128253010E+02  0.00000000000E+00 0. -1.
        -12    1    3    3    0    0  0.46528066600E+02  0.46087449625E+02  0.14819539957E+03  0.16202095682E+03  0.00000000000E+00 0.  1.
        -11    1    4    4    0    0  0.91189256875E+01  0.36229917306E+02 -0.50037603970E+02  0.62446165013E+02  0.00000000000E+00 0.  1.
         11    1    4    4    0    0 -0.44499086807E+02 -0.40196594097E+02 -0.11212319004E+03  0.12715166003E+03  0.00000000000E+00 0. -1.
         21    1    1    2  502  501 -0.13387570147E+02 -0.17804544034E+02  0.18742503715E+00  0.22276982535E+02  0.00000000000E+00 0. -1.
<scales pt_clust_5="13000.00000" pt_clust_6="13000.00000" pt_clust_7="13000.00000" pt_clust_8="13000.00000" pt_clust_9="22.27619"></scales>
<clustering>
<clus scale="   22.276">  1  9  2 -1</clus>
<clus scale="   85.563">  5  6 -1 -1</clus>
<clus scale="   91.563">  7  8 -1 -1</clus>
<clus scale="   93.116">  1  5  2 -1</clus>
<clus scale="   98.657">  2  5  1 -1</clus>
</clustering>
</event>
<event>
 9    1  0.1973774E-005  0.1006253E+03  0.7546771E-02  0.1285817E+00
         -4   -1    0    0    0  501 -0.00000000000E+00  0.00000000000E+00  0.17489046496E+03  0.17489046496E+03  0.00000000000E+00 0.  1.
          3   -1    0    0  502    0  0.00000000000E+00 -0.00000000000E+00 -0.16166708072E+03  0.16166708072E+03  0.00000000000E+00 0. -1.
        -24    2    1    2    0    0 -0.26560737353E+02  0.23211134661E+02  0.10818500635E+03  0.14023137361E+03  0.81954944963E+02 0.  0.
         23    2    1    2    0    0 -0.26996050310E+02 -0.51172425645E+02 -0.65750648388E+02  0.12921846548E+03  0.95009789913E+02 0.  0.
         11    1    3    3    0    0  0.28613264567E+02  0.49439805284E+01  0.51054892341E+02  0.58734690640E+02  0.00000000000E+00 0. -1.
        -12    1    3    3    0    0 -0.55174001920E+02  0.18267154133E+02  0.57130114010E+02  0.81496682968E+02  0.00000000000E+00 0.  1.
        -13    1    4    4    0    0 -0.38628195479E+02  0.14014382294E+02 -0.42297161814E+02  0.58971097112E+02  0.00000000000E+00 0.  1.
         13    1    4    4    0    0  0.11632145169E+02 -0.65186807939E+02 -0.23453486574E+02  0.70247368370E+02  0.00000000000E+00 0. -1.
         21    1    1    2  502  501  0.53556787663E+02  0.27961290984E+02 -0.29210973714E+02  0.67107706589E+02  0.00000000000E+00 0. -1.
<scales pt_clust_5="13000.00000" pt_clust_6="13000.00000" pt_clust_7="13000.00000" pt_clust_8="13000.00000" pt_clust_9="60.41658"></scales>
<clustering>
<clus scale="   60.417">  2  9  1 -1</clus>
<clus scale="   81.955">  5  6 -1 -1</clus>
<clus scale="   88.404">  1  5  2 -1</clus>
<clus scale="   95.010">  7  8 -1 -1</clus>
<clus scale="   60.417">  2  5  1 -1</clus>
</clustering>
</event>
<event>
 9    1  0.1973774E-005  0.1734610E+03  0.7546771E-02  0.1174289E+00
          1   -1    0    0  502    0  0.00000000000E+00  0.00000000000E+00  0.69492634009E+03  0.69492634009E+03  0.00000000000E+00 0. -1.
         -2   -1    0    0    0  501 -0.00000000000E+00 -0.00000000000E+00 -0.12846052457E+03  0.12846052457E+03  0.00000000000E+00 0.  1.
        -24    2    1    2    0    0 -0.61896051355E+02 -0.14117402189E+03 -0.40629591774E+02  0.18442828936E+03  0.92745913962E+02 0.  0.
         23    2    1    2    0    0  0.16502263858E+02  0.10384025326E+03  0.41151770382E+03  0.43474044604E+03  0.92721690877E+02 0.  0.
         13    1    3    3    0    0 -0.30321100804E+02 -0.84793992109E+02  0.23833826267E+02  0.93152785928E+02  0.00000000000E+00 0. -1.
        -14    1    3    3    0    0 -0.31574950552E+02 -0.56380029786E+02 -0.64463418040E+02  0.91275503430E+02  0.00000000000E+00 0.  1.
        -13    1    4    4    0    0 -0.31519637147E+02  0.51489637227E+02  0.11559813465E+03  0.13041318569E+03  0.00000000000E+00 0. -1.
         13    1    4    4    0    0  0.48021901006E+02  0.52350616032E+02  0.29591956917E+03  0.30432726036E+03  0.00000000000E+00 0.  1.
         21    1    1    2  502  501  0.45393787497E+02  0.37333768636E+02  0.19557770347E+03  0.20421812926E+03  0.00000000000E+00 0.  1.
<scales pt_clust_5="13000.00000" pt_clust_6="13000.00000" pt_clust_7="13000.00000" pt_clust_8="13000.00000" pt_clust_9="58.77420"></scales>
<clustering>
<clus scale="   58.774">  1  9  2 -1</clus>
<clus scale="   92.722">  7  8 -1 -1</clus>
<clus scale="   92.746">  5  6 -1 -1</clus>
<clus scale="  173.448">  1  7  2 -1</clus>
<clus scale="   58.774">  1  5  2 -1</clus>
</clustering>
</event>
<event>
 9    1  0.1973774E-005  0.8297408E+02  0.7546771E-02  0.1321061E+00
          1   -1    0    0  502    0  0.00000000000E+00  0.00000000000E+00  0.60328024642E+03  0.60328024642E+03  0.00000000000E+00 0. -1.
         -2   -1    0    0    0  501 -0.00000000000E+00 -0.00000000000E+00 -0.27949392742E+02  0.27949392742E+02  0.00000000000E+00 0.  1.
         23    2    1    2    0    0  0.27366054388E+02  0.49549348257E+02  0.15792274756E+03  0.18616493476E+03  0.80707805629E+02 0.  0.
        -24    2    1    2    0    0  0.53175911140E+01 -0.91820866708E+01  0.35371428701E+03  0.36287809306E+03  0.80337575902E+02 0.  0.
         11    1    4    4    0    0  0.39404905768E+02  0.74913504857E+01  0.23012386117E+03  0.23359336123E+03  0.00000000000E+00 0. -1.
        -12    1    4    4    0    0 -0.34087314654E+02 -0.16673437156E+02  0.12359042583E+03  0.12928473183E+03  0.00000000000E+00 0.  1.
        -13    1    3    3    0    0 -0.21017662379E+02 -0.72846488161E+01  0.52272007416E+02  0.56808194827E+02  0.00000000000E+00 0.  1.
         13    1    3    3    0    0  0.48383716767E+02  0.56833997073E+02  0.10565074015E+03  0.12935673993E+03  0.00000000000E+00 0. -1.
         21    1    1    2  502  501 -0.32683645502E+02 -0.40367261586E+02  0.63693819107E+02  0.82186611341E+02  0.00000000000E+00 0.  1.
<scales pt_clust_5="13000.00000" pt_clust_6="13000.00000" pt_clust_7="13000.00000" pt_clust_8="13000.00000" pt_clust_9="51.93974"></scales>
<clustering>
<clus scale="   51.940">  2  9  1 -1</clus>
<clus scale="   80.338">  5  6 -1 -1</clus>
<clus scale="   80.708">  7  8 -1 -1</clus>
<clus scale="   82.614">  1  5  2 -1</clus>
<clus scale="   82.614">  1  5  2 -1</clus>
</clustering>
</event>
<event>
 9    1  0.1973774E-005  0.1055354E+03  0.7546771E-02  0.1275069E+00
         -2   -1    0    0    0  501 -0.00000000000E+00  0.00000000000E+00  0.18600980967E+03  0.18600980967E+03  0.00000000000E+00 0.  1.
          1   -1    0    0  502    0  0.00000000000E+00 -0.00000000000E+00 -0.20307366210E+03  0.20307366210E+03  0.00000000000E+00 0. -1.
         23    2    1    2    0    0 -0.27766840419E+02 -0.42355111801E+02  0.14419911647E+03  0.17795014967E+03  0.91147779206E+02 0.  0.
        -24    2    1    2    0    0  0.38454629079E+02  0.66605219332E+02 -0.13711345662E+03  0.17527951498E+03  0.77509964819E+02 0.  0.
         13    1    4    4    0    0 -0.13303199160E+02  0.33503299147E+02 -0.92720854624E+02  0.99481671899E+02  0.00000000000E+00 0. -1.
        -14    1    4    4    0    0  0.51757828239E+02  0.33101920185E+02 -0.44392601992E+02  0.75797843080E+02  0.00000000000E+00 0.  1.
        -11    1    3    3    0    0 -0.28058013213E+02  0.14266373545E+01  0.12834731541E+03  0.13138615137E+03  0.00000000000E+00 0.  1.
         11    1    3    3    0    0  0.29117279415E+00 -0.43781749155E+02  0.15851801062E+02  0.46563998299E+02  0.00000000000E+00 0. -1.
         21    1    1    2  502  501 -0.10687788660E+02 -0.24250107532E+02 -0.24149512279E+02  0.35853807121E+02  0.00000000000E+00 0. -1.
<scales pt_clust_5="13000.00000" pt_clust_6="13000.00000" pt_clust_7="13000.00000" pt_clust_8="13000.00000" pt_clust_9="26.50088"></scales>
<clustering>
<clus scale="   26.501">  2  9  1 -1</clus>
<clus scale="   77.510">  5  6 -1 -1</clus>
<clus scale="   91.148">  7  8 -1 -1</clus>
<clus scale="   94.008">  2  5  1 -1</clus>
<clus scale="   26.501">  2  5  1 -1</clus>
</clustering>
</event>
<event>
 9    1  0.1973774E-005  0.3309158E+03  0.7546771E-02  0.1110381E+00
          1   -1    0    0  502    0  0.00000000000E+00  0.00000000000E+00  0.14417885122E+04  0.14417885122E+04  0.00000000000E+00 0. -1.
         -2   -1    0    0    0  501 -0.00000000000E+00 -0.00000000000E+00 -0.11949226401E+03  0.11949226401E+03  0.00000000000E+00 0.  1.
         23    2    1    2    0    0  0.15762907666E+03  0.27782090642E+03  0.29752505036E+03  0.44608836226E+03  0.91881932351E+02 0.  0.
        -24    2    1    2    0    0  0.68179754460E+02 -0.48088273449E+02  0.31596760797E+03  0.33662370160E+03  0.80740486967E+02 0.  0.
         13    1    4    4    0    0  0.73676390823E+02 -0.33168668860E+02  0.30877717719E+03  0.31917348937E+03  0.00000000000E+00 0. -1.
        -14    1    4    4    0    0 -0.54966363635E+01 -0.14919604589E+02  0.71904307718E+01  0.17450212236E+02  0.00000000000E+00 0.  1.
        -13    1    3    3    0    0 -0.51918489662E+01  0.47691078316E+02  0.64236976604E+02  0.80173458263E+02  0.00000000000E+00 0. -1.
         13    1    3    3    0    0  0.16282092562E+03  0.23012982811E+03  0.23328807376E+03  0.36591490399E+03  0.00000000000E+00 0.  1.
         21    1    1    2  502  501 -0.22580883112E+03 -0.22973263297E+03  0.70880358985E+03  0.77856871235E+03  0.00000000000E+00 0. -1.
<scales pt_clust_5="13000.00000" pt_clust_6="13000.00000" pt_clust_7="13000.00000" pt_clust_8="13000.00000" pt_clust_9="317.90401"></scales>
<clustering>
<clus scale="   80.740">  5  6 -1 -1</clus>
<clus scale="   91.882">  7  8 -1 -1</clus>
<clus scale="  116.103">  1  5  2 -1</clus>
<clus scale="  317.904">  1  9  2 -1</clus>
<clus scale="  116.103">  1  5  2 -1</clus>
</clustering>
</event>
<event>
 9    1  0.1973774E-005  0.1150029E+03  0.7546771E-02  0.1256315E+00
          1   -1    0    0  502    0  0.00000000000E+00  0.00000000000E+00  0.16831442871E+03  0.16831442871E+03  0.00000000000E+00 0. -1.
         -2   -1    0    0    0  501 -0.00000000000E+00 -0.00000000000E+00 -0.17455672045E+03  0.17455672045E+03  0.00000000000E+00 0.  1.
         23    2    1    2    0    0 -0.71985501964E+02  0.14617659753E+02 -0.12772864870E+03  0.17323347215E+03  0.91102358404E+02 0.  0.
        -24    2    1    2    0    0  0.49506993966E+02 -0.21737285266E+02  0.10096597981E+03  0.13837974574E+03  0.77661914272E+02 0.  0.
         13    1    4    4    0    0  0.28306353732E+02 -0.41674356971E+02  0.96605528244E+02  0.10895241979E+03  0.00000000000E+00 0. -1.
        -14    1    4    4    0    0  0.21200640234E+02  0.19937071705E+02  0.43604515676E+01  0.29427325947E+02  0.00000000000E+00 0.  1.
        -11    1    3    3    0    0 -0.52087314739E+02 -0.86987941126E+01 -0.13210570706E+03  0.14226972697E+03  0.00000000000E+00 0.  1.
         11    1    3    3    0    0 -0.19898187226E+02  0.23316453865E+02  0.43770583613E+01  0.30963745181E+02  0.00000000000E+00 0. -1.
         21    1    1    2  502  501  0.22478507999E+02  0.71196255134E+01  0.20520377149E+02  0.31257931276E+02  0.00000000000E+00 0. -1.
<scales pt_clust_5="13000.00000" pt_clust_6="13000.00000" pt_clust_7="13000.00000" pt_clust_8="13000.00000" pt_clust_9="23.57907"></scales>
<clustering>
<clus scale="   23.579">  1  9  2 -1</clus>
<clus scale="   77.662">  5  6 -1 -1</clus>
<clus scale="   91.102">  7  8 -1 -1</clus>
<clus scale="  104.678">  1  5  2 -1</clus>
<clus scale="   23.579">  1  5  2 -1</clus>
</clustering>
</event>
<event>
 9    1  0.1973774E-005  0.9432561E+02  0.7546771E-02  0.1300119E+00
         -2   -1    0    0    0  501 -0.00000000000E+00  0.00000000000E+00  0.33447345907E+03  0.33447345907E+03  0.00000000000E+00 0.  1.
          1   -1    0    0  502    0  0.00000000000E+00 -0.00000000000E+00 -0.62560830221E+02  0.62560830221E+02  0.00000000000E+00 0. -1.
        -24    2    1    2    0    0 -0.99051095920E+01 -0.17801344444E+02  0.25267177237E+03  0.26568971750E+03  0.79580163173E+02 0.  0.
         23    2    1    2    0    0 -0.17707092830E+02  0.31599467384E+02  0.17280433445E+02  0.10041456730E+03  0.92045665140E+02 0.  0.
         11    1    3    3    0    0  0.35118114195E+02 -0.75342801522E+01  0.11515942744E+03  0.12063059749E+03  0.00000000000E+00 0. -1.
        -12    1    3    3    0    0 -0.45023223787E+02 -0.10267064291E+02  0.13751234493E+03  0.14505912001E+03  0.00000000000E+00 0.  1.
        -11    1    4    4    0    0 -0.43539464610E+02  0.38086185565E+02  0.35750632986E+02  0.68002575454E+02  0.00000000000E+00 0.  1.
         11    1    4    4    0    0  0.25832371780E+02 -0.64867181815E+01 -0.18470199541E+02  0.32411991849E+02  0.00000000000E+00 0. -1.
         21    1    1    2  502  501  0.27612202422E+02 -0.13798122940E+02  0.19604230313E+01  0.30930004489E+02  0.00000000000E+00 0.  1.
<scales pt_clust_5="13000.00000" pt_clust_6="13000.00000" pt_clust_7="13000.00000" pt_clust_8="13000.00000" pt_clust_9="30.86781"></scales>
<clustering>
<clus scale="   30.868">  2  9  1 -1</clus>
<clus scale="   79.580">  5  6 -1 -1</clus>
<clus scale="   82.207">  1  5  2 -1</clus>
<clus scale="   92.046">  7  8 -1 -1</clus>
<clus scale="   30.868">  2  5  1 -1</clus>
</clustering>
</event>
<event>
 9    1  0.1973774E-005  0.1108194E+03  0.7546771E-02  0.1263935E+00
         -2   -1    0    0    0  501 -0.00000000000E+00  0.00000000000E+00  0.28341614036E+02  0.28341614036E+02  0.00000000000E+00 0.  1.
          1   -1    0    0  502    0  0.00000000000E+00 -0.00000000000E+00 -0.81819112483E+03  0.81819112483E+03  0.00000000000E+00 0. -1.
        -24    2    1    2    0    0  0.49919997516E+02 -0.22736301186E+02 -0.15120159401E+03  0.17951603426E+03  0.79719125564E+02 0.  0.
         23    2    1    2    0    0 -0.90651701723E+02 -0.22402004793E+02 -0.45742685468E+03  0.47586856378E+03  0.92151949312E+02 0.  0.
         13    1    3    3    0    0  0.50910254821E+02 -0.37388991919E+02 -0.15220947779E+03  0.16479537582E+03  0.00000000000E+00 0. -1.
        -14    1    3    3    0    0 -0.99025730483E+00  0.14652690733E+02  0.10078837756E+01  0.14720658441E+02  0.00000000000E+00 0.  1.
        -13    1    4    4    0    0 -0.32363186586E+02 -0.49952719443E+02 -0.14286567319E+03  0.15476837727E+03  0.00000000000E+00 0. -1.
         13    1    4    4    0    0 -0.58288515136E+02  0.27550714651E+02 -0.31456118149E+03  0.32110018651E+03  0.00000000000E+00 0.  1.
         21    1    1    2  502  501  0.40731704207E+02  0.45138305979E+02 -0.18122106209E+03  0.19114814082E+03  0.00000000000E+00 0.  1.
<scales pt_clust_5="13000.00000" pt_clust_6="13000.00000" pt_clust_7="13000.00000" pt_clust_8="13000.00000" pt_clust_9="60.79916"></scales>
<clustering>
<clus scale="   60.799">  2  9  1 -1</clus>
<clus scale="   79.719">  5  6 -1 -1</clus>
<clus scale="   92.152">  7  8 -1 -1</clus>
<clus scale="  100.718">  1  5  2 -1</clus>
<clus scale="   60.799">  2  5  1 -1</clus>
</clustering>
</event>
<event>
 9    1  0.1973774E-005  0.9628179E+02  0.7546771E-02  0.1295066E+00
          1   -1    0    0  502    0  0.00000000000E+00  0.00000000000E+00  0.82755673573E+02  0.82755673573E+02  0.00000000000E+00 0. -1.
         -2   -1    0    0    0  501 -0.00000000000E+00 -0.00000000000E+00 -0.34859501120E+03  0.34859501120E+03  0.00000000000E+00 0.  1.
         23    2    1    2    0    0 -0.17755193402E+02 -0.66365847833E+01 -0.28723581958E+03  0.30298232791E+03  0.94522927501E+02 0.  0.
        -24    2    1    2    0    0  0.51398834367E+00  0.29393865399E+02  0.37491915393E+02  0.95593123067E+02  0.82874229714E+02 0.  0.
         13    1    4    4    0    0  0.21319559788E+02  0.19369787928E+02  0.57966907123E+02  0.64729240961E+02  0.00000000000E+00 0. -1.
        -14    1    4    4    0    0 -0.20805571445E+02  0.10024077471E+02 -0.20474991731E+02  0.30863882106E+02  0.00000000000E+00 0.  1.
        -11    1    3    3    0    0 -0.42759848879E+02  0.29758896198E+02 -0.14696660243E+03  0.15592683800E+03  0.00000000000E+00 0.  1.
         11    1    3    3    0    0  0.25004655477E+02 -0.36395480982E+02 -0.14026921715E+03  0.14705548991E+03  0.00000000000E+00 0. -1.
         21    1    1    2  502  501  0.17241205059E+02 -0.22757280616E+02 -0.16095433438E+02  0.32775233797E+02  0.00000000000E+00 0. -1.
<scales pt_clust_5="13000.00000" pt_clust_6="13000.00000" pt_clust_7="13000.00000" pt_clust_8="13000.00000" pt_clust_9="28.55088"></scales>
<clustering>
<clus scale="   28.551">  1  9  2 -1</clus>
<clus scale="   82.874">  5  6 -1 -1</clus>
<clus scale="   84.875">  1  5  2 -1</clus>
<clus scale="   94.523">  7  8 -1 -1</clus>
<clus scale="   28.551">  1  5  2 -1</clus>
</clustering>
</event>
<event>
 9    1  0.1973774E-005  0.1393619E+03  0.7546771E-02  0.1217513E+00
         -2   -1    0    0    0  501 -0.00000000000E+00  0.00000000000E+00  0.47973542936E+03  0.47973542936E+03  0.00000000000E+00 0.  1.
          1   -1    0    0  502    0  0.00000000000E+00 -0.00000000000E+00 -0.52200434564E+02  0.52200434564E+02  0.00000000000E+00 0. -1.
         23    2    1    2    0    0 -0.59252980448E+02  0.70493640688E+02  0.23548773616E+03  0.27011966811E+03  0.95025744668E+02 0.  0.
        -24    2    1    2    0    0  0.63312607531E+02 -0.96925380982E+02  0.18762338351E+03  0.23471106459E+03  0.80521637170E+02 0.  0.
         11    1    4    4    0    0  0.51873853946E+02 -0.41572159268E+02  0.42328038367E+02  0.78808654229E+02  0.00000000000E+00 0. -1.
        -12    1    4    4    0    0  0.11438753585E+02 -0.55353221714E+02  0.14529534514E+03  0.15590241036E+03  0.00000000000E+00 0.  1.
        -11    1    3    3    0    0 -0.25511771724E+02  0.48018364121E+02  0.22016349525E+03  0.22677869925E+03  0.00000000000E+00 0.  1.
         11    1    3    3    0    0 -0.33741208724E+02  0.22475276567E+02  0.15324240908E+02  0.43340968867E+02  0.00000000000E+00 0. -1.
         21    1    1    2  502  501 -0.40596270823E+01  0.26431740294E+02  0.44238751237E+01  0.27105131214E+02  0.00000000000E+00 0. -1.
<scales pt_clust_5="13000.00000" pt_clust_6="13000.00000" pt_clust_7="13000.00000" pt_clust_8="13000.00000" pt_clust_9="26.74168"></scales>
<clustering>
<clus scale="   26.742">  2  9  1 -1</clus>
<clus scale="   80.522">  5  6 -1 -1</clus>
<clus scale="   95.026">  7  8 -1 -1</clus>
<clus scale="  129.906">  2  5  1 -1</clus>
<clus scale="   26.742">  2  5  1 -1</clus>
</clustering>
</event>
<event>
 9    1  0.1973774E-005  0.9724356E+02  0.7546771E-02  0.1292376E+00
         -2   -1    0    0    0  501 -0.00000000000E+00  0.00000000000E+00  0.71341849906E+02  0.71341849906E+02  0.00000000000E+00 0.  1.
          1   -1    0    0  502    0  0.00000000000E+00 -0.00000000000E+00 -0.32507467811E+03  0.32507467811E+03  0.00000000000E+00 0. -1.
         23    2    1    2    0    0  0.11514382776E+02  0.25707926293E+02  0.12868405179E+02  0.97116931736E+02  0.92046858138E+02 0.  0.
        -24    2    1    2    0    0 -0.39902361552E+02 -0.36088125147E+02 -0.24061703739E+03  0.25943978809E+03  0.80733473410E+02 0.  0.
         11    1    4    4    0    0 -0.46672569721E+02  0.91643590559E+01 -0.15793104186E+03  0.16493795265E+03  0.00000000000E+00 0. -1.
        -12    1    4    4    0    0  0.67702081696E+01 -0.45252484203E+02 -0.82685995531E+02  0.94501835443E+02  0.00000000000E+00 0.  1.
        -13    1    3    3    0    0 -0.21535452071E+02 -0.54219100490E+01 -0.28201221948E+02  0.35895427618E+02  0.00000000000E+00 0. -1.
         13    1    3    3    0    0  0.33049834848E+02  0.31129836342E+02  0.41069627128E+02  0.61221504119E+02  0.00000000000E+00 0.  1.
         21    1    1    2  502  501  0.28387978776E+02  0.10380198854E+02 -0.25984195988E+02  0.39859808182E+02  0.00000000000E+00 0.  1.
<scales pt_clust_5="13000.00000" pt_clust_6="13000.00000" pt_clust_7="13000.00000" pt_clust_8="13000.00000" pt_clust_9="30.22624"></scales>
<clustering>
<clus scale="   30.226">  2  9  1 -1</clus>
<clus scale="   80.733">  5  6 -1 -1</clus>
<clus scale="   86.612">  2  5  1 -1</clus>
<clus scale="   92.047">  7  8 -1 -1</clus>
<clus scale="   30.226">  2  5  1 -1</clus>
</clustering>
</event>
<event>
 9    1  0.1973774E-005  0.1407070E+03  0.7546771E-02  0.1235436E+00
          1   -1    0    0  502    0  0.00000000000E+00  0.00000000000E+00  0.10215296533E+03  0.10215296533E+03  0.00000000000E+00 0. -1.
         -2   -1    0    0    0  501 -0.00000000000E+00 -0.00000000000E+00 -0.47368530138E+03  0.47368530138E+03  0.00000000000E+00 0.  1.
        -24    2    1    2    0    0 -0.22170374362E+02 -0.13980746952E+02 -0.30588400093E+03  0.31801109324E+03  0.82940018164E+02 0.  0.
         23    2    1    2    0    0  0.79084522568E+02 -0.75313181342E+02 -0.46680099490E+02  0.15025199112E+03  0.92033646860E+02 0.  0.
         13    1    3    3    0    0 -0.42253860085E+02 -0.23305657804E+02 -0.10101527974E+03  0.11194922563E+03  0.00000000000E+00 0. -1.
        -14    1    3    3    0    0  0.20083485723E+02  0.93249108520E+01 -0.20486872119E+03  0.20606186761E+03  0.00000000000E+00 0.  1.
        -11    1    4    4    0    0 -0.13660375306E+02 -0.19107221527E+02  0.12606510201E+02  0.26657379230E+02  0.00000000000E+00 0.  1.
         11    1    4    4    0    0  0.92744897873E+02 -0.56205959815E+02 -0.59286609691E+02  0.12359461189E+03  0.00000000000E+00 0. -1.
         21    1    1    2  502  501 -0.56914148205E+02  0.89293928294E+02 -0.18968235633E+02  0.10757518236E+03  0.00000000000E+00 0.  1.
<scales pt_clust_5="13000.00000" pt_clust_6="13000.00000" pt_clust_7="13000.00000" pt_clust_8="13000.00000" pt_clust_9="106.43427"></scales>
<clustering>
<clus scale="   82.940">  5  6 -1 -1</clus>
<clus scale="   86.983">  2  5  1 -1</clus>
<clus scale="   92.034">  7  8 -1 -1</clus>
<clus scale="  106.434">  1  9  2 -1</clus>
<clus scale="  106.434">  1  5  2 -1</clus>
</clustering>
</event>
<event>
 9    1  0.1973774E-005  0.1062640E+03  0.7546771E-02  0.1271947E+00
          1   -1    0    0  502    0  0.00000000000E+00  0.00000000000E+00  0.48303782502E+03  0.48303782502E+03  0.00000000000E+00 0. -1.
         -2   -1    0    0    0  501 -0.00000000000E+00 -0.00000000000E+00 -0.35898256022E+03  0.35898256022E+03  0.00000000000E+00 0.  1.
        -24    2    1    2    0    0 -0.42253052954E+01 -0.57397508308E+02 -0.33063822241E+03  0.34500313224E+03  0.79957488528E+02 0.  0.
         23    2    1    2    0    0  0.56872926326E+02  0.22099253853E+02  0.14725151736E+03  0.18310913971E+03  0.90127914168E+02 0.  0.
         13    1    3    3    0    0 -0.27030228637E+02 -0.25057304679E+02 -0.52983641166E+02  0.64542761091E+02  0.00000000000E+00 0. -1.
        -14    1    3    3    0    0  0.22804923342E+02 -0.32340203629E+02 -0.27765458124E+03  0.28046037115E+03  0.00000000000E+00 0.  1.
        -13    1    4    4    0    0  0.45023584847E+02 -0.22088692221E+02  0.32987159929E+02  0.60026546100E+02  0.00000000000E+00 0.  1.
         13    1    4    4    0    0  0.11849341479E+02  0.44187946074E+02  0.11426435743E+03  0.12308259361E+03  0.00000000000E+00 0. -1.
         21    1    1    2  502  501 -0.52647621031E+02  0.35298254455E+02  0.30744196984E+03  0.31390811329E+03  0.00000000000E+00 0. -1.
<scales pt_clust_5="13000.00000" pt_clust_6="13000.00000" pt_clust_7="13000.00000" pt_clust_8="13000.00000" pt_clust_9="63.38564"></scales>
<clustering>
<clus scale="   63.386">  1  9  2 -1</clus>
<clus scale="   79.957">  5  6 -1 -1</clus>
<clus scale="   90.128">  7  8 -1 -1</clus>
<clus scale="   97.786">  2  5  1 -1</clus>
<clus scale="   63.386">  1  5  2 -1</clus>
</clustering>
</event>
<event>
 9    1  0.1973774E-005  0.1164342E+03  0.7546771E-02  0.1252005E+00
         -2   -1    0    0    0  501 -0.00000000000E+00  0.00000000000E+00  0.66297929157E+02  0.66297929157E+02  0.00000000000E+00 0.  1.
          1   -1    0    0  502    0  0.00000000000E+00 -0.00000000000E+00 -0.53914393345E+03  0.53914393345E+03  0.00000000000E+00 0. -1.
         23    2    1    2    0    0  0.72303617828E+02 -0.16829334585E+02 -0.76311580787E+01  0.11638065147E+03  0.89303873433E+02 0.  0.
        -24    2    1    2    0    0 -0.82206829984E+02 -0.16322625332E+02 -0.35788829578E+03  0.37629546064E+03  0.80559608018E+02 0.  0.
         11    1    4    4    0    0 -0.80940936864E+02  0.17143860906E+02 -0.25128911599E+03  0.26455919383E+03  0.00000000000E+00 0. -1.
        -12    1    4    4    0    0 -0.12658931193E+01 -0.33466486238E+02 -0.10659917979E+03  0.11173626680E+03  0.00000000000E+00 0.  1.
        -13    1    3    3    0    0  0.72248428097E+02  0.15005433160E+02 -0.27620729948E+02  0.78790247554E+02  0.00000000000E+00 0. -1.
         13    1    3    3    0    0  0.55189731703E-01 -0.31834767746E+02  0.19989571869E+02  0.37590403920E+02  0.00000000000E+00 0.  1.
         21    1    1    2  502  501  0.99032121550E+01  0.33151959917E+02 -0.10732655043E+03  0.11276575049E+03  0.00000000000E+00 0.  1.
<scales pt_clust_5="13000.00000" pt_clust_6="13000.00000" pt_clust_7="13000.00000" pt_clust_8="13000.00000" pt_clust_9="34.59951"></scales>
<clustering>
<clus scale="   34.600">  2  9  1 -1</clus>
<clus scale="   80.560">  5  6 -1 -1</clus>
<clus scale="   89.304">  7  8 -1 -1</clus>
<clus scale="  109.871">  2  5  1 -1</clus>
<clus scale="   34.600">  2  5  1 -1</clus>
</clustering>
</event>
<event>
 9    1  0.1973774E-005  0.1581482E+03  0.7546771E-02  0.1193115E+00
         -2   -1    0    0    0  501 -0.00000000000E+00  0.00000000000E+00  0.81265756036E+02  0.81265756036E+02  0.00000000000E+00 0.  1.
          1   -1    0    0  502    0  0.00000000000E+00 -0.00000000000E+00 -0.39663942063E+03  0.39663942063E+03  0.00000000000E+00 0. -1.
         23    2    1    2    0    0  0.10161596490E+03  0.99774747419E+02 -0.88661506584E+02  0.19092687587E+03  0.91166905374E+02 0.  0.
        -24    2    1    2    0    0 -0.98484056118E+02 -0.74974130046E+02 -0.21420705203E+03  0.25902732317E+03  0.76748052230E+02 0.  0.
         11    1    4    4    0    0 -0.90759168196E+02 -0.86277151217E+02 -0.21035276872E+03  0.24480453579E+03  0.00000000000E+00 0. -1.
        -12    1    4    4    0    0 -0.77248879212E+01  0.11303021171E+02 -0.38542833114E+01  0.14222787379E+02  0.00000000000E+00 0.  1.
        -11    1    3    3    0    0  0.71365877373E+02  0.10731610833E+03 -0.93707345041E+02  0.15934522922E+03  0.00000000000E+00 0. -1.
         11    1    3    3    0    0  0.30250087527E+02 -0.75413609074E+01  0.50458384570E+01  0.31581646656E+02  0.00000000000E+00 0.  1.
         21    1    1    2  502  501 -0.31319087823E+01 -0.24800617373E+02 -0.12505105974E+02  0.27950977624E+02  0.00000000000E+00 0.  1.
<scales pt_clust_5="13000.00000" pt_clust_6="13000.00000" pt_clust_7="13000.00000" pt_clust_8="13000.00000" pt_clust_9="24.99759"></scales>
<clustering>
<clus scale="   24.998">  1  9  2 -1</clus>
<clus scale="   76.748">  5  6 -1 -1</clus>
<clus scale="   91.167">  7  8 -1 -1</clus>
<clus scale="  150.299">  2  5  1 -1</clus>
<clus scale="  150.299">  2  5  1 -1</clus>
</clustering>
</event>
<event>
 9    1  0.1973774E-005  0.1040050E+03  0.7546771E-02  0.1277267E+00
         -2   -1    0    0    0  501 -0.00000000000E+00  0.00000000000E+00  0.23044037200E+03  0.23044037200E+03  0.00000000000E+00 0.  1.
          1   -1    0    0  502    0  0.00000000000E+00 -0.00000000000E+00 -0.36352160300E+03  0.36352160300E+03  0.00000000000E+00 0. -1.
        -24    2    1    2    0    0 -0.24907166814E+02  0.48744447426E+02  0.17834991468E+03  0.20327738078E+03  0.80725543383E+02 0.  0.
         23    2    1    2    0    0  0.28092847227E+02 -0.46756063424E+01 -0.23177432662E+02  0.99064268489E+02  0.92007970016E+02 0.  0.
         11    1    3    3    0    0  0.11445489314E+02  0.20849145790E+02  0.54392334020E+01  0.24398183658E+02  0.00000000000E+00 0. -1.
        -12    1    3    3    0    0 -0.36352656128E+02  0.27895301636E+02  0.17291068128E+03  0.17887919712E+03  0.00000000000E+00 0.  1.
        -11    1    4    4    0    0  0.53528651806E+02  0.64928085820E+01  0.10989160253E+02  0.55029399147E+02  0.00000000000E+00 0.  1.
         11    1    4    4    0    0 -0.25435804579E+02 -0.11168414924E+02 -0.34166592915E+02  0.44034869342E+02  0.00000000000E+00 0. -1.
         21    1    1    2  502  501 -0.31856804123E+01 -0.44068841083E+02 -0.28825371302E+03  0.29162032574E+03  0.00000000000E+00 0. -1.
<scales pt_clust_5="13000.00000" pt_clust_6="13000.00000" pt_clust_7="13000.00000" pt_clust_8="13000.00000" pt_clust_9="44.18384"></scales>
<clustering>
<clus scale="   44.184">  2  9  1 -1</clus>
<clus scale="   80.726">  5  6 -1 -1</clus>
<clus scale="   92.008">  7  8 -1 -1</clus>
<clus scale="   94.171">  1  5  2 -1</clus>
<clus scale="   44.184">  2  5  1 -1</clus>
</clustering>
</event>
<event>
 9    1  0.1973774E-005  0.9675172E+02  0.7546771E-02  0.1292160E+00
         -2   -1    0    0    0  501 -0.00000000000E+00  0.00000000000E+00  0.54913278966E+02  0.54913278966E+02  0.00000000000E+00 0.  1.
          1   -1    0    0  502    0  0.00000000000E+00 -0.00000000000E+00 -0.30222310303E+03  0.30222310303E+03  0.00000000000E+00 0. -1.
         23    2    1    2    0    0  0.44280330822E+02 -0.70499654522E+01 -0.36491630979E+02  0.10643375765E+03  0.89364735360E+02 0.  0.
        -24    2    1    2    0    0 -0.22976826071E+02  0.17842908447E+02 -0.77336379216E+02  0.11510129114E+03  0.80131690069E+02 0.  0.
         11    1    4    4    0    0 -0.47429493089E+00  0.46883961785E+02 -0.54282781034E+02  0.71728314807E+02  0.00000000000E+00 0. -1.
        -12    1    4    4    0    0 -0.22502531140E+02 -0.29041053337E+02 -0.23053598182E+02  0.43372976331E+02  0.00000000000E+00 0.  1.
        -13    1    3    3    0    0  0.31995688767E+02 -0.38960125473E+02 -0.48730588217E+02  0.70116229965E+02  0.00000000000E+00 0. -1.
         13    1    3    3    0    0  0.12284642055E+02  0.31910160021E+02  0.12238957238E+02  0.36317527687E+02  0.00000000000E+00 0.  1.
         21    1    1    2  502  501 -0.21303504751E+02 -0.10792942995E+02 -0.13348181387E+03  0.13560133320E+03  0.00000000000E+00 0. -1.
<scales pt_clust_5="13000.00000" pt_clust_6="13000.00000" pt_clust_7="13000.00000" pt_clust_8="13000.00000" pt_clust_9="23.88152"></scales>
<clustering>
<clus scale="   23.882">  2  9  1 -1</clus>
<clus scale="   80.132">  5  6 -1 -1</clus>
<clus scale="   88.295">  2  5  1 -1</clus>
<clus scale="   89.365">  7  8 -1 -1</clus>
<clus scale="   23.882">  2  5  1 -1</clus>
</clustering>
</event>
<event>
 9    1  0.1973774E-005  0.8490795E+02  0.7546771E-02  0.1318362E+00
          1   -1    0    0  502    0  0.00000000000E+00  0.00000000000E+00  0.17673579555E+03  0.17673579555E+03  0.00000000000E+00 0. -1.
         -2   -1    0    0    0  501 -0.00000000000E+00 -0.00000000000E+00 -0.15986942413E+03  0.15986942413E+03  0.00000000000E+00 0.  1.
        -24    2    1    2    0    0 -0.52619689517E+01 -0.76826375644E+02 -0.71470033186E+02  0.13192993152E+03  0.79796997910E+02 0.  0.
         23    2    1    2    0    0 -0.10357863309E+02 -0.57418721438E-01  0.93540974742E+02  0.12604841904E+03  0.83851066528E+02 0.  0.
         11    1    3    3    0    0 -0.32768354947E+01 -0.31412856201E+02  0.14445523870E+02  0.34730078397E+02  0.00000000000E+00 0. -1.
        -12    1    3    3    0    0 -0.19851334570E+01 -0.45413519443E+02 -0.85915557056E+02  0.97199853124E+02  0.00000000000E+00 0.  1.
        -13    1    4    4    0    0  0.23970401957E+02  0.30025542945E+02  0.49072549632E+02  0.62323579218E+02  0.00000000000E+00 0. -1.
         13    1    4    4    0    0 -0.34328265265E+02 -0.30082961667E+02  0.44468425109E+02  0.63724839823E+02  0.00000000000E+00 0.  1.
         21    1    1    2  502  501  0.15619832261E+02  0.76883794365E+02 -0.52045701346E+01  0.78626869111E+02  0.00000000000E+00 0. -1.
<scales pt_clust_5="13000.00000" pt_clust_6="13000.00000" pt_clust_7="13000.00000" pt_clust_8="13000.00000" pt_clust_9="78.45443"></scales>
<clustering>
<clus scale="   78.454">  2  9  1 -1</clus>
<clus scale="   79.797">  5  6 -1 -1</clus>
<clus scale="   80.907">  2  5  1 -1</clus>
<clus scale="   83.851">  7  8 -1 -1</clus>
<clus scale="   84.908">  1  5  2 -1</clus>
</clustering>
</event>
<event>
 9    1  0.1973774E-005  0.1119944E+03  0.7546771E-02  0.1259325E+00
          3   -1    0    0  502    0  0.00000000000E+00  0.00000000000E+00  0.11928154893E+03  0.11928154893E+03  0.00000000000E+00 0. -1.
         -4   -1    0    0    0  501 -0.00000000000E+00 -0.00000000000E+00 -0.22591222026E+03  0.22591222026E+03  0.00000000000E+00 0.  1.
        -24    2    1    2    0    0 -0.59190608761E+02  0.26326627735E+02 -0.16321610153E+03  0.19502932968E+03  0.84854723753E+02 0.  0.
         23    2    1    2    0    0  0.68159884114E+02 -0.57878476154E+01  0.35714947022E+02  0.11953983409E+03  0.91295922750E+02 0.  0.
         11    1    3    3    0    0 -0.35741597705E+01  0.46007350283E+02 -0.55161195557E+02  0.71918067225E+02  0.00000000000E+00 0. -1.
        -12    1    3    3    0    0 -0.55616448991E+02 -0.19680722548E+02 -0.10805490598E+03  0.12311126246E+03  0.00000000000E+00 0.  1.
        -11    1    4    4    0    0 -0.11831636504E+02  0.23424934011E+02 -0.21724659919E+01  0.26333149532E+02  0.00000000000E+00 0. -1.
         11    1    4    4    0    0  0.79991520619E+02 -0.29212781626E+02  0.37887413014E+02  0.93206684557E+02  0.00000000000E+00 0.  1.
         21    1    1    2  502  501 -0.89692753533E+01 -0.20538780119E+02  0.20870483180E+02  0.30624605423E+02  0.00000000000E+00 0.  1.
<scales pt_clust_5="13000.00000" pt_clust_6="13000.00000" pt_clust_7="13000.00000" pt_clust_8="13000.00000" pt_clust_9="22.41181"></scales>
<clustering>
<clus scale="   22.412">  1  9  2 -1</clus>
<clus scale="   84.855">  5  6 -1 -1</clus>
<clus scale="   91.296">  7  8 -1 -1</clus>
<clus scale="  106.809">  2  5  1 -1</clus>
<clus scale="   22.412">  1  5  2 -1</clus>
</clustering>
</event>
<event>
 9    1  0.1973774E-005  0.1440452E+03  0.7546771E-02  0.1209583E+00
          1   -1    0    0  502    0  0.00000000000E+00  0.00000000000E+00  0.42718757129E+02  0.42718757129E+02  0.00000000000E+00 0. -1.
         -2   -1    0    0    0  501 -0.00000000000E+00 -0.00000000000E+00 -0.69274011462E+03  0.69274011462E+03  0.00000000000E+00 0.  1.
         23    2    1    2    0    0  0.17186356386E+02 -0.12675433640E+03 -0.45265534295E+03  0.47888567102E+03  0.89847614111E+02 0.  0.
        -24    2    1    2    0    0 -0.26453419340E+02  0.84241911181E+02 -0.14662345724E+03  0.18973016164E+03  0.81869487770E+02 0.  0.
         11    1    4    4    0    0 -0.71707311466E+01  0.87779830564E+02 -0.75659630958E+02  0.11610812976E+03  0.00000000000E+00 0. -1.
        -12    1    4    4    0    0 -0.19282688193E+02 -0.35379193836E+01 -0.70963826283E+02  0.73622031881E+02  0.00000000000E+00 0.  1.
        -13    1    3    3    0    0 -0.81433394851E+01 -0.12912195782E+03 -0.40007067576E+03  0.42047037895E+03  0.00000000000E+00 0.  1.
         13    1    3    3    0    0  0.25329695871E+02  0.23676214172E+01 -0.52584667193E+02  0.58415292072E+02  0.00000000000E+00 0. -1.
         21    1    1    2  502  501  0.92670629540E+01  0.42512425219E+02 -0.50742557293E+02  0.66843039087E+02  0.00000000000E+00 0. -1.
<scales pt_clust_5="13000.00000" pt_clust_6="13000.00000" pt_clust_7="13000.00000" pt_clust_8="13000.00000" pt_clust_9="43.51074"></scales>
<clustering>
<clus scale="   43.511">  1  9  2 -1</clus>
<clus scale="   81.869">  5  6 -1 -1</clus>
<clus scale="   89.848">  7  8 -1 -1</clus>
<clus scale="  139.209">  1  5  2 -1</clus>
<clus scale="   43.511">  1  5  2 -1</clus>
</clustering>
</event>
<event>
 9    1  0.1973774E-005  0.1008911E+03  0.7546771E-02  0.1284714E+00
         -2   -1    0    0    0  501 -0.00000000000E+00  0.00000000000E+00  0.18488353268E+03  0.18488353268E+03  0.00000000000E+00 0.  1.
          1   -1    0    0  502    0  0.00000000000E+00 -0.00000000000E+00 -0.73143912942E+02  0.73143912942E+02  0.00000000000E+00 0. -1.
        -24    2    1    2    0    0  0.50064485354E+02 -0.77568436432E+00  0.91442738589E+02  0.12888460872E+03  0.75778714326E+02 0.  0.
         23    2    1    2    0    0 -0.40624292059E+02 -0.24182139654E+02  0.13300528285E+02  0.10155734828E+03  0.88892530353E+02 0.  0.
         11    1    3    3    0    0 -0.11726599285E+01 -0.30379033285E+02  0.41544979177E+02  0.51480540881E+02  0.00000000000E+00 0. -1.
        -12    1    3    3    0    0  0.51237145282E+02  0.29603348921E+02  0.49897759412E+02  0.77404067841E+02  0.00000000000E+00 0.  1.
        -11    1    4    4    0    0  0.20013595589E+02 -0.42056955521E+01 -0.20806489775E+02  0.29174336329E+02  0.00000000000E+00 0. -1.
         11    1    4    4    0    0 -0.60637887648E+02 -0.19976444102E+02  0.34107018060E+02  0.72383011946E+02  0.00000000000E+00 0.  1.
         21    1    1    2  502  501 -0.94401932951E+01  0.24957824019E+02  0.69963528629E+01  0.27585488623E+02  0.00000000000E+00 0.  1.
<scales pt_clust_5="13000.00000" pt_clust_6="13000.00000" pt_clust_7="13000.00000" pt_clust_8="13000.00000" pt_clust_9="26.68352"></scales>
<clustering>
<clus scale="   26.684">  2  9  1 -1</clus>
<clus scale="   75.779">  5  6 -1 -1</clus>
<clus scale="   88.893">  7  8 -1 -1</clus>
<clus scale="   89.552">  1  5  2 -1</clus>
<clus scale="   26.684">  2  5  1 -1</clus>
</clustering>
</event>
<event>
 9    1  0.1973774E-005  0.1110650E+03  0.7546771E-02  0.1263174E+00
         -2   -1    0    0    0  501 -0.00000000000E+00  0.00000000000E+00  0.31282368543E+02  0.31282368543E+02  0.00000000000E+00 0.  1.
          1   -1    0    0  502    0  0.00000000000E+00 -0.00000000000E+00 -0.69305456580E+03  0.69305456580E+03  0.00000000000E+00 0. -1.
        -24    2    1    2    0    0  0.63788723840E+02  0.19768731850E+01 -0.92066631302E+02  0.13843220078E+03  0.81328348662E+02 0.  0.
         23    2    1    2    0    0 -0.46225333823E+02 -0.21951668066E+02 -0.50348977868E+03  0.51454651341E+03  0.92938151523E+02 0.  0.
         11    1    3    3    0    0  0.33248604590E+02 -0.37457142824E+02 -0.28474962471E+02  0.57613633312E+02  0.00000000000E+00 0. -1.
        -12    1    3    3    0    0  0.30540119250E+02  0.39434016009E+02 -0.63591668831E+02  0.80818567465E+02  0.00000000000E+00 0.  1.
        -11    1    4    4    0    0 -0.98305140811E-01  0.33001548470E+02 -0.12293583939E+03  0.12728838310E+03  0.00000000000E+00 0.  1.
         11    1    4    4    0    0 -0.46127028682E+02 -0.54953216536E+02 -0.38055393929E+03  0.38725813031E+03  0.00000000000E+00 0. -1.
         21    1    1    2  502  501 -0.17563390017E+02  0.19974794881E+02 -0.66215787281E+02  0.71358220162E+02  0.00000000000E+00 0.  1.
<scales pt_clust_5="13000.00000" pt_clust_6="13000.00000" pt_clust_7="13000.00000" pt_clust_8="13000.00000" pt_clust_9="26.59822"></scales>
<clustering>
<clus scale="   26.598">  2  9  1 -1</clus>
<clus scale="   81.328">  5  6 -1 -1</clus>
<clus scale="   92.938">  7  8 -1 -1</clus>
<clus scale="  101.549">  1  5  2 -1</clus>
<clus scale="   26.598">  2  5  1 -1</clus>
</clustering>
</event>
<event>
 9    1  0.1973774E-005  0.1114658E+03  0.7546771E-02  0.1262640E+00
          1   -1    0    0  502    0  0.00000000000E+00  0.00000000000E+00  0.39120849471E+03  0.39120849471E+03  0.00000000000E+00 0. -1.
         -2   -1    0    0    0  501 -0.00000000000E+00 -0.00000000000E+00 -0.58097524725E+02  0.58097524725E+02  0.00000000000E+00 0.  1.
        -24    2    1    2    0    0 -0.27764698744E+02 -0.52655352829E+02  0.59233421027E+02  0.11683866601E+03  0.81235528124E+02 0.  0.
         23    2    1    2    0    0  0.52988723447E+02  0.39623620469E+02  0.87813760417E+02  0.14424989707E+03  0.93375265333E+02 0.  0.
         11    1    3    3    0    0 -0.52318708208E+02 -0.40137602357E+02  0.60162145650E+02  0.89262299549E+02  0.00000000000E+00 0. -1.
        -12    1    3    3    0    0  0.24554009463E+02 -0.12517750472E+02 -0.92872462217E+00  0.27576366458E+02  0.00000000000E+00 0.  1.
        -11    1    4    4    0    0  0.64275024614E+01  0.47256849288E+02  0.84401401061E+02  0.96943896629E+02  0.00000000000E+00 0. -1.
         11    1    4    4    0    0  0.46561220985E+02 -0.76332288187E+01  0.34123593559E+01  0.47306000446E+02  0.00000000000E+00 0.  1.
         21    1    1    2  502  501 -0.25224024702E+02  0.13031732360E+02  0.18606378854E+03  0.18821745636E+03  0.00000000000E+00 0. -1.
<scales pt_clust_5="13000.00000" pt_clust_6="13000.00000" pt_clust_7="13000.00000" pt_clust_8="13000.00000" pt_clust_9="28.39150"></scales>
<clustering>
<clus scale="   28.392">  1  9  2 -1</clus>
<clus scale="   81.236">  5  6 -1 -1</clus>
<clus scale="   93.375">  7  8 -1 -1</clus>
<clus scale="  101.513">  2  5  1 -1</clus>
<clus scale="   28.392">  1  5  2 -1</clus>
</clustering>
</event>
<event>
 9    1  0.1973774E-005  0.1159509E+03  0.7546771E-02  0.1251854E+00
          1   -1    0    0  502    0  0.00000000000E+00  0.00000000000E+00  0.11911991070E+03  0.11911991070E+03  0.00000000000E+00 0. -1.
         -2   -1    0    0    0  501 -0.00000000000E+00 -0.00000000000E+00 -0.16721803005E+03  0.16721803005E+03  0.00000000000E+00 0.  1.
        -24    2    1    2    0    0 -0.78384088566E+02  0.16355296117E+01 -0.88955431461E+02  0.14333523982E+03  0.80530627026E+02 0.  0.
         23    2    1    2    0    0  0.73508559916E+02  0.18750466566E+02  0.40750975508E+02  0.12204152427E+03  0.86477761672E+02 0.  0.
         11    1    3    3    0    0 -0.65366146827E+02 -0.17676266537E+02 -0.20079713769E+02  0.70628453577E+02  0.00000000000E+00 0. -1.
        -12    1    3    3    0    0 -0.13017941740E+02  0.19311796149E+02 -0.68875717691E+02  0.72706786238E+02  0.00000000000E+00 0.  1.
        -11    1    4    4    0    0 -0.19090581291E+02  0.94601728294E+01  0.12867455560E+02  0.24890089927E+02  0.00000000000E+00 0.  1.
         11    1    4    4    0    0  0.92599141207E+02  0.92902937366E+01  0.27883519949E+02  0.97151434342E+02  0.00000000000E+00 0. -1.
         21    1    1    2  502  501  0.48755286501E+01 -0.20385996178E+02  0.10633660838E+00  0.20961176667E+02  0.00000000000E+00 0. -1.
<scales pt_clust_5="13000.00000" pt_clust_6="13000.00000" pt_clust_7="13000.00000" pt_clust_8="13000.00000" pt_clust_9="20.96091"></scales>
<clustering>
<clus scale="   20.961">  1  9  2 -1</clus>
<clus scale="   80.531">  5  6 -1 -1</clus>
<clus scale="   86.478">  7  8 -1 -1</clus>
<clus scale="  111.586">  2  5  1 -1</clus>
<clus scale="   20.961">  1  5  2 -1</clus>
</clustering>
</event>
<event>
 9    1  0.1973774E-005  0.1061191E+03  0.7546771E-02  0.1271936E+00
         -2   -1    0    0    0  501 -0.00000000000E+00  0.00000000000E+00  0.12461160964E+03  0.12461160964E+03  0.00000000000E+00 0.  1.
          1   -1    0    0  502    0  0.00000000000E+00 -0.00000000000E+00 -0.29324819452E+03  0.29324819452E+03  0.00000000000E+00 0. -1.
        -24    2    1    2    0    0 -0.11005604267E+02 -0.65385990072E+02  0.63026136654E+02  0.12077048322E+03  0.78846462781E+02 0.  0.
         23    2    1    2    0    0 -0.14462213674E+02  0.56401103716E+02 -0.24503315397E+03  0.26695451718E+03  0.88505522850E+02 0.  0.
         13    1    3    3    0    0 -0.44490719888E+02 -0.27366968850E+02  0.34954790662E+02  0.62850716228E+02  0.00000000000E+00 0. -1.
        -14    1    3    3    0    0  0.33485115620E+02 -0.38019021221E+02  0.28071345992E+02  0.57919766993E+02  0.00000000000E+00 0.  1.
        -11    1    4    4    0    0  0.19108976599E+02 -0.16334883543E+02 -0.46340135209E+02  0.52719915954E+02  0.00000000000E+00 0.  1.
         11    1    4    4    0    0 -0.33571190274E+02  0.72735987260E+02 -0.19869301876E+03  0.21423460123E+03  0.00000000000E+00 0. -1.
         21    1    1    2  502  501  0.25467817941E+02  0.89848863555E+01  0.13370432434E+02  0.30134803749E+02  0.00000000000E+00 0.  1.
<scales pt_clust_5="13000.00000" pt_clust_6="13000.00000" pt_clust_7="13000.00000" pt_clust_8="13000.00000" pt_clust_9="27.00626"></scales>
<clustering>
<clus scale="   27.006">  1  9  2 -1</clus>
<clus scale="   78.846">  5  6 -1 -1</clus>
<clus scale="   88.506">  7  8 -1 -1</clus>
<clus scale="   98.208">  1  5  2 -1</clus>
<clus scale="  106.119">  2  5  1 -1</clus>
</clustering>
</event>
<event>
 9    1  0.1973774E-005  0.1063947E+03  0.7546771E-02  0.1271741E+00
         -2   -1    0    0    0  501 -0.00000000000E+00  0.00000000000E+00  0.47578985249E+03  0.47578985249E+03  0.00000000000E+00 0.  1.
          1   -1    0    0  502    0  0.00000000000E+00 -0.00000000000E+00 -0.49544581812E+02  0.49544581812E+02  0.00000000000E+00 0. -1.
        -24    2    1    2    0    0  0.24600630987E+02  0.51938292697E+02  0.35510538869E+03  0.36857992487E+03  0.80302843333E+02 0.  0.
         23    2    1    2    0    0 -0.42588525829E+02 -0.33288318555E+02  0.76508128984E+02  0.13029314190E+03  0.90558899845E+02 0.  0.
         13    1    3    3    0    0 -0.51580404463E+01  0.52569470062E+02  0.11398594879E+03  0.12563021566E+03  0.00000000000E+00 0. -1.
        -14    1    3    3    0    0  0.29758671433E+02 -0.63117736505E+00  0.24111943989E+03  0.24294970921E+03  0.00000000000E+00 0.  1.
        -13    1    4    4    0    0  0.21575950792E+02 -0.35157815982E+02  0.28616969589E+02  0.50204826717E+02  0.00000000000E+00 0.  1.
         13    1    4    4    0    0 -0.64164476621E+02  0.18694974272E+01  0.47891159395E+02  0.80088315183E+02  0.00000000000E+00 0. -1.
         21    1    1    2  502  501  0.17987894842E+02 -0.18649974142E+02 -0.53682469876E+01  0.26461367539E+02  0.00000000000E+00 0. -1.
<scales pt_clust_5="13000.00000" pt_clust_6="13000.00000" pt_clust_7="13000.00000" pt_clust_8="13000.00000" pt_clust_9="25.91112"></scales>
<clustering>
<clus scale="   25.911">  2  9  1 -1</clus>
<clus scale="   80.303">  5  6 -1 -1</clus>
<clus scale="   90.559">  7  8 -1 -1</clus>
<clus scale="   97.813">  1  5  2 -1</clus>
<clus scale="   25.911">  2  5  1 -1</clus>
</clustering>
</event>
<event>
 9    1  0.1973774E-005  0.1057728E+03  0.7546771E-02  0.1273151E+00
         -2   -1    0    0    0  501 -0.00000000000E+00  0.00000000000E+00  0.94783005425E+02  0.94783005425E+02  0.00000000000E+00 0.  1.
          1   -1    0    0  502    0  0.00000000000E+00 -0.00000000000E+00 -0.27047731295E+03  0.27047731295E+03  0.00000000000E+00 0. -1.
         23    2    1    2    0    0  0.47443856526E+02  0.28126703932E+02  0.42364681271E+02  0.11415611208E+03  0.90525249015E+02 0.  0.
        -24    2    1    2    0    0 -0.55922467754E+02 -0.65042812944E+01 -0.19615700920E+03  0.21918066139E+03  0.79956000374E+02 0.  0.
         13    1    4    4    0    0 -0.14314558598E+02  0.34190102736E+02 -0.10157544580E+03  0.10812696658E+03  0.00000000000E+00 0. -1.
        -14    1    4    4    0    0 -0.41607909155E+02 -0.40694384031E+02 -0.94581563402E+02  0.11105369481E+03  0.00000000000E+00 0.  1.
        -11    1    3    3    0    0  0.24338639629E+02 -0.17464313936E+02  0.53985777476E+02  0.61740066488E+02  0.00000000000E+00 0.  1.
         11    1    3    3    0    0  0.23105216897E+02  0.45591017868E+02 -0.11621096206E+02  0.52416045589E+02  0.00000000000E+00 0. -1.
         21    1    1    2  502  501  0.84786112281E+01 -0.21622422638E+02 -0.21901979592E+02  0.31923544903E+02  0.00000000000E+00 0.  1.
<scales pt_clust_5="13000.00000" pt_clust_6="13000.00000" pt_clust_7="13000.00000" pt_clust_8="13000.00000" pt_clust_9="23.22533"></scales>
<clustering>
<clus scale="   23.225">  2  9  1 -1</clus>
<clus scale="   79.956">  5  6 -1 -1</clus>
<clus scale="   90.525">  7  8 -1 -1</clus>
<clus scale="   96.881">  2  5  1 -1</clus>
<clus scale="   23.225">  2  5  1 -1</clus>
</clustering>
</event>
<event>
 9    1  0.1973774E-005  0.1342025E+03  0.7546771E-02  0.1223545E+00
          1   -1    0    0  502    0  0.00000000000E+00  0.00000000000E+00  0.54398004114E+03  0.54398004114E+03  0.00000000000E+00 0. -1.
         -2   -1    0    0    0  501 -0.00000000000E+00 -0.00000000000E+00 -0.44157269757E+02  0.44157269757E+02  0.00000000000E+00 0.  1.
         23    2    1    2    0    0 -0.92882534960E+02  0.59688622365E+02  0.14570237285E+03  0.20363044889E+03  0.89701066452E+02 0.  0.
        -24    2    1    2    0    0  0.69848694404E+02 -0.48228274405E+02  0.23309797922E+03  0.26078005261E+03  0.80416175985E+02 0.  0.
         11    1    4    4    0    0  0.30575653484E+02 -0.59936160887E+02  0.18880917575E+03  0.20043981345E+03  0.00000000000E+00 0. -1.
        -12    1    4    4    0    0  0.39273040920E+02  0.11707886482E+02  0.44288803465E+02  0.60340239155E+02  0.00000000000E+00 0.  1.
        -11    1    3    3    0    0 -0.47499097975E+02  0.22306596625E+02  0.13368839783E+03  0.14361871840E+03  0.00000000000E+00 0. -1.
         11    1    3    3    0    0 -0.45383436985E+02  0.37382025740E+02  0.12013975020E+02  0.60011730493E+02  0.00000000000E+00 0.  1.
         21    1    1    2  502  501  0.23033840556E+02 -0.11460347960E+02  0.12102241932E+03  0.12372680940E+03  0.00000000000E+00 0. -1.
<scales pt_clust_5="13000.00000" pt_clust_6="13000.00000" pt_clust_7="13000.00000" pt_clust_8="13000.00000" pt_clust_9="25.72737"></scales>
<clustering>
<clus scale="   25.727">  1  9  2 -1</clus>
<clus scale="   80.416">  5  6 -1 -1</clus>
<clus scale="   89.701">  7  8 -1 -1</clus>
<clus scale="  128.183">  1  5  2 -1</clus>
<clus scale="   25.727">  1  5  2 -1</clus>
</clustering>
</event>
<event>
 9    1  0.1973774E-005  0.1006651E+03  0.7546771E-02  0.1286173E+00
         -2   -1    0    0    0  501 -0.00000000000E+00  0.00000000000E+00  0.95429941729E+02  0.95429941729E+02  0.00000000000E+00 0.  1.
          1   -1    0    0  502    0  0.00000000000E+00 -0.00000000000E+00 -0.15045539719E+03  0.15045539719E+03  0.00000000000E+00 0. -1.
        -24    2    1    2    0    0  0.32346217085E+02 -0.19082865024E+02  0.24092820276E+02  0.89738856889E+02  0.77859905920E+02 0.  0.
         23    2    1    2    0    0 -0.42851273898E+02  0.17927405007E+01 -0.87585053602E+02  0.13421497611E+03  0.92212106604E+02 0.  0.
         11    1    3    3    0    0  0.93907012178E+01  0.23858511449E+02 -0.12791671303E+02  0.28653807646E+02  0.00000000000E+00 0. -1.
        -12    1    3    3    0    0  0.22955515867E+02 -0.42941376472E+02  0.36884491578E+02  0.61085049243E+02  0.00000000000E+00 0.  1.
        -11    1    4    4    0    0 -0.46793859212E+02 -0.38335219823E+02 -0.43743100882E+02  0.74650607591E+02  0.00000000000E+00 0.  1.
         11    1    4    4    0    0  0.39425853141E+01  0.40127960324E+02 -0.43841952720E+02  0.59564368518E+02  0.00000000000E+00 0. -1.
         21    1    1    2  502  501  0.10505056814E+02  0.17290124523E+02  0.84667778632E+01  0.21931505923E+02  0.00000000000E+00 0. -1.
<scales pt_clust_5="13000.00000" pt_clust_6="13000.00000" pt_clust_7="13000.00000" pt_clust_8="13000.00000" pt_clust_9="20.23128"></scales>
<clustering>
<clus scale="   20.231">  1  9  2 -1</clus>
<clus scale="   77.860">  5  6 -1 -1</clus>
<clus scale="   87.707">  1  5  2 -1</clus>
<clus scale="   92.212">  7  8 -1 -1</clus>
<clus scale="  100.665">  2  5  1 -1</clus>
</clustering>
</event>
<event>
 9    1  0.1973774E-005  0.9350713E+02  0.7546771E-02  0.1296671E+00
         -2   -1    0    0    0  501 -0.00000000000E+00  0.00000000000E+00  0.60247962722E+03  0.60247962722E+03  0.00000000000E+00 0.  1.
          1   -1    0    0  502    0  0.00000000000E+00 -0.00000000000E+00 -0.61784219737E+02  0.61784219737E+02  0.00000000000E+00 0. -1.
        -24    2    1    2    0    0 -0.27473479164E+02 -0.29036993477E+02  0.54321011071E+03  0.55066960346E+03  0.81005239017E+02 0.  0.
         23    2    1    2    0    0  0.55020143998E+01  0.32119165068E+02 -0.57747957617E+01  0.91169407957E+02  0.84950572417E+02 0.  0.
         13    1    3    3    0    0 -0.96185098053E+01  0.26678011830E+02  0.11322687342E+03  0.11672427730E+03  0.00000000000E+00 0. -1.
        -14    1    3    3    0    0 -0.17854969359E+02 -0.55715005307E+02  0.42998323729E+03  0.43394532616E+03  0.00000000000E+00 0.  1.
        -11    1    4    4    0    0  0.25632476995E+02  0.34337468007E+02 -0.35196204489E+02  0.55451405721E+02  0.00000000000E+00 0. -1.
         11    1    4    4    0    0 -0.20130462595E+02 -0.22183029385E+01  0.29421408727E+02  0.35718002236E+02  0.00000000000E+00 0.  1.
         21    1    1    2  502  501  0.21971464764E+02 -0.30821715913E+01  0.32600925319E+01  0.22424835538E+02  0.00000000000E+00 0.  1.
<scales pt_clust_5="13000.00000" pt_clust_6="13000.00000" pt_clust_7="13000.00000" pt_clust_8="13000.00000" pt_clust_9="22.18660"></scales>
<clustering>
<clus scale="   22.187">  2  9  1 -1</clus>
<clus scale="   81.005">  5  6 -1 -1</clus>
<clus scale="   84.951">  7  8 -1 -1</clus>
<clus scale="   89.938">  1  5  2 -1</clus>
<clus scale="   22.187">  2  5  1 -1</clus>
</clustering>
</event>
<event>
 9    1  0.1973774E-005  0.9544567E+02  0.7546771E-02  0.1295133E+00
         -2   -1    0    0    0  501 -0.00000000000E+00  0.00000000000E+00  0.13102386935E+03  0.13102386935E+03  0.00000000000E+00 0.  1.
          1   -1    0    0  502    0  0.00000000000E+00 -0.00000000000E+00 -0.21092494874E+03  0.21092494874E+03  0.00000000000E+00 0. -1.
        -24    2    1    2    0    0  0.29407483946E+02  0.18709212875E+02  0.87852522441E+02  0.12458499626E+03  0.81169703923E+02 0.  0.
         23    2    1    2    0    0 -0.22188118444E+02  0.18367429319E+02 -0.88506852744E+02  0.12957519002E+03  0.90147611324E+02 0.  0.
         11    1    3    3    0    0 -0.22712887929E+02 -0.24587181322E+01  0.33789409255E+01  0.23094107792E+02  0.00000000000E+00 0. -1.
        -12    1    3    3    0    0  0.52120371875E+02  0.21167931007E+02  0.84473581516E+02  0.10149088847E+03  0.00000000000E+00 0.  1.
        -11    1    4    4    0    0  0.22481412510E+02 -0.37393943907E+01  0.52562520197E+01  0.23388569092E+02  0.00000000000E+00 0.  1.
         11    1    4    4    0    0 -0.44669530954E+02  0.22106823710E+02 -0.93763104764E+02  0.10618662093E+03  0.00000000000E+00 0. -1.
         21    1    1    2  502  501 -0.72193655024E+01 -0.37076642194E+02 -0.79246749090E+02  0.87788631815E+02  0.00000000000E+00 0. -1.
<scales pt_clust_5="13000.00000" pt_clust_6="13000.00000" pt_clust_7="13000.00000" pt_clust_8="13000.00000" pt_clust_9="37.77296"></scales>
<clustering>
<clus scale="   37.773">  2  9  1 -1</clus>
<clus scale="   81.170">  5  6 -1 -1</clus>
<clus scale="   87.016">  1  5  2 -1</clus>
<clus scale="   90.148">  7  8 -1 -1</clus>
<clus scale="   37.773">  2  5  1 -1</clus>
</clustering>
</event>
<event>
 9    1  0.1973774E-005  0.1962224E+03  0.7546771E-02  0.1154216E+00
          1   -1    0    0  502    0  0.00000000000E+00  0.00000000000E+00  0.20382401267E+03  0.20382401267E+03  0.00000000000E+00 0. -1.
         -2   -1    0    0    0  501 -0.00000000000E+00 -0.00000000000E+00 -0.40169960118E+03  0.40169960118E+03  0.00000000000E+00 0.  1.
         23    2    1    2    0    0  0.16969854782E+03  0.60075900285E+02 -0.30837174931E+03  0.36908499608E+03  0.93401753913E+02 0.  0.
        -24    2    1    2    0    0 -0.12886183165E+03 -0.42376300796E+02  0.10910889029E+03  0.19190955166E+03  0.80767589746E+02 0.  0.
         11    1    4    4    0    0 -0.42814142429E+02 -0.16829759423E+02  0.88608113195E+02  0.99838315882E+02  0.00000000000E+00 0. -1.
        -12    1    4    4    0    0 -0.86047689223E+02 -0.25546541374E+02  0.20500777095E+02  0.92071235781E+02  0.00000000000E+00 0.  1.
        -11    1    3    3    0    0  0.78035645455E+02  0.95205929222E+01 -0.21460113405E+03  0.22854726072E+03  0.00000000000E+00 0.  1.
         11    1    3    3    0    0  0.91662902363E+02  0.50555307363E+02 -0.93770615260E+02  0.14053773535E+03  0.00000000000E+00 0. -1.
         21    1    1    2  502  501 -0.40836716165E+02 -0.17699599489E+02  0.13872705040E+01  0.44529066110E+02  0.00000000000E+00 0. -1.
<scales pt_clust_5="13000.00000" pt_clust_6="13000.00000" pt_clust_7="13000.00000" pt_clust_8="13000.00000" pt_clust_9="44.50745"></scales>
<clustering>
<clus scale="   44.507">  1  9  2 -1</clus>
<clus scale="   80.768">  5  6 -1 -1</clus>
<clus scale="   93.402">  7  8 -1 -1</clus>
<clus scale="  190.533">  1  5  2 -1</clus>
<clus scale="   44.507">  1  5  2 -1</clus>
</clustering>
</event>
<event>
 9    1  0.1973774E-005  0.3532865E+03  0.7546771E-02  0.1061589E+00
          1   -1    0    0  502    0  0.00000000000E+00  0.00000000000E+00  0.13576645432E+04  0.13576645432E+04  0.00000000000E+00 0. -1.
         -2   -1    0    0    0  501 -0.00000000000E+00 -0.00000000000E+00 -0.45112544485E+03  0.45112544485E+03  0.00000000000E+00 0.  1.
         23    2    1    2    0    0 -0.34330305525E+03 -0.38307325397E+02 -0.34679044765E+03  0.49807957793E+03  0.92169476785E+02 0.  0.
        -24    2    1    2    0    0  0.28091349552E+03  0.78059282266E+02  0.88942982386E+03  0.93936733019E+03  0.79497961847E+02 0.  0.
         11    1    4    4    0    0  0.19456105892E+03  0.43826122091E+02  0.70782036072E+03  0.73538044418E+03  0.00000000000E+00 0. -1.
        -12    1    4    4    0    0  0.86352436605E+02  0.34233160175E+02  0.18160946314E+03  0.20398688601E+03  0.00000000000E+00 0.  1.
        -11    1    3    3    0    0 -0.49968914715E+02  0.17353424125E+02 -0.23107906156E+02  0.57723557526E+02  0.00000000000E+00 0. -1.
         11    1    3    3    0    0 -0.29333414053E+03 -0.55660749522E+02 -0.32368254150E+03  0.44035602041E+03  0.00000000000E+00 0.  1.
         21    1    1    2  502  501  0.62389559724E+02 -0.39751956869E+02  0.36389972212E+03  0.37134307991E+03  0.00000000000E+00 0. -1.
<scales pt_clust_5="13000.00000" pt_clust_6="13000.00000" pt_clust_7="13000.00000" pt_clust_8="13000.00000" pt_clust_9="73.97753"></scales>
<clustering>
<clus scale="   73.978">  1  9  2 -1</clus>
<clus scale="   79.498">  5  6 -1 -1</clus>
<clus scale="   92.169">  7  8 -1 -1</clus>
<clus scale="  350.194">  1  5  2 -1</clus>
<clus scale="   73.978">  1  5  2 -1</clus>
</clustering>
</event>
<event>
 9    1  0.1973774E-005  0.1309156E+03  0.7546771E-02  0.1251553E+00
         -2   -1    0    0    0  501 -0.00000000000E+00  0.00000000000E+00  0.36016910350E+03  0.36016910350E+03  0.00000000000E+00 0.  1.
          1   -1    0    0  502    0  0.00000000000E+00 -0.00000000000E+00 -0.10705365193E+03  0.10705365193E+03  0.00000000000E+00 0. -1.
         23    2    1    2    0    0 -0.85224973815E+02  0.45536810652E+02  0.26912049667E+03  0.30043400144E+03  0.92183784954E+02 0.  0.
        -24    2    1    2    0    0  0.17497259613E+02 -0.53969862760E+01  0.19545445705E+02  0.80405386569E+02  0.75813720306E+02 0.  0.
         13    1    4    4    0    0  0.21167798644E+02 -0.13217879831E+02 -0.24825750601E+02  0.35200936629E+02  0.00000000000E+00 0. -1.
        -14    1    4    4    0    0 -0.36705390312E+01  0.78208935546E+01  0.44371196306E+02  0.45204449940E+02  0.00000000000E+00 0.  1.
        -11    1    3    3    0    0 -0.45560895302E+02 -0.23091238217E+02  0.13880429155E+03  0.14790413049E+03  0.00000000000E+00 0.  1.
         11    1    3    3    0    0 -0.39664078514E+02  0.68628048869E+02  0.13031620511E+03  0.15252987095E+03  0.00000000000E+00 0. -1.
         21    1    1    2  502  501  0.67727714203E+02 -0.40139824376E+02 -0.35550490802E+02  0.86383367429E+02  0.00000000000E+00 0. -1.
<scales pt_clust_5="13000.00000" pt_clust_6="13000.00000" pt_clust_7="13000.00000" pt_clust_8="13000.00000" pt_clust_9="92.95729"></scales>
<clustering>
<clus scale="   75.814">  5  6 -1 -1</clus>
<clus scale="   77.994">  2  5  1 -1</clus>
<clus scale="   92.184">  7  8 -1 -1</clus>
<clus scale="   92.957">  2  9  1 -1</clus>
<clus scale="   77.994">  2  5  1 -1</clus>
</clustering>
</event>
<event>
 9    1  0.1973774E-005  0.1280603E+03  0.7546771E-02  0.1234726E+00
          1   -1    0    0  502    0  0.00000000000E+00  0.00000000000E+00  0.11998502588E+03  0.11998502588E+03  0.00000000000E+00 0. -1.
         -2   -1    0    0    0  501 -0.00000000000E+00 -0.00000000000E+00 -0.42304465341E+03  0.42304465341E+03  0.00000000000E+00 0.  1.
        -24    2    1    2    0    0  0.44204251283E+02 -0.64282994154E+02 -0.24068554547E+03  0.26463162432E+03  0.77550278016E+02 0.  0.
         23    2    1    2    0    0 -0.13401659548E+03  0.72478623570E+02 -0.58980788583E+02  0.18814873391E+03  0.93314596453E+02 0.  0.
         13    1    3    3    0    0 -0.10696768008E+02 -0.35687743950E+02 -0.15186712486E+03  0.15637026420E+03  0.00000000000E+00 0. -1.
        -14    1    3    3    0    0  0.54901019291E+02 -0.28595250205E+02 -0.88818420616E+02  0.10826136012E+03  0.00000000000E+00 0.  1.
        -13    1    4    4    0    0 -0.11272148396E+03  0.28429218572E+02 -0.72977645461E+02  0.13725920790E+03  0.00000000000E+00 0. -1.
         13    1    4    4    0    0 -0.21295111514E+02  0.44049404999E+02  0.13996856878E+02  0.50889526011E+02  0.00000000000E+00 0.  1.
         21    1    1    2  502  501  0.89812344194E+02 -0.81956294160E+01 -0.33932934781E+01  0.90249321060E+02  0.00000000000E+00 0.  1.
<scales pt_clust_5="13000.00000" pt_clust_6="13000.00000" pt_clust_7="13000.00000" pt_clust_8="13000.00000" pt_clust_9="90.18551"></scales>
<clustering>
<clus scale="   77.550">  5  6 -1 -1</clus>
<clus scale="   90.186">  1  9  2 -1</clus>
<clus scale="   93.315">  7  8 -1 -1</clus>
<clus scale="  117.072">  2  5  1 -1</clus>
<clus scale="   90.186">  1  5  2 -1</clus>
</clustering>
</event>
<event>
 9    1  0.1973774E-005  0.1111983E+03  0.7546771E-02  0.1259835E+00
         -2   -1    0    0    0  501 -0.00000000000E+00  0.00000000000E+00  0.57092639189E+03  0.57092639189E+03  0.00000000000E+00 0.  1.
          1   -1    0    0  502    0  0.00000000000E+00 -0.00000000000E+00 -0.45595882730E+02  0.45595882730E+02  0.00000000000E+00 0. -1.
        -24    2    1    2    0    0 -0.56455806261E+02 -0.37311820499E+02  0.43623644998E+03  0.44950644990E+03  0.84701701257E+02 0.  0.
         23    2    1    2    0    0  0.66946892398E+02  0.13078959979E+02  0.57400164151E+02  0.12576297756E+03  0.88705141249E+02 0.  0.
         11    1    3    3    0    0  0.11552517974E+02 -0.17405145571E+02  0.26783951918E+02  0.33967334959E+02  0.00000000000E+00 0. -1.
        -12    1    3    3    0    0 -0.68008324235E+02 -0.19906674928E+02  0.40945249806E+03  0.41553911494E+03  0.00000000000E+00 0.  1.
        -11    1    4    4    0    0  0.42996520625E+02 -0.34532049548E+02  0.13652305842E+02  0.56811518960E+02  0.00000000000E+00 0. -1.
         11    1    4    4    0    0  0.23950371774E+02  0.47611009527E+02  0.43747858309E+02  0.68951458599E+02  0.00000000000E+00 0.  1.
         21    1    1    2  502  501 -0.10491086137E+02  0.24232860520E+02  0.31693895029E+02  0.41252847167E+02  0.00000000000E+00 0.  1.
<scales pt_clust_5="13000.00000" pt_clust_6="13000.00000" pt_clust_7="13000.00000" pt_clust_8="13000.00000" pt_clust_9="26.40633"></scales>
<clustering>
<clus scale="   26.406">  2  9  1 -1</clus>
<clus scale="   84.702">  5  6 -1 -1</clus>
<clus scale="   88.705">  7  8 -1 -1</clus>
<clus scale="  108.032">  1  5  2 -1</clus>
<clus scale="   26.406">  2  5  1 -1</clus>
</clustering>
</event>
<event>
 9    1  0.1973774E-005  0.1113862E+03  0.7546771E-02  0.1261176E+00
         -4   -1    0    0    0  501 -0.00000000000E+00  0.00000000000E+00  0.22025019658E+03  0.22025019658E+03  0.00000000000E+00 0.  1.
          3   -1    0    0  502    0  0.00000000000E+00 -0.00000000000E+00 -0.12927659168E+03  0.12927659168E+03  0.00000000000E+00 0. -1.
        -24    2    1    2    0    0  0.60050504498E+02 -0.46396410694E+02  0.13107785227E+03  0.17154943579E+03  0.80555046712E+02 0.  0.
         23    2    1    2    0    0 -0.67929159921E+02 -0.16511791479E+01 -0.57927697168E+02  0.12612834607E+03  0.89082234052E+02 0.  0.
         13    1    3    3    0    0  0.54178388924E+02 -0.11510493978E+02  0.26989341656E+02  0.61613422734E+02  0.00000000000E+00 0. -1.
        -14    1    3    3    0    0  0.58721155746E+01 -0.34885916717E+02  0.10408851061E+03  0.10993601306E+03  0.00000000000E+00 0.  1.
        -11    1    4    4    0    0 -0.15555905621E+02  0.39819688622E+02 -0.35782802870E+02  0.55749464418E+02  0.00000000000E+00 0. -1.
         11    1    4    4    0    0 -0.52373254300E+02 -0.41470867770E+02 -0.22144894298E+02  0.70378881655E+02  0.00000000000E+00 0.  1.
         21    1    1    2  502  501  0.78786554231E+01  0.48047589842E+02  0.17823449800E+02  0.51849006391E+02  0.00000000000E+00 0. -1.
<scales pt_clust_5="13000.00000" pt_clust_6="13000.00000" pt_clust_7="13000.00000" pt_clust_8="13000.00000" pt_clust_9="48.68926"></scales>
<clustering>
<clus scale="   48.689">  1  9  2 -1</clus>
<clus scale="   80.555">  5  6 -1 -1</clus>
<clus scale="   89.082">  7  8 -1 -1</clus>
<clus scale="  104.692">  1  5  2 -1</clus>
<clus scale="  111.386">  2  5  1 -1</clus>
</clustering>
</event>
<event>
 9    1  0.1973774E-005  0.9126344E+02  0.7546771E-02  0.1306892E+00
          1   -1    0    0  502    0  0.00000000000E+00  0.00000000000E+00  0.33510001528E+03  0.33510001528E+03  0.00000000000E+00 0. -1.
         -2   -1    0    0    0  501 -0.00000000000E+00 -0.00000000000E+00 -0.47821541100E+02  0.47821541100E+02  0.00000000000E+00 0.  1.
         23    2    1    2    0    0 -0.37268557449E+02 -0.23951439570E+02  0.77368660084E+02  0.12746055007E+03  0.91091522274E+02 0.  0.
        -24    2    1    2    0    0 -0.15442988802E+02 -0.17799576546E+01  0.15504556727E+03  0.17514477201E+03  0.79968175419E+02 0.  0.
         13    1    4    4    0    0 -0.30770565548E+02 -0.15840642354E+02  0.14972819579E+03  0.15367591311E+03  0.00000000000E+00 0. -1.
        -14    1    4    4    0    0  0.15327576747E+02  0.14060684699E+02  0.53173714789E+01  0.21468858903E+02  0.00000000000E+00 0.  1.
        -11    1    3    3    0    0  0.24874114798E+02 -0.28894218414E+02  0.21616454569E+02  0.43827714438E+02  0.00000000000E+00 0.  1.
         11    1    3    3    0    0 -0.62142672247E+02  0.49427788441E+01  0.55752205515E+02  0.83632835636E+02  0.00000000000E+00 0. -1.
         21    1    1    2  502  501  0.52711546251E+02  0.25731397224E+02  0.54864246821E+02  0.80316234290E+02  0.00000000000E+00 0.  1.
<scales pt_clust_5="13000.00000" pt_clust_6="13000.00000" pt_clust_7="13000.00000" pt_clust_8="13000.00000" pt_clust_9="58.65673"></scales>
<clustering>
<clus scale="   58.657">  2  9  1 -1</clus>
<clus scale="   79.968">  5  6 -1 -1</clus>
<clus scale="   80.164">  1  5  2 -1</clus>
<clus scale="   91.092">  7  8 -1 -1</clus>
<clus scale="   80.164">  1  5  2 -1</clus>
</clustering>
</event>
<event>
 9    1  0.1973774E-005  0.1101831E+03  0.7546771E-02  0.1264387E+00
          1   -1    0    0  502    0  0.00000000000E+00  0.00000000000E+00  0.52330051520E+03  0.52330051520E+03  0.00000000000E+00 0. -1.
         -2   -1    0    0    0  501 -0.00000000000E+00 -0.00000000000E+00 -0.32349762519E+02  0.32349762519E+02  0.00000000000E+00 0.  1.
        -24    2    1    2    0    0  0.68362717357E+02  0.58241434027E+00  0.11022973240E+03  0.15250551919E+03  0.80209345770E+02 0.  0.
         23    2    1    2    0    0 -0.58179701071E+02  0.17456801881E+02  0.34444517742E+03  0.36137103571E+03  0.90867638096E+02 0.  0.
         11    1    3    3    0    0  0.28937815548E+02  0.27354355957E+02  0.93017998110E+01  0.40892315149E+02  0.00000000000E+00 0. -1.
        -12    1    3    3    0    0  0.39424901809E+02 -0.26771941617E+02  0.10092793259E+03  0.11161320405E+03  0.00000000000E+00 0.  1.
        -11    1    4    4    0    0 -0.81136201502E+02  0.81992652259E+01  0.22335283256E+03  0.23777468107E+03  0.00000000000E+00 0.  1.
         11    1    4    4    0    0  0.22956500431E+02  0.92575366551E+01  0.12109234486E+03  0.12359635464E+03  0.00000000000E+00 0. -1.
         21    1    1    2  502  501 -0.10183016287E+02 -0.18039216221E+02  0.36275842862E+02  0.41773722816E+02  0.00000000000E+00 0. -1.
<scales pt_clust_5="13000.00000" pt_clust_6="13000.00000" pt_clust_7="13000.00000" pt_clust_8="13000.00000" pt_clust_9="20.71490"></scales>
<clustering>
<clus scale="   20.715">  2  9  1 -1</clus>
<clus scale="   80.209">  5  6 -1 -1</clus>
<clus scale="   90.868">  7  8 -1 -1</clus>
<clus scale="  101.572">  2  5  1 -1</clus>
<clus scale="  110.183">  1  5  2 -1</clus>
</clustering>
</event>
<event>
 9    1  0.1973774E-005  0.8915387E+02  0.7546771E-02  0.1309486E+00
          1   -1    0    0  502    0  0.00000000000E+00  0.00000000000E+00  0.47014910140E+02  0.47014910140E+02  0.00000000000E+00 0. -1.
         -2   -1    0    0    0  501 -0.00000000000E+00 -0.00000000000E+00 -0.33347917979E+03  0.33347917979E+03  0.00000000000E+00 0.  1.
         23    2    1    2    0    0  0.23421611311E+01  0.33334186932E+01 -0.17139243918E+03  0.19233777356E+03  0.87188608954E+02 0.  0.
        -24    2    1    2    0    0 -0.44485123083E+02  0.13989143263E+02 -0.10774955962E+03  0.14200746975E+03  0.79884488857E+02 0.  0.
         13    1    4    4    0    0  0.17226797003E+02  0.24074229953E+02 -0.40669572289E+02  0.50302536646E+02  0.00000000000E+00 0. -1.
        -14    1    4    4    0    0 -0.61711920086E+02 -0.10085086690E+02 -0.67079987336E+02  0.91704933102E+02  0.00000000000E+00 0.  1.
        -11    1    3    3    0    0  0.89368836563E+01  0.41640084678E+02 -0.54590650005E+02  0.69238021414E+02  0.00000000000E+00 0. -1.
         11    1    3    3    0    0 -0.65947225252E+01 -0.38306665985E+02 -0.11680178917E+03  0.12309975214E+03  0.00000000000E+00 0.  1.
         21    1    1    2  502  501  0.42142961952E+02 -0.17322561956E+02 -0.73222708543E+01  0.46148846630E+02  0.00000000000E+00 0. -1.
<scales pt_clust_5="13000.00000" pt_clust_6="13000.00000" pt_clust_7="13000.00000" pt_clust_8="13000.00000" pt_clust_9="45.56424"></scales>
<clustering>
<clus scale="   45.564">  1  9  2 -1</clus>
<clus scale="   79.884">  5  6 -1 -1</clus>
<clus scale="   82.025">  1  5  2 -1</clus>
<clus scale="   87.189">  7  8 -1 -1</clus>
<clus scale="   45.564">  1  5  2 -1</clus>
</clustering>
</event>
<event>
 9    1  0.1973774E-005  0.1851341E+03  0.7546771E-02  0.1164226E+00
          1   -1    0    0  502    0  0.00000000000E+00  0.00000000000E+00  0.55755437803E+03  0.55755437803E+03  0.00000000000E+00 0. -1.
         -2   -1    0    0    0  501 -0.00000000000E+00 -0.00000000000E+00 -0.18835514996E+03  0.18835514996E+03  0.00000000000E+00 0.  1.
         23    2    1    2    0    0 -0.15002619847E+03  0.70300748663E+02 -0.32376303009E+02  0.19429504063E+03  0.96188784827E+02 0.  0.
        -24    2    1    2    0    0  0.93187313379E+02 -0.10480615601E+03  0.35304258327E+02  0.17935661002E+03  0.10608580108E+03 0.  0.
         13    1    4    4    0    0  0.59910253465E+02 -0.11666205865E+03  0.25326199492E+01  0.13117045614E+03  0.00000000000E+00 0. -1.
        -14    1    4    4    0    0  0.33277059914E+02  0.11855902648E+02  0.32771638378E+02  0.48186153883E+02  0.00000000000E+00 0.  1.
        -11    1    3    3    0    0 -0.11121076173E+03  0.77347647948E+00 -0.10451833667E+02  0.11170350315E+03  0.00000000000E+00 0. -1.
         11    1    3    3    0    0 -0.38815436745E+02  0.69527272183E+02 -0.21924469342E+02  0.82591537478E+02  0.00000000000E+00 0.  1.
         21    1    1    2  502  501  0.56838885092E+02  0.34505407342E+02  0.36627127275E+03  0.37225787734E+03  0.00000000000E+00 0. -1.
<scales pt_clust_5="13000.00000" pt_clust_6="13000.00000" pt_clust_7="13000.00000" pt_clust_8="13000.00000" pt_clust_9="66.49272"></scales>
<clustering>
<clus scale="   66.493">  1  9  2 -1</clus>
<clus scale="   96.189">  7  8 -1 -1</clus>
<clus scale="  106.086">  5  6 -1 -1</clus>
<clus scale="  179.646">  2  7  1 -1</clus>
<clus scale="   66.493">  1  5  2 -1</clus>
</clustering>
</event>
<event>
 9    1  0.1973774E-005  0.1238697E+03  0.7546771E-02  0.1237620E+00
         -2   -1    0    0    0  501 -0.00000000000E+00  0.00000000000E+00  0.50188788176E+03  0.50188788176E+03  0.00000000000E+00 0.  1.
          1   -1    0    0  502    0  0.00000000000E+00 -0.00000000000E+00 -0.25091086687E+03  0.25091086687E+03  0.00000000000E+00 0. -1.
        -24    2    1    2    0    0 -0.61198702198E+02 -0.69209702984E+02  0.43885992318E+03  0.45568743114E+03  0.80732512583E+02 0.  0.
         23    2    1    2    0    0  0.91912180838E+02  0.65661351702E+02 -0.35515020809E+02  0.14163822752E+03  0.77722639552E+02 0.  0.
         13    1    3    3    0    0 -0.32660360908E+02 -0.75064539075E+02  0.21708217520E+03  0.23200442882E+03  0.00000000000E+00 0. -1.
        -14    1    3    3    0    0 -0.28538341290E+02  0.58548360917E+01  0.22177774798E+03  0.22368300232E+03  0.00000000000E+00 0.  1.
        -13    1    4    4    0    0  0.31866312163E+02  0.17917311318E+02  0.24695381972E+02  0.44117499776E+02  0.00000000000E+00 0.  1.
         13    1    4    4    0    0  0.60045868675E+02  0.47744040384E+02 -0.60210402781E+02  0.97520727747E+02  0.00000000000E+00 0. -1.
         21    1    1    2  502  501 -0.30713478640E+02  0.35483512817E+01 -0.15236788748E+03  0.15547308996E+03  0.00000000000E+00 0.  1.
<scales pt_clust_5="13000.00000" pt_clust_6="13000.00000" pt_clust_7="13000.00000" pt_clust_8="13000.00000" pt_clust_9="30.91777"></scales>
<clustering>
<clus scale="   30.918">  2  9  1 -1</clus>
<clus scale="   77.723">  7  8 -1 -1</clus>
<clus scale="   80.733">  5  6 -1 -1</clus>
<clus scale="  121.929">  2  7  1 -1</clus>
<clus scale="   30.918">  2  5  1 -1</clus>
</clustering>
</event>
<event>
 9    1  0.1973774E-005  0.9525197E+02  0.7546771E-02  0.1297336E+00
          3   -1    0    0  502    0  0.00000000000E+00  0.00000000000E+00  0.21323336478E+03  0.21323336478E+03  0.00000000000E+00 0. -1.
         -4   -1    0    0    0  501 -0.00000000000E+00 -0.00000000000E+00 -0.10328166080E+03  0.10328166080E+03  0.00000000000E+00 0.  1.
        -24    2    1    2    0    0  0.16986990983E+02 -0.22052175945E+02 -0.55278617032E+02  0.10108263792E+03  0.79919446080E+02 0.  0.
         23    2    1    2    0    0 -0.30882701466E+02 -0.10074967302E+02  0.14624378769E+03  0.17561113014E+03  0.91633931347E+02 0.  0.
         11    1    3    3    0    0  0.36063542549E+02 -0.12648407619E+02  0.36907247049E+01  0.38395087776E+02  0.00000000000E+00 0. -1.
        -12    1    3    3    0    0 -0.19076551566E+02 -0.94037683256E+01 -0.58969341737E+02  0.62687550146E+02  0.00000000000E+00 0.  1.
        -11    1    4    4    0    0  0.17717306450E+02  0.23755952739E+02  0.18835935797E+02  0.35114679491E+02  0.00000000000E+00 0.  1.
         11    1    4    4    0    0 -0.48600007916E+02 -0.33830920041E+02  0.12740785189E+03  0.14049645065E+03  0.00000000000E+00 0. -1.
         21    1    1    2  502  501  0.13895710484E+02  0.32127143247E+02  0.18986533326E+02  0.39821257524E+02  0.00000000000E+00 0. -1.
<scales pt_clust_5="13000.00000" pt_clust_6="13000.00000" pt_clust_7="13000.00000" pt_clust_8="13000.00000" pt_clust_9="35.00349"></scales>
<clustering>
<clus scale="   35.003">  1  9  2 -1</clus>
<clus scale="   79.919">  5  6 -1 -1</clus>
<clus scale="   84.043">  2  5  1 -1</clus>
<clus scale="   91.634">  7  8 -1 -1</clus>
<clus scale="   35.003">  1  5  2 -1</clus>
</clustering>
</event>
<event>
 9    1  0.1973774E-005  0.9725061E+02  0.7546771E-02  0.1290653E+00
          1   -1    0    0  502    0  0.00000000000E+00  0.00000000000E+00  0.15241665018E+03  0.15241665018E+03  0.00000000000E+00 0. -1.
         -2   -1    0    0    0  501 -0.00000000000E+00 -0.00000000000E+00 -0.14387488982E+03  0.14387488982E+03  0.00000000000E+00 0.  1.
         23    2    1    2    0    0 -0.25225594893E+02 -0.46658048497E+01 -0.95216435456E+02  0.13648749073E+03  0.94364003583E+02 0.  0.
        -24    2    1    2    0    0  0.79999183987E+01  0.25364052589E+02  0.59933636604E+02  0.10836735633E+03  0.86279251640E+02 0.  0.
         11    1    4    4    0    0  0.29359961164E+02  0.29165285130E+02  0.72365012455E+02  0.83362558766E+02  0.00000000000E+00 0. -1.
        -12    1    4    4    0    0 -0.21360042765E+02 -0.38012325411E+01 -0.12431375851E+02  0.25004797566E+02  0.00000000000E+00 0.  1.
        -11    1    3    3    0    0  0.27668450750E+02 -0.27473358751E+02 -0.49103502940E+02  0.62701535937E+02  0.00000000000E+00 0. -1.
         11    1    3    3    0    0 -0.52894045643E+02  0.22807553901E+02 -0.46112932516E+02  0.73785954793E+02  0.00000000000E+00 0.  1.
         21    1    1    2  502  501  0.17225676494E+02 -0.20698247740E+02  0.43824559211E+02  0.51436692936E+02  0.00000000000E+00 0. -1.
<scales pt_clust_5="13000.00000" pt_clust_6="13000.00000" pt_clust_7="13000.00000" pt_clust_8="13000.00000" pt_clust_9="26.92845"></scales>
<clustering>
<clus scale="   26.928">  1  9  2 -1</clus>
<clus scale="   86.279">  5  6 -1 -1</clus>
<clus scale="   89.427">  1  5  2 -1</clus>
<clus scale="   94.364">  7  8 -1 -1</clus>
<clus scale="   26.928">  1  5  2 -1</clus>
</clustering>
</event>
<event>
 9    1  0.1973774E-005  0.8666768E+02  0.7546771E-02  0.1319365E+00
         -2   -1    0    0    0  501 -0.00000000000E+00  0.00000000000E+00  0.99969815833E+02  0.99969815833E+02  0.00000000000E+00 0.  1.
          1   -1    0    0  502    0  0.00000000000E+00 -0.00000000000E+00 -0.17916174873E+03  0.17916174873E+03  0.00000000000E+00 0. -1.
        -24    2    1    2    0    0  0.11782811624E+02  0.38475834033E+02  0.58282238806E+02  0.10602078947E+03  0.78894638505E+02 0.  0.
         23    2    1    2    0    0  0.10572481112E+02 -0.16120675318E+02 -0.11685872842E+03  0.13536811043E+03  0.65550815279E+02 0.  0.
         11    1    3    3    0    0 -0.12343074388E+01  0.43736916117E+02 -0.23176978840E+01  0.43815671509E+02  0.00000000000E+00 0. -1.
        -12    1    3    3    0    0  0.13017119063E+02 -0.52610820846E+01  0.60599936690E+02  0.62205117958E+02  0.00000000000E+00 0.  1.
        -11    1    4    4    0    0  0.28832705541E+02 -0.32729651963E+02 -0.72866114873E+02  0.84923646431E+02  0.00000000000E+00 0. -1.
         11    1    4    4    0    0 -0.18260224429E+02  0.16608976646E+02 -0.43992613542E+02  0.50444463994E+02  0.00000000000E+00 0.  1.
         21    1    1    2  502  501 -0.22355292736E+02 -0.22355158715E+02 -0.20615443291E+02  0.37742664672E+02  0.00000000000E+00 0. -1.
<scales pt_clust_5="13000.00000" pt_clust_6="13000.00000" pt_clust_7="13000.00000" pt_clust_8="13000.00000" pt_clust_9="31.61506"></scales>
<clustering>
<clus scale="   31.615">  2  9  1 -1</clus>
<clus scale="   65.551">  7  8 -1 -1</clus>
<clus scale="   74.725">  2  7  1 -1</clus>
<clus scale="   78.895">  5  6 -1 -1</clus>
<clus scale="   31.615">  2  5  1 -1</clus>
</clustering>
</event>
<event>
 9    1  0.1973774E-005  0.1154763E+03  0.7546771E-02  0.1265191E+00
         -2   -1    0    0    0  501 -0.00000000000E+00  0.00000000000E+00  0.64519103251E+02  0.64519103251E+02  0.00000000000E+00 0.  1.
          1   -1    0    0  502    0  0.00000000000E+00 -0.00000000000E+00 -0.28764548623E+03  0.28764548623E+03  0.00000000000E+00 0. -1.
        -24    2    1    2    0    0 -0.26880141574E+02 -0.27907454228E+02  0.28297751688E+01  0.88457790395E+02  0.79469522721E+02 0.  0.
         23    2    1    2    0    0  0.20410986493E+02  0.56411654175E+01 -0.17608765221E+03  0.20871129500E+03  0.11002323520E+03 0.  0.
         11    1    3    3    0    0 -0.22783547923E+02 -0.54949962065E+02 -0.58238271970E+01  0.59770438765E+02  0.00000000000E+00 0. -1.
        -12    1    3    3    0    0 -0.40965936509E+01  0.27042507837E+02  0.86536023658E+01  0.28687351630E+02  0.00000000000E+00 0.  1.
        -11    1    4    4    0    0 -0.26220173731E+02 -0.33982750891E+01 -0.11393068219E+00  0.26439719444E+02  0.00000000000E+00 0.  1.
         11    1    4    4    0    0  0.46631160224E+02  0.90394405066E+01 -0.17597372152E+03  0.18227157556E+03  0.00000000000E+00 0. -1.
         21    1    1    2  502  501  0.64691550815E+01  0.22266288810E+02 -0.49868505942E+02  0.54995504087E+02  0.00000000000E+00 0.  1.
<scales pt_clust_5="13000.00000" pt_clust_6="13000.00000" pt_clust_7="13000.00000" pt_clust_8="13000.00000" pt_clust_9="23.18701"></scales>
<clustering>
<clus scale="   23.187">  2  9  1 -1</clus>
<clus scale="   79.470">  5  6 -1 -1</clus>
<clus scale="   86.862">  1  5  2 -1</clus>
<clus scale="  110.023">  7  8 -1 -1</clus>
<clus scale="   23.187">  2  5  1 -1</clus>
</clustering>
</event>
<event>
 9    1  0.1973774E-005  0.9301607E+02  0.7546771E-02  0.1302264E+00
         -2   -1    0    0    0  501 -0.00000000000E+00  0.00000000000E+00  0.65854150822E+02  0.65854150822E+02  0.00000000000E+00 0.  1.
          1   -1    0    0  502    0  0.00000000000E+00 -0.00000000000E+00 -0.31273189460E+03  0.31273189460E+03  0.00000000000E+00 0. -1.
        -24    2    1    2    0    0  0.27078442035E+02  0.95179710798E+00  0.11675709089E+02  0.85123579999E+02  0.79847064745E+02 0.  0.
         23    2    1    2    0    0  0.56209597137E+01  0.13751975841E+02 -0.12501606524E+03  0.15519574597E+03  0.90752360696E+02 0.  0.
         11    1    3    3    0    0  0.31607028147E+02  0.22579839090E+02  0.35505005015E+02  0.52625647196E+02  0.00000000000E+00 0. -1.
        -12    1    3    3    0    0 -0.45285861116E+01 -0.21628041982E+02 -0.23829295927E+02  0.32497932803E+02  0.00000000000E+00 0.  1.
        -11    1    4    4    0    0 -0.20267837540E+02 -0.14545081956E+02 -0.11192284889E+03  0.11466938890E+03  0.00000000000E+00 0. -1.
         11    1    4    4    0    0  0.25888797254E+02  0.28297057797E+02 -0.13093216358E+02  0.40526357076E+02  0.00000000000E+00 0.  1.
         21    1    1    2  502  501 -0.32699401749E+02 -0.14703772949E+02 -0.13353738763E+03  0.13826671945E+03  0.00000000000E+00 0. -1.
<scales pt_clust_5="13000.00000" pt_clust_6="13000.00000" pt_clust_7="13000.00000" pt_clust_8="13000.00000" pt_clust_9="35.85320"></scales>
<clustering>
<clus scale="   35.853">  2  9  1 -1</clus>
<clus scale="   79.847">  5  6 -1 -1</clus>
<clus scale="   82.411">  1  5  2 -1</clus>
<clus scale="   90.752">  7  8 -1 -1</clus>
<clus scale="   35.853">  2  5  1 -1</clus>
</clustering>
</event>
<event>
 9    1  0.1973774E-005  0.1086705E+03  0.7546771E-02  0.1266856E+00
          1   -1    0    0  502    0  0.00000000000E+00  0.00000000000E+00  0.56816227981E+03  0.56816227981E+03  0.00000000000E+00 0. -1.
         -2   -1    0    0    0  501 -0.00000000000E+00 -0.00000000000E+00 -0.28231565481E+02  0.28231565481E+02  0.00000000000E+00 0.  1.
        -24    2    1    2    0    0 -0.40600808502E+02 -0.32625860641E+02  0.13246962715E+03  0.16446944639E+03  0.82396142185E+02 0.  0.
         23    2    1    2    0    0  0.45572359022E+02  0.55931519230E+02  0.30116721058E+03  0.32299204264E+03  0.91744188533E+02 0.  0.
         13    1    3    3    0    0  0.22547940371E+02 -0.16183580521E+02  0.64643599875E+02  0.70349931757E+02  0.00000000000E+00 0. -1.
        -14    1    3    3    0    0 -0.63148748874E+02 -0.16442280120E+02  0.67826027272E+02  0.94119514637E+02  0.00000000000E+00 0.  1.
        -13    1    4    4    0    0  0.19493678907E+02 -0.21146871620E+02  0.13426370554E+03  0.13730963667E+03  0.00000000000E+00 0. -1.
         13    1    4    4    0    0  0.26078680115E+02  0.77078390850E+02  0.16690350504E+03  0.18568240597E+03  0.00000000000E+00 0.  1.
         21    1    1    2  502  501 -0.49715505193E+01 -0.23305658589E+02  0.10629387660E+03  0.10893235625E+03  0.00000000000E+00 0. -1.
<scales pt_clust_5="13000.00000" pt_clust_6="13000.00000" pt_clust_7="13000.00000" pt_clust_8="13000.00000" pt_clust_9="23.83002"></scales>
<clustering>
<clus scale="   23.830">  1  9  2 -1</clus>
<clus scale="   82.396">  5  6 -1 -1</clus>
<clus scale="   91.744">  7  8 -1 -1</clus>
<clus scale="  100.903">  2  5  1 -1</clus>
<clus scale="   23.830">  1  5  2 -1</clus>
</clustering>
</event>
<event>
 9    1  0.1973774E-005  0.2809898E+03  0.7546771E-02  0.1095872E+00
         -2   -1    0    0    0  501 -0.00000000000E+00  0.00000000000E+00  0.21912573568E+03  0.21912573568E+03  0.00000000000E+00 0.  1.
          1   -1    0    0  502    0  0.00000000000E+00 -0.00000000000E+00 -0.52078255857E+03  0.52078255857E+03  0.00000000000E+00 0. -1.
        -24    2    1    2    0    0 -0.24673179287E+03  0.35331167016E+02 -0.52039280167E+02  0.26711430262E+03  0.80728526582E+02 0.  0.
         23    2    1    2    0    0  0.26741027784E+03 -0.11915160727E+03 -0.15679103177E+03  0.34602559226E+03  0.97184981565E+02 0.  0.
         11    1    3    3    0    0 -0.10972913813E+03  0.41031344321E+02 -0.56194277023E+02  0.12993018025E+03  0.00000000000E+00 0. -1.
        -12    1    3    3    0    0 -0.13700265475E+03 -0.57001773050E+01  0.41549968557E+01  0.13718412236E+03  0.00000000000E+00 0.  1.
        -13    1    4    4    0    0  0.19880745421E+03 -0.11293786653E+03 -0.15661469440E+03  0.27714171113E+03  0.00000000000E+00 0.  1.
         13    1    4    4    0    0  0.68602823636E+02 -0.62137407419E+01 -0.17633737195E+00  0.68883881131E+02  0.00000000000E+00 0. -1.
         21    1    1    2  502  501 -0.20678484971E+02  0.83820440253E+02 -0.92826510954E+02  0.12676839938E+03  0.00000000000E+00 0.  1.
<scales pt_clust_5="13000.00000" pt_clust_6="13000.00000" pt_clust_7="13000.00000" pt_clust_8="13000.00000" pt_clust_9="86.33346"></scales>
<clustering>
<clus scale="   80.729">  5  6 -1 -1</clus>
<clus scale="   86.333">  2  9  1 -1</clus>
<clus scale="   97.185">  7  8 -1 -1</clus>
<clus scale="  275.731">  1  5  2 -1</clus>
<clus scale="   86.333">  2  5  1 -1</clus>
</clustering>
</event>
<event>
 9    1  0.1973774E-005  0.2755408E+03  0.7546771E-02  0.1098528E+00
         -2   -1    0    0    0  501 -0.00000000000E+00  0.00000000000E+00  0.16068607925E+03  0.16068607925E+03  0.00000000000E+00 0.  1.
          1   -1    0    0  502    0  0.00000000000E+00 -0.00000000000E+00 -0.10650331056E+04  0.10650331056E+04  0.00000000000E+00 0. -1.
         23    2    1    2    0    0 -0.16436346193E+02 -0.25603976769E+03 -0.11403247044E+02  0.27191732865E+03  0.89344745021E+02 0.  0.
        -24    2    1    2    0    0  0.15169037333E+02  0.28112432905E+03 -0.69370203447E+03  0.75298324607E+03  0.80624240530E+02 0.  0.
         13    1    4    4    0    0 -0.28794360729E+02  0.16456356492E+03 -0.43079949737E+03  0.46205896706E+03  0.00000000000E+00 0. -1.
        -14    1    4    4    0    0  0.43963398063E+02  0.11656076413E+03 -0.26290253710E+03  0.29092427900E+03  0.00000000000E+00 0.  1.
        -13    1    3    3    0    0 -0.36532702567E+02 -0.17657672746E+03  0.25349915448E+02  0.18208953086E+03  0.00000000000E+00 0.  1.
         13    1    3    3    0    0  0.20096356375E+02 -0.79463040231E+02 -0.36753162491E+02  0.89827797788E+02  0.00000000000E+00 0. -1.
         21    1    1    2  502  501  0.12673088594E+01 -0.25084561355E+02 -0.19924174488E+03  0.20081861018E+03  0.00000000000E+00 0.  1.
<scales pt_clust_5="13000.00000" pt_clust_6="13000.00000" pt_clust_7="13000.00000" pt_clust_8="13000.00000" pt_clust_9="25.11655"></scales>
<clustering>
<clus scale="   25.117">  2  9  1 -1</clus>
<clus scale="   80.624">  5  6 -1 -1</clus>
<clus scale="   89.345">  7  8 -1 -1</clus>
<clus scale="  272.838">  2  5  1 -1</clus>
<clus scale="   25.117">  2  5  1 -1</clus>
</clustering>
</event>
<event>
 9    1  0.1973774E-005  0.1149535E+03  0.7546771E-02  0.1257372E+00
          3   -1    0    0  502    0  0.00000000000E+00  0.00000000000E+00  0.33005235135E+03  0.33005235135E+03  0.00000000000E+00 0. -1.
         -4   -1    0    0    0  501 -0.00000000000E+00 -0.00000000000E+00 -0.66152792743E+03  0.66152792743E+03  0.00000000000E+00 0.  1.
        -24    2    1    2    0    0 -0.50503648987E+02  0.52323553282E+02 -0.61102731562E+03  0.62005126291E+03  0.76294268605E+02 0.  0.
         23    2    1    2    0    0  0.11794429986E+01 -0.27245366366E+02  0.10343489603E+02  0.96692929094E+02  0.92189119127E+02 0.  0.
         13    1    3    3    0    0 -0.29804458034E+02 -0.16060093129E+02 -0.18426874449E+03  0.18735314918E+03  0.00000000000E+00 0. -1.
        -14    1    3    3    0    0 -0.20699190952E+02  0.68383646411E+02 -0.42675857113E+03  0.43269811374E+03  0.00000000000E+00 0.  1.
        -13    1    4    4    0    0  0.40698327355E+02  0.67795530323E+01 -0.67648297966E+01  0.41810036008E+02  0.00000000000E+00 0.  1.
         13    1    4    4    0    0 -0.39518884357E+02 -0.34024919398E+02  0.17108319399E+02  0.54882893086E+02  0.00000000000E+00 0. -1.
         21    1    1    2  502  501  0.49324205988E+02 -0.25078186916E+02  0.26920824994E+03  0.27483608677E+03  0.00000000000E+00 0. -1.
<scales pt_clust_5="13000.00000" pt_clust_6="13000.00000" pt_clust_7="13000.00000" pt_clust_8="13000.00000" pt_clust_9="55.33347"></scales>
<clustering>
<clus scale="   55.333">  1  9  2 -1</clus>
<clus scale="   76.294">  5  6 -1 -1</clus>
<clus scale="   92.189">  7  8 -1 -1</clus>
<clus scale="  102.646">  2  5  1 -1</clus>
<clus scale="   55.333">  1  5  2 -1</clus>
</clustering>
</event>
<event>
 9    1  0.1973774E-005  0.1090005E+03  0.7546771E-02  0.1270975E+00
          1   -1    0    0  502    0  0.00000000000E+00  0.00000000000E+00  0.10809041929E+03  0.10809041929E+03  0.00000000000E+00 0. -1.
         -2   -1    0    0    0  501 -0.00000000000E+00 -0.00000000000E+00 -0.20020697304E+03  0.20020697304E+03  0.00000000000E+00 0.  1.
        -24    2    1    2    0    0  0.38241564769E+02  0.26509967903E+02 -0.13871008715E+03  0.16690069920E+03  0.80312884669E+02 0.  0.
         23    2    1    2    0    0 -0.19747012662E+02 -0.39730460583E+02  0.47906484278E+02  0.11862491840E+03  0.99037296115E+02 0.  0.
         13    1    3    3    0    0  0.57332620552E+02  0.82304081425E+01 -0.12349495195E+03  0.13640297707E+03  0.00000000000E+00 0. -1.
        -14    1    3    3    0    0 -0.19091055783E+02  0.18279559760E+02 -0.15215135196E+02  0.30497722128E+02  0.00000000000E+00 0.  1.
        -13    1    4    4    0    0 -0.21548827215E+02  0.12309617011E+02 -0.20824346374E+02  0.32396481710E+02  0.00000000000E+00 0.  1.
         13    1    4    4    0    0  0.18018145525E+01 -0.52040077593E+02  0.68730830652E+02  0.86228436688E+02  0.00000000000E+00 0. -1.
         21    1    1    2  502  501 -0.18494552106E+02  0.13220492680E+02 -0.13129508753E+01  0.22771774729E+02  0.00000000000E+00 0. -1.
<scales pt_clust_5="13000.00000" pt_clust_6="13000.00000" pt_clust_7="13000.00000" pt_clust_8="13000.00000" pt_clust_9="22.73389"></scales>
<clustering>
<clus scale="   22.734">  1  9  2 -1</clus>
<clus scale="   80.313">  5  6 -1 -1</clus>
<clus scale="   92.319">  2  5  1 -1</clus>
<clus scale="   99.037">  7  8 -1 -1</clus>
<clus scale="   22.734">  1  5  2 -1</clus>
</clustering>
</event>
<event>
 9    1  0.1973774E-005  0.1555069E+03  0.7546771E-02  0.1196122E+00
         -4   -1    0    0    0  501 -0.00000000000E+00  0.00000000000E+00  0.41550896439E+03  0.41550896439E+03  0.00000000000E+00 0.  1.
          3   -1    0    0  502    0  0.00000000000E+00 -0.00000000000E+00 -0.11050014214E+03  0.11050014214E+03  0.00000000000E+00 0. -1.
         23    2    1    2    0    0  0.64264660944E+02 -0.11193679550E+03  0.30047451306E+03  0.33993801303E+03  0.92806933307E+02 0.  0.
        -24    2    1    2    0    0 -0.75620439680E+02  0.86224471987E+02  0.35704215591E+02  0.14409919390E+03  0.79603242422E+02 0.  0.
         13    1    4    4    0    0 -0.76229079363E+02  0.71817479523E+02 -0.92346573331E+00  0.10473526481E+03  0.00000000000E+00 0. -1.
        -14    1    4    4    0    0  0.60863968290E+00  0.14406992463E+02  0.36627681324E+02  0.39363929088E+02  0.00000000000E+00 0.  1.
        -11    1    3    3    0    0  0.44389789682E+02  0.57427721312E+00  0.74549895085E+02  0.86766756765E+02  0.00000000000E+00 0. -1.
         11    1    3    3    0    0  0.19874871263E+02 -0.11251107272E+03  0.22592461797E+03  0.25317125626E+03  0.00000000000E+00 0.  1.
         21    1    1    2  502  501  0.11355778736E+02  0.25712323516E+02 -0.31169906395E+02  0.41971899599E+02  0.00000000000E+00 0. -1.
<scales pt_clust_5="13000.00000" pt_clust_6="13000.00000" pt_clust_7="13000.00000" pt_clust_8="13000.00000" pt_clust_9="28.10831"></scales>
<clustering>
<clus scale="   28.108">  2  9  1 -1</clus>
<clus scale="   79.603">  5  6 -1 -1</clus>
<clus scale="   92.807">  7  8 -1 -1</clus>
<clus scale="  148.007">  2  5  1 -1</clus>
<clus scale="   28.108">  2  5  1 -1</clus>
</clustering>
</event>
<event>
 9    1  0.1973774E-005  0.9024628E+02  0.7546771E-02  0.1307365E+00
          1   -1    0    0  502    0  0.00000000000E+00  0.00000000000E+00  0.46274048662E+03  0.46274048662E+03  0.00000000000E+00 0. -1.
         -2   -1    0    0    0  501 -0.00000000000E+00 -0.00000000000E+00 -0.38009308610E+02  0.38009308610E+02  0.00000000000E+00 0.  1.
        -24    2    1    2    0    0  0.31338678263E+02 -0.17520824868E+02  0.11981252146E+03  0.14907396306E+03  0.81110505512E+02 0.  0.
         23    2    1    2    0    0  0.39146771279E+02  0.28226124939E+01  0.21796038450E+03  0.23877774927E+03  0.89261679870E+02 0.  0.
         11    1    3    3    0    0 -0.93495060233E+01  0.19977321282E+02  0.74064151332E+02  0.77278749608E+02  0.00000000000E+00 0. -1.
        -12    1    3    3    0    0  0.40688184287E+02 -0.37498146150E+02  0.45748370130E+02  0.71795213453E+02  0.00000000000E+00 0.  1.
        -13    1    4    4    0    0 -0.25653899898E+02  0.19290414866E+01  0.27798531446E+02  0.37876141984E+02  0.00000000000E+00 0. -1.
         13    1    4    4    0    0  0.64800671177E+02  0.89357100722E+00  0.19016185305E+03  0.20090160729E+03  0.00000000000E+00 0.  1.
         21    1    1    2  502  501 -0.70485449543E+02  0.14698212374E+02  0.86958272047E+02  0.11289808290E+03  0.00000000000E+00 0. -1.
<scales pt_clust_5="13000.00000" pt_clust_6="13000.00000" pt_clust_7="13000.00000" pt_clust_8="13000.00000" pt_clust_9="72.00164"></scales>
<clustering>
<clus scale="   72.002">  2  9  1 -1</clus>
<clus scale="   81.111">  5  6 -1 -1</clus>
<clus scale="   82.193">  2  5  1 -1</clus>
<clus scale="   89.262">  7  8 -1 -1</clus>
<clus scale="   90.246">  1  5  2 -1</clus>
</clustering>
</event>
<event>
 9    1  0.1973774E-005  0.9338982E+02  0.7546771E-02  0.1301517E+00
         -2   -1    0    0    0  501 -0.00000000000E+00  0.00000000000E+00  0.43261217682E+03  0.43261217682E+03  0.00000000000E+00 0.  1.
          1   -1    0    0  502    0  0.00000000000E+00 -0.00000000000E+00 -0.39702250748E+03  0.39702250748E+03  0.00000000000E+00 0. -1.
         23    2    1    2    0    0  0.16360465755E+02 -0.53378337396E+01  0.40600843844E+03  0.41659608259E+03  0.91723969766E+02 0.  0.
        -24    2    1    2    0    0 -0.90084927495E+01  0.45360558631E+02 -0.89053497584E+02  0.12874599535E+03  0.80661469528E+02 0.  0.
         11    1    4    4    0    0 -0.85122513047E+01  0.50478835526E+02 -0.10237824170E+03  0.11446342487E+03  0.00000000000E+00 0. -1.
        -12    1    4    4    0    0 -0.49624144479E+00 -0.51182768946E+01  0.13324744116E+02  0.14282570487E+02  0.00000000000E+00 0.  1.
        -11    1    3    3    0    0  0.34276535123E+02 -0.38970182476E+02  0.28638606270E+03  0.29105073938E+03  0.00000000000E+00 0.  1.
         11    1    3    3    0    0 -0.17916069368E+02  0.33632348737E+02  0.11962237574E+03  0.12554534321E+03  0.00000000000E+00 0. -1.
         21    1    1    2  502  501 -0.73519730055E+01 -0.40022724892E+02 -0.28136527152E+03  0.28429260636E+03  0.00000000000E+00 0. -1.
<scales pt_clust_5="13000.00000" pt_clust_6="13000.00000" pt_clust_7="13000.00000" pt_clust_8="13000.00000" pt_clust_9="40.69238"></scales>
<clustering>
<clus scale="   40.692">  2  9  1 -1</clus>
<clus scale="   80.661">  5  6 -1 -1</clus>
<clus scale="   82.551">  2  5  1 -1</clus>
<clus scale="   91.724">  7  8 -1 -1</clus>
<clus scale="   40.692">  2  5  1 -1</clus>
</clustering>
</event>
<event>
 9    1  0.1973774E-005  0.1151003E+03  0.7546771E-02  0.1255348E+00
         -2   -1    0    0    0  501 -0.00000000000E+00  0.00000000000E+00  0.21468502264E+03  0.21468502264E+03  0.00000000000E+00 0.  1.
          1   -1    0    0  502    0  0.00000000000E+00 -0.00000000000E+00 -0.17122769419E+03  0.17122769419E+03  0.00000000000E+00 0. -1.
        -24    2    1    2    0    0 -0.69746425798E+02  0.13630721941E+02  0.16871173693E+03  0.19986061798E+03  0.80188876718E+02 0.  0.
         23    2    1    2    0    0  0.63008346844E+02  0.93058728398E+01 -0.11480430547E+03  0.15996199075E+03  0.91384675343E+02 0.  0.
         13    1    3    3    0    0 -0.97049344357E+01 -0.25672753176E+02  0.17680812146E+02  0.32647926828E+02  0.00000000000E+00 0. -1.
        -14    1    3    3    0    0 -0.60041491363E+02  0.39303475117E+02  0.15103092478E+03  0.16721269115E+03  0.00000000000E+00 0.  1.
        -13    1    4    4    0    0  0.19469781130E+02 -0.40307238291E+02 -0.54780859595E+02  0.70743822443E+02  0.00000000000E+00 0.  1.
         13    1    4    4    0    0  0.43538565714E+02  0.49613111131E+02 -0.60023445880E+02  0.89218168306E+02  0.00000000000E+00 0. -1.
         21    1    1    2  502  501  0.67380789541E+01 -0.22936594780E+02 -0.10450103007E+02  0.26090108106E+02  0.00000000000E+00 0. -1.
<scales pt_clust_5="13000.00000" pt_clust_6="13000.00000" pt_clust_7="13000.00000" pt_clust_8="13000.00000" pt_clust_9="23.90584"></scales>
<clustering>
<clus scale="   23.906">  2  9  1 -1</clus>
<clus scale="   80.189">  5  6 -1 -1</clus>
<clus scale="   91.385">  7  8 -1 -1</clus>
<clus scale="  106.429">  1  5  2 -1</clus>
<clus scale="   23.906">  2  5  1 -1</clus>
</clustering>
</event>
<event>
 9    1  0.1973774E-005  0.2775987E+03  0.7546771E-02  0.1097628E+00
          1   -1    0    0  502    0  0.00000000000E+00  0.00000000000E+00  0.58536283172E+03  0.58536283172E+03  0.00000000000E+00 0. -1.
         -2   -1    0    0    0  501 -0.00000000000E+00 -0.00000000000E+00 -0.26119739361E+03  0.26119739361E+03  0.00000000000E+00 0.  1.
         23    2    1    2    0    0 -0.15766342222E+03 -0.21251898515E+03 -0.13133135588E+03  0.30984790345E+03  0.93465097657E+02 0.  0.
        -24    2    1    2    0    0  0.13258827631E+03  0.20679250613E+03  0.41184920942E+03  0.48605003667E+03  0.79259543517E+02 0.  0.
         11    1    4    4    0    0  0.79439115250E+02  0.14646491832E+03  0.33819493729E+03  0.37701241483E+03  0.00000000000E+00 0. -1.
        -12    1    4    4    0    0  0.53149161063E+02  0.60327587810E+02  0.73654272136E+02  0.10903762184E+03  0.00000000000E+00 0.  1.
        -13    1    3    3    0    0 -0.54638326448E+02 -0.13382607505E+03 -0.10204434402E+03  0.17694014024E+03  0.00000000000E+00 0. -1.
         13    1    3    3    0    0 -0.10302509577E+03 -0.78692910099E+02 -0.29287011859E+02  0.13290776321E+03  0.00000000000E+00 0.  1.
         21    1    1    2  502  501  0.25075145907E+02  0.57264790202E+01  0.43647584569E+02  0.50662285212E+02  0.00000000000E+00 0. -1.
<scales pt_clust_5="13000.00000" pt_clust_6="13000.00000" pt_clust_7="13000.00000" pt_clust_8="13000.00000" pt_clust_9="25.72072"></scales>
<clustering>
<clus scale="   25.721">  1  9  2 -1</clus>
<clus scale="   79.260">  5  6 -1 -1</clus>
<clus scale="   93.465">  7  8 -1 -1</clus>
<clus scale="  273.144">  1  5  2 -1</clus>
<clus scale="   25.721">  1  5  2 -1</clus>
</clustering>
</event>
<event>
 9    1  0.1973774E-005  0.8259291E+02  0.7546771E-02  0.1322090E+00
         -4   -1    0    0    0  501 -0.00000000000E+00  0.00000000000E+00  0.10409155079E+03  0.10409155079E+03  0.00000000000E+00 0.  1.
          3   -1    0    0  502    0  0.00000000000E+00 -0.00000000000E+00 -0.11732469628E+03  0.11732469628E+03  0.00000000000E+00 0. -1.
        -24    2    1    2    0    0 -0.34823752069E+02  0.44494377584E+01  0.27434522014E+02  0.91651110066E+02  0.80092332802E+02 0.  0.
         23    2    1    2    0    0  0.41758130679E+01 -0.19886709866E+02 -0.47166344925E+02  0.94838952799E+02  0.79729820208E+02 0.  0.
         11    1    3    3    0    0 -0.31429388145E+02  0.81788530896E+01 -0.23740489477E+02  0.40228235328E+02  0.00000000000E+00 0. -1.
        -12    1    3    3    0    0 -0.33943639234E+01 -0.37294153312E+01  0.51175011491E+02  0.51422874737E+02  0.00000000000E+00 0.  1.
        -13    1    4    4    0    0  0.11210723226E+02  0.29505640947E+02 -0.24909235024E+02  0.40208620374E+02  0.00000000000E+00 0.  1.
         13    1    4    4    0    0 -0.70349101581E+01 -0.49392350812E+02 -0.22257109901E+02  0.54630332425E+02  0.00000000000E+00 0. -1.
         21    1    1    2  502  501  0.30647939001E+02  0.15437272107E+02  0.64986774175E+01  0.34926184207E+02  0.00000000000E+00 0. -1.
<scales pt_clust_5="13000.00000" pt_clust_6="13000.00000" pt_clust_7="13000.00000" pt_clust_8="13000.00000" pt_clust_9="34.31626"></scales>
<clustering>
<clus scale="   34.316">  1  9  2 -1</clus>
<clus scale="   79.730">  7  8 -1 -1</clus>
<clus scale="   80.092">  5  6 -1 -1</clus>
<clus scale="   82.241">  2  7  1 -1</clus>
<clus scale="   82.241">  2  5  1 -1</clus>
</clustering>
</event>
<event>
 9    1  0.1973774E-005  0.1110091E+03  0.7546771E-02  0.1262338E+00
         -2   -1    0    0    0  501 -0.00000000000E+00  0.00000000000E+00  0.12699658726E+03  0.12699658726E+03  0.00000000000E+00 0.  1.
          1   -1    0    0  502    0  0.00000000000E+00 -0.00000000000E+00 -0.19635028599E+03  0.19635028599E+03  0.00000000000E+00 0. -1.
         23    2    1    2    0    0 -0.17742473539E+02 -0.74832142578E+02  0.36307812571E+02  0.12463510579E+03  0.91109864514E+02 0.  0.
        -24    2    1    2    0    0  0.52581647994E+02  0.23419928353E+02 -0.38022511246E+02  0.10688574622E+03  0.81642688799E+02 0.  0.
         11    1    4    4    0    0  0.40101169079E+02  0.87358578987E+01 -0.63091266631E+02  0.75265708658E+02  0.00000000000E+00 0. -1.
        -12    1    4    4    0    0  0.12480478914E+02  0.14684070454E+02  0.25068755385E+02  0.31620037564E+02  0.00000000000E+00 0.  1.
        -13    1    3    3    0    0 -0.45534925251E+02 -0.37314727613E+02  0.48615721719E+02  0.76349896612E+02  0.00000000000E+00 0.  1.
         13    1    3    3    0    0  0.27792451712E+02 -0.37517414965E+02 -0.12307909149E+02  0.48285209178E+02  0.00000000000E+00 0. -1.
         21    1    1    2  502  501 -0.34839174455E+02  0.51412214225E+02 -0.67639000054E+02  0.91826021238E+02  0.00000000000E+00 0. -1.
<scales pt_clust_5="13000.00000" pt_clust_6="13000.00000" pt_clust_7="13000.00000" pt_clust_8="13000.00000" pt_clust_9="62.10462"></scales>
<clustering>
<clus scale="   62.105">  2  9  1 -1</clus>
<clus scale="   81.643">  5  6 -1 -1</clus>
<clus scale="   91.110">  7  8 -1 -1</clus>
<clus scale="  103.381">  2  5  1 -1</clus>
<clus scale="   62.105">  2  5  1 -1</clus>
</clustering>
</event>
<event>
 9    1  0.1973774E-005  0.1241944E+03  0.7546771E-02  0.1237937E+00
          3   -1    0    0  502    0  0.00000000000E+00  0.00000000000E+00  0.16657757690E+03  0.16657757690E+03  0.00000000000E+00 0. -1.
         -4   -1    0    0    0  501 -0.00000000000E+00 -0.00000000000E+00 -0.53476424617E+03  0.53476424617E+03  0.00000000000E+00 0.  1.
        -24    2    1    2    0    0 -0.70943306916E+02 -0.45671147667E+02 -0.47640537616E+03  0.49138882207E+03  0.85919063624E+02 0.  0.
         23    2    1    2    0    0  0.84606541509E+02  0.11809329541E+02  0.11816992808E+03  0.17210681877E+03  0.91427009330E+02 0.  0.
         11    1    3    3    0    0 -0.62651073359E+02  0.10474806999E+02 -0.23957859715E+03  0.24785637532E+03  0.00000000000E+00 0. -1.
        -12    1    3    3    0    0 -0.82922335572E+01 -0.56145954665E+02 -0.23682677901E+03  0.24353244675E+03  0.00000000000E+00 0.  1.
        -13    1    4    4    0    0  0.32124996167E+02  0.47429704804E+02  0.33661208961E+02  0.66442977547E+02  0.00000000000E+00 0.  1.
         13    1    4    4    0    0  0.52481545341E+02 -0.35620375263E+02  0.84508719119E+02  0.10566384122E+03  0.00000000000E+00 0. -1.
         21    1    1    2  502  501 -0.13663234593E+02  0.33861818126E+02 -0.99512211951E+01  0.37846182233E+02  0.00000000000E+00 0. -1.
<scales pt_clust_5="13000.00000" pt_clust_6="13000.00000" pt_clust_7="13000.00000" pt_clust_8="13000.00000" pt_clust_9="36.51447"></scales>
<clustering>
<clus scale="   36.514">  1  9  2 -1</clus>
<clus scale="   85.919">  5  6 -1 -1</clus>
<clus scale="   91.427">  7  8 -1 -1</clus>
<clus scale="  120.198">  2  5  1 -1</clus>
<clus scale="   36.514">  1  5  2 -1</clus>
</clustering>
</event>
<event>
 9    1  0.1973774E-005  0.1357042E+03  0.7546771E-02  0.1222057E+00
         -2   -1    0    0    0  501 -0.00000000000E+00  0.00000000000E+00  0.28729441115E+02  0.28729441115E+02  0.00000000000E+00 0.  1.
          1   -1    0    0  502    0  0.00000000000E+00 -0.00000000000E+00 -0.11054194708E+04  0.11054194708E+04  0.00000000000E+00 0. -1.
        -24    2    1    2    0    0 -0.10770115457E+03  0.25925433067E+02 -0.25365825858E+03  0.28816492335E+03  0.80155125405E+02 0.  0.
         23    2    1    2    0    0  0.56995556534E+02 -0.69531540234E+02 -0.55608670945E+03  0.57078911907E+03  0.92112222143E+02 0.  0.
         13    1    3    3    0    0 -0.14318900978E+02 -0.15402890021E+02 -0.10950294015E+03  0.11150414274E+03  0.00000000000E+00 0. -1.
        -14    1    3    3    0    0 -0.93382253592E+02  0.41328323087E+02 -0.14415531843E+03  0.17666078061E+03  0.00000000000E+00 0.  1.
        -11    1    4    4    0    0  0.18165382025E+02  0.22420886063E+02 -0.11853485924E+03  0.12199668066E+03  0.00000000000E+00 0.  1.
         11    1    4    4    0    0  0.38830174509E+02 -0.91952426297E+02 -0.43755185021E+03  0.44879243841E+03  0.00000000000E+00 0. -1.
         21    1    1    2  502  501  0.50705598036E+02  0.43606107167E+02 -0.26694506163E+03  0.27519486947E+03  0.00000000000E+00 0. -1.
<scales pt_clust_5="13000.00000" pt_clust_6="13000.00000" pt_clust_7="13000.00000" pt_clust_8="13000.00000" pt_clust_9="66.87713"></scales>
<clustering>
<clus scale="   66.877">  2  9  1 -1</clus>
<clus scale="   80.155">  5  6 -1 -1</clus>
<clus scale="   92.112">  7  8 -1 -1</clus>
<clus scale="  127.890">  1  5  2 -1</clus>
<clus scale="   66.877">  2  5  1 -1</clus>
</clustering>
</event>
<event>
 9    1  0.1973774E-005  0.9977926E+02  0.7546771E-02  0.1286910E+00
         -2   -1    0    0    0  501 -0.00000000000E+00  0.00000000000E+00  0.18771803232E+03  0.18771803232E+03  0.00000000000E+00 0.  1.
          1   -1    0    0  502    0  0.00000000000E+00 -0.00000000000E+00 -0.23326116149E+03  0.23326116149E+03  0.00000000000E+00 0. -1.
         23    2    1    2    0    0  0.28514786696E+02 -0.24401994359E+02  0.14482768402E+03  0.17541332315E+03  0.91576336961E+02 0.  0.
        -24    2    1    2    0    0 -0.24645519006E+02  0.67413852754E+02 -0.16087497613E+03  0.19326868527E+03  0.79498412622E+02 0.  0.
         11    1    4    4    0    0 -0.44268079856E+01  0.38030221063E+02 -0.15167601315E+03  0.15643371538E+03  0.00000000000E+00 0. -1.
        -12    1    4    4    0    0 -0.20218711021E+02  0.29383631690E+02 -0.91989629839E+01  0.36834969888E+02  0.00000000000E+00 0.  1.
        -11    1    3    3    0    0  0.58926258459E+02  0.57756489911E+00  0.96728768676E+02  0.11326558262E+03  0.00000000000E+00 0.  1.
         11    1    3    3    0    0 -0.30411471763E+02 -0.24979559258E+02  0.48098915349E+02  0.62147740532E+02  0.00000000000E+00 0. -1.
         21    1    1    2  502  501 -0.38692676898E+01 -0.43011858395E+02 -0.29495837066E+02  0.52297185386E+02  0.00000000000E+00 0. -1.
<scales pt_clust_5="13000.00000" pt_clust_6="13000.00000" pt_clust_7="13000.00000" pt_clust_8="13000.00000" pt_clust_9="43.18554"></scales>
<clustering>
<clus scale="   43.186">  2  9  1 -1</clus>
<clus scale="   79.498">  5  6 -1 -1</clus>
<clus scale="   88.824">  2  5  1 -1</clus>
<clus scale="   91.576">  7  8 -1 -1</clus>
<clus scale="   43.186">  2  5  1 -1</clus>
</clustering>
</event>
<event>
 9    1  0.1973774E-005  0.9711236E+02  0.7546771E-02  0.1290397E+00
         -2   -1    0    0    0  501 -0.00000000000E+00  0.00000000000E+00  0.68933864831E+02  0.68933864831E+02  0.00000000000E+00 0.  1.
          1   -1    0    0  502    0  0.00000000000E+00 -0.00000000000E+00 -0.26754745640E+03  0.26754745640E+03  0.00000000000E+00 0. -1.
         23    2    1    2    0    0 -0.31123152227E+02  0.70168792326E+00  0.70744980555E+01  0.95683758717E+02  0.90200832530E+02 0.  0.
        -24    2    1    2    0    0  0.55245957518E+02 -0.84493659548E+01 -0.16497870498E+03  0.19284769027E+03  0.82757180589E+02 0.  0.
         13    1    4    4    0    0  0.44239332619E+02 -0.77792331184E+01 -0.17330423031E+03  0.17903069922E+03  0.00000000000E+00 0. -1.
        -14    1    4    4    0    0  0.11006624899E+02 -0.67013283638E+00  0.83255253325E+01  0.13816991053E+02  0.00000000000E+00 0.  1.
        -13    1    3    3    0    0  0.34281967124E+01 -0.36446989419E+02  0.22113921365E+02  0.42768692855E+02  0.00000000000E+00 0. -1.
         13    1    3    3    0    0 -0.34551348939E+02  0.37148677342E+02 -0.15039423309E+02  0.52915065863E+02  0.00000000000E+00 0.  1.
         21    1    1    2  502  501 -0.24122805291E+02  0.77476780316E+01 -0.40709384647E+02  0.47949872245E+02  0.00000000000E+00 0. -1.
<scales pt_clust_5="13000.00000" pt_clust_6="13000.00000" pt_clust_7="13000.00000" pt_clust_8="13000.00000" pt_clust_9="25.33646"></scales>
<clustering>
<clus scale="   25.336">  2  9  1 -1</clus>
<clus scale="   82.757">  5  6 -1 -1</clus>
<clus scale="   90.201">  7  8 -1 -1</clus>
<clus scale="   90.241">  2  5  1 -1</clus>
<clus scale="   25.336">  2  5  1 -1</clus>
</clustering>
</event>
<event>
 9    1  0.1973774E-005  0.1307497E+03  0.7546771E-02  0.1230156E+00
         -2   -1    0    0    0  501 -0.00000000000E+00  0.00000000000E+00  0.77221571267E+03  0.77221571267E+03  0.00000000000E+00 0.  1.
          1   -1    0    0  502    0  0.00000000000E+00 -0.00000000000E+00 -0.35757527006E+02  0.35757527006E+02  0.00000000000E+00 0. -1.
        -24    2    1    2    0    0  0.64778524963E+02 -0.72029263038E+02  0.59403909441E+03  0.60683887810E+03  0.77372516162E+02 0.  0.
         23    2    1    2    0    0 -0.45943423413E+02  0.62862326309E+02  0.12690468479E+03  0.17506732133E+03  0.92093961532E+02 0.  0.
         13    1    3    3    0    0  0.20307403633E+02 -0.30857369373E+01  0.27153873782E+02  0.34047691202E+02  0.00000000000E+00 0. -1.
        -14    1    3    3    0    0  0.44471121329E+02 -0.68943526100E+02  0.56688522063E+03  0.57279118690E+03  0.00000000000E+00 0.  1.
        -11    1    4    4    0    0 -0.42572447833E+02  0.14427878819E+02  0.67252543143E+01  0.45451139120E+02  0.00000000000E+00 0. -1.
         11    1    4    4    0    0 -0.33709755797E+01  0.48434447490E+02  0.12017943048E+03  0.12961618221E+03  0.00000000000E+00 0.  1.
         21    1    1    2  502  501 -0.18835101550E+02  0.91669367286E+01  0.15514406462E+02  0.26067040247E+02  0.00000000000E+00 0. -1.
<scales pt_clust_5="13000.00000" pt_clust_6="13000.00000" pt_clust_7="13000.00000" pt_clust_8="13000.00000" pt_clust_9="20.94741"></scales>
<clustering>
<clus scale="   20.947">  2  9  1 -1</clus>
<clus scale="   77.373">  5  6 -1 -1</clus>
<clus scale="   92.094">  7  8 -1 -1</clus>
<clus scale="  120.833">  1  5  2 -1</clus>
<clus scale="   20.947">  2  5  1 -1</clus>
</clustering>
</event>
<event>
 9    1  0.1973774E-005  0.1006024E+03  0.7546771E-02  0.1283820E+00
          1   -1    0    0  502    0  0.00000000000E+00  0.00000000000E+00  0.69653889041E+03  0.69653889041E+03  0.00000000000E+00 0. -1.
         -2   -1    0    0    0  501 -0.00000000000E+00 -0.00000000000E+00 -0.12001699013E+03  0.12001699013E+03  0.00000000000E+00 0.  1.
         23    2    1    2    0    0  0.38467471214E+02 -0.16973474677E+02 -0.88183175318E+02  0.13364718699E+03  0.91200071256E+02 0.  0.
        -24    2    1    2    0    0 -0.25207898873E+02  0.62849999677E+02  0.39233506669E+03  0.40638402276E+03  0.81459246072E+02 0.  0.
         13    1    4    4    0    0 -0.42476249652E+02  0.22999082463E+01  0.14060619792E+03  0.14690004852E+03  0.00000000000E+00 0. -1.
        -14    1    4    4    0    0  0.17268350779E+02  0.60550091431E+02  0.25172886878E+03  0.25948397424E+03  0.00000000000E+00 0.  1.
        -13    1    3    3    0    0  0.22175301561E+02 -0.43698142709E+02 -0.10806954960E+02  0.50180294450E+02  0.00000000000E+00 0. -1.
         13    1    3    3    0    0  0.16292169653E+02  0.26724668032E+02 -0.77376220359E+02  0.83466892541E+02  0.00000000000E+00 0.  1.
         21    1    1    2  502  501 -0.13259572341E+02 -0.45876525000E+02  0.27237000891E+03  0.27652467079E+03  0.00000000000E+00 0. -1.
<scales pt_clust_5="13000.00000" pt_clust_6="13000.00000" pt_clust_7="13000.00000" pt_clust_8="13000.00000" pt_clust_9="47.75429"></scales>
<clustering>
<clus scale="   47.754">  1  9  2 -1</clus>
<clus scale="   81.459">  5  6 -1 -1</clus>
<clus scale="   91.200">  7  8 -1 -1</clus>
<clus scale="   91.864">  1  5  2 -1</clus>
<clus scale="   47.754">  1  5  2 -1</clus>
</clustering>
</event>
<event>
 9    1  0.1973774E-005  0.1080689E+03  0.7546771E-02  0.1269512E+00
         -2   -1    0    0    0  501 -0.00000000000E+00  0.00000000000E+00  0.23047375022E+03  0.23047375022E+03  0.00000000000E+00 0.  1.
          1   -1    0    0  502    0  0.00000000000E+00 -0.00000000000E+00 -0.10796107711E+03  0.10796107711E+03  0.00000000000E+00 0. -1.
        -24    2    1    2    0    0  0.10467981043E+02 -0.22020582729E+02  0.14420699894E+03  0.16636024335E+03  0.79281696092E+02 0.  0.
         23    2    1    2    0    0 -0.30032918380E+02  0.56756590218E+02 -0.50334719466E+02  0.12298640682E+03  0.92026004796E+02 0.  0.
         13    1    3    3    0    0  0.18021889821E+02 -0.31297507791E+02  0.14911721831E+03  0.15342837842E+03  0.00000000000E+00 0. -1.
        -14    1    3    3    0    0 -0.75539087777E+01  0.92769250626E+01 -0.49102193741E+01  0.12931864937E+02  0.00000000000E+00 0.  1.
        -13    1    4    4    0    0  0.10375108668E+02  0.45426448549E+02 -0.63717794703E+02  0.78937712593E+02  0.00000000000E+00 0. -1.
         13    1    4    4    0    0 -0.40408027048E+02  0.11330141669E+02  0.13383075237E+02  0.44048694225E+02  0.00000000000E+00 0.  1.
         21    1    1    2  502  501  0.19564937337E+02 -0.34736007489E+02  0.28640393635E+02  0.49088177160E+02  0.00000000000E+00 0. -1.
<scales pt_clust_5="13000.00000" pt_clust_6="13000.00000" pt_clust_7="13000.00000" pt_clust_8="13000.00000" pt_clust_9="39.86699"></scales>
<clustering>
<clus scale="   39.867">  1  9  2 -1</clus>
<clus scale="   79.282">  5  6 -1 -1</clus>
<clus scale="   92.026">  7  8 -1 -1</clus>
<clus scale="   97.446">  1  5  2 -1</clus>
<clus scale="  108.069">  2  5  1 -1</clus>
</clustering>
</event>
<event>
 9    1  0.1973774E-005  0.9788266E+02  0.7546771E-02  0.1291624E+00
         -2   -1    0    0    0  501 -0.00000000000E+00  0.00000000000E+00  0.22172365611E+03  0.22172365611E+03  0.00000000000E+00 0.  1.
          1   -1    0    0  502    0  0.00000000000E+00 -0.00000000000E+00 -0.21961973698E+03  0.21961973698E+03  0.00000000000E+00 0. -1.
        -24    2    1    2    0    0 -0.26343137084E+02 -0.15129411047E+02  0.16500758230E+03  0.18563653295E+03  0.79439034479E+02 0.  0.
         23    2    1    2    0    0  0.48376832231E+02  0.16439880523E+02 -0.15212748946E+02  0.10637566046E+03  0.92053059917E+02 0.  0.
         13    1    3    3    0    0  0.47905082235E+01 -0.28719538073E+02  0.16862993480E+02  0.33647011536E+02  0.00000000000E+00 0. -1.
        -14    1    3    3    0    0 -0.31133645307E+02  0.13590127027E+02  0.14814458882E+03  0.15198952142E+03  0.00000000000E+00 0.  1.
        -13    1    4    4    0    0 -0.23386061555E+02 -0.14074757304E+02 -0.34338678275E+01  0.27509963949E+02  0.00000000000E+00 0.  1.
         13    1    4    4    0    0  0.71762893786E+02  0.30514637828E+02 -0.11778881119E+02  0.78865696514E+02  0.00000000000E+00 0. -1.
         21    1    1    2  502  501 -0.22033695147E+02 -0.13104694764E+01 -0.14769091423E+03  0.14933119968E+03  0.00000000000E+00 0. -1.
<scales pt_clust_5="13000.00000" pt_clust_6="13000.00000" pt_clust_7="13000.00000" pt_clust_8="13000.00000" pt_clust_9="22.07263"></scales>
<clustering>
<clus scale="   22.073">  2  9  1 -1</clus>
<clus scale="   79.439">  5  6 -1 -1</clus>
<clus scale="   86.127">  1  5  2 -1</clus>
<clus scale="   92.053">  7  8 -1 -1</clus>
<clus scale="   22.073">  2  5  1 -1</clus>
</clustering>
</event>
<event>
 9    1  0.1973774E-005  0.1718709E+03  0.7546771E-02  0.1178259E+00
          1   -1    0    0  502    0  0.00000000000E+00  0.00000000000E+00  0.27598922662E+03  0.27598922662E+03  0.00000000000E+00 0. -1.
         -2   -1    0    0    0  501 -0.00000000000E+00 -0.00000000000E+00 -0.23779616275E+03  0.23779616275E+03  0.00000000000E+00 0.  1.
         23    2    1    2    0    0  0.13156139223E+03 -0.10549336018E+03 -0.11655329328E+03  0.22490519298E+03  0.92522573915E+02 0.  0.
        -24    2    1    2    0    0 -0.78310745747E+02  0.81005671195E+02  0.13408053347E+02  0.13587106470E+03  0.74744087811E+02 0.  0.
         13    1    4    4    0    0 -0.63975845996E+02  0.36931023574E+02  0.38357398121E+02  0.83235205074E+02  0.00000000000E+00 0. -1.
        -14    1    4    4    0    0 -0.14334899750E+02  0.44074647621E+02 -0.24949344774E+02  0.52635859625E+02  0.00000000000E+00 0.  1.
        -13    1    3    3    0    0  0.60132410121E+02 -0.94483665288E+02 -0.38252029333E+02  0.11834816222E+03  0.00000000000E+00 0. -1.
         13    1    3    3    0    0  0.71428982113E+02 -0.11009694894E+02 -0.78301263946E+02  0.10655703075E+03  0.00000000000E+00 0.  1.
         21    1    1    2  502  501 -0.53250646488E+02  0.24487688988E+02  0.14133830379E+03  0.15300913170E+03  0.00000000000E+00 0. -1.
<scales pt_clust_5="13000.00000" pt_clust_6="13000.00000" pt_clust_7="13000.00000" pt_clust_8="13000.00000" pt_clust_9="58.61125"></scales>
<clustering>
<clus scale="   58.611">  1  9  2 -1</clus>
<clus scale="   74.744">  5  6 -1 -1</clus>
<clus scale="   92.523">  7  8 -1 -1</clus>
<clus scale="  162.990">  1  5  2 -1</clus>
<clus scale="   58.611">  1  5  2 -1</clus>
</clustering>
</event>
<event>
 9    1  0.1973774E-005  0.1901458E+03  0.7546771E-02  0.1159440E+00
         -2   -1    0    0    0  501 -0.00000000000E+00  0.00000000000E+00  0.69624315187E+03  0.69624315187E+03  0.00000000000E+00 0.  1.
          1   -1    0    0  502    0  0.00000000000E+00 -0.00000000000E+00 -0.19821825216E+03  0.19821825216E+03  0.00000000000E+00 0. -1.
        -24    2    1    2    0    0  0.17229044536E+03  0.99969756295E+01  0.59564858474E+03  0.62531287711E+03  0.80218580719E+02 0.  0.
         23    2    1    2    0    0 -0.13661736995E+03  0.44296592393E+00  0.64437055026E+00  0.16408582452E+03  0.90880364241E+02 0.  0.
         11    1    3    3    0    0  0.12933756965E+02  0.16948624722E+02  0.25328634115E+02  0.33107063526E+02  0.00000000000E+00 0. -1.
        -12    1    3    3    0    0  0.15935668840E+03 -0.69516490927E+01  0.57031995063E+03  0.59220581358E+03  0.00000000000E+00 0.  1.
        -11    1    4    4    0    0 -0.72452707860E+02 -0.24450054273E+02  0.38419911559E+02  0.85576221197E+02  0.00000000000E+00 0.  1.
         11    1    4    4    0    0 -0.64164662088E+02  0.24893020197E+02 -0.37775541008E+02  0.78509603323E+02  0.00000000000E+00 0. -1.
         21    1    1    2  502  501 -0.35673075413E+02 -0.10439941553E+02 -0.98268055576E+02  0.10506270240E+03  0.00000000000E+00 0.  1.
<scales pt_clust_5="13000.00000" pt_clust_6="13000.00000" pt_clust_7="13000.00000" pt_clust_8="13000.00000" pt_clust_9="37.16935"></scales>
<clustering>
<clus scale="   37.169">  2  9  1 -1</clus>
<clus scale="   80.219">  5  6 -1 -1</clus>
<clus scale="   90.880">  7  8 -1 -1</clus>
<clus scale="  185.287">  1  5  2 -1</clus>
<clus scale="   37.169">  2  5  1 -1</clus>
</clustering>
</event>
<event>
 9    1  0.1973774E-005  0.1070010E+03  0.7546771E-02  0.1270289E+00
          1   -1    0    0  502    0  0.00000000000E+00  0.00000000000E+00  0.33242076004E+03  0.33242076004E+03  0.00000000000E+00 0. -1.
         -2   -1    0    0    0  501 -0.00000000000E+00 -0.00000000000E+00 -0.68507459871E+02  0.68507459871E+02  0.00000000000E+00 0.  1.
         23    2    1    2    0    0 -0.30796716767E+02  0.50655004164E+02  0.87221667006E+01  0.10862064728E+03  0.90598022124E+02 0.  0.
        -24    2    1    2    0    0 -0.96525798084E+01 -0.59454102871E+02  0.18965053696E+03  0.21478893280E+03  0.80864063940E+02 0.  0.
         13    1    4    4    0    0  0.25858261851E+02  0.31348361956E+01  0.30390103658E+02  0.40025433218E+02  0.00000000000E+00 0. -1.
        -14    1    4    4    0    0 -0.35510841660E+02 -0.62588939067E+02  0.15926043330E+03  0.17476349958E+03  0.00000000000E+00 0.  1.
        -13    1    3    3    0    0 -0.61874557851E+01  0.45027759995E+02 -0.35519219666E+02  0.57683608980E+02  0.00000000000E+00 0.  1.
         13    1    3    3    0    0 -0.24609260982E+02  0.56272441693E+01  0.44241386366E+02  0.50937038299E+02  0.00000000000E+00 0. -1.
         21    1    1    2  502  501  0.40449296576E+02  0.87990987070E+01  0.65540596505E+02  0.77518639834E+02  0.00000000000E+00 0. -1.
<scales pt_clust_5="13000.00000" pt_clust_6="13000.00000" pt_clust_7="13000.00000" pt_clust_8="13000.00000" pt_clust_9="41.39529"></scales>
<clustering>
<clus scale="   41.395">  1  9  2 -1</clus>
<clus scale="   80.864">  5  6 -1 -1</clus>
<clus scale="   90.598">  7  8 -1 -1</clus>
<clus scale="   98.895">  1  5  2 -1</clus>
<clus scale="   41.395">  1  5  2 -1</clus>
</clustering>
</event>
<event>
 9    1  0.1973774E-005  0.9518573E+02  0.7546771E-02  0.1297876E+00
         -2   -1    0    0    0  501 -0.00000000000E+00  0.00000000000E+00  0.22582568802E+03  0.22582568802E+03  0.00000000000E+00 0.  1.
          1   -1    0    0  502    0  0.00000000000E+00 -0.00000000000E+00 -0.12884038652E+03  0.12884038652E+03  0.00000000000E+00 0. -1.
         23    2    1    2    0    0 -0.17601911964E+02 -0.33375685219E+01  0.15675378737E+03  0.18224297699E+03  0.91212861690E+02 0.  0.
        -24    2    1    2    0    0 -0.28506573957E+02 -0.14406479009E+02 -0.82099691143E+02  0.11820569789E+03  0.78816599348E+02 0.  0.
         11    1    4    4    0    0 -0.21554377735E+02  0.28069840629E+01 -0.93784246730E+02  0.96270220181E+02  0.00000000000E+00 0. -1.
        -12    1    4    4    0    0 -0.69521962218E+01 -0.17213463072E+02  0.11684555587E+02  0.21935477713E+02  0.00000000000E+00 0.  1.
        -13    1    3    3    0    0 -0.28245109423E+02  0.27656408348E+02  0.25691074292E+02  0.47145460304E+02  0.00000000000E+00 0.  1.
         13    1    3    3    0    0  0.10643197458E+02 -0.30993976870E+02  0.13106271308E+03  0.13509751668E+03  0.00000000000E+00 0. -1.
         21    1    1    2  502  501  0.46108485921E+02  0.17744047531E+02  0.22331205270E+02  0.54217399657E+02  0.00000000000E+00 0.  1.
<scales pt_clust_5="13000.00000" pt_clust_6="13000.00000" pt_clust_7="13000.00000" pt_clust_8="13000.00000" pt_clust_9="49.40490"></scales>
<clustering>
<clus scale="   49.405">  1  9  2 -1</clus>
<clus scale="   78.817">  5  6 -1 -1</clus>
<clus scale="   83.382">  2  5  1 -1</clus>
<clus scale="   91.213">  7  8 -1 -1</clus>
<clus scale="   83.382">  2  5  1 -1</clus>
</clustering>
</event>
<event>
 9    1  0.1973774E-005  0.1812609E+03  0.7546771E-02  0.1168056E+00
          1   -1    0    0  502    0  0.00000000000E+00  0.00000000000E+00  0.37861474017E+03  0.37861474017E+03  0.00000000000E+00 0. -1.
         -2   -1    0    0    0  501 -0.00000000000E+00 -0.00000000000E+00 -0.12477752810E+03  0.12477752810E+03  0.00000000000E+00 0.  1.
         23    2    1    2    0    0 -0.12201111546E+03 -0.68303778145E+02  0.43206772273E+02  0.17348665214E+03  0.93159405850E+02 0.  0.
        -24    2    1    2    0    0  0.15824781717E+03  0.10135039211E+03  0.17608601916E+03  0.26991816542E+03  0.80840931842E+02 0.  0.
         11    1    4    4    0    0  0.58401597175E+02  0.20242620193E+02  0.10783995719E+03  0.12429789456E+03  0.00000000000E+00 0. -1.
        -12    1    4    4    0    0  0.99846219990E+02  0.81107771915E+02  0.68246061974E+02  0.14562027086E+03  0.00000000000E+00 0.  1.
        -11    1    3    3    0    0 -0.45660182054E+02  0.19841960487E+02  0.24117803585E+02  0.55319292032E+02  0.00000000000E+00 0.  1.
         11    1    3    3    0    0 -0.76350933402E+02 -0.88145738631E+02  0.19088968687E+02  0.11816736011E+03  0.00000000000E+00 0. -1.
         21    1    1    2  502  501 -0.36236701709E+02 -0.33046613963E+02  0.34544420633E+02  0.59987450705E+02  0.00000000000E+00 0.  1.
<scales pt_clust_5="13000.00000" pt_clust_6="13000.00000" pt_clust_7="13000.00000" pt_clust_8="13000.00000" pt_clust_9="49.04261"></scales>
<clustering>
<clus scale="   49.043">  1  9  2 -1</clus>
<clus scale="   80.841">  5  6 -1 -1</clus>
<clus scale="   93.159">  7  8 -1 -1</clus>
<clus scale="  175.249">  1  5  2 -1</clus>
<clus scale="   49.043">  1  5  2 -1</clus>
</clustering>
</event>
<event>
 9    1  0.1973774E-005  0.9340808E+02  0.7546771E-02  0.1299911E+00
         -2   -1    0    0    0  501 -0.00000000000E+00  0.00000000000E+00  0.22127578717E+02  0.22127578717E+02  0.00000000000E+00 0.  1.
          1   -1    0    0  502    0  0.00000000000E+00 -0.00000000000E+00 -0.68487669905E+03  0.68487669905E+03  0.00000000000E+00 0. -1.
         23    2    1    2    0    0  0.20045120363E+01  0.31099156263E+02 -0.13310240221E+03  0.16398186975E+03  0.90568363920E+02 0.  0.
        -24    2    1    2    0    0 -0.14578139825E+02 -0.34405415427E+01 -0.29822695209E+03  0.30961674572E+03  0.81846531929E+02 0.  0.
         11    1    4    4    0    0 -0.34620271808E+01 -0.39088944702E+02 -0.91740382425E+02  0.99780904975E+02  0.00000000000E+00 0. -1.
        -12    1    4    4    0    0 -0.11116112645E+02  0.35648403159E+02 -0.20648656967E+03  0.20983584075E+03  0.00000000000E+00 0.  1.
        -13    1    3    3    0    0  0.26625156807E+02  0.25764755115E+02 -0.10066559779E+02  0.38393452657E+02  0.00000000000E+00 0. -1.
         13    1    3    3    0    0 -0.24620644771E+02  0.53344011478E+01 -0.12303584243E+03  0.12558841709E+03  0.00000000000E+00 0.  1.
         21    1    1    2  502  501  0.12573627789E+02 -0.27658614720E+02 -0.23141976602E+03  0.23340566229E+03  0.00000000000E+00 0. -1.
<scales pt_clust_5="13000.00000" pt_clust_6="13000.00000" pt_clust_7="13000.00000" pt_clust_8="13000.00000" pt_clust_9="30.38248"></scales>
<clustering>
<clus scale="   30.382">  2  9  1 -1</clus>
<clus scale="   81.847">  5  6 -1 -1</clus>
<clus scale="   84.978">  2  5  1 -1</clus>
<clus scale="   90.568">  7  8 -1 -1</clus>
<clus scale="   30.382">  2  5  1 -1</clus>
</clustering>
</event>
<event>
 9    1  0.1973774E-005  0.9430876E+02  0.7546771E-02  0.1298382E+00
         -4   -1    0    0    0  501 -0.00000000000E+00  0.00000000000E+00  0.10354661009E+03  0.10354661009E+03  0.00000000000E+00 0.  1.
          3   -1    0    0  502    0  0.00000000000E+00 -0.00000000000E+00 -0.20649214598E+03  0.20649214598E+03  0.00000000000E+00 0. -1.
         23    2    1    2    0    0 -0.11583057330E+02  0.23694122225E+02  0.49280384740E+02  0.10637250075E+03  0.90503999638E+02 0.  0.
        -24    2    1    2    0    0 -0.21618437274E+02 -0.19560071427E+02 -0.14642853318E+03  0.16970982263E+03  0.80685533651E+02 0.  0.
         13    1    4    4    0    0 -0.51218863172E+02 -0.20130800466E+02 -0.81384520527E+02  0.98244904465E+02  0.00000000000E+00 0. -1.
        -14    1    4    4    0    0  0.29600425898E+02  0.57072903922E+00 -0.65044012658E+02  0.71464918160E+02  0.00000000000E+00 0.  1.
        -11    1    3    3    0    0 -0.68328752300E+01  0.52594031219E+02  0.49843921713E+01  0.53269733143E+02  0.00000000000E+00 0. -1.
         11    1    3    3    0    0 -0.47501820999E+01 -0.28899908994E+02  0.44295992569E+02  0.53102767607E+02  0.00000000000E+00 0.  1.
         21    1    1    2  502  501  0.33201494604E+02 -0.41340507978E+01 -0.57973874487E+01  0.33956432692E+02  0.00000000000E+00 0.  1.
<scales pt_clust_5="13000.00000" pt_clust_6="13000.00000" pt_clust_7="13000.00000" pt_clust_8="13000.00000" pt_clust_9="33.45788"></scales>
<clustering>
<clus scale="   33.458">  1  9  2 -1</clus>
<clus scale="   80.686">  5  6 -1 -1</clus>
<clus scale="   84.931">  2  5  1 -1</clus>
<clus scale="   90.504">  7  8 -1 -1</clus>
<clus scale="   84.931">  2  5  1 -1</clus>
</clustering>
</event>
<event>
 9    1  0.1973774E-005  0.1309921E+03  0.7546771E-02  0.1226921E+00
          1   -1    0    0  502    0  0.00000000000E+00  0.00000000000E+00  0.27438414186E+03  0.27438414186E+03  0.00000000000E+00 0. -1.
         -2   -1    0    0    0  501 -0.00000000000E+00 -0.00000000000E+00 -0.22525131228E+03  0.22525131228E+03  0.00000000000E+00 0.  1.
         23    2    1    2    0    0 -0.93007410907E+02  0.74719910800E+02 -0.14374272302E+03  0.20658469793E+03  0.88214644176E+02 0.  0.
        -24    2    1    2    0    0  0.48176249451E+02 -0.82172126722E+02  0.20909482371E+03  0.24479691371E+03  0.84449240583E+02 0.  0.
         13    1    4    4    0    0  0.49449250946E+02 -0.80233939649E+01  0.11137865291E+03  0.12212619536E+03  0.00000000000E+00 0. -1.
        -14    1    4    4    0    0 -0.12730014957E+01 -0.74148732757E+02  0.97716170806E+02  0.12267071834E+03  0.00000000000E+00 0.  1.
        -13    1    3    3    0    0 -0.32899757042E+02 -0.45564391997E+01 -0.18182199145E+01  0.33263509666E+02  0.00000000000E+00 0. -1.
         13    1    3    3    0    0 -0.60107653865E+02  0.79276350000E+02 -0.14192450310E+03  0.17332118827E+03  0.00000000000E+00 0.  1.
         21    1    1    2  502  501  0.44831161457E+02  0.74522159214E+01 -0.16219271118E+02  0.48253842493E+02  0.00000000000E+00 0.  1.
<scales pt_clust_5="13000.00000" pt_clust_6="13000.00000" pt_clust_7="13000.00000" pt_clust_8="13000.00000" pt_clust_9="45.44633"></scales>
<clustering>
<clus scale="   45.446">  2  9  1 -1</clus>
<clus scale="   84.449">  5  6 -1 -1</clus>
<clus scale="   88.215">  7  8 -1 -1</clus>
<clus scale="  128.486">  1  5  2 -1</clus>
<clus scale="  128.486">  1  5  2 -1</clus>
</clustering>
</event>
<event>
 9    1  0.1973774E-005  0.1349895E+03  0.7546771E-02  0.1223011E+00
          1   -1    0    0  502    0  0.00000000000E+00  0.00000000000E+00  0.34080645056E+03  0.34080645056E+03  0.00000000000E+00 0. -1.
         -2   -1    0    0    0  501 -0.00000000000E+00 -0.00000000000E+00 -0.72594994186E+02  0.72594994186E+02  0.00000000000E+00 0.  1.
        -24    2    1    2    0    0 -0.67632909625E+02 -0.94584811413E+01  0.35624009878E+02  0.12889183355E+03  0.10334583371E+03 0.  0.
         23    2    1    2    0    0  0.91719693199E+02  0.23011018610E+02  0.21165531815E+03  0.24983976246E+03  0.93166110274E+02 0.  0.
         13    1    3    3    0    0 -0.36310998895E+02  0.23691158345E+02  0.62416790296E+02  0.75997469270E+02  0.00000000000E+00 0. -1.
        -14    1    3    3    0    0 -0.31321910730E+02 -0.33149639487E+02 -0.26792780418E+02  0.52894364278E+02  0.00000000000E+00 0.  1.
        -13    1    4    4    0    0  0.44623661983E+02 -0.30589333213E+02  0.52337972497E+02  0.75274443739E+02  0.00000000000E+00 0.  1.
         13    1    4    4    0    0  0.47096031217E+02  0.53600351823E+02  0.15931734565E+03  0.17456531872E+03  0.00000000000E+00 0. -1.
         21    1    1    2  502  501 -0.24086783575E+02 -0.13552537469E+02  0.20932128345E+02  0.34669848743E+02  0.00000000000E+00 0.  1.
<scales pt_clust_5="13000.00000" pt_clust_6="13000.00000" pt_clust_7="13000.00000" pt_clust_8="13000.00000" pt_clust_9="27.63774"></scales>
<clustering>
<clus scale="   27.638">  2  9  1 -1</clus>
<clus scale="   93.166">  7  8 -1 -1</clus>
<clus scale="  103.346">  5  6 -1 -1</clus>
<clus scale="  127.365">  1  7  2 -1</clus>
<clus scale="  127.365">  1  5  2 -1</clus>
</clustering>
</event>
<event>
 9    1  0.1973774E-005  0.9026549E+02  0.7546771E-02  0.1309287E+00
          1   -1    0    0  502    0  0.00000000000E+00  0.00000000000E+00  0.79374403985E+02  0.79374403985E+02  0.00000000000E+00 0. -1.
         -2   -1    0    0    0  501 -0.00000000000E+00 -0.00000000000E+00 -0.28261828362E+03  0.28261828362E+03  0.00000000000E+00 0.  1.
        -24    2    1    2    0    0 -0.64840305822E+01  0.64588624421E+01 -0.21342295188E+03  0.22783254860E+03  0.79212084014E+02 0.  0.
         23    2    1    2    0    0 -0.17960960190E+02  0.18532616057E+02 -0.91067428500E+01  0.94234279776E+02  0.90172683062E+02 0.  0.
         11    1    3    3    0    0  0.27820523305E+02  0.22096588429E+02 -0.58974673526E+02  0.68849494222E+02  0.00000000000E+00 0. -1.
        -12    1    3    3    0    0 -0.34304553887E+02 -0.15637725987E+02 -0.15444827836E+03  0.15898305438E+03  0.00000000000E+00 0.  1.
        -11    1    4    4    0    0 -0.54191213592E+02  0.49748860947E+01  0.31315405856E+00  0.54419988861E+02  0.00000000000E+00 0. -1.
         11    1    4    4    0    0  0.36230253402E+02  0.13557729962E+02 -0.94198969086E+01  0.39814290915E+02  0.00000000000E+00 0.  1.
         21    1    1    2  502  501  0.24444990772E+02 -0.24991478499E+02  0.19285815097E+02  0.39925859232E+02  0.00000000000E+00 0.  1.
<scales pt_clust_5="13000.00000" pt_clust_6="13000.00000" pt_clust_7="13000.00000" pt_clust_8="13000.00000" pt_clust_9="34.95900"></scales>
<clustering>
<clus scale="   34.959">  1  9  2 -1</clus>
<clus scale="   79.212">  5  6 -1 -1</clus>
<clus scale="   79.318">  2  5  1 -1</clus>
<clus scale="   90.173">  7  8 -1 -1</clus>
<clus scale="   34.959">  1  5  2 -1</clus>
</clustering>
</event>
<event>
 9    1  0.1973774E-005  0.9062580E+02  0.7546771E-02  0.1306682E+00
         -2   -1    0    0    0  501 -0.00000000000E+00  0.00000000000E+00  0.66146013325E+02  0.66146013325E+02  0.00000000000E+00 0.  1.
          1   -1    0    0  502    0  0.00000000000E+00 -0.00000000000E+00 -0.17627116508E+03  0.17627116508E+03  0.00000000000E+00 0. -1.
        -24    2    1    2    0    0  0.10349857456E+02  0.12373176006E+01  0.50492947062E+00  0.81742599138E+02  0.81073713717E+02 0.  0.
         23    2    1    2    0    0 -0.13697526942E+02 -0.23781117327E+02 -0.88698750210E+02  0.12904527202E+03  0.89621705827E+02 0.  0.
         11    1    3    3    0    0  0.23657986106E+02 -0.15219298500E+02 -0.32218786766E+02  0.42771223668E+02  0.00000000000E+00 0. -1.
        -12    1    3    3    0    0 -0.13308128650E+02  0.16456616100E+02  0.32723716236E+02  0.38971375469E+02  0.00000000000E+00 0.  1.
        -13    1    4    4    0    0 -0.18161626184E+02  0.23812754756E+02 -0.72715547548E+02  0.78641228436E+02  0.00000000000E+00 0.  1.
         13    1    4    4    0    0  0.44640992417E+01 -0.47593872084E+02 -0.15983202662E+02  0.50404043581E+02  0.00000000000E+00 0. -1.
         21    1    1    2  502  501  0.33476694861E+01  0.22543799727E+02 -0.21931331016E+02  0.31629307252E+02  0.00000000000E+00 0.  1.
<scales pt_clust_5="13000.00000" pt_clust_6="13000.00000" pt_clust_7="13000.00000" pt_clust_8="13000.00000" pt_clust_9="22.79100"></scales>
<clustering>
<clus scale="   22.791">  2  9  1 -1</clus>
<clus scale="   81.074">  5  6 -1 -1</clus>
<clus scale="   82.182">  1  5  2 -1</clus>
<clus scale="   89.622">  7  8 -1 -1</clus>
<clus scale="   22.791">  2  5  1 -1</clus>
</clustering>
</event>
<event>
 9    1  0.1973774E-005  0.1179146E+03  0.7546771E-02  0.1249509E+00
         -2   -1    0    0    0  501 -0.00000000000E+00  0.00000000000E+00  0.65070365063E+02  0.65070365063E+02  0.00000000000E+00 0.  1.
          1   -1    0    0  502    0  0.00000000000E+00 -0.00000000000E+00 -0.49215382228E+03  0.49215382228E+03  0.00000000000E+00 0. -1.
         23    2    1    2    0    0 -0.36985215679E+02 -0.57140252857E+02 -0.28967306680E+02  0.11737060768E+03  0.91125408173E+02 0.  0.
        -24    2    1    2    0    0  0.19447711828E+02  0.10068495874E+03 -0.22595704215E+03  0.26140901110E+03  0.82233884587E+02 0.  0.
         11    1    4    4    0    0  0.30851909925E+02  0.67397375041E+02 -0.21014162978E+03  0.22283121657E+03  0.00000000000E+00 0. -1.
        -12    1    4    4    0    0 -0.11404198097E+02  0.33287583695E+02 -0.15815412366E+02  0.38577794530E+02  0.00000000000E+00 0.  1.
        -11    1    3    3    0    0 -0.64666141307E+02 -0.54690693579E+02 -0.29187476186E+02  0.89580637204E+02  0.00000000000E+00 0.  1.
         11    1    3    3    0    0  0.27680925628E+02 -0.24495592775E+01  0.22016950694E+00  0.27789970473E+02  0.00000000000E+00 0. -1.
         21    1    1    2  502  501  0.17537503851E+02 -0.43544705879E+02 -0.17215910839E+03  0.17844456857E+03  0.00000000000E+00 0.  1.
<scales pt_clust_5="13000.00000" pt_clust_6="13000.00000" pt_clust_7="13000.00000" pt_clust_8="13000.00000" pt_clust_9="46.94364"></scales>
<clustering>
<clus scale="   46.944">  2  9  1 -1</clus>
<clus scale="   82.234">  5  6 -1 -1</clus>
<clus scale="   91.125">  7  8 -1 -1</clus>
<clus scale="  111.186">  2  5  1 -1</clus>
<clus scale="   46.944">  2  5  1 -1</clus>
</clustering>
</event>
<event>
 9    1  0.3971282E-005  0.1447469E+03  0.7546771E-02  0.1210055E+00
          1   -1    0    0  502    0  0.00000000000E+00  0.00000000000E+00  0.47061420080E+03  0.47061420080E+03  0.00000000000E+00 0. -1.
         -2   -1    0    0    0  501 -0.00000000000E+00 -0.00000000000E+00 -0.20323176087E+03  0.20323176087E+03  0.00000000000E+00 0.  1.
         23    2    1    2    0    0  0.10260965886E+03 -0.42784037658E+02 -0.15710006748E+03  0.21482490359E+03  0.95446802097E+02 0.  0.
        -24    2    1    2    0    0 -0.65637068827E+02  0.39279978097E+02  0.39814506139E+03  0.41349181572E+03  0.81270229931E+02 0.  0.
         11    1    4    4    0    0 -0.61214651165E+02  0.36991218138E+02  0.40128220719E+03  0.40760641990E+03  0.00000000000E+00 0. -1.
        -12    1    4    4    0    0 -0.44224176618E+01  0.22887599596E+01 -0.31371458019E+01  0.58853958159E+01  0.00000000000E+00 0.  1.
        -13    1    3    3    0    0  0.90469021548E+02 -0.17470732575E+01 -0.14399981308E+03  0.17006952194E+03  0.00000000000E+00 0.  1.
         13    1    3    3    0    0  0.12140637308E+02 -0.41036964401E+02 -0.13100254402E+02  0.44755381653E+02  0.00000000000E+00 0. -1.
         21    1    1    2  502  501 -0.36972590030E+02  0.35040595611E+01  0.26337446028E+02  0.45529242363E+02  0.00000000000E+00 0. -1.
<scales pt_clust_5="13000.00000" pt_clust_6="13000.00000" pt_clust_7="13000.00000" pt_clust_8="13000.00000" pt_clust_9="37.13827"></scales>
<clustering>
<clus scale="   37.138">  1  9  2 -1</clus>
<clus scale="   81.270">  5  6 -1 -1</clus>
<clus scale="   95.447">  7  8 -1 -1</clus>
<clus scale="  135.818">  1  5  2 -1</clus>
<clus scale="   37.138">  1  5  2 -1</clus>
</clustering>
</event>
<event>
 9    1  0.1973774E-005  0.1232671E+03  0.7546771E-02  0.1239738E+00
          3   -1    0    0  502    0  0.00000000000E+00  0.00000000000E+00  0.16155278797E+03  0.16155278797E+03  0.00000000000E+00 0. -1.
         -4   -1    0    0    0  501 -0.00000000000E+00 -0.00000000000E+00 -0.11552248748E+03  0.11552248748E+03  0.00000000000E+00 0.  1.
         23    2    1    2    0    0 -0.72073203687E+02 -0.60947474334E+02  0.25789984587E+02  0.13381070748E+03  0.91274535413E+02 0.  0.
        -24    2    1    2    0    0  0.42767370349E+02  0.60227180569E+02  0.18243948806E+02  0.11388198516E+03  0.84734312003E+02 0.  0.
         13    1    4    4    0    0  0.10214987498E+02  0.59901368777E+02  0.41751865871E+02  0.73727459299E+02  0.00000000000E+00 0. -1.
        -14    1    4    4    0    0  0.32552382851E+02  0.32581179267E+00 -0.23507917065E+02  0.40154525863E+02  0.00000000000E+00 0.  1.
        -11    1    3    3    0    0 -0.54293743400E+02 -0.15213728492E+02 -0.26327945873E+02  0.62228842516E+02  0.00000000000E+00 0.  1.
         11    1    3    3    0    0 -0.17779460287E+02 -0.45733745842E+02  0.52117930460E+02  0.71581864968E+02  0.00000000000E+00 0. -1.
         21    1    1    2  502  501  0.29305833338E+02  0.72029376467E+00  0.19963670908E+01  0.29382582805E+02  0.00000000000E+00 0.  1.
<scales pt_clust_5="13000.00000" pt_clust_6="13000.00000" pt_clust_7="13000.00000" pt_clust_8="13000.00000" pt_clust_9="29.31468"></scales>
<clustering>
<clus scale="   29.315">  2  9  1 -1</clus>
<clus scale="   84.734">  5  6 -1 -1</clus>
<clus scale="   91.275">  7  8 -1 -1</clus>
<clus scale="  118.506">  1  5  2 -1</clus>
<clus scale="  118.506">  1  5  2 -1</clus>
</clustering>
</event>
<event>
 9    1  0.1973774E-005  0.1147969E+03  0.7546771E-02  0.1256371E+00
          1   -1    0    0  502    0  0.00000000000E+00  0.00000000000E+00  0.68167503021E+02  0.68167503021E+02  0.00000000000E+00 0. -1.
         -2   -1    0    0    0  501 -0.00000000000E+00 -0.00000000000E+00 -0.46517849941E+03  0.46517849941E+03  0.00000000000E+00 0.  1.
        -24    2    1    2    0    0  0.49218394741E+02  0.53184678883E+02 -0.36150588462E+03  0.37612382792E+03  0.74374517562E+02 0.  0.
         23    2    1    2    0    0 -0.75876385848E+02 -0.48156853747E+02 -0.23795423033E+02  0.12767485102E+03  0.87511924524E+02 0.  0.
         13    1    3    3    0    0  0.17039563370E+02 -0.12976262555E+02 -0.32012635194E+02  0.38516735606E+02  0.00000000000E+00 0. -1.
        -14    1    3    3    0    0  0.32178831372E+02  0.66160941438E+02 -0.32949324943E+03  0.33760709231E+03  0.00000000000E+00 0.  1.
        -13    1    4    4    0    0 -0.31578888045E+02 -0.97871332067E+01  0.32537066022E+02  0.46386148922E+02  0.00000000000E+00 0. -1.
         13    1    4    4    0    0 -0.44297497803E+02 -0.38369720540E+02 -0.56332489054E+02  0.81288702099E+02  0.00000000000E+00 0.  1.
         21    1    1    2  502  501  0.26657991107E+02 -0.50278251360E+01 -0.11709688738E+02  0.29547323496E+02  0.00000000000E+00 0. -1.
<scales pt_clust_5="13000.00000" pt_clust_6="13000.00000" pt_clust_7="13000.00000" pt_clust_8="13000.00000" pt_clust_9="27.12798"></scales>
<clustering>
<clus scale="   27.128">  1  9  2 -1</clus>
<clus scale="   74.375">  5  6 -1 -1</clus>
<clus scale="   87.512">  7  8 -1 -1</clus>
<clus scale="  105.126">  2  5  1 -1</clus>
<clus scale="   27.128">  1  5  2 -1</clus>
</clustering>
</event>
<event>
 9    1  0.1973774E-005  0.1020085E+03  0.7546771E-02  0.1289015E+00
          1   -1    0    0  502    0  0.00000000000E+00  0.00000000000E+00  0.18545345300E+03  0.18545345300E+03  0.00000000000E+00 0. -1.
         -2   -1    0    0    0  501 -0.00000000000E+00 -0.00000000000E+00 -0.97869283639E+02  0.97869283639E+02  0.00000000000E+00 0.  1.
         23    2    1    2    0    0 -0.15752176759E+01  0.78158870168E+01 -0.29207437342E+02  0.10244537407E+03  0.97869356141E+02 0.  0.
        -24    2    1    2    0    0 -0.15501159775E+02  0.33228107890E+02  0.10681322755E+03  0.13531663128E+03  0.74546173713E+02 0.  0.
         11    1    4    4    0    0 -0.45225423123E+02  0.26816802483E+02  0.64622220869E+02  0.83309730657E+02  0.00000000000E+00 0. -1.
        -12    1    4    4    0    0  0.29724263347E+02  0.64113054065E+01  0.42191006676E+02  0.52006900628E+02  0.00000000000E+00 0.  1.
        -13    1    3    3    0    0 -0.41468900766E+02 -0.18300663382E+02 -0.30690550752E+02  0.54740240376E+02  0.00000000000E+00 0.  1.
         13    1    3    3    0    0  0.39893683091E+02  0.26116550399E+02  0.14831134103E+01  0.47705133693E+02  0.00000000000E+00 0. -1.
         21    1    1    2  502  501  0.17076377451E+02 -0.41043994907E+02  0.99783791581E+01  0.45560731287E+02  0.00000000000E+00 0. -1.
<scales pt_clust_5="13000.00000" pt_clust_6="13000.00000" pt_clust_7="13000.00000" pt_clust_8="13000.00000" pt_clust_9="44.45461"></scales>
<clustering>
<clus scale="   44.455">  2  9  1 -1</clus>
<clus scale="   74.546">  5  6 -1 -1</clus>
<clus scale="   79.903">  1  5  2 -1</clus>
<clus scale="   97.869">  7  8 -1 -1</clus>
<clus scale="   79.903">  1  5  2 -1</clus>
</clustering>
</event>
<event>
 9    1  0.1973774E-005  0.4750280E+03  0.7546771E-02  0.1051555E+00
          1   -1    0    0  502    0  0.00000000000E+00  0.00000000000E+00  0.13936512862E+04  0.13936512862E+04  0.00000000000E+00 0. -1.
         -2   -1    0    0    0  501 -0.00000000000E+00 -0.00000000000E+00 -0.33236146652E+03  0.33236146652E+03  0.00000000000E+00 0.  1.
         23    2    1    2    0    0  0.16681624992E+03  0.19534288738E+02  0.14654363423E+03  0.24083345294E+03  0.91194658012E+02 0.  0.
        -24    2    1    2    0    0  0.32392059350E+03 -0.12049192536E+03 -0.86684178074E+02  0.36541241919E+03  0.81050813701E+02 0.  0.
         11    1    4    4    0    0  0.32133250057E+02  0.19060785702E+01  0.11385547203E+02  0.34143953782E+02  0.00000000000E+00 0. -1.
        -12    1    4    4    0    0  0.29178734344E+03 -0.12239800393E+03 -0.98069725277E+02  0.33126846541E+03  0.00000000000E+00 0.  1.
        -13    1    3    3    0    0  0.74722451468E+02 -0.35903043006E+02  0.53491521500E+02  0.98660104008E+02  0.00000000000E+00 0.  1.
         13    1    3    3    0    0  0.92093798452E+02  0.55437331744E+02  0.93052112728E+02  0.14217334894E+03  0.00000000000E+00 0. -1.
         21    1    1    2  502  501 -0.49073684342E+03  0.10095763663E+03  0.10014303636E+04  0.11197668806E+04  0.00000000000E+00 0. -1.
<scales pt_clust_5="13000.00000" pt_clust_6="13000.00000" pt_clust_7="13000.00000" pt_clust_8="13000.00000" pt_clust_9="468.06237"></scales>
<clustering>
<clus scale="   81.051">  5  6 -1 -1</clus>
<clus scale="   91.195">  7  8 -1 -1</clus>
<clus scale="  191.117">  2  7  1 -1</clus>
<clus scale="  468.062">  1  9  2 -1</clus>
<clus scale="  468.062">  1  5  2 -1</clus>
</clustering>
</event>
<event>
 9    1  0.1973774E-005  0.1212096E+03  0.7546771E-02  0.1244254E+00
          1   -1    0    0  502    0  0.00000000000E+00  0.00000000000E+00  0.96528217682E+02  0.96528217682E+02  0.00000000000E+00 0. -1.
         -2   -1    0    0    0  501 -0.00000000000E+00 -0.00000000000E+00 -0.19795872596E+03  0.19795872596E+03  0.00000000000E+00 0.  1.
         23    2    1    2    0    0 -0.51404574076E+02 -0.38174179538E+02 -0.45702216394E+02  0.12036189916E+03  0.91096629828E+02 0.  0.
        -24    2    1    2    0    0  0.84847664070E+02  0.48611664032E+02 -0.56851831165E+02  0.13907303040E+03  0.80913269002E+02 0.  0.
         11    1    4    4    0    0  0.65364434094E+02  0.60870510002E+02 -0.13970787086E+02  0.90404154352E+02  0.00000000000E+00 0. -1.
        -12    1    4    4    0    0  0.19483229976E+02 -0.12258845970E+02 -0.42881044079E+02  0.48668876051E+02  0.00000000000E+00 0.  1.
        -11    1    3    3    0    0 -0.53714185041E+02 -0.16593501333E+02 -0.68679363712E+02  0.88754791200E+02  0.00000000000E+00 0.  1.
         11    1    3    3    0    0  0.23096109647E+01 -0.21580678205E+02  0.22977147318E+02  0.31607107958E+02  0.00000000000E+00 0. -1.
         21    1    1    2  502  501 -0.33443089994E+02 -0.10437484494E+02  0.11235392777E+01  0.35052014084E+02  0.00000000000E+00 0. -1.
<scales pt_clust_5="13000.00000" pt_clust_6="13000.00000" pt_clust_7="13000.00000" pt_clust_8="13000.00000" pt_clust_9="35.03400"></scales>
<clustering>
<clus scale="   35.034">  1  9  2 -1</clus>
<clus scale="   80.913">  5  6 -1 -1</clus>
<clus scale="   91.097">  7  8 -1 -1</clus>
<clus scale="  113.755">  1  5  2 -1</clus>
<clus scale="   35.034">  1  5  2 -1</clus>
</clustering>
</event>
<event>
 9    1  0.1973774E-005  0.2464213E+03  0.7546771E-02  0.1145742E+00
          1   -1    0    0  502    0  0.00000000000E+00  0.00000000000E+00  0.20664906844E+04  0.20664906844E+04  0.00000000000E+00 0. -1.
         -2   -1    0    0    0  501 -0.00000000000E+00 -0.00000000000E+00 -0.59909204668E+02  0.59909204668E+02  0.00000000000E+00 0.  1.
        -24    2    1    2    0    0 -0.37278862912E+02 -0.75804942052E+02  0.27612110461E+03  0.30011856858E+03  0.81805794013E+02 0.  0.
         23    2    1    2    0    0 -0.16538179559E+03  0.18731334095E+03  0.41835106911E+03  0.49393891088E+03  0.80750260959E+02 0.  0.
         13    1    3    3    0    0 -0.33154404601E+02 -0.61552198240E+02  0.92751232545E+02  0.11614938136E+03  0.00000000000E+00 0. -1.
        -14    1    3    3    0    0 -0.41244583109E+01 -0.14252743812E+02  0.18336987207E+03  0.18396918722E+03  0.00000000000E+00 0.  1.
        -11    1    4    4    0    0 -0.31705651363E+02  0.94387225498E+02  0.16879987840E+03  0.19597855907E+03  0.00000000000E+00 0. -1.
         11    1    4    4    0    0 -0.13367614423E+03  0.92926115455E+02  0.24955119071E+03  0.29796035181E+03  0.00000000000E+00 0.  1.
         21    1    1    2  502  501  0.20266065850E+03 -0.11150839890E+03  0.13121093060E+04  0.13323424096E+04  0.00000000000E+00 0. -1.
<scales pt_clust_5="13000.00000" pt_clust_6="13000.00000" pt_clust_7="13000.00000" pt_clust_8="13000.00000" pt_clust_9="232.81504"></scales>
<clustering>
<clus scale="   80.750">  7  8 -1 -1</clus>
<clus scale="   81.806">  5  6 -1 -1</clus>
<clus scale="  117.594">  2  5  1 -1</clus>
<clus scale="  232.815">  1  9  2 -1</clus>
<clus scale="  232.815">  1  5  2 -1</clus>
</clustering>
</event>
<event>
 9    1  0.1973774E-005  0.1019485E+03  0.7546771E-02  0.1276576E+00
          1   -1    0    0  502    0  0.00000000000E+00  0.00000000000E+00  0.20723141203E+02  0.20723141203E+02  0.00000000000E+00 0. -1.
         -2   -1    0    0    0  501 -0.00000000000E+00 -0.00000000000E+00 -0.11458891838E+04  0.11458891838E+04  0.00000000000E+00 0.  1.
        -24    2    1    2    0    0  0.12024849368E+02  0.46621697202E+02 -0.94700286553E+03  0.95257315870E+03  0.90901131412E+02 0.  0.
         23    2    1    2    0    0 -0.14658082632E+02 -0.24909881156E+02 -0.15348175884E+03  0.18106176073E+03  0.91604308504E+02 0.  0.
         11    1    3    3    0    0  0.32458040501E+02  0.34190711339E+02 -0.21188483976E+03  0.21706615225E+03  0.00000000000E+00 0. -1.
        -12    1    3    3    0    0 -0.20433191132E+02  0.12430985863E+02 -0.73511802577E+03  0.73550700644E+03  0.00000000000E+00 0.  1.
        -13    1    4    4    0    0 -0.17867877256E+02 -0.49384610940E+02 -0.43057234062E+02  0.67911900580E+02  0.00000000000E+00 0. -1.
         13    1    4    4    0    0  0.32097946241E+01  0.24474729785E+02 -0.11042452478E+03  0.11314986015E+03  0.00000000000E+00 0.  1.
         21    1    1    2  502  501  0.26332332635E+01 -0.21711816046E+02 -0.24681418255E+02  0.32977405607E+02  0.00000000000E+00 0. -1.
<scales pt_clust_5="13000.00000" pt_clust_6="13000.00000" pt_clust_7="13000.00000" pt_clust_8="13000.00000" pt_clust_9="21.87091"></scales>
<clustering>
<clus scale="   21.871">  1  9  2 -1</clus>
<clus scale="   90.901">  5  6 -1 -1</clus>
<clus scale="   91.604">  7  8 -1 -1</clus>
<clus scale="  101.317">  2  5  1 -1</clus>
<clus scale="   21.871">  1  5  2 -1</clus>
</clustering>
</event>
<event>
 9    1  0.1973774E-005  0.1569977E+03  0.7546771E-02  0.1194040E+00
          1   -1    0    0  502    0  0.00000000000E+00  0.00000000000E+00  0.21953828992E+03  0.21953828992E+03  0.00000000000E+00 0. -1.
         -2   -1    0    0    0  501 -0.00000000000E+00 -0.00000000000E+00 -0.39781235980E+03  0.39781235980E+03  0.00000000000E+00 0.  1.
        -24    2    1    2    0    0 -0.12056347011E+03 -0.14460294438E+02 -0.29491692867E+03  0.32918297749E+03  0.81491026573E+02 0.  0.
         23    2    1    2    0    0  0.15853184286E+03  0.43288672380E+00  0.21771646527E+02  0.18502256856E+03  0.92880642171E+02 0.  0.
         13    1    3    3    0    0 -0.32262981314E+02  0.16635556078E+02 -0.26596070964E+02  0.44999918667E+02  0.00000000000E+00 0. -1.
        -14    1    3    3    0    0 -0.88300488793E+02 -0.31095850517E+02 -0.26832085771E+03  0.28418305882E+03  0.00000000000E+00 0.  1.
        -11    1    4    4    0    0  0.47474926497E+02  0.41299367163E+02  0.22076485031E+02  0.66684912576E+02  0.00000000000E+00 0. -1.
         11    1    4    4    0    0  0.11105691637E+03 -0.40866480439E+02 -0.30483850437E+00  0.11833765598E+03  0.00000000000E+00 0.  1.
         21    1    1    2  502  501 -0.37968372755E+02  0.14027407714E+02  0.94871212258E+02  0.10314510368E+03  0.00000000000E+00 0. -1.
<scales pt_clust_5="13000.00000" pt_clust_6="13000.00000" pt_clust_7="13000.00000" pt_clust_8="13000.00000" pt_clust_9="40.47673"></scales>
<clustering>
<clus scale="   40.477">  1  9  2 -1</clus>
<clus scale="   81.491">  5  6 -1 -1</clus>
<clus scale="   92.881">  7  8 -1 -1</clus>
<clus scale="  150.540">  2  5  1 -1</clus>
<clus scale="   40.477">  1  5  2 -1</clus>
</clustering>
</event>
<event>
 9    1  0.1973774E-005  0.9403431E+02  0.7546771E-02  0.1298133E+00
         -2   -1    0    0    0  501 -0.00000000000E+00  0.00000000000E+00  0.25578458158E+02  0.25578458158E+02  0.00000000000E+00 0.  1.
          1   -1    0    0  502    0  0.00000000000E+00 -0.00000000000E+00 -0.89647598058E+03  0.89647598058E+03  0.00000000000E+00 0. -1.
         23    2    1    2    0    0  0.13345279810E+02 -0.27797888710E+02 -0.88147601761E+02  0.12918817962E+03  0.89267950278E+02 0.  0.
        -24    2    1    2    0    0 -0.39199027038E+02  0.34187545391E+01 -0.51836445719E+03  0.52610338366E+03  0.80838160655E+02 0.  0.
         11    1    4    4    0    0 -0.59065235831E+02  0.20114640196E+02 -0.31783715511E+03  0.32390393329E+03  0.00000000000E+00 0. -1.
        -12    1    4    4    0    0  0.19866208793E+02 -0.16695885657E+02 -0.20052730208E+03  0.20219945037E+03  0.00000000000E+00 0.  1.
        -13    1    3    3    0    0  0.38632703789E+02  0.13085123677E+02 -0.62691334330E+02  0.74792443895E+02  0.00000000000E+00 0.  1.
         13    1    3    3    0    0 -0.25287423979E+02 -0.40883012387E+02 -0.25456267432E+02  0.54395735723E+02  0.00000000000E+00 0. -1.
         21    1    1    2  502  501  0.25853747228E+02  0.24379134171E+02 -0.26438546347E+03  0.26676287546E+03  0.00000000000E+00 0. -1.
<scales pt_clust_5="13000.00000" pt_clust_6="13000.00000" pt_clust_7="13000.00000" pt_clust_8="13000.00000" pt_clust_9="35.53531"></scales>
<clustering>
<clus scale="   35.535">  2  9  1 -1</clus>
<clus scale="   80.838">  5  6 -1 -1</clus>
<clus scale="   86.073">  2  5  1 -1</clus>
<clus scale="   89.268">  7  8 -1 -1</clus>
<clus scale="   35.535">  2  5  1 -1</clus>
</clustering>
</event>
<event>
 9    1  0.1973774E-005  0.9994033E+02  0.7546771E-02  0.1286647E+00
         -2   -1    0    0    0  501 -0.00000000000E+00  0.00000000000E+00  0.41605234438E+02  0.41605234438E+02  0.00000000000E+00 0.  1.
          1   -1    0    0  502    0  0.00000000000E+00 -0.00000000000E+00 -0.42502861228E+03  0.42502861228E+03  0.00000000000E+00 0. -1.
        -24    2    1    2    0    0  0.27861258817E+02 -0.34402891961E+02 -0.61272927996E+02  0.11004521485E+03  0.79973551175E+02 0.  0.
         23    2    1    2    0    0 -0.37868730198E+02  0.65940569692E+00 -0.14472029753E+03  0.17570128765E+03  0.92154774275E+02 0.  0.
         11    1    3    3    0    0  0.39811684197E+02  0.18035082805E+01 -0.59833172184E+02  0.71890411978E+02  0.00000000000E+00 0. -1.
        -12    1    3    3    0    0 -0.11950425380E+02 -0.36206400242E+02 -0.14397558115E+01  0.38154802870E+02  0.00000000000E+00 0.  1.
        -13    1    4    4    0    0  0.56945121358E+01  0.40073494413E+02 -0.51309192751E+02  0.65352472667E+02  0.00000000000E+00 0.  1.
         13    1    4    4    0    0 -0.43563242334E+02 -0.39414088716E+02 -0.93411104782E+02  0.11034881498E+03  0.00000000000E+00 0. -1.
         21    1    1    2  502  501  0.10007471381E+02  0.33743486264E+02 -0.17743015232E+03  0.18088734422E+03  0.00000000000E+00 0. -1.
<scales pt_clust_5="13000.00000" pt_clust_6="13000.00000" pt_clust_7="13000.00000" pt_clust_8="13000.00000" pt_clust_9="35.19620"></scales>
<clustering>
<clus scale="   35.196">  2  9  1 -1</clus>
<clus scale="   79.974">  5  6 -1 -1</clus>
<clus scale="   88.833">  1  5  2 -1</clus>
<clus scale="   92.155">  7  8 -1 -1</clus>
<clus scale="   35.196">  2  5  1 -1</clus>
</clustering>
</event>
<event>
 9    1  0.1973774E-005  0.2235535E+03  0.7546771E-02  0.1131847E+00
          3   -1    0    0  502    0  0.00000000000E+00  0.00000000000E+00  0.32386693751E+03  0.32386693751E+03  0.00000000000E+00 0. -1.
         -4   -1    0    0    0  501 -0.00000000000E+00 -0.00000000000E+00 -0.21298541009E+03  0.21298541009E+03  0.00000000000E+00 0.  1.
         23    2    1    2    0    0 -0.88720530897E+01  0.21294365309E+03 -0.53938498054E+02  0.23784366184E+03  0.90755347975E+02 0.  0.
        -24    2    1    2    0    0  0.33814544076E+02 -0.18584383476E+03  0.11202935416E+03  0.23463957060E+03  0.82606280543E+02 0.  0.
         13    1    4    4    0    0  0.26556926522E+02 -0.17615220085E+03  0.12443920855E+03  0.21730159879E+03  0.00000000000E+00 0. -1.
        -14    1    4    4    0    0  0.72576175541E+01 -0.96916339155E+01 -0.12409854390E+02  0.17337971811E+02  0.00000000000E+00 0.  1.
        -11    1    3    3    0    0  0.35416266592E+02  0.42980887877E+02 -0.18335443793E+02  0.58633242799E+02  0.00000000000E+00 0.  1.
         11    1    3    3    0    0 -0.44288319681E+02  0.16996276522E+03 -0.35603054261E+02  0.17921041904E+03  0.00000000000E+00 0. -1.
         21    1    1    2  502  501 -0.24942490987E+02 -0.27099818331E+02  0.52790671314E+02  0.64369115171E+02  0.00000000000E+00 0. -1.
<scales pt_clust_5="13000.00000" pt_clust_6="13000.00000" pt_clust_7="13000.00000" pt_clust_8="13000.00000" pt_clust_9="36.83107"></scales>
<clustering>
<clus scale="   36.831">  1  9  2 -1</clus>
<clus scale="   82.606">  5  6 -1 -1</clus>
<clus scale="   90.755">  7  8 -1 -1</clus>
<clus scale="  220.371">  1  5  2 -1</clus>
<clus scale="   36.831">  1  5  2 -1</clus>
</clustering>
</event>
<event>
 9    1  0.1977255E-005  0.1687948E+03  0.7546771E-02  0.1182148E+00
          1   -1    0    0  502    0  0.00000000000E+00  0.00000000000E+00  0.73660063186E+03  0.73660063186E+03  0.00000000000E+00 0. -1.
         -2   -1    0    0    0  501 -0.00000000000E+00 -0.00000000000E+00 -0.15211806579E+03  0.15211806579E+03  0.00000000000E+00 0.  1.
         23    2    1    2    0    0 -0.10106346659E+03  0.89617154569E+02 -0.84556476792E+02  0.18753978532E+03  0.98875247855E+02 0.  0.
        -24    2    1    2    0    0  0.10934289075E+03 -0.11509802756E+03  0.62533661784E+03  0.64991756525E+03  0.78380688268E+02 0.  0.
         13    1    4    4    0    0  0.10024822879E+03 -0.77780178707E+02  0.55939723943E+03  0.57360677738E+03  0.00000000000E+00 0. -1.
        -14    1    4    4    0    0  0.90946619635E+01 -0.37317848852E+02  0.65939378419E+02  0.76310787871E+02  0.00000000000E+00 0.  1.
        -13    1    3    3    0    0 -0.64238212147E+02  0.63892115045E+02 -0.10457158623E+03  0.13836172488E+03  0.00000000000E+00 0.  1.
         13    1    3    3    0    0 -0.36825254446E+02  0.25725039524E+02  0.20015109435E+02  0.49178060446E+02  0.00000000000E+00 0. -1.
         21    1    1    2  502  501 -0.82794241579E+01  0.25480872991E+02  0.43702425014E+02  0.51261347084E+02  0.00000000000E+00 0. -1.
<scales pt_clust_5="13000.00000" pt_clust_6="13000.00000" pt_clust_7="13000.00000" pt_clust_8="13000.00000" pt_clust_9="26.79223"></scales>
<clustering>
<clus scale="   26.792">  1  9  2 -1</clus>
<clus scale="   78.381">  5  6 -1 -1</clus>
<clus scale="   98.875">  7  8 -1 -1</clus>
<clus scale="  157.667">  1  5  2 -1</clus>
<clus scale="   26.792">  1  5  2 -1</clus>
</clustering>
</event>
<event>
 9    1  0.1973774E-005  0.1238546E+03  0.7546771E-02  0.1240533E+00
          1   -1    0    0  502    0  0.00000000000E+00  0.00000000000E+00  0.13371721920E+03  0.13371721920E+03  0.00000000000E+00 0. -1.
         -2   -1    0    0    0  501 -0.00000000000E+00 -0.00000000000E+00 -0.13584916663E+03  0.13584916663E+03  0.00000000000E+00 0.  1.
         23    2    1    2    0    0  0.43743575858E+02  0.79382128427E+02 -0.35820757060E+02  0.13383525333E+03  0.91726362919E+02 0.  0.
        -24    2    1    2    0    0 -0.45160205695E+02 -0.58648287027E+02  0.18635753851E+02  0.11007000417E+03  0.79303522916E+02 0.  0.
         13    1    4    4    0    0 -0.21893991970E+02 -0.57443899929E+02  0.44023827447E+02  0.75612471898E+02  0.00000000000E+00 0. -1.
        -14    1    4    4    0    0 -0.23266213725E+02 -0.12043870984E+01 -0.25388073597E+02  0.34457532273E+02  0.00000000000E+00 0.  1.
        -11    1    3    3    0    0  0.55326070959E+02  0.43980151933E+02 -0.57167943839E+02  0.90903254587E+02  0.00000000000E+00 0.  1.
         11    1    3    3    0    0 -0.11582495102E+02  0.35401976494E+02  0.21347186778E+02  0.42931998740E+02  0.00000000000E+00 0. -1.
         21    1    1    2  502  501  0.14166298371E+01 -0.20733841399E+02  0.15053055780E+02  0.25661128338E+02  0.00000000000E+00 0. -1.
<scales pt_clust_5="13000.00000" pt_clust_6="13000.00000" pt_clust_7="13000.00000" pt_clust_8="13000.00000" pt_clust_9="20.78218"></scales>
<clustering>
<clus scale="   20.782">  1  9  2 -1</clus>
<clus scale="   79.304">  5  6 -1 -1</clus>
<clus scale="   91.726">  7  8 -1 -1</clus>
<clus scale="  114.958">  1  5  2 -1</clus>
<clus scale="   20.782">  1  5  2 -1</clus>
</clustering>
</event>
<event>
 9    1  0.1973774E-005  0.1074851E+03  0.7546771E-02  0.1269015E+00
         -4   -1    0    0    0  501 -0.00000000000E+00  0.00000000000E+00  0.12617018503E+03  0.12617018503E+03  0.00000000000E+00 0.  1.
          3   -1    0    0  502    0  0.00000000000E+00 -0.00000000000E+00 -0.27198642358E+03  0.27198642358E+03  0.00000000000E+00 0. -1.
        -24    2    1    2    0    0  0.15844284332E+02 -0.54529732895E+02  0.83058321431E+02  0.12936854582E+03  0.81320371204E+02 0.  0.
         23    2    1    2    0    0 -0.37066855062E+01  0.73386363783E+02 -0.20667005942E+03  0.23722964586E+03  0.90366440175E+02 0.  0.
         13    1    3    3    0    0 -0.25281391130E+02 -0.34271643893E+02  0.11037415723E+02  0.43994532142E+02  0.00000000000E+00 0. -1.
        -14    1    3    3    0    0  0.41125675462E+02 -0.20258089002E+02  0.72020905708E+02  0.85374013676E+02  0.00000000000E+00 0.  1.
        -13    1    4    4    0    0 -0.32915309435E+02  0.53419278319E+02 -0.18589762620E+03  0.19620133618E+03  0.00000000000E+00 0. -1.
         13    1    4    4    0    0  0.29208623928E+02  0.19967085465E+02 -0.20772433215E+02  0.41028309682E+02  0.00000000000E+00 0.  1.
         21    1    1    2  502  501 -0.12137598826E+02 -0.18856630889E+02 -0.22204500561E+02  0.31558416926E+02  0.00000000000E+00 0.  1.
<scales pt_clust_5="13000.00000" pt_clust_6="13000.00000" pt_clust_7="13000.00000" pt_clust_8="13000.00000" pt_clust_9="22.42529"></scales>
<clustering>
<clus scale="   22.425">  2  9  1 -1</clus>
<clus scale="   81.320">  5  6 -1 -1</clus>
<clus scale="   90.366">  7  8 -1 -1</clus>
<clus scale="  100.000">  1  5  2 -1</clus>
<clus scale="   22.425">  2  5  1 -1</clus>
</clustering>
</event>
<event>
 9    1  0.1973774E-005  0.1243019E+03  0.7546771E-02  0.1239003E+00
          1   -1    0    0  502    0  0.00000000000E+00  0.00000000000E+00  0.34323070413E+03  0.34323070413E+03  0.00000000000E+00 0. -1.
         -2   -1    0    0    0  501 -0.00000000000E+00 -0.00000000000E+00 -0.12365607726E+03  0.12365607726E+03  0.00000000000E+00 0.  1.
        -24    2    1    2    0    0  0.89985458348E+02 -0.37673267231E+01 -0.63960099897E+02  0.13716462551E+03  0.81312143307E+02 0.  0.
         23    2    1    2    0    0 -0.44735522748E+02 -0.64115185603E+01  0.25675939834E+03  0.27616766236E+03  0.91108806025E+02 0.  0.
         13    1    3    3    0    0  0.12709716287E+02  0.23020116743E+02 -0.46672773822E+02  0.53570612085E+02  0.00000000000E+00 0. -1.
        -14    1    3    3    0    0  0.77275742060E+02 -0.26787443466E+02 -0.17287326075E+02  0.83594013429E+02  0.00000000000E+00 0.  1.
        -11    1    4    4    0    0 -0.19708329988E+02 -0.48334958908E+02  0.11670726059E+03  0.12784862611E+03  0.00000000000E+00 0.  1.
         11    1    4    4    0    0 -0.25027192760E+02  0.41923440348E+02  0.14005213774E+03  0.14831903625E+03  0.00000000000E+00 0. -1.
         21    1    1    2  502  501 -0.45249935600E+02  0.10178845283E+02  0.26775328432E+02  0.53554493516E+02  0.00000000000E+00 0. -1.
<scales pt_clust_5="13000.00000" pt_clust_6="13000.00000" pt_clust_7="13000.00000" pt_clust_8="13000.00000" pt_clust_9="46.38066"></scales>
<clustering>
<clus scale="   46.381">  1  9  2 -1</clus>
<clus scale="   81.312">  5  6 -1 -1</clus>
<clus scale="   91.109">  7  8 -1 -1</clus>
<clus scale="  117.311">  2  5  1 -1</clus>
<clus scale="   46.381">  1  5  2 -1</clus>
</clustering>
</event>
<event>
 9    1  0.1973774E-005  0.1403490E+03  0.7546771E-02  0.1215103E+00
         -2   -1    0    0    0  501 -0.00000000000E+00  0.00000000000E+00  0.10824260863E+03  0.10824260863E+03  0.00000000000E+00 0.  1.
          1   -1    0    0  502    0  0.00000000000E+00 -0.00000000000E+00 -0.41357415246E+03  0.41357415246E+03  0.00000000000E+00 0. -1.
        -24    2    1    2    0    0  0.60105134275E+02  0.96734601645E+02  0.31946332513E+02  0.14313913391E+03  0.80610378827E+02 0.  0.
         23    2    1    2    0    0 -0.40062567621E+02 -0.98030244669E+02 -0.32812775042E+03  0.35660710445E+03  0.91026744178E+02 0.  0.
         11    1    3    3    0    0  0.19425246476E+01  0.24821940319E+02 -0.24381113108E+02  0.34847393010E+02  0.00000000000E+00 0. -1.
        -12    1    3    3    0    0  0.58162609627E+02  0.71912661326E+02  0.56327445621E+02  0.10829174090E+03  0.00000000000E+00 0.  1.
        -11    1    4    4    0    0  0.21354927346E+02 -0.67663192970E+02 -0.15793961769E+03  0.17314520912E+03  0.00000000000E+00 0.  1.
         11    1    4    4    0    0 -0.61417494968E+02 -0.30367051699E+02 -0.17018813273E+03  0.18346189533E+03  0.00000000000E+00 0. -1.
         21    1    1    2  502  501 -0.20042566654E+02  0.12956430235E+01 -0.91501259318E+01  0.22070522728E+02  0.00000000000E+00 0. -1.
<scales pt_clust_5="13000.00000" pt_clust_6="13000.00000" pt_clust_7="13000.00000" pt_clust_8="13000.00000" pt_clust_9="20.08440"></scales>
<clustering>
<clus scale="   20.084">  1  9  2 -1</clus>
<clus scale="   80.610">  5  6 -1 -1</clus>
<clus scale="   91.027">  7  8 -1 -1</clus>
<clus scale="  133.828">  1  5  2 -1</clus>
<clus scale="  140.349">  2  5  1 -1</clus>
</clustering>
</event>
<event>
 9    1  0.1973774E-005  0.9606430E+02  0.7546771E-02  0.1294819E+00
         -2   -1    0    0    0  501 -0.00000000000E+00  0.00000000000E+00  0.49354947609E+03  0.49354947609E+03  0.00000000000E+00 0.  1.
          1   -1    0    0  502    0  0.00000000000E+00 -0.00000000000E+00 -0.14358452804E+03  0.14358452804E+03  0.00000000000E+00 0. -1.
         23    2    1    2    0    0 -0.22552186866E+02 -0.18271507580E+02  0.46355638675E+03  0.47350313830E+03  0.92077408526E+02 0.  0.
        -24    2    1    2    0    0 -0.79613662300E+01 -0.19814371770E-01 -0.85589182481E+02  0.11835641680E+03  0.81359384793E+02 0.  0.
         13    1    4    4    0    0  0.11213136174E+02 -0.20606823149E+02 -0.87078776441E+02  0.90183639811E+02  0.00000000000E+00 0. -1.
        -14    1    4    4    0    0 -0.19174502404E+02  0.20587008777E+02  0.14895939596E+01  0.28172776984E+02  0.00000000000E+00 0.  1.
        -11    1    3    3    0    0  0.35919356173E+02 -0.82466578830E+01  0.19804350433E+03  0.20144338440E+03  0.00000000000E+00 0. -1.
         11    1    3    3    0    0 -0.58471543039E+02 -0.10024849697E+02  0.26551288243E+03  0.27205975390E+03  0.00000000000E+00 0.  1.
         21    1    1    2  502  501  0.30513553096E+02  0.18291321952E+02 -0.28002256229E+02  0.45274449033E+02  0.00000000000E+00 0.  1.
<scales pt_clust_5="13000.00000" pt_clust_6="13000.00000" pt_clust_7="13000.00000" pt_clust_8="13000.00000" pt_clust_9="35.57597"></scales>
<clustering>
<clus scale="   35.576">  2  9  1 -1</clus>
<clus scale="   81.359">  5  6 -1 -1</clus>
<clus scale="   85.845">  2  5  1 -1</clus>
<clus scale="   92.077">  7  8 -1 -1</clus>
<clus scale="   35.576">  2  5  1 -1</clus>
</clustering>
</event>
<event>
 9    1  0.1973774E-005  0.9915202E+02  0.7546771E-02  0.1282234E+00
         -2   -1    0    0    0  501 -0.00000000000E+00  0.00000000000E+00  0.36709663191E+03  0.36709663191E+03  0.00000000000E+00 0.  1.
          1   -1    0    0  502    0  0.00000000000E+00 -0.00000000000E+00 -0.38482495151E+02  0.38482495151E+02  0.00000000000E+00 0. -1.
         23    2    1    2    0    0 -0.28182890147E+02 -0.45418416452E+02  0.19195278965E+03  0.21850100603E+03  0.89664420656E+02 0.  0.
        -24    2    1    2    0    0  0.60001438374E-01  0.29272220032E+02  0.11007139217E+03  0.14514219095E+03  0.89964869549E+02 0.  0.
         13    1    4    4    0    0 -0.46107207410E+01  0.27393637100E+02 -0.64452325787E+01  0.28516856810E+02  0.00000000000E+00 0. -1.
        -14    1    4    4    0    0  0.46707221794E+01  0.18785829319E+01  0.11651662475E+03  0.11662533414E+03  0.00000000000E+00 0.  1.
        -11    1    3    3    0    0 -0.59576041378E+02 -0.17544925244E+02  0.12255190986E+03  0.13739031887E+03  0.00000000000E+00 0.  1.
         11    1    3    3    0    0  0.31393151231E+02 -0.27873491207E+02  0.69400879791E+02  0.81110687163E+02  0.00000000000E+00 0. -1.
         21    1    1    2  502  501  0.28122888708E+02  0.16146196419E+02  0.26589954927E+02  0.41935930074E+02  0.00000000000E+00 0. -1.
<scales pt_clust_5="13000.00000" pt_clust_6="13000.00000" pt_clust_7="13000.00000" pt_clust_8="13000.00000" pt_clust_9="32.42833"></scales>
<clustering>
<clus scale="   32.428">  2  9  1 -1</clus>
<clus scale="   89.664">  7  8 -1 -1</clus>
<clus scale="   89.965">  5  6 -1 -1</clus>
<clus scale="   98.879">  1  7  2 -1</clus>
<clus scale="   32.428">  2  5  1 -1</clus>
</clustering>
</event>
<event>
 9    1  0.1973774E-005  0.1019779E+03  0.7546771E-02  0.1280619E+00
          1   -1    0    0  502    0  0.00000000000E+00  0.00000000000E+00  0.12833633760E+03  0.12833633760E+03  0.00000000000E+00 0. -1.
         -2   -1    0    0    0  501 -0.00000000000E+00 -0.00000000000E+00 -0.11060430779E+03  0.11060430779E+03  0.00000000000E+00 0.  1.
        -24    2    1    2    0    0  0.10411630253E+02 -0.38040519065E+02 -0.30790113788E+02  0.94492251311E+02  0.80157790111E+02 0.  0.
         23    2    1    2    0    0 -0.36187179147E+02  0.41089150253E+02  0.53675656983E+02  0.11798650122E+03  0.89676686578E+02 0.  0.
         13    1    3    3    0    0 -0.42992595720E+00 -0.61227971875E+02 -0.31558547495E+02  0.68883897220E+02  0.00000000000E+00 0. -1.
        -14    1    3    3    0    0  0.10841556211E+02  0.23187452810E+02  0.76843370684E+00  0.25608354091E+02  0.00000000000E+00 0.  1.
        -13    1    4    4    0    0 -0.25744872430E+02  0.59646208691E+02  0.53588941634E+01  0.65185783836E+02  0.00000000000E+00 0.  1.
         13    1    4    4    0    0 -0.10442306716E+02 -0.18557058438E+02  0.48316762820E+02  0.52800717389E+02  0.00000000000E+00 0. -1.
         21    1    1    2  502  501  0.25775548893E+02 -0.30486311880E+01 -0.51535133829E+01  0.26461892847E+02  0.00000000000E+00 0. -1.
<scales pt_clust_5="13000.00000" pt_clust_6="13000.00000" pt_clust_7="13000.00000" pt_clust_8="13000.00000" pt_clust_9="25.95521"></scales>
<clustering>
<clus scale="   25.955">  2  9  1 -1</clus>
<clus scale="   80.158">  5  6 -1 -1</clus>
<clus scale="   89.677">  7  8 -1 -1</clus>
<clus scale="   93.717">  2  5  1 -1</clus>
<clus scale="  101.978">  1  5  2 -1</clus>
</clustering>
</event>
<event>
 9    1  0.1973774E-005  0.1085410E+03  0.7546771E-02  0.1267840E+00
          1   -1    0    0  502    0  0.00000000000E+00  0.00000000000E+00  0.50463747579E+03  0.50463747579E+03  0.00000000000E+00 0. -1.
         -2   -1    0    0    0  501 -0.00000000000E+00 -0.00000000000E+00 -0.28665007522E+03  0.28665007522E+03  0.00000000000E+00 0.  1.
         23    2    1    2    0    0  0.11142957341E+02  0.57972488112E+02 -0.25605831080E+03  0.27797589902E+03  0.90662930828E+02 0.  0.
        -24    2    1    2    0    0  0.50239060383E+02 -0.87119141821E+02  0.28719374968E+03  0.31448777236E+03  0.79426702366E+02 0.  0.
         13    1    4    4    0    0 -0.17394150267E+02 -0.45551482712E+02  0.11050156297E+03  0.12078116352E+03  0.00000000000E+00 0. -1.
        -14    1    4    4    0    0  0.67633210650E+02 -0.41567659109E+02  0.17669218671E+03  0.19370660885E+03  0.00000000000E+00 0.  1.
        -11    1    3    3    0    0 -0.23025149215E+02  0.46849235338E+02 -0.64020861961E+02  0.82605563459E+02  0.00000000000E+00 0. -1.
         11    1    3    3    0    0  0.34168106555E+02  0.11123252773E+02 -0.19203744884E+03  0.19537033556E+03  0.00000000000E+00 0.  1.
         21    1    1    2  502  501 -0.61382017724E+02  0.29146653710E+02  0.18685196169E+03  0.19882387962E+03  0.00000000000E+00 0. -1.
<scales pt_clust_5="13000.00000" pt_clust_6="13000.00000" pt_clust_7="13000.00000" pt_clust_8="13000.00000" pt_clust_9="67.95057"></scales>
<clustering>
<clus scale="   67.951">  1  9  2 -1</clus>
<clus scale="   79.427">  5  6 -1 -1</clus>
<clus scale="   90.663">  7  8 -1 -1</clus>
<clus scale="   99.348">  1  5  2 -1</clus>
<clus scale="   67.951">  1  5  2 -1</clus>
</clustering>
</event>
<event>
 9    1  0.1973774E-005  0.9168281E+02  0.7546771E-02  0.1303663E+00
          1   -1    0    0  502    0  0.00000000000E+00  0.00000000000E+00  0.32496013579E+03  0.32496013579E+03  0.00000000000E+00 0. -1.
         -2   -1    0    0    0  501 -0.00000000000E+00 -0.00000000000E+00 -0.47471109801E+02  0.47471109801E+02  0.00000000000E+00 0.  1.
         23    2    1    2    0    0  0.17338338016E+02  0.12328753005E+02  0.37396919029E+02  0.99746897564E+02  0.89990543419E+02 0.  0.
        -24    2    1    2    0    0  0.14289123537E+02 -0.23856132285E+02  0.12018179136E+03  0.14813853082E+03  0.82024796490E+02 0.  0.
         11    1    4    4    0    0 -0.32788224116E+02 -0.53238771928E+01  0.66723451269E+02  0.74534758726E+02  0.00000000000E+00 0. -1.
        -12    1    4    4    0    0  0.47077347653E+02 -0.18532255093E+02  0.53458340094E+02  0.73603772094E+02  0.00000000000E+00 0.  1.
        -13    1    3    3    0    0  0.12126552629E+02  0.50993173156E+02  0.28764287321E+02  0.59789139584E+02  0.00000000000E+00 0.  1.
         13    1    3    3    0    0  0.52117853869E+01 -0.38664420151E+02  0.86326317084E+01  0.39957757979E+02  0.00000000000E+00 0. -1.
         21    1    1    2  502  501 -0.31627461553E+02  0.11527379281E+02  0.11991031560E+03  0.12454581721E+03  0.00000000000E+00 0. -1.
<scales pt_clust_5="13000.00000" pt_clust_6="13000.00000" pt_clust_7="13000.00000" pt_clust_8="13000.00000" pt_clust_9="33.66269"></scales>
<clustering>
<clus scale="   33.663">  1  9  2 -1</clus>
<clus scale="   82.025">  5  6 -1 -1</clus>
<clus scale="   83.878">  1  5  2 -1</clus>
<clus scale="   89.991">  7  8 -1 -1</clus>
<clus scale="   33.663">  1  5  2 -1</clus>
</clustering>
</event>
<event>
 9    1  0.1973774E-005  0.1045331E+03  0.7546771E-02  0.1275404E+00
         -2   -1    0    0    0  501 -0.00000000000E+00  0.00000000000E+00  0.29859673311E+03  0.29859673311E+03  0.00000000000E+00 0.  1.
          1   -1    0    0  502    0  0.00000000000E+00 -0.00000000000E+00 -0.61228399276E+02  0.61228399276E+02  0.00000000000E+00 0. -1.
        -24    2    1    2    0    0  0.25471621481E+02 -0.60457961742E+02  0.16927813796E+03  0.19864857904E+03  0.80636228363E+02 0.  0.
         23    2    1    2    0    0  0.10537507229E+02  0.26669173842E+02  0.32641892236E+02  0.10039068518E+03  0.90501451089E+02 0.  0.
         13    1    3    3    0    0 -0.12387781515E+02 -0.35985884629E+02  0.20578111134E+02  0.43265455981E+02  0.00000000000E+00 0. -1.
        -14    1    3    3    0    0  0.37859402996E+02 -0.24472077113E+02  0.14870002683E+03  0.15538312306E+03  0.00000000000E+00 0.  1.
        -13    1    4    4    0    0  0.23840259235E+02  0.55394371031E+02  0.32974641133E+02  0.68732970692E+02  0.00000000000E+00 0.  1.
         13    1    4    4    0    0 -0.13302752005E+02 -0.28725197189E+02 -0.33274889732E+00  0.31657714483E+02  0.00000000000E+00 0. -1.
         21    1    1    2  502  501 -0.36009128710E+02  0.33788787900E+02  0.35448303637E+02  0.60785868168E+02  0.00000000000E+00 0.  1.
<scales pt_clust_5="13000.00000" pt_clust_6="13000.00000" pt_clust_7="13000.00000" pt_clust_8="13000.00000" pt_clust_9="49.37955"></scales>
<clustering>
<clus scale="   49.380">  2  9  1 -1</clus>
<clus scale="   80.636">  5  6 -1 -1</clus>
<clus scale="   90.501">  7  8 -1 -1</clus>
<clus scale="   96.119">  1  5  2 -1</clus>
<clus scale="   49.380">  2  5  1 -1</clus>
</clustering>
</event>
<event>
 9    1  0.1973774E-005  0.1514424E+03  0.7546771E-02  0.1200381E+00
          3   -1    0    0  502    0  0.00000000000E+00  0.00000000000E+00  0.23491656628E+03  0.23491656628E+03  0.00000000000E+00 0. -1.
         -4   -1    0    0    0  501 -0.00000000000E+00 -0.00000000000E+00 -0.22651342472E+03  0.22651342472E+03  0.00000000000E+00 0.  1.
         23    2    1    2    0    0 -0.79908756115E+02  0.97565915885E+02 -0.13590238213E+03  0.20657142821E+03  0.91092152453E+02 0.  0.
        -24    2    1    2    0    0  0.51457636617E+02 -0.97055062185E+02  0.34252610727E+02  0.14118635500E+03  0.81809363986E+02 0.  0.
         13    1    4    4    0    0  0.57223650732E+02 -0.31525358007E+02 -0.33425242836E+01  0.65418398552E+02  0.00000000000E+00 0. -1.
        -14    1    4    4    0    0 -0.57660141152E+01 -0.65529704178E+02  0.37595135010E+02  0.75767956451E+02  0.00000000000E+00 0.  1.
        -13    1    3    3    0    0  0.29666477396E+01  0.48270258221E+02 -0.12479100893E+02  0.49945438096E+02  0.00000000000E+00 0. -1.
         13    1    3    3    0    0 -0.82875403855E+02  0.49295657665E+02 -0.12342328123E+03  0.15662599011E+03  0.00000000000E+00 0.  1.
         21    1    1    2  502  501  0.28451119498E+02 -0.51085370047E+00  0.11005291296E+03  0.11367220779E+03  0.00000000000E+00 0. -1.
<scales pt_clust_5="13000.00000" pt_clust_6="13000.00000" pt_clust_7="13000.00000" pt_clust_8="13000.00000" pt_clust_9="28.45571"></scales>
<clustering>
<clus scale="   28.456">  1  9  2 -1</clus>
<clus scale="   81.809">  5  6 -1 -1</clus>
<clus scale="   91.092">  7  8 -1 -1</clus>
<clus scale="  146.047">  1  5  2 -1</clus>
<clus scale="   28.456">  1  5  2 -1</clus>
</clustering>
</event>
<event>
 9    1  0.1973774E-005  0.1351298E+03  0.7546771E-02  0.1223433E+00
         -2   -1    0    0    0  501 -0.00000000000E+00  0.00000000000E+00  0.68979031282E+03  0.68979031282E+03  0.00000000000E+00 0.  1.
          1   -1    0    0  502    0  0.00000000000E+00 -0.00000000000E+00 -0.17737722005E+03  0.17737722005E+03  0.00000000000E+00 0. -1.
        -24    2    1    2    0    0 -0.68660824758E+02  0.63786586264E+02  0.58971873178E+03  0.60253953953E+03  0.80639175638E+02 0.  0.
         23    2    1    2    0    0  0.71982621599E+02 -0.13158288505E+03 -0.25153111424E+02  0.17902858564E+03  0.94461643073E+02 0.  0.
         13    1    3    3    0    0 -0.52733704157E+02  0.55227955942E+02  0.22955909037E+03  0.24192632483E+03  0.00000000000E+00 0. -1.
        -14    1    3    3    0    0 -0.15927120601E+02  0.85586303221E+01  0.36015964140E+03  0.36061321470E+03  0.00000000000E+00 0.  1.
        -11    1    4    4    0    0 -0.10419834465E+02 -0.38082216042E+02  0.22682854304E+02  0.45533943474E+02  0.00000000000E+00 0.  1.
         11    1    4    4    0    0  0.82402456064E+02 -0.93500669008E+02 -0.47835965728E+02  0.13349464217E+03  0.00000000000E+00 0. -1.
         21    1    1    2  502  501 -0.33217968411E+01  0.67796298787E+02 -0.52152527582E+02  0.85599407689E+02  0.00000000000E+00 0. -1.
<scales pt_clust_5="13000.00000" pt_clust_6="13000.00000" pt_clust_7="13000.00000" pt_clust_8="13000.00000" pt_clust_9="67.87763"></scales>
<clustering>
<clus scale="   67.878">  2  9  1 -1</clus>
<clus scale="   80.639">  5  6 -1 -1</clus>
<clus scale="   94.462">  7  8 -1 -1</clus>
<clus scale="  125.856">  1  5  2 -1</clus>
<clus scale="   67.878">  2  5  1 -1</clus>
</clustering>
</event>
<event>
 9    1  0.1973774E-005  0.2156981E+03  0.7546771E-02  0.1137796E+00
          1   -1    0    0  502    0  0.00000000000E+00  0.00000000000E+00  0.58561530861E+02  0.58561530861E+02  0.00000000000E+00 0. -1.
         -2   -1    0    0    0  501 -0.00000000000E+00 -0.00000000000E+00 -0.13942632312E+04  0.13942632312E+04  0.00000000000E+00 0.  1.
        -24    2    1    2    0    0 -0.19020841771E+03  0.11307838440E+02 -0.10435897449E+04  0.10642070973E+04  0.84558151185E+02 0.  0.
         23    2    1    2    0    0  0.21090443057E+03 -0.24423179531E+02 -0.26677275408E+03  0.35336979608E+03  0.92872708215E+02 0.  0.
         13    1    3    3    0    0 -0.44757984637E+02  0.10618940736E+01 -0.10198111513E+03  0.11137572739E+03  0.00000000000E+00 0. -1.
        -14    1    3    3    0    0 -0.14545043307E+03  0.10245944366E+02 -0.94160862980E+03  0.95283136995E+03  0.00000000000E+00 0.  1.
        -13    1    4    4    0    0  0.28481475875E+02 -0.34716761073E+02 -0.28808979400E+02  0.53351712826E+02  0.00000000000E+00 0. -1.
         13    1    4    4    0    0  0.18242295470E+03  0.10293581543E+02 -0.23796377468E+03  0.30001808325E+03  0.00000000000E+00 0.  1.
         21    1    1    2  502  501 -0.20696012859E+02  0.13115341091E+02 -0.25339201371E+02  0.35247868677E+02  0.00000000000E+00 0. -1.
<scales pt_clust_5="13000.00000" pt_clust_6="13000.00000" pt_clust_7="13000.00000" pt_clust_8="13000.00000" pt_clust_9="24.50178"></scales>
<clustering>
<clus scale="   24.502">  1  9  2 -1</clus>
<clus scale="   84.558">  5  6 -1 -1</clus>
<clus scale="   92.873">  7  8 -1 -1</clus>
<clus scale="  212.251">  2  5  1 -1</clus>
<clus scale="   24.502">  1  5  2 -1</clus>
</clustering>
</event>
<event>
 9    1  0.1973774E-005  0.2245771E+03  0.7546771E-02  0.1131284E+00
          1   -1    0    0  502    0  0.00000000000E+00  0.00000000000E+00  0.76182291250E+03  0.76182291250E+03  0.00000000000E+00 0. -1.
         -2   -1    0    0    0  501 -0.00000000000E+00 -0.00000000000E+00 -0.90560944503E+02  0.90560944503E+02  0.00000000000E+00 0.  1.
         23    2    1    2    0    0  0.15718847102E+03 -0.14925898814E+03  0.23730308059E+03  0.33411235262E+03  0.91278974317E+02 0.  0.
        -24    2    1    2    0    0 -0.11064740217E+03  0.16162141289E+03  0.24758667513E+03  0.32577864180E+03  0.80425325862E+02 0.  0.
         11    1    4    4    0    0 -0.65490372863E+02  0.12734921067E+03  0.22057307344E+03  0.26298154141E+03  0.00000000000E+00 0. -1.
        -12    1    4    4    0    0 -0.45157029311E+02  0.34272202220E+02  0.27013601689E+02  0.62797100390E+02  0.00000000000E+00 0.  1.
        -13    1    3    3    0    0  0.65905262734E+02 -0.12145365154E+03  0.12099828632E+03  0.18367111483E+03  0.00000000000E+00 0.  1.
         13    1    3    3    0    0  0.91283208290E+02 -0.27805336600E+02  0.11630479427E+03  0.15044123779E+03  0.00000000000E+00 0. -1.
         21    1    1    2  502  501 -0.46541068850E+02 -0.12362424747E+02  0.18637221228E+03  0.19249286258E+03  0.00000000000E+00 0.  1.
<scales pt_clust_5="13000.00000" pt_clust_6="13000.00000" pt_clust_7="13000.00000" pt_clust_8="13000.00000" pt_clust_9="48.15496"></scales>
<clustering>
<clus scale="   48.155">  1  9  2 -1</clus>
<clus scale="   80.425">  5  6 -1 -1</clus>
<clus scale="   91.279">  7  8 -1 -1</clus>
<clus scale="  220.389">  1  5  2 -1</clus>
<clus scale="   48.155">  1  5  2 -1</clus>
</clustering>
</event>
<event>
 9    1  0.1973774E-005  0.9655285E+02  0.7546771E-02  0.1293387E+00
          1   -1    0    0  502    0  0.00000000000E+00  0.00000000000E+00  0.53866435556E+02  0.53866435556E+02  0.00000000000E+00 0. -1.
         -2   -1    0    0    0  501 -0.00000000000E+00 -0.00000000000E+00 -0.40019405737E+03  0.40019405737E+03  0.00000000000E+00 0.  1.
        -24    2    1    2    0    0  0.10151023370E+02  0.24803634126E+02 -0.26098401874E+03  0.27445788149E+03  0.80599051681E+02 0.  0.
         23    2    1    2    0    0  0.52018291728E+01 -0.55506388748E+02 -0.96126080412E+02  0.14362162979E+03  0.90988631098E+02 0.  0.
         11    1    3    3    0    0  0.12003679608E+02 -0.28557787121E+02 -0.11154582944E+03  0.11576747209E+03  0.00000000000E+00 0. -1.
        -12    1    3    3    0    0 -0.18526562382E+01  0.53361421247E+02 -0.14943818930E+03  0.15869040940E+03  0.00000000000E+00 0.  1.
        -11    1    4    4    0    0 -0.38474861396E+02 -0.48051205860E+02 -0.64668471992E+02  0.89281826895E+02  0.00000000000E+00 0. -1.
         11    1    4    4    0    0  0.43676690569E+02 -0.74551828882E+01 -0.31457608420E+02  0.54339802893E+02  0.00000000000E+00 0.  1.
         21    1    1    2  502  501 -0.15352852543E+02  0.30702754622E+02  0.10782477342E+02  0.35980981646E+02  0.00000000000E+00 0.  1.
<scales pt_clust_5="13000.00000" pt_clust_6="13000.00000" pt_clust_7="13000.00000" pt_clust_8="13000.00000" pt_clust_9="34.32738"></scales>
<clustering>
<clus scale="   34.327">  1  9  2 -1</clus>
<clus scale="   80.599">  5  6 -1 -1</clus>
<clus scale="   86.832">  2  5  1 -1</clus>
<clus scale="   90.989">  7  8 -1 -1</clus>
<clus scale="   34.327">  1  5  2 -1</clus>
</clustering>
</event>
<event>
 9    1  0.1973774E-005  0.1538610E+03  0.7546771E-02  0.1198130E+00
         -2   -1    0    0    0  501 -0.00000000000E+00  0.00000000000E+00  0.13927361673E+03  0.13927361673E+03  0.00000000000E+00 0.  1.
          1   -1    0    0  502    0  0.00000000000E+00 -0.00000000000E+00 -0.54772895875E+03  0.54772895875E+03  0.00000000000E+00 0. -1.
         23    2    1    2    0    0  0.12426329992E+03 -0.15065521382E+02  0.76454095847E+02  0.17387217172E+03  0.93370047052E+02 0.  0.
        -24    2    1    2    0    0 -0.10322291104E+03  0.74785103488E+01 -0.30614923495E+03  0.33297638396E+03  0.80218580985E+02 0.  0.
         11    1    4    4    0    0 -0.63196765195E+02 -0.27102737084E+02 -0.23142620820E+03  0.24142592928E+03  0.00000000000E+00 0. -1.
        -12    1    4    4    0    0 -0.40026145843E+02  0.34581247433E+02 -0.74723026752E+02  0.91550454680E+02  0.00000000000E+00 0.  1.
        -11    1    3    3    0    0  0.10760328104E+03 -0.29546135802E+02  0.93819994000E+02  0.14578625280E+03  0.00000000000E+00 0.  1.
         11    1    3    3    0    0  0.16660018883E+02  0.14480614421E+02 -0.17365898153E+02  0.28085918925E+02  0.00000000000E+00 0. -1.
         21    1    1    2  502  501 -0.21040388885E+02  0.75870110332E+01 -0.17876020291E+03  0.18015401979E+03  0.00000000000E+00 0. -1.
<scales pt_clust_5="13000.00000" pt_clust_6="13000.00000" pt_clust_7="13000.00000" pt_clust_8="13000.00000" pt_clust_9="22.36651"></scales>
<clustering>
<clus scale="   22.367">  2  9  1 -1</clus>
<clus scale="   80.219">  5  6 -1 -1</clus>
<clus scale="   93.370">  7  8 -1 -1</clus>
<clus scale="  146.254">  2  5  1 -1</clus>
<clus scale="   22.367">  2  5  1 -1</clus>
</clustering>
</event>
<event>
 9    1  0.1973774E-005  0.1133429E+03  0.7546771E-02  0.1257817E+00
          1   -1    0    0  502    0  0.00000000000E+00  0.00000000000E+00  0.11826529638E+03  0.11826529638E+03  0.00000000000E+00 0. -1.
         -2   -1    0    0    0  501 -0.00000000000E+00 -0.00000000000E+00 -0.36888937972E+03  0.36888937972E+03  0.00000000000E+00 0.  1.
        -24    2    1    2    0    0 -0.27102518586E+02 -0.63615690085E+02 -0.15427374606E+03  0.18695638093E+03  0.79817273258E+02 0.  0.
         23    2    1    2    0    0  0.75115754031E+02  0.12227809261E+02  0.57846624129E+02  0.13072060347E+03  0.89161361728E+02 0.  0.
         11    1    3    3    0    0 -0.66964143553E+00 -0.48345065912E+02 -0.14812522564E+03  0.15581648272E+03  0.00000000000E+00 0. -1.
        -12    1    3    3    0    0 -0.26432877151E+02 -0.15270624173E+02 -0.61485204167E+01  0.31139898208E+02  0.00000000000E+00 0.  1.
        -11    1    4    4    0    0  0.37720614967E+02  0.50908352258E+02  0.29139550327E+02  0.69739648095E+02  0.00000000000E+00 0. -1.
         11    1    4    4    0    0  0.37395139064E+02 -0.38680542996E+02  0.28707073802E+02  0.60980955374E+02  0.00000000000E+00 0.  1.
         21    1    1    2  502  501 -0.48013235445E+02  0.51387880824E+02 -0.15419696141E+03  0.16947769169E+03  0.00000000000E+00 0.  1.
<scales pt_clust_5="13000.00000" pt_clust_6="13000.00000" pt_clust_7="13000.00000" pt_clust_8="13000.00000" pt_clust_9="70.32770"></scales>
<clustering>
<clus scale="   70.328">  2  9  1 -1</clus>
<clus scale="   79.817">  5  6 -1 -1</clus>
<clus scale="   89.161">  7  8 -1 -1</clus>
<clus scale="  106.149">  2  5  1 -1</clus>
<clus scale="  113.343">  1  5  2 -1</clus>
</clustering>
</event>
<event>
 9    1  0.1973774E-005  0.1287456E+03  0.7546771E-02  0.1231712E+00
          1   -1    0    0  502    0  0.00000000000E+00  0.00000000000E+00  0.23690599480E+03  0.23690599480E+03  0.00000000000E+00 0. -1.
         -2   -1    0    0    0  501 -0.00000000000E+00 -0.00000000000E+00 -0.11070992786E+03  0.11070992786E+03  0.00000000000E+00 0.  1.
         23    2    1    2    0    0 -0.92255781879E+02 -0.20178607862E+02  0.75668039735E+01  0.13036508597E+03  0.89551625397E+02 0.  0.
        -24    2    1    2    0    0  0.81980039803E+02  0.41503268130E+02  0.30310008156E+02  0.12581439548E+03  0.80419632705E+02 0.  0.
         11    1    4    4    0    0  0.69222527597E+02  0.16224521772E+02  0.53690531847E+02  0.89093583628E+02  0.00000000000E+00 0. -1.
        -12    1    4    4    0    0  0.12757512206E+02  0.25278746359E+02 -0.23380523691E+02  0.36720811854E+02  0.00000000000E+00 0.  1.
        -11    1    3    3    0    0 -0.11553104857E+02  0.27344319045E+02  0.20136141414E+02  0.35869906703E+02  0.00000000000E+00 0. -1.
         11    1    3    3    0    0 -0.80702677022E+02 -0.47522926907E+02 -0.12569337440E+02  0.94495179263E+02  0.00000000000E+00 0.  1.
         21    1    1    2  502  501  0.10275742076E+02 -0.21324660269E+02  0.88319254812E+02  0.91436441211E+02  0.00000000000E+00 0.  1.
<scales pt_clust_5="13000.00000" pt_clust_6="13000.00000" pt_clust_7="13000.00000" pt_clust_8="13000.00000" pt_clust_9="23.67133"></scales>
<clustering>
<clus scale="   23.671">  1  9  2 -1</clus>
<clus scale="   80.420">  5  6 -1 -1</clus>
<clus scale="   89.552">  7  8 -1 -1</clus>
<clus scale="  122.569">  1  5  2 -1</clus>
<clus scale="   23.671">  1  5  2 -1</clus>
</clustering>
</event>
<event>
 9    1  0.1973774E-005  0.1074688E+03  0.7546771E-02  0.1271184E+00
          3   -1    0    0  502    0  0.00000000000E+00  0.00000000000E+00  0.32332655991E+03  0.32332655991E+03  0.00000000000E+00 0. -1.
         -4   -1    0    0    0  501 -0.00000000000E+00 -0.00000000000E+00 -0.77030611911E+02  0.77030611911E+02  0.00000000000E+00 0.  1.
         23    2    1    2    0    0 -0.47811920927E+01 -0.55717156012E+02 -0.14752907566E+02  0.11027840693E+03  0.93895779886E+02 0.  0.
        -24    2    1    2    0    0  0.25810437705E+02  0.36344925479E+02  0.15486824806E+03  0.18011588981E+03  0.80438965697E+02 0.  0.
         11    1    4    4    0    0 -0.83590470132E+01  0.53049892716E+02  0.84374915143E+02  0.10001645409E+03  0.00000000000E+00 0. -1.
        -12    1    4    4    0    0  0.34169484718E+02 -0.16704967237E+02  0.70493332915E+02  0.80099435714E+02  0.00000000000E+00 0.  1.
        -13    1    3    3    0    0 -0.12047963442E+01 -0.81982323331E+02 -0.16790268609E+02  0.83692687811E+02  0.00000000000E+00 0.  1.
         13    1    3    3    0    0 -0.35763957484E+01  0.26265167319E+02  0.20373610421E+01  0.26585719115E+02  0.00000000000E+00 0. -1.
         21    1    1    2  502  501 -0.21029245612E+02  0.19372230534E+02  0.10618060751E+03  0.10996287509E+03  0.00000000000E+00 0. -1.
<scales pt_clust_5="13000.00000" pt_clust_6="13000.00000" pt_clust_7="13000.00000" pt_clust_8="13000.00000" pt_clust_9="28.59218"></scales>
<clustering>
<clus scale="   28.592">  1  9  2 -1</clus>
<clus scale="   80.439">  5  6 -1 -1</clus>
<clus scale="   93.896">  7  8 -1 -1</clus>
<clus scale="   95.935">  1  5  2 -1</clus>
<clus scale="   28.592">  1  5  2 -1</clus>
</clustering>
</event>
<event>
 9    1  0.1973774E-005  0.1080543E+03  0.7546771E-02  0.1271329E+00
          1   -1    0    0  502    0  0.00000000000E+00  0.00000000000E+00  0.80886508028E+02  0.80886508028E+02  0.00000000000E+00 0. -1.
         -2   -1    0    0    0  501 -0.00000000000E+00 -0.00000000000E+00 -0.20642547782E+03  0.20642547782E+03  0.00000000000E+00 0.  1.
        -24    2    1    2    0    0 -0.25632368248E+02  0.53596948218E+02 -0.11043913182E+03  0.14829500469E+03  0.79151471360E+02 0.  0.
         23    2    1    2    0    0  0.21632111925E+01 -0.35816419819E+02 -0.29809198493E+02  0.10610324831E+03  0.95298560195E+02 0.  0.
         13    1    3    3    0    0  0.27475447199E+02  0.70915001230E+01 -0.31750754659E+02  0.42582860334E+02  0.00000000000E+00 0. -1.
        -14    1    3    3    0    0 -0.53107815447E+02  0.46505448095E+02 -0.78688377163E+02  0.10571214436E+03  0.00000000000E+00 0.  1.
        -11    1    4    4    0    0  0.27382975126E+02  0.13414743486E+02  0.15861182793E+02  0.34370914872E+02  0.00000000000E+00 0. -1.
         11    1    4    4    0    0 -0.25219763934E+02 -0.49231163305E+02 -0.45670381286E+02  0.71732333435E+02  0.00000000000E+00 0.  1.
         21    1    1    2  502  501  0.23469157055E+02 -0.17780528400E+02  0.14709360524E+02  0.32913732849E+02  0.00000000000E+00 0.  1.
<scales pt_clust_5="13000.00000" pt_clust_6="13000.00000" pt_clust_7="13000.00000" pt_clust_8="13000.00000" pt_clust_9="29.44399"></scales>
<clustering>
<clus scale="   29.444">  1  9  2 -1</clus>
<clus scale="   79.151">  5  6 -1 -1</clus>
<clus scale="   94.122">  2  5  1 -1</clus>
<clus scale="   95.299">  7  8 -1 -1</clus>
<clus scale="   29.444">  1  5  2 -1</clus>
</clustering>
</event>
<event>
 9    1  0.1973774E-005  0.1034588E+03  0.7546771E-02  0.1278579E+00
         -2   -1    0    0    0  501 -0.00000000000E+00  0.00000000000E+00  0.32607703343E+02  0.32607703343E+02  0.00000000000E+00 0.  1.
          1   -1    0    0  502    0  0.00000000000E+00 -0.00000000000E+00 -0.53932359991E+03  0.53932359991E+03  0.00000000000E+00 0. -1.
        -24    2    1    2    0    0  0.59379754400E+01 -0.49389187170E+02 -0.70285440136E+02  0.11769413212E+03  0.80232875300E+02 0.  0.
         23    2    1    2    0    0  0.16521526906E+02  0.40877910482E+02 -0.34864923696E+03  0.36322940461E+03  0.91844137100E+02 0.  0.
         11    1    3    3    0    0 -0.44610965676E+00 -0.71328253280E+02 -0.49671241489E+02  0.86920371380E+02  0.00000000000E+00 0. -1.
        -12    1    3    3    0    0  0.63840850968E+01  0.21939066110E+02 -0.20614198647E+02  0.30773760741E+02  0.00000000000E+00 0.  1.
        -11    1    4    4    0    0 -0.34347027850E+02  0.94635782247E+01 -0.73757754241E+02  0.81911439650E+02  0.00000000000E+00 0. -1.
         11    1    4    4    0    0  0.50868554756E+02  0.31414332258E+02 -0.27489148272E+03  0.28131796496E+03  0.00000000000E+00 0.  1.
         21    1    1    2  502  501 -0.22459502346E+02  0.85112766881E+01 -0.87781219471E+02  0.91007766527E+02  0.00000000000E+00 0. -1.
<scales pt_clust_5="13000.00000" pt_clust_6="13000.00000" pt_clust_7="13000.00000" pt_clust_8="13000.00000" pt_clust_9="24.01814"></scales>
<clustering>
<clus scale="   24.018">  2  9  1 -1</clus>
<clus scale="   80.233">  5  6 -1 -1</clus>
<clus scale="   91.844">  7  8 -1 -1</clus>
<clus scale="   93.304">  1  5  2 -1</clus>
<clus scale="   24.018">  2  5  1 -1</clus>
</clustering>
</event>
<event>
 9    1  0.1973774E-005  0.1466491E+03  0.7546771E-02  0.1206922E+00
          1   -1    0    0  502    0  0.00000000000E+00  0.00000000000E+00  0.12569480019E+04  0.12569480019E+04  0.00000000000E+00 0. -1.
         -2   -1    0    0    0  501 -0.00000000000E+00 -0.00000000000E+00 -0.26471490629E+02  0.26471490629E+02  0.00000000000E+00 0.  1.
         23    2    1    2    0    0 -0.12580394160E+03 -0.20197138082E+02  0.30137888803E+03  0.33993047452E+03  0.92135428856E+02 0.  0.
        -24    2    1    2    0    0  0.84731999716E+02  0.68678135503E-01  0.72170003921E+03  0.73110771664E+03  0.80548309919E+02 0.  0.
         13    1    4    4    0    0  0.45485147087E+02 -0.28438108150E+02  0.19708961315E+03  0.20425949235E+03  0.00000000000E+00 0. -1.
        -14    1    4    4    0    0  0.39246852629E+02  0.28506786286E+02  0.52461042606E+03  0.52684822429E+03  0.00000000000E+00 0.  1.
        -13    1    3    3    0    0 -0.42408860798E+02 -0.22687052279E+01  0.21264931971E+03  0.21684877604E+03  0.00000000000E+00 0. -1.
         13    1    3    3    0    0 -0.83395080806E+02 -0.17928432854E+02  0.88729568319E+02  0.12308169848E+03  0.00000000000E+00 0.  1.
         21    1    1    2  502  501  0.41071941889E+02  0.20128459947E+02  0.20739758403E+03  0.21238130137E+03  0.00000000000E+00 0.  1.
<scales pt_clust_5="13000.00000" pt_clust_6="13000.00000" pt_clust_7="13000.00000" pt_clust_8="13000.00000" pt_clust_9="45.73903"></scales>
<clustering>
<clus scale="   45.739">  1  9  2 -1</clus>
<clus scale="   80.548">  5  6 -1 -1</clus>
<clus scale="   92.135">  7  8 -1 -1</clus>
<clus scale="  139.661">  1  5  2 -1</clus>
<clus scale="   45.739">  1  5  2 -1</clus>
</clustering>
</event>
<event>
 9    1  0.1973774E-005  0.9435839E+02  0.7546771E-02  0.1298635E+00
          1   -1    0    0  502    0  0.00000000000E+00  0.00000000000E+00  0.96985935832E+02  0.96985935832E+02  0.00000000000E+00 0. -1.
         -2   -1    0    0    0  501 -0.00000000000E+00 -0.00000000000E+00 -0.44337960454E+03  0.44337960454E+03  0.00000000000E+00 0.  1.
        -24    2    1    2    0    0  0.18989815766E+01  0.16900890337E+02 -0.36849852436E+03  0.37786840285E+03  0.81878698045E+02 0.  0.
         23    2    1    2    0    0 -0.11256290093E+02 -0.63166373221E+02  0.52506930570E+01  0.11237611472E+03  0.92109318795E+02 0.  0.
         13    1    3    3    0    0 -0.23743157780E+01  0.43215724034E+02 -0.11336887166E+03  0.12134964870E+03  0.00000000000E+00 0. -1.
        -14    1    3    3    0    0  0.42732973546E+01 -0.26314833697E+02 -0.25512965270E+03  0.25651875415E+03  0.00000000000E+00 0.  1.
        -11    1    4    4    0    0 -0.49208737643E+02 -0.49591467788E+02  0.13698685121E+02  0.71193170402E+02  0.00000000000E+00 0. -1.
         11    1    4    4    0    0  0.37952447550E+02 -0.13574905433E+02 -0.84479920638E+01  0.41182944315E+02  0.00000000000E+00 0.  1.
         21    1    1    2  502  501  0.93573085161E+01  0.46265482884E+02  0.16854162602E+02  0.50121022796E+02  0.00000000000E+00 0.  1.
<scales pt_clust_5="13000.00000" pt_clust_6="13000.00000" pt_clust_7="13000.00000" pt_clust_8="13000.00000" pt_clust_9="47.20227"></scales>
<clustering>
<clus scale="   47.202">  1  9  2 -1</clus>
<clus scale="   81.879">  5  6 -1 -1</clus>
<clus scale="   84.401">  2  5  1 -1</clus>
<clus scale="   92.109">  7  8 -1 -1</clus>
<clus scale="   47.202">  1  5  2 -1</clus>
</clustering>
</event>
<event>
 9    1  0.1973774E-005  0.1252284E+03  0.7546771E-02  0.1237442E+00
          1   -1    0    0  502    0  0.00000000000E+00  0.00000000000E+00  0.56503272881E+03  0.56503272881E+03  0.00000000000E+00 0. -1.
         -2   -1    0    0    0  501 -0.00000000000E+00 -0.00000000000E+00 -0.96366469544E+02  0.96366469544E+02  0.00000000000E+00 0.  1.
         23    2    1    2    0    0 -0.79170892451E+02 -0.34433987747E+02 -0.42680872293E+02  0.13325137211E+03  0.92089856048E+02 0.  0.
        -24    2    1    2    0    0  0.58662115705E+02  0.39853739290E+02  0.45739788331E+03  0.47017796323E+03  0.82613129090E+02 0.  0.
         11    1    4    4    0    0  0.69671112889E+02  0.42048259965E+02  0.25946114537E+03  0.27192316211E+03  0.00000000000E+00 0. -1.
        -12    1    4    4    0    0 -0.11008997184E+02 -0.21945206749E+01  0.19793673795E+03  0.19825480112E+03  0.00000000000E+00 0.  1.
        -11    1    3    3    0    0 -0.25218598891E+02  0.11176754557E+02 -0.55006901777E+02  0.61535817339E+02  0.00000000000E+00 0.  1.
         11    1    3    3    0    0 -0.53952293560E+02 -0.45610742304E+02  0.12326029484E+02  0.71715554775E+02  0.00000000000E+00 0. -1.
         21    1    1    2  502  501  0.20508776746E+02 -0.54197515430E+01  0.53949248251E+02  0.57969863009E+02  0.00000000000E+00 0. -1.
<scales pt_clust_5="13000.00000" pt_clust_6="13000.00000" pt_clust_7="13000.00000" pt_clust_8="13000.00000" pt_clust_9="21.21282"></scales>
<clustering>
<clus scale="   21.213">  1  9  2 -1</clus>
<clus scale="   82.613">  5  6 -1 -1</clus>
<clus scale="   92.090">  7  8 -1 -1</clus>
<clus scale="  118.434">  1  5  2 -1</clus>
<clus scale="   21.213">  1  5  2 -1</clus>
</clustering>
</event>
<event>
 9    1  0.1973774E-005  0.1002810E+03  0.7546771E-02  0.1284529E+00
         -2   -1    0    0    0  501 -0.00000000000E+00  0.00000000000E+00  0.25901068335E+03  0.25901068335E+03  0.00000000000E+00 0.  1.
          1   -1    0    0  502    0  0.00000000000E+00 -0.00000000000E+00 -0.15911582235E+03  0.15911582235E+03  0.00000000000E+00 0. -1.
         23    2    1    2    0    0  0.37122892592E+02 -0.21644818015E+02  0.22676593295E+03  0.24815083298E+03  0.91156131252E+02 0.  0.
        -24    2    1    2    0    0 -0.14544287457E+02  0.30549606704E+02 -0.10673886553E+03  0.13844165289E+03  0.81413089079E+02 0.  0.
         11    1    4    4    0    0 -0.40057353487E+02  0.33298555500E+02 -0.36344807379E+02  0.63516378913E+02  0.00000000000E+00 0. -1.
        -12    1    4    4    0    0  0.25513066031E+02 -0.27489487961E+01 -0.70394058153E+02  0.74925273980E+02  0.00000000000E+00 0.  1.
        -11    1    3    3    0    0  0.32520228308E+02 -0.54658431643E+02  0.11376795975E+03  0.13033901206E+03  0.00000000000E+00 0.  1.
         11    1    3    3    0    0  0.46026642843E+01  0.33013613628E+02  0.11299797320E+03  0.11781182093E+03  0.00000000000E+00 0. -1.
         21    1    1    2  502  501 -0.22578605135E+02 -0.89047886890E+01 -0.20132206415E+02  0.31534019829E+02  0.00000000000E+00 0.  1.
<scales pt_clust_5="13000.00000" pt_clust_6="13000.00000" pt_clust_7="13000.00000" pt_clust_8="13000.00000" pt_clust_9="24.27115"></scales>
<clustering>
<clus scale="   24.271">  2  9  1 -1</clus>
<clus scale="   81.413">  5  6 -1 -1</clus>
<clus scale="   91.156">  7  8 -1 -1</clus>
<clus scale="   91.515">  2  5  1 -1</clus>
<clus scale="   24.271">  2  5  1 -1</clus>
</clustering>
</event>
<event>
 9    1  0.1973774E-005  0.1006731E+03  0.7546771E-02  0.1285667E+00
          1   -1    0    0  502    0  0.00000000000E+00  0.00000000000E+00  0.65179703083E+03  0.65179703083E+03  0.00000000000E+00 0. -1.
         -2   -1    0    0    0  501 -0.00000000000E+00 -0.00000000000E+00 -0.60571085679E+02  0.60571085679E+02  0.00000000000E+00 0.  1.
        -24    2    1    2    0    0 -0.33201204308E+02 -0.26154320625E+02  0.31897026706E+02  0.94426498251E+02  0.78182957250E+02 0.  0.
         23    2    1    2    0    0  0.61467580597E+02 -0.55650484785E+02  0.12779029059E+03  0.17780913644E+03  0.91708727573E+02 0.  0.
         11    1    3    3    0    0 -0.51839248681E+02 -0.28085313936E+01  0.37486952455E+02  0.64034890152E+02  0.00000000000E+00 0. -1.
        -12    1    3    3    0    0  0.18638044374E+02 -0.23345789232E+02 -0.55899257489E+01  0.30391608098E+02  0.00000000000E+00 0.  1.
        -11    1    4    4    0    0  0.69866906330E+02 -0.24362935661E+02  0.39741763232E+02  0.83990148107E+02  0.00000000000E+00 0.  1.
         11    1    4    4    0    0 -0.83993257330E+01 -0.31287549124E+02  0.88048527358E+02  0.93818988338E+02  0.00000000000E+00 0. -1.
         21    1    1    2  502  501 -0.28266376290E+02  0.81804805410E+02  0.43153862785E+03  0.44013248181E+03  0.00000000000E+00 0. -1.
<scales pt_clust_5="13000.00000" pt_clust_6="13000.00000" pt_clust_7="13000.00000" pt_clust_8="13000.00000" pt_clust_9="86.55065"></scales>
<clustering>
<clus scale="   78.183">  5  6 -1 -1</clus>
<clus scale="   86.551">  1  9  2 -1</clus>
<clus scale="   88.528">  2  5  1 -1</clus>
<clus scale="   91.709">  7  8 -1 -1</clus>
<clus scale="   86.551">  1  5  2 -1</clus>
</clustering>
</event>
<event>
 9    1  0.1973774E-005  0.1499131E+03  0.7546771E-02  0.1203391E+00
         -2   -1    0    0    0  501 -0.00000000000E+00  0.00000000000E+00  0.41959173777E+03  0.41959173777E+03  0.00000000000E+00 0.  1.
          1   -1    0    0  502    0  0.00000000000E+00 -0.00000000000E+00 -0.22091722902E+03  0.22091722902E+03  0.00000000000E+00 0. -1.
         23    2    1    2    0    0 -0.15886866465E+03 -0.58848282421E+02 -0.10574463437E+02  0.19439321956E+03  0.94734004357E+02 0.  0.
        -24    2    1    2    0    0  0.46662402864E+02  0.93888280411E+02 -0.65520294850E+02  0.14725759233E+03  0.79996877575E+02 0.  0.
         11    1    4    4    0    0 -0.24309622007E+01  0.57727228939E+02 -0.31779379432E-01  0.57778400360E+02  0.00000000000E+00 0. -1.
        -12    1    4    4    0    0  0.49093365065E+02  0.36161051472E+02 -0.65488515470E+02  0.89479191969E+02  0.00000000000E+00 0.  1.
        -13    1    3    3    0    0 -0.85622177570E+02 -0.34317684359E+02 -0.52876114568E+02  0.10632377083E+03  0.00000000000E+00 0. -1.
         13    1    3    3    0    0 -0.73246487082E+02 -0.24530598062E+02  0.42301651131E+02  0.88069448730E+02  0.00000000000E+00 0.  1.
         21    1    1    2  502  501  0.11220626179E+03 -0.35039997990E+02  0.27476926704E+03  0.29885815490E+03  0.00000000000E+00 0.  1.
<scales pt_clust_5="13000.00000" pt_clust_6="13000.00000" pt_clust_7="13000.00000" pt_clust_8="13000.00000" pt_clust_9="117.55019"></scales>
<clustering>
<clus scale="   79.997">  5  6 -1 -1</clus>
<clus scale="   94.734">  7  8 -1 -1</clus>
<clus scale="  117.550">  1  9  2 -1</clus>
<clus scale="  141.064">  2  5  1 -1</clus>
<clus scale="  141.064">  2  5  1 -1</clus>
</clustering>
</event>
<event>
 9    1  0.1973774E-005  0.1387167E+03  0.7546771E-02  0.1217203E+00
         -2   -1    0    0    0  501 -0.00000000000E+00  0.00000000000E+00  0.19227174539E+03  0.19227174539E+03  0.00000000000E+00 0.  1.
          1   -1    0    0  502    0  0.00000000000E+00 -0.00000000000E+00 -0.60263787639E+03  0.60263787639E+03  0.00000000000E+00 0. -1.
        -24    2    1    2    0    0 -0.80484994019E+02 -0.86880176025E+02  0.12058959753E+03  0.18699851060E+03  0.80003704196E+02 0.  0.
         23    2    1    2    0    0  0.94886123645E+02 -0.33851340793E+02 -0.12431665377E+03  0.18348346268E+03  0.89790093755E+02 0.  0.
         11    1    3    3    0    0 -0.13895860330E+02 -0.43304931532E+02  0.37524724972E+01  0.45634341007E+02  0.00000000000E+00 0. -1.
        -12    1    3    3    0    0 -0.66589133689E+02 -0.43575244494E+02  0.11683712504E+03  0.14136416959E+03  0.00000000000E+00 0.  1.
        -13    1    4    4    0    0  0.86901058291E+02  0.12340671495E+02 -0.75125353577E+02  0.11553313315E+03  0.00000000000E+00 0. -1.
         13    1    4    4    0    0  0.79850653537E+01 -0.46192012288E+02 -0.49191300198E+02  0.67950329529E+02  0.00000000000E+00 0.  1.
         21    1    1    2  502  501 -0.14401129626E+02  0.12073151682E+03 -0.40663907476E+03  0.42442764850E+03  0.00000000000E+00 0. -1.
<scales pt_clust_5="13000.00000" pt_clust_6="13000.00000" pt_clust_7="13000.00000" pt_clust_8="13000.00000" pt_clust_9="121.58738"></scales>
<clustering>
<clus scale="   80.004">  5  6 -1 -1</clus>
<clus scale="   89.790">  7  8 -1 -1</clus>
<clus scale="  121.587">  2  9  1 -1</clus>
<clus scale="  132.592">  1  5  2 -1</clus>
<clus scale="  121.587">  2  5  1 -1</clus>
</clustering>
</event>
<event>
 9    1  0.1973774E-005  0.1018794E+03  0.7546771E-02  0.1282899E+00
         -2   -1    0    0    0  501 -0.00000000000E+00  0.00000000000E+00  0.12160685639E+03  0.12160685639E+03  0.00000000000E+00 0.  1.
          1   -1    0    0  502    0  0.00000000000E+00 -0.00000000000E+00 -0.29455970037E+03  0.29455970037E+03  0.00000000000E+00 0. -1.
         23    2    1    2    0    0 -0.39247563633E+02  0.54742655251E+00  0.66929924516E+02  0.12016148377E+03  0.91752364876E+02 0.  0.
        -24    2    1    2    0    0  0.61556782461E+02  0.99934055406E+01 -0.65006490924E+02  0.11939668462E+03  0.78362100628E+02 0.  0.
         11    1    4    4    0    0  0.37940868130E+02 -0.98702510099E+01 -0.76906836380E+02  0.86322608924E+02  0.00000000000E+00 0. -1.
        -12    1    4    4    0    0  0.23615914330E+02  0.19863656550E+02  0.11900345456E+02  0.33074075696E+02  0.00000000000E+00 0.  1.
        -11    1    3    3    0    0 -0.25015317585E+02 -0.36091659252E+02  0.67877478653E+02  0.80843837673E+02  0.00000000000E+00 0.  1.
         11    1    3    3    0    0 -0.14232246048E+02  0.36639085804E+02 -0.94755413649E+00  0.39317646102E+02  0.00000000000E+00 0. -1.
         21    1    1    2  502  501 -0.22309218828E+02 -0.10540832093E+02 -0.17487627757E+03  0.17660838837E+03  0.00000000000E+00 0. -1.
<scales pt_clust_5="13000.00000" pt_clust_6="13000.00000" pt_clust_7="13000.00000" pt_clust_8="13000.00000" pt_clust_9="24.67408"></scales>
<clustering>
<clus scale="   24.674">  2  9  1 -1</clus>
<clus scale="   78.362">  5  6 -1 -1</clus>
<clus scale="   90.008">  2  5  1 -1</clus>
<clus scale="   91.752">  7  8 -1 -1</clus>
<clus scale="   24.674">  2  5  1 -1</clus>
</clustering>
</event>
<event>
 9    1  0.1973774E-005  0.1190894E+03  0.7546771E-02  0.1250130E+00
          1   -1    0    0  502    0  0.00000000000E+00  0.00000000000E+00  0.13439264653E+03  0.13439264653E+03  0.00000000000E+00 0. -1.
         -2   -1    0    0    0  501 -0.00000000000E+00 -0.00000000000E+00 -0.17750859468E+03  0.17750859468E+03  0.00000000000E+00 0.  1.
         23    2    1    2    0    0 -0.80456416502E+02  0.71807594952E+00 -0.10194502501E+03  0.15831309598E+03  0.90534510802E+02 0.  0.
        -24    2    1    2    0    0  0.66471694532E+02  0.32057159023E+02  0.55194068015E+02  0.11776913122E+03  0.73328272204E+02 0.  0.
         13    1    4    4    0    0  0.32647963122E+02 -0.10861542452E+02 -0.68598785312E+01  0.35084477108E+02  0.00000000000E+00 0. -1.
        -14    1    4    4    0    0  0.33823731410E+02  0.42918701475E+02  0.62053946547E+02  0.82684654107E+02  0.00000000000E+00 0.  1.
        -11    1    3    3    0    0 -0.57400657794E+02 -0.24423382195E+02 -0.10697228263E+03  0.12383217015E+03  0.00000000000E+00 0.  1.
         11    1    3    3    0    0 -0.23055758708E+02  0.25141458144E+02  0.50272576199E+01  0.34480925834E+02  0.00000000000E+00 0. -1.
         21    1    1    2  502  501  0.13984721970E+02 -0.32775234972E+02  0.36350088431E+01  0.35819014020E+02  0.00000000000E+00 0. -1.
<scales pt_clust_5="13000.00000" pt_clust_6="13000.00000" pt_clust_7="13000.00000" pt_clust_8="13000.00000" pt_clust_9="35.63409"></scales>
<clustering>
<clus scale="   35.634">  1  9  2 -1</clus>
<clus scale="   73.328">  5  6 -1 -1</clus>
<clus scale="   90.535">  7  8 -1 -1</clus>
<clus scale="  106.597">  1  5  2 -1</clus>
<clus scale="   35.634">  1  5  2 -1</clus>
</clustering>
</event>
<event>
 9    1  0.1973774E-005  0.1198281E+03  0.7546771E-02  0.1246635E+00
         -2   -1    0    0    0  501 -0.00000000000E+00  0.00000000000E+00  0.16362995707E+03  0.16362995707E+03  0.00000000000E+00 0.  1.
          1   -1    0    0  502    0  0.00000000000E+00 -0.00000000000E+00 -0.31105841072E+03  0.31105841072E+03  0.00000000000E+00 0. -1.
         23    2    1    2    0    0  0.69588196850E+02  0.34519202681E+02  0.12088825555E+03  0.16989442639E+03  0.90642447532E+02 0.  0.
        -24    2    1    2    0    0 -0.86742773415E+02 -0.16164033827E+02 -0.22659409691E+03  0.25609108626E+03  0.80325431708E+02 0.  0.
         13    1    4    4    0    0 -0.35699485149E+02 -0.47236277346E+02 -0.12266125456E+03  0.13620390049E+03  0.00000000000E+00 0. -1.
        -14    1    4    4    0    0 -0.51043288266E+02  0.31072243519E+02 -0.10393284235E+03  0.11988718577E+03  0.00000000000E+00 0.  1.
        -13    1    3    3    0    0  0.40893829620E+02 -0.54491932400E+01  0.20875351979E+01  0.41308071986E+02  0.00000000000E+00 0. -1.
         13    1    3    3    0    0  0.28694367230E+02  0.39968395920E+02  0.11880072036E+03  0.12858635441E+03  0.00000000000E+00 0.  1.
         21    1    1    2  502  501  0.17154576565E+02 -0.18355168854E+02 -0.41722612300E+02  0.48702855131E+02  0.00000000000E+00 0. -1.
<scales pt_clust_5="13000.00000" pt_clust_6="13000.00000" pt_clust_7="13000.00000" pt_clust_8="13000.00000" pt_clust_9="25.12353"></scales>
<clustering>
<clus scale="   25.124">  2  9  1 -1</clus>
<clus scale="   80.325">  5  6 -1 -1</clus>
<clus scale="   90.642">  7  8 -1 -1</clus>
<clus scale="  112.227">  2  5  1 -1</clus>
<clus scale="   25.124">  2  5  1 -1</clus>
</clustering>
</event>
<event>
 9    1  0.1973774E-005  0.9131156E+02  0.7546771E-02  0.1305921E+00
          1   -1    0    0  502    0  0.00000000000E+00  0.00000000000E+00  0.25443668152E+03  0.25443668152E+03  0.00000000000E+00 0. -1.
         -2   -1    0    0    0  501 -0.00000000000E+00 -0.00000000000E+00 -0.82543462546E+02  0.82543462546E+02  0.00000000000E+00 0.  1.
        -24    2    1    2    0    0 -0.94195619995E+01  0.33164758357E+01 -0.43917693998E+02  0.92711987848E+02  0.81037162367E+02 0.  0.
         23    2    1    2    0    0 -0.44807066193E+00  0.16306771630E+02  0.17783181066E+03  0.20039499554E+03  0.90927937326E+02 0.  0.
         11    1    3    3    0    0 -0.45403189825E+02  0.92024125371E+00 -0.27475434187E+02  0.53077264192E+02  0.00000000000E+00 0. -1.
        -12    1    3    3    0    0  0.35983627826E+02  0.23962345820E+01 -0.16442259811E+02  0.39634723657E+02  0.00000000000E+00 0.  1.
        -11    1    4    4    0    0  0.13008685669E+02 -0.35053182902E+02  0.94017206664E+02  0.10117898341E+03  0.00000000000E+00 0.  1.
         11    1    4    4    0    0 -0.13456756331E+02  0.51359954532E+02  0.83814603994E+02  0.99216012131E+02  0.00000000000E+00 0. -1.
         21    1    1    2  502  501  0.98676326614E+01 -0.19623247466E+02  0.37979102315E+02  0.43873160680E+02  0.00000000000E+00 0.  1.
<scales pt_clust_5="13000.00000" pt_clust_6="13000.00000" pt_clust_7="13000.00000" pt_clust_8="13000.00000" pt_clust_9="21.96456"></scales>
<clustering>
<clus scale="   21.965">  1  9  2 -1</clus>
<clus scale="   81.037">  5  6 -1 -1</clus>
<clus scale="   81.467">  2  5  1 -1</clus>
<clus scale="   90.928">  7  8 -1 -1</clus>
<clus scale="   21.965">  1  5  2 -1</clus>
</clustering>
</event>
<event>
 9    1  0.1973774E-005  0.1384215E+03  0.7546771E-02  0.1235139E+00
          1   -1    0    0  502    0  0.00000000000E+00  0.00000000000E+00  0.11391558910E+04  0.11391558910E+04  0.00000000000E+00 0. -1.
         -2   -1    0    0    0  501 -0.00000000000E+00 -0.00000000000E+00 -0.29739861211E+02  0.29739861211E+02  0.00000000000E+00 0.  1.
        -24    2    1    2    0    0 -0.41363527919E+02 -0.16348866298E+02  0.13604785855E+03  0.16418953714E+03  0.80442261389E+02 0.  0.
         23    2    1    2    0    0 -0.43958630831E+02  0.89350989170E+02  0.58307272596E+03  0.59857850694E+03  0.91686775022E+02 0.  0.
         13    1    3    3    0    0 -0.13809738248E+02  0.22301877075E+02  0.76886047792E+01  0.27334908725E+02  0.00000000000E+00 0. -1.
        -14    1    3    3    0    0 -0.27553789670E+02 -0.38650743373E+02  0.12835925377E+03  0.13685462841E+03  0.00000000000E+00 0.  1.
        -13    1    4    4    0    0 -0.19666738664E+02  0.89564664309E+02  0.54972549341E+03  0.55732102760E+03  0.00000000000E+00 0. -1.
         13    1    4    4    0    0 -0.24291892167E+02 -0.21367513893E+00  0.33347232555E+02  0.41257479336E+02  0.00000000000E+00 0.  1.
         21    1    1    2  502  501  0.85322158750E+02 -0.73002122872E+02  0.39029544531E+03  0.40612770817E+03  0.00000000000E+00 0.  1.
<scales pt_clust_5="13000.00000" pt_clust_6="13000.00000" pt_clust_7="13000.00000" pt_clust_8="13000.00000" pt_clust_9="103.70168"></scales>
<clustering>
<clus scale="   80.442">  5  6 -1 -1</clus>
<clus scale="   91.687">  7  8 -1 -1</clus>
<clus scale="   91.919">  2  5  1 -1</clus>
<clus scale="  103.702">  2  9  1 -1</clus>
<clus scale="  138.421">  1  5  2 -1</clus>
</clustering>
</event>
<event>
 9    1  0.1973774E-005  0.9332852E+02  0.7546771E-02  0.1299840E+00
          1   -1    0    0  502    0  0.00000000000E+00  0.00000000000E+00  0.31007160200E+03  0.31007160200E+03  0.00000000000E+00 0. -1.
         -2   -1    0    0    0  501 -0.00000000000E+00 -0.00000000000E+00 -0.13032273539E+03  0.13032273539E+03  0.00000000000E+00 0.  1.
         23    2    1    2    0    0 -0.17978661173E+02 -0.14035777599E+02 -0.98141674185E+02  0.13506014265E+03  0.89940083442E+02 0.  0.
        -24    2    1    2    0    0  0.30187554549E+02  0.33766380224E+02  0.16035897288E+03  0.18553426480E+03  0.81587415373E+02 0.  0.
         11    1    4    4    0    0  0.29953505905E+02  0.59694534663E+02  0.12449683853E+03  0.14128026326E+03  0.00000000000E+00 0. -1.
        -12    1    4    4    0    0  0.23404864472E+00 -0.25928154438E+02  0.35862134358E+02  0.44254001537E+02  0.00000000000E+00 0.  1.
        -13    1    3    3    0    0  0.96463306294E+01  0.27137176300E+02 -0.45659635497E+01  0.29160350741E+02  0.00000000000E+00 0. -1.
         13    1    3    3    0    0 -0.27624991803E+02 -0.41172953900E+02 -0.93575710636E+02  0.10589979191E+03  0.00000000000E+00 0.  1.
         21    1    1    2  502  501 -0.12208893376E+02 -0.19730602625E+02  0.11753156791E+03  0.11979992994E+03  0.00000000000E+00 0. -1.
<scales pt_clust_5="13000.00000" pt_clust_6="13000.00000" pt_clust_7="13000.00000" pt_clust_8="13000.00000" pt_clust_9="23.20245"></scales>
<clustering>
<clus scale="   23.202">  1  9  2 -1</clus>
<clus scale="   81.587">  5  6 -1 -1</clus>
<clus scale="   85.308">  1  5  2 -1</clus>
<clus scale="   89.940">  7  8 -1 -1</clus>
<clus scale="   23.202">  1  5  2 -1</clus>
</clustering>
</event>
<event>
 9    1  0.1973774E-005  0.1776544E+03  0.7546771E-02  0.1199837E+00
         -2   -1    0    0    0  501 -0.00000000000E+00  0.00000000000E+00  0.14750312734E+04  0.14750312734E+04  0.00000000000E+00 0.  1.
          1   -1    0    0  502    0  0.00000000000E+00 -0.00000000000E+00 -0.32320110225E+03  0.32320110225E+03  0.00000000000E+00 0. -1.
        -24    2    1    2    0    0 -0.13088902152E+02 -0.40672314306E+02  0.11642909329E+04  0.11678843621E+04  0.80962648345E+02 0.  0.
         23    2    1    2    0    0  0.30074535441E+02 -0.11245447132E+03  0.27018872677E+03  0.30843644558E+03  0.92631566367E+02 0.  0.
         11    1    3    3    0    0 -0.26265153516E+02 -0.25759874642E+02  0.19801236208E+03  0.20140090607E+03  0.00000000000E+00 0. -1.
        -12    1    3    3    0    0  0.13176251364E+02 -0.14912439664E+02  0.96627857080E+03  0.96648345607E+03  0.00000000000E+00 0.  1.
        -11    1    4    4    0    0  0.53344627016E+02 -0.11277234633E+03  0.21555561805E+03  0.24905315859E+03  0.00000000000E+00 0.  1.
         11    1    4    4    0    0 -0.23270091576E+02  0.31787500411E+00  0.54633108714E+02  0.59383286994E+02  0.00000000000E+00 0. -1.
         21    1    1    2  502  501 -0.16985633288E+02  0.15312678563E+03 -0.28264948850E+03  0.32191156792E+03  0.00000000000E+00 0. -1.
<scales pt_clust_5="13000.00000" pt_clust_6="13000.00000" pt_clust_7="13000.00000" pt_clust_8="13000.00000" pt_clust_9="151.59308"></scales>
<clustering>
<clus scale="   80.963">  5  6 -1 -1</clus>
<clus scale="   91.545">  1  5  2 -1</clus>
<clus scale="   92.632">  7  8 -1 -1</clus>
<clus scale="  151.593">  2  9  1 -1</clus>
<clus scale="  151.593">  2  5  1 -1</clus>
</clustering>
</event>
<event>
 9    1  0.1973774E-005  0.2231655E+03  0.7546771E-02  0.1170335E+00
          1   -1    0    0  502    0  0.00000000000E+00  0.00000000000E+00  0.65025852829E+03  0.65025852829E+03  0.00000000000E+00 0. -1.
         -2   -1    0    0    0  501 -0.00000000000E+00 -0.00000000000E+00 -0.11460045141E+03  0.11460045141E+03  0.00000000000E+00 0.  1.
        -24    2    1    2    0    0  0.10498442171E+02  0.35385222969E+02  0.28143037635E+02  0.93466642207E+02  0.81127377287E+02 0.  0.
         23    2    1    2    0    0 -0.87802113338E+02  0.17144587092E+03  0.30353336655E+03  0.37078714497E+03  0.90816873434E+02 0.  0.
         11    1    3    3    0    0 -0.18686823150E+02  0.51674368467E+02  0.23336578342E+02  0.59699527674E+02  0.00000000000E+00 0. -1.
        -12    1    3    3    0    0  0.29185265321E+02 -0.16289145498E+02  0.48064592937E+01  0.33767114532E+02  0.00000000000E+00 0.  1.
        -11    1    4    4    0    0 -0.29862505049E+02  0.14305945167E+03  0.23437689272E+03  0.27620699441E+03  0.00000000000E+00 0. -1.
         11    1    4    4    0    0 -0.57939608289E+02  0.28386419250E+02  0.69156473833E+02  0.94580150558E+02  0.00000000000E+00 0.  1.
         21    1    1    2  502  501  0.77303671167E+02 -0.20683109389E+03  0.20398167270E+03  0.30060519253E+03  0.00000000000E+00 0.  1.
<scales pt_clust_5="13000.00000" pt_clust_6="13000.00000" pt_clust_7="13000.00000" pt_clust_8="13000.00000" pt_clust_9="203.85082"></scales>
<clustering>
<clus scale="   81.127">  5  6 -1 -1</clus>
<clus scale="   89.129">  2  5  1 -1</clus>
<clus scale="   90.817">  7  8 -1 -1</clus>
<clus scale="  203.851">  2  9  1 -1</clus>
<clus scale="  223.166">  1  5  2 -1</clus>
</clustering>
</event>
<event>
 9    1  0.1973774E-005  0.1096146E+03  0.7546771E-02  0.1266791E+00
          1   -1    0    0  502    0  0.00000000000E+00  0.00000000000E+00  0.41185022795E+02  0.41185022795E+02  0.00000000000E+00 0. -1.
         -2   -1    0    0    0  501 -0.00000000000E+00 -0.00000000000E+00 -0.61722865610E+03  0.61722865610E+03  0.00000000000E+00 0.  1.
        -24    2    1    2    0    0  0.36802864894E+02  0.39500600847E+02 -0.44975507733E+03  0.46008290205E+03  0.80510240639E+02 0.  0.
         23    2    1    2    0    0 -0.64188895215E+02 -0.39673321354E+02 -0.80074567388E+02  0.14461153233E+03  0.93842273232E+02 0.  0.
         13    1    3    3    0    0 -0.12677455299E+02  0.19511939156E+02 -0.35769184639E+02  0.42671632406E+02  0.00000000000E+00 0. -1.
        -14    1    3    3    0    0  0.49480320193E+02  0.19988661691E+02 -0.41398589269E+03  0.41741126964E+03  0.00000000000E+00 0.  1.
        -13    1    4    4    0    0 -0.58818593335E+02  0.15298922431E+02 -0.22447171121E+02  0.64788574925E+02  0.00000000000E+00 0. -1.
         13    1    4    4    0    0 -0.53703018799E+01 -0.54972243784E+02 -0.57627396267E+02  0.79822957409E+02  0.00000000000E+00 0.  1.
         21    1    1    2  502  501  0.27386030321E+02  0.17272050667E+00 -0.46213988587E+02  0.53719244506E+02  0.00000000000E+00 0. -1.
<scales pt_clust_5="13000.00000" pt_clust_6="13000.00000" pt_clust_7="13000.00000" pt_clust_8="13000.00000" pt_clust_9="27.38657"></scales>
<clustering>
<clus scale="   27.387">  1  9  2 -1</clus>
<clus scale="   80.510">  5  6 -1 -1</clus>
<clus scale="   93.842">  7  8 -1 -1</clus>
<clus scale="   98.442">  2  5  1 -1</clus>
<clus scale="   27.387">  1  5  2 -1</clus>
</clustering>
</event>
<event>
 9    1  0.1973774E-005  0.1165205E+03  0.7546771E-02  0.1251438E+00
          3   -1    0    0  502    0  0.00000000000E+00  0.00000000000E+00  0.95778954804E+03  0.95778954804E+03  0.00000000000E+00 0. -1.
         -4   -1    0    0    0  501 -0.00000000000E+00 -0.00000000000E+00 -0.23948634345E+02  0.23948634345E+02  0.00000000000E+00 0.  1.
         23    2    1    2    0    0 -0.51378042301E+02  0.26717944714E+02  0.14562472330E+03  0.17973313102E+03  0.87999355400E+02 0.  0.
        -24    2    1    2    0    0  0.76154184745E+02 -0.28479838543E+02  0.72712141613E+03  0.73605406239E+03  0.80370815003E+02 0.  0.
         13    1    4    4    0    0  0.71553957233E+02 -0.47022136786E+02  0.43728038344E+03  0.44558409295E+03  0.00000000000E+00 0. -1.
        -14    1    4    4    0    0  0.46002275118E+01  0.18542298243E+02  0.28984103269E+03  0.29046996944E+03  0.00000000000E+00 0.  1.
        -13    1    3    3    0    0 -0.14902590862E+02  0.55250892251E+02  0.63732937555E+02  0.85654162995E+02  0.00000000000E+00 0. -1.
         13    1    3    3    0    0 -0.36475451438E+02 -0.28532947537E+02  0.81891785744E+02  0.94078968028E+02  0.00000000000E+00 0.  1.
         21    1    1    2  502  501 -0.24776142445E+02  0.17618938293E+01  0.61094774267E+02  0.65950988977E+02  0.00000000000E+00 0.  1.
<scales pt_clust_5="13000.00000" pt_clust_6="13000.00000" pt_clust_7="13000.00000" pt_clust_8="13000.00000" pt_clust_9="24.83871"></scales>
<clustering>
<clus scale="   24.839">  2  9  1 -1</clus>
<clus scale="   80.371">  5  6 -1 -1</clus>
<clus scale="   87.999">  7  8 -1 -1</clus>
<clus scale="  110.872">  1  5  2 -1</clus>
<clus scale="  110.872">  1  5  2 -1</clus>
</clustering>
</event>
<event>
 9    1  0.1973774E-005  0.1149389E+03  0.7546771E-02  0.1255459E+00
         -2   -1    0    0    0  501 -0.00000000000E+00  0.00000000000E+00  0.25023880900E+03  0.25023880900E+03  0.00000000000E+00 0.  1.
          1   -1    0    0  502    0  0.00000000000E+00 -0.00000000000E+00 -0.16469136529E+03  0.16469136529E+03  0.00000000000E+00 0. -1.
         23    2    1    2    0    0  0.26972925066E+02  0.63435192402E+02  0.19495301092E+03  0.22571778686E+03  0.90500168592E+02 0.  0.
        -24    2    1    2    0    0 -0.59858941446E+02 -0.64869122799E+02 -0.70508684755E+02  0.13825638980E+03  0.79701058522E+02 0.  0.
         11    1    4    4    0    0 -0.51190945616E+02  0.19515461196E+01 -0.25480298389E+02  0.57215094611E+02  0.00000000000E+00 0. -1.
        -12    1    4    4    0    0 -0.86679958300E+01 -0.66820668918E+02 -0.45028386366E+02  0.81041295184E+02  0.00000000000E+00 0.  1.
        -13    1    3    3    0    0  0.47977156256E+02  0.37161491094E+02  0.17797793007E+03  0.18803969670E+03  0.00000000000E+00 0.  1.
         13    1    3    3    0    0 -0.21004231190E+02  0.26273701308E+02  0.16975080856E+02  0.37678090163E+02  0.00000000000E+00 0. -1.
         21    1    1    2  502  501  0.32886016380E+02  0.14339303965E+01 -0.38896882464E+02  0.50955997637E+02  0.00000000000E+00 0. -1.
<scales pt_clust_5="13000.00000" pt_clust_6="13000.00000" pt_clust_7="13000.00000" pt_clust_8="13000.00000" pt_clust_9="32.91726"></scales>
<clustering>
<clus scale="   32.917">  2  9  1 -1</clus>
<clus scale="   79.701">  5  6 -1 -1</clus>
<clus scale="   90.500">  7  8 -1 -1</clus>
<clus scale="  106.644">  2  5  1 -1</clus>
<clus scale="   32.917">  2  5  1 -1</clus>
</clustering>
</event>
<event>
 9    1  0.1973774E-005  0.1696416E+03  0.7546771E-02  0.1179946E+00
         -2   -1    0    0    0  501 -0.00000000000E+00  0.00000000000E+00  0.15675706008E+03  0.15675706008E+03  0.00000000000E+00 0.  1.
          1   -1    0    0  502    0  0.00000000000E+00 -0.00000000000E+00 -0.35076745959E+03  0.35076745959E+03  0.00000000000E+00 0. -1.
         23    2    1    2    0    0 -0.96987968015E+02  0.13232217498E+03  0.36487502903E+02  0.19227014093E+03  0.93384395336E+02 0.  0.
        -24    2    1    2    0    0  0.27131144935E+02 -0.83845583702E+02 -0.18052733849E+03  0.21662875889E+03  0.81066135362E+02 0.  0.
         13    1    4    4    0    0 -0.63067698680E+01 -0.57995920076E+02 -0.15865364366E+03  0.16903928755E+03  0.00000000000E+00 0. -1.
        -14    1    4    4    0    0  0.33437914803E+02 -0.25849663626E+02 -0.21873694834E+02  0.47589471332E+02  0.00000000000E+00 0.  1.
        -11    1    3    3    0    0 -0.96452081090E+02  0.55838386242E+02  0.30517036952E+02  0.11555180167E+03  0.00000000000E+00 0. -1.
         11    1    3    3    0    0 -0.53588692587E+00  0.76483788741E+02  0.59704659506E+01  0.76718339258E+02  0.00000000000E+00 0.  1.
         21    1    1    2  502  501  0.69856823080E+02 -0.48476591280E+02 -0.49970563927E+02  0.98625619857E+02  0.00000000000E+00 0. -1.
<scales pt_clust_5="13000.00000" pt_clust_6="13000.00000" pt_clust_7="13000.00000" pt_clust_8="13000.00000" pt_clust_9="85.02915"></scales>
<clustering>
<clus scale="   81.066">  5  6 -1 -1</clus>
<clus scale="   85.029">  2  9  1 -1</clus>
<clus scale="   93.384">  7  8 -1 -1</clus>
<clus scale="  163.185">  2  5  1 -1</clus>
<clus scale="   85.029">  2  5  1 -1</clus>
</clustering>
</event>
<event>
 9    1  0.1973774E-005  0.1116249E+03  0.7546771E-02  0.1261384E+00
         -2   -1    0    0    0  501 -0.00000000000E+00  0.00000000000E+00  0.25668597471E+03  0.25668597471E+03  0.00000000000E+00 0.  1.
          1   -1    0    0  502    0  0.00000000000E+00 -0.00000000000E+00 -0.62019462704E+02  0.62019462704E+02  0.00000000000E+00 0. -1.
        -24    2    1    2    0    0 -0.31319248431E+02  0.24596972585E+02  0.12220701798E+03  0.16334941003E+03  0.10080956369E+03 0.  0.
         23    2    1    2    0    0  0.50986333690E+02 -0.30243395250E+02  0.77844954434E+02  0.13419758899E+03  0.91841639689E+02 0.  0.
         11    1    3    3    0    0 -0.42445846052E+02  0.74056723278E+01  0.38776460891E+01  0.43261183166E+02  0.00000000000E+00 0. -1.
        -12    1    3    3    0    0  0.11126597622E+02  0.17191300257E+02  0.11832937189E+03  0.12008822686E+03  0.00000000000E+00 0.  1.
        -11    1    4    4    0    0 -0.15873347687E+02 -0.29609183308E+02  0.53235413960E+02  0.62949791123E+02  0.00000000000E+00 0.  1.
         11    1    4    4    0    0  0.66859681377E+02 -0.63421194129E+00  0.24609540474E+02  0.71247797867E+02  0.00000000000E+00 0. -1.
         21    1    1    2  502  501 -0.19667085259E+02  0.56464226647E+01 -0.53854604064E+01  0.21158438394E+02  0.00000000000E+00 0. -1.
<scales pt_clust_5="13000.00000" pt_clust_6="13000.00000" pt_clust_7="13000.00000" pt_clust_8="13000.00000" pt_clust_9="20.46158"></scales>
<clustering>
<clus scale="   20.462">  2  9  1 -1</clus>
<clus scale="   91.842">  7  8 -1 -1</clus>
<clus scale="  100.810">  5  6 -1 -1</clus>
<clus scale="  103.597">  2  7  1 -1</clus>
<clus scale="   20.462">  2  5  1 -1</clus>
</clustering>
</event>
<event>
 9    1  0.1973774E-005  0.1683309E+03  0.7546771E-02  0.1181087E+00
         -2   -1    0    0    0  501 -0.00000000000E+00  0.00000000000E+00  0.33359437142E+03  0.33359437142E+03  0.00000000000E+00 0.  1.
          1   -1    0    0  502    0  0.00000000000E+00 -0.00000000000E+00 -0.54404993775E+03  0.54404993775E+03  0.00000000000E+00 0. -1.
         23    2    1    2    0    0 -0.12768648835E+03 -0.64563721892E+02  0.29460956505E+03  0.34006060983E+03  0.91510158151E+02 0.  0.
        -24    2    1    2    0    0  0.84945145989E+02  0.76110113764E+02 -0.37900157788E+03  0.40397171996E+03  0.80885890285E+02 0.  0.
         11    1    4    4    0    0  0.25443723318E+02  0.76149754891E+02 -0.22215058891E+03  0.23621399700E+03  0.00000000000E+00 0. -1.
        -12    1    4    4    0    0  0.59501422671E+02 -0.39641126626E-01 -0.15685098897E+03  0.16775772296E+03  0.00000000000E+00 0.  1.
        -11    1    3    3    0    0 -0.54291269907E+02 -0.49505427704E+02  0.63505613879E+02  0.97114841062E+02  0.00000000000E+00 0. -1.
         11    1    3    3    0    0 -0.73395218446E+02 -0.15058294188E+02  0.23110395117E+03  0.24294576877E+03  0.00000000000E+00 0.  1.
         21    1    1    2  502  501  0.42741342364E+02 -0.11546391873E+02 -0.12606355350E+03  0.13361197938E+03  0.00000000000E+00 0. -1.
<scales pt_clust_5="13000.00000" pt_clust_6="13000.00000" pt_clust_7="13000.00000" pt_clust_8="13000.00000" pt_clust_9="44.27349"></scales>
<clustering>
<clus scale="   44.273">  2  9  1 -1</clus>
<clus scale="   80.886">  5  6 -1 -1</clus>
<clus scale="   91.510">  7  8 -1 -1</clus>
<clus scale="  162.800">  2  5  1 -1</clus>
<clus scale="   44.273">  2  5  1 -1</clus>
</clustering>
</event>
<event>
 9    1  0.1973774E-005  0.1183898E+03  0.7546771E-02  0.1252776E+00
          1   -1    0    0  502    0  0.00000000000E+00  0.00000000000E+00  0.37152587072E+03  0.37152587072E+03  0.00000000000E+00 0. -1.
         -2   -1    0    0    0  501 -0.00000000000E+00 -0.00000000000E+00 -0.83258826155E+02  0.83258826155E+02  0.00000000000E+00 0.  1.
        -24    2    1    2    0    0 -0.14029244257E+02 -0.79843095924E+02 -0.28477098548E+02  0.10840760091E+03  0.66102368583E+02 0.  0.
         23    2    1    2    0    0  0.29906083076E+02  0.61565429471E+02  0.22106737155E+03  0.24768468634E+03  0.88273694668E+02 0.  0.
         13    1    3    3    0    0 -0.12965154352E+02 -0.59026757161E+02  0.13155126463E+02  0.61849095714E+02  0.00000000000E+00 0. -1.
        -14    1    3    3    0    0 -0.10640899049E+01 -0.20816338763E+02 -0.41632225011E+02  0.46558505197E+02  0.00000000000E+00 0.  1.
        -11    1    4    4    0    0 -0.15997825118E+02 -0.14277635760E+02  0.28274149999E+02  0.35485332880E+02  0.00000000000E+00 0.  1.
         11    1    4    4    0    0  0.45903908194E+02  0.75843065232E+02  0.19279322155E+03  0.21219935346E+03  0.00000000000E+00 0. -1.
         21    1    1    2  502  501 -0.15876838819E+02  0.18277666453E+02  0.95676771556E+02  0.98692409623E+02  0.00000000000E+00 0. -1.
<scales pt_clust_5="13000.00000" pt_clust_6="13000.00000" pt_clust_7="13000.00000" pt_clust_8="13000.00000" pt_clust_9="24.21048"></scales>
<clustering>
<clus scale="   24.210">  1  9  2 -1</clus>
<clus scale="   66.102">  5  6 -1 -1</clus>
<clus scale="   88.274">  7  8 -1 -1</clus>
<clus scale="  102.924">  2  5  1 -1</clus>
<clus scale="   24.210">  1  5  2 -1</clus>
</clustering>
</event>
<event>
 9    1  0.1973774E-005  0.9135491E+02  0.7546771E-02  0.1306052E+00
          1   -1    0    0  502    0  0.00000000000E+00  0.00000000000E+00  0.20472981558E+03  0.20472981558E+03  0.00000000000E+00 0. -1.
         -2   -1    0    0    0  501 -0.00000000000E+00 -0.00000000000E+00 -0.87359070305E+02  0.87359070305E+02  0.00000000000E+00 0.  1.
         23    2    1    2    0    0 -0.72777080689E+01 -0.46067940186E+00 -0.34636293914E+02  0.97831777367E+02  0.91204202460E+02 0.  0.
        -24    2    1    2    0    0 -0.14563435907E+02  0.18379501073E+02  0.77299262501E+02  0.11438613984E+03  0.80988352735E+02 0.  0.
         13    1    4    4    0    0 -0.30019570542E+02 -0.67959778715E+01  0.79011708007E+02  0.84795105595E+02  0.00000000000E+00 0. -1.
        -14    1    4    4    0    0  0.15456134635E+02  0.25175478945E+02 -0.17124455061E+01  0.29591034243E+02  0.00000000000E+00 0.  1.
        -13    1    3    3    0    0  0.39533921095E+02 -0.11559519549E+02 -0.26663488634E+02  0.49066231111E+02  0.00000000000E+00 0.  1.
         13    1    3    3    0    0 -0.46811629164E+02  0.11098840147E+02 -0.79728052792E+01  0.48765546255E+02  0.00000000000E+00 0. -1.
         21    1    1    2  502  501  0.21841143976E+02 -0.17918821671E+02  0.74707776687E+02  0.79870968680E+02  0.00000000000E+00 0. -1.
<scales pt_clust_5="13000.00000" pt_clust_6="13000.00000" pt_clust_7="13000.00000" pt_clust_8="13000.00000" pt_clust_9="28.25101"></scales>
<clustering>
<clus scale="   28.251">  1  9  2 -1</clus>
<clus scale="   80.988">  5  6 -1 -1</clus>
<clus scale="   81.158">  1  5  2 -1</clus>
<clus scale="   91.204">  7  8 -1 -1</clus>
<clus scale="   28.251">  1  5  2 -1</clus>
</clustering>
</event>
<event>
 9    1  0.1973774E-005  0.9806922E+02  0.7546771E-02  0.1287597E+00
          1   -1    0    0  502    0  0.00000000000E+00  0.00000000000E+00  0.66473530127E+02  0.66473530127E+02  0.00000000000E+00 0. -1.
         -2   -1    0    0    0  501 -0.00000000000E+00 -0.00000000000E+00 -0.28258019226E+03  0.28258019226E+03  0.00000000000E+00 0.  1.
         23    2    1    2    0    0  0.43809800785E+02 -0.27240830885E+02 -0.18642590775E+03  0.21357437181E+03  0.90542982607E+02 0.  0.
        -24    2    1    2    0    0 -0.93576225781E+01 -0.26624025225E+01 -0.29514690093E+02  0.89859360132E+02  0.84314495696E+02 0.  0.
         13    1    4    4    0    0  0.31912654257E+02  0.53286992457E+01 -0.34770493822E+02  0.47495260585E+02  0.00000000000E+00 0. -1.
        -14    1    4    4    0    0 -0.41270276835E+02 -0.79911017682E+01  0.52558037295E+01  0.42364099546E+02  0.00000000000E+00 0.  1.
        -11    1    3    3    0    0  0.49313600586E+02 -0.27684276170E+01 -0.18138474088E+03  0.18798914761E+03  0.00000000000E+00 0.  1.
         11    1    3    3    0    0 -0.55037998010E+01 -0.24472403268E+02 -0.50411668740E+01  0.25585224201E+02  0.00000000000E+00 0. -1.
         21    1    1    2  502  501 -0.34452178207E+02  0.29903233407E+02 -0.16606429013E+00  0.45619990451E+02  0.00000000000E+00 0. -1.
<scales pt_clust_5="13000.00000" pt_clust_6="13000.00000" pt_clust_7="13000.00000" pt_clust_8="13000.00000" pt_clust_9="45.61969"></scales>
<clustering>
<clus scale="   45.620">  1  9  2 -1</clus>
<clus scale="   84.314">  5  6 -1 -1</clus>
<clus scale="   90.543">  7  8 -1 -1</clus>
<clus scale="   92.350">  1  5  2 -1</clus>
<clus scale="   45.620">  1  5  2 -1</clus>
</clustering>
</event>
<event>
 9    1  0.1973774E-005  0.1407061E+03  0.7546771E-02  0.1214255E+00
          1   -1    0    0  502    0  0.00000000000E+00  0.00000000000E+00  0.34522613265E+03  0.34522613265E+03  0.00000000000E+00 0. -1.
         -2   -1    0    0    0  501 -0.00000000000E+00 -0.00000000000E+00 -0.13291766165E+03  0.13291766165E+03  0.00000000000E+00 0.  1.
        -24    2    1    2    0    0 -0.95387152532E+02 -0.49678879571E+02 -0.11194157851E+02  0.13655012298E+03  0.83390209095E+02 0.  0.
         23    2    1    2    0    0  0.11461770902E+03 -0.75461443453E+01  0.46147966845E+02  0.15424588297E+03  0.92021704257E+02 0.  0.
         11    1    3    3    0    0 -0.72217376943E+02 -0.31476112679E+02  0.31359612954E+02  0.84791040367E+02  0.00000000000E+00 0. -1.
        -12    1    3    3    0    0 -0.23169775589E+02 -0.18202766891E+02 -0.42553770806E+02  0.51759082615E+02  0.00000000000E+00 0.  1.
        -13    1    4    4    0    0  0.68874638290E+02 -0.20225223297E+02  0.70743847789E+02  0.10078426195E+03  0.00000000000E+00 0. -1.
         13    1    4    4    0    0  0.45743070730E+02  0.12679078952E+02 -0.24595880943E+02  0.53461621021E+02  0.00000000000E+00 0.  1.
         21    1    1    2  502  501 -0.19230556488E+02  0.57225023916E+02  0.17735466200E+03  0.18734778835E+03  0.00000000000E+00 0. -1.
<scales pt_clust_5="13000.00000" pt_clust_6="13000.00000" pt_clust_7="13000.00000" pt_clust_8="13000.00000" pt_clust_9="60.36984"></scales>
<clustering>
<clus scale="   60.370">  1  9  2 -1</clus>
<clus scale="   83.390">  5  6 -1 -1</clus>
<clus scale="   92.022">  7  8 -1 -1</clus>
<clus scale="  135.219">  2  5  1 -1</clus>
<clus scale="   60.370">  1  5  2 -1</clus>
</clustering>
</event>
<event>
 9    1  0.1973774E-005  0.9598447E+02  0.7546771E-02  0.1295697E+00
          3   -1    0    0  502    0  0.00000000000E+00  0.00000000000E+00  0.33614587465E+03  0.33614587465E+03  0.00000000000E+00 0. -1.
         -4   -1    0    0    0  501 -0.00000000000E+00 -0.00000000000E+00 -0.69395577449E+02  0.69395577449E+02  0.00000000000E+00 0.  1.
         23    2    1    2    0    0  0.34746567699E+02 -0.99198911758E+00  0.43456103915E+02  0.10726810599E+03  0.91704446923E+02 0.  0.
        -24    2    1    2    0    0  0.86521743195E+01 -0.50502411246E+02  0.39838135677E+02  0.10284753116E+03  0.79782102934E+02 0.  0.
         11    1    4    4    0    0 -0.22962626922E+02 -0.50485072309E+02  0.44217248374E+02  0.70930880545E+02  0.00000000000E+00 0. -1.
        -12    1    4    4    0    0  0.31614801242E+02 -0.17338937087E-01 -0.43791126968E+01  0.31916650611E+02  0.00000000000E+00 0.  1.
        -11    1    3    3    0    0  0.58551312965E+02 -0.33116382735E+01  0.55275902022E+02  0.80589382318E+02  0.00000000000E+00 0. -1.
         11    1    3    3    0    0 -0.23804745266E+02  0.23196491560E+01 -0.11819798107E+02  0.26678723670E+02  0.00000000000E+00 0.  1.
         21    1    1    2  502  501 -0.43398742019E+02  0.51494400363E+02  0.18345605760E+03  0.19542581495E+03  0.00000000000E+00 0. -1.
<scales pt_clust_5="13000.00000" pt_clust_6="13000.00000" pt_clust_7="13000.00000" pt_clust_8="13000.00000" pt_clust_9="67.34333"></scales>
<clustering>
<clus scale="   67.343">  1  9  2 -1</clus>
<clus scale="   79.782">  5  6 -1 -1</clus>
<clus scale="   84.667">  1  5  2 -1</clus>
<clus scale="   91.704">  7  8 -1 -1</clus>
<clus scale="   67.343">  1  5  2 -1</clus>
</clustering>
</event>
<event>
 9    1  0.1973774E-005  0.1546047E+03  0.7546771E-02  0.1198379E+00
          1   -1    0    0  502    0  0.00000000000E+00  0.00000000000E+00  0.23871045628E+03  0.23871045628E+03  0.00000000000E+00 0. -1.
         -2   -1    0    0    0  501 -0.00000000000E+00 -0.00000000000E+00 -0.25763774466E+03  0.25763774466E+03  0.00000000000E+00 0.  1.
        -24    2    1    2    0    0 -0.13179359556E+03  0.16405001650E+02 -0.10038631561E+03  0.18574224482E+03  0.82365607141E+02 0.  0.
         23    2    1    2    0    0  0.64204841409E+01 -0.10967356570E+03  0.34978660986E+02  0.14757876038E+03  0.92122039497E+02 0.  0.
         13    1    3    3    0    0 -0.43267697705E+02 -0.33436713283E+02 -0.34533236405E+02  0.64673424809E+02  0.00000000000E+00 0. -1.
        -14    1    3    3    0    0 -0.88525897851E+02  0.49841714933E+02 -0.65853079202E+02  0.12106882001E+03  0.00000000000E+00 0.  1.
        -13    1    4    4    0    0  0.25214939715E+02 -0.11783738189E+03  0.19898323612E+02  0.12213674729E+03  0.00000000000E+00 0.  1.
         13    1    4    4    0    0 -0.18794455574E+02  0.81638161863E+01  0.15080337373E+02  0.25442013095E+02  0.00000000000E+00 0. -1.
         21    1    1    2  502  501  0.12537311142E+03  0.93268564053E+02  0.46480366246E+02  0.16302719575E+03  0.00000000000E+00 0. -1.
<scales pt_clust_5="13000.00000" pt_clust_6="13000.00000" pt_clust_7="13000.00000" pt_clust_8="13000.00000" pt_clust_9="130.83773"></scales>
<clustering>
<clus scale="   82.366">  5  6 -1 -1</clus>
<clus scale="   92.122">  7  8 -1 -1</clus>
<clus scale="  143.374">  1  7  2 -1</clus>
<clus scale="  130.838">  1  9  2 -1</clus>
<clus scale="  143.374">  1  5  2 -1</clus>
</clustering>
</event>
<event>
 9    1  0.1973774E-005  0.1005417E+03  0.7546771E-02  0.1284685E+00
          1   -1    0    0  502    0  0.00000000000E+00  0.00000000000E+00  0.43178980933E+03  0.43178980933E+03  0.00000000000E+00 0. -1.
         -2   -1    0    0    0  501 -0.00000000000E+00 -0.00000000000E+00 -0.40332580985E+02  0.40332580985E+02  0.00000000000E+00 0.  1.
        -24    2    1    2    0    0  0.65380265583E+01 -0.45132425393E+02  0.40335117983E+02  0.10096406561E+03  0.80542778619E+02 0.  0.
         23    2    1    2    0    0 -0.64821472238E+01  0.21712800290E+02  0.30726026831E+03  0.32143566236E+03  0.91643595674E+02 0.  0.
         11    1    3    3    0    0  0.33056775458E+00 -0.64618252145E+02  0.46492665227E+02  0.79606505420E+02  0.00000000000E+00 0. -1.
        -12    1    3    3    0    0  0.62074588037E+01  0.19485826752E+02 -0.61575472444E+01  0.21357560185E+02  0.00000000000E+00 0.  1.
        -11    1    4    4    0    0 -0.25653536983E+00 -0.32654568692E+02  0.61237656073E+02  0.69400556108E+02  0.00000000000E+00 0. -1.
         11    1    4    4    0    0 -0.62256118540E+01  0.54367368982E+02  0.24602261224E+03  0.25203510625E+03  0.00000000000E+00 0.  1.
         21    1    1    2  502  501 -0.55879334480E-01  0.23419625103E+02  0.43861842050E+02  0.49722662343E+02  0.00000000000E+00 0.  1.
<scales pt_clust_5="13000.00000" pt_clust_6="13000.00000" pt_clust_7="13000.00000" pt_clust_8="13000.00000" pt_clust_9="23.41969"></scales>
<clustering>
<clus scale="   23.420">  1  9  2 -1</clus>
<clus scale="   80.543">  5  6 -1 -1</clus>
<clus scale="   90.539">  2  5  1 -1</clus>
<clus scale="   91.644">  7  8 -1 -1</clus>
<clus scale="   23.420">  1  5  2 -1</clus>
</clustering>
</event>
<event>
 9    1  0.1973774E-005  0.2193629E+03  0.7546771E-02  0.1134455E+00
          1   -1    0    0  502    0  0.00000000000E+00  0.00000000000E+00  0.64028897503E+03  0.64028897503E+03  0.00000000000E+00 0. -1.
         -2   -1    0    0    0  501 -0.00000000000E+00 -0.00000000000E+00 -0.18093410668E+03  0.18093410668E+03  0.00000000000E+00 0.  1.
         23    2    1    2    0    0 -0.18840194267E+03  0.37279987941E+02 -0.57131943902E+02  0.22040514435E+03  0.91811105756E+02 0.  0.
        -24    2    1    2    0    0  0.22831699271E+03 -0.61478753036E+02  0.38055266022E+03  0.45709290425E+03  0.90583164426E+02 0.  0.
         11    1    4    4    0    0  0.21176423746E+03 -0.71823531992E+02  0.37532009747E+03  0.43688429541E+03  0.00000000000E+00 0. -1.
        -12    1    4    4    0    0  0.16552755253E+02  0.10344778956E+02  0.52325627510E+01  0.20208608835E+02  0.00000000000E+00 0.  1.
        -13    1    3    3    0    0 -0.11383632339E+03 -0.23996901484E+02 -0.32727081726E+02  0.12085372018E+03  0.00000000000E+00 0. -1.
         13    1    3    3    0    0 -0.74565619278E+02  0.61276889425E+02 -0.24404862176E+02  0.99551424168E+02  0.00000000000E+00 0.  1.
         21    1    1    2  502  501 -0.39915050043E+02  0.24198765094E+02  0.13593415204E+03  0.14372503311E+03  0.00000000000E+00 0.  1.
<scales pt_clust_5="13000.00000" pt_clust_6="13000.00000" pt_clust_7="13000.00000" pt_clust_8="13000.00000" pt_clust_9="46.67753"></scales>
<clustering>
<clus scale="   46.678">  1  9  2 -1</clus>
<clus scale="   90.583">  5  6 -1 -1</clus>
<clus scale="   91.811">  7  8 -1 -1</clus>
<clus scale="  218.852">  1  5  2 -1</clus>
<clus scale="   46.678">  1  5  2 -1</clus>
</clustering>
</event>
<event>
 9    1  0.1973774E-005  0.1295012E+03  0.7546771E-02  0.1230443E+00
          1   -1    0    0  502    0  0.00000000000E+00  0.00000000000E+00  0.57763015211E+03  0.57763015211E+03  0.00000000000E+00 0. -1.
         -2   -1    0    0    0  501 -0.00000000000E+00 -0.00000000000E+00 -0.69006513036E+02  0.69006513036E+02  0.00000000000E+00 0.  1.
        -24    2    1    2    0    0  0.66446282999E+02 -0.85212966598E+02  0.33729050169E+02  0.14003889476E+03  0.82443223003E+02 0.  0.
         23    2    1    2    0    0 -0.66214744029E+02  0.26077140948E+02  0.39037265291E+03  0.40344227053E+03  0.72872820084E+02 0.  0.
         11    1    3    3    0    0 -0.97409035079E+01 -0.19156682346E+02  0.32781797164E+02  0.39198340589E+02  0.00000000000E+00 0. -1.
        -12    1    3    3    0    0  0.76187186507E+02 -0.66056284252E+02  0.94725300544E+00  0.10084055417E+03  0.00000000000E+00 0.  1.
        -13    1    4    4    0    0 -0.54588625936E+02  0.50556756373E+02  0.30038396691E+03  0.30946151824E+03  0.00000000000E+00 0. -1.
         13    1    4    4    0    0 -0.11626118093E+02 -0.24479615425E+02  0.89988686004E+02  0.93980752295E+02  0.00000000000E+00 0.  1.
         21    1    1    2  502  501 -0.23153896986E+00  0.59135825650E+02  0.84521935990E+02  0.10315549985E+03  0.00000000000E+00 0.  1.
<scales pt_clust_5="13000.00000" pt_clust_6="13000.00000" pt_clust_7="13000.00000" pt_clust_8="13000.00000" pt_clust_9="59.13628"></scales>
<clustering>
<clus scale="   59.136">  1  9  2 -1</clus>
<clus scale="   72.873">  7  8 -1 -1</clus>
<clus scale="   82.443">  5  6 -1 -1</clus>
<clus scale="  123.629">  1  7  2 -1</clus>
<clus scale="   59.136">  1  5  2 -1</clus>
</clustering>
</event>
<event>
 9    1  0.1973774E-005  0.9746491E+02  0.7546771E-02  0.1294425E+00
         -2   -1    0    0    0  501 -0.00000000000E+00  0.00000000000E+00  0.27389811614E+03  0.27389811614E+03  0.00000000000E+00 0.  1.
          1   -1    0    0  502    0  0.00000000000E+00 -0.00000000000E+00 -0.89883974511E+02  0.89883974511E+02  0.00000000000E+00 0. -1.
         23    2    1    2    0    0 -0.38980724163E+01  0.14100452460E+02  0.21486886594E+03  0.23565407848E+03  0.95656664319E+02 0.  0.
        -24    2    1    2    0    0 -0.10494474345E+02 -0.42449583149E+02 -0.16428418144E+02  0.93214734998E+02  0.80665933310E+02 0.  0.
         13    1    4    4    0    0 -0.24725423934E+02  0.13527369291E+02  0.97210855429E+01  0.29813349573E+02  0.00000000000E+00 0. -1.
        -14    1    4    4    0    0  0.14230949589E+02 -0.55976952440E+02 -0.26149503687E+02  0.63401385424E+02  0.00000000000E+00 0.  1.
        -13    1    3    3    0    0 -0.43251191527E+02  0.23094437882E+02  0.71398042142E+02  0.86612349301E+02  0.00000000000E+00 0.  1.
         13    1    3    3    0    0  0.39353119111E+02 -0.89939854212E+01  0.14347082379E+03  0.14904172918E+03  0.00000000000E+00 0. -1.
         21    1    1    2  502  501  0.14392546761E+02  0.28349130688E+02 -0.14426306166E+02  0.34913277168E+02  0.00000000000E+00 0. -1.
<scales pt_clust_5="13000.00000" pt_clust_6="13000.00000" pt_clust_7="13000.00000" pt_clust_8="13000.00000" pt_clust_9="31.79337"></scales>
<clustering>
<clus scale="   31.793">  2  9  1 -1</clus>
<clus scale="   80.666">  5  6 -1 -1</clus>
<clus scale="   82.802">  2  5  1 -1</clus>
<clus scale="   95.657">  7  8 -1 -1</clus>
<clus scale="   31.793">  2  5  1 -1</clus>
</clustering>
</event>
<event>
 9    1  0.1973774E-005  0.1045451E+03  0.7546771E-02  0.1276758E+00
          1   -1    0    0  502    0  0.00000000000E+00  0.00000000000E+00  0.11071199215E+03  0.11071199215E+03  0.00000000000E+00 0. -1.
         -2   -1    0    0    0  501 -0.00000000000E+00 -0.00000000000E+00 -0.26745154216E+03  0.26745154216E+03  0.00000000000E+00 0.  1.
        -24    2    1    2    0    0  0.48949708581E+02 -0.95207411991E+01 -0.19461128443E+03  0.21515897964E+03  0.77026722686E+02 0.  0.
         23    2    1    2    0    0 -0.69120075497E+02  0.17137436172E+02 -0.51648194850E+01  0.11486930028E+03  0.89983355306E+02 0.  0.
         11    1    3    3    0    0  0.10805377815E+02 -0.29525925930E+02 -0.14956626496E+03  0.15283521880E+03  0.00000000000E+00 0. -1.
        -12    1    3    3    0    0  0.38144330766E+02  0.20005184731E+02 -0.45045019469E+02  0.62323760835E+02  0.00000000000E+00 0.  1.
        -11    1    4    4    0    0 -0.25673429687E+02 -0.10908629410E+02 -0.42676303507E+02  0.50984213915E+02  0.00000000000E+00 0.  1.
         11    1    4    4    0    0 -0.43446645810E+02  0.28046065582E+02  0.37511484022E+02  0.63885086368E+02  0.00000000000E+00 0. -1.
         21    1    1    2  502  501  0.20170366916E+02 -0.76166949731E+01  0.43036553906E+02  0.48135254398E+02  0.00000000000E+00 0. -1.
<scales pt_clust_5="13000.00000" pt_clust_6="13000.00000" pt_clust_7="13000.00000" pt_clust_8="13000.00000" pt_clust_9="21.56056"></scales>
<clustering>
<clus scale="   21.561">  1  9  2 -1</clus>
<clus scale="   77.027">  5  6 -1 -1</clus>
<clus scale="   89.983">  7  8 -1 -1</clus>
<clus scale="   93.626">  2  5  1 -1</clus>
<clus scale="   21.561">  1  5  2 -1</clus>
</clustering>
</event>
<event>
 9    1  0.2377457E-005  0.1133234E+03  0.7546771E-02  0.1257498E+00
         -2   -1    0    0    0  501 -0.00000000000E+00  0.00000000000E+00  0.19823090725E+03  0.19823090725E+03  0.00000000000E+00 0.  1.
          1   -1    0    0  502    0  0.00000000000E+00 -0.00000000000E+00 -0.57823824916E+03  0.57823824916E+03  0.00000000000E+00 0. -1.
         23    2    1    2    0    0 -0.21069432493E+02  0.65681282199E+02  0.17378157210E+03  0.20750349128E+03  0.89998401499E+02 0.  0.
        -24    2    1    2    0    0  0.11074186301E+01 -0.68290752681E+02 -0.50636376480E+03  0.51744444512E+03  0.81729053625E+02 0.  0.
         11    1    4    4    0    0 -0.36345586671E+02 -0.42820978018E+02 -0.19948151083E+03  0.20723781265E+03  0.00000000000E+00 0. -1.
        -12    1    4    4    0    0  0.37453005301E+02 -0.25469774662E+02 -0.30688225396E+03  0.31020663246E+03  0.00000000000E+00 0.  1.
        -11    1    3    3    0    0 -0.34340967610E+02 -0.72644914300E+01  0.31963656628E+02  0.47473679415E+02  0.00000000000E+00 0. -1.
         11    1    3    3    0    0  0.13271535117E+02  0.72945773629E+02  0.14181791548E+03  0.16002981186E+03  0.00000000000E+00 0.  1.
         21    1    1    2  502  501  0.19962013863E+02  0.26094704818E+01 -0.47425149222E+02  0.51521220020E+02  0.00000000000E+00 0. -1.
<scales pt_clust_5="13000.00000" pt_clust_6="13000.00000" pt_clust_7="13000.00000" pt_clust_8="13000.00000" pt_clust_9="20.13185"></scales>
<clustering>
<clus scale="   20.132">  2  9  1 -1</clus>
<clus scale="   81.729">  5  6 -1 -1</clus>
<clus scale="   89.998">  7  8 -1 -1</clus>
<clus scale="  106.874">  2  5  1 -1</clus>
<clus scale="   20.132">  2  5  1 -1</clus>
</clustering>
</event>
<event>
 9    1  0.1973774E-005  0.1137506E+03  0.7546771E-02  0.1258319E+00
          1   -1    0    0  502    0  0.00000000000E+00  0.00000000000E+00  0.57425009519E+02  0.57425009519E+02  0.00000000000E+00 0. -1.
         -2   -1    0    0    0  501 -0.00000000000E+00 -0.00000000000E+00 -0.45492874134E+03  0.45492874134E+03  0.00000000000E+00 0.  1.
         23    2    1    2    0    0  0.28269734252E+02  0.63697691470E+02 -0.27977408625E+03  0.30184780657E+03  0.89341956665E+02 0.  0.
        -24    2    1    2    0    0 -0.79689727758E+02 -0.36829720611E+02 -0.80658417823E+02  0.14165698266E+03  0.76511694139E+02 0.  0.
         11    1    4    4    0    0 -0.90512327014E+02 -0.17640413548E+02 -0.75122123113E+02  0.11894115735E+03  0.00000000000E+00 0. -1.
        -12    1    4    4    0    0  0.10822599256E+02 -0.19189307062E+02 -0.55362947104E+01  0.22715825306E+02  0.00000000000E+00 0.  1.
        -11    1    3    3    0    0 -0.68883560650E+00  0.79967965027E+02 -0.20387793137E+03  0.21900128042E+03  0.00000000000E+00 0.  1.
         11    1    3    3    0    0  0.28958569859E+02 -0.16270273557E+02 -0.75896154884E+02  0.82846526155E+02  0.00000000000E+00 0. -1.
         21    1    1    2  502  501  0.51419993506E+02 -0.26867970859E+02 -0.37071227739E+02  0.68848961621E+02  0.00000000000E+00 0. -1.
<scales pt_clust_5="13000.00000" pt_clust_6="13000.00000" pt_clust_7="13000.00000" pt_clust_8="13000.00000" pt_clust_9="58.01641"></scales>
<clustering>
<clus scale="   58.016">  1  9  2 -1</clus>
<clus scale="   76.512">  5  6 -1 -1</clus>
<clus scale="   89.342">  7  8 -1 -1</clus>
<clus scale="  103.977">  1  5  2 -1</clus>
<clus scale="   58.016">  1  5  2 -1</clus>
</clustering>
</event>
<event>
 9    1  0.1973774E-005  0.9264560E+02  0.7546771E-02  0.1302833E+00
          1   -1    0    0  502    0  0.00000000000E+00  0.00000000000E+00  0.16377600966E+03  0.16377600966E+03  0.00000000000E+00 0. -1.
         -2   -1    0    0    0  501 -0.00000000000E+00 -0.00000000000E+00 -0.10132822555E+03  0.10132822555E+03  0.00000000000E+00 0.  1.
        -24    2    1    2    0    0 -0.14636781527E+02 -0.17281845818E+02 -0.53706846007E+02  0.98915257939E+02  0.79918116700E+02 0.  0.
         23    2    1    2    0    0  0.21578564999E+02 -0.53659827795E+01  0.78561517298E+02  0.12175526676E+03  0.90321673734E+02 0.  0.
         11    1    3    3    0    0 -0.41337433505E+02 -0.26581864605E+02 -0.15797101993E+02  0.51622934496E+02  0.00000000000E+00 0. -1.
        -12    1    3    3    0    0  0.26700651978E+02  0.93000187862E+01 -0.37909744013E+02  0.47292323443E+02  0.00000000000E+00 0.  1.
        -13    1    4    4    0    0  0.36368629706E+02 -0.40273978434E+02  0.54167847641E+02  0.76673504443E+02  0.00000000000E+00 0.  1.
         13    1    4    4    0    0 -0.14790064707E+02  0.34907995654E+02  0.24393669657E+02  0.45081762321E+02  0.00000000000E+00 0. -1.
         21    1    1    2  502  501 -0.69417834722E+01  0.22647828598E+02  0.37593112819E+02  0.44433710507E+02  0.00000000000E+00 0.  1.
<scales pt_clust_5="13000.00000" pt_clust_6="13000.00000" pt_clust_7="13000.00000" pt_clust_8="13000.00000" pt_clust_9="23.68781"></scales>
<clustering>
<clus scale="   23.688">  1  9  2 -1</clus>
<clus scale="   79.918">  5  6 -1 -1</clus>
<clus scale="   82.535">  2  5  1 -1</clus>
<clus scale="   90.322">  7  8 -1 -1</clus>
<clus scale="   23.688">  1  5  2 -1</clus>
</clustering>
</event>
<event>
 9    1  0.1973774E-005  0.2142744E+03  0.7546771E-02  0.1138281E+00
         -2   -1    0    0    0  501 -0.00000000000E+00  0.00000000000E+00  0.56070731981E+02  0.56070731981E+02  0.00000000000E+00 0.  1.
          1   -1    0    0  502    0  0.00000000000E+00 -0.00000000000E+00 -0.13028748409E+04  0.13028748409E+04  0.00000000000E+00 0. -1.
         23    2    1    2    0    0 -0.88360459340E+02 -0.19182342245E+03 -0.37687902931E+03  0.44203506901E+03  0.93559624468E+02 0.  0.
        -24    2    1    2    0    0  0.11039105242E+03  0.13611073667E+03 -0.43759879612E+03  0.48045287043E+03  0.92897455552E+02 0.  0.
         11    1    4    4    0    0  0.76733891197E+02  0.11561454401E+03 -0.40861963580E+03  0.43153773833E+03  0.00000000000E+00 0. -1.
        -12    1    4    4    0    0  0.33657161223E+02  0.20496192658E+02 -0.28979160318E+02  0.48915132094E+02  0.00000000000E+00 0.  1.
        -13    1    3    3    0    0 -0.60837412262E+02 -0.46365923410E+02 -0.18106269345E+03  0.19655708724E+03  0.00000000000E+00 0.  1.
         13    1    3    3    0    0 -0.27523047078E+02 -0.14545749904E+03 -0.19581633586E+03  0.24547798177E+03  0.00000000000E+00 0. -1.
         21    1    1    2  502  501 -0.22030593080E+02  0.55712685780E+02 -0.43232628350E+03  0.43645763344E+03  0.00000000000E+00 0. -1.
<scales pt_clust_5="13000.00000" pt_clust_6="13000.00000" pt_clust_7="13000.00000" pt_clust_8="13000.00000" pt_clust_9="59.91035"></scales>
<clustering>
<clus scale="   59.910">  2  9  1 -1</clus>
<clus scale="   92.897">  5  6 -1 -1</clus>
<clus scale="   93.560">  7  8 -1 -1</clus>
<clus scale="  213.986">  2  5  1 -1</clus>
<clus scale="   59.910">  2  5  1 -1</clus>
</clustering>
</event>
<event>
 9    1  0.1973774E-005  0.1066595E+03  0.7546771E-02  0.1271170E+00
         -2   -1    0    0    0  501 -0.00000000000E+00  0.00000000000E+00  0.48852360688E+02  0.48852360688E+02  0.00000000000E+00 0.  1.
          1   -1    0    0  502    0  0.00000000000E+00 -0.00000000000E+00 -0.54944893245E+03  0.54944893245E+03  0.00000000000E+00 0. -1.
        -24    2    1    2    0    0 -0.36449410241E+02  0.49117673836E+02 -0.26043172699E+02  0.10467799505E+03  0.80858706483E+02 0.  0.
         23    2    1    2    0    0  0.15898469988E+02 -0.16690346864E+02 -0.38326479325E+03  0.39459056495E+03  0.90986170270E+02 0.  0.
         13    1    3    3    0    0 -0.59652352985E+01 -0.19892099630E+02  0.75456956340E+01  0.22095637182E+02  0.00000000000E+00 0. -1.
        -14    1    3    3    0    0 -0.30484174943E+02  0.69009773466E+02 -0.33588868333E+02  0.82582357872E+02  0.00000000000E+00 0.  1.
        -11    1    4    4    0    0 -0.96203942160E+01  0.33763954587E+02 -0.10744829852E+03  0.11303846013E+03  0.00000000000E+00 0.  1.
         11    1    4    4    0    0  0.25518864204E+02 -0.50454301451E+02 -0.27581649473E+03  0.28155210482E+03  0.00000000000E+00 0. -1.
         21    1    1    2  502  501  0.20550940253E+02 -0.32427326972E+02 -0.91288605816E+02  0.99032733132E+02  0.00000000000E+00 0. -1.
<scales pt_clust_5="13000.00000" pt_clust_6="13000.00000" pt_clust_7="13000.00000" pt_clust_8="13000.00000" pt_clust_9="38.39105"></scales>
<clustering>
<clus scale="   38.391">  2  9  1 -1</clus>
<clus scale="   80.859">  5  6 -1 -1</clus>
<clus scale="   90.986">  7  8 -1 -1</clus>
<clus scale="   98.163">  1  5  2 -1</clus>
<clus scale="   38.391">  2  5  1 -1</clus>
</clustering>
</event>
<event>
 9    1  0.1973774E-005  0.1291877E+03  0.7546771E-02  0.1231607E+00
         -2   -1    0    0    0  501 -0.00000000000E+00  0.00000000000E+00  0.13162019803E+03  0.13162019803E+03  0.00000000000E+00 0.  1.
          1   -1    0    0  502    0  0.00000000000E+00 -0.00000000000E+00 -0.60878464518E+03  0.60878464518E+03  0.00000000000E+00 0. -1.
         23    2    1    2    0    0  0.75772901903E+02 -0.27237462786E+02  0.53332107699E+02  0.13308442507E+03  0.91562756862E+02 0.  0.
        -24    2    1    2    0    0 -0.12434173318E+03  0.77392726914E+02 -0.16367406860E+03  0.23391284147E+03  0.80470590160E+02 0.  0.
         13    1    4    4    0    0 -0.76633452380E+02  0.69634637622E+01 -0.10660833260E+03  0.13147818234E+03  0.00000000000E+00 0. -1.
        -14    1    4    4    0    0 -0.47708280803E+02  0.70429263151E+02 -0.57065735996E+02  0.10243465912E+03  0.00000000000E+00 0.  1.
        -13    1    3    3    0    0  0.11035376424E+02 -0.51206587313E+02  0.16979861951E+02  0.55065504891E+02  0.00000000000E+00 0. -1.
         13    1    3    3    0    0  0.64737525479E+02  0.23969124527E+02  0.36352245747E+02  0.78018920184E+02  0.00000000000E+00 0.  1.
         21    1    1    2  502  501  0.48568831280E+02 -0.50155264128E+02 -0.36682248625E+03  0.37340757667E+03  0.00000000000E+00 0. -1.
<scales pt_clust_5="13000.00000" pt_clust_6="13000.00000" pt_clust_7="13000.00000" pt_clust_8="13000.00000" pt_clust_9="69.81749"></scales>
<clustering>
<clus scale="   69.817">  2  9  1 -1</clus>
<clus scale="   80.471">  5  6 -1 -1</clus>
<clus scale="   91.563">  7  8 -1 -1</clus>
<clus scale="  121.578">  2  5  1 -1</clus>
<clus scale="   69.817">  2  5  1 -1</clus>
</clustering>
</event>
<event>
 9    1  0.1973774E-005  0.1090772E+03  0.7546771E-02  0.1268604E+00
         -2   -1    0    0    0  501 -0.00000000000E+00  0.00000000000E+00  0.17735346023E+03  0.17735346023E+03  0.00000000000E+00 0.  1.
          1   -1    0    0  502    0  0.00000000000E+00 -0.00000000000E+00 -0.16590590715E+03  0.16590590715E+03  0.00000000000E+00 0. -1.
        -24    2    1    2    0    0 -0.28229593711E+02  0.50846144963E+02  0.12684042151E+03  0.15971677353E+03  0.77709168060E+02 0.  0.
         23    2    1    2    0    0  0.43095565150E+02 -0.34200374952E+02 -0.59354515267E+02  0.12322364333E+03  0.92920473576E+02 0.  0.
         13    1    3    3    0    0 -0.39138451550E+02  0.65985304344E+02  0.88836376112E+02  0.11737879067E+03  0.00000000000E+00 0. -1.
        -14    1    3    3    0    0  0.10908857839E+02 -0.15139159382E+02  0.38004045398E+02  0.42337982861E+02  0.00000000000E+00 0.  1.
        -11    1    4    4    0    0 -0.23223299512E+02  0.92919849137E+01 -0.15044726144E+01  0.25058452899E+02  0.00000000000E+00 0.  1.
         11    1    4    4    0    0  0.66318864662E+02 -0.43492359866E+02 -0.57850042653E+02  0.98165190428E+02  0.00000000000E+00 0. -1.
         21    1    1    2  502  501 -0.14865971439E+02 -0.16645770010E+02 -0.56038353166E+02  0.60318950518E+02  0.00000000000E+00 0. -1.
<scales pt_clust_5="13000.00000" pt_clust_6="13000.00000" pt_clust_7="13000.00000" pt_clust_8="13000.00000" pt_clust_9="22.31768"></scales>
<clustering>
<clus scale="   22.318">  2  9  1 -1</clus>
<clus scale="   77.709">  5  6 -1 -1</clus>
<clus scale="   92.920">  7  8 -1 -1</clus>
<clus scale="   96.449">  1  5  2 -1</clus>
<clus scale="   22.318">  2  5  1 -1</clus>
</clustering>
</event>
<event>
 9    1  0.1973774E-005  0.1545105E+03  0.7546771E-02  0.1196566E+00
          1   -1    0    0  502    0  0.00000000000E+00  0.00000000000E+00  0.38704944936E+03  0.38704944936E+03  0.00000000000E+00 0. -1.
         -2   -1    0    0    0  501 -0.00000000000E+00 -0.00000000000E+00 -0.13616244832E+03  0.13616244832E+03  0.00000000000E+00 0.  1.
         23    2    1    2    0    0  0.11169687119E+03  0.50781340202E+02 -0.56013270398E+02  0.16177365236E+03  0.89321288557E+02 0.  0.
        -24    2    1    2    0    0 -0.13671665882E+03 -0.48618771533E+02  0.26754730654E+03  0.31475503290E+03  0.80211842988E+02 0.  0.
         13    1    4    4    0    0 -0.74789294124E+02 -0.20335108845E+02  0.21563468218E+03  0.22914028744E+03  0.00000000000E+00 0. -1.
        -14    1    4    4    0    0 -0.61927364692E+02 -0.28283662687E+02  0.51912624356E+02  0.85614745460E+02  0.00000000000E+00 0.  1.
        -11    1    3    3    0    0 -0.48360555317E+01  0.27480512598E+02 -0.28306393313E+02  0.39746923254E+02  0.00000000000E+00 0. -1.
         11    1    3    3    0    0  0.11653292672E+03  0.23300827604E+02 -0.27706877086E+02  0.12202672910E+03  0.00000000000E+00 0.  1.
         21    1    1    2  502  501  0.25019787623E+02 -0.21625686695E+01  0.39352964900E+02  0.46683212426E+02  0.00000000000E+00 0. -1.
<scales pt_clust_5="13000.00000" pt_clust_6="13000.00000" pt_clust_7="13000.00000" pt_clust_8="13000.00000" pt_clust_9="25.11307"></scales>
<clustering>
<clus scale="   25.113">  1  9  2 -1</clus>
<clus scale="   80.212">  5  6 -1 -1</clus>
<clus scale="   89.321">  7  8 -1 -1</clus>
<clus scale="  149.429">  1  5  2 -1</clus>
<clus scale="   25.113">  1  5  2 -1</clus>
</clustering>
</event>
<event>
 9    1  0.1973774E-005  0.1020936E+03  0.7546771E-02  0.1280356E+00
          1   -1    0    0  502    0  0.00000000000E+00  0.00000000000E+00  0.18561225573E+03  0.18561225573E+03  0.00000000000E+00 0. -1.
         -2   -1    0    0    0  501 -0.00000000000E+00 -0.00000000000E+00 -0.92002071874E+02  0.92002071874E+02  0.00000000000E+00 0.  1.
        -24    2    1    2    0    0  0.24904769261E+02 -0.39363500170E+02 -0.27192531484E+02  0.97746358507E+02  0.81517998965E+02 0.  0.
         23    2    1    2    0    0 -0.41144661683E+02  0.24218806453E+02  0.11962732459E+03  0.15763112137E+03  0.90870456500E+02 0.  0.
         11    1    3    3    0    0  0.42518724638E+02 -0.33702102978E+01 -0.37030725314E+02  0.56484288786E+02  0.00000000000E+00 0. -1.
        -12    1    3    3    0    0 -0.17613955378E+02 -0.35993289872E+02  0.98381938302E+01  0.41262069721E+02  0.00000000000E+00 0.  1.
        -11    1    4    4    0    0 -0.66783473487E+02  0.27006897114E+02  0.10680827486E+03  0.12883094505E+03  0.00000000000E+00 0.  1.
         11    1    4    4    0    0  0.25638811804E+02 -0.27880906613E+01  0.12819049729E+02  0.28800176323E+02  0.00000000000E+00 0. -1.
         21    1    1    2  502  501  0.16239892422E+02  0.15144693717E+02  0.11753907541E+01  0.22236847733E+02  0.00000000000E+00 0.  1.
<scales pt_clust_5="13000.00000" pt_clust_6="13000.00000" pt_clust_7="13000.00000" pt_clust_8="13000.00000" pt_clust_9="22.20576"></scales>
<clustering>
<clus scale="   22.206">  2  9  1 -1</clus>
<clus scale="   81.518">  5  6 -1 -1</clus>
<clus scale="   90.870">  7  8 -1 -1</clus>
<clus scale="   93.866">  2  5  1 -1</clus>
<clus scale="  102.094">  1  5  2 -1</clus>
</clustering>
</event>
<event>
 9    1  0.1973774E-005  0.9310152E+02  0.7546771E-02  0.1303659E+00
          1   -1    0    0  502    0  0.00000000000E+00  0.00000000000E+00  0.57225351038E+02  0.57225351038E+02  0.00000000000E+00 0. -1.
         -2   -1    0    0    0  501 -0.00000000000E+00 -0.00000000000E+00 -0.32528023033E+03  0.32528023033E+03  0.00000000000E+00 0.  1.
        -24    2    1    2    0    0 -0.11530621563E+02 -0.21395288930E+01 -0.24896060681E+03  0.26161659000E+03  0.79525616021E+02 0.  0.
         23    2    1    2    0    0 -0.31411063638E+01 -0.17454339996E+02 -0.10157485214E+02  0.94830490540E+02  0.92601981060E+02 0.  0.
         11    1    3    3    0    0 -0.41500230539E+02  0.16261470742E+02 -0.12249783515E+03  0.13035499293E+03  0.00000000000E+00 0. -1.
        -12    1    3    3    0    0  0.29969608976E+02 -0.18400999635E+02 -0.12646277167E+03  0.13126159708E+03  0.00000000000E+00 0.  1.
        -11    1    4    4    0    0 -0.49808571432E+01 -0.40580719262E+02 -0.39887898939E+02  0.57119595547E+02  0.00000000000E+00 0.  1.
         11    1    4    4    0    0  0.18397507794E+01  0.23126379266E+02  0.29730413725E+02  0.37710894993E+02  0.00000000000E+00 0. -1.
         21    1    1    2  502  501  0.14671727927E+02  0.19593868889E+02 -0.89367872618E+01  0.26058500819E+02  0.00000000000E+00 0. -1.
<scales pt_clust_5="13000.00000" pt_clust_6="13000.00000" pt_clust_7="13000.00000" pt_clust_8="13000.00000" pt_clust_9="24.47814"></scales>
<clustering>
<clus scale="   24.478">  1  9  2 -1</clus>
<clus scale="   79.526">  5  6 -1 -1</clus>
<clus scale="   80.107">  2  5  1 -1</clus>
<clus scale="   92.602">  7  8 -1 -1</clus>
<clus scale="   24.478">  1  5  2 -1</clus>
</clustering>
</event>
<event>
 9    1  0.1973774E-005  0.1059611E+03  0.7546771E-02  0.1273735E+00
         -2   -1    0    0    0  501 -0.00000000000E+00  0.00000000000E+00  0.38014595054E+03  0.38014595054E+03  0.00000000000E+00 0.  1.
          1   -1    0    0  502    0  0.00000000000E+00 -0.00000000000E+00 -0.23213245959E+03  0.23213245959E+03  0.00000000000E+00 0. -1.
        -24    2    1    2    0    0 -0.56387664205E+02 -0.20338517752E+01  0.34169236534E+03  0.35521075717E+03  0.78976605714E+02 0.  0.
         23    2    1    2    0    0  0.34137076867E+01 -0.37287759385E+02 -0.87558902948E+02  0.13211215083E+03  0.91569801303E+02 0.  0.
         11    1    3    3    0    0 -0.25507939783E+02 -0.37561927365E+02  0.11411359547E+03  0.12281476316E+03  0.00000000000E+00 0. -1.
        -12    1    3    3    0    0 -0.30879724422E+02  0.35528075590E+02  0.22757876988E+03  0.23239599402E+03  0.00000000000E+00 0.  1.
        -13    1    4    4    0    0  0.32044189527E+02  0.47214786290E+01 -0.18284363437E+01  0.32441726563E+02  0.00000000000E+00 0. -1.
         13    1    4    4    0    0 -0.28630481840E+02 -0.42009238014E+02 -0.85730466604E+02  0.99670424264E+02  0.00000000000E+00 0.  1.
         21    1    1    2  502  501  0.52973956518E+02  0.39321611160E+02 -0.10611997144E+03  0.12495550213E+03  0.00000000000E+00 0. -1.
<scales pt_clust_5="13000.00000" pt_clust_6="13000.00000" pt_clust_7="13000.00000" pt_clust_8="13000.00000" pt_clust_9="65.97294"></scales>
<clustering>
<clus scale="   65.973">  2  9  1 -1</clus>
<clus scale="   78.977">  5  6 -1 -1</clus>
<clus scale="   91.570">  7  8 -1 -1</clus>
<clus scale="   95.289">  1  5  2 -1</clus>
<clus scale="   65.973">  2  5  1 -1</clus>
</clustering>
</event>
<event>
 9    1  0.1973774E-005  0.1157067E+03  0.7546771E-02  0.1250399E+00
         -2   -1    0    0    0  501 -0.00000000000E+00  0.00000000000E+00  0.98126428731E+02  0.98126428731E+02  0.00000000000E+00 0.  1.
          1   -1    0    0  502    0  0.00000000000E+00 -0.00000000000E+00 -0.39102492002E+03  0.39102492002E+03  0.00000000000E+00 0. -1.
        -24    2    1    2    0    0  0.28439378179E+02  0.61204265193E+02  0.22461020859E+02  0.11282171224E+03  0.87575572996E+02 0.  0.
         23    2    1    2    0    0 -0.40135258923E+02 -0.95897958388E+02 -0.13267218375E+03  0.19000973438E+03  0.87718489421E+02 0.  0.
         13    1    3    3    0    0  0.43984778143E+02 -0.16206464450E+01 -0.87539929751E+00  0.44023329351E+02  0.00000000000E+00 0. -1.
        -14    1    3    3    0    0 -0.15545399964E+02  0.62824911638E+02  0.23336420156E+02  0.68798382889E+02  0.00000000000E+00 0.  1.
        -11    1    4    4    0    0 -0.19644950199E+01 -0.57219673478E+02 -0.12180829560E+03  0.13459276039E+03  0.00000000000E+00 0. -1.
         11    1    4    4    0    0 -0.38170763903E+02 -0.38678284911E+02 -0.10863888159E+02  0.55416973993E+02  0.00000000000E+00 0.  1.
         21    1    1    2  502  501  0.11695880745E+02  0.34693693195E+02 -0.18268732840E+03  0.18631990213E+03  0.00000000000E+00 0. -1.
<scales pt_clust_5="13000.00000" pt_clust_6="13000.00000" pt_clust_7="13000.00000" pt_clust_8="13000.00000" pt_clust_9="36.61210"></scales>
<clustering>
<clus scale="   36.612">  2  9  1 -1</clus>
<clus scale="   87.576">  5  6 -1 -1</clus>
<clus scale="   87.718">  7  8 -1 -1</clus>
<clus scale="  115.598">  1  5  2 -1</clus>
<clus scale="   36.612">  2  5  1 -1</clus>
</clustering>
</event>
<event>
 9    1  0.1973774E-005  0.1431356E+03  0.7546771E-02  0.1210784E+00
         -2   -1    0    0    0  501 -0.00000000000E+00  0.00000000000E+00  0.57188524992E+03  0.57188524992E+03  0.00000000000E+00 0.  1.
          1   -1    0    0  502    0  0.00000000000E+00 -0.00000000000E+00 -0.18101232130E+03  0.18101232130E+03  0.00000000000E+00 0. -1.
        -24    2    1    2    0    0  0.39483043741E+02  0.10909412673E+03  0.51917553842E+03  0.53821758080E+03  0.81697523589E+02 0.  0.
         23    2    1    2    0    0 -0.44863120987E+02 -0.49080362861E+02 -0.77840546534E+02  0.13608598993E+03  0.89658598730E+02 0.  0.
         13    1    3    3    0    0  0.34073503850E+02  0.40930416985E+02  0.98079020874E+02  0.11160554213E+03  0.00000000000E+00 0. -1.
        -14    1    3    3    0    0  0.54095398907E+01  0.68163709742E+02  0.42109651754E+03  0.42661203866E+03  0.00000000000E+00 0.  1.
        -11    1    4    4    0    0 -0.50749281432E+02  0.49759014582E+01 -0.15356147695E+02  0.53254675224E+02  0.00000000000E+00 0.  1.
         11    1    4    4    0    0  0.58861604455E+01 -0.54056264319E+02 -0.62484398839E+02  0.82831314702E+02  0.00000000000E+00 0. -1.
         21    1    1    2  502  501  0.53800772458E+01 -0.60013763866E+02 -0.50462063269E+02  0.78594000496E+02  0.00000000000E+00 0.  1.
<scales pt_clust_5="13000.00000" pt_clust_6="13000.00000" pt_clust_7="13000.00000" pt_clust_8="13000.00000" pt_clust_9="60.25444"></scales>
<clustering>
<clus scale="   60.254">  2  9  1 -1</clus>
<clus scale="   81.698">  5  6 -1 -1</clus>
<clus scale="   89.659">  7  8 -1 -1</clus>
<clus scale="  138.288">  1  5  2 -1</clus>
<clus scale="   60.254">  2  5  1 -1</clus>
</clustering>
</event>
<event>
 9    1  0.1973774E-005  0.1983854E+03  0.7546771E-02  0.1151727E+00
          1   -1    0    0  502    0  0.00000000000E+00  0.00000000000E+00  0.12586952837E+04  0.12586952837E+04  0.00000000000E+00 0. -1.
         -2   -1    0    0    0  501 -0.00000000000E+00 -0.00000000000E+00 -0.41627736293E+02  0.41627736293E+02  0.00000000000E+00 0.  1.
        -24    2    1    2    0    0  0.10498521888E+03  0.12521603594E+03  0.44017474009E+03  0.47708672847E+03  0.84599012011E+02 0.  0.
         23    2    1    2    0    0 -0.77782670504E+02 -0.17416292591E+03  0.67023304175E+03  0.70277018730E+03  0.91053486002E+02 0.  0.
         11    1    3    3    0    0  0.59144337144E+02  0.27997500475E+02  0.25221035271E+03  0.26056088475E+03  0.00000000000E+00 0. -1.
        -12    1    3    3    0    0  0.45840881737E+02  0.97218535464E+02  0.18796438738E+03  0.21652584372E+03  0.00000000000E+00 0.  1.
        -13    1    4    4    0    0 -0.64266248011E+02 -0.49884873409E+02  0.34184049782E+03  0.35138807205E+03  0.00000000000E+00 0. -1.
         13    1    4    4    0    0 -0.13516422493E+02 -0.12427805250E+03  0.32839254394E+03  0.35138211526E+03  0.00000000000E+00 0.  1.
         21    1    1    2  502  501 -0.27202548377E+02  0.48946889968E+02  0.10665976560E+03  0.12046610425E+03  0.00000000000E+00 0. -1.
<scales pt_clust_5="13000.00000" pt_clust_6="13000.00000" pt_clust_7="13000.00000" pt_clust_8="13000.00000" pt_clust_9="55.99801"></scales>
<clustering>
<clus scale="   55.998">  2  9  1 -1</clus>
<clus scale="   84.599">  5  6 -1 -1</clus>
<clus scale="   91.053">  7  8 -1 -1</clus>
<clus scale="  195.507">  2  5  1 -1</clus>
<clus scale="  198.385">  1  5  2 -1</clus>
</clustering>
</event>
<event>
 9    1  0.1973774E-005  0.9466264E+02  0.7546771E-02  0.1296386E+00
         -2   -1    0    0    0  501 -0.00000000000E+00  0.00000000000E+00  0.16676617004E+03  0.16676617004E+03  0.00000000000E+00 0.  1.
          1   -1    0    0  502    0  0.00000000000E+00 -0.00000000000E+00 -0.15043734397E+03  0.15043734397E+03  0.00000000000E+00 0. -1.
        -24    2    1    2    0    0 -0.17120201752E+02 -0.89676584238E+01  0.11771802146E+03  0.14607752826E+03  0.84306532848E+02 0.  0.
         23    2    1    2    0    0  0.22012043455E+02  0.35789981708E+02 -0.49820378303E+02  0.11279323304E+03  0.92058625222E+02 0.  0.
         13    1    3    3    0    0  0.22112346446E+02 -0.19765929475E+02  0.10608572698E+02  0.31499042018E+02  0.00000000000E+00 0. -1.
        -14    1    3    3    0    0 -0.39232548198E+02  0.10798271051E+02  0.10710944876E+03  0.11457848624E+03  0.00000000000E+00 0.  1.
        -13    1    4    4    0    0  0.56661625603E+02  0.29199098780E+02 -0.42942003790E+02  0.76857939571E+02  0.00000000000E+00 0. -1.
         13    1    4    4    0    0 -0.34649582149E+02  0.65908829284E+01 -0.68783745133E+01  0.35935293470E+02  0.00000000000E+00 0.  1.
         21    1    1    2  502  501 -0.48918417023E+01 -0.26822323284E+02 -0.51568817088E+02  0.58332752699E+02  0.00000000000E+00 0.  1.
<scales pt_clust_5="13000.00000" pt_clust_6="13000.00000" pt_clust_7="13000.00000" pt_clust_8="13000.00000" pt_clust_9="27.26476"></scales>
<clustering>
<clus scale="   27.265">  2  9  1 -1</clus>
<clus scale="   84.307">  5  6 -1 -1</clus>
<clus scale="   87.143">  1  5  2 -1</clus>
<clus scale="   92.059">  7  8 -1 -1</clus>
<clus scale="   27.265">  2  5  1 -1</clus>
</clustering>
</event>
<event>
 9    1  0.1973774E-005  0.1563999E+03  0.7546771E-02  0.1194691E+00
         -2   -1    0    0    0  501 -0.00000000000E+00  0.00000000000E+00  0.24733324829E+03  0.24733324829E+03  0.00000000000E+00 0.  1.
          1   -1    0    0  502    0  0.00000000000E+00 -0.00000000000E+00 -0.31342992020E+03  0.31342992020E+03  0.00000000000E+00 0. -1.
         23    2    1    2    0    0 -0.10882782307E+03 -0.66412980909E+02  0.17481092484E+03  0.23445981964E+03  0.90323687253E+02 0.  0.
        -24    2    1    2    0    0  0.93679708166E+02  0.92183836609E+02 -0.10183387958E+03  0.18405321283E+03  0.78941108881E+02 0.  0.
         13    1    4    4    0    0  0.49922157457E+02  0.92369932759E+02 -0.91072399073E+02  0.13899139598E+03  0.00000000000E+00 0. -1.
        -14    1    4    4    0    0  0.43757550709E+02 -0.18609614979E+00 -0.10761480503E+02  0.45061816857E+02  0.00000000000E+00 0.  1.
        -11    1    3    3    0    0 -0.52262556065E+02 -0.47888953242E+02  0.28310407450E+02  0.76329586524E+02  0.00000000000E+00 0. -1.
         11    1    3    3    0    0 -0.56565267002E+02 -0.18524027667E+02  0.14650051739E+03  0.15813023312E+03  0.00000000000E+00 0.  1.
         21    1    1    2  502  501  0.15148114901E+02 -0.25770855701E+02 -0.13907371717E+03  0.14225013602E+03  0.00000000000E+00 0. -1.
<scales pt_clust_5="13000.00000" pt_clust_6="13000.00000" pt_clust_7="13000.00000" pt_clust_8="13000.00000" pt_clust_9="29.89318"></scales>
<clustering>
<clus scale="   29.893">  2  9  1 -1</clus>
<clus scale="   78.941">  5  6 -1 -1</clus>
<clus scale="   90.324">  7  8 -1 -1</clus>
<clus scale="  150.114">  2  5  1 -1</clus>
<clus scale="   29.893">  2  5  1 -1</clus>
</clustering>
</event>
<event>
 9    1  0.1973774E-005  0.9807597E+02  0.7546771E-02  0.1290479E+00
          1   -1    0    0  502    0  0.00000000000E+00  0.00000000000E+00  0.24726387416E+03  0.24726387416E+03  0.00000000000E+00 0. -1.
         -2   -1    0    0    0  501 -0.00000000000E+00 -0.00000000000E+00 -0.51867582094E+02  0.51867582094E+02  0.00000000000E+00 0.  1.
        -24    2    1    2    0    0 -0.24739395754E+01 -0.27614153358E+02  0.27138661655E+02  0.89689859532E+02  0.80864714826E+02 0.  0.
         23    2    1    2    0    0  0.28603045380E+01  0.47718747962E+02  0.13193857347E+03  0.16792752803E+03  0.92231270470E+02 0.  0.
         11    1    3    3    0    0 -0.31572834899E+02 -0.38479208969E+02  0.21433294540E+01  0.49820550856E+02  0.00000000000E+00 0. -1.
        -12    1    3    3    0    0  0.29098895324E+02  0.10865055611E+02  0.24995332201E+02  0.39869308676E+02  0.00000000000E+00 0.  1.
        -13    1    4    4    0    0 -0.29803254988E+02 -0.71042352337E+01  0.13689575939E+02  0.33557542453E+02  0.00000000000E+00 0. -1.
         13    1    4    4    0    0  0.32663559526E+02  0.54822983196E+02  0.11824899753E+03  0.13436998558E+03  0.00000000000E+00 0.  1.
         21    1    1    2  502  501 -0.38636496261E+00 -0.20104594604E+02  0.36319056939E+02  0.41514068687E+02  0.00000000000E+00 0. -1.
<scales pt_clust_5="13000.00000" pt_clust_6="13000.00000" pt_clust_7="13000.00000" pt_clust_8="13000.00000" pt_clust_9="20.10831"></scales>
<clustering>
<clus scale="   20.108">  1  9  2 -1</clus>
<clus scale="   80.865">  5  6 -1 -1</clus>
<clus scale="   87.472">  2  5  1 -1</clus>
<clus scale="   92.231">  7  8 -1 -1</clus>
<clus scale="   20.108">  1  5  2 -1</clus>
</clustering>
</event>
<event>
 9    1  0.1973774E-005  0.1295908E+03  0.7546771E-02  0.1230700E+00
          1   -1    0    0  502    0  0.00000000000E+00  0.00000000000E+00  0.42047510999E+03  0.42047510999E+03  0.00000000000E+00 0. -1.
         -2   -1    0    0    0  501 -0.00000000000E+00 -0.00000000000E+00 -0.10314095048E+03  0.10314095048E+03  0.00000000000E+00 0.  1.
        -24    2    1    2    0    0 -0.88290125347E+02  0.24702570730E+02 -0.36709475715E+02  0.12523819022E+03  0.77017241244E+02 0.  0.
         23    2    1    2    0    0  0.11711045948E+03 -0.23882756623E+02  0.25187476399E+03  0.29221873496E+03  0.87553678045E+02 0.  0.
         13    1    3    3    0    0 -0.23699194359E+02  0.25953782731E+02  0.18981537067E+02  0.39944328768E+02  0.00000000000E+00 0. -1.
        -14    1    3    3    0    0 -0.64590930988E+02 -0.12512120011E+01 -0.55691012782E+02  0.85293861456E+02  0.00000000000E+00 0.  1.
        -13    1    4    4    0    0  0.41383732657E+02  0.30977639771E+02  0.63249069495E+02  0.81686426574E+02  0.00000000000E+00 0.  1.
         13    1    4    4    0    0  0.75726726826E+02 -0.54860396394E+02  0.18862569450E+03  0.21053230838E+03  0.00000000000E+00 0. -1.
         21    1    1    2  502  501 -0.28820334136E+02 -0.81981410702E+00  0.10216887123E+03  0.10615913528E+03  0.00000000000E+00 0.  1.
<scales pt_clust_5="13000.00000" pt_clust_6="13000.00000" pt_clust_7="13000.00000" pt_clust_8="13000.00000" pt_clust_9="28.83199"></scales>
<clustering>
<clus scale="   28.832">  1  9  2 -1</clus>
<clus scale="   77.017">  5  6 -1 -1</clus>
<clus scale="   87.554">  7  8 -1 -1</clus>
<clus scale="  122.718">  2  5  1 -1</clus>
<clus scale="   28.832">  1  5  2 -1</clus>
</clustering>
</event>
<event>
 9    1  0.1973774E-005  0.1075730E+03  0.7546771E-02  0.1270717E+00
         -2   -1    0    0    0  501 -0.00000000000E+00  0.00000000000E+00  0.73847162475E+02  0.73847162475E+02  0.00000000000E+00 0.  1.
          1   -1    0    0  502    0  0.00000000000E+00 -0.00000000000E+00 -0.38581612182E+03  0.38581612182E+03  0.00000000000E+00 0. -1.
        -24    2    1    2    0    0 -0.47879495249E+02 -0.44074861401E+02  0.90108586681E+01  0.10304563443E+03  0.79386193559E+02 0.  0.
         23    2    1    2    0    0  0.14701771775E+02 -0.66549631787E+01 -0.21316814998E+03  0.23293405273E+03  0.92505038390E+02 0.  0.
         13    1    3    3    0    0 -0.39114723596E+02 -0.55132814260E+02 -0.20244652274E+02  0.70565110047E+02  0.00000000000E+00 0. -1.
        -14    1    3    3    0    0 -0.87647716526E+01  0.11057952859E+02  0.29255510942E+02  0.32480524381E+02  0.00000000000E+00 0.  1.
        -11    1    4    4    0    0  0.43615703238E+02 -0.30319209750E+02 -0.15452173809E+03  0.16339691427E+03  0.00000000000E+00 0. -1.
         11    1    4    4    0    0 -0.28913931463E+02  0.23664246572E+02 -0.58646411885E+02  0.69537138462E+02  0.00000000000E+00 0.  1.
         21    1    1    2  502  501  0.33177723474E+02  0.50729824580E+02 -0.10781166804E+03  0.12368359714E+03  0.00000000000E+00 0.  1.
<scales pt_clust_5="13000.00000" pt_clust_6="13000.00000" pt_clust_7="13000.00000" pt_clust_8="13000.00000" pt_clust_9="60.61581"></scales>
<clustering>
<clus scale="   60.616">  2  9  1 -1</clus>
<clus scale="   79.386">  5  6 -1 -1</clus>
<clus scale="   92.505">  7  8 -1 -1</clus>
<clus scale="   96.524">  1  5  2 -1</clus>
<clus scale="   60.616">  2  5  1 -1</clus>
</clustering>
</event>
<event>
 9    1  0.1973774E-005  0.1475644E+03  0.7546771E-02  0.1205291E+00
         -2   -1    0    0    0  501 -0.00000000000E+00  0.00000000000E+00  0.86400073243E+03  0.86400073243E+03  0.00000000000E+00 0.  1.
          1   -1    0    0  502    0  0.00000000000E+00 -0.00000000000E+00 -0.85302481206E+02  0.85302481206E+02  0.00000000000E+00 0. -1.
        -24    2    1    2    0    0 -0.77083512201E+02 -0.10528659533E+03  0.71233299230E+03  0.72885528878E+03  0.82368714004E+02 0.  0.
         23    2    1    2    0    0  0.46651952817E+02  0.50145331047E+02  0.97365674984E+02  0.15025059849E+03  0.91674471658E+02 0.  0.
         13    1    3    3    0    0 -0.15067715981E+01 -0.46492778866E+02  0.11764111188E+03  0.12650407129E+03  0.00000000000E+00 0. -1.
        -14    1    3    3    0    0 -0.75576740602E+02 -0.58793816467E+02  0.59469188042E+03  0.60235121749E+03  0.00000000000E+00 0.  1.
        -11    1    4    4    0    0  0.35854853276E+02 -0.98988162791E+01  0.77713061280E+02  0.86156119693E+02  0.00000000000E+00 0.  1.
         11    1    4    4    0    0  0.10797099541E+02  0.60044147326E+02  0.19652613704E+02  0.64094478795E+02  0.00000000000E+00 0. -1.
         21    1    1    2  502  501  0.30431559384E+02  0.55141264286E+02 -0.31000416061E+02  0.70197326370E+02  0.00000000000E+00 0. -1.
<scales pt_clust_5="13000.00000" pt_clust_6="13000.00000" pt_clust_7="13000.00000" pt_clust_8="13000.00000" pt_clust_9="62.98126"></scales>
<clustering>
<clus scale="   62.981">  2  9  1 -1</clus>
<clus scale="   82.369">  5  6 -1 -1</clus>
<clus scale="   91.674">  7  8 -1 -1</clus>
<clus scale="  141.971">  1  5  2 -1</clus>
<clus scale="   62.981">  2  5  1 -1</clus>
</clustering>
</event>
<event>
 9    1  0.1973774E-005  0.9358847E+02  0.7546771E-02  0.1301083E+00
         -2   -1    0    0    0  501 -0.00000000000E+00  0.00000000000E+00  0.30343169800E+03  0.30343169800E+03  0.00000000000E+00 0.  1.
          1   -1    0    0  502    0  0.00000000000E+00 -0.00000000000E+00 -0.54399115067E+02  0.54399115067E+02  0.00000000000E+00 0. -1.
        -24    2    1    2    0    0  0.15043014618E+02  0.49685803852E+00  0.18591484301E+03  0.20311069037E+03  0.80393311515E+02 0.  0.
         23    2    1    2    0    0 -0.67080433966E+01 -0.21827676306E+02  0.76193393713E+01  0.94682234512E+02  0.91570879108E+02 0.  0.
         11    1    3    3    0    0  0.24638268799E+02 -0.18022528036E+02  0.21403099442E+02  0.37282012713E+02  0.00000000000E+00 0. -1.
        -12    1    3    3    0    0 -0.95952541802E+01  0.18519386074E+02  0.16451174357E+03  0.16582867766E+03  0.00000000000E+00 0.  1.
        -11    1    4    4    0    0 -0.22012156906E+02  0.17811018821E+02  0.34324500321E+02  0.44496502844E+02  0.00000000000E+00 0.  1.
         11    1    4    4    0    0  0.15304113510E+02 -0.39638695127E+02 -0.26705160949E+02  0.50185731668E+02  0.00000000000E+00 0. -1.
         21    1    1    2  502  501 -0.83349712218E+01  0.21330818268E+02  0.55498400548E+02  0.60037888176E+02  0.00000000000E+00 0.  1.
<scales pt_clust_5="13000.00000" pt_clust_6="13000.00000" pt_clust_7="13000.00000" pt_clust_8="13000.00000" pt_clust_9="22.90143"></scales>
<clustering>
<clus scale="   22.901">  1  9  2 -1</clus>
<clus scale="   80.393">  5  6 -1 -1</clus>
<clus scale="   82.684">  1  5  2 -1</clus>
<clus scale="   91.571">  7  8 -1 -1</clus>
<clus scale="   93.588">  2  5  1 -1</clus>
</clustering>
</event>
<event>
 9    1  0.1973774E-005  0.9466837E+02  0.7546771E-02  0.1297533E+00
         -2   -1    0    0    0  501 -0.00000000000E+00  0.00000000000E+00  0.11172857337E+03  0.11172857337E+03  0.00000000000E+00 0.  1.
          1   -1    0    0  502    0  0.00000000000E+00 -0.00000000000E+00 -0.51431081167E+03  0.51431081167E+03  0.00000000000E+00 0. -1.
         23    2    1    2    0    0  0.53707675293E+02  0.27824637048E+01  0.75189072004E+02  0.11537054046E+03  0.69026868446E+02 0.  0.
        -24    2    1    2    0    0 -0.13633032869E+02  0.55601610933E+02 -0.18723226267E+03  0.21162434064E+03  0.80321495513E+02 0.  0.
         13    1    4    4    0    0 -0.22517001579E+02  0.28022825785E+02 -0.17743258747E+03  0.18103761272E+03  0.00000000000E+00 0. -1.
        -14    1    4    4    0    0  0.88839687100E+01  0.27578785148E+02 -0.97996752012E+01  0.30586727911E+02  0.00000000000E+00 0.  1.
        -11    1    3    3    0    0  0.53726982808E+02  0.28936201424E+02  0.47952730373E+02  0.77610287880E+02  0.00000000000E+00 0.  1.
         11    1    3    3    0    0 -0.19307514893E-01 -0.26153737719E+02  0.27236341630E+02  0.37760252580E+02  0.00000000000E+00 0. -1.
         21    1    1    2  502  501 -0.40074642423E+02 -0.58384074638E+02 -0.29053904763E+03  0.29904450394E+03  0.00000000000E+00 0. -1.
<scales pt_clust_5="13000.00000" pt_clust_6="13000.00000" pt_clust_7="13000.00000" pt_clust_8="13000.00000" pt_clust_9="70.81439"></scales>
<clustering>
<clus scale="   69.027">  7  8 -1 -1</clus>
<clus scale="   70.814">  2  9  1 -1</clus>
<clus scale="   80.321">  5  6 -1 -1</clus>
<clus scale="   85.295">  1  7  2 -1</clus>
<clus scale="   70.814">  2  5  1 -1</clus>
</clustering>
</event>
<event>
 9    1  0.1973774E-005  0.1021718E+03  0.7546771E-02  0.1280294E+00
          1   -1    0    0  502    0  0.00000000000E+00  0.00000000000E+00  0.49044777076E+03  0.49044777076E+03  0.00000000000E+00 0. -1.
         -2   -1    0    0    0  501 -0.00000000000E+00 -0.00000000000E+00 -0.63145440435E+02  0.63145440435E+02  0.00000000000E+00 0.  1.
         23    2    1    2    0    0 -0.50793226754E+01 -0.44743567863E+02 -0.39755274456E+01  0.10052456763E+03  0.89786399270E+02 0.  0.
        -24    2    1    2    0    0  0.10777004284E+02  0.72563944543E+02  0.30880483633E+03  0.32734641835E+03  0.80084834984E+02 0.  0.
         11    1    4    4    0    0  0.39570574532E+02  0.36622992921E+02  0.22848824825E+03  0.23476361210E+03  0.00000000000E+00 0. -1.
        -12    1    4    4    0    0 -0.28793570248E+02  0.35940951622E+02  0.80316588085E+02  0.92582806248E+02  0.00000000000E+00 0.  1.
        -11    1    3    3    0    0  0.39528777691E+02 -0.14308473513E+02  0.12856085932E+02  0.43960614481E+02  0.00000000000E+00 0. -1.
         11    1    3    3    0    0 -0.44608100367E+02 -0.30435094350E+02 -0.16831613378E+02  0.56563953144E+02  0.00000000000E+00 0.  1.
         21    1    1    2  502  501 -0.56976816084E+01 -0.27820376680E+02  0.12247302143E+03  0.12572222522E+03  0.00000000000E+00 0. -1.
<scales pt_clust_5="13000.00000" pt_clust_6="13000.00000" pt_clust_7="13000.00000" pt_clust_8="13000.00000" pt_clust_9="28.39783"></scales>
<clustering>
<clus scale="   28.398">  1  9  2 -1</clus>
<clus scale="   80.085">  5  6 -1 -1</clus>
<clus scale="   89.786">  7  8 -1 -1</clus>
<clus scale="   93.761">  1  5  2 -1</clus>
<clus scale="   28.398">  1  5  2 -1</clus>
</clustering>
</event>
<event>
 9    1  0.1973774E-005  0.1376469E+03  0.7546771E-02  0.1219684E+00
          1   -1    0    0  502    0  0.00000000000E+00  0.00000000000E+00  0.69934878760E+03  0.69934878760E+03  0.00000000000E+00 0. -1.
         -2   -1    0    0    0  501 -0.00000000000E+00 -0.00000000000E+00 -0.16825768998E+03  0.16825768998E+03  0.00000000000E+00 0.  1.
        -24    2    1    2    0    0  0.98183355600E+02  0.50669870445E+02 -0.93356346764E+02  0.16463602909E+03  0.78627015110E+02 0.  0.
         23    2    1    2    0    0 -0.20810968950E+02 -0.99149047178E+02  0.97702398495E+02  0.16837054187E+03  0.92408066284E+02 0.  0.
         13    1    3    3    0    0 -0.97052049328E+01  0.20027774336E+02 -0.24178041540E+02  0.32861534358E+02  0.00000000000E+00 0. -1.
        -14    1    3    3    0    0  0.10788856053E+03  0.30642096108E+02 -0.69178305224E+02  0.13177449473E+03  0.00000000000E+00 0.  1.
        -13    1    4    4    0    0  0.18644312410E+02 -0.74357549182E+02  0.22484875497E+02  0.79888829831E+02  0.00000000000E+00 0.  1.
         13    1    4    4    0    0 -0.39455281361E+02 -0.24791497995E+02  0.75217522998E+02  0.88481712043E+02  0.00000000000E+00 0. -1.
         21    1    1    2  502  501 -0.77372386650E+02  0.48479176733E+02  0.52674504589E+03  0.53459990662E+03  0.00000000000E+00 0. -1.
<scales pt_clust_5="13000.00000" pt_clust_6="13000.00000" pt_clust_7="13000.00000" pt_clust_8="13000.00000" pt_clust_9="91.30562"></scales>
<clustering>
<clus scale="   78.627">  5  6 -1 -1</clus>
<clus scale="   91.306">  1  9  2 -1</clus>
<clus scale="   92.408">  7  8 -1 -1</clus>
<clus scale="  128.801">  2  5  1 -1</clus>
<clus scale="   91.306">  1  5  2 -1</clus>
</clustering>
</event>
<event>
 9    1  0.1973774E-005  0.2620733E+03  0.7546771E-02  0.1131477E+00
          1   -1    0    0  502    0  0.00000000000E+00  0.00000000000E+00  0.22414389278E+04  0.22414389278E+04  0.00000000000E+00 0. -1.
         -2   -1    0    0    0  501 -0.00000000000E+00 -0.00000000000E+00 -0.77523141494E+02  0.77523141494E+02  0.00000000000E+00 0.  1.
        -24    2    1    2    0    0 -0.21696522531E+03 -0.13384386438E+03  0.25534848805E+03  0.36972573809E+03  0.80660907724E+02 0.  0.
         23    2    1    2    0    0 -0.20896456532E+02  0.10102758079E+03  0.43915336778E+03  0.46033324931E+03  0.91693980284E+02 0.  0.
         13    1    3    3    0    0 -0.12589626502E+03 -0.11947252087E+03  0.18568493935E+03  0.25417011919E+03  0.00000000000E+00 0. -1.
        -14    1    3    3    0    0 -0.91068960284E+02 -0.14371343507E+02  0.69663548695E+02  0.11555561890E+03  0.00000000000E+00 0.  1.
        -11    1    4    4    0    0  0.34754777827E+02  0.49497177906E+02  0.23122749636E+03  0.23900631848E+03  0.00000000000E+00 0. -1.
         11    1    4    4    0    0 -0.55651234359E+02  0.51530402882E+02  0.20792587142E+03  0.22132693083E+03  0.00000000000E+00 0.  1.
         21    1    1    2  502  501  0.23786168184E+03  0.32816283588E+02  0.14694139305E+04  0.14889030819E+04  0.00000000000E+00 0. -1.
<scales pt_clust_5="13000.00000" pt_clust_6="13000.00000" pt_clust_7="13000.00000" pt_clust_8="13000.00000" pt_clust_9="249.35162"></scales>
<clustering>
<clus scale="   80.661">  5  6 -1 -1</clus>
<clus scale="   91.694">  7  8 -1 -1</clus>
<clus scale="  138.025">  1  7  2 -1</clus>
<clus scale="  249.352">  1  9  2 -1</clus>
<clus scale="  138.025">  1  5  2 -1</clus>
</clustering>
</event>
<event>
 9    1  0.1973774E-005  0.1061143E+03  0.7546771E-02  0.1273410E+00
          1   -1    0    0  502    0  0.00000000000E+00  0.00000000000E+00  0.62669191529E+03  0.62669191529E+03  0.00000000000E+00 0. -1.
         -2   -1    0    0    0  501 -0.00000000000E+00 -0.00000000000E+00 -0.74060202266E+02  0.74060202266E+02  0.00000000000E+00 0.  1.
        -24    2    1    2    0    0 -0.60833866179E+00  0.54257598762E+02 -0.31436631564E+02  0.10006683801E+03  0.77979825378E+02 0.  0.
         23    2    1    2    0    0 -0.21989399983E+02 -0.66471691065E+02  0.47110493461E+03  0.48483807916E+03  0.90697762748E+02 0.  0.
         11    1    3    3    0    0 -0.34730090299E+02  0.22219351248E+02  0.39095182678E+01  0.41414527344E+02  0.00000000000E+00 0. -1.
        -12    1    3    3    0    0  0.34121751637E+02  0.32038247514E+02 -0.35346149832E+02  0.58652310667E+02  0.00000000000E+00 0.  1.
        -13    1    4    4    0    0 -0.55479098788E+02 -0.36572518063E+02  0.22244306630E+03  0.23215597607E+03  0.00000000000E+00 0. -1.
         13    1    4    4    0    0  0.33489698805E+02 -0.29899173002E+02  0.24866186830E+03  0.25268210309E+03  0.00000000000E+00 0.  1.
         21    1    1    2  502  501  0.22597738644E+02  0.12214092303E+02  0.11296340998E+03  0.11584720039E+03  0.00000000000E+00 0.  1.
<scales pt_clust_5="13000.00000" pt_clust_6="13000.00000" pt_clust_7="13000.00000" pt_clust_8="13000.00000" pt_clust_9="25.68739"></scales>
<clustering>
<clus scale="   25.687">  1  9  2 -1</clus>
<clus scale="   77.980">  5  6 -1 -1</clus>
<clus scale="   90.698">  7  8 -1 -1</clus>
<clus scale="   95.473">  2  5  1 -1</clus>
<clus scale="   25.687">  1  5  2 -1</clus>
</clustering>
</event>
<event>
 9    1  0.1973774E-005  0.1121193E+03  0.7546771E-02  0.1258925E+00
          1   -1    0    0  502    0  0.00000000000E+00  0.00000000000E+00  0.63613717428E+03  0.63613717428E+03  0.00000000000E+00 0. -1.
         -2   -1    0    0    0  501 -0.00000000000E+00 -0.00000000000E+00 -0.12274703208E+03  0.12274703208E+03  0.00000000000E+00 0.  1.
        -24    2    1    2    0    0  0.27385454950E+02  0.59816525077E+02 -0.87651905203E+02  0.13822963615E+03  0.84241296341E+02 0.  0.
         23    2    1    2    0    0 -0.97011372008E+01 -0.80233712537E+02  0.40447562638E+03  0.42224097563E+03  0.90306968024E+02 0.  0.
         13    1    3    3    0    0  0.21435450808E+02  0.71612971087E+02 -0.32490157490E+02  0.81507708304E+02  0.00000000000E+00 0. -1.
        -14    1    3    3    0    0  0.59500041422E+01 -0.11796446010E+02 -0.55161747713E+02  0.56721927846E+02  0.00000000000E+00 0.  1.
        -11    1    4    4    0    0 -0.46969687821E+02 -0.24308335895E+02  0.20670132979E+03  0.21335999275E+03  0.00000000000E+00 0. -1.
         11    1    4    4    0    0  0.37268550621E+02 -0.55925376642E+02  0.19777429659E+03  0.20888098288E+03  0.00000000000E+00 0.  1.
         21    1    1    2  502  501 -0.17684317749E+02  0.20417187460E+02  0.19656642103E+03  0.19841359458E+03  0.00000000000E+00 0.  1.
<scales pt_clust_5="13000.00000" pt_clust_6="13000.00000" pt_clust_7="13000.00000" pt_clust_8="13000.00000" pt_clust_9="27.01105"></scales>
<clustering>
<clus scale="   27.011">  1  9  2 -1</clus>
<clus scale="   84.241">  5  6 -1 -1</clus>
<clus scale="   90.307">  7  8 -1 -1</clus>
<clus scale="  107.294">  2  5  1 -1</clus>
<clus scale="   27.011">  1  5  2 -1</clus>
</clustering>
</event>
<event>
 9    1  0.1973774E-005  0.1188861E+03  0.7546771E-02  0.1247380E+00
         -2   -1    0    0    0  501 -0.00000000000E+00  0.00000000000E+00  0.14334528071E+03  0.14334528071E+03  0.00000000000E+00 0.  1.
          1   -1    0    0  502    0  0.00000000000E+00 -0.00000000000E+00 -0.21600401150E+03  0.21600401150E+03  0.00000000000E+00 0. -1.
        -24    2    1    2    0    0 -0.12598803522E+02  0.80447267736E+02  0.82777425478E+02  0.14067145554E+03  0.79409467319E+02 0.  0.
         23    2    1    2    0    0  0.44001771600E+02 -0.70003341779E+02 -0.11456170781E+03  0.16608560786E+03  0.87312201203E+02 0.  0.
         13    1    3    3    0    0  0.59733510453E+01  0.69072467917E+02  0.17002436982E+02  0.71384659487E+02  0.00000000000E+00 0. -1.
        -14    1    3    3    0    0 -0.18572154567E+02  0.11374799820E+02  0.65774988496E+02  0.69286796057E+02  0.00000000000E+00 0.  1.
        -13    1    4    4    0    0  0.43740179749E+02  0.53587572912E+01 -0.33126349848E+02  0.55129616890E+02  0.00000000000E+00 0. -1.
         13    1    4    4    0    0  0.26159185152E+00 -0.75362099070E+02 -0.81435357961E+02  0.11095599097E+03  0.00000000000E+00 0.  1.
         21    1    1    2  502  501 -0.31402968079E+02 -0.10443925958E+02 -0.40874448458E+02  0.52592228802E+02  0.00000000000E+00 0.  1.
<scales pt_clust_5="13000.00000" pt_clust_6="13000.00000" pt_clust_7="13000.00000" pt_clust_8="13000.00000" pt_clust_9="33.09414"></scales>
<clustering>
<clus scale="   33.094">  2  9  1 -1</clus>
<clus scale="   79.409">  5  6 -1 -1</clus>
<clus scale="   87.312">  7  8 -1 -1</clus>
<clus scale="  113.209">  1  5  2 -1</clus>
<clus scale="   33.094">  2  5  1 -1</clus>
</clustering>
</event>
<event>
 9    1  0.1973774E-005  0.9247684E+02  0.7546771E-02  0.1301603E+00
          1   -1    0    0  502    0  0.00000000000E+00  0.00000000000E+00  0.73993500852E+03  0.73993500852E+03  0.00000000000E+00 0. -1.
         -2   -1    0    0    0  501 -0.00000000000E+00 -0.00000000000E+00 -0.72943727996E+02  0.72943727996E+02  0.00000000000E+00 0.  1.
         23    2    1    2    0    0  0.73645784151E+01  0.44152247480E+01 -0.16891291525E+02  0.92706235810E+02  0.90749100292E+02 0.  0.
        -24    2    1    2    0    0 -0.69945143622E+02  0.18613701739E+02  0.17382177050E+03  0.20577121779E+03  0.82999958793E+02 0.  0.
         11    1    4    4    0    0 -0.88771503978E+02  0.16948834311E+02  0.13316859167E+03  0.16093948152E+03  0.00000000000E+00 0. -1.
        -12    1    4    4    0    0  0.18826360357E+02  0.16648674285E+01  0.40653178828E+02  0.44831736267E+02  0.00000000000E+00 0.  1.
        -11    1    3    3    0    0  0.39489874697E+02 -0.12211145600E+02 -0.33209602430E+02  0.53023013626E+02  0.00000000000E+00 0.  1.
         11    1    3    3    0    0 -0.32125296282E+02  0.16626370348E+02  0.16318310905E+02  0.39683222184E+02  0.00000000000E+00 0. -1.
         21    1    1    2  502  501  0.62580565206E+02 -0.23028926487E+02  0.51006080155E+03  0.51440128292E+03  0.00000000000E+00 0. -1.
<scales pt_clust_5="13000.00000" pt_clust_6="13000.00000" pt_clust_7="13000.00000" pt_clust_8="13000.00000" pt_clust_9="66.68327"></scales>
<clustering>
<clus scale="   66.683">  1  9  2 -1</clus>
<clus scale="   83.000">  5  6 -1 -1</clus>
<clus scale="   84.886">  1  5  2 -1</clus>
<clus scale="   90.749">  7  8 -1 -1</clus>
<clus scale="   66.683">  1  5  2 -1</clus>
</clustering>
</event>
<event>
 9    1  0.1973774E-005  0.1102191E+03  0.7546771E-02  0.1262975E+00
         -2   -1    0    0    0  501 -0.00000000000E+00  0.00000000000E+00  0.13095210786E+03  0.13095210786E+03  0.00000000000E+00 0.  1.
          1   -1    0    0  502    0  0.00000000000E+00 -0.00000000000E+00 -0.18016321048E+03  0.18016321048E+03  0.00000000000E+00 0. -1.
        -24    2    1    2    0    0  0.96865764159E+01  0.74987947996E+02 -0.51952959644E+02  0.12145039858E+03  0.79586853142E+02 0.  0.
         23    2    1    2    0    0 -0.26798823239E+02 -0.55579879760E+02 -0.59494581530E+02  0.12226405635E+03  0.87187122235E+02 0.  0.
         11    1    3    3    0    0 -0.25835990128E+02  0.33438578087E+02 -0.51717087243E+02  0.66785432568E+02  0.00000000000E+00 0. -1.
        -12    1    3    3    0    0  0.35522566544E+02  0.41549369909E+02 -0.23587240102E+00  0.54664966016E+02  0.00000000000E+00 0.  1.
        -11    1    4    4    0    0  0.21115227404E+02 -0.46397681328E+02 -0.52153924069E+02  0.72928934290E+02  0.00000000000E+00 0.  1.
         11    1    4    4    0    0 -0.47914050643E+02 -0.91821984321E+01 -0.73406574610E+01  0.49335122064E+02  0.00000000000E+00 0. -1.
         21    1    1    2  502  501  0.17112246823E+02 -0.19408068236E+02  0.62236438550E+02  0.67400863402E+02  0.00000000000E+00 0.  1.
<scales pt_clust_5="13000.00000" pt_clust_6="13000.00000" pt_clust_7="13000.00000" pt_clust_8="13000.00000" pt_clust_9="25.87474"></scales>
<clustering>
<clus scale="   25.875">  1  9  2 -1</clus>
<clus scale="   79.587">  5  6 -1 -1</clus>
<clus scale="   87.187">  7  8 -1 -1</clus>
<clus scale="  104.311">  1  5  2 -1</clus>
<clus scale="  110.219">  2  5  1 -1</clus>
</clustering>
</event>
<event>
 9    1  0.1973774E-005  0.9214014E+02  0.7546771E-02  0.1300154E+00
         -2   -1    0    0    0  501 -0.00000000000E+00  0.00000000000E+00  0.49261332195E+03  0.49261332195E+03  0.00000000000E+00 0.  1.
          1   -1    0    0  502    0  0.00000000000E+00 -0.00000000000E+00 -0.33498251193E+02  0.33498251193E+02  0.00000000000E+00 0. -1.
         23    2    1    2    0    0  0.37411146944E+02  0.15078562215E+02  0.34735160821E+03  0.35974163394E+03  0.84462693008E+02 0.  0.
        -24    2    1    2    0    0 -0.32715137863E+02  0.11550360870E+02  0.10833357911E+03  0.13911345105E+03  0.80079315808E+02 0.  0.
         11    1    4    4    0    0 -0.18175086040E+02  0.46106991723E+02  0.66537915750E+02  0.82966756419E+02  0.00000000000E+00 0. -1.
        -12    1    4    4    0    0 -0.14540051823E+02 -0.34556630853E+02  0.41795663356E+02  0.56146694634E+02  0.00000000000E+00 0.  1.
        -13    1    3    3    0    0  0.30718298204E+02  0.49518250664E+02  0.20403321960E+03  0.21219148356E+03  0.00000000000E+00 0. -1.
         13    1    3    3    0    0  0.66928487399E+01 -0.34439688449E+02  0.14331838861E+03  0.14755015039E+03  0.00000000000E+00 0.  1.
         21    1    1    2  502  501 -0.46960090804E+01 -0.26628923085E+02  0.34298834421E+01  0.27256488152E+02  0.00000000000E+00 0.  1.
<scales pt_clust_5="13000.00000" pt_clust_6="13000.00000" pt_clust_7="13000.00000" pt_clust_8="13000.00000" pt_clust_9="27.03982"></scales>
<clustering>
<clus scale="   27.040">  2  9  1 -1</clus>
<clus scale="   80.079">  5  6 -1 -1</clus>
<clus scale="   84.463">  7  8 -1 -1</clus>
<clus scale="   88.139">  2  5  1 -1</clus>
<clus scale="   27.040">  2  5  1 -1</clus>
</clustering>
</event>
<event>
 9    1  0.1973774E-005  0.1344539E+03  0.7546771E-02  0.1225814E+00
          1   -1    0    0  502    0  0.00000000000E+00  0.00000000000E+00  0.55652388878E+02  0.55652388878E+02  0.00000000000E+00 0. -1.
         -2   -1    0    0    0  501 -0.00000000000E+00 -0.00000000000E+00 -0.43423709539E+03  0.43423709539E+03  0.00000000000E+00 0.  1.
        -24    2    1    2    0    0 -0.56752310421E+02  0.39796509451E+02 -0.26708267483E+03  0.29249274237E+03  0.97027121180E+02 0.  0.
         23    2    1    2    0    0  0.77693709094E+02 -0.36221989084E+02 -0.97838854123E+02  0.17213804448E+03  0.11274182921E+03 0.  0.
         13    1    3    3    0    0 -0.43491306252E+02 -0.25708569832E+02 -0.89888413183E+02  0.10311329258E+03  0.00000000000E+00 0. -1.
        -14    1    3    3    0    0 -0.13261004169E+02  0.65505079283E+02 -0.17719426165E+03  0.18937944979E+03  0.00000000000E+00 0.  1.
        -11    1    4    4    0    0  0.67664941401E+02 -0.72523752440E+02 -0.89425115241E+02  0.13354808197E+03  0.00000000000E+00 0. -1.
         11    1    4    4    0    0  0.10028767693E+02  0.36301763356E+02 -0.84137388826E+01  0.38589962506E+02  0.00000000000E+00 0.  1.
         21    1    1    2  502  501 -0.20941398673E+02 -0.35745203672E+01 -0.13663177563E+02  0.25258697420E+02  0.00000000000E+00 0. -1.
<scales pt_clust_5="13000.00000" pt_clust_6="13000.00000" pt_clust_7="13000.00000" pt_clust_8="13000.00000" pt_clust_9="21.24428"></scales>
<clustering>
<clus scale="   21.244">  1  9  2 -1</clus>
<clus scale="   97.027">  5  6 -1 -1</clus>
<clus scale="  112.742">  7  8 -1 -1</clus>
<clus scale="  121.579">  2  5  1 -1</clus>
<clus scale="   21.244">  1  5  2 -1</clus>
</clustering>
</event>
<event>
 9    1  0.1973774E-005  0.9878339E+02  0.7546771E-02  0.1294763E+00
          3   -1    0    0  502    0  0.00000000000E+00  0.00000000000E+00  0.16085462946E+03  0.16085462946E+03  0.00000000000E+00 0. -1.
         -4   -1    0    0    0  501 -0.00000000000E+00 -0.00000000000E+00 -0.16630325619E+03  0.16630325619E+03  0.00000000000E+00 0.  1.
        -24    2    1    2    0    0  0.42531980818E+01  0.17670675353E+01 -0.12767451883E+03  0.15016211563E+03  0.78909226276E+02 0.  0.
         23    2    1    2    0    0 -0.54503829031E+01  0.23905942526E+02  0.90150496891E+02  0.13589385188E+03  0.98685490966E+02 0.  0.
         13    1    3    3    0    0  0.97025802675E+01 -0.29948892213E+02 -0.10788300296E+03  0.11238246543E+03  0.00000000000E+00 0. -1.
        -14    1    3    3    0    0 -0.54493821857E+01  0.31715959748E+02 -0.19791515868E+02  0.37779650201E+02  0.00000000000E+00 0.  1.
        -13    1    4    4    0    0 -0.40983018606E+02  0.44382565502E+02  0.48840198483E+02  0.77683878138E+02  0.00000000000E+00 0.  1.
         13    1    4    4    0    0  0.35532635703E+02 -0.20476622976E+02  0.41310298408E+02  0.58209973742E+02  0.00000000000E+00 0. -1.
         21    1    1    2  502  501  0.11971848213E+01 -0.25673010061E+02  0.32075395210E+02  0.41101918142E+02  0.00000000000E+00 0. -1.
<scales pt_clust_5="13000.00000" pt_clust_6="13000.00000" pt_clust_7="13000.00000" pt_clust_8="13000.00000" pt_clust_9="25.70091"></scales>
<clustering>
<clus scale="   25.701">  1  9  2 -1</clus>
<clus scale="   78.909">  5  6 -1 -1</clus>
<clus scale="   79.032">  2  5  1 -1</clus>
<clus scale="   98.685">  7  8 -1 -1</clus>
<clus scale="   25.701">  1  5  2 -1</clus>
</clustering>
</event>
<event>
 9    1  0.1973774E-005  0.9829879E+02  0.7546771E-02  0.1290173E+00
         -4   -1    0    0    0  501 -0.00000000000E+00  0.00000000000E+00  0.48365684934E+03  0.48365684934E+03  0.00000000000E+00 0.  1.
          3   -1    0    0  502    0  0.00000000000E+00 -0.00000000000E+00 -0.25220667145E+02  0.25220667145E+02  0.00000000000E+00 0. -1.
         23    2    1    2    0    0 -0.23459003844E+02  0.15995806968E+02  0.27010343083E+03  0.28680699749E+03  0.92174832598E+02 0.  0.
        -24    2    1    2    0    0  0.20853253241E+02 -0.40746730857E+02  0.15401391649E+03  0.17967735213E+03  0.80427048614E+02 0.  0.
         11    1    4    4    0    0 -0.28591204561E+02 -0.13678182713E+02  0.30863291900E+02  0.44239037597E+02  0.00000000000E+00 0. -1.
        -12    1    4    4    0    0  0.49444457802E+02 -0.27068548144E+02  0.12315062459E+03  0.13543831453E+03  0.00000000000E+00 0.  1.
        -11    1    3    3    0    0 -0.16409010046E+02 -0.35653941385E+02  0.72486765968E+02  0.82430518544E+02  0.00000000000E+00 0. -1.
         11    1    3    3    0    0 -0.70499937983E+01  0.51649748353E+02  0.19761666486E+03  0.20437647895E+03  0.00000000000E+00 0.  1.
         21    1    1    2  502  501  0.26057506029E+01  0.24750923888E+02  0.34318834882E+02  0.42393166869E+02  0.00000000000E+00 0.  1.
<scales pt_clust_5="13000.00000" pt_clust_6="13000.00000" pt_clust_7="13000.00000" pt_clust_8="13000.00000" pt_clust_9="24.88771"></scales>
<clustering>
<clus scale="   24.888">  2  9  1 -1</clus>
<clus scale="   80.427">  5  6 -1 -1</clus>
<clus scale="   87.378">  2  5  1 -1</clus>
<clus scale="   92.175">  7  8 -1 -1</clus>
<clus scale="   24.888">  2  5  1 -1</clus>
</clustering>
</event>
<event>
 9    1  0.1973774E-005  0.9486179E+02  0.7546771E-02  0.1298281E+00
          1   -1    0    0  502    0  0.00000000000E+00  0.00000000000E+00  0.12143552850E+03  0.12143552850E+03  0.00000000000E+00 0. -1.
         -2   -1    0    0    0  501 -0.00000000000E+00 -0.00000000000E+00 -0.43729748868E+03  0.43729748868E+03  0.00000000000E+00 0.  1.
         23    2    1    2    0    0 -0.15904052348E+02 -0.24995406365E+02 -0.29018316292E+03  0.30571695611E+03  0.91536222273E+02 0.  0.
        -24    2    1    2    0    0  0.21071439443E+02  0.50685858620E+01 -0.12593670000E+03  0.15066652699E+03  0.79816375686E+02 0.  0.
         11    1    4    4    0    0  0.29632256940E+01  0.37452270585E+02 -0.30900665696E+02  0.48644675135E+02  0.00000000000E+00 0. -1.
        -12    1    4    4    0    0  0.18108213749E+02 -0.32383684723E+02 -0.95036034299E+02  0.10202185186E+03  0.00000000000E+00 0.  1.
        -13    1    3    3    0    0 -0.46740449514E+02 -0.26073141832E+02 -0.24645091469E+03  0.25219542362E+03  0.00000000000E+00 0.  1.
         13    1    3    3    0    0  0.30836397166E+02  0.10777354677E+01 -0.43732248232E+02  0.53521532483E+02  0.00000000000E+00 0. -1.
         21    1    1    2  502  501 -0.51673870957E+01  0.19926820503E+02  0.10025790274E+03  0.10234953408E+03  0.00000000000E+00 0. -1.
<scales pt_clust_5="13000.00000" pt_clust_6="13000.00000" pt_clust_7="13000.00000" pt_clust_8="13000.00000" pt_clust_9="20.58592"></scales>
<clustering>
<clus scale="   20.586">  1  9  2 -1</clus>
<clus scale="   79.816">  5  6 -1 -1</clus>
<clus scale="   83.609">  1  5  2 -1</clus>
<clus scale="   91.536">  7  8 -1 -1</clus>
<clus scale="   20.586">  1  5  2 -1</clus>
</clustering>
</event>
<event>
 9    1  0.1973774E-005  0.9506911E+02  0.7546771E-02  0.1294699E+00
         -2   -1    0    0    0  501 -0.00000000000E+00  0.00000000000E+00  0.33771941164E+03  0.33771941164E+03  0.00000000000E+00 0.  1.
          1   -1    0    0  502    0  0.00000000000E+00 -0.00000000000E+00 -0.13406242618E+03  0.13406242618E+03  0.00000000000E+00 0. -1.
        -24    2    1    2    0    0 -0.37470366453E+02  0.15701800689E+02  0.29712073930E+03  0.31037630867E+03  0.80013401088E+02 0.  0.
         23    2    1    2    0    0  0.78395684286E+01 -0.22272438698E+02 -0.37201079861E+02  0.97478649366E+02  0.86951977440E+02 0.  0.
         11    1    3    3    0    0  0.17188033109E+02 -0.16149638918E+02  0.12003381555E+03  0.12232888536E+03  0.00000000000E+00 0. -1.
        -12    1    3    3    0    0 -0.54658399563E+02  0.31851439607E+02  0.17708692376E+03  0.18804742331E+03  0.00000000000E+00 0.  1.
        -13    1    4    4    0    0 -0.23281126391E+02  0.24052637681E+02 -0.76814007021E+01  0.34344492167E+02  0.00000000000E+00 0.  1.
         13    1    4    4    0    0  0.31120694820E+02 -0.46325076380E+02 -0.29519679159E+02  0.63134157199E+02  0.00000000000E+00 0. -1.
         21    1    1    2  502  501  0.29630798025E+02  0.65706380098E+01 -0.56262673978E+02  0.63926879782E+02  0.00000000000E+00 0. -1.
<scales pt_clust_5="13000.00000" pt_clust_6="13000.00000" pt_clust_7="13000.00000" pt_clust_8="13000.00000" pt_clust_9="30.35058"></scales>
<clustering>
<clus scale="   30.351">  2  9  1 -1</clus>
<clus scale="   80.013">  5  6 -1 -1</clus>
<clus scale="   86.952">  7  8 -1 -1</clus>
<clus scale="   88.767">  1  5  2 -1</clus>
<clus scale="   30.351">  2  5  1 -1</clus>
</clustering>
</event>
<event>
 9    1  0.1973774E-005  0.1083277E+03  0.7546771E-02  0.1270445E+00
          1   -1    0    0  502    0  0.00000000000E+00  0.00000000000E+00  0.80430003448E+02  0.80430003448E+02  0.00000000000E+00 0. -1.
         -2   -1    0    0    0  501 -0.00000000000E+00 -0.00000000000E+00 -0.25153169548E+03  0.25153169548E+03  0.00000000000E+00 0.  1.
         23    2    1    2    0    0 -0.85973565810E+02  0.20723554253E+02 -0.12646725302E+03  0.17983111738E+03  0.92327379338E+02 0.  0.
        -24    2    1    2    0    0  0.26548410417E+02 -0.25633876621E+01 -0.39040123354E+02  0.89741182514E+02  0.76275550182E+02 0.  0.
         13    1    4    4    0    0  0.21149331311E+01 -0.30186688486E+02  0.66921772467E+01  0.30991843123E+02  0.00000000000E+00 0. -1.
        -14    1    4    4    0    0  0.24433477286E+02  0.27623300823E+02 -0.45732300601E+02  0.58749339391E+02  0.00000000000E+00 0.  1.
        -13    1    3    3    0    0 -0.62530106466E+02  0.16518525315E+02 -0.13871320078E+03  0.15304975650E+03  0.00000000000E+00 0.  1.
         13    1    3    3    0    0 -0.23443459343E+02  0.42050289381E+01  0.12245947764E+02  0.26781360888E+02  0.00000000000E+00 0. -1.
         21    1    1    2  502  501  0.59425155392E+02 -0.18160166591E+02 -0.55943156670E+01  0.62389399034E+02  0.00000000000E+00 0. -1.
<scales pt_clust_5="13000.00000" pt_clust_6="13000.00000" pt_clust_7="13000.00000" pt_clust_8="13000.00000" pt_clust_9="62.13808"></scales>
<clustering>
<clus scale="   62.138">  1  9  2 -1</clus>
<clus scale="   76.276">  5  6 -1 -1</clus>
<clus scale="   92.327">  7  8 -1 -1</clus>
<clus scale="   95.018">  1  5  2 -1</clus>
<clus scale="   62.138">  1  5  2 -1</clus>
</clustering>
</event>
<event>
 9    1  0.1973774E-005  0.1117028E+03  0.7546771E-02  0.1264819E+00
          1   -1    0    0  502    0  0.00000000000E+00  0.00000000000E+00  0.75837292710E+02  0.75837292710E+02  0.00000000000E+00 0. -1.
         -2   -1    0    0    0  501 -0.00000000000E+00 -0.00000000000E+00 -0.53626424403E+03  0.53626424403E+03  0.00000000000E+00 0.  1.
         23    2    1    2    0    0  0.69570797663E+01  0.61995663536E+02 -0.39700862396E+03  0.41374277367E+03  0.98363468879E+02 0.  0.
        -24    2    1    2    0    0  0.53792519212E+02 -0.23416353019E+02 -0.75696394825E+02  0.12535446240E+03  0.80881619312E+02 0.  0.
         11    1    4    4    0    0  0.64613196972E+02  0.21528478445E+01 -0.28620725535E+02  0.70701102587E+02  0.00000000000E+00 0. -1.
        -12    1    4    4    0    0 -0.10820677760E+02 -0.25569200863E+02 -0.47075669290E+02  0.54653359815E+02  0.00000000000E+00 0.  1.
        -11    1    3    3    0    0 -0.27869088083E+02 -0.12855468463E+02 -0.69241907661E+02  0.75738965642E+02  0.00000000000E+00 0. -1.
         11    1    3    3    0    0  0.34826167849E+02  0.74851131999E+02 -0.32776671630E+03  0.33800380803E+03  0.00000000000E+00 0.  1.
         21    1    1    2  502  501 -0.60749598978E+02 -0.38579310517E+02  0.12278067462E+02  0.73004300671E+02  0.00000000000E+00 0. -1.
<scales pt_clust_5="13000.00000" pt_clust_6="13000.00000" pt_clust_7="13000.00000" pt_clust_8="13000.00000" pt_clust_9="71.96441"></scales>
<clustering>
<clus scale="   71.964">  1  9  2 -1</clus>
<clus scale="   80.882">  5  6 -1 -1</clus>
<clus scale="   96.664">  1  5  2 -1</clus>
<clus scale="   98.363">  7  8 -1 -1</clus>
<clus scale="   71.964">  1  5  2 -1</clus>
</clustering>
</event>
<event>
 9    1  0.1973774E-005  0.1023922E+03  0.7546771E-02  0.1281814E+00
         -2   -1    0    0    0  501 -0.00000000000E+00  0.00000000000E+00  0.25129740880E+03  0.25129740880E+03  0.00000000000E+00 0.  1.
          1   -1    0    0  502    0  0.00000000000E+00 -0.00000000000E+00 -0.22338839477E+03  0.22338839477E+03  0.00000000000E+00 0. -1.
         23    2    1    2    0    0  0.39214867210E+02  0.26360106608E+02  0.22608843800E+03  0.24830844081E+03  0.91150638793E+02 0.  0.
        -24    2    1    2    0    0 -0.20337963364E+02 -0.36358096994E+02 -0.15799676708E+03  0.18086974553E+03  0.77558638923E+02 0.  0.
         13    1    4    4    0    0 -0.47732433581E+02 -0.29766027539E+02 -0.12745051835E+03  0.13931272820E+03  0.00000000000E+00 0. -1.
        -14    1    4    4    0    0  0.27394470217E+02 -0.65920694555E+01 -0.30546248723E+02  0.41557017329E+02  0.00000000000E+00 0.  1.
        -11    1    3    3    0    0  0.24974874791E+02  0.43372696553E+02  0.21954545520E+03  0.22517802308E+03  0.00000000000E+00 0.  1.
         11    1    3    3    0    0  0.14239992419E+02 -0.17012589944E+02  0.65429827926E+01  0.23130417734E+02  0.00000000000E+00 0. -1.
         21    1    1    2  502  501 -0.18876903846E+02  0.99979903857E+01 -0.40182656896E+02  0.45507617228E+02  0.00000000000E+00 0.  1.
<scales pt_clust_5="13000.00000" pt_clust_6="13000.00000" pt_clust_7="13000.00000" pt_clust_8="13000.00000" pt_clust_9="21.36112"></scales>
<clustering>
<clus scale="   21.361">  2  9  1 -1</clus>
<clus scale="   77.559">  5  6 -1 -1</clus>
<clus scale="   90.504">  2  5  1 -1</clus>
<clus scale="   91.151">  7  8 -1 -1</clus>
<clus scale="   21.361">  2  5  1 -1</clus>
</clustering>
</event>
<event>
 9    1  0.1973774E-005  0.1045294E+03  0.7546771E-02  0.1276177E+00
         -4   -1    0    0    0  501 -0.00000000000E+00  0.00000000000E+00  0.26938944397E+03  0.26938944397E+03  0.00000000000E+00 0.  1.
          3   -1    0    0  502    0  0.00000000000E+00 -0.00000000000E+00 -0.46179838081E+02  0.46179838081E+02  0.00000000000E+00 0. -1.
        -24    2    1    2    0    0  0.17097943009E+02  0.57274725233E+02  0.12731222765E+03  0.16122563922E+03  0.78819855533E+02 0.  0.
         23    2    1    2    0    0 -0.19183249115E+01 -0.43076845465E+02  0.80388949753E+02  0.12841080748E+03  0.90375094186E+02 0.  0.
         11    1    3    3    0    0 -0.18625718945E+02  0.52177318305E+02  0.45084513877E+02  0.71428309117E+02  0.00000000000E+00 0. -1.
        -12    1    3    3    0    0  0.35723661954E+02  0.50974069272E+01  0.82227713777E+02  0.89797330104E+02  0.00000000000E+00 0.  1.
        -13    1    4    4    0    0 -0.33210697540E+02 -0.54479171245E+02  0.37146956803E+02  0.73829715768E+02  0.00000000000E+00 0. -1.
         13    1    4    4    0    0  0.31292372629E+02  0.11402325781E+02  0.43241992950E+02  0.54581091710E+02  0.00000000000E+00 0.  1.
         21    1    1    2  502  501 -0.15179618097E+02 -0.14197879768E+02  0.15508428482E+02  0.25932835353E+02  0.00000000000E+00 0.  1.
<scales pt_clust_5="13000.00000" pt_clust_6="13000.00000" pt_clust_7="13000.00000" pt_clust_8="13000.00000" pt_clust_9="20.78462"></scales>
<clustering>
<clus scale="   20.785">  2  9  1 -1</clus>
<clus scale="   78.820">  5  6 -1 -1</clus>
<clus scale="   90.375">  7  8 -1 -1</clus>
<clus scale="   94.717">  1  5  2 -1</clus>
<clus scale="   20.785">  2  5  1 -1</clus>
</clustering>
</event>
<event>
 9    1  0.1973774E-005  0.1318308E+03  0.7546771E-02  0.1228267E+00
          1   -1    0    0  502    0  0.00000000000E+00  0.00000000000E+00  0.51557265660E+03  0.51557265660E+03  0.00000000000E+00 0. -1.
         -2   -1    0    0    0  501 -0.00000000000E+00 -0.00000000000E+00 -0.32990393400E+03  0.32990393400E+03  0.00000000000E+00 0.  1.
        -24    2    1    2    0    0 -0.47492107317E+02 -0.79461419534E+02 -0.30103155848E+03  0.32486158124E+03  0.79658209333E+02 0.  0.
         23    2    1    2    0    0  0.72302908444E+02  0.84366625723E+02  0.31179070670E+03  0.34388641488E+03  0.93268341087E+02 0.  0.
         13    1    3    3    0    0 -0.64502346481E+02 -0.63258256753E+02 -0.17808630813E+03  0.19969199506E+03  0.00000000000E+00 0. -1.
        -14    1    3    3    0    0  0.17010239164E+02 -0.16203162781E+02 -0.12294525035E+03  0.12516958617E+03  0.00000000000E+00 0.  1.
        -11    1    4    4    0    0  0.78262390708E+02  0.49830555543E+02  0.13598030686E+03  0.16461691869E+03  0.00000000000E+00 0.  1.
         11    1    4    4    0    0 -0.59594822640E+01  0.34536070181E+02  0.17581039984E+03  0.17926949619E+03  0.00000000000E+00 0. -1.
         21    1    1    2  502  501 -0.24810801127E+02 -0.49052061894E+01  0.17490957438E+03  0.17672859449E+03  0.00000000000E+00 0. -1.
<scales pt_clust_5="13000.00000" pt_clust_6="13000.00000" pt_clust_7="13000.00000" pt_clust_8="13000.00000" pt_clust_9="25.29104"></scales>
<clustering>
<clus scale="   25.291">  1  9  2 -1</clus>
<clus scale="   79.658">  5  6 -1 -1</clus>
<clus scale="   93.268">  7  8 -1 -1</clus>
<clus scale="  122.580">  2  5  1 -1</clus>
<clus scale="   25.291">  1  5  2 -1</clus>
</clustering>
</event>
<event>
 9    1  0.1973774E-005  0.1847899E+03  0.7546771E-02  0.1164424E+00
          1   -1    0    0  502    0  0.00000000000E+00  0.00000000000E+00  0.43887676150E+03  0.43887676150E+03  0.00000000000E+00 0. -1.
         -2   -1    0    0    0  501 -0.00000000000E+00 -0.00000000000E+00 -0.11051365619E+03  0.11051365619E+03  0.00000000000E+00 0.  1.
        -24    2    1    2    0    0 -0.29385484108E+02 -0.14452864850E+03  0.75537063684E+02  0.18434035569E+03  0.80768074347E+02 0.  0.
         23    2    1    2    0    0  0.39671666194E+02  0.17538270543E+03  0.13465528292E+03  0.24248535834E+03  0.91291671729E+02 0.  0.
         13    1    3    3    0    0 -0.49019396595E+01 -0.12681419524E+03  0.31206782115E+02  0.13068945014E+03  0.00000000000E+00 0. -1.
        -14    1    3    3    0    0 -0.24483544448E+02 -0.17714453258E+02  0.44330281569E+02  0.53650905556E+02  0.00000000000E+00 0.  1.
        -11    1    4    4    0    0 -0.54806986295E+01  0.10997593111E+03  0.36106495304E+02  0.11588107043E+03  0.00000000000E+00 0.  1.
         11    1    4    4    0    0  0.45152364824E+02  0.65406774326E+02  0.98548787617E+02  0.12660428791E+03  0.00000000000E+00 0. -1.
         21    1    1    2  502  501 -0.10286182086E+02 -0.30854056932E+02  0.11817075870E+03  0.12256470366E+03  0.00000000000E+00 0.  1.
<scales pt_clust_5="13000.00000" pt_clust_6="13000.00000" pt_clust_7="13000.00000" pt_clust_8="13000.00000" pt_clust_9="32.52350"></scales>
<clustering>
<clus scale="   32.524">  1  9  2 -1</clus>
<clus scale="   80.768">  5  6 -1 -1</clus>
<clus scale="   91.292">  7  8 -1 -1</clus>
<clus scale="  179.824">  2  5  1 -1</clus>
<clus scale="   32.524">  1  5  2 -1</clus>
</clustering>
</event>
<event>
 9    1  0.1973774E-005  0.1336637E+03  0.7546771E-02  0.1232312E+00
          1   -1    0    0  502    0  0.00000000000E+00  0.00000000000E+00  0.42609143899E+03  0.42609143899E+03  0.00000000000E+00 0. -1.
         -2   -1    0    0    0  501 -0.00000000000E+00 -0.00000000000E+00 -0.13957841170E+03  0.13957841170E+03  0.00000000000E+00 0.  1.
        -24    2    1    2    0    0 -0.37764012365E+02 -0.67345763019E+02 -0.98231607471E+02  0.14720357073E+03  0.77832320430E+02 0.  0.
         23    2    1    2    0    0  0.17874098845E+02  0.40979857188E+02  0.35324140185E+03  0.37282393849E+03  0.11054125488E+03 0.  0.
         11    1    3    3    0    0 -0.59196170457E+02 -0.35383515158E+02 -0.48453735269E+02  0.84284899023E+02  0.00000000000E+00 0. -1.
        -12    1    3    3    0    0  0.21432158092E+02 -0.31962247861E+02 -0.49777872202E+02  0.62918671710E+02  0.00000000000E+00 0.  1.
        -11    1    4    4    0    0  0.47327345670E+02 -0.65163823475E+01  0.74261670729E+02  0.88301396515E+02  0.00000000000E+00 0.  1.
         11    1    4    4    0    0 -0.29453246825E+02  0.47496239536E+02  0.27897973112E+03  0.28452254198E+03  0.00000000000E+00 0. -1.
         21    1    1    2  502  501  0.19889913520E+02  0.26365905831E+02  0.31503232912E+02  0.45642341461E+02  0.00000000000E+00 0. -1.
<scales pt_clust_5="13000.00000" pt_clust_6="13000.00000" pt_clust_7="13000.00000" pt_clust_8="13000.00000" pt_clust_9="33.02680"></scales>
<clustering>
<clus scale="   33.027">  1  9  2 -1</clus>
<clus scale="   77.832">  5  6 -1 -1</clus>
<clus scale="  108.187">  2  5  1 -1</clus>
<clus scale="  110.541">  7  8 -1 -1</clus>
<clus scale="   33.027">  1  5  2 -1</clus>
</clustering>
</event>
<event>
 9    1  0.1973774E-005  0.8732160E+02  0.7546771E-02  0.1313540E+00
         -2   -1    0    0    0  501 -0.00000000000E+00  0.00000000000E+00  0.21150323874E+03  0.21150323874E+03  0.00000000000E+00 0.  1.
          1   -1    0    0  502    0  0.00000000000E+00 -0.00000000000E+00 -0.13544404966E+03  0.13544404966E+03  0.00000000000E+00 0. -1.
        -24    2    1    2    0    0 -0.19460752743E+02  0.18350600482E+02  0.18022258798E+03  0.19788478186E+03  0.77218781652E+02 0.  0.
         23    2    1    2    0    0  0.36130149951E+01 -0.31828687507E+01 -0.74468310628E+02  0.11214355280E+03  0.83710588429E+02 0.  0.
         11    1    3    3    0    0  0.77522202105E+01 -0.26501022193E+02  0.82091104594E+02  0.86610337426E+02  0.00000000000E+00 0. -1.
        -12    1    3    3    0    0 -0.27212972954E+02  0.44851622675E+02  0.98131483382E+02  0.11127444444E+03  0.00000000000E+00 0.  1.
        -13    1    4    4    0    0 -0.27489204528E+02  0.21321926484E+02 -0.95049513115E+01  0.36064179097E+02  0.00000000000E+00 0.  1.
         13    1    4    4    0    0  0.31102219523E+02 -0.24504795234E+02 -0.64963359316E+02  0.76079373699E+02  0.00000000000E+00 0. -1.
         21    1    1    2  502  501  0.15847737748E+02 -0.15167731731E+02 -0.29695088269E+02  0.36918953735E+02  0.00000000000E+00 0. -1.
<scales pt_clust_5="13000.00000" pt_clust_6="13000.00000" pt_clust_7="13000.00000" pt_clust_8="13000.00000" pt_clust_9="21.93652"></scales>
<clustering>
<clus scale="   21.937">  2  9  1 -1</clus>
<clus scale="   77.219">  5  6 -1 -1</clus>
<clus scale="   81.119">  1  5  2 -1</clus>
<clus scale="   83.711">  7  8 -1 -1</clus>
<clus scale="   21.937">  2  5  1 -1</clus>
</clustering>
</event>
<event>
 9    1  0.1973774E-005  0.3280270E+03  0.7546771E-02  0.1116693E+00
          1   -1    0    0  502    0  0.00000000000E+00  0.00000000000E+00  0.76345723592E+03  0.76345723592E+03  0.00000000000E+00 0. -1.
         -2   -1    0    0    0  501 -0.00000000000E+00 -0.00000000000E+00 -0.26340790846E+03  0.26340790846E+03  0.00000000000E+00 0.  1.
        -24    2    1    2    0    0 -0.29202848874E+03  0.13756959053E+03 -0.54492820442E+02  0.33731623045E+03  0.81281863734E+02 0.  0.
         23    2    1    2    0    0  0.36483368367E+02  0.22287918146E+02  0.89697422000E+02  0.13552874207E+03  0.92166289662E+02 0.  0.
         13    1    3    3    0    0 -0.61515498524E+02 -0.38491750880E+01 -0.10180132847E+01  0.61644213504E+02  0.00000000000E+00 0. -1.
        -14    1    3    3    0    0 -0.23051299021E+03  0.14141876562E+03 -0.53474807157E+02  0.27567201695E+03  0.00000000000E+00 0.  1.
        -11    1    4    4    0    0  0.27993320769E+02 -0.21396515508E+02  0.83459233263E+02  0.90591834623E+02  0.00000000000E+00 0. -1.
         11    1    4    4    0    0  0.84900475982E+01  0.43684433654E+02  0.62381887373E+01  0.44936907444E+02  0.00000000000E+00 0.  1.
         21    1    1    2  502  501  0.25554512037E+03 -0.15985750868E+03  0.46484472590E+03  0.55402017185E+03  0.00000000000E+00 0. -1.
<scales pt_clust_5="13000.00000" pt_clust_6="13000.00000" pt_clust_7="13000.00000" pt_clust_8="13000.00000" pt_clust_9="317.79702"></scales>
<clustering>
<clus scale="   81.282">  5  6 -1 -1</clus>
<clus scale="   92.166">  7  8 -1 -1</clus>
<clus scale="  101.599">  1  7  2 -1</clus>
<clus scale="  317.797">  1  9  2 -1</clus>
<clus scale="  101.599">  1  5  2 -1</clus>
</clustering>
</event>
<event>
 9    1  0.1973774E-005  0.1163859E+03  0.7546771E-02  0.1253674E+00
         -2   -1    0    0    0  501 -0.00000000000E+00  0.00000000000E+00  0.43008945634E+02  0.43008945634E+02  0.00000000000E+00 0.  1.
          1   -1    0    0  502    0  0.00000000000E+00 -0.00000000000E+00 -0.54943230606E+03  0.54943230606E+03  0.00000000000E+00 0. -1.
        -24    2    1    2    0    0  0.41621284312E+02 -0.87849499797E+02 -0.12695994060E+03  0.17824856327E+03  0.78764572426E+02 0.  0.
         23    2    1    2    0    0 -0.43954105481E+01  0.30310418784E+02 -0.24094425308E+03  0.25964796649E+03  0.91787212005E+02 0.  0.
         13    1    3    3    0    0  0.33332526797E+02 -0.94568736961E+02 -0.75033274548E+02  0.12523695797E+03  0.00000000000E+00 0. -1.
        -14    1    3    3    0    0  0.82887575155E+01  0.67192371638E+01 -0.51926666052E+02  0.53011605300E+02  0.00000000000E+00 0.  1.
        -11    1    4    4    0    0 -0.27942602974E+01  0.55651618366E+02 -0.21934575482E+03  0.22631277179E+03  0.00000000000E+00 0.  1.
         11    1    4    4    0    0 -0.16011502506E+01 -0.25341199582E+02 -0.21598498259E+02  0.33335194697E+02  0.00000000000E+00 0. -1.
         21    1    1    2  502  501 -0.37225873764E+02  0.57539081013E+02 -0.13851916675E+03  0.15454472193E+03  0.00000000000E+00 0.  1.
<scales pt_clust_5="13000.00000" pt_clust_6="13000.00000" pt_clust_7="13000.00000" pt_clust_8="13000.00000" pt_clust_9="68.53110"></scales>
<clustering>
<clus scale="   68.531">  2  9  1 -1</clus>
<clus scale="   78.765">  5  6 -1 -1</clus>
<clus scale="   91.787">  7  8 -1 -1</clus>
<clus scale="  106.417">  1  5  2 -1</clus>
<clus scale="   68.531">  2  5  1 -1</clus>
</clustering>
</event>
<event>
 9    1  0.1973774E-005  0.1039888E+03  0.7546771E-02  0.1277275E+00
          1   -1    0    0  502    0  0.00000000000E+00  0.00000000000E+00  0.37513388591E+03  0.37513388591E+03  0.00000000000E+00 0. -1.
         -2   -1    0    0    0  501 -0.00000000000E+00 -0.00000000000E+00 -0.85292137516E+02  0.85292137516E+02  0.00000000000E+00 0.  1.
         23    2    1    2    0    0 -0.35392049246E+02 -0.37376033379E+02 -0.38448601524E+02  0.11220933237E+03  0.91994968832E+02 0.  0.
        -24    2    1    2    0    0  0.28669013247E+02  0.91266175492E+01  0.26292124775E+03  0.27668803787E+03  0.80768064951E+02 0.  0.
         13    1    4    4    0    0  0.53331084583E+02  0.22773706508E+02  0.17460561433E+03  0.18398360483E+03  0.00000000000E+00 0. -1.
        -14    1    4    4    0    0 -0.24662071336E+02 -0.13647088959E+02  0.88315633420E+02  0.92704433044E+02  0.00000000000E+00 0.  1.
        -13    1    3    3    0    0 -0.39664605926E+01 -0.62518255841E+02 -0.35143210377E+02  0.71828339523E+02  0.00000000000E+00 0.  1.
         13    1    3    3    0    0 -0.31425588654E+02  0.25142222462E+02 -0.33053911473E+01  0.40380992846E+02  0.00000000000E+00 0. -1.
         21    1    1    2  502  501  0.67230359995E+01  0.28249415830E+02  0.65369102167E+02  0.71528653181E+02  0.00000000000E+00 0. -1.
<scales pt_clust_5="13000.00000" pt_clust_6="13000.00000" pt_clust_7="13000.00000" pt_clust_8="13000.00000" pt_clust_9="29.03840"></scales>
<clustering>
<clus scale="   29.038">  1  9  2 -1</clus>
<clus scale="   80.768">  5  6 -1 -1</clus>
<clus scale="   91.995">  7  8 -1 -1</clus>
<clus scale="   94.202">  1  5  2 -1</clus>
<clus scale="   29.038">  1  5  2 -1</clus>
</clustering>
</event>
<event>
 9    1  0.1973774E-005  0.1357713E+03  0.7546771E-02  0.1221533E+00
          1   -1    0    0  502    0  0.00000000000E+00  0.00000000000E+00  0.70268075690E+03  0.70268075690E+03  0.00000000000E+00 0. -1.
         -2   -1    0    0    0  501 -0.00000000000E+00 -0.00000000000E+00 -0.33495202018E+02  0.33495202018E+02  0.00000000000E+00 0.  1.
         23    2    1    2    0    0 -0.81518785765E+01 -0.95170014492E+02  0.19060231250E+03  0.23202659084E+03  0.91560431091E+02 0.  0.
        -24    2    1    2    0    0 -0.60815555177E+01  0.10979377998E+03  0.39151615710E+03  0.41472273612E+03  0.81353470436E+02 0.  0.
         13    1    4    4    0    0 -0.17462051899E+01  0.71880354423E+02  0.35393214237E+03  0.36116173107E+03  0.00000000000E+00 0. -1.
        -14    1    4    4    0    0 -0.43353503278E+01  0.37913425554E+02  0.37584014722E+02  0.53561005054E+02  0.00000000000E+00 0.  1.
        -11    1    3    3    0    0 -0.47885380059E+02 -0.39290690862E+02  0.10967951691E+03  0.12596175785E+03  0.00000000000E+00 0. -1.
         11    1    3    3    0    0  0.39733501483E+02 -0.55879323630E+02  0.80922795590E+02  0.10606483298E+03  0.00000000000E+00 0.  1.
         21    1    1    2  502  501  0.14233434094E+02 -0.14623765485E+02  0.87067085285E+02  0.89426631956E+02  0.00000000000E+00 0.  1.
<scales pt_clust_5="13000.00000" pt_clust_6="13000.00000" pt_clust_7="13000.00000" pt_clust_8="13000.00000" pt_clust_9="20.40699"></scales>
<clustering>
<clus scale="   20.407">  1  9  2 -1</clus>
<clus scale="   81.353">  5  6 -1 -1</clus>
<clus scale="   91.560">  7  8 -1 -1</clus>
<clus scale="  129.108">  1  5  2 -1</clus>
<clus scale="   20.407">  1  5  2 -1</clus>
</clustering>
</event>
<event>
 9    1  0.1973774E-005  0.9742585E+02  0.7546771E-02  0.1291843E+00
         -2   -1    0    0    0  501 -0.00000000000E+00  0.00000000000E+00  0.61222035560E+03  0.61222035560E+03  0.00000000000E+00 0.  1.
          1   -1    0    0  502    0  0.00000000000E+00 -0.00000000000E+00 -0.34436593305E+02  0.34436593305E+02  0.00000000000E+00 0. -1.
        -24    2    1    2    0    0  0.31933006835E+02 -0.16306702068E+02  0.50108381291E+03  0.50877284604E+03  0.80493452217E+02 0.  0.
         23    2    1    2    0    0 -0.13456144325E+02  0.48307010506E+01  0.60518626326E+02  0.11077454249E+03  0.91673832907E+02 0.  0.
         11    1    3    3    0    0 -0.18137826848E+02  0.99247751300E+01  0.49206271791E+02  0.53373580615E+02  0.00000000000E+00 0. -1.
        -12    1    3    3    0    0  0.50070833684E+02 -0.26231477198E+02  0.45187754112E+03  0.45539926542E+03  0.00000000000E+00 0.  1.
        -11    1    4    4    0    0 -0.61056385303E+01 -0.37496480825E+02  0.55870501724E+02  0.67563139795E+02  0.00000000000E+00 0.  1.
         11    1    4    4    0    0 -0.73505057947E+01  0.42327181875E+02  0.46481246015E+01  0.43211402699E+02  0.00000000000E+00 0. -1.
         21    1    1    2  502  501 -0.18476862510E+02  0.11476001018E+02  0.16181323063E+02  0.27109560374E+02  0.00000000000E+00 0. -1.
<scales pt_clust_5="13000.00000" pt_clust_6="13000.00000" pt_clust_7="13000.00000" pt_clust_8="13000.00000" pt_clust_9="21.75070"></scales>
<clustering>
<clus scale="   21.751">  2  9  1 -1</clus>
<clus scale="   80.493">  5  6 -1 -1</clus>
<clus scale="   86.988">  1  5  2 -1</clus>
<clus scale="   91.674">  7  8 -1 -1</clus>
<clus scale="   21.751">  2  5  1 -1</clus>
</clustering>
</event>
<event>
 9    1  0.1973774E-005  0.1444243E+03  0.7546771E-02  0.1208946E+00
         -4   -1    0    0    0  501 -0.00000000000E+00  0.00000000000E+00  0.28165017326E+03  0.28165017326E+03  0.00000000000E+00 0.  1.
          3   -1    0    0  502    0  0.00000000000E+00 -0.00000000000E+00 -0.15767417156E+03  0.15767417156E+03  0.00000000000E+00 0. -1.
        -24    2    1    2    0    0 -0.97781918705E+02 -0.16328644097E+02  0.11239640723E+03  0.17279278792E+03  0.86002714808E+02 0.  0.
         23    2    1    2    0    0  0.11695078699E+03  0.98233073384E+02  0.27474750062E+02  0.18092526614E+03  0.93015411373E+02 0.  0.
         13    1    3    3    0    0 -0.17930411410E+02 -0.31273851769E+02  0.25086558764E+01  0.36136502489E+02  0.00000000000E+00 0. -1.
        -14    1    3    3    0    0 -0.79851507295E+02  0.14945207672E+02  0.10988775135E+03  0.13665628543E+03  0.00000000000E+00 0.  1.
        -11    1    4    4    0    0  0.95147706142E+02  0.80009664125E+02 -0.19685587877E+02  0.12586562163E+03  0.00000000000E+00 0. -1.
         11    1    4    4    0    0  0.21803080851E+02  0.18223409258E+02  0.47160337939E+02  0.55059644515E+02  0.00000000000E+00 0.  1.
         21    1    1    2  502  501 -0.19168868287E+02 -0.81904429286E+02 -0.15895155590E+02  0.85606290770E+02  0.00000000000E+00 0.  1.
<scales pt_clust_5="13000.00000" pt_clust_6="13000.00000" pt_clust_7="13000.00000" pt_clust_8="13000.00000" pt_clust_9="84.11766"></scales>
<clustering>
<clus scale="   84.118">  2  9  1 -1</clus>
<clus scale="   86.003">  5  6 -1 -1</clus>
<clus scale="   93.015">  7  8 -1 -1</clus>
<clus scale="  140.011">  1  5  2 -1</clus>
<clus scale="   84.118">  2  5  1 -1</clus>
</clustering>
</event>
<event>
 9    1  0.1973774E-005  0.1020296E+03  0.7546771E-02  0.1281576E+00
          1   -1    0    0  502    0  0.00000000000E+00  0.00000000000E+00  0.47119929908E+03  0.47119929908E+03  0.00000000000E+00 0. -1.
         -2   -1    0    0    0  501 -0.00000000000E+00 -0.00000000000E+00 -0.45849056853E+02  0.45849056853E+02  0.00000000000E+00 0.  1.
        -24    2    1    2    0    0  0.44745608654E+02 -0.27021296204E+02  0.32704408944E+02  0.10139880746E+03  0.80497328195E+02 0.  0.
         23    2    1    2    0    0 -0.19590887671E+02 -0.25010399733E+01  0.23054240144E+03  0.24897066278E+03  0.91905026980E+02 0.  0.
         13    1    3    3    0    0 -0.69526687879E+01  0.22480841182E+02  0.14144380501E+02  0.27455260394E+02  0.00000000000E+00 0. -1.
        -14    1    3    3    0    0  0.51698277442E+02 -0.49502137386E+02  0.18560028443E+02  0.73943547061E+02  0.00000000000E+00 0.  1.
        -13    1    4    4    0    0  0.16931838539E+02  0.34271796217E+02  0.13461845632E+03  0.13994060152E+03  0.00000000000E+00 0. -1.
         13    1    4    4    0    0 -0.36522726210E+02 -0.36772836191E+02  0.95923945120E+02  0.10903006126E+03  0.00000000000E+00 0.  1.
         21    1    1    2  502  501 -0.25154720983E+02  0.29522336177E+02  0.16210343184E+03  0.16667888569E+03  0.00000000000E+00 0. -1.
<scales pt_clust_5="13000.00000" pt_clust_6="13000.00000" pt_clust_7="13000.00000" pt_clust_8="13000.00000" pt_clust_9="38.78567"></scales>
<clustering>
<clus scale="   38.786">  1  9  2 -1</clus>
<clus scale="   80.497">  5  6 -1 -1</clus>
<clus scale="   91.888">  2  5  1 -1</clus>
<clus scale="   91.905">  7  8 -1 -1</clus>
<clus scale="   38.786">  1  5  2 -1</clus>
</clustering>
</event>
<event>
 9    1  0.1973774E-005  0.1926086E+03  0.7546771E-02  0.1156838E+00
          3   -1    0    0  502    0  0.00000000000E+00  0.00000000000E+00  0.13432279675E+03  0.13432279675E+03  0.00000000000E+00 0. -1.
         -4   -1    0    0    0  501 -0.00000000000E+00 -0.00000000000E+00 -0.67044446766E+03  0.67044446766E+03  0.00000000000E+00 0.  1.
         23    2    1    2    0    0 -0.18064154155E+03 -0.10730841160E+02 -0.47038697417E+03  0.51166122913E+03  0.88242792561E+02 0.  0.
        -24    2    1    2    0    0  0.13548021983E+03  0.85907518617E+02 -0.91502493124E+02  0.20170003360E+03  0.81087641385E+02 0.  0.
         11    1    4    4    0    0  0.14120733401E+03  0.63687666538E+02 -0.69055607376E+02  0.16960043325E+03  0.00000000000E+00 0. -1.
        -12    1    4    4    0    0 -0.57271141749E+01  0.22219852079E+02 -0.22446885748E+02  0.32099600355E+02  0.00000000000E+00 0.  1.
        -13    1    3    3    0    0 -0.12360678250E+03 -0.22680334555E+02 -0.40512552301E+03  0.42416945158E+03  0.00000000000E+00 0.  1.
         13    1    3    3    0    0 -0.57034759044E+02  0.11949493394E+02 -0.65261451160E+02  0.87491777552E+02  0.00000000000E+00 0. -1.
         21    1    1    2  502  501  0.45161321714E+02 -0.75176677456E+02  0.25767796382E+02  0.91406001678E+02  0.00000000000E+00 0.  1.
<scales pt_clust_5="13000.00000" pt_clust_6="13000.00000" pt_clust_7="13000.00000" pt_clust_8="13000.00000" pt_clust_9="87.69879"></scales>
<clustering>
<clus scale="   81.088">  5  6 -1 -1</clus>
<clus scale="   87.699">  1  9  2 -1</clus>
<clus scale="   88.243">  7  8 -1 -1</clus>
<clus scale="  189.437">  1  5  2 -1</clus>
<clus scale="   87.699">  1  5  2 -1</clus>
</clustering>
</event>
<event>
 9    1  0.1973774E-005  0.1156019E+03  0.7546771E-02  0.1256546E+00
          1   -1    0    0  502    0  0.00000000000E+00  0.00000000000E+00  0.45609477990E+03  0.45609477990E+03  0.00000000000E+00 0. -1.
         -2   -1    0    0    0  501 -0.00000000000E+00 -0.00000000000E+00 -0.13174883047E+03  0.13174883047E+03  0.00000000000E+00 0.  1.
        -24    2    1    2    0    0  0.20967452119E+02  0.59907435383E+02 -0.71281931365E+02  0.12452307514E+03  0.79977169494E+02 0.  0.
         23    2    1    2    0    0 -0.10683971318E+03 -0.30669817089E+02  0.20514009002E+03  0.25233598135E+03  0.96102179782E+02 0.  0.
         11    1    3    3    0    0 -0.40822468686E+01  0.30314897886E+02  0.11842804249E+02  0.32801063791E+02  0.00000000000E+00 0. -1.
        -12    1    3    3    0    0  0.25049698988E+02  0.29592537497E+02 -0.83124735613E+02  0.91722011348E+02  0.00000000000E+00 0.  1.
        -13    1    4    4    0    0 -0.65584488811E+02  0.27814939524E+02  0.13204149779E+03  0.15003317357E+03  0.00000000000E+00 0.  1.
         13    1    4    4    0    0 -0.41255224368E+02 -0.58484756613E+02  0.73098592229E+02  0.10230280778E+03  0.00000000000E+00 0. -1.
         21    1    1    2  502  501  0.85872261060E+02 -0.29237618293E+02  0.19048779077E+03  0.21098455388E+03  0.00000000000E+00 0.  1.
<scales pt_clust_5="13000.00000" pt_clust_6="13000.00000" pt_clust_7="13000.00000" pt_clust_8="13000.00000" pt_clust_9="90.71319"></scales>
<clustering>
<clus scale="   79.977">  5  6 -1 -1</clus>
<clus scale="   90.713">  1  9  2 -1</clus>
<clus scale="   96.102">  7  8 -1 -1</clus>
<clus scale="  102.589">  2  5  1 -1</clus>
<clus scale="   90.713">  1  5  2 -1</clus>
</clustering>
</event>
<event>
 9    1  0.1973774E-005  0.1424287E+03  0.7546771E-02  0.1221740E+00
         -2   -1    0    0    0  501 -0.00000000000E+00  0.00000000000E+00  0.28251604101E+03  0.28251604101E+03  0.00000000000E+00 0.  1.
          1   -1    0    0  502    0  0.00000000000E+00 -0.00000000000E+00 -0.22973164668E+03  0.22973164668E+03  0.00000000000E+00 0. -1.
         23    2    1    2    0    0  0.65746693858E+02  0.94993144496E+01  0.17737705046E+03  0.20943263742E+03  0.89367482100E+02 0.  0.
        -24    2    1    2    0    0  0.55272965445E+02 -0.71462318921E+02 -0.28957074820E+01  0.12034500021E+03  0.79451684806E+02 0.  0.
         11    1    4    4    0    0  0.14953640298E+02 -0.78037262450E+02 -0.21656503891E+01  0.79486575788E+02  0.00000000000E+00 0. -1.
        -12    1    4    4    0    0  0.40319325146E+02  0.65749435292E+01 -0.73005709292E+00  0.40858424419E+02  0.00000000000E+00 0.  1.
        -13    1    3    3    0    0  0.23373995500E+02  0.48358361868E+02  0.91081253769E+02  0.10573868552E+03  0.00000000000E+00 0. -1.
         13    1    3    3    0    0  0.42372698358E+02 -0.38859047419E+02  0.86295796693E+02  0.10369395189E+03  0.00000000000E+00 0.  1.
         21    1    1    2  502  501 -0.12101965930E+03  0.61963004471E+02 -0.12169694865E+03  0.18247005007E+03  0.00000000000E+00 0. -1.
<scales pt_clust_5="13000.00000" pt_clust_6="13000.00000" pt_clust_7="13000.00000" pt_clust_8="13000.00000" pt_clust_9="118.20893"></scales>
<clustering>
<clus scale="   79.452">  5  6 -1 -1</clus>
<clus scale="   89.367">  7  8 -1 -1</clus>
<clus scale="  111.353">  1  7  2 -1</clus>
<clus scale="  118.209">  2  9  1 -1</clus>
<clus scale="  118.209">  2  5  1 -1</clus>
</clustering>
</event>
<event>
 9    1  0.1973774E-005  0.1625004E+03  0.7546771E-02  0.1187744E+00
          1   -1    0    0  502    0  0.00000000000E+00  0.00000000000E+00  0.14036463347E+03  0.14036463347E+03  0.00000000000E+00 0. -1.
         -2   -1    0    0    0  501 -0.00000000000E+00 -0.00000000000E+00 -0.32843030819E+03  0.32843030819E+03  0.00000000000E+00 0.  1.
         23    2    1    2    0    0  0.56344109793E+02  0.13089087256E+03 -0.21799483035E+03  0.27606671496E+03  0.91564216918E+02 0.  0.
        -24    2    1    2    0    0 -0.60888359735E+02 -0.99316433056E+02 -0.10312772106E+02  0.14137641869E+03  0.79434200871E+02 0.  0.
         13    1    4    4    0    0 -0.73794631102E+02 -0.47922468173E+02 -0.75957897535E+01  0.88317079646E+02  0.00000000000E+00 0. -1.
        -14    1    4    4    0    0  0.12906271367E+02 -0.51393964884E+02 -0.27169823522E+01  0.53059339048E+02  0.00000000000E+00 0.  1.
        -13    1    3    3    0    0 -0.16490113469E+02  0.65219024887E+02 -0.60171646831E+02  0.90255593354E+02  0.00000000000E+00 0.  1.
         13    1    3    3    0    0  0.72834223262E+02  0.65671847674E+02 -0.15782318352E+03  0.18581112160E+03  0.00000000000E+00 0. -1.
         21    1    1    2  502  501  0.45442499419E+01 -0.31574439504E+02  0.40241927736E+02  0.51351808005E+02  0.00000000000E+00 0. -1.
<scales pt_clust_5="13000.00000" pt_clust_6="13000.00000" pt_clust_7="13000.00000" pt_clust_8="13000.00000" pt_clust_9="31.89977"></scales>
<clustering>
<clus scale="   31.900">  1  9  2 -1</clus>
<clus scale="   79.434">  5  6 -1 -1</clus>
<clus scale="   91.564">  7  8 -1 -1</clus>
<clus scale="  155.988">  1  5  2 -1</clus>
<clus scale="   31.900">  1  5  2 -1</clus>
</clustering>
</event>
<event>
 9    1  0.1973774E-005  0.1832749E+03  0.7546771E-02  0.1190419E+00
          1   -1    0    0  502    0  0.00000000000E+00  0.00000000000E+00  0.65836451006E+02  0.65836451006E+02  0.00000000000E+00 0. -1.
         -2   -1    0    0    0  501 -0.00000000000E+00 -0.00000000000E+00 -0.89572166683E+03  0.89572166683E+03  0.00000000000E+00 0.  1.
        -24    2    1    2    0    0  0.63492061773E+02  0.15789731601E+02 -0.36333337682E+03  0.37750901245E+03  0.78875561689E+02 0.  0.
         23    2    1    2    0    0  0.91314807573E+02  0.95604151987E+02 -0.22142916865E+03  0.27347079382E+03  0.90977197057E+02 0.  0.
         13    1    3    3    0    0  0.34462885264E+02 -0.30284095406E+02 -0.12850288652E+03  0.13644709136E+03  0.00000000000E+00 0. -1.
        -14    1    3    3    0    0  0.29029176509E+02  0.46073827007E+02 -0.23483049030E+03  0.24106192109E+03  0.00000000000E+00 0.  1.
        -13    1    4    4    0    0  0.56280142730E+00  0.55632123161E+02 -0.47029046090E+02  0.72849029156E+02  0.00000000000E+00 0.  1.
         13    1    4    4    0    0  0.90752006146E+02  0.39972028826E+02 -0.17440012256E+03  0.20062176466E+03  0.00000000000E+00 0. -1.
         21    1    1    2  502  501 -0.15480686935E+03 -0.11139388359E+03 -0.24512267035E+03  0.31057831157E+03  0.00000000000E+00 0.  1.
<scales pt_clust_5="13000.00000" pt_clust_6="13000.00000" pt_clust_7="13000.00000" pt_clust_8="13000.00000" pt_clust_9="159.10010"></scales>
<clustering>
<clus scale="   78.876">  5  6 -1 -1</clus>
<clus scale="   90.977">  7  8 -1 -1</clus>
<clus scale="  102.479">  2  5  1 -1</clus>
<clus scale="  159.100">  2  9  1 -1</clus>
<clus scale="  183.275">  1  5  2 -1</clus>
</clustering>
</event>
<event>
 9    1  0.1973774E-005  0.9735622E+02  0.7546771E-02  0.1293397E+00
         -2   -1    0    0    0  501 -0.00000000000E+00  0.00000000000E+00  0.19178452004E+03  0.19178452004E+03  0.00000000000E+00 0.  1.
          1   -1    0    0  502    0  0.00000000000E+00 -0.00000000000E+00 -0.31455215907E+03  0.31455215907E+03  0.00000000000E+00 0. -1.
         23    2    1    2    0    0  0.72161611915E+01 -0.28986533506E+02  0.16913283092E+03  0.19536066446E+03  0.93099852939E+02 0.  0.
        -24    2    1    2    0    0  0.62607979673E+01  0.87794487308E+01 -0.19240610294E+03  0.20855978659E+03  0.79754622568E+02 0.  0.
         13    1    4    4    0    0  0.99353419206E+01  0.42906675503E+02 -0.83944474444E+02  0.94796458855E+02  0.00000000000E+00 0. -1.
        -14    1    4    4    0    0 -0.36745439533E+01 -0.34127226772E+02 -0.10846162850E+03  0.11376332773E+03  0.00000000000E+00 0.  1.
        -13    1    3    3    0    0 -0.19773526235E+02 -0.35413323091E+02  0.16159947262E+03  0.16661178033E+03  0.00000000000E+00 0.  1.
         13    1    3    3    0    0  0.26989687426E+02  0.64267895844E+01  0.75333582962E+01  0.28748884134E+02  0.00000000000E+00 0. -1.
         21    1    1    2  502  501 -0.13476959159E+02  0.20207084776E+02 -0.99494367013E+02  0.10241622806E+03  0.00000000000E+00 0. -1.
<scales pt_clust_5="13000.00000" pt_clust_6="13000.00000" pt_clust_7="13000.00000" pt_clust_8="13000.00000" pt_clust_9="24.28898"></scales>
<clustering>
<clus scale="   24.289">  2  9  1 -1</clus>
<clus scale="   79.755">  5  6 -1 -1</clus>
<clus scale="   84.684">  2  5  1 -1</clus>
<clus scale="   93.100">  7  8 -1 -1</clus>
<clus scale="   24.289">  2  5  1 -1</clus>
</clustering>
</event>
<event>
 9    1  0.1973774E-005  0.1049233E+03  0.7546771E-02  0.1282352E+00
         -2   -1    0    0    0  501 -0.00000000000E+00  0.00000000000E+00  0.36084612000E+03  0.36084612000E+03  0.00000000000E+00 0.  1.
          1   -1    0    0  502    0  0.00000000000E+00 -0.00000000000E+00 -0.73079938224E+02  0.73079938224E+02  0.00000000000E+00 0. -1.
        -24    2    1    2    0    0 -0.21844800386E+02 -0.11074728197E+02  0.27126578376E+03  0.28387402933E+03  0.79996838575E+02 0.  0.
         23    2    1    2    0    0  0.20982164494E+02 -0.10040781619E+02  0.45306756132E+02  0.11432507600E+03  0.10235454230E+03 0.  0.
         13    1    3    3    0    0  0.20637525500E+02  0.21694949809E+02  0.91797148308E+02  0.96557209692E+02  0.00000000000E+00 0. -1.
        -14    1    3    3    0    0 -0.42482325886E+02 -0.32769678006E+02  0.17946863545E+03  0.18731681964E+03  0.00000000000E+00 0.  1.
        -13    1    4    4    0    0 -0.28983797799E+02  0.62246824998E+01 -0.15913735074E+02  0.33646012707E+02  0.00000000000E+00 0. -1.
         13    1    4    4    0    0  0.49965962292E+02 -0.16265464118E+02  0.61220491206E+02  0.80679063296E+02  0.00000000000E+00 0.  1.
         21    1    1    2  502  501  0.86263589290E+00  0.21115509816E+02 -0.28806358111E+02  0.35726952893E+02  0.00000000000E+00 0.  1.
<scales pt_clust_5="13000.00000" pt_clust_6="13000.00000" pt_clust_7="13000.00000" pt_clust_8="13000.00000" pt_clust_9="21.13312"></scales>
<clustering>
<clus scale="   21.133">  2  9  1 -1</clus>
<clus scale="   79.997">  5  6 -1 -1</clus>
<clus scale="   83.258">  1  5  2 -1</clus>
<clus scale="  102.355">  7  8 -1 -1</clus>
<clus scale="   21.133">  2  5  1 -1</clus>
</clustering>
</event>
<event>
 9    1  0.1973774E-005  0.1740201E+03  0.7546771E-02  0.1175047E+00
          3   -1    0    0  502    0  0.00000000000E+00  0.00000000000E+00  0.92388139152E+02  0.92388139152E+02  0.00000000000E+00 0. -1.
         -4   -1    0    0    0  501 -0.00000000000E+00 -0.00000000000E+00 -0.87753607986E+03  0.87753607986E+03  0.00000000000E+00 0.  1.
        -24    2    1    2    0    0 -0.10005747358E+03  0.12051276229E+03 -0.66157797782E+03  0.68464565951E+03  0.80743014914E+02 0.  0.
         23    2    1    2    0    0  0.37775566710E+02 -0.12576939579E+03 -0.14834761377E+03  0.21804315141E+03  0.91054198189E+02 0.  0.
         13    1    3    3    0    0 -0.17864899442E+02  0.67148309376E+02 -0.17484930129E+03  0.18814974952E+03  0.00000000000E+00 0. -1.
        -14    1    3    3    0    0 -0.82192574142E+02  0.53364452917E+02 -0.48672867653E+03  0.49649590999E+03  0.00000000000E+00 0.  1.
        -11    1    4    4    0    0  0.21709648096E+02 -0.81033060425E+02 -0.14844450393E+03  0.17050934417E+03  0.00000000000E+00 0.  1.
         11    1    4    4    0    0  0.16065918614E+02 -0.44736335364E+02  0.96890163493E-01  0.47533807236E+02  0.00000000000E+00 0. -1.
         21    1    1    2  502  501  0.62281906874E+02  0.52566334953E+01  0.24777650872E+02  0.67235408099E+02  0.00000000000E+00 0. -1.
<scales pt_clust_5="13000.00000" pt_clust_6="13000.00000" pt_clust_7="13000.00000" pt_clust_8="13000.00000" pt_clust_9="62.50334"></scales>
<clustering>
<clus scale="   62.503">  1  9  2 -1</clus>
<clus scale="   80.743">  5  6 -1 -1</clus>
<clus scale="   91.054">  7  8 -1 -1</clus>
<clus scale="  168.854">  2  5  1 -1</clus>
<clus scale="   62.503">  1  5  2 -1</clus>
</clustering>
</event>
<event>
 9    1  0.1973774E-005  0.1336694E+03  0.7546771E-02  0.1228643E+00
         -2   -1    0    0    0  501 -0.00000000000E+00  0.00000000000E+00  0.71000596671E+03  0.71000596671E+03  0.00000000000E+00 0.  1.
          1   -1    0    0  502    0  0.00000000000E+00 -0.00000000000E+00 -0.16512494956E+03  0.16512494956E+03  0.00000000000E+00 0. -1.
        -24    2    1    2    0    0 -0.25934677504E+02 -0.69246488130E+02  0.48752447813E+03  0.49971065389E+03  0.81011957296E+02 0.  0.
         23    2    1    2    0    0  0.33058291948E+02  0.17059033337E+03  0.13854771498E+03  0.24536901130E+03  0.10400273975E+03 0.  0.
         11    1    3    3    0    0 -0.34804543180E+02  0.21535110888E+01  0.11012570392E+03  0.11551478044E+03  0.00000000000E+00 0. -1.
        -12    1    3    3    0    0  0.88698656768E+01 -0.71399999219E+02  0.37739877421E+03  0.38419587345E+03  0.00000000000E+00 0.  1.
        -11    1    4    4    0    0  0.52065972701E+02  0.15176775274E+03  0.14669832885E+03  0.21740449851E+03  0.00000000000E+00 0.  1.
         11    1    4    4    0    0 -0.19007680752E+02  0.18822580634E+02 -0.81506138711E+01  0.27964512793E+02  0.00000000000E+00 0. -1.
         21    1    1    2  502  501 -0.71236144447E+01 -0.10134384524E+03 -0.81191175961E+02  0.13005125107E+03  0.00000000000E+00 0. -1.
<scales pt_clust_5="13000.00000" pt_clust_6="13000.00000" pt_clust_7="13000.00000" pt_clust_8="13000.00000" pt_clust_9="101.59390"></scales>
<clustering>
<clus scale="   81.012">  5  6 -1 -1</clus>
<clus scale="  101.594">  2  9  1 -1</clus>
<clus scale="  104.003">  7  8 -1 -1</clus>
<clus scale="  116.679">  1  5  2 -1</clus>
<clus scale="  101.594">  2  5  1 -1</clus>
</clustering>
</event>
<event>
 9    1  0.1973774E-005  0.1223455E+03  0.7546771E-02  0.1240929E+00
          3   -1    0    0  502    0  0.00000000000E+00  0.00000000000E+00  0.92182954034E+02  0.92182954034E+02  0.00000000000E+00 0. -1.
         -4   -1    0    0    0  501 -0.00000000000E+00 -0.00000000000E+00 -0.25788537944E+03  0.25788537944E+03  0.00000000000E+00 0.  1.
        -24    2    1    2    0    0 -0.69116933402E+02  0.16757540633E+02 -0.16201578796E+03  0.20171129723E+03  0.96852290785E+02 0.  0.
         23    2    1    2    0    0  0.87153091804E+02 -0.49153113074E+01 -0.95638992010E+00  0.12660857292E+03  0.91700569028E+02 0.  0.
         11    1    3    3    0    0 -0.72083219930E+02  0.17756927826E+02 -0.49670048611E+02  0.89321961523E+02  0.00000000000E+00 0. -1.
        -12    1    3    3    0    0  0.29662865276E+01 -0.99938719263E+00 -0.11234573935E+03  0.11238933571E+03  0.00000000000E+00 0.  1.
        -11    1    4    4    0    0  0.25746552456E+02  0.41071778023E+02  0.88209739755E+01  0.49270533742E+02  0.00000000000E+00 0.  1.
         11    1    4    4    0    0  0.61406539348E+02 -0.45987089330E+02 -0.97773638956E+01  0.77338039182E+02  0.00000000000E+00 0. -1.
         21    1    1    2  502  501 -0.18036158401E+02 -0.11842229326E+02 -0.27302475258E+01  0.21748463321E+02  0.00000000000E+00 0.  1.
<scales pt_clust_5="13000.00000" pt_clust_6="13000.00000" pt_clust_7="13000.00000" pt_clust_8="13000.00000" pt_clust_9="21.57641"></scales>
<clustering>
<clus scale="   21.576">  1  9  2 -1</clus>
<clus scale="   91.701">  7  8 -1 -1</clus>
<clus scale="   96.852">  5  6 -1 -1</clus>
<clus scale="  118.309">  1  7  2 -1</clus>
<clus scale="   21.576">  1  5  2 -1</clus>
</clustering>
</event>
<event>
 9    1  0.1973774E-005  0.9955757E+02  0.7546771E-02  0.1286414E+00
          1   -1    0    0  502    0  0.00000000000E+00  0.00000000000E+00  0.48912792341E+03  0.48912792341E+03  0.00000000000E+00 0. -1.
         -2   -1    0    0    0  501 -0.00000000000E+00 -0.00000000000E+00 -0.13721176146E+03  0.13721176146E+03  0.00000000000E+00 0.  1.
        -24    2    1    2    0    0  0.63323437702E+01 -0.37643130633E+02 -0.11133905330E+03  0.14317888983E+03  0.81527331872E+02 0.  0.
         23    2    1    2    0    0  0.13802587713E+02  0.52425046733E+02  0.30793875104E+03  0.32584860681E+03  0.91717736660E+02 0.  0.
         11    1    3    3    0    0  0.26678776688E+02  0.17012247452E+02 -0.41681175785E+02  0.52330623002E+02  0.00000000000E+00 0. -1.
        -12    1    3    3    0    0 -0.20346432918E+02 -0.54655378084E+02 -0.69657877513E+02  0.90848266828E+02  0.00000000000E+00 0.  1.
        -13    1    4    4    0    0 -0.33716323697E+02 -0.79665429305E+00  0.75138436267E+02  0.82360243724E+02  0.00000000000E+00 0.  1.
         13    1    4    4    0    0  0.47518911410E+02  0.53221701026E+02  0.23280031477E+03  0.24348836309E+03  0.00000000000E+00 0. -1.
         21    1    1    2  502  501 -0.20134931483E+02 -0.14781916100E+02  0.15531646422E+03  0.15731218823E+03  0.00000000000E+00 0. -1.
<scales pt_clust_5="13000.00000" pt_clust_6="13000.00000" pt_clust_7="13000.00000" pt_clust_8="13000.00000" pt_clust_9="24.97840"></scales>
<clustering>
<clus scale="   24.978">  1  9  2 -1</clus>
<clus scale="   81.527">  5  6 -1 -1</clus>
<clus scale="   90.257">  2  5  1 -1</clus>
<clus scale="   91.718">  7  8 -1 -1</clus>
<clus scale="   24.978">  1  5  2 -1</clus>
</clustering>
</event>
<event>
 9    1  0.1973774E-005  0.9442424E+02  0.7546771E-02  0.1296263E+00
         -2   -1    0    0    0  501 -0.00000000000E+00  0.00000000000E+00  0.91167406855E+02  0.91167406855E+02  0.00000000000E+00 0.  1.
          1   -1    0    0  502    0  0.00000000000E+00 -0.00000000000E+00 -0.14747795944E+03  0.14747795944E+03  0.00000000000E+00 0. -1.
        -24    2    1    2    0    0  0.29237916689E+02  0.16434040975E+02 -0.14999562714E+02  0.92989689116E+02  0.85423427261E+02 0.  0.
         23    2    1    2    0    0 -0.15795290160E+02  0.86944697861E+01 -0.60230415315E+02  0.11144908541E+03  0.92022338126E+02 0.  0.
         11    1    3    3    0    0  0.41468249861E+02  0.40853749961E+02 -0.25731530761E+02  0.63645552144E+02  0.00000000000E+00 0. -1.
        -12    1    3    3    0    0 -0.12230333172E+02 -0.24419708986E+02  0.10731968046E+02  0.29344136971E+02  0.00000000000E+00 0.  1.
        -13    1    4    4    0    0 -0.70790048495E+00 -0.35262864554E+02 -0.54086480980E+02  0.64570257584E+02  0.00000000000E+00 0.  1.
         13    1    4    4    0    0 -0.15087389675E+02  0.43957334340E+02 -0.61439343356E+01  0.46878827829E+02  0.00000000000E+00 0. -1.
         21    1    1    2  502  501 -0.13442626530E+02 -0.25128510761E+02  0.18919425445E+02  0.34206591766E+02  0.00000000000E+00 0.  1.
<scales pt_clust_5="13000.00000" pt_clust_6="13000.00000" pt_clust_7="13000.00000" pt_clust_8="13000.00000" pt_clust_9="28.49818"></scales>
<clustering>
<clus scale="   28.498">  1  9  2 -1</clus>
<clus scale="   85.423">  5  6 -1 -1</clus>
<clus scale="   88.006">  1  5  2 -1</clus>
<clus scale="   92.022">  7  8 -1 -1</clus>
<clus scale="   94.424">  2  5  1 -1</clus>
</clustering>
</event>
<event>
 9    1  0.1973774E-005  0.1864849E+03  0.7546771E-02  0.1162877E+00
         -2   -1    0    0    0  501 -0.00000000000E+00  0.00000000000E+00  0.15630611845E+03  0.15630611845E+03  0.00000000000E+00 0.  1.
          1   -1    0    0  502    0  0.00000000000E+00 -0.00000000000E+00 -0.40450998948E+03  0.40450998948E+03  0.00000000000E+00 0. -1.
         23    2    1    2    0    0  0.14813258867E+03  0.53466108028E+02 -0.62205680542E+01  0.18204849886E+03  0.91110218620E+02 0.  0.
        -24    2    1    2    0    0 -0.16817655870E+03 -0.32418754582E+02 -0.65769283323E+02  0.20017272521E+03  0.80057421531E+02 0.  0.
         11    1    4    4    0    0 -0.12527800459E+03 -0.58952260861E+02 -0.51855805403E+02  0.14784780028E+03  0.00000000000E+00 0. -1.
        -12    1    4    4    0    0 -0.42898554116E+02  0.26533506279E+02 -0.13913477919E+02  0.52324924926E+02  0.00000000000E+00 0.  1.
        -13    1    3    3    0    0  0.48381615356E+02  0.39240154756E+02  0.36951180542E+02  0.72429001050E+02  0.00000000000E+00 0. -1.
         13    1    3    3    0    0  0.99750973311E+02  0.14225953272E+02 -0.43171748596E+02  0.10961949781E+03  0.00000000000E+00 0.  1.
         21    1    1    2  502  501  0.20043970037E+02 -0.21047353446E+02 -0.17621401965E+03  0.17859488387E+03  0.00000000000E+00 0.  1.
<scales pt_clust_5="13000.00000" pt_clust_6="13000.00000" pt_clust_7="13000.00000" pt_clust_8="13000.00000" pt_clust_9="29.06461"></scales>
<clustering>
<clus scale="   29.065">  2  9  1 -1</clus>
<clus scale="   80.057">  5  6 -1 -1</clus>
<clus scale="   91.110">  7  8 -1 -1</clus>
<clus scale="  181.342">  2  5  1 -1</clus>
<clus scale="   29.065">  2  5  1 -1</clus>
</clustering>
</event>
<event>
 9    1  0.1973774E-005  0.1125013E+03  0.7546771E-02  0.1259835E+00
          3   -1    0    0  502    0  0.00000000000E+00  0.00000000000E+00  0.15234788124E+03  0.15234788124E+03  0.00000000000E+00 0. -1.
         -4   -1    0    0    0  501 -0.00000000000E+00 -0.00000000000E+00 -0.33239340513E+03  0.33239340513E+03  0.00000000000E+00 0.  1.
         23    2    1    2    0    0  0.37192228810E+02  0.51437938401E+02 -0.28265866649E+03  0.30382744267E+03  0.91575486813E+02 0.  0.
        -24    2    1    2    0    0 -0.36934464329E+02 -0.79871519684E+02  0.89761800100E+02  0.14970980565E+03  0.81315624813E+02 0.  0.
         11    1    4    4    0    0 -0.11752073417E+02 -0.72575755697E+02  0.97740046653E+02  0.12230481701E+03  0.00000000000E+00 0. -1.
        -12    1    4    4    0    0 -0.25182390911E+02 -0.72957639871E+01 -0.79782465535E+01  0.27404988638E+02  0.00000000000E+00 0.  1.
        -13    1    3    3    0    0 -0.29422190268E+02  0.16428829408E+02 -0.11931292255E+03  0.12398042266E+03  0.00000000000E+00 0.  1.
         13    1    3    3    0    0  0.66614419079E+02  0.35009108993E+02 -0.16334574394E+03  0.17984702001E+03  0.00000000000E+00 0. -1.
         21    1    1    2  502  501 -0.25776448162E+00  0.28433581283E+02  0.12851342491E+02  0.31204038055E+02  0.00000000000E+00 0.  1.
<scales pt_clust_5="13000.00000" pt_clust_6="13000.00000" pt_clust_7="13000.00000" pt_clust_8="13000.00000" pt_clust_9="28.43475"></scales>
<clustering>
<clus scale="   28.435">  1  9  2 -1</clus>
<clus scale="   81.316">  5  6 -1 -1</clus>
<clus scale="   91.575">  7  8 -1 -1</clus>
<clus scale="  104.320">  1  5  2 -1</clus>
<clus scale="   28.435">  1  5  2 -1</clus>
</clustering>
</event>
<event>
 9    1  0.1973774E-005  0.9531032E+02  0.7546771E-02  0.1295579E+00
         -2   -1    0    0    0  501 -0.00000000000E+00  0.00000000000E+00  0.15985976307E+03  0.15985976307E+03  0.00000000000E+00 0.  1.
          1   -1    0    0  502    0  0.00000000000E+00 -0.00000000000E+00 -0.69975749649E+02  0.69975749649E+02  0.00000000000E+00 0. -1.
        -24    2    1    2    0    0  0.14423333906E+02 -0.17549729625E+02  0.59507726727E+02  0.10314181635E+03  0.81123604259E+02 0.  0.
         23    2    1    2    0    0 -0.24402918590E+02  0.36042587021E+02  0.32959853636E+02  0.10552171717E+03  0.90299005137E+02 0.  0.
         13    1    3    3    0    0  0.42420992698E+02 -0.17234294250E+02  0.10933392536E+02  0.47075477608E+02  0.00000000000E+00 0. -1.
        -14    1    3    3    0    0 -0.27997658792E+02 -0.31543537573E+00  0.48574334191E+02  0.56066338737E+02  0.00000000000E+00 0.  1.
        -13    1    4    4    0    0 -0.23649249611E+01 -0.29529638692E+02  0.18791366989E+01  0.29683725946E+02  0.00000000000E+00 0. -1.
         13    1    4    4    0    0 -0.22037993629E+02  0.65572225713E+02  0.31080716937E+02  0.75837991228E+02  0.00000000000E+00 0.  1.
         21    1    1    2  502  501  0.99795846844E+01 -0.18492857396E+02 -0.25835669402E+01  0.21171979200E+02  0.00000000000E+00 0. -1.
<scales pt_clust_5="13000.00000" pt_clust_6="13000.00000" pt_clust_7="13000.00000" pt_clust_8="13000.00000" pt_clust_9="21.01375"></scales>
<clustering>
<clus scale="   21.014">  2  9  1 -1</clus>
<clus scale="   81.124">  5  6 -1 -1</clus>
<clus scale="   86.667">  1  5  2 -1</clus>
<clus scale="   90.299">  7  8 -1 -1</clus>
<clus scale="   21.014">  2  5  1 -1</clus>
</clustering>
</event>
<event>
 9    1  0.1973774E-005  0.1666908E+03  0.7546771E-02  0.1184608E+00
          1   -1    0    0  502    0  0.00000000000E+00  0.00000000000E+00  0.13293756927E+03  0.13293756927E+03  0.00000000000E+00 0. -1.
         -2   -1    0    0    0  501 -0.00000000000E+00 -0.00000000000E+00 -0.36438299932E+03  0.36438299932E+03  0.00000000000E+00 0.  1.
         23    2    1    2    0    0  0.13173603453E+03 -0.25291242594E+02 -0.15813118618E+03  0.23067000969E+03  0.10104034631E+03 0.  0.
        -24    2    1    2    0    0 -0.13235417855E+03 -0.14486085765E+01 -0.13119106435E+03  0.20289220187E+03  0.80214856298E+02 0.  0.
         13    1    4    4    0    0 -0.15067179879E+02 -0.29737376598E+02 -0.20355545498E+02  0.39059950191E+02  0.00000000000E+00 0. -1.
        -14    1    4    4    0    0 -0.11728699867E+03  0.28288768021E+02 -0.11083551885E+03  0.16383225168E+03  0.00000000000E+00 0.  1.
        -11    1    3    3    0    0  0.42029371650E+02 -0.45062269249E+02 -0.20002966778E+02  0.64785761329E+02  0.00000000000E+00 0. -1.
         11    1    3    3    0    0  0.89706662883E+02  0.19771026654E+02 -0.13812821940E+03  0.16588424836E+03  0.00000000000E+00 0.  1.
         21    1    1    2  502  501  0.61814401242E+00  0.26739851171E+02  0.57876820475E+02  0.63758357029E+02  0.00000000000E+00 0.  1.
<scales pt_clust_5="13000.00000" pt_clust_6="13000.00000" pt_clust_7="13000.00000" pt_clust_8="13000.00000" pt_clust_9="26.74700"></scales>
<clustering>
<clus scale="   26.747">  1  9  2 -1</clus>
<clus scale="   80.215">  5  6 -1 -1</clus>
<clus scale="  101.040">  7  8 -1 -1</clus>
<clus scale="  154.955">  1  5  2 -1</clus>
<clus scale="   26.747">  1  5  2 -1</clus>
</clustering>
</event>
<event>
 9    1  0.1973774E-005  0.9374220E+02  0.7546771E-02  0.1300760E+00
          1   -1    0    0  502    0  0.00000000000E+00  0.00000000000E+00  0.18529296794E+03  0.18529296794E+03  0.00000000000E+00 0. -1.
         -2   -1    0    0    0  501 -0.00000000000E+00 -0.00000000000E+00 -0.94607602566E+02  0.94607602566E+02  0.00000000000E+00 0.  1.
         23    2    1    2    0    0 -0.19911237996E+02 -0.12284720439E+02 -0.88638317191E+01  0.95037431088E+02  0.91685189863E+02 0.  0.
        -24    2    1    2    0    0  0.12580318257E+02 -0.47446572699E+02  0.48650322877E+02  0.10604521531E+03  0.80431909750E+02 0.  0.
         11    1    4    4    0    0  0.33291833729E+02 -0.58572230527E+01  0.49065098193E+02  0.59582187906E+02  0.00000000000E+00 0. -1.
        -12    1    4    4    0    0 -0.20711515472E+02 -0.41589349646E+02 -0.41477531603E+00  0.46463027405E+02  0.00000000000E+00 0.  1.
        -11    1    3    3    0    0  0.24194810396E+02 -0.34915531312E+02 -0.15079088401E+02  0.45076180893E+02  0.00000000000E+00 0.  1.
         11    1    3    3    0    0 -0.44106048392E+02  0.22630810872E+02  0.62152566816E+01  0.49961250195E+02  0.00000000000E+00 0. -1.
         21    1    1    2  502  501  0.73309197389E+01  0.59731293138E+02  0.50898874215E+02  0.78817924107E+02  0.00000000000E+00 0. -1.
<scales pt_clust_5="13000.00000" pt_clust_6="13000.00000" pt_clust_7="13000.00000" pt_clust_8="13000.00000" pt_clust_9="60.17948"></scales>
<clustering>
<clus scale="   60.179">  1  9  2 -1</clus>
<clus scale="   80.432">  5  6 -1 -1</clus>
<clus scale="   82.769">  1  5  2 -1</clus>
<clus scale="   91.685">  7  8 -1 -1</clus>
<clus scale="   60.179">  1  5  2 -1</clus>
</clustering>
</event>
<event>
 9    1  0.1973774E-005  0.1283303E+03  0.7546771E-02  0.1237397E+00
          1   -1    0    0  502    0  0.00000000000E+00  0.00000000000E+00  0.37025300162E+03  0.37025300162E+03  0.00000000000E+00 0. -1.
         -2   -1    0    0    0  501 -0.00000000000E+00 -0.00000000000E+00 -0.71708632192E+02  0.71708632192E+02  0.00000000000E+00 0.  1.
        -24    2    1    2    0    0  0.33137070371E+02  0.56295466264E+02  0.21712879751E+02  0.10852202700E+03  0.83894792699E+02 0.  0.
         23    2    1    2    0    0 -0.65295873951E+02 -0.63670774407E+02  0.16378714614E+03  0.21567880084E+03  0.10664706851E+03 0.  0.
         11    1    3    3    0    0 -0.68406002104E+01  0.47522037837E+02  0.41130293079E+02  0.63220557576E+02  0.00000000000E+00 0. -1.
        -12    1    3    3    0    0  0.39977670581E+02  0.87734284271E+01 -0.19417413328E+02  0.45301469422E+02  0.00000000000E+00 0.  1.
        -11    1    4    4    0    0 -0.18103375627E+01  0.28009424685E+02  0.42354203054E+02  0.50810271694E+02  0.00000000000E+00 0.  1.
         11    1    4    4    0    0 -0.63485536389E+02 -0.91680199092E+02  0.12143294309E+03  0.16486852915E+03  0.00000000000E+00 0. -1.
         21    1    1    2  502  501  0.32158803580E+02  0.73753081429E+01  0.11304434354E+03  0.11776080597E+03  0.00000000000E+00 0. -1.
<scales pt_clust_5="13000.00000" pt_clust_6="13000.00000" pt_clust_7="13000.00000" pt_clust_8="13000.00000" pt_clust_9="32.99369"></scales>
<clustering>
<clus scale="   32.994">  1  9  2 -1</clus>
<clus scale="   83.895">  5  6 -1 -1</clus>
<clus scale="  106.647">  7  8 -1 -1</clus>
<clus scale="  110.152">  2  5  1 -1</clus>
<clus scale="   32.994">  1  5  2 -1</clus>
</clustering>
</event>
<event>
 9    1  0.1973774E-005  0.1207871E+03  0.7546771E-02  0.1243366E+00
          1   -1    0    0  502    0  0.00000000000E+00  0.00000000000E+00  0.23718849025E+03  0.23718849025E+03  0.00000000000E+00 0. -1.
         -2   -1    0    0    0  501 -0.00000000000E+00 -0.00000000000E+00 -0.10064719176E+03  0.10064719176E+03  0.00000000000E+00 0.  1.
        -24    2    1    2    0    0 -0.59968952271E+02 -0.75283632563E+02 -0.11155716996E+02  0.12535732536E+03  0.79536836943E+02 0.  0.
         23    2    1    2    0    0  0.17233082113E+02  0.62732095478E+02  0.11593294401E+03  0.15777139257E+03  0.84965109810E+02 0.  0.
         11    1    3    3    0    0 -0.60921596256E+02 -0.47024843380E+02  0.23652550258E+02  0.80512234592E+02  0.00000000000E+00 0. -1.
        -12    1    3    3    0    0  0.95264398520E+00 -0.28258789182E+02 -0.34808267253E+02  0.44845090766E+02  0.00000000000E+00 0.  1.
        -11    1    4    4    0    0 -0.17340785826E+02  0.69099600587E+02  0.85342889550E+02  0.11117043875E+03  0.00000000000E+00 0.  1.
         11    1    4    4    0    0  0.34573867938E+02 -0.63675051093E+01  0.30590054457E+02  0.46600953823E+02  0.00000000000E+00 0. -1.
         21    1    1    2  502  501  0.42735870158E+02  0.12551537085E+02  0.31764071483E+02  0.54706964077E+02  0.00000000000E+00 0. -1.
<scales pt_clust_5="13000.00000" pt_clust_6="13000.00000" pt_clust_7="13000.00000" pt_clust_8="13000.00000" pt_clust_9="44.54094"></scales>
<clustering>
<clus scale="   44.541">  1  9  2 -1</clus>
<clus scale="   79.537">  5  6 -1 -1</clus>
<clus scale="   84.965">  7  8 -1 -1</clus>
<clus scale="  117.032">  2  5  1 -1</clus>
<clus scale="   44.541">  1  5  2 -1</clus>
</clustering>
</event>
<event>
 9    1  0.1973774E-005  0.1019319E+03  0.7546771E-02  0.1285297E+00
         -2   -1    0    0    0  501 -0.00000000000E+00  0.00000000000E+00  0.81615063775E+02  0.81615063775E+02  0.00000000000E+00 0.  1.
          1   -1    0    0  502    0  0.00000000000E+00 -0.00000000000E+00 -0.42118463624E+03  0.42118463624E+03  0.00000000000E+00 0. -1.
        -24    2    1    2    0    0 -0.19275407352E+02  0.39004112953E+02  0.46130285959E+02  0.97837250998E+02  0.74506793276E+02 0.  0.
         23    2    1    2    0    0 -0.34161773671E+01 -0.38483569067E+02 -0.30061033938E+03  0.31689767040E+03  0.92546755761E+02 0.  0.
         13    1    3    3    0    0 -0.32041837391E+01  0.34242714420E+02 -0.12702646318E+02  0.36663162817E+02  0.00000000000E+00 0. -1.
        -14    1    3    3    0    0 -0.16071223613E+02  0.47613985327E+01  0.58832932277E+02  0.61174088180E+02  0.00000000000E+00 0.  1.
        -13    1    4    4    0    0  0.43380249983E+02 -0.28326260130E+02 -0.17332565268E+03  0.18090330284E+03  0.00000000000E+00 0. -1.
         13    1    4    4    0    0 -0.46796427350E+02 -0.10157308937E+02 -0.12728468671E+03  0.13599436756E+03  0.00000000000E+00 0.  1.
         21    1    1    2  502  501  0.22691584719E+02 -0.52054388570E+00 -0.85089519041E+02  0.88064778621E+02  0.00000000000E+00 0. -1.
<scales pt_clust_5="13000.00000" pt_clust_6="13000.00000" pt_clust_7="13000.00000" pt_clust_8="13000.00000" pt_clust_9="22.69755"></scales>
<clustering>
<clus scale="   22.698">  2  9  1 -1</clus>
<clus scale="   74.507">  5  6 -1 -1</clus>
<clus scale="   85.886">  1  5  2 -1</clus>
<clus scale="   92.547">  7  8 -1 -1</clus>
<clus scale="   22.698">  2  5  1 -1</clus>
</clustering>
</event>
<event>
 9    1  0.1973774E-005  0.1491305E+03  0.7546771E-02  0.1203339E+00
          1   -1    0    0  502    0  0.00000000000E+00  0.00000000000E+00  0.29936453734E+02  0.29936453734E+02  0.00000000000E+00 0. -1.
         -2   -1    0    0    0  501 -0.00000000000E+00 -0.00000000000E+00 -0.11852055052E+04  0.11852055052E+04  0.00000000000E+00 0.  1.
         23    2    1    2    0    0  0.59762134531E+02 -0.11103521432E+03 -0.81725366592E+03  0.83186133587E+03  0.90495282315E+02 0.  0.
        -24    2    1    2    0    0 -0.50092689643E+02  0.92827107468E+02 -0.33743774209E+03  0.36265619601E+03  0.80803077190E+02 0.  0.
         11    1    4    4    0    0 -0.16251514466E+02  0.87071394363E+02 -0.16952065591E+03  0.19126628616E+03  0.00000000000E+00 0. -1.
        -12    1    4    4    0    0 -0.33841175176E+02  0.57557131046E+01 -0.16791708617E+03  0.17138990985E+03  0.00000000000E+00 0.  1.
        -11    1    3    3    0    0  0.81706307445E+02 -0.66152186148E+02 -0.56902508580E+03  0.57865497550E+03  0.00000000000E+00 0.  1.
         11    1    3    3    0    0 -0.21944172914E+02 -0.44883028174E+02 -0.24822858012E+03  0.25320636037E+03  0.00000000000E+00 0. -1.
         21    1    1    2  502  501 -0.96694448886E+01  0.18208106854E+02 -0.57764347155E+00  0.20624427062E+02  0.00000000000E+00 0. -1.
<scales pt_clust_5="13000.00000" pt_clust_6="13000.00000" pt_clust_7="13000.00000" pt_clust_8="13000.00000" pt_clust_9="20.61634"></scales>
<clustering>
<clus scale="   20.616">  1  9  2 -1</clus>
<clus scale="   80.803">  5  6 -1 -1</clus>
<clus scale="   90.495">  7  8 -1 -1</clus>
<clus scale="  143.456">  1  5  2 -1</clus>
<clus scale="   20.616">  1  5  2 -1</clus>
</clustering>
</event>
<event>
 9    1  0.1973774E-005  0.8598711E+02  0.7546771E-02  0.1312987E+00
         -2   -1    0    0    0  501 -0.00000000000E+00  0.00000000000E+00  0.26080853372E+02  0.26080853372E+02  0.00000000000E+00 0.  1.
          1   -1    0    0  502    0  0.00000000000E+00 -0.00000000000E+00 -0.56348460765E+03  0.56348460765E+03  0.00000000000E+00 0. -1.
         23    2    1    2    0    0 -0.27121709675E+02  0.20056982790E+02 -0.77691364705E+02  0.11477627401E+03  0.77458216039E+02 0.  0.
        -24    2    1    2    0    0  0.29134178446E+02 -0.42188162849E+02 -0.31441406348E+03  0.32780128708E+03  0.77258262065E+02 0.  0.
         11    1    4    4    0    0 -0.17261965937E+02 -0.30309423078E+02 -0.21064534994E+03  0.21351369991E+03  0.00000000000E+00 0. -1.
        -12    1    4    4    0    0  0.46396144383E+02 -0.11878739771E+02 -0.10376871354E+03  0.11428758717E+03  0.00000000000E+00 0.  1.
        -13    1    3    3    0    0  0.20284256508E+02  0.21236896763E+02 -0.79225577904E+01  0.30417491155E+02  0.00000000000E+00 0. -1.
         13    1    3    3    0    0 -0.47405966183E+02 -0.11799139731E+01 -0.69768806915E+02  0.84358782857E+02  0.00000000000E+00 0.  1.
         21    1    1    2  502  501 -0.20124687711E+01  0.22131180059E+02 -0.14529832609E+03  0.14698789993E+03  0.00000000000E+00 0. -1.
<scales pt_clust_5="13000.00000" pt_clust_6="13000.00000" pt_clust_7="13000.00000" pt_clust_8="13000.00000" pt_clust_9="22.22249"></scales>
<clustering>
<clus scale="   22.222">  2  9  1 -1</clus>
<clus scale="   77.258">  5  6 -1 -1</clus>
<clus scale="   77.458">  7  8 -1 -1</clus>
<clus scale="   85.807">  2  5  1 -1</clus>
<clus scale="   22.222">  2  5  1 -1</clus>
</clustering>
</event>
<event>
 9    1  0.1973774E-005  0.2393690E+03  0.7546771E-02  0.1120863E+00
         -2   -1    0    0    0  501 -0.00000000000E+00  0.00000000000E+00  0.93319060226E+03  0.93319060226E+03  0.00000000000E+00 0.  1.
          1   -1    0    0  502    0  0.00000000000E+00 -0.00000000000E+00 -0.24286285188E+03  0.24286285188E+03  0.00000000000E+00 0. -1.
        -24    2    1    2    0    0  0.56671721547E+02 -0.21404350650E+03  0.83192740146E+03  0.86455383851E+03  0.79522523065E+02 0.  0.
         23    2    1    2    0    0 -0.89046874498E+02  0.20901054139E+03 -0.12877365088E+03  0.27631456841E+03  0.90290283440E+02 0.  0.
         11    1    3    3    0    0  0.70908843330E+02 -0.11457072447E+03  0.46853461482E+03  0.48752353815E+03  0.00000000000E+00 0. -1.
        -12    1    3    3    0    0 -0.14237121784E+02 -0.99472782028E+02  0.36339278664E+03  0.37703030035E+03  0.00000000000E+00 0.  1.
        -13    1    4    4    0    0 -0.10435518653E+03  0.18705265563E+03 -0.12802280491E+03  0.24953664964E+03  0.00000000000E+00 0. -1.
         13    1    4    4    0    0  0.15308312029E+02  0.21957885753E+02 -0.75084596993E+00  0.26777918769E+02  0.00000000000E+00 0.  1.
         21    1    1    2  502  501  0.32375152952E+02  0.50329651102E+01 -0.12826000204E+02  0.35185047217E+02  0.00000000000E+00 0.  1.
<scales pt_clust_5="13000.00000" pt_clust_6="13000.00000" pt_clust_7="13000.00000" pt_clust_8="13000.00000" pt_clust_9="32.76402"></scales>
<clustering>
<clus scale="   32.764">  2  9  1 -1</clus>
<clus scale="   79.523">  5  6 -1 -1</clus>
<clus scale="   90.290">  7  8 -1 -1</clus>
<clus scale="  235.519">  1  5  2 -1</clus>
<clus scale="   32.764">  2  5  1 -1</clus>
</clustering>
</event>
<event>
 9    1  0.1973774E-005  0.1234734E+03  0.7546771E-02  0.1241090E+00
         -2   -1    0    0    0  501 -0.00000000000E+00  0.00000000000E+00  0.22050926511E+03  0.22050926511E+03  0.00000000000E+00 0.  1.
          1   -1    0    0  502    0  0.00000000000E+00 -0.00000000000E+00 -0.12908834424E+03  0.12908834424E+03  0.00000000000E+00 0. -1.
         23    2    1    2    0    0 -0.69580760782E+02  0.40152014371E+02  0.14929884666E+03  0.19333580533E+03  0.92924278200E+02 0.  0.
        -24    2    1    2    0    0  0.60813571934E+02 -0.63067983198E+02 -0.39635879557E+02  0.12568767314E+03  0.80935327245E+02 0.  0.
         11    1    4    4    0    0  0.74128866630E+02 -0.59614846955E+02 -0.13401561139E+02  0.96065710253E+02  0.00000000000E+00 0. -1.
        -12    1    4    4    0    0 -0.13315294696E+02 -0.34531362423E+01 -0.26234318418E+02  0.29621962892E+02  0.00000000000E+00 0.  1.
        -13    1    3    3    0    0 -0.85756649070E+02  0.53330604470E+02  0.11369498632E+03  0.15206875467E+03  0.00000000000E+00 0.  1.
         13    1    3    3    0    0  0.16175888287E+02 -0.13178590099E+02  0.35603860343E+02  0.41267050660E+02  0.00000000000E+00 0. -1.
         21    1    1    2  502  501  0.87671888482E+01  0.22915968827E+02 -0.18242046238E+02  0.30574130871E+02  0.00000000000E+00 0. -1.
<scales pt_clust_5="13000.00000" pt_clust_6="13000.00000" pt_clust_7="13000.00000" pt_clust_8="13000.00000" pt_clust_9="24.53579"></scales>
<clustering>
<clus scale="   24.536">  2  9  1 -1</clus>
<clus scale="   80.935">  5  6 -1 -1</clus>
<clus scale="   92.924">  7  8 -1 -1</clus>
<clus scale="  114.723">  2  5  1 -1</clus>
<clus scale="   24.536">  2  5  1 -1</clus>
</clustering>
</event>
<event>
 9    1  0.1973774E-005  0.1655716E+03  0.7546771E-02  0.1192195E+00
         -2   -1    0    0    0  501 -0.00000000000E+00  0.00000000000E+00  0.12393295007E+03  0.12393295007E+03  0.00000000000E+00 0.  1.
          1   -1    0    0  502    0  0.00000000000E+00 -0.00000000000E+00 -0.88158863864E+03  0.88158863864E+03  0.00000000000E+00 0. -1.
         23    2    1    2    0    0 -0.42559616613E+02 -0.87450893758E+02  0.33484786271E+02  0.16336611451E+03  0.12691838587E+03 0.  0.
        -24    2    1    2    0    0  0.49715517220E+02  0.17503457209E+03 -0.50617472027E+03  0.54394818237E+03  0.80981748490E+02 0.  0.
         11    1    4    4    0    0  0.41818941178E+02  0.18161003127E+03 -0.49418764337E+03  0.52815949689E+03  0.00000000000E+00 0. -1.
        -12    1    4    4    0    0  0.78965760429E+01 -0.65754591782E+01 -0.11987076896E+02  0.15788685478E+02  0.00000000000E+00 0.  1.
        -13    1    3    3    0    0 -0.62191461735E+02 -0.30598250704E+02  0.65383624227E+02  0.95284044708E+02  0.00000000000E+00 0.  1.
         13    1    3    3    0    0  0.19631845122E+02 -0.56852643054E+02 -0.31898837956E+02  0.68082069799E+02  0.00000000000E+00 0. -1.
         21    1    1    2  502  501 -0.71559006077E+01 -0.87583678331E+02 -0.28496575457E+03  0.29820729183E+03  0.00000000000E+00 0. -1.
<scales pt_clust_5="13000.00000" pt_clust_6="13000.00000" pt_clust_7="13000.00000" pt_clust_8="13000.00000" pt_clust_9="87.87552"></scales>
<clustering>
<clus scale="   80.982">  5  6 -1 -1</clus>
<clus scale="   87.876">  2  9  1 -1</clus>
<clus scale="  126.918">  7  8 -1 -1</clus>
<clus scale="  133.655">  2  5  1 -1</clus>
<clus scale="   87.876">  2  5  1 -1</clus>
</clustering>
</event>
<event>
 9    1  0.1973774E-005  0.1168709E+03  0.7546771E-02  0.1251731E+00
          1   -1    0    0  502    0  0.00000000000E+00  0.00000000000E+00  0.51802962184E+03  0.51802962184E+03  0.00000000000E+00 0. -1.
         -2   -1    0    0    0  501 -0.00000000000E+00 -0.00000000000E+00 -0.73049537868E+02  0.73049537868E+02  0.00000000000E+00 0.  1.
        -24    2    1    2    0    0  0.84802235711E+02 -0.27326451018E+02  0.50045708521E+02  0.13137010509E+03  0.82555299430E+02 0.  0.
         23    2    1    2    0    0 -0.17741814297E+02  0.67070185101E+02  0.94364517103E+02  0.14919511891E+03  0.92419368719E+02 0.  0.
         13    1    3    3    0    0  0.65648693317E+02 -0.33685079475E+02  0.70914493860E+02  0.10233914673E+03  0.00000000000E+00 0. -1.
        -14    1    3    3    0    0  0.19153542394E+02  0.63586284566E+01 -0.20868785339E+02  0.29030958366E+02  0.00000000000E+00 0.  1.
        -11    1    4    4    0    0 -0.46646921590E+01 -0.22703384154E+02  0.30234163877E+02  0.38096032212E+02  0.00000000000E+00 0. -1.
         11    1    4    4    0    0 -0.13077122138E+02  0.89773569255E+02  0.64130353226E+02  0.11109908670E+03  0.00000000000E+00 0.  1.
         21    1    1    2  502  501 -0.67060421414E+02 -0.39743734083E+02  0.30056985835E+03  0.31051393570E+03  0.00000000000E+00 0. -1.
<scales pt_clust_5="13000.00000" pt_clust_6="13000.00000" pt_clust_7="13000.00000" pt_clust_8="13000.00000" pt_clust_9="77.95296"></scales>
<clustering>
<clus scale="   77.953">  1  9  2 -1</clus>
<clus scale="   82.555">  5  6 -1 -1</clus>
<clus scale="   92.419">  7  8 -1 -1</clus>
<clus scale="  109.238">  2  5  1 -1</clus>
<clus scale="   77.953">  1  5  2 -1</clus>
</clustering>
</event>
<event>
 9    1  0.1973774E-005  0.1414392E+03  0.7546771E-02  0.1225942E+00
         -2   -1    0    0    0  501 -0.00000000000E+00  0.00000000000E+00  0.22618958562E+03  0.22618958562E+03  0.00000000000E+00 0.  1.
          1   -1    0    0  502    0  0.00000000000E+00 -0.00000000000E+00 -0.22353432965E+03  0.22353432965E+03  0.00000000000E+00 0. -1.
        -24    2    1    2    0    0 -0.39530038417E+02  0.10194843767E+03  0.10566566098E+03  0.17051963759E+03  0.77172579399E+02 0.  0.
         23    2    1    2    0    0 -0.55834138237E+02  0.20659333217E+02 -0.42781941477E+02  0.11260758057E+03  0.85474637425E+02 0.  0.
         11    1    3    3    0    0 -0.22786209584E+02 -0.58553274065E+01  0.10556999612E+02  0.25786555548E+02  0.00000000000E+00 0. -1.
        -12    1    3    3    0    0 -0.16743828834E+02  0.10780376507E+03  0.95108661373E+02  0.14473308204E+03  0.00000000000E+00 0.  1.
        -13    1    4    4    0    0 -0.27399079217E+02  0.43126963328E+02 -0.54320847325E+02  0.74574787710E+02  0.00000000000E+00 0. -1.
         13    1    4    4    0    0 -0.28435059020E+02 -0.22467630112E+02  0.11538905848E+02  0.38032792856E+02  0.00000000000E+00 0.  1.
         21    1    1    2  502  501  0.95364176654E+02 -0.12260777088E+03 -0.60228463541E+02  0.16659669712E+03  0.00000000000E+00 0. -1.
<scales pt_clust_5="13000.00000" pt_clust_6="13000.00000" pt_clust_7="13000.00000" pt_clust_8="13000.00000" pt_clust_9="118.53031"></scales>
<clustering>
<clus scale="   77.173">  5  6 -1 -1</clus>
<clus scale="   85.475">  7  8 -1 -1</clus>
<clus scale="  104.164">  2  7  1 -1</clus>
<clus scale="  118.530">  2  9  1 -1</clus>
<clus scale="  104.164">  2  5  1 -1</clus>
</clustering>
</event>
<event>
 9    1  0.1973774E-005  0.1097150E+03  0.7546771E-02  0.1265425E+00
         -2   -1    0    0    0  501 -0.00000000000E+00  0.00000000000E+00  0.14028357316E+03  0.14028357316E+03  0.00000000000E+00 0.  1.
          1   -1    0    0  502    0  0.00000000000E+00 -0.00000000000E+00 -0.20600205249E+03  0.20600205249E+03  0.00000000000E+00 0. -1.
        -24    2    1    2    0    0  0.30486158952E+02 -0.49583696503E+02  0.82873718118E+02  0.12896609133E+03  0.79851428989E+02 0.  0.
         23    2    1    2    0    0 -0.29152151751E+02  0.72904007374E+02 -0.78520691997E+02  0.14345728178E+03  0.90827586022E+02 0.  0.
         11    1    3    3    0    0  0.16412276168E+02  0.14929711019E+02 -0.10119978316E+01  0.22209980183E+02  0.00000000000E+00 0. -1.
        -12    1    3    3    0    0  0.14073882784E+02 -0.64513407522E+02  0.83885715950E+02  0.10675611115E+03  0.00000000000E+00 0.  1.
        -11    1    4    4    0    0 -0.45213802519E+02  0.39614763531E+02 -0.39668103386E+01  0.60244111846E+02  0.00000000000E+00 0.  1.
         11    1    4    4    0    0  0.16061650768E+02  0.33289243843E+02 -0.74553881658E+02  0.83213169939E+02  0.00000000000E+00 0. -1.
         21    1    1    2  502  501 -0.13340072014E+01 -0.23320310870E+02 -0.70071505451E+02  0.73862252541E+02  0.00000000000E+00 0. -1.
<scales pt_clust_5="13000.00000" pt_clust_6="13000.00000" pt_clust_7="13000.00000" pt_clust_8="13000.00000" pt_clust_9="23.35843"></scales>
<clustering>
<clus scale="   23.358">  2  9  1 -1</clus>
<clus scale="   79.851">  5  6 -1 -1</clus>
<clus scale="   90.828">  7  8 -1 -1</clus>
<clus scale="  100.817">  1  5  2 -1</clus>
<clus scale="   23.358">  2  5  1 -1</clus>
</clustering>
</event>
<event>
 9    1  0.1973774E-005  0.1133674E+03  0.7546771E-02  0.1257792E+00
          1   -1    0    0  502    0  0.00000000000E+00  0.00000000000E+00  0.22865519070E+03  0.22865519070E+03  0.00000000000E+00 0. -1.
         -2   -1    0    0    0  501 -0.00000000000E+00 -0.00000000000E+00 -0.24220846788E+03  0.24220846788E+03  0.00000000000E+00 0.  1.
        -24    2    1    2    0    0 -0.86785201419E+01 -0.10631959894E+03 -0.11458290720E+03  0.18538826261E+03  0.99299503831E+02 0.  0.
         23    2    1    2    0    0 -0.17431400428E+02  0.47200723897E+02  0.16469706408E+03  0.19475433172E+03  0.90952541196E+02 0.  0.
         11    1    3    3    0    0 -0.46932246651E+02 -0.22502024512E+02 -0.54688471569E+02  0.75497058256E+02  0.00000000000E+00 0. -1.
        -12    1    3    3    0    0  0.38253726509E+02 -0.83817574433E+02 -0.59894435630E+02  0.10989120436E+03  0.00000000000E+00 0.  1.
        -13    1    4    4    0    0  0.12050953001E+02  0.57307343295E+02  0.53665141311E+02  0.79431130268E+02  0.00000000000E+00 0.  1.
         13    1    4    4    0    0 -0.29482353429E+02 -0.10106619399E+02  0.11103192277E+03  0.11532320145E+03  0.00000000000E+00 0. -1.
         21    1    1    2  502  501  0.26109920570E+02  0.59118875048E+02 -0.63667434054E+02  0.90721064247E+02  0.00000000000E+00 0. -1.
<scales pt_clust_5="13000.00000" pt_clust_6="13000.00000" pt_clust_7="13000.00000" pt_clust_8="13000.00000" pt_clust_9="64.62793"></scales>
<clustering>
<clus scale="   64.628">  2  9  1 -1</clus>
<clus scale="   90.953">  7  8 -1 -1</clus>
<clus scale="   99.300">  5  6 -1 -1</clus>
<clus scale="  106.133">  1  7  2 -1</clus>
<clus scale="  106.133">  1  5  2 -1</clus>
</clustering>
</event>
<event>
 9    1  0.1973774E-005  0.9598796E+02  0.7546771E-02  0.1294785E+00
         -2   -1    0    0    0  501 -0.00000000000E+00  0.00000000000E+00  0.17224990440E+03  0.17224990440E+03  0.00000000000E+00 0.  1.
          1   -1    0    0  502    0  0.00000000000E+00 -0.00000000000E+00 -0.11900843930E+03  0.11900843930E+03  0.00000000000E+00 0. -1.
         23    2    1    2    0    0 -0.87900838292E+01  0.34491049973E+02  0.12828538166E+03  0.16114239618E+03  0.90790057810E+02 0.  0.
        -24    2    1    2    0    0  0.43360202167E+01 -0.10984791451E+02 -0.49142299653E+02  0.94855819458E+02  0.80269509500E+02 0.  0.
         11    1    4    4    0    0  0.21774887862E+02 -0.12321376901E+02 -0.65988450926E+02  0.70572216387E+02  0.00000000000E+00 0. -1.
        -12    1    4    4    0    0 -0.17438867645E+02  0.13365854501E+01  0.16846151273E+02  0.24283603071E+02  0.00000000000E+00 0.  1.
        -11    1    3    3    0    0 -0.31188380307E+02 -0.74272763277E+00  0.11210710789E+03  0.11636696417E+03  0.00000000000E+00 0. -1.
         11    1    3    3    0    0  0.22398296478E+02  0.35233777606E+02  0.16178273767E+02  0.44775432009E+02  0.00000000000E+00 0.  1.
         21    1    1    2  502  501  0.44540636125E+01 -0.23506258522E+02 -0.25901616910E+02  0.35260128062E+02  0.00000000000E+00 0. -1.
<scales pt_clust_5="13000.00000" pt_clust_6="13000.00000" pt_clust_7="13000.00000" pt_clust_8="13000.00000" pt_clust_9="23.92452"></scales>
<clustering>
<clus scale="   23.925">  2  9  1 -1</clus>
<clus scale="   80.270">  5  6 -1 -1</clus>
<clus scale="   86.105">  2  5  1 -1</clus>
<clus scale="   90.790">  7  8 -1 -1</clus>
<clus scale="   23.925">  2  5  1 -1</clus>
</clustering>
</event>
<event>
 9    1  0.1973774E-005  0.1806287E+03  0.7546771E-02  0.1168669E+00
          1   -1    0    0  502    0  0.00000000000E+00  0.00000000000E+00  0.54501799782E+03  0.54501799782E+03  0.00000000000E+00 0. -1.
         -2   -1    0    0    0  501 -0.00000000000E+00 -0.00000000000E+00 -0.12750769212E+03  0.12750769212E+03  0.00000000000E+00 0.  1.
        -24    2    1    2    0    0  0.38453781249E+02 -0.15445684569E+03  0.13663866616E+02  0.17907129058E+03  0.80896324924E+02 0.  0.
         23    2    1    2    0    0 -0.11129112505E+03  0.11446746977E+03  0.19500098446E+03  0.26868595684E+03  0.93157089427E+02 0.  0.
         13    1    3    3    0    0 -0.16710490691E+02 -0.47429509384E+02 -0.19887216608E+02  0.54076799498E+02  0.00000000000E+00 0. -1.
        -14    1    3    3    0    0  0.55164271940E+02 -0.10702733631E+03  0.33551083223E+02  0.12499449108E+03  0.00000000000E+00 0.  1.
        -13    1    4    4    0    0 -0.47913993202E+02 -0.21704226193E+01  0.78890123935E+02  0.92326123786E+02  0.00000000000E+00 0. -1.
         13    1    4    4    0    0 -0.63377131850E+02  0.11663789238E+03  0.11611086053E+03  0.17635983305E+03  0.00000000000E+00 0.  1.
         21    1    1    2  502  501  0.72837343803E+02  0.39989375925E+02  0.20884545462E+03  0.22476844252E+03  0.00000000000E+00 0.  1.
<scales pt_clust_5="13000.00000" pt_clust_6="13000.00000" pt_clust_7="13000.00000" pt_clust_8="13000.00000" pt_clust_9="83.09289"></scales>
<clustering>
<clus scale="   80.896">  5  6 -1 -1</clus>
<clus scale="   83.093">  1  9  2 -1</clus>
<clus scale="   93.157">  7  8 -1 -1</clus>
<clus scale="  174.622">  2  5  1 -1</clus>
<clus scale="   83.093">  1  5  2 -1</clus>
</clustering>
</event>
<event>
 9    1  0.1973774E-005  0.1370714E+03  0.7546771E-02  0.1218671E+00
         -4   -1    0    0    0  501 -0.00000000000E+00  0.00000000000E+00  0.40350611360E+03  0.40350611360E+03  0.00000000000E+00 0.  1.
          3   -1    0    0  502    0  0.00000000000E+00 -0.00000000000E+00 -0.15040261248E+03  0.15040261248E+03  0.00000000000E+00 0. -1.
        -24    2    1    2    0    0  0.20884649079E+02  0.97832158822E+02  0.25423429557E+03  0.28624037940E+03  0.85388394322E+02 0.  0.
         23    2    1    2    0    0  0.76452548706E+01 -0.11051161932E+03  0.91303901385E+02  0.17010351115E+03  0.91255324066E+02 0.  0.
         11    1    3    3    0    0  0.34191719393E+01  0.73755974176E+02  0.77579689680E+02  0.10709921902E+03  0.00000000000E+00 0. -1.
        -12    1    3    3    0    0  0.17465477140E+02  0.24076184646E+02  0.17665460589E+03  0.17914116038E+03  0.00000000000E+00 0.  1.
        -11    1    4    4    0    0 -0.26000065369E+02 -0.45787055759E+02 -0.73881646810E+00  0.52659317543E+02  0.00000000000E+00 0. -1.
         11    1    4    4    0    0  0.33645320240E+02 -0.64724563565E+02  0.92042717854E+02  0.11744419361E+03  0.00000000000E+00 0.  1.
         21    1    1    2  502  501 -0.28529903949E+02  0.12679460502E+02 -0.92434695839E+02  0.97564835534E+02  0.00000000000E+00 0. -1.
<scales pt_clust_5="13000.00000" pt_clust_6="13000.00000" pt_clust_7="13000.00000" pt_clust_8="13000.00000" pt_clust_9="31.22057"></scales>
<clustering>
<clus scale="   31.221">  2  9  1 -1</clus>
<clus scale="   85.388">  5  6 -1 -1</clus>
<clus scale="   91.255">  7  8 -1 -1</clus>
<clus scale="  133.237">  1  5  2 -1</clus>
<clus scale="   31.221">  2  5  1 -1</clus>
</clustering>
</event>
<event>
 9    1  0.1973774E-005  0.2927555E+03  0.7546771E-02  0.1089322E+00
          1   -1    0    0  502    0  0.00000000000E+00  0.00000000000E+00  0.70312340549E+03  0.70312340549E+03  0.00000000000E+00 0. -1.
         -2   -1    0    0    0  501 -0.00000000000E+00 -0.00000000000E+00 -0.46374122343E+03  0.46374122343E+03  0.00000000000E+00 0.  1.
         23    2    1    2    0    0 -0.20487991885E+03 -0.18771562602E+03 -0.37229601808E+03  0.47324859350E+03  0.90260560425E+02 0.  0.
        -24    2    1    2    0    0  0.22627313737E+03  0.17540932754E+03  0.52255799656E+03  0.60114157697E+03  0.79601324809E+02 0.  0.
         11    1    4    4    0    0  0.21604940712E+03  0.14074399051E+03  0.48329009559E+03  0.54777325024E+03  0.00000000000E+00 0. -1.
        -12    1    4    4    0    0  0.10223730248E+02  0.34665337031E+02  0.39267900974E+02  0.53368326736E+02  0.00000000000E+00 0.  1.
        -11    1    3    3    0    0 -0.19265766257E+03 -0.12900727879E+03 -0.28637740207E+03  0.36847234542E+03  0.00000000000E+00 0.  1.
         11    1    3    3    0    0 -0.12222256288E+02 -0.58708347235E+02 -0.85918616010E+02  0.10477624808E+03  0.00000000000E+00 0. -1.
         21    1    1    2  502  501 -0.21393218517E+02  0.12306298485E+02  0.89120203575E+02  0.92474458453E+02  0.00000000000E+00 0. -1.
<scales pt_clust_5="13000.00000" pt_clust_6="13000.00000" pt_clust_7="13000.00000" pt_clust_8="13000.00000" pt_clust_9="24.68025"></scales>
<clustering>
<clus scale="   24.680">  1  9  2 -1</clus>
<clus scale="   79.601">  5  6 -1 -1</clus>
<clus scale="   90.261">  7  8 -1 -1</clus>
<clus scale="  289.647">  1  5  2 -1</clus>
<clus scale="   24.680">  1  5  2 -1</clus>
</clustering>
</event>
<event>
 9    1  0.1973774E-005  0.1029139E+03  0.7546771E-02  0.1274913E+00
         -4   -1    0    0    0  501 -0.00000000000E+00  0.00000000000E+00  0.29059660380E+03  0.29059660380E+03  0.00000000000E+00 0.  1.
          3   -1    0    0  502    0  0.00000000000E+00 -0.00000000000E+00 -0.11688293865E+03  0.11688293865E+03  0.00000000000E+00 0. -1.
         23    2    1    2    0    0  0.90716546686E+02  0.18314665435E+02  0.22719949656E+03  0.25560062248E+03  0.71743628019E+02 0.  0.
        -24    2    1    2    0    0 -0.68632173422E+02 -0.12750597259E+02 -0.70490804843E+02  0.12345626143E+03  0.73481575646E+02 0.  0.
         13    1    4    4    0    0 -0.31375185522E+02 -0.42893631411E+02 -0.32429759805E+02  0.62257169894E+02  0.00000000000E+00 0. -1.
        -14    1    4    4    0    0 -0.37256987900E+02  0.30143034152E+02 -0.38061045038E+02  0.61199091534E+02  0.00000000000E+00 0.  1.
        -11    1    3    3    0    0  0.50607173556E+02 -0.26320115663E+02  0.10708103929E+03  0.12132676324E+03  0.00000000000E+00 0.  1.
         11    1    3    3    0    0  0.40109373131E+02  0.44634781098E+02  0.12011845727E+03  0.13427385924E+03  0.00000000000E+00 0. -1.
         21    1    1    2  502  501 -0.22084373264E+02 -0.55640681755E+01  0.17004973433E+02  0.28422658542E+02  0.00000000000E+00 0.  1.
<scales pt_clust_5="13000.00000" pt_clust_6="13000.00000" pt_clust_7="13000.00000" pt_clust_8="13000.00000" pt_clust_9="22.77451"></scales>
<clustering>
<clus scale="   22.775">  1  9  2 -1</clus>
<clus scale="   71.744">  7  8 -1 -1</clus>
<clus scale="   73.482">  5  6 -1 -1</clus>
<clus scale="  101.680">  1  7  2 -1</clus>
<clus scale="  102.914">  2  5  1 -1</clus>
</clustering>
</event>
<event>
 9    1  0.1973774E-005  0.8953859E+02  0.7546771E-02  0.1309514E+00
          1   -1    0    0  502    0  0.00000000000E+00  0.00000000000E+00  0.32235766384E+03  0.32235766384E+03  0.00000000000E+00 0. -1.
         -2   -1    0    0    0  501 -0.00000000000E+00 -0.00000000000E+00 -0.59248241844E+02  0.59248241844E+02  0.00000000000E+00 0.  1.
        -24    2    1    2    0    0  0.88545706607E+01  0.14169219423E+02 -0.56389830958E+01  0.82052475266E+02  0.80135138150E+02 0.  0.
         23    2    1    2    0    0  0.16356883081E+02  0.14195237889E+02  0.21619749361E+03  0.23473246054E+03  0.88819588968E+02 0.  0.
         13    1    3    3    0    0  0.19581575662E+02 -0.29987458053E+02  0.24453289938E+01  0.35897985734E+02  0.00000000000E+00 0. -1.
        -14    1    3    3    0    0 -0.10727005001E+02  0.44156677476E+02 -0.80843120896E+01  0.46154489533E+02  0.00000000000E+00 0.  1.
        -13    1    4    4    0    0 -0.18005222191E+02  0.32030272741E+02  0.17242016434E+03  0.17629191550E+03  0.00000000000E+00 0.  1.
         13    1    4    4    0    0  0.34362105272E+02 -0.17835034852E+02  0.43777329270E+02  0.58440545043E+02  0.00000000000E+00 0. -1.
         21    1    1    2  502  501 -0.25211453742E+02 -0.28364457312E+02  0.52550911477E+02  0.64820969874E+02  0.00000000000E+00 0. -1.
<scales pt_clust_5="13000.00000" pt_clust_6="13000.00000" pt_clust_7="13000.00000" pt_clust_8="13000.00000" pt_clust_9="37.94944"></scales>
<clustering>
<clus scale="   37.949">  1  9  2 -1</clus>
<clus scale="   80.135">  5  6 -1 -1</clus>
<clus scale="   80.931">  2  5  1 -1</clus>
<clus scale="   88.820">  7  8 -1 -1</clus>
<clus scale="   37.949">  1  5  2 -1</clus>
</clustering>
</event>
<event>
 9    1  0.1973774E-005  0.9592051E+02  0.7546771E-02  0.1294638E+00
          1   -1    0    0  502    0  0.00000000000E+00  0.00000000000E+00  0.28284468837E+03  0.28284468837E+03  0.00000000000E+00 0. -1.
         -2   -1    0    0    0  501 -0.00000000000E+00 -0.00000000000E+00 -0.14456256417E+03  0.14456256417E+03  0.00000000000E+00 0.  1.
        -24    2    1    2    0    0  0.84183604235E+01 -0.27450719811E+02 -0.10399522867E+03  0.13510767824E+03  0.81330598930E+02 0.  0.
         23    2    1    2    0    0  0.32185005648E+02  0.44355185245E+02  0.11076254963E+03  0.15362535983E+03  0.91264186486E+02 0.  0.
         13    1    3    3    0    0  0.29992121848E+02 -0.38816058427E+02 -0.30712667938E+02  0.57874707227E+02  0.00000000000E+00 0. -1.
        -14    1    3    3    0    0 -0.21573761424E+02  0.11365338616E+02 -0.73282560728E+02  0.77232971008E+02  0.00000000000E+00 0.  1.
        -13    1    4    4    0    0 -0.38815205125E+01  0.25296628858E+02  0.10988239400E+03  0.11282342906E+03  0.00000000000E+00 0.  1.
         13    1    4    4    0    0  0.36066526161E+02  0.19058556386E+02  0.88015563246E+00  0.40801930772E+02  0.00000000000E+00 0. -1.
         21    1    1    2  502  501 -0.40603366072E+02 -0.16904465434E+02  0.13151480324E+03  0.13867421447E+03  0.00000000000E+00 0. -1.
<scales pt_clust_5="13000.00000" pt_clust_6="13000.00000" pt_clust_7="13000.00000" pt_clust_8="13000.00000" pt_clust_9="43.98175"></scales>
<clustering>
<clus scale="   43.982">  1  9  2 -1</clus>
<clus scale="   81.331">  5  6 -1 -1</clus>
<clus scale="   86.523">  2  5  1 -1</clus>
<clus scale="   91.264">  7  8 -1 -1</clus>
<clus scale="   43.982">  1  5  2 -1</clus>
</clustering>
</event>
<event>
 9    1  0.1973774E-005  0.1168009E+03  0.7546771E-02  0.1252500E+00
          1   -1    0    0  502    0  0.00000000000E+00  0.00000000000E+00  0.24265310110E+03  0.24265310110E+03  0.00000000000E+00 0. -1.
         -2   -1    0    0    0  501 -0.00000000000E+00 -0.00000000000E+00 -0.97536248905E+02  0.97536248905E+02  0.00000000000E+00 0.  1.
         23    2    1    2    0    0 -0.12695229220E+02  0.75212460436E+02 -0.20381506393E+02  0.12228388231E+03  0.93380185376E+02 0.  0.
        -24    2    1    2    0    0 -0.11066131876E+02 -0.58836902259E+02  0.84675009932E+02  0.13208487066E+03  0.81806573140E+02 0.  0.
         11    1    4    4    0    0 -0.25098457370E+02 -0.95149217942E+01  0.75319288757E+02  0.79959124294E+02  0.00000000000E+00 0. -1.
        -12    1    4    4    0    0  0.14032325494E+02 -0.49321980464E+02  0.93557211749E+01  0.52125746368E+02  0.00000000000E+00 0.  1.
        -11    1    3    3    0    0  0.15263585602E+02  0.70785580842E+02 -0.44587080429E+02  0.85038716135E+02  0.00000000000E+00 0.  1.
         11    1    3    3    0    0 -0.27958814822E+02  0.44268795933E+01  0.24205574036E+02  0.37245166178E+02  0.00000000000E+00 0. -1.
         21    1    1    2  502  501  0.23761361096E+02 -0.16375558177E+02  0.80823348658E+02  0.85820597033E+02  0.00000000000E+00 0. -1.
<scales pt_clust_5="13000.00000" pt_clust_6="13000.00000" pt_clust_7="13000.00000" pt_clust_8="13000.00000" pt_clust_9="28.85760"></scales>
<clustering>
<clus scale="   28.858">  1  9  2 -1</clus>
<clus scale="   81.807">  5  6 -1 -1</clus>
<clus scale="   93.380">  7  8 -1 -1</clus>
<clus scale="  107.773">  1  5  2 -1</clus>
<clus scale="   28.858">  1  5  2 -1</clus>
</clustering>
</event>
<event>
 9    1  0.1973774E-005  0.1478601E+03  0.7546771E-02  0.1205862E+00
          3   -1    0    0  502    0  0.00000000000E+00  0.00000000000E+00  0.70445293119E+02  0.70445293119E+02  0.00000000000E+00 0. -1.
         -4   -1    0    0    0  501 -0.00000000000E+00 -0.00000000000E+00 -0.10260932520E+04  0.10260932520E+04  0.00000000000E+00 0.  1.
         23    2    1    2    0    0 -0.11212594389E+03 -0.18241639373E+02 -0.59245433803E+03  0.61036778264E+03  0.92960759128E+02 0.  0.
        -24    2    1    2    0    0  0.11857040397E+03 -0.12234282605E+02 -0.40760346450E+03  0.43192551286E+03  0.78806383125E+02 0.  0.
         13    1    4    4    0    0  0.35216724808E+01 -0.24319864420E+02 -0.10809382313E+03  0.11085184970E+03  0.00000000000E+00 0. -1.
        -14    1    4    4    0    0  0.11504873149E+03  0.12085581814E+02 -0.29950964136E+03  0.32107366316E+03  0.00000000000E+00 0.  1.
        -11    1    3    3    0    0 -0.96535124015E+02 -0.46862763337E+02 -0.51945589067E+03  0.53042395413E+03  0.00000000000E+00 0. -1.
         11    1    3    3    0    0 -0.15590819870E+02  0.28621123964E+02 -0.72998447355E+02  0.79943828514E+02  0.00000000000E+00 0.  1.
         21    1    1    2  502  501 -0.64444600832E+01  0.30475921978E+02  0.44409843683E+02  0.54245249581E+02  0.00000000000E+00 0. -1.
<scales pt_clust_5="13000.00000" pt_clust_6="13000.00000" pt_clust_7="13000.00000" pt_clust_8="13000.00000" pt_clust_9="31.14985"></scales>
<clustering>
<clus scale="   31.150">  1  9  2 -1</clus>
<clus scale="   78.806">  5  6 -1 -1</clus>
<clus scale="   92.961">  7  8 -1 -1</clus>
<clus scale="  139.396">  1  5  2 -1</clus>
<clus scale="   31.150">  1  5  2 -1</clus>
</clustering>
</event>
<event>
 9    1  0.1973774E-005  0.1148629E+03  0.7546771E-02  0.1255762E+00
          1   -1    0    0  502    0  0.00000000000E+00  0.00000000000E+00  0.18341248960E+03  0.18341248960E+03  0.00000000000E+00 0. -1.
         -2   -1    0    0    0  501 -0.00000000000E+00 -0.00000000000E+00 -0.25288917373E+03  0.25288917373E+03  0.00000000000E+00 0.  1.
        -24    2    1    2    0    0 -0.72639039065E+02  0.24817920469E+02 -0.14761783058E+03  0.18446972473E+03  0.79659878620E+02 0.  0.
         23    2    1    2    0    0 -0.65534435283E+01 -0.93321177054E+02  0.66738686094E+02  0.14650311271E+03  0.90869797533E+02 0.  0.
         11    1    3    3    0    0 -0.79949845335E+02  0.41336383410E+02 -0.10571597207E+03  0.13883998384E+03  0.00000000000E+00 0. -1.
        -12    1    3    3    0    0  0.73108062704E+01 -0.16518462941E+02 -0.41901858515E+02  0.45629740885E+02  0.00000000000E+00 0.  1.
        -13    1    4    4    0    0 -0.37598722627E+02 -0.91950269692E+02  0.50409189688E+02  0.11139839516E+03  0.00000000000E+00 0.  1.
         13    1    4    4    0    0  0.31045279099E+02 -0.13709073618E+01  0.16329496406E+02  0.35104717549E+02  0.00000000000E+00 0. -1.
         21    1    1    2  502  501  0.79192482593E+02  0.68503256585E+02  0.11402460362E+02  0.10532882589E+03  0.00000000000E+00 0. -1.
<scales pt_clust_5="13000.00000" pt_clust_6="13000.00000" pt_clust_7="13000.00000" pt_clust_8="13000.00000" pt_clust_9="104.70982"></scales>
<clustering>
<clus scale="   79.660">  5  6 -1 -1</clus>
<clus scale="   90.870">  7  8 -1 -1</clus>
<clus scale="  104.710">  1  9  2 -1</clus>
<clus scale="  106.216">  2  5  1 -1</clus>
<clus scale="  104.710">  1  5  2 -1</clus>
</clustering>
</event>
<event>
 9    1  0.1973774E-005  0.2153889E+03  0.7546771E-02  0.1137961E+00
          1   -1    0    0  502    0  0.00000000000E+00  0.00000000000E+00  0.62617569815E+02  0.62617569815E+02  0.00000000000E+00 0. -1.
         -2   -1    0    0    0  501 -0.00000000000E+00 -0.00000000000E+00 -0.93046907728E+03  0.93046907728E+03  0.00000000000E+00 0.  1.
        -24    2    1    2    0    0  0.13850549857E+03  0.14898926104E+03 -0.50658091548E+03  0.55206503122E+03  0.82280020229E+02 0.  0.
         23    2    1    2    0    0 -0.14462058120E+03 -0.11873297382E+03 -0.35223447477E+03  0.40885814954E+03  0.89906783133E+02 0.  0.
         13    1    3    3    0    0  0.13475444959E+03  0.95664897158E+02 -0.40113879316E+03  0.43384659225E+03  0.00000000000E+00 0. -1.
        -14    1    3    3    0    0  0.37510489726E+01  0.53324363885E+02 -0.10544212232E+03  0.11821843897E+03  0.00000000000E+00 0.  1.
        -11    1    4    4    0    0 -0.42087680459E+01 -0.50227334668E+02 -0.69857764403E+02  0.86142940069E+02  0.00000000000E+00 0. -1.
         11    1    4    4    0    0 -0.14041181316E+03 -0.68505639153E+02 -0.28237671036E+03  0.32271520947E+03  0.00000000000E+00 0.  1.
         21    1    1    2  502  501  0.61150826382E+01 -0.30256287222E+02 -0.90361172197E+01  0.32163466333E+02  0.00000000000E+00 0.  1.
<scales pt_clust_5="13000.00000" pt_clust_6="13000.00000" pt_clust_7="13000.00000" pt_clust_8="13000.00000" pt_clust_9="30.86806"></scales>
<clustering>
<clus scale="   30.868">  1  9  2 -1</clus>
<clus scale="   82.280">  5  6 -1 -1</clus>
<clus scale="   89.907">  7  8 -1 -1</clus>
<clus scale="  212.318">  2  5  1 -1</clus>
<clus scale="   30.868">  1  5  2 -1</clus>
</clustering>
</event>
<event>
 9    1  0.1973774E-005  0.1547875E+03  0.7546771E-02  0.1197446E+00
         -2   -1    0    0    0  501 -0.00000000000E+00  0.00000000000E+00  0.48349100771E+03  0.48349100771E+03  0.00000000000E+00 0.  1.
          1   -1    0    0  502    0  0.00000000000E+00 -0.00000000000E+00 -0.94800731388E+03  0.94800731388E+03  0.00000000000E+00 0. -1.
        -24    2    1    2    0    0 -0.14123289723E+03  0.27175215201E+02  0.38250625863E+03  0.41613085065E+03  0.78540584345E+02 0.  0.
         23    2    1    2    0    0  0.58228458061E+02  0.79509477262E+02  0.20084334951E+02  0.13778799526E+03  0.94179832366E+02 0.  0.
         11    1    3    3    0    0 -0.11855026907E+02 -0.22038629177E+02  0.70057417093E+02  0.74392772020E+02  0.00000000000E+00 0. -1.
        -12    1    3    3    0    0 -0.12937787032E+03  0.49213844378E+02  0.31244884154E+03  0.34173807863E+03  0.00000000000E+00 0.  1.
        -11    1    4    4    0    0  0.67986978751E+02  0.27192935511E+02 -0.14055072905E+02  0.74560244741E+02  0.00000000000E+00 0. -1.
         11    1    4    4    0    0 -0.97585206908E+01  0.52316541751E+02  0.34139407856E+02  0.63227750518E+02  0.00000000000E+00 0.  1.
         21    1    1    2  502  501  0.83004439165E+02 -0.10668469246E+03 -0.86710689976E+03  0.87757947568E+03  0.00000000000E+00 0. -1.
<scales pt_clust_5="13000.00000" pt_clust_6="13000.00000" pt_clust_7="13000.00000" pt_clust_8="13000.00000" pt_clust_9="135.17160"></scales>
<clustering>
<clus scale="   78.541">  5  6 -1 -1</clus>
<clus scale="   94.180">  7  8 -1 -1</clus>
<clus scale="  135.172">  2  9  1 -1</clus>
<clus scale="  145.801">  1  5  2 -1</clus>
<clus scale="  135.172">  2  5  1 -1</clus>
</clustering>
</event>
<event>
 9    1  0.1973774E-005  0.1163092E+03  0.7546771E-02  0.1255016E+00
          1   -1    0    0  502    0  0.00000000000E+00  0.00000000000E+00  0.39666282013E+03  0.39666282013E+03  0.00000000000E+00 0. -1.
         -2   -1    0    0    0  501 -0.00000000000E+00 -0.00000000000E+00 -0.52527112638E+02  0.52527112638E+02  0.00000000000E+00 0.  1.
        -24    2    1    2    0    0 -0.28555317635E+02  0.27887724604E+02  0.65517615787E+02  0.13048383178E+03  0.10554781395E+03 0.  0.
         23    2    1    2    0    0  0.41473604474E+02 -0.48873986840E+02  0.14640367873E+03  0.18421462788E+03  0.91609309159E+02 0.  0.
         11    1    3    3    0    0 -0.62743893310E+02  0.47632800834E+01  0.63139361790E+02  0.89140697732E+02  0.00000000000E+00 0. -1.
        -12    1    3    3    0    0  0.34188575675E+02  0.23124444520E+02  0.23782539971E+01  0.41343134051E+02  0.00000000000E+00 0.  1.
        -13    1    4    4    0    0  0.67741487146E+01 -0.32050961998E+02 -0.60373314150E-01  0.32759073564E+02  0.00000000000E+00 0.  1.
         13    1    4    4    0    0  0.34699455760E+02 -0.16823024842E+02  0.14646405204E+03  0.15145555432E+03  0.00000000000E+00 0. -1.
         21    1    1    2  502  501 -0.12918286839E+02  0.20986262236E+02  0.13221441298E+03  0.13449147310E+03  0.00000000000E+00 0.  1.
<scales pt_clust_5="13000.00000" pt_clust_6="13000.00000" pt_clust_7="13000.00000" pt_clust_8="13000.00000" pt_clust_9="24.64357"></scales>
<clustering>
<clus scale="   24.644">  1  9  2 -1</clus>
<clus scale="   91.609">  7  8 -1 -1</clus>
<clus scale="  103.826">  1  7  2 -1</clus>
<clus scale="  105.548">  5  6 -1 -1</clus>
<clus scale="   24.644">  1  5  2 -1</clus>
</clustering>
</event>
<event>
 9    1  0.1973774E-005  0.9757176E+02  0.7546771E-02  0.1294139E+00
         -2   -1    0    0    0  501 -0.00000000000E+00  0.00000000000E+00  0.11232565824E+03  0.11232565824E+03  0.00000000000E+00 0.  1.
          1   -1    0    0  502    0  0.00000000000E+00 -0.00000000000E+00 -0.25000713616E+03  0.25000713616E+03  0.00000000000E+00 0. -1.
        -24    2    1    2    0    0 -0.17633561287E+02 -0.66200199685E+01  0.52304696565E+02  0.96220307611E+02  0.78535337053E+02 0.  0.
         23    2    1    2    0    0  0.46644394523E+02  0.52451894194E+02 -0.75413868727E+02  0.13934891795E+03  0.93829465483E+02 0.  0.
         13    1    3    3    0    0 -0.39312561504E+02  0.13680503515E+02  0.72415179524E+01  0.42250127227E+02  0.00000000000E+00 0. -1.
        -14    1    3    3    0    0  0.21679000217E+02 -0.20300523484E+02  0.45063178612E+02  0.53970180385E+02  0.00000000000E+00 0.  1.
        -11    1    4    4    0    0  0.72932926271E+02  0.20475196573E+02 -0.47236034976E+02  0.89273111346E+02  0.00000000000E+00 0. -1.
         11    1    4    4    0    0 -0.26288531748E+02  0.31976697622E+02 -0.28177833751E+02  0.50075806606E+02  0.00000000000E+00 0.  1.
         21    1    1    2  502  501 -0.29010833236E+02 -0.45831874226E+02 -0.11457230575E+03  0.12676356884E+03  0.00000000000E+00 0.  1.
<scales pt_clust_5="13000.00000" pt_clust_6="13000.00000" pt_clust_7="13000.00000" pt_clust_8="13000.00000" pt_clust_9="54.24195"></scales>
<clustering>
<clus scale="   54.242">  2  9  1 -1</clus>
<clus scale="   78.535">  5  6 -1 -1</clus>
<clus scale="   82.970">  1  5  2 -1</clus>
<clus scale="   93.829">  7  8 -1 -1</clus>
<clus scale="   54.242">  2  5  1 -1</clus>
</clustering>
</event>
<event>
 9    1  0.1973774E-005  0.9790655E+02  0.7546771E-02  0.1295500E+00
          1   -1    0    0  502    0  0.00000000000E+00  0.00000000000E+00  0.22418759343E+03  0.22418759343E+03  0.00000000000E+00 0. -1.
         -2   -1    0    0    0  501 -0.00000000000E+00 -0.00000000000E+00 -0.33877683319E+03  0.33877683319E+03  0.00000000000E+00 0.  1.
        -24    2    1    2    0    0  0.19334073325E+02 -0.34644707791E+02 -0.28532313803E+03  0.29670464285E+03  0.71065391209E+02 0.  0.
         23    2    1    2    0    0  0.42878324428E+01  0.18567488250E+02 -0.48681446499E+00  0.92671178475E+02  0.90689432707E+02 0.  0.
         11    1    3    3    0    0  0.37419256593E+02 -0.18706864714E+02 -0.82964917840E+02  0.92915688361E+02  0.00000000000E+00 0. -1.
        -12    1    3    3    0    0 -0.18085183267E+02 -0.15937843077E+02 -0.20235822019E+03  0.20378895449E+03  0.00000000000E+00 0.  1.
        -11    1    4    4    0    0  0.28949034137E+02 -0.74396544773E+01  0.32362774655E+02  0.44053878599E+02  0.00000000000E+00 0.  1.
         11    1    4    4    0    0 -0.24661201694E+02  0.26007142727E+02 -0.32849589120E+02  0.48617299876E+02  0.00000000000E+00 0. -1.
         21    1    1    2  502  501 -0.23621905768E+02  0.16077219541E+02  0.17122071273E+03  0.17358860530E+03  0.00000000000E+00 0. -1.
<scales pt_clust_5="13000.00000" pt_clust_6="13000.00000" pt_clust_7="13000.00000" pt_clust_8="13000.00000" pt_clust_9="28.57396"></scales>
<clustering>
<clus scale="   28.574">  1  9  2 -1</clus>
<clus scale="   71.065">  5  6 -1 -1</clus>
<clus scale="   80.071">  2  5  1 -1</clus>
<clus scale="   90.689">  7  8 -1 -1</clus>
<clus scale="   28.574">  1  5  2 -1</clus>
</clustering>
</event>
<event>
 9    1  0.1973774E-005  0.1060863E+03  0.7546771E-02  0.1279818E+00
         -2   -1    0    0    0  501 -0.00000000000E+00  0.00000000000E+00  0.96380466158E+02  0.96380466158E+02  0.00000000000E+00 0.  1.
          1   -1    0    0  502    0  0.00000000000E+00 -0.00000000000E+00 -0.23614231443E+03  0.23614231443E+03  0.00000000000E+00 0. -1.
        -24    2    1    2    0    0  0.80106464826E+01 -0.22736173135E+02  0.20075319110E+02  0.84232269999E+02  0.78172583723E+02 0.  0.
         23    2    1    2    0    0 -0.66703807674E+02  0.41395537889E+02 -0.11545221341E+03  0.17237553708E+03  0.10109957313E+03 0.  0.
         11    1    3    3    0    0 -0.11765901811E+02 -0.18941600355E+02 -0.25818579632E+02  0.34114802119E+02  0.00000000000E+00 0. -1.
        -12    1    3    3    0    0  0.19776548294E+02 -0.37945727805E+01  0.45893898742E+02  0.50117467880E+02  0.00000000000E+00 0.  1.
        -11    1    4    4    0    0 -0.63921423156E+02  0.61883358330E+02 -0.46495691344E+02  0.10038599350E+03  0.00000000000E+00 0. -1.
         11    1    4    4    0    0 -0.27823845183E+01 -0.20487820441E+02 -0.68956522063E+02  0.71989543581E+02  0.00000000000E+00 0.  1.
         21    1    1    2  502  501  0.58693161192E+02 -0.18659364754E+02 -0.44384953970E+02  0.75914973507E+02  0.00000000000E+00 0. -1.
<scales pt_clust_5="13000.00000" pt_clust_6="13000.00000" pt_clust_7="13000.00000" pt_clust_8="13000.00000" pt_clust_9="61.58782"></scales>
<clustering>
<clus scale="   61.588">  2  9  1 -1</clus>
<clus scale="   78.173">  5  6 -1 -1</clus>
<clus scale="   84.523">  1  5  2 -1</clus>
<clus scale="  101.100">  7  8 -1 -1</clus>
<clus scale="   61.588">  2  5  1 -1</clus>
</clustering>
</event>
<event>
 9    1  0.1973774E-005  0.9506278E+02  0.7546771E-02  0.1299874E+00
          1   -1    0    0  502    0  0.00000000000E+00  0.00000000000E+00  0.49035850605E+03  0.49035850605E+03  0.00000000000E+00 0. -1.
         -2   -1    0    0    0  501 -0.00000000000E+00 -0.00000000000E+00 -0.42231477211E+02  0.42231477211E+02  0.00000000000E+00 0.  1.
        -24    2    1    2    0    0  0.10007720493E+02 -0.13721521889E+02  0.27151736871E+02  0.83410390300E+02  0.77017152392E+02 0.  0.
         23    2    1    2    0    0 -0.19305525007E+02  0.51758353344E+02  0.22426190662E+03  0.24860689868E+03  0.91980198270E+02 0.  0.
         11    1    3    3    0    0  0.50035757528E+01 -0.43665344452E+02  0.29542796073E+02  0.52957292947E+02  0.00000000000E+00 0. -1.
        -12    1    3    3    0    0  0.50041447405E+01  0.29943822563E+02 -0.23910592023E+01  0.30453097353E+02  0.00000000000E+00 0.  1.
        -13    1    4    4    0    0  0.86726817361E+01  0.69665502605E+02  0.18045424470E+03  0.19362910962E+03  0.00000000000E+00 0.  1.
         13    1    4    4    0    0 -0.27978206743E+02 -0.17907149261E+02  0.43807661925E+02  0.54977789066E+02  0.00000000000E+00 0. -1.
         21    1    1    2  502  501  0.92978045136E+01 -0.38036831455E+02  0.19671338534E+03  0.20057269427E+03  0.00000000000E+00 0.  1.
<scales pt_clust_5="13000.00000" pt_clust_6="13000.00000" pt_clust_7="13000.00000" pt_clust_8="13000.00000" pt_clust_9="39.15673"></scales>
<clustering>
<clus scale="   39.157">  1  9  2 -1</clus>
<clus scale="   77.017">  5  6 -1 -1</clus>
<clus scale="   80.674">  2  5  1 -1</clus>
<clus scale="   91.980">  7  8 -1 -1</clus>
<clus scale="   39.157">  1  5  2 -1</clus>
</clustering>
</event>
<event>
 9    1  0.1973774E-005  0.1271020E+03  0.7546771E-02  0.1247474E+00
          1   -1    0    0  502    0  0.00000000000E+00  0.00000000000E+00  0.63181039652E+02  0.63181039652E+02  0.00000000000E+00 0. -1.
         -2   -1    0    0    0  501 -0.00000000000E+00 -0.00000000000E+00 -0.70397169136E+03  0.70397169136E+03  0.00000000000E+00 0.  1.
        -24    2    1    2    0    0 -0.88701345558E+02  0.49707522129E+02 -0.49820702993E+03  0.51476549016E+03  0.80215327209E+02 0.  0.
         23    2    1    2    0    0  0.58647424088E+01 -0.73702690123E+01 -0.13764071581E+02  0.93488460701E+02  0.91988730554E+02 0.  0.
         11    1    3    3    0    0 -0.27480764544E+02  0.27844111382E+02 -0.59117267208E+02  0.70889620120E+02  0.00000000000E+00 0. -1.
        -12    1    3    3    0    0 -0.61220581014E+02  0.21863410747E+02 -0.43908976273E+03  0.44387587004E+03  0.00000000000E+00 0.  1.
        -13    1    4    4    0    0  0.26117892774E+02  0.57890760734E+01  0.32019781970E+02  0.41724383304E+02  0.00000000000E+00 0. -1.
         13    1    4    4    0    0 -0.20253150365E+02 -0.13159345086E+02 -0.45783853550E+02  0.51764077396E+02  0.00000000000E+00 0.  1.
         21    1    1    2  502  501  0.82836603150E+02 -0.42337253116E+02 -0.12881955019E+03  0.15889878015E+03  0.00000000000E+00 0. -1.
<scales pt_clust_5="13000.00000" pt_clust_6="13000.00000" pt_clust_7="13000.00000" pt_clust_8="13000.00000" pt_clust_9="98.59212"></scales>
<clustering>
<clus scale="   80.215">  5  6 -1 -1</clus>
<clus scale="   91.989">  7  8 -1 -1</clus>
<clus scale="   92.470">  1  7  2 -1</clus>
<clus scale="   98.592">  1  9  2 -1</clus>
<clus scale="   92.470">  1  5  2 -1</clus>
</clustering>
</event>
<event>
 9    1  0.1973774E-005  0.1743814E+03  0.7546771E-02  0.1187184E+00
         -2   -1    0    0    0  501 -0.00000000000E+00  0.00000000000E+00  0.96469422844E+02  0.96469422844E+02  0.00000000000E+00 0.  1.
          1   -1    0    0  502    0  0.00000000000E+00 -0.00000000000E+00 -0.88526722184E+03  0.88526722184E+03  0.00000000000E+00 0. -1.
        -24    2    1    2    0    0 -0.65706196307E+02  0.74888497956E+02 -0.36572542767E+02  0.13293440931E+03  0.80052576065E+02 0.  0.
         23    2    1    2    0    0 -0.39374772136E+02 -0.17526040818E+03 -0.22775968194E+03  0.30457740233E+03  0.92878081031E+02 0.  0.
         11    1    3    3    0    0 -0.57105032687E+02  0.10123486568E+02  0.13360181274E+00  0.57995582486E+02  0.00000000000E+00 0. -1.
        -12    1    3    3    0    0 -0.86011636205E+01  0.64765011389E+02 -0.36706144579E+02  0.74938826823E+02  0.00000000000E+00 0.  1.
        -13    1    4    4    0    0 -0.24720811296E+02 -0.92105079980E+01 -0.71038344138E+02  0.75778613781E+02  0.00000000000E+00 0. -1.
         13    1    4    4    0    0 -0.14653960840E+02 -0.16604990018E+03 -0.15672133780E+03  0.22879878855E+03  0.00000000000E+00 0.  1.
         21    1    1    2  502  501  0.10508096844E+03  0.10037191022E+03 -0.52446557429E+03  0.54422483305E+03  0.00000000000E+00 0. -1.
<scales pt_clust_5="13000.00000" pt_clust_6="13000.00000" pt_clust_7="13000.00000" pt_clust_8="13000.00000" pt_clust_9="147.58906"></scales>
<clustering>
<clus scale="   80.053">  5  6 -1 -1</clus>
<clus scale="   92.878">  7  8 -1 -1</clus>
<clus scale="  127.805">  1  5  2 -1</clus>
<clus scale="  147.589">  2  9  1 -1</clus>
<clus scale="  147.589">  2  5  1 -1</clus>
</clustering>
</event>
<event>
 9    1  0.3605984E-005  0.1533085E+03  0.7546771E-02  0.1204356E+00
         -2   -1    0    0    0  501 -0.00000000000E+00  0.00000000000E+00  0.32446243696E+03  0.32446243696E+03  0.00000000000E+00 0.  1.
          1   -1    0    0  502    0  0.00000000000E+00 -0.00000000000E+00 -0.36456271843E+03  0.36456271843E+03  0.00000000000E+00 0. -1.
         23    2    1    2    0    0  0.10302826926E+03 -0.39200625059E+00  0.28150011246E+03  0.32119507404E+03  0.11536457140E+03 0.  0.
        -24    2    1    2    0    0 -0.67450594692E+02  0.56574907769E+01 -0.31387219412E+03  0.33104392462E+03  0.80577514574E+02 0.  0.
         11    1    4    4    0    0 -0.23734612544E+02 -0.36013040417E+02 -0.10230141681E+03  0.11102184828E+03  0.00000000000E+00 0. -1.
        -12    1    4    4    0    0 -0.43715982149E+02  0.41670531193E+02 -0.21157077731E+03  0.22002207634E+03  0.00000000000E+00 0.  1.
        -11    1    3    3    0    0  0.66496550292E+02  0.36203940625E+02  0.24867823588E+03  0.25994880557E+03  0.00000000000E+00 0.  1.
         11    1    3    3    0    0  0.36531718970E+02 -0.36595946876E+02  0.32821876576E+02  0.61246268463E+02  0.00000000000E+00 0. -1.
         21    1    1    2  502  501 -0.35577674570E+02 -0.52654845263E+01 -0.77281998093E+01  0.36786156736E+02  0.00000000000E+00 0.  1.
<scales pt_clust_5="13000.00000" pt_clust_6="13000.00000" pt_clust_7="13000.00000" pt_clust_8="13000.00000" pt_clust_9="35.96521"></scales>
<clustering>
<clus scale="   35.965">  2  9  1 -1</clus>
<clus scale="   80.578">  5  6 -1 -1</clus>
<clus scale="  115.365">  7  8 -1 -1</clus>
<clus scale="  129.179">  2  5  1 -1</clus>
<clus scale="   35.965">  2  5  1 -1</clus>
</clustering>
</event>
<event>
 9    1  0.1973774E-005  0.1848180E+03  0.7546771E-02  0.1186287E+00
         -2   -1    0    0    0  501 -0.00000000000E+00  0.00000000000E+00  0.12860835347E+03  0.12860835347E+03  0.00000000000E+00 0.  1.
          1   -1    0    0  502    0  0.00000000000E+00 -0.00000000000E+00 -0.91534824729E+03  0.91534824729E+03  0.00000000000E+00 0. -1.
         23    2    1    2    0    0 -0.18285110129E+02  0.52189809996E+02  0.49091116838E+02  0.12001259448E+03  0.94524936189E+02 0.  0.
        -24    2    1    2    0    0  0.79142778689E+02 -0.19276605342E+03 -0.35034105481E+03  0.41486067983E+03  0.77124562960E+02 0.  0.
         13    1    4    4    0    0  0.45761010269E+01 -0.11257931747E+03 -0.17467508327E+03  0.20786156003E+03  0.00000000000E+00 0. -1.
        -14    1    4    4    0    0  0.74566677663E+02 -0.80186735947E+02 -0.17566597154E+03  0.20699911980E+03  0.00000000000E+00 0.  1.
        -13    1    3    3    0    0  0.70901824645E+01  0.49704255512E+02  0.70615734800E+02  0.86645055858E+02  0.00000000000E+00 0.  1.
         13    1    3    3    0    0 -0.25375292594E+02  0.24855544845E+01 -0.21524617961E+02  0.33367538622E+02  0.00000000000E+00 0. -1.
         21    1    1    2  502  501 -0.60857668560E+02  0.14057624342E+03 -0.48548995585E+03  0.50908332645E+03  0.00000000000E+00 0. -1.
<scales pt_clust_5="13000.00000" pt_clust_6="13000.00000" pt_clust_7="13000.00000" pt_clust_8="13000.00000" pt_clust_9="167.95678"></scales>
<clustering>
<clus scale="   77.125">  5  6 -1 -1</clus>
<clus scale="   94.525">  7  8 -1 -1</clus>
<clus scale="  109.513">  1  7  2 -1</clus>
<clus scale="  167.957">  2  9  1 -1</clus>
<clus scale="  167.957">  2  5  1 -1</clus>
</clustering>
</event>
<event>
 9    1  0.1973774E-005  0.1239991E+03  0.7546771E-02  0.1240615E+00
         -2   -1    0    0    0  501 -0.00000000000E+00  0.00000000000E+00  0.13701648954E+03  0.13701648954E+03  0.00000000000E+00 0.  1.
          1   -1    0    0  502    0  0.00000000000E+00 -0.00000000000E+00 -0.28649811435E+03  0.28649811435E+03  0.00000000000E+00 0. -1.
         23    2    1    2    0    0 -0.53672788215E+02  0.58262297743E+02  0.75573872084E+02  0.14300747442E+03  0.92002522060E+02 0.  0.
        -24    2    1    2    0    0  0.62236594278E+02 -0.80436641676E+02 -0.13102346208E+03  0.18351711002E+03  0.78536202245E+02 0.  0.
         13    1    4    4    0    0  0.55049490682E+02 -0.48011231195E+02 -0.13136010222E+03  0.15030303124E+03  0.00000000000E+00 0. -1.
        -14    1    4    4    0    0  0.71871035969E+01 -0.32425410481E+02  0.33664013154E+00  0.33214078785E+02  0.00000000000E+00 0.  1.
        -11    1    3    3    0    0  0.21088187223E+02  0.28431435651E+02  0.44173069583E+02  0.56606697925E+02  0.00000000000E+00 0.  1.
         11    1    3    3    0    0 -0.74760975437E+02  0.29830862091E+02  0.31400802501E+02  0.86400776496E+02  0.00000000000E+00 0. -1.
         21    1    1    2  502  501 -0.85638060635E+01  0.22174343933E+02 -0.94032034802E+02  0.96990019446E+02  0.00000000000E+00 0. -1.
<scales pt_clust_5="13000.00000" pt_clust_6="13000.00000" pt_clust_7="13000.00000" pt_clust_8="13000.00000" pt_clust_9="23.77058"></scales>
<clustering>
<clus scale="   23.771">  2  9  1 -1</clus>
<clus scale="   78.536">  5  6 -1 -1</clus>
<clus scale="   92.003">  7  8 -1 -1</clus>
<clus scale="  114.365">  2  5  1 -1</clus>
<clus scale="   23.771">  2  5  1 -1</clus>
</clustering>
</event>
<event>
 9    1  0.1973774E-005  0.1812691E+03  0.7546771E-02  0.1166858E+00
         -2   -1    0    0    0  501 -0.00000000000E+00  0.00000000000E+00  0.31216472757E+03  0.31216472757E+03  0.00000000000E+00 0.  1.
          1   -1    0    0  502    0  0.00000000000E+00 -0.00000000000E+00 -0.18337025067E+03  0.18337025067E+03  0.00000000000E+00 0. -1.
         23    2    1    2    0    0  0.16442992141E+03  0.26725144190E+02  0.21533794866E+03  0.28503142830E+03  0.84386317627E+02 0.  0.
        -24    2    1    2    0    0 -0.13619377691E+03 -0.16521420605E+02 -0.83654093389E+02  0.18034158152E+03  0.81874150228E+02 0.  0.
         13    1    4    4    0    0 -0.10642630448E+03  0.21852564381E+02 -0.72181786142E+02  0.13043888648E+03  0.00000000000E+00 0. -1.
        -14    1    4    4    0    0 -0.29767472435E+02 -0.38373984986E+02 -0.11472307247E+02  0.49902695042E+02  0.00000000000E+00 0.  1.
        -13    1    3    3    0    0  0.14986449356E+03 -0.19278017608E+01  0.14911367284E+03  0.21141894494E+03  0.00000000000E+00 0.  1.
         13    1    3    3    0    0  0.14565427847E+02  0.28652945951E+02  0.66224275815E+02  0.73612483366E+02  0.00000000000E+00 0. -1.
         21    1    1    2  502  501 -0.28236144500E+02 -0.10203723585E+02 -0.28893783657E+01  0.30161968413E+02  0.00000000000E+00 0.  1.
<scales pt_clust_5="13000.00000" pt_clust_6="13000.00000" pt_clust_7="13000.00000" pt_clust_8="13000.00000" pt_clust_9="30.02325"></scales>
<clustering>
<clus scale="   30.023">  2  9  1 -1</clus>
<clus scale="   81.874">  5  6 -1 -1</clus>
<clus scale="   84.386">  7  8 -1 -1</clus>
<clus scale="  180.113">  2  5  1 -1</clus>
<clus scale="   30.023">  2  5  1 -1</clus>
</clustering>
</event>
<event>
 9    1  0.1973774E-005  0.1209164E+03  0.7546771E-02  0.1244917E+00
         -2   -1    0    0    0  501 -0.00000000000E+00  0.00000000000E+00  0.24397192230E+03  0.24397192230E+03  0.00000000000E+00 0.  1.
          1   -1    0    0  502    0  0.00000000000E+00 -0.00000000000E+00 -0.85378607667E+02  0.85378607667E+02  0.00000000000E+00 0. -1.
        -24    2    1    2    0    0 -0.90587070718E+01 -0.63407034567E+02  0.10563577987E+03  0.14699491888E+03  0.79662261969E+02 0.  0.
         23    2    1    2    0    0 -0.57580964157E+01  0.89151110482E+02  0.66150882970E+01  0.12731092510E+03  0.90461240779E+02 0.  0.
         11    1    3    3    0    0 -0.11761600751E+02  0.16787013623E+02  0.32512100947E+02  0.38434044629E+02  0.00000000000E+00 0. -1.
        -12    1    3    3    0    0  0.27028936794E+01 -0.80194048190E+02  0.73123678921E+02  0.10856087425E+03  0.00000000000E+00 0.  1.
        -11    1    4    4    0    0 -0.33238000269E+02  0.69280489183E+02  0.33704446861E+02  0.83907929194E+02  0.00000000000E+00 0.  1.
         11    1    4    4    0    0  0.27479903854E+02  0.19870621299E+02 -0.27089358564E+02  0.43402995911E+02  0.00000000000E+00 0. -1.
         21    1    1    2  502  501  0.14816803487E+02 -0.25744075915E+02  0.46342446471E+02  0.55044685985E+02  0.00000000000E+00 0.  1.
<scales pt_clust_5="13000.00000" pt_clust_6="13000.00000" pt_clust_7="13000.00000" pt_clust_8="13000.00000" pt_clust_9="29.70345"></scales>
<clustering>
<clus scale="   29.703">  1  9  2 -1</clus>
<clus scale="   79.662">  5  6 -1 -1</clus>
<clus scale="   90.461">  7  8 -1 -1</clus>
<clus scale="  113.065">  1  5  2 -1</clus>
<clus scale="  120.916">  2  5  1 -1</clus>
</clustering>
</event>
<event>
 9    1  0.1973774E-005  0.1003755E+03  0.7546771E-02  0.1284923E+00
          1   -1    0    0  502    0  0.00000000000E+00  0.00000000000E+00  0.23406520539E+03  0.23406520539E+03  0.00000000000E+00 0. -1.
         -2   -1    0    0    0  501 -0.00000000000E+00 -0.00000000000E+00 -0.63340796200E+02  0.63340796200E+02  0.00000000000E+00 0.  1.
         23    2    1    2    0    0  0.13793412844E+02  0.34856900841E+02  0.25880680406E+02  0.10357211786E+03  0.93016730782E+02 0.  0.
        -24    2    1    2    0    0  0.95736824443E+01 -0.41326464100E+02  0.72794158897E+02  0.11781403822E+03  0.82350628420E+02 0.  0.
         11    1    4    4    0    0  0.65335036111E+01 -0.31637907634E+02  0.91222143303E+02  0.96773567144E+02  0.00000000000E+00 0. -1.
        -12    1    4    4    0    0  0.30401788332E+01 -0.96885564659E+01 -0.18427984406E+02  0.21040471074E+02  0.00000000000E+00 0.  1.
        -11    1    3    3    0    0 -0.18303991873E+02  0.28076982742E+02 -0.25842648541E+02  0.42322518380E+02  0.00000000000E+00 0.  1.
         11    1    3    3    0    0  0.32097404717E+02  0.67799180990E+01  0.51723328947E+02  0.61249599479E+02  0.00000000000E+00 0. -1.
         21    1    1    2  502  501 -0.23367095288E+02  0.64695632588E+01  0.72049569890E+02  0.76019845516E+02  0.00000000000E+00 0.  1.
<scales pt_clust_5="13000.00000" pt_clust_6="13000.00000" pt_clust_7="13000.00000" pt_clust_8="13000.00000" pt_clust_9="24.24616"></scales>
<clustering>
<clus scale="   24.246">  1  9  2 -1</clus>
<clus scale="   82.351">  5  6 -1 -1</clus>
<clus scale="   90.580">  1  5  2 -1</clus>
<clus scale="   93.017">  7  8 -1 -1</clus>
<clus scale="   24.246">  1  5  2 -1</clus>
</clustering>
</event>
<event>
 9    1  0.1973774E-005  0.1224424E+03  0.7546771E-02  0.1242393E+00
          1   -1    0    0  502    0  0.00000000000E+00  0.00000000000E+00  0.75066932110E+03  0.75066932110E+03  0.00000000000E+00 0. -1.
         -2   -1    0    0    0  501 -0.00000000000E+00 -0.00000000000E+00 -0.35716153019E+02  0.35716153019E+02  0.00000000000E+00 0.  1.
        -24    2    1    2    0    0  0.78040555653E+02 -0.19269322007E+02  0.93457573872E+02  0.14734878152E+03  0.80719949235E+02 0.  0.
         23    2    1    2    0    0 -0.87112973870E+02  0.73158319155E+00  0.49537026952E+03  0.51123389897E+03  0.91537916159E+02 0.  0.
         13    1    3    3    0    0  0.43669307645E+02  0.28330857790E+02  0.26893373427E+02  0.58590950390E+02  0.00000000000E+00 0. -1.
        -14    1    3    3    0    0  0.34371248008E+02 -0.47600179796E+02  0.66564200445E+02  0.88757831132E+02  0.00000000000E+00 0.  1.
        -13    1    4    4    0    0  0.39341648414E+01  0.27331560538E+02  0.66606958591E+02  0.72103944325E+02  0.00000000000E+00 0.  1.
         13    1    4    4    0    0 -0.91047138711E+02 -0.26599977346E+02  0.42876331093E+03  0.43912995464E+03  0.00000000000E+00 0. -1.
         21    1    1    2  502  501  0.90724182171E+01  0.18537738815E+02  0.12612532469E+03  0.12780279363E+03  0.00000000000E+00 0. -1.
<scales pt_clust_5="13000.00000" pt_clust_6="13000.00000" pt_clust_7="13000.00000" pt_clust_8="13000.00000" pt_clust_9="20.63871"></scales>
<clustering>
<clus scale="   20.639">  1  9  2 -1</clus>
<clus scale="   80.720">  5  6 -1 -1</clus>
<clus scale="   91.538">  7  8 -1 -1</clus>
<clus scale="  114.580">  2  5  1 -1</clus>
<clus scale="   20.639">  1  5  2 -1</clus>
</clustering>
</event>
<event>
 9    1  0.1973774E-005  0.1398248E+03  0.7546771E-02  0.1216373E+00
         -2   -1    0    0    0  501 -0.00000000000E+00  0.00000000000E+00  0.14521109985E+03  0.14521109985E+03  0.00000000000E+00 0.  1.
          1   -1    0    0  502    0  0.00000000000E+00 -0.00000000000E+00 -0.45002974671E+03  0.45002974671E+03  0.00000000000E+00 0. -1.
        -24    2    1    2    0    0 -0.82158850772E+02 -0.67355047661E+02  0.94339246447E+02  0.16223765766E+03  0.78322314418E+02 0.  0.
         23    2    1    2    0    0  0.64946698092E+02  0.83242297325E+02 -0.29637473343E+03  0.32758478037E+03  0.91249394849E+02 0.  0.
         11    1    3    3    0    0 -0.44136503724E+02 -0.42866690207E+02  0.45420094505E+01  0.61694521152E+02  0.00000000000E+00 0. -1.
        -12    1    3    3    0    0 -0.38022347048E+02 -0.24488357454E+02  0.89797236996E+02  0.10054313650E+03  0.00000000000E+00 0.  1.
        -13    1    4    4    0    0  0.80028293438E+02  0.41155128107E+02 -0.23509375523E+03  0.25172871523E+03  0.00000000000E+00 0. -1.
         13    1    4    4    0    0 -0.15081595345E+02  0.42087169218E+02 -0.61280978195E+02  0.75856065147E+02  0.00000000000E+00 0.  1.
         21    1    1    2  502  501  0.17212152680E+02 -0.15887249664E+02 -0.10278315988E+03  0.10541840853E+03  0.00000000000E+00 0.  1.
<scales pt_clust_5="13000.00000" pt_clust_6="13000.00000" pt_clust_7="13000.00000" pt_clust_8="13000.00000" pt_clust_9="23.42355"></scales>
<clustering>
<clus scale="   23.424">  2  9  1 -1</clus>
<clus scale="   78.322">  5  6 -1 -1</clus>
<clus scale="   91.249">  7  8 -1 -1</clus>
<clus scale="  131.753">  1  5  2 -1</clus>
<clus scale="   23.424">  2  5  1 -1</clus>
</clustering>
</event>
<event>
 9    1  0.1973774E-005  0.1825361E+03  0.7546771E-02  0.1166232E+00
         -2   -1    0    0    0  501 -0.00000000000E+00  0.00000000000E+00  0.30407432354E+03  0.30407432354E+03  0.00000000000E+00 0.  1.
          1   -1    0    0  502    0  0.00000000000E+00 -0.00000000000E+00 -0.35773573537E+03  0.35773573537E+03  0.00000000000E+00 0. -1.
         23    2    1    2    0    0  0.11686049681E+03  0.10942236971E+03  0.24354442852E+03  0.30556208856E+03  0.91786004352E+02 0.  0.
        -24    2    1    2    0    0 -0.11339141328E+03 -0.82774001434E+02 -0.21858084275E+03  0.27315729506E+03  0.84428520692E+02 0.  0.
         11    1    4    4    0    0 -0.22336915623E+02 -0.65447246559E+02 -0.11472288474E+03  0.13395379862E+03  0.00000000000E+00 0. -1.
        -12    1    4    4    0    0 -0.91054497658E+02 -0.17326754876E+02 -0.10385795801E+03  0.13920349644E+03  0.00000000000E+00 0.  1.
        -13    1    3    3    0    0  0.93291482737E+02  0.90254374880E+02  0.24262882050E+03  0.27516885266E+03  0.00000000000E+00 0.  1.
         13    1    3    3    0    0  0.23569014078E+02  0.19167994830E+02  0.91560801482E+00  0.30393235899E+02  0.00000000000E+00 0. -1.
         21    1    1    2  502  501 -0.34690835340E+01 -0.26648368275E+02 -0.78624997597E+02  0.83090675286E+02  0.00000000000E+00 0. -1.
<scales pt_clust_5="13000.00000" pt_clust_6="13000.00000" pt_clust_7="13000.00000" pt_clust_8="13000.00000" pt_clust_9="26.87322"></scales>
<clustering>
<clus scale="   26.873">  2  9  1 -1</clus>
<clus scale="   84.429">  5  6 -1 -1</clus>
<clus scale="   91.786">  7  8 -1 -1</clus>
<clus scale="  178.949">  2  5  1 -1</clus>
<clus scale="   26.873">  2  5  1 -1</clus>
</clustering>
</event>
<event>
 9    1  0.1973774E-005  0.9245484E+02  0.7546771E-02  0.1303357E+00
         -2   -1    0    0    0  501 -0.00000000000E+00  0.00000000000E+00  0.25913896184E+03  0.25913896184E+03  0.00000000000E+00 0.  1.
          1   -1    0    0  502    0  0.00000000000E+00 -0.00000000000E+00 -0.25424603823E+03  0.25424603823E+03  0.00000000000E+00 0. -1.
        -24    2    1    2    0    0  0.21825180784E+02  0.20482504396E+01  0.18900635167E+03  0.20695459258E+03  0.81401895386E+02 0.  0.
         23    2    1    2    0    0  0.51416282170E+02  0.26831059045E+02 -0.25466852197E+01  0.10852940064E+03  0.91698448166E+02 0.  0.
         13    1    3    3    0    0 -0.28231530975E+02  0.15481351240E+02  0.80711225515E+02  0.86896452756E+02  0.00000000000E+00 0. -1.
        -14    1    3    3    0    0  0.50056711759E+02 -0.13433100800E+02  0.10829512615E+03  0.12005813982E+03  0.00000000000E+00 0.  1.
        -13    1    4    4    0    0  0.21422071481E+02  0.50733613496E+02  0.25822219926E+02  0.60824269226E+02  0.00000000000E+00 0.  1.
         13    1    4    4    0    0  0.29994210689E+02 -0.23902554451E+02 -0.28368905145E+02  0.47705131415E+02  0.00000000000E+00 0. -1.
         21    1    1    2  502  501 -0.73241462954E+02 -0.28879309485E+02 -0.18156674283E+03  0.19790100685E+03  0.00000000000E+00 0. -1.
<scales pt_clust_5="13000.00000" pt_clust_6="13000.00000" pt_clust_7="13000.00000" pt_clust_8="13000.00000" pt_clust_9="78.72945"></scales>
<clustering>
<clus scale="   78.729">  2  9  1 -1</clus>
<clus scale="   81.402">  5  6 -1 -1</clus>
<clus scale="   82.253">  1  5  2 -1</clus>
<clus scale="   91.698">  7  8 -1 -1</clus>
<clus scale="   78.729">  2  5  1 -1</clus>
</clustering>
</event>
<event>
 9    1  0.1973774E-005  0.3137853E+03  0.7546771E-02  0.1078951E+00
         -2   -1    0    0    0  501 -0.00000000000E+00  0.00000000000E+00  0.21088362795E+03  0.21088362795E+03  0.00000000000E+00 0.  1.
          1   -1    0    0  502    0  0.00000000000E+00 -0.00000000000E+00 -0.11942757838E+04  0.11942757838E+04  0.00000000000E+00 0. -1.
        -24    2    1    2    0    0  0.64306242415E+02 -0.29519114465E+03  0.55986795901E+02  0.31755309114E+03  0.80201868352E+02 0.  0.
         23    2    1    2    0    0 -0.49644006116E+02  0.27804716772E+03 -0.98024666097E+03  0.10243171041E+04  0.92559486319E+02 0.  0.
         13    1    3    3    0    0  0.87719450728E+00 -0.11176807246E+03 -0.10825060132E+02  0.11229449416E+03  0.00000000000E+00 0. -1.
        -14    1    3    3    0    0  0.63429047907E+02 -0.18342307219E+03  0.66811856033E+02  0.20525859699E+03  0.00000000000E+00 0.  1.
        -13    1    4    4    0    0 -0.33317691425E+02  0.11290627531E+03 -0.56512120200E+03  0.57725199741E+03  0.00000000000E+00 0. -1.
         13    1    4    4    0    0 -0.16326314691E+02  0.16514089241E+03 -0.41512545897E+03  0.44706510665E+03  0.00000000000E+00 0.  1.
         21    1    1    2  502  501 -0.14662236298E+02  0.17143976924E+02 -0.59132290831E+02  0.63289216593E+02  0.00000000000E+00 0. -1.
<scales pt_clust_5="13000.00000" pt_clust_6="13000.00000" pt_clust_7="13000.00000" pt_clust_8="13000.00000" pt_clust_9="22.55875"></scales>
<clustering>
<clus scale="   22.559">  2  9  1 -1</clus>
<clus scale="   80.202">  5  6 -1 -1</clus>
<clus scale="   92.559">  7  8 -1 -1</clus>
<clus scale="  310.365">  1  5  2 -1</clus>
<clus scale="   22.559">  2  5  1 -1</clus>
</clustering>
</event>
<event>
 9    1  0.1973774E-005  0.1134615E+03  0.7546771E-02  0.1258655E+00
         -2   -1    0    0    0  501 -0.00000000000E+00  0.00000000000E+00  0.18899434056E+03  0.18899434056E+03  0.00000000000E+00 0.  1.
          1   -1    0    0  502    0  0.00000000000E+00 -0.00000000000E+00 -0.31611524167E+03  0.31611524167E+03  0.00000000000E+00 0. -1.
         23    2    1    2    0    0 -0.65315231307E+02  0.36331477209E+02  0.14744698729E+03  0.18955037343E+03  0.92750602853E+02 0.  0.
        -24    2    1    2    0    0 -0.13795939798E+00 -0.12724792925E+01 -0.13413724754E+03  0.15670701837E+03  0.81010185734E+02 0.  0.
         13    1    4    4    0    0  0.29518677377E+02 -0.11680486337E+01 -0.12049386020E+03  0.12406243186E+03  0.00000000000E+00 0. -1.
        -14    1    4    4    0    0 -0.29656636775E+02 -0.10443065879E+00 -0.13643387336E+02  0.32644586513E+02  0.00000000000E+00 0.  1.
        -11    1    3    3    0    0 -0.84542828248E+02  0.47337068123E+02  0.11744720143E+03  0.15225679936E+03  0.00000000000E+00 0.  1.
         11    1    3    3    0    0  0.19227596941E+02 -0.11005590914E+02  0.29999785862E+02  0.37293574074E+02  0.00000000000E+00 0. -1.
         21    1    1    2  502  501  0.65453190705E+02 -0.35058997917E+02 -0.14043064087E+03  0.15885219042E+03  0.00000000000E+00 0. -1.
<scales pt_clust_5="13000.00000" pt_clust_6="13000.00000" pt_clust_7="13000.00000" pt_clust_8="13000.00000" pt_clust_9="74.25129"></scales>
<clustering>
<clus scale="   74.251">  2  9  1 -1</clus>
<clus scale="   81.010">  5  6 -1 -1</clus>
<clus scale="   92.751">  7  8 -1 -1</clus>
<clus scale="  104.084">  2  5  1 -1</clus>
<clus scale="   74.251">  2  5  1 -1</clus>
</clustering>
</event>
<event>
 9    1  0.1973774E-005  0.1121873E+03  0.7546771E-02  0.1261919E+00
          1   -1    0    0  502    0  0.00000000000E+00  0.00000000000E+00  0.16528110919E+03  0.16528110919E+03  0.00000000000E+00 0. -1.
         -2   -1    0    0    0  501 -0.00000000000E+00 -0.00000000000E+00 -0.11296992119E+03  0.11296992119E+03  0.00000000000E+00 0.  1.
         23    2    1    2    0    0  0.55083399646E+01 -0.63425570298E+02 -0.21329397492E+02  0.11335997017E+03  0.91336711468E+02 0.  0.
        -24    2    1    2    0    0 -0.44927256109E+02  0.60286093125E+02  0.58112650112E+02  0.12240783948E+03  0.77160402396E+02 0.  0.
         13    1    4    4    0    0 -0.59061738530E+02  0.29117318028E+02  0.58647763693E+02  0.88179744576E+02  0.00000000000E+00 0. -1.
        -14    1    4    4    0    0  0.14134482421E+02  0.31168775097E+02 -0.53511358111E+00  0.34228094906E+02  0.00000000000E+00 0.  1.
        -11    1    3    3    0    0 -0.19128407575E+02 -0.28836960903E+02  0.30658832170E+02  0.46232351017E+02  0.00000000000E+00 0. -1.
         11    1    3    3    0    0  0.24636747540E+02 -0.34588609395E+02 -0.51988229662E+02  0.67127619149E+02  0.00000000000E+00 0.  1.
         21    1    1    2  502  501  0.39418916145E+02  0.31394771734E+01  0.15527935381E+02  0.42483220736E+02  0.00000000000E+00 0.  1.
<scales pt_clust_5="13000.00000" pt_clust_6="13000.00000" pt_clust_7="13000.00000" pt_clust_8="13000.00000" pt_clust_9="39.54374"></scales>
<clustering>
<clus scale="   39.544">  1  9  2 -1</clus>
<clus scale="   77.160">  5  6 -1 -1</clus>
<clus scale="   91.337">  7  8 -1 -1</clus>
<clus scale="  100.982">  1  5  2 -1</clus>
<clus scale="   39.544">  1  5  2 -1</clus>
</clustering>
</event>
<event>
 9    1  0.1973774E-005  0.1117751E+03  0.7546771E-02  0.1266227E+00
         -2   -1    0    0    0  501 -0.00000000000E+00  0.00000000000E+00  0.11874996709E+03  0.11874996709E+03  0.00000000000E+00 0.  1.
          1   -1    0    0  502    0  0.00000000000E+00 -0.00000000000E+00 -0.13493524805E+03  0.13493524805E+03  0.00000000000E+00 0. -1.
         23    2    1    2    0    0 -0.28795909804E+02 -0.28727468373E+02  0.18833685297E+02  0.11003583602E+03  0.10049231635E+03 0.  0.
        -24    2    1    2    0    0  0.21294751807E+02  0.56905088079E+02 -0.33381577616E+01  0.10059221653E+03  0.80099907773E+02 0.  0.
         11    1    4    4    0    0  0.27742988375E+02  0.25755880592E+02  0.34459402493E+02  0.51190714092E+02  0.00000000000E+00 0. -1.
        -12    1    4    4    0    0 -0.64482365681E+01  0.31149207488E+02 -0.37797560255E+02  0.49401502438E+02  0.00000000000E+00 0.  1.
        -11    1    3    3    0    0 -0.46208142024E+02  0.81218779918E+01  0.42160168812E+02  0.63076438752E+02  0.00000000000E+00 0.  1.
         11    1    3    3    0    0  0.17412232220E+02 -0.36849346365E+02 -0.23326483515E+02  0.46959397265E+02  0.00000000000E+00 0. -1.
         21    1    1    2  502  501  0.75011579975E+01 -0.28177619707E+02 -0.31680808491E+02  0.43057162590E+02  0.00000000000E+00 0. -1.
<scales pt_clust_5="13000.00000" pt_clust_6="13000.00000" pt_clust_7="13000.00000" pt_clust_8="13000.00000" pt_clust_9="29.15897"></scales>
<clustering>
<clus scale="   29.159">  2  9  1 -1</clus>
<clus scale="   80.100">  5  6 -1 -1</clus>
<clus scale="   93.867">  2  5  1 -1</clus>
<clus scale="  100.492">  7  8 -1 -1</clus>
<clus scale="   29.159">  2  5  1 -1</clus>
</clustering>
</event>
<event>
 9    1  0.1973774E-005  0.1028228E+03  0.7546771E-02  0.1275113E+00
          1   -1    0    0  502    0  0.00000000000E+00  0.00000000000E+00  0.18540676874E+03  0.18540676874E+03  0.00000000000E+00 0. -1.
         -2   -1    0    0    0  501 -0.00000000000E+00 -0.00000000000E+00 -0.84945794262E+02  0.84945794262E+02  0.00000000000E+00 0.  1.
        -24    2    1    2    0    0  0.20033356850E+02 -0.40706077948E+02  0.27503383861E+02  0.97565050963E+02  0.81879074720E+02 0.  0.
         23    2    1    2    0    0 -0.30124855905E+01  0.74897816692E+02  0.74348537934E+02  0.13456814795E+03  0.83439339256E+02 0.  0.
         13    1    3    3    0    0  0.26945751295E+01 -0.45871530068E+02 -0.17415068324E+02  0.49140030634E+02  0.00000000000E+00 0. -1.
        -14    1    3    3    0    0  0.17338781720E+02  0.51654521203E+01  0.44918452185E+02  0.48425020329E+02  0.00000000000E+00 0.  1.
        -13    1    4    4    0    0  0.35388353371E+02  0.46943512920E+02  0.62107120901E+02  0.85517971363E+02  0.00000000000E+00 0.  1.
         13    1    4    4    0    0 -0.38400838961E+02  0.27954303772E+02  0.12241417034E+02  0.49050176588E+02  0.00000000000E+00 0. -1.
         21    1    1    2  502  501 -0.17020871259E+02 -0.34191738744E+02 -0.13909473187E+01  0.38219364087E+02  0.00000000000E+00 0. -1.
<scales pt_clust_5="13000.00000" pt_clust_6="13000.00000" pt_clust_7="13000.00000" pt_clust_8="13000.00000" pt_clust_9="38.19404"></scales>
<clustering>
<clus scale="   38.194">  2  9  1 -1</clus>
<clus scale="   81.879">  5  6 -1 -1</clus>
<clus scale="   83.439">  7  8 -1 -1</clus>
<clus scale="  101.561">  2  5  1 -1</clus>
<clus scale="  102.823">  1  5  2 -1</clus>
</clustering>
</event>
<event>
 9    1  0.1973774E-005  0.1399323E+03  0.7546771E-02  0.1236097E+00
         -2   -1    0    0    0  501 -0.00000000000E+00  0.00000000000E+00  0.94610511776E+02  0.94610511776E+02  0.00000000000E+00 0.  1.
          1   -1    0    0  502    0  0.00000000000E+00 -0.00000000000E+00 -0.34031237231E+03  0.34031237231E+03  0.00000000000E+00 0. -1.
        -24    2    1    2    0    0 -0.57825902803E+02  0.72506619054E+02 -0.13914758294E+02  0.14126170096E+03  0.10564186110E+03 0.  0.
         23    2    1    2    0    0 -0.32622472678E+01 -0.57550070830E+01 -0.13857504827E+03  0.16375342052E+03  0.86996415821E+02 0.  0.
         13    1    3    3    0    0 -0.55905653901E+02 -0.10449302910E+02  0.13565903349E+01  0.56889985119E+02  0.00000000000E+00 0. -1.
        -14    1    3    3    0    0 -0.19202489013E+01  0.82955921964E+02 -0.15271348629E+02  0.84371715840E+02  0.00000000000E+00 0.  1.
        -13    1    4    4    0    0  0.31685448400E+02  0.23153818726E+02 -0.84555178908E+02  0.93218266676E+02  0.00000000000E+00 0.  1.
         13    1    4    4    0    0 -0.34947695668E+02 -0.28908825809E+02 -0.54019869361E+02  0.70535153845E+02  0.00000000000E+00 0. -1.
         21    1    1    2  502  501  0.61088150070E+02 -0.66751611971E+02 -0.93212053968E+02  0.12990776260E+03  0.00000000000E+00 0. -1.
<scales pt_clust_5="13000.00000" pt_clust_6="13000.00000" pt_clust_7="13000.00000" pt_clust_8="13000.00000" pt_clust_9="91.76512"></scales>
<clustering>
<clus scale="   86.996">  7  8 -1 -1</clus>
<clus scale="   87.248">  2  7  1 -1</clus>
<clus scale="   91.765">  2  9  1 -1</clus>
<clus scale="  105.642">  5  6 -1 -1</clus>
<clus scale="   87.248">  2  5  1 -1</clus>
</clustering>
</event>
<event>
 9    1  0.1973774E-005  0.1049708E+03  0.7546771E-02  0.1275396E+00
         -2   -1    0    0    0  501 -0.00000000000E+00  0.00000000000E+00  0.21439446240E+03  0.21439446240E+03  0.00000000000E+00 0.  1.
          1   -1    0    0  502    0  0.00000000000E+00 -0.00000000000E+00 -0.25424141819E+03  0.25424141819E+03  0.00000000000E+00 0. -1.
        -24    2    1    2    0    0  0.39287624962E+02  0.28096691014E+02  0.17437001067E+03  0.19803088379E+03  0.80488438887E+02 0.  0.
         23    2    1    2    0    0 -0.69658602296E+02 -0.29220529439E+02 -0.11034489992E+03  0.16237808015E+03  0.92111257518E+02 0.  0.
         13    1    3    3    0    0  0.63976905205E+00  0.49580899980E+02  0.88468581958E+02  0.10141678826E+03  0.00000000000E+00 0. -1.
        -14    1    3    3    0    0  0.38647855910E+02 -0.21484208966E+02  0.85901428710E+02  0.96614095533E+02  0.00000000000E+00 0.  1.
        -13    1    4    4    0    0 -0.22219839415E+02  0.13233989198E+02  0.87777483956E+01  0.27311327332E+02  0.00000000000E+00 0.  1.
         13    1    4    4    0    0 -0.47438762881E+02 -0.42454518637E+02 -0.11912264831E+03  0.13506675282E+03  0.00000000000E+00 0. -1.
         21    1    1    2  502  501  0.30370977334E+02  0.11238384254E+01 -0.10387206655E+03  0.10822691664E+03  0.00000000000E+00 0. -1.
<scales pt_clust_5="13000.00000" pt_clust_6="13000.00000" pt_clust_7="13000.00000" pt_clust_8="13000.00000" pt_clust_9="30.39176"></scales>
<clustering>
<clus scale="   30.392">  2  9  1 -1</clus>
<clus scale="   80.488">  5  6 -1 -1</clus>
<clus scale="   92.111">  7  8 -1 -1</clus>
<clus scale="   94.936">  1  5  2 -1</clus>
<clus scale="   30.392">  2  5  1 -1</clus>
</clustering>
</event>
<event>
 9    1  0.1973774E-005  0.8657350E+02  0.7546771E-02  0.1311521E+00
         -2   -1    0    0    0  501 -0.00000000000E+00  0.00000000000E+00  0.12182100611E+03  0.12182100611E+03  0.00000000000E+00 0.  1.
          1   -1    0    0  502    0  0.00000000000E+00 -0.00000000000E+00 -0.37312517522E+03  0.37312517522E+03  0.00000000000E+00 0. -1.
        -24    2    1    2    0    0  0.52524636386E+02  0.55432551868E+02  0.29353881517E+02  0.11523835649E+03  0.81158013858E+02 0.  0.
         23    2    1    2    0    0  0.10524192712E+02  0.35459859852E+01 -0.28013954094E+03  0.29337190166E+03  0.86403574217E+02 0.  0.
         11    1    3    3    0    0  0.52060675980E+02 -0.35157729155E+01  0.95166540660E+01  0.53039997618E+02  0.00000000000E+00 0. -1.
        -12    1    3    3    0    0  0.46396040642E+00  0.58948324783E+02  0.19837227451E+02  0.62198358877E+02  0.00000000000E+00 0.  1.
        -13    1    4    4    0    0  0.44640061955E+02 -0.10904053080E+02 -0.10940729201E+03  0.11866587146E+03  0.00000000000E+00 0. -1.
         13    1    4    4    0    0 -0.34115869243E+02  0.14450039065E+02 -0.17073224893E+03  0.17470603020E+03  0.00000000000E+00 0.  1.
         21    1    1    2  502  501 -0.63048829099E+02 -0.58978537853E+02 -0.51850969699E+00  0.86335923174E+02  0.00000000000E+00 0. -1.
<scales pt_clust_5="13000.00000" pt_clust_6="13000.00000" pt_clust_7="13000.00000" pt_clust_8="13000.00000" pt_clust_9="86.33437"></scales>
<clustering>
<clus scale="   81.158">  5  6 -1 -1</clus>
<clus scale="   86.334">  1  9  2 -1</clus>
<clus scale="   86.334">  1  5  2 -1</clus>
<clus scale="   86.404">  7  8 -1 -1</clus>
<clus scale="   86.574">  2  5  1 -1</clus>
</clustering>
</event>
<event>
 9    1  0.1973774E-005  0.1156709E+03  0.7546771E-02  0.1254608E+00
         -2   -1    0    0    0  501 -0.00000000000E+00  0.00000000000E+00  0.13837854321E+03  0.13837854321E+03  0.00000000000E+00 0.  1.
          1   -1    0    0  502    0  0.00000000000E+00 -0.00000000000E+00 -0.15300242131E+03  0.15300242131E+03  0.00000000000E+00 0. -1.
        -24    2    1    2    0    0 -0.61929652161E+02  0.49755354418E+02  0.37809189831E+02  0.11946686317E+03  0.80820291075E+02 0.  0.
         23    2    1    2    0    0  0.52404167131E+02 -0.23165739722E+02  0.37640904273E+01  0.10901844901E+03  0.92671493024E+02 0.  0.
         11    1    3    3    0    0 -0.11946444179E+02  0.23277485843E+02 -0.24126090791E+02  0.35589705430E+02  0.00000000000E+00 0. -1.
        -12    1    3    3    0    0 -0.49983207982E+02  0.26477868575E+02  0.61935280623E+02  0.83877157738E+02  0.00000000000E+00 0.  1.
        -13    1    4    4    0    0  0.18529511621E+02 -0.57335547504E+02 -0.35054174822E+01  0.60357234531E+02  0.00000000000E+00 0.  1.
         13    1    4    4    0    0  0.33874655510E+02  0.34169807782E+02  0.72695079095E+01  0.48661214483E+02  0.00000000000E+00 0. -1.
         21    1    1    2  502  501  0.95254850303E+01 -0.26589614696E+02 -0.56197158358E+02  0.62895652331E+02  0.00000000000E+00 0.  1.
<scales pt_clust_5="13000.00000" pt_clust_6="13000.00000" pt_clust_7="13000.00000" pt_clust_8="13000.00000" pt_clust_9="28.24434"></scales>
<clustering>
<clus scale="   28.244">  2  9  1 -1</clus>
<clus scale="   80.820">  5  6 -1 -1</clus>
<clus scale="   92.671">  7  8 -1 -1</clus>
<clus scale="  106.413">  1  5  2 -1</clus>
<clus scale="   28.244">  2  5  1 -1</clus>
</clustering>
</event>
<event>
 9    1  0.1973774E-005  0.1812019E+03  0.7546771E-02  0.1168942E+00
          1   -1    0    0  502    0  0.00000000000E+00  0.00000000000E+00  0.17251438517E+03  0.17251438517E+03  0.00000000000E+00 0. -1.
         -2   -1    0    0    0  501 -0.00000000000E+00 -0.00000000000E+00 -0.44723594803E+03  0.44723594803E+03  0.00000000000E+00 0.  1.
         23    2    1    2    0    0 -0.12330807086E+03  0.88220382642E+02 -0.34207826903E+03  0.38620680860E+03  0.95657935444E+02 0.  0.
        -24    2    1    2    0    0  0.11606973972E+03 -0.12422432682E+03  0.61595610954E+02  0.19637004411E+03  0.76572234412E+02 0.  0.
         13    1    4    4    0    0  0.60338260731E+02 -0.97225704771E+02  0.69594459364E+02  0.13392883241E+03  0.00000000000E+00 0. -1.
        -14    1    4    4    0    0  0.55731478988E+02 -0.26998622045E+02 -0.79988484106E+01  0.62441211699E+02  0.00000000000E+00 0.  1.
        -13    1    3    3    0    0 -0.13020742365E+03  0.49019926150E+02 -0.25574319753E+03  0.29113829946E+03  0.00000000000E+00 0.  1.
         13    1    3    3    0    0  0.68993527875E+01  0.39200456492E+02 -0.86335071506E+02  0.95068509139E+02  0.00000000000E+00 0. -1.
         21    1    1    2  502  501  0.72383311421E+01  0.36003944175E+02  0.57610952238E+01  0.37173480494E+02  0.00000000000E+00 0.  1.
<scales pt_clust_5="13000.00000" pt_clust_6="13000.00000" pt_clust_7="13000.00000" pt_clust_8="13000.00000" pt_clust_9="36.72434"></scales>
<clustering>
<clus scale="   36.724">  1  9  2 -1</clus>
<clus scale="   76.572">  5  6 -1 -1</clus>
<clus scale="   95.658">  7  8 -1 -1</clus>
<clus scale="  171.892">  1  5  2 -1</clus>
<clus scale="   36.724">  1  5  2 -1</clus>
</clustering>
</event>
<event>
 9    1  0.1973774E-005  0.2205137E+03  0.7546771E-02  0.1135119E+00
         -2   -1    0    0    0  501 -0.00000000000E+00  0.00000000000E+00  0.17985824582E+03  0.17985824582E+03  0.00000000000E+00 0.  1.
          1   -1    0    0  502    0  0.00000000000E+00 -0.00000000000E+00 -0.32031730932E+03  0.32031730932E+03  0.00000000000E+00 0. -1.
         23    2    1    2    0    0 -0.20290835617E+03  0.55191070803E+02  0.14135114695E+02  0.22942473934E+03  0.90653484510E+02 0.  0.
        -24    2    1    2    0    0  0.17816167291E+03 -0.48524492741E+02 -0.13943659653E+03  0.24097508948E+03  0.67306917992E+02 0.  0.
         13    1    4    4    0    0  0.81277520829E+02 -0.34558724618E+02 -0.10500748428E+03  0.13721119704E+03  0.00000000000E+00 0. -1.
        -14    1    4    4    0    0  0.96884152083E+02 -0.13965768123E+02 -0.34429112249E+02  0.10376389244E+03  0.00000000000E+00 0.  1.
        -13    1    3    3    0    0 -0.15953419946E+03  0.73770719285E+02  0.32585327796E+02  0.17875984842E+03  0.00000000000E+00 0.  1.
         13    1    3    3    0    0 -0.43374156714E+02 -0.18579648482E+02 -0.18450213101E+02  0.50664890919E+02  0.00000000000E+00 0. -1.
         21    1    1    2  502  501  0.24746683259E+02 -0.66665780616E+01 -0.15157581665E+02  0.29775726310E+02  0.00000000000E+00 0.  1.
<scales pt_clust_5="13000.00000" pt_clust_6="13000.00000" pt_clust_7="13000.00000" pt_clust_8="13000.00000" pt_clust_9="25.62892"></scales>
<clustering>
<clus scale="   25.629">  2  9  1 -1</clus>
<clus scale="   67.307">  5  6 -1 -1</clus>
<clus scale="   90.653">  7  8 -1 -1</clus>
<clus scale="  211.987">  2  5  1 -1</clus>
<clus scale="   25.629">  2  5  1 -1</clus>
</clustering>
</event>
<event>
 9    1  0.1973774E-005  0.9392356E+02  0.7546771E-02  0.1298009E+00
          1   -1    0    0  502    0  0.00000000000E+00  0.00000000000E+00  0.64625302832E+03  0.64625302832E+03  0.00000000000E+00 0. -1.
         -2   -1    0    0    0  501 -0.00000000000E+00 -0.00000000000E+00 -0.30774511910E+02  0.30774511910E+02  0.00000000000E+00 0.  1.
        -24    2    1    2    0    0  0.23403857368E+02 -0.12340092876E+01  0.57714846683E+02  0.10375765587E+03  0.82978215846E+02 0.  0.
         23    2    1    2    0    0 -0.30223716669E+02 -0.29867963155E+02  0.44344697293E+03  0.45460164793E+03  0.90619381092E+02 0.  0.
         11    1    3    3    0    0  0.18477484866E+02 -0.24918695857E+02 -0.94009556059E+01  0.32415070824E+02  0.00000000000E+00 0. -1.
        -12    1    3    3    0    0  0.49263725013E+01  0.23684686570E+02  0.67115802289E+02  0.71342585044E+02  0.00000000000E+00 0.  1.
        -13    1    4    4    0    0 -0.34507632257E+02  0.25542763291E+02  0.23404323412E+03  0.23794840802E+03  0.00000000000E+00 0.  1.
         13    1    4    4    0    0  0.42839155875E+01 -0.55410726446E+02  0.20940373881E+03  0.21665323991E+03  0.00000000000E+00 0. -1.
         21    1    1    2  502  501  0.68198593017E+01  0.31101972443E+02  0.11431669680E+03  0.11866823643E+03  0.00000000000E+00 0. -1.
<scales pt_clust_5="13000.00000" pt_clust_6="13000.00000" pt_clust_7="13000.00000" pt_clust_8="13000.00000" pt_clust_9="31.84090"></scales>
<clustering>
<clus scale="   31.841">  1  9  2 -1</clus>
<clus scale="   82.978">  5  6 -1 -1</clus>
<clus scale="   86.575">  2  5  1 -1</clus>
<clus scale="   90.619">  7  8 -1 -1</clus>
<clus scale="   31.841">  1  5  2 -1</clus>
</clustering>
</event>
<event>
 9    1  0.1973774E-005  0.1505070E+03  0.7546771E-02  0.1208007E+00
          1   -1    0    0  502    0  0.00000000000E+00  0.00000000000E+00  0.51831841775E+03  0.51831841775E+03  0.00000000000E+00 0. -1.
         -2   -1    0    0    0  501 -0.00000000000E+00 -0.00000000000E+00 -0.16319106144E+03  0.16319106144E+03  0.00000000000E+00 0.  1.
         23    2    1    2    0    0  0.78395455817E+02 -0.98155606516E+02 -0.80066795895E+02  0.17345149392E+03  0.88850201770E+02 0.  0.
        -24    2    1    2    0    0  0.49573977221E+02  0.84153507147E+02  0.15642262564E+03  0.20099805854E+03  0.79954923188E+02 0.  0.
         11    1    4    4    0    0  0.26975240513E+02  0.66567495330E+02  0.15668335794E+03  0.17236174080E+03  0.00000000000E+00 0. -1.
        -12    1    4    4    0    0  0.22598736708E+02  0.17586011817E+02 -0.26073230212E+00  0.28636317741E+02  0.00000000000E+00 0.  1.
        -11    1    3    3    0    0  0.55190180834E+02 -0.76673347619E+01 -0.98403342270E+01  0.56582473086E+02  0.00000000000E+00 0. -1.
         11    1    3    3    0    0  0.23205274983E+02 -0.90488271754E+02 -0.70226461668E+02  0.11686902083E+03  0.00000000000E+00 0.  1.
         21    1    1    2  502  501 -0.12796943304E+03  0.14002099369E+02  0.27877152657E+03  0.30705992674E+03  0.00000000000E+00 0.  1.
<scales pt_clust_5="13000.00000" pt_clust_6="13000.00000" pt_clust_7="13000.00000" pt_clust_8="13000.00000" pt_clust_9="121.48254"></scales>
<clustering>
<clus scale="   79.955">  5  6 -1 -1</clus>
<clus scale="   88.850">  7  8 -1 -1</clus>
<clus scale="  126.223">  1  5  2 -1</clus>
<clus scale="  121.483">  1  9  2 -1</clus>
<clus scale="  126.223">  1  5  2 -1</clus>
</clustering>
</event>
<event>
 9    1  0.1973774E-005  0.1166331E+03  0.7546771E-02  0.1249173E+00
          1   -1    0    0  502    0  0.00000000000E+00  0.00000000000E+00  0.42606427542E+03  0.42606427542E+03  0.00000000000E+00 0. -1.
         -2   -1    0    0    0  501 -0.00000000000E+00 -0.00000000000E+00 -0.16949329920E+03  0.16949329920E+03  0.00000000000E+00 0.  1.
         23    2    1    2    0    0 -0.26732389113E+02 -0.70678865842E+02 -0.44584095081E+02  0.12592740615E+03  0.90331873558E+02 0.  0.
        -24    2    1    2    0    0 -0.88889885366E+02  0.73854577921E+02 -0.60415465274E+01  0.14137971911E+03  0.81214618700E+02 0.  0.
         11    1    4    4    0    0 -0.26240503149E+02  0.21022739192E+02 -0.40361396032E+02  0.52531532039E+02  0.00000000000E+00 0. -1.
        -12    1    4    4    0    0 -0.62649382217E+02  0.52831838729E+02  0.34319849505E+02  0.88848187070E+02  0.00000000000E+00 0.  1.
        -13    1    3    3    0    0 -0.32346542041E+02 -0.14778439810E+02 -0.58121169465E+02  0.68137885242E+02  0.00000000000E+00 0.  1.
         13    1    3    3    0    0  0.56141529285E+01 -0.55900426032E+02  0.13537074384E+02  0.57789520906E+02  0.00000000000E+00 0. -1.
         21    1    1    2  502  501  0.11562227448E+03 -0.31757120791E+01  0.30719661783E+03  0.32825044936E+03  0.00000000000E+00 0. -1.
<scales pt_clust_5="13000.00000" pt_clust_6="13000.00000" pt_clust_7="13000.00000" pt_clust_8="13000.00000" pt_clust_9="115.66588"></scales>
<clustering>
<clus scale="   81.215">  5  6 -1 -1</clus>
<clus scale="   90.332">  7  8 -1 -1</clus>
<clus scale="  115.666">  1  9  2 -1</clus>
<clus scale="  115.666">  1  5  2 -1</clus>
<clus scale="  115.666">  1  5  2 -1</clus>
</clustering>
</event>
<event>
 9    1  0.1973774E-005  0.1126846E+03  0.7546771E-02  0.1259547E+00
         -2   -1    0    0    0  501 -0.00000000000E+00  0.00000000000E+00  0.14564766141E+03  0.14564766141E+03  0.00000000000E+00 0.  1.
          1   -1    0    0  502    0  0.00000000000E+00 -0.00000000000E+00 -0.18935977309E+03  0.18935977309E+03  0.00000000000E+00 0. -1.
        -24    2    1    2    0    0  0.67848006774E+02  0.46984252110E+02  0.77195249685E+02  0.13838474738E+03  0.79877154210E+02 0.  0.
         23    2    1    2    0    0 -0.23370793148E+02 -0.52518012480E+01 -0.65316708279E+02  0.11409911049E+03  0.90435387136E+02 0.  0.
         11    1    3    3    0    0  0.46309417026E+02  0.27707834685E+02 -0.20786187702E+01  0.54005618821E+02  0.00000000000E+00 0. -1.
        -12    1    3    3    0    0  0.21538589748E+02  0.19276417425E+02  0.79273868455E+02  0.84379128562E+02  0.00000000000E+00 0.  1.
        -13    1    4    4    0    0 -0.20661164970E+02 -0.45282581513E+02 -0.20182908637E+02  0.53709828965E+02  0.00000000000E+00 0. -1.
         13    1    4    4    0    0 -0.27096281781E+01  0.40030780265E+02 -0.45133799642E+02  0.60389281529E+02  0.00000000000E+00 0.  1.
         21    1    1    2  502  501 -0.44477213626E+02 -0.41732450862E+02 -0.55590653093E+02  0.82523576620E+02  0.00000000000E+00 0. -1.
<scales pt_clust_5="13000.00000" pt_clust_6="13000.00000" pt_clust_7="13000.00000" pt_clust_8="13000.00000" pt_clust_9="60.99033"></scales>
<clustering>
<clus scale="   60.990">  2  9  1 -1</clus>
<clus scale="   79.877">  5  6 -1 -1</clus>
<clus scale="   90.435">  7  8 -1 -1</clus>
<clus scale="  104.401">  1  5  2 -1</clus>
<clus scale="   60.990">  2  5  1 -1</clus>
</clustering>
</event>
<event>
 9    1  0.1973774E-005  0.1105976E+03  0.7546771E-02  0.1263713E+00
          1   -1    0    0  502    0  0.00000000000E+00  0.00000000000E+00  0.11403175574E+03  0.11403175574E+03  0.00000000000E+00 0. -1.
         -2   -1    0    0    0  501 -0.00000000000E+00 -0.00000000000E+00 -0.28584508866E+03  0.28584508866E+03  0.00000000000E+00 0.  1.
         23    2    1    2    0    0 -0.52849866560E+02  0.32932642800E+02 -0.22838296942E+03  0.25340767577E+03  0.90437835329E+02 0.  0.
        -24    2    1    2    0    0  0.50227409805E+02 -0.57149231609E+02  0.52192792415E+02  0.12172089158E+03  0.79391816319E+02 0.  0.
         13    1    4    4    0    0  0.60872657849E+02 -0.61797216248E+02  0.61915179384E+02  0.10657328862E+03  0.00000000000E+00 0. -1.
        -14    1    4    4    0    0 -0.10645248044E+02  0.46479846386E+01 -0.97223869682E+01  0.15147602961E+02  0.00000000000E+00 0.  1.
        -13    1    3    3    0    0 -0.73893589858E+02  0.43681920119E+02 -0.18682122983E+03  0.20559801721E+03  0.00000000000E+00 0.  1.
         13    1    3    3    0    0  0.21043723298E+02 -0.10749277319E+02 -0.41561739593E+02  0.47809658555E+02  0.00000000000E+00 0. -1.
         21    1    1    2  502  501  0.26224567551E+01  0.24216588809E+02  0.43768440828E+01  0.24748277053E+02  0.00000000000E+00 0.  1.
<scales pt_clust_5="13000.00000" pt_clust_6="13000.00000" pt_clust_7="13000.00000" pt_clust_8="13000.00000" pt_clust_9="24.35817"></scales>
<clustering>
<clus scale="   24.358">  1  9  2 -1</clus>
<clus scale="   79.392">  5  6 -1 -1</clus>
<clus scale="   90.438">  7  8 -1 -1</clus>
<clus scale="  101.764">  1  5  2 -1</clus>
<clus scale="   24.358">  1  5  2 -1</clus>
</clustering>
</event>
<event>
 9    1  0.1973774E-005  0.1185139E+03  0.7546771E-02  0.1249078E+00
          1   -1    0    0  502    0  0.00000000000E+00  0.00000000000E+00  0.43520074044E+03  0.43520074044E+03  0.00000000000E+00 0. -1.
         -2   -1    0    0    0  501 -0.00000000000E+00 -0.00000000000E+00 -0.44380319316E+02  0.44380319316E+02  0.00000000000E+00 0.  1.
         23    2    1    2    0    0  0.50347495998E+02  0.66882455293E+02  0.81909969495E+02  0.14751123805E+03  0.89678253040E+02 0.  0.
        -24    2    1    2    0    0 -0.35651581123E+02 -0.51877032793E+02  0.25883476678E+03  0.27776782514E+03  0.78722718575E+02 0.  0.
         11    1    4    4    0    0 -0.41190810993E+02 -0.68459980596E+02  0.23498339036E+03  0.24819477351E+03  0.00000000000E+00 0. -1.
        -12    1    4    4    0    0  0.55392298698E+01  0.16582947803E+02  0.23851376423E+02  0.29573051630E+02  0.00000000000E+00 0.  1.
        -11    1    3    3    0    0  0.29340759031E+02  0.35245977577E+02  0.96489220249E+02  0.10683318164E+03  0.00000000000E+00 0. -1.
         11    1    3    3    0    0  0.21006736967E+02  0.31636477716E+02 -0.14579250753E+02  0.40678056404E+02  0.00000000000E+00 0.  1.
         21    1    1    2  502  501 -0.14695914875E+02 -0.15005422500E+02  0.50075684845E+02  0.54301996566E+02  0.00000000000E+00 0.  1.
<scales pt_clust_5="13000.00000" pt_clust_6="13000.00000" pt_clust_7="13000.00000" pt_clust_8="13000.00000" pt_clust_9="21.00316"></scales>
<clustering>
<clus scale="   21.003">  1  9  2 -1</clus>
<clus scale="   78.723">  5  6 -1 -1</clus>
<clus scale="   89.678">  7  8 -1 -1</clus>
<clus scale="  110.456">  1  5  2 -1</clus>
<clus scale="   21.003">  1  5  2 -1</clus>
</clustering>
</event>
<event>
 9    1  0.1973774E-005  0.1551419E+03  0.7546771E-02  0.1195729E+00
          3   -1    0    0  502    0  0.00000000000E+00  0.00000000000E+00  0.31261298654E+02  0.31261298654E+02  0.00000000000E+00 0. -1.
         -4   -1    0    0    0  501 -0.00000000000E+00 -0.00000000000E+00 -0.14778229154E+04  0.14778229154E+04  0.00000000000E+00 0.  1.
        -24    2    1    2    0    0 -0.11715742277E+03  0.57535729327E+02 -0.12095170342E+04  0.12192502007E+04  0.81261147242E+02 0.  0.
         23    2    1    2    0    0  0.91456615001E+02 -0.58758178218E+02 -0.20217226696E+03  0.24649691266E+03  0.89834661962E+02 0.  0.
         11    1    3    3    0    0 -0.84413047487E+02  0.13536884251E+02 -0.47074187015E+03  0.47844196945E+03  0.00000000000E+00 0. -1.
        -12    1    3    3    0    0 -0.32744375281E+02  0.43998845077E+02 -0.73877516408E+03  0.74080823128E+03  0.00000000000E+00 0.  1.
        -11    1    4    4    0    0  0.38123406484E+02 -0.51353231671E+02 -0.39563621957E+02  0.75205243882E+02  0.00000000000E+00 0. -1.
         11    1    4    4    0    0  0.53333208516E+02 -0.74049465464E+01 -0.16260864500E+03  0.17129166878E+03  0.00000000000E+00 0.  1.
         21    1    1    2  502  501  0.25700807768E+02  0.12224488904E+01 -0.34872315591E+02  0.43337100686E+02  0.00000000000E+00 0.  1.
<scales pt_clust_5="13000.00000" pt_clust_6="13000.00000" pt_clust_7="13000.00000" pt_clust_8="13000.00000" pt_clust_9="25.72986"></scales>
<clustering>
<clus scale="   25.730">  1  9  2 -1</clus>
<clus scale="   81.261">  5  6 -1 -1</clus>
<clus scale="   89.835">  7  8 -1 -1</clus>
<clus scale="  150.340">  2  5  1 -1</clus>
<clus scale="   25.730">  1  5  2 -1</clus>
</clustering>
</event>
<event>
 9    1  0.1973774E-005  0.1050504E+03  0.7546771E-02  0.1273512E+00
         -2   -1    0    0    0  501 -0.00000000000E+00  0.00000000000E+00  0.53942870299E+03  0.53942870299E+03  0.00000000000E+00 0.  1.
          1   -1    0    0  502    0  0.00000000000E+00 -0.00000000000E+00 -0.55860459450E+02  0.55860459450E+02  0.00000000000E+00 0. -1.
        -24    2    1    2    0    0  0.32330665101E+02 -0.46709066163E+02  0.46284743283E+03  0.47342064529E+03  0.81684469353E+02 0.  0.
         23    2    1    2    0    0 -0.25965820421E+02  0.25441436255E+02  0.10537271386E+02  0.97444598491E+02  0.89793792536E+02 0.  0.
         11    1    3    3    0    0  0.17877353016E+01 -0.50560622332E+02  0.13563654389E+03  0.14476479050E+03  0.00000000000E+00 0. -1.
        -12    1    3    3    0    0  0.30542929799E+02  0.38515561692E+01  0.32721088894E+03  0.32865585479E+03  0.00000000000E+00 0.  1.
        -13    1    4    4    0    0 -0.23724051564E+02 -0.82363368954E+01 -0.33558027659E+02  0.41914306489E+02  0.00000000000E+00 0. -1.
         13    1    4    4    0    0 -0.22417688572E+01  0.33677773150E+02  0.44095299045E+02  0.55530292002E+02  0.00000000000E+00 0.  1.
         21    1    1    2  502  501 -0.63648446796E+01  0.21267629908E+02  0.10183539314E+02  0.24423918659E+02  0.00000000000E+00 0.  1.
<scales pt_clust_5="13000.00000" pt_clust_6="13000.00000" pt_clust_7="13000.00000" pt_clust_8="13000.00000" pt_clust_9="22.19962"></scales>
<clustering>
<clus scale="   22.200">  2  9  1 -1</clus>
<clus scale="   81.684">  5  6 -1 -1</clus>
<clus scale="   89.794">  7  8 -1 -1</clus>
<clus scale="   98.209">  1  5  2 -1</clus>
<clus scale="   22.200">  2  5  1 -1</clus>
</clustering>
</event>
<event>
 9    1  0.1973774E-005  0.1079219E+03  0.7546771E-02  0.1267678E+00
         -2   -1    0    0    0  501 -0.00000000000E+00  0.00000000000E+00  0.21110823835E+03  0.21110823835E+03  0.00000000000E+00 0.  1.
          1   -1    0    0  502    0  0.00000000000E+00 -0.00000000000E+00 -0.10669698307E+03  0.10669698307E+03  0.00000000000E+00 0. -1.
        -24    2    1    2    0    0  0.69394284963E+02  0.45525440846E+01  0.14013483396E+03  0.17567423426E+03  0.79921038834E+02 0.  0.
         23    2    1    2    0    0 -0.41978738027E+02  0.10696703047E+02 -0.50771883082E+01  0.98274938604E+02  0.88065610849E+02 0.  0.
         13    1    3    3    0    0  0.28229537283E+02  0.31469945062E+02  0.21887757349E+02  0.47606072503E+02  0.00000000000E+00 0. -1.
        -14    1    3    3    0    0  0.41164747680E+02 -0.26917400977E+02  0.11824707662E+03  0.12806816175E+03  0.00000000000E+00 0.  1.
        -13    1    4    4    0    0 -0.31085640814E+02  0.28409339012E+02  0.33924229362E+02  0.54076436141E+02  0.00000000000E+00 0.  1.
         13    1    4    4    0    0 -0.10893097213E+02 -0.17712635965E+02 -0.39001417670E+02  0.44198502463E+02  0.00000000000E+00 0. -1.
         21    1    1    2  502  501 -0.27415546936E+02 -0.15249247131E+02 -0.30646390377E+02  0.43856048557E+02  0.00000000000E+00 0. -1.
<scales pt_clust_5="13000.00000" pt_clust_6="13000.00000" pt_clust_7="13000.00000" pt_clust_8="13000.00000" pt_clust_9="31.37119"></scales>
<clustering>
<clus scale="   31.371">  2  9  1 -1</clus>
<clus scale="   79.921">  5  6 -1 -1</clus>
<clus scale="   88.066">  7  8 -1 -1</clus>
<clus scale="  101.385">  1  5  2 -1</clus>
<clus scale="   31.371">  2  5  1 -1</clus>
</clustering>
</event>
<event>
 9    1  0.1973774E-005  0.1097110E+03  0.7546771E-02  0.1264210E+00
         -2   -1    0    0    0  501 -0.00000000000E+00  0.00000000000E+00  0.60283840269E+03  0.60283840269E+03  0.00000000000E+00 0.  1.
          1   -1    0    0  502    0  0.00000000000E+00 -0.00000000000E+00 -0.13612719731E+03  0.13612719731E+03  0.00000000000E+00 0. -1.
        -24    2    1    2    0    0  0.17052444692E+02 -0.62990204914E+02  0.56432430747E+03  0.57384857564E+03  0.81127750997E+02 0.  0.
         23    2    1    2    0    0  0.51124327527E+01  0.35547901769E+02 -0.82625093656E+02  0.12678945999E+03  0.89212503466E+02 0.  0.
         11    1    3    3    0    0  0.18345680943E+02  0.14150647364E+02  0.75555944330E+02  0.79028511018E+02  0.00000000000E+00 0. -1.
        -12    1    3    3    0    0 -0.12932362512E+01 -0.77140852277E+02  0.48876836314E+03  0.49482006462E+03  0.00000000000E+00 0.  1.
        -13    1    4    4    0    0 -0.21307083727E+02  0.57692269869E+02 -0.56783669076E+02  0.83706480593E+02  0.00000000000E+00 0. -1.
         13    1    4    4    0    0  0.26419516480E+02 -0.22144368100E+02 -0.25841424581E+02  0.43082979400E+02  0.00000000000E+00 0.  1.
         21    1    1    2  502  501 -0.22164877444E+02  0.27442303145E+02 -0.14988008429E+02  0.38327564372E+02  0.00000000000E+00 0. -1.
<scales pt_clust_5="13000.00000" pt_clust_6="13000.00000" pt_clust_7="13000.00000" pt_clust_8="13000.00000" pt_clust_9="35.27551"></scales>
<clustering>
<clus scale="   35.276">  2  9  1 -1</clus>
<clus scale="   81.128">  5  6 -1 -1</clus>
<clus scale="   89.213">  7  8 -1 -1</clus>
<clus scale="  103.244">  1  5  2 -1</clus>
<clus scale="   35.276">  2  5  1 -1</clus>
</clustering>
</event>
<event>
 9    1  0.1973774E-005  0.2081854E+03  0.7546771E-02  0.1170771E+00
         -4   -1    0    0    0  501 -0.00000000000E+00  0.00000000000E+00  0.29400396803E+03  0.29400396803E+03  0.00000000000E+00 0.  1.
          3   -1    0    0  502    0  0.00000000000E+00 -0.00000000000E+00 -0.53989433096E+03  0.53989433096E+03  0.00000000000E+00 0. -1.
        -24    2    1    2    0    0  0.80574448772E+02 -0.18073125521E+03  0.20979774419E+03  0.29958290442E+03  0.81109769736E+02 0.  0.
         23    2    1    2    0    0 -0.28735049839E+02  0.51522343899E+02 -0.83887293881E+02  0.13730392021E+03  0.91296404196E+02 0.  0.
         11    1    3    3    0    0 -0.16151423717E+02 -0.39119813939E+02  0.39198799040E+02  0.57686863122E+02  0.00000000000E+00 0. -1.
        -12    1    3    3    0    0  0.96725872489E+02 -0.14161144127E+03  0.17059894515E+03  0.24189604130E+03  0.00000000000E+00 0.  1.
        -11    1    4    4    0    0 -0.60080781295E+02  0.26141944245E+02 -0.36233082731E+02  0.74872810914E+02  0.00000000000E+00 0.  1.
         11    1    4    4    0    0  0.31345731456E+02  0.25380399654E+02 -0.47654211150E+02  0.62431109292E+02  0.00000000000E+00 0. -1.
         21    1    1    2  502  501 -0.51839398934E+02  0.12920891131E+03 -0.37180081325E+03  0.39701147436E+03  0.00000000000E+00 0. -1.
<scales pt_clust_5="13000.00000" pt_clust_6="13000.00000" pt_clust_7="13000.00000" pt_clust_8="13000.00000" pt_clust_9="191.73515"></scales>
<clustering>
<clus scale="   81.110">  5  6 -1 -1</clus>
<clus scale="   91.296">  7  8 -1 -1</clus>
<clus scale="  108.698">  2  7  1 -1</clus>
<clus scale="  191.735">  2  9  1 -1</clus>
<clus scale="  108.698">  2  5  1 -1</clus>
</clustering>
</event>
<event>
 9    1  0.1973774E-005  0.1185320E+03  0.7546771E-02  0.1249398E+00
         -2   -1    0    0    0  501 -0.00000000000E+00  0.00000000000E+00  0.75226076785E+02  0.75226076785E+02  0.00000000000E+00 0.  1.
          1   -1    0    0  502    0  0.00000000000E+00 -0.00000000000E+00 -0.47144596611E+03  0.47144596611E+03  0.00000000000E+00 0. -1.
        -24    2    1    2    0    0 -0.42760997968E+02  0.53935438383E+02 -0.48706796460E+01  0.10562057748E+03  0.79965295006E+02 0.  0.
         23    2    1    2    0    0  0.42846559007E+02 -0.88995608000E+02 -0.17002161630E+03  0.21696414671E+03  0.91706297970E+02 0.  0.
         13    1    3    3    0    0 -0.74705092494E+01  0.55950729583E+02 -0.28368621793E+02  0.63174926607E+02  0.00000000000E+00 0. -1.
        -14    1    3    3    0    0 -0.35290488719E+02 -0.20152911998E+01  0.23497942147E+02  0.42445650870E+02  0.00000000000E+00 0.  1.
        -11    1    4    4    0    0  0.37419677586E+02  0.62783061926E+01 -0.34973845642E+02  0.51602512325E+02  0.00000000000E+00 0.  1.
         11    1    4    4    0    0  0.54268814211E+01 -0.95273914192E+02 -0.13504777066E+03  0.16536163439E+03  0.00000000000E+00 0. -1.
         21    1    1    2  502  501 -0.85561038570E-01  0.35060169616E+02 -0.22132759338E+03  0.22408731870E+03  0.00000000000E+00 0. -1.
<scales pt_clust_5="13000.00000" pt_clust_6="13000.00000" pt_clust_7="13000.00000" pt_clust_8="13000.00000" pt_clust_9="35.06027"></scales>
<clustering>
<clus scale="   35.060">  2  9  1 -1</clus>
<clus scale="   79.965">  5  6 -1 -1</clus>
<clus scale="   91.706">  7  8 -1 -1</clus>
<clus scale="  109.701">  1  5  2 -1</clus>
<clus scale="   35.060">  2  5  1 -1</clus>
</clustering>
</event>
<event>
 9    1  0.1973774E-005  0.1448462E+03  0.7546771E-02  0.1209467E+00
         -2   -1    0    0    0  501 -0.00000000000E+00  0.00000000000E+00  0.15980435881E+03  0.15980435881E+03  0.00000000000E+00 0.  1.
          1   -1    0    0  502    0  0.00000000000E+00 -0.00000000000E+00 -0.49120655763E+03  0.49120655763E+03  0.00000000000E+00 0. -1.
         23    2    1    2    0    0 -0.10209768212E+03 -0.41368016218E+02  0.10529153635E+03  0.17793917969E+03  0.91873797031E+02 0.  0.
        -24    2    1    2    0    0  0.12662478050E+03  0.40875745614E+02 -0.39976812236E+03  0.42873978703E+03  0.79363667453E+02 0.  0.
         11    1    4    4    0    0  0.92623701247E+02  0.65010518078E+02 -0.29785344981E+03  0.31862547773E+03  0.00000000000E+00 0. -1.
        -12    1    4    4    0    0  0.34001079252E+02 -0.24134772464E+02 -0.10191467255E+03  0.11011430930E+03  0.00000000000E+00 0.  1.
        -11    1    3    3    0    0  0.19240754687E+01  0.21109953659E+02  0.23260570864E+02  0.31470404617E+02  0.00000000000E+00 0. -1.
         11    1    3    3    0    0 -0.10402175759E+03 -0.62477969876E+02  0.82030965482E+02  0.14646877507E+03  0.00000000000E+00 0.  1.
         21    1    1    2  502  501 -0.24527098375E+02  0.49227060341E+00 -0.36925612804E+02  0.44331949720E+02  0.00000000000E+00 0.  1.
<scales pt_clust_5="13000.00000" pt_clust_6="13000.00000" pt_clust_7="13000.00000" pt_clust_8="13000.00000" pt_clust_9="24.53204"></scales>
<clustering>
<clus scale="   24.532">  2  9  1 -1</clus>
<clus scale="   79.364">  5  6 -1 -1</clus>
<clus scale="   91.874">  7  8 -1 -1</clus>
<clus scale="  137.252">  2  5  1 -1</clus>
<clus scale="   24.532">  2  5  1 -1</clus>
</clustering>
</event>
<event>
 9    1  0.1973774E-005  0.1440319E+03  0.7546771E-02  0.1233633E+00
         -2   -1    0    0    0  501 -0.00000000000E+00  0.00000000000E+00  0.45879232514E+03  0.45879232514E+03  0.00000000000E+00 0.  1.
          1   -1    0    0  502    0  0.00000000000E+00 -0.00000000000E+00 -0.12057253415E+03  0.12057253415E+03  0.00000000000E+00 0. -1.
        -24    2    1    2    0    0 -0.83834178243E+01 -0.81141960635E+01  0.26220361486E+03  0.27537582984E+03  0.83336607480E+02 0.  0.
         23    2    1    2    0    0 -0.26065967500E+02  0.11118413941E+03  0.11656911658E+03  0.18799457118E+03  0.93339446831E+02 0.  0.
         13    1    3    3    0    0 -0.24096622775E+02 -0.40405284714E+02  0.12530190704E+03  0.13384245279E+03  0.00000000000E+00 0. -1.
        -14    1    3    3    0    0  0.15713204951E+02  0.32291088651E+02  0.13690170782E+03  0.14153337705E+03  0.00000000000E+00 0.  1.
        -13    1    4    4    0    0  0.22229773906E+02 -0.17084854321E+01  0.68424874495E+01  0.23321693868E+02  0.00000000000E+00 0. -1.
         13    1    4    4    0    0 -0.48295741406E+02  0.11289262484E+03  0.10972662913E+03  0.16467287731E+03  0.00000000000E+00 0.  1.
         21    1    1    2  502  501  0.34449385324E+02 -0.10306994334E+03 -0.40552940451E+02  0.11599445827E+03  0.00000000000E+00 0. -1.
<scales pt_clust_5="13000.00000" pt_clust_6="13000.00000" pt_clust_7="13000.00000" pt_clust_8="13000.00000" pt_clust_9="109.69474"></scales>
<clustering>
<clus scale="   83.337">  5  6 -1 -1</clus>
<clus scale="   84.149">  1  5  2 -1</clus>
<clus scale="   93.339">  7  8 -1 -1</clus>
<clus scale="  109.695">  2  9  1 -1</clus>
<clus scale="  109.695">  2  5  1 -1</clus>
</clustering>
</event>
<event>
 9    1  0.1973774E-005  0.1131015E+03  0.7546771E-02  0.1259675E+00
          1   -1    0    0  502    0  0.00000000000E+00  0.00000000000E+00  0.23652395503E+03  0.23652395503E+03  0.00000000000E+00 0. -1.
         -2   -1    0    0    0  501 -0.00000000000E+00 -0.00000000000E+00 -0.22025532426E+03  0.22025532426E+03  0.00000000000E+00 0.  1.
        -24    2    1    2    0    0  0.66535359428E+02  0.45693677442E+02 -0.13767137953E+03  0.17847483244E+03  0.79906137817E+02 0.  0.
         23    2    1    2    0    0 -0.42553334653E+02  0.36343514354E+02  0.71039886381E+01  0.10840431264E+03  0.92571005278E+02 0.  0.
         13    1    3    3    0    0  0.10475973569E+02  0.55143958725E+02 -0.59264441211E+02  0.81626443008E+02  0.00000000000E+00 0. -1.
        -14    1    3    3    0    0  0.56059385859E+02 -0.94502812827E+01 -0.78406938318E+02  0.96848389432E+02  0.00000000000E+00 0.  1.
        -11    1    4    4    0    0  0.15586339471E+02 -0.16124619379E+02 -0.15060442962E+02  0.27013964360E+02  0.00000000000E+00 0.  1.
         11    1    4    4    0    0 -0.58139674123E+02  0.52468133733E+02  0.22164431601E+02  0.81390348278E+02  0.00000000000E+00 0. -1.
         21    1    1    2  502  501 -0.23982024776E+02 -0.82037191796E+02  0.14683602166E+03  0.16990013422E+03  0.00000000000E+00 0. -1.
<scales pt_clust_5="13000.00000" pt_clust_6="13000.00000" pt_clust_7="13000.00000" pt_clust_8="13000.00000" pt_clust_9="85.47069"></scales>
<clustering>
<clus scale="   79.906">  5  6 -1 -1</clus>
<clus scale="   85.471">  1  9  2 -1</clus>
<clus scale="   92.571">  7  8 -1 -1</clus>
<clus scale="  102.993">  2  5  1 -1</clus>
<clus scale="   85.471">  1  5  2 -1</clus>
</clustering>
</event>
<event>
 9    1  0.1973774E-005  0.1548622E+03  0.7546771E-02  0.1196510E+00
          1   -1    0    0  502    0  0.00000000000E+00  0.00000000000E+00  0.10442324391E+03  0.10442324391E+03  0.00000000000E+00 0. -1.
         -2   -1    0    0    0  501 -0.00000000000E+00 -0.00000000000E+00 -0.69927967242E+03  0.69927967242E+03  0.00000000000E+00 0.  1.
        -24    2    1    2    0    0 -0.12294345123E+03  0.38423312159E+02 -0.57681159597E+03  0.59631457635E+03  0.79296996148E+02 0.  0.
         23    2    1    2    0    0  0.94025104014E+02 -0.63630725323E+02 -0.53908529524E+02  0.15487273044E+03  0.90497755164E+02 0.  0.
         11    1    3    3    0    0 -0.17270647171E+02  0.16976704048E+02 -0.28041758362E+02  0.37051638912E+02  0.00000000000E+00 0. -1.
        -12    1    3    3    0    0 -0.10567280406E+03  0.21446608111E+02 -0.54876983761E+03  0.55926293743E+03  0.00000000000E+00 0.  1.
        -11    1    4    4    0    0  0.47849947156E+02 -0.82437798670E+02 -0.34495860214E+02  0.10136849838E+03  0.00000000000E+00 0. -1.
         11    1    4    4    0    0  0.46175156858E+02  0.18807073347E+02 -0.19412669310E+02  0.53504232062E+02  0.00000000000E+00 0.  1.
         21    1    1    2  502  501  0.28918347213E+02  0.25207413164E+02  0.35863696980E+02  0.52515609537E+02  0.00000000000E+00 0. -1.
<scales pt_clust_5="13000.00000" pt_clust_6="13000.00000" pt_clust_7="13000.00000" pt_clust_8="13000.00000" pt_clust_9="38.36254"></scales>
<clustering>
<clus scale="   38.363">  1  9  2 -1</clus>
<clus scale="   79.297">  5  6 -1 -1</clus>
<clus scale="   90.498">  7  8 -1 -1</clus>
<clus scale="  148.595">  2  5  1 -1</clus>
<clus scale="   38.363">  1  5  2 -1</clus>
</clustering>
</event>
<event>
 9    1  0.1973774E-005  0.9284716E+02  0.7546771E-02  0.1303489E+00
          1   -1    0    0  502    0  0.00000000000E+00  0.00000000000E+00  0.27653024454E+03  0.27653024454E+03  0.00000000000E+00 0. -1.
         -2   -1    0    0    0  501 -0.00000000000E+00 -0.00000000000E+00 -0.19484500882E+03  0.19484500882E+03  0.00000000000E+00 0.  1.
        -24    2    1    2    0    0 -0.10602777899E+02  0.33836924209E+02 -0.16391002733E+03  0.18534735619E+03  0.78929012708E+02 0.  0.
         23    2    1    2    0    0  0.15828332436E+02 -0.83770403203E+01  0.24275973987E+03  0.25988306404E+03  0.91028593091E+02 0.  0.
         13    1    3    3    0    0  0.18164443559E+02 -0.18506157679E+02 -0.38200645785E+02  0.46170490795E+02  0.00000000000E+00 0. -1.
        -14    1    3    3    0    0 -0.28767221458E+02  0.52343081888E+02 -0.12570938155E+03  0.13917686539E+03  0.00000000000E+00 0.  1.
        -11    1    4    4    0    0  0.69960931285E+01 -0.39797991855E+02  0.49558439107E+02  0.63944228524E+02  0.00000000000E+00 0.  1.
         11    1    4    4    0    0  0.88322393079E+01  0.31420951535E+02  0.19320130076E+03  0.19593883551E+03  0.00000000000E+00 0. -1.
         21    1    1    2  502  501 -0.52255545372E+01 -0.25459883889E+02  0.28355231855E+01  0.26144833134E+02  0.00000000000E+00 0.  1.
<scales pt_clust_5="13000.00000" pt_clust_6="13000.00000" pt_clust_7="13000.00000" pt_clust_8="13000.00000" pt_clust_9="25.99062"></scales>
<clustering>
<clus scale="   25.991">  2  9  1 -1</clus>
<clus scale="   78.929">  5  6 -1 -1</clus>
<clus scale="   81.020">  2  5  1 -1</clus>
<clus scale="   91.029">  7  8 -1 -1</clus>
<clus scale="   92.847">  1  5  2 -1</clus>
</clustering>
</event>
<event>
 9    1  0.1973774E-005  0.9550772E+02  0.7546771E-02  0.1296690E+00
         -2   -1    0    0    0  501 -0.00000000000E+00  0.00000000000E+00  0.72868553686E+02  0.72868553686E+02  0.00000000000E+00 0.  1.
          1   -1    0    0  502    0  0.00000000000E+00 -0.00000000000E+00 -0.34594189398E+03  0.34594189398E+03  0.00000000000E+00 0. -1.
        -24    2    1    2    0    0  0.42830916212E+01 -0.23980114281E+02  0.27779334366E+02  0.89095796506E+02  0.81073909382E+02 0.  0.
         23    2    1    2    0    0 -0.34097040387E+02  0.68390655810E+01 -0.24372793587E+03  0.26303689720E+03  0.92605191991E+02 0.  0.
         11    1    3    3    0    0 -0.16156016981E+02 -0.13925837897E+02 -0.24251903990E+02  0.32297069418E+02  0.00000000000E+00 0. -1.
        -12    1    3    3    0    0  0.20439108602E+02 -0.10054276384E+02  0.52031238355E+02  0.56798727088E+02  0.00000000000E+00 0.  1.
        -11    1    4    4    0    0 -0.49160950095E+02 -0.31046466585E+02 -0.14463442002E+03  0.15588392334E+03  0.00000000000E+00 0.  1.
         11    1    4    4    0    0  0.15063909708E+02  0.37885532166E+02 -0.99093515850E+02  0.10715297386E+03  0.00000000000E+00 0. -1.
         21    1    1    2  502  501  0.29813948766E+02  0.17141048700E+02 -0.57124738790E+02  0.66677753962E+02  0.00000000000E+00 0. -1.
<scales pt_clust_5="13000.00000" pt_clust_6="13000.00000" pt_clust_7="13000.00000" pt_clust_8="13000.00000" pt_clust_9="34.39022"></scales>
<clustering>
<clus scale="   34.390">  2  9  1 -1</clus>
<clus scale="   81.074">  5  6 -1 -1</clus>
<clus scale="   84.374">  1  5  2 -1</clus>
<clus scale="   92.605">  7  8 -1 -1</clus>
<clus scale="   34.390">  2  5  1 -1</clus>
</clustering>
</event>
<event>
 9    1  0.1973774E-005  0.1236469E+03  0.7546771E-02  0.1241101E+00
          1   -1    0    0  502    0  0.00000000000E+00  0.00000000000E+00  0.30992178462E+03  0.30992178462E+03  0.00000000000E+00 0. -1.
         -2   -1    0    0    0  501 -0.00000000000E+00 -0.00000000000E+00 -0.12808986205E+03  0.12808986205E+03  0.00000000000E+00 0.  1.
         23    2    1    2    0    0 -0.78919299047E+02 -0.28819498700E+02 -0.79052080572E+02  0.14823956503E+03  0.93096283121E+02 0.  0.
        -24    2    1    2    0    0  0.61344597979E+02  0.15275240091E+02  0.23102879021E+03  0.25257462476E+03  0.80144535105E+02 0.  0.
         11    1    4    4    0    0  0.41445478128E+02  0.23651308329E+02  0.22521571167E+03  0.23021561378E+03  0.00000000000E+00 0. -1.
        -12    1    4    4    0    0  0.19899119852E+02 -0.83760682377E+01  0.58130785321E+01  0.22359010980E+02  0.00000000000E+00 0.  1.
        -11    1    3    3    0    0 -0.30990305527E+02 -0.60326838957E+02 -0.38411792725E+02  0.77943520292E+02  0.00000000000E+00 0. -1.
         11    1    3    3    0    0 -0.47928993520E+02  0.31507340257E+02 -0.40640287848E+02  0.70296044741E+02  0.00000000000E+00 0.  1.
         21    1    1    2  502  501  0.17574701068E+02  0.13544258609E+02  0.29855212933E+02  0.37197456877E+02  0.00000000000E+00 0. -1.
<scales pt_clust_5="13000.00000" pt_clust_6="13000.00000" pt_clust_7="13000.00000" pt_clust_8="13000.00000" pt_clust_9="22.18822"></scales>
<clustering>
<clus scale="   22.188">  1  9  2 -1</clus>
<clus scale="   80.145">  5  6 -1 -1</clus>
<clus scale="   93.096">  7  8 -1 -1</clus>
<clus scale="  114.214">  1  5  2 -1</clus>
<clus scale="   22.188">  1  5  2 -1</clus>
</clustering>
</event>
<event>
 9    1  0.1973774E-005  0.1413997E+03  0.7546771E-02  0.1213792E+00
          3   -1    0    0  502    0  0.00000000000E+00  0.00000000000E+00  0.89074897553E+03  0.89074897553E+03  0.00000000000E+00 0. -1.
         -4   -1    0    0    0  501 -0.00000000000E+00 -0.00000000000E+00 -0.97519305613E+02  0.97519305613E+02  0.00000000000E+00 0.  1.
        -24    2    1    2    0    0 -0.31483394930E+02  0.97690293958E+02 -0.23307986375E+02  0.13317692628E+03  0.81598001046E+02 0.  0.
         23    2    1    2    0    0  0.45908714943E+01 -0.14546152614E+03  0.40861884518E+03  0.44350533117E+03  0.92452617323E+02 0.  0.
         13    1    3    3    0    0 -0.57793616040E+02  0.78004426776E+02 -0.25082725552E+02  0.10026931621E+03  0.00000000000E+00 0. -1.
        -14    1    3    3    0    0  0.26310221110E+02  0.19685867182E+02  0.17747391772E+01  0.32907610073E+02  0.00000000000E+00 0.  1.
        -13    1    4    4    0    0 -0.33593125240E+01 -0.93457743773E+02  0.35973336823E+03  0.37169036989E+03  0.00000000000E+00 0.  1.
         13    1    4    4    0    0  0.79501840184E+01 -0.52003782370E+02  0.48885476951E+02  0.71814961278E+02  0.00000000000E+00 0. -1.
         21    1    1    2  502  501  0.26892523436E+02  0.47771232184E+02  0.40791881111E+03  0.41158602369E+03  0.00000000000E+00 0. -1.
<scales pt_clust_5="13000.00000" pt_clust_6="13000.00000" pt_clust_7="13000.00000" pt_clust_8="13000.00000" pt_clust_9="54.82060"></scales>
<clustering>
<clus scale="   54.821">  1  9  2 -1</clus>
<clus scale="   81.598">  5  6 -1 -1</clus>
<clus scale="   92.453">  7  8 -1 -1</clus>
<clus scale="  134.553">  2  5  1 -1</clus>
<clus scale="   54.821">  1  5  2 -1</clus>
</clustering>
</event>
<event>
 9    1  0.1973774E-005  0.9331688E+02  0.7546771E-02  0.1300725E+00
         -2   -1    0    0    0  501 -0.00000000000E+00  0.00000000000E+00  0.25100945328E+03  0.25100945328E+03  0.00000000000E+00 0.  1.
          1   -1    0    0  502    0  0.00000000000E+00 -0.00000000000E+00 -0.42542153874E+02  0.42542153874E+02  0.00000000000E+00 0. -1.
         23    2    1    2    0    0  0.77083725979E+01  0.13373501589E+02  0.13425112910E+03  0.16298998081E+03  0.91126827149E+02 0.  0.
        -24    2    1    2    0    0  0.39228480526E+01 -0.30145453329E+02  0.59676476686E+02  0.10550197053E+03  0.81518383345E+02 0.  0.
         13    1    4    4    0    0 -0.24832272387E+02 -0.47051941122E+02  0.31436112012E+02  0.61796084453E+02  0.00000000000E+00 0. -1.
        -14    1    4    4    0    0  0.28755120440E+02  0.16906487793E+02  0.28240364674E+02  0.43705886079E+02  0.00000000000E+00 0.  1.
        -13    1    3    3    0    0 -0.33269940359E+02 -0.16948897777E+02  0.33893313894E+02  0.50427282239E+02  0.00000000000E+00 0. -1.
         13    1    3    3    0    0  0.40978312956E+02  0.30322399366E+02  0.10035781521E+03  0.11256269857E+03  0.00000000000E+00 0.  1.
         21    1    1    2  502  501 -0.11631220650E+02  0.16771951740E+02  0.14539693617E+02  0.25059655813E+02  0.00000000000E+00 0.  1.
<scales pt_clust_5="13000.00000" pt_clust_6="13000.00000" pt_clust_7="13000.00000" pt_clust_8="13000.00000" pt_clust_9="20.41038"></scales>
<clustering>
<clus scale="   20.410">  2  9  1 -1</clus>
<clus scale="   81.518">  5  6 -1 -1</clus>
<clus scale="   83.959">  2  5  1 -1</clus>
<clus scale="   91.127">  7  8 -1 -1</clus>
<clus scale="   20.410">  2  5  1 -1</clus>
</clustering>
</event>
<event>
 9    1  0.1973774E-005  0.1140624E+03  0.7546771E-02  0.1257106E+00
         -2   -1    0    0    0  501 -0.00000000000E+00  0.00000000000E+00  0.14620763621E+03  0.14620763621E+03  0.00000000000E+00 0.  1.
          1   -1    0    0  502    0  0.00000000000E+00 -0.00000000000E+00 -0.25175824403E+03  0.25175824403E+03  0.00000000000E+00 0. -1.
         23    2    1    2    0    0 -0.72919903710E+02 -0.32659012807E+02  0.87257608535E+02  0.14924492883E+03  0.90973815241E+02 0.  0.
        -24    2    1    2    0    0  0.42143335315E+02 -0.31139879114E+01 -0.62324672791E+02  0.10996627624E+03  0.80140248556E+02 0.  0.
         13    1    4    4    0    0  0.46703217791E+02 -0.89707457791E+01 -0.78719381945E+02  0.91969592397E+02  0.00000000000E+00 0. -1.
        -14    1    4    4    0    0 -0.45598824765E+01  0.58567578677E+01  0.16394709155E+02  0.17996683839E+02  0.00000000000E+00 0.  1.
        -13    1    3    3    0    0 -0.84451806175E+02 -0.10180262589E+02  0.89993724869E+02  0.12383301591E+03  0.00000000000E+00 0.  1.
         13    1    3    3    0    0  0.11531902465E+02 -0.22478750218E+02 -0.27361163342E+01  0.25411912923E+02  0.00000000000E+00 0. -1.
         21    1    1    2  502  501  0.30776568395E+02  0.35773000718E+02 -0.13048354356E+03  0.13875467518E+03  0.00000000000E+00 0. -1.
<scales pt_clust_5="13000.00000" pt_clust_6="13000.00000" pt_clust_7="13000.00000" pt_clust_8="13000.00000" pt_clust_9="47.19009"></scales>
<clustering>
<clus scale="   47.190">  2  9  1 -1</clus>
<clus scale="   80.140">  5  6 -1 -1</clus>
<clus scale="   90.974">  7  8 -1 -1</clus>
<clus scale="  105.624">  2  5  1 -1</clus>
<clus scale="   47.190">  2  5  1 -1</clus>
</clustering>
</event>
<event>
 9    1  0.1973774E-005  0.1203382E+03  0.7546771E-02  0.1245919E+00
         -2   -1    0    0    0  501 -0.00000000000E+00  0.00000000000E+00  0.17976773043E+03  0.17976773043E+03  0.00000000000E+00 0.  1.
          1   -1    0    0  502    0  0.00000000000E+00 -0.00000000000E+00 -0.20540246980E+03  0.20540246980E+03  0.00000000000E+00 0. -1.
        -24    2    1    2    0    0  0.36437793104E+02  0.31878907344E+02  0.11608083242E+03  0.14903537224E+03  0.79955018763E+02 0.  0.
         23    2    1    2    0    0 -0.46521943335E+02 -0.70424725982E+02 -0.15087126408E+03  0.19525332947E+03  0.90762277969E+02 0.  0.
         11    1    3    3    0    0  0.45706330085E+02 -0.13098468935E+02  0.58543417328E+02  0.75418633048E+02  0.00000000000E+00 0. -1.
        -12    1    3    3    0    0 -0.92685369818E+01  0.44977376279E+02  0.57537415087E+02  0.73616739195E+02  0.00000000000E+00 0.  1.
        -11    1    4    4    0    0 -0.32560884735E+02 -0.91922634641E+02 -0.10994459146E+03  0.14696188338E+03  0.00000000000E+00 0. -1.
         11    1    4    4    0    0 -0.13961058600E+02  0.21497908659E+02 -0.40926672617E+02  0.48291446090E+02  0.00000000000E+00 0.  1.
         21    1    1    2  502  501  0.10084150232E+02  0.38545818638E+02  0.91556922919E+01  0.40881498526E+02  0.00000000000E+00 0.  1.
<scales pt_clust_5="13000.00000" pt_clust_6="13000.00000" pt_clust_7="13000.00000" pt_clust_8="13000.00000" pt_clust_9="39.84307"></scales>
<clustering>
<clus scale="   39.843">  1  9  2 -1</clus>
<clus scale="   79.955">  5  6 -1 -1</clus>
<clus scale="   90.762">  7  8 -1 -1</clus>
<clus scale="  112.411">  1  5  2 -1</clus>
<clus scale="  120.338">  2  5  1 -1</clus>
</clustering>
</event>
<event>
 9    1  0.1973774E-005  0.9140636E+02  0.7546771E-02  0.1305802E+00
          1   -1    0    0  502    0  0.00000000000E+00  0.00000000000E+00  0.58868733329E+02  0.58868733329E+02  0.00000000000E+00 0. -1.
         -2   -1    0    0    0  501 -0.00000000000E+00 -0.00000000000E+00 -0.26783941357E+03  0.26783941357E+03  0.00000000000E+00 0.  1.
        -24    2    1    2    0    0 -0.25722437726E+01 -0.63218558044E+00 -0.16398338999E+03  0.18290234233E+03  0.80967268330E+02 0.  0.
         23    2    1    2    0    0  0.24840848468E+02 -0.27367427384E+02 -0.20250503935E+02  0.10031123389E+03  0.91028659774E+02 0.  0.
         11    1    3    3    0    0  0.38337400031E+02 -0.58674584160E+01 -0.65332237377E+02  0.75976868519E+02  0.00000000000E+00 0. -1.
        -12    1    3    3    0    0 -0.40909643803E+02  0.52352728356E+01 -0.98651152617E+02  0.10692547381E+03  0.00000000000E+00 0.  1.
        -11    1    4    4    0    0  0.17619866860E+02 -0.54394281463E+02 -0.36620354842E+02  0.67898806711E+02  0.00000000000E+00 0.  1.
         11    1    4    4    0    0  0.72209816078E+01  0.27026854078E+02  0.16369850907E+02  0.32412427177E+02  0.00000000000E+00 0. -1.
         21    1    1    2  502  501 -0.22268604695E+02  0.27999612965E+02 -0.24736786308E+02  0.43494570674E+02  0.00000000000E+00 0. -1.
<scales pt_clust_5="13000.00000" pt_clust_6="13000.00000" pt_clust_7="13000.00000" pt_clust_8="13000.00000" pt_clust_9="35.77526"></scales>
<clustering>
<clus scale="   35.775">  1  9  2 -1</clus>
<clus scale="   80.967">  5  6 -1 -1</clus>
<clus scale="   81.392">  2  5  1 -1</clus>
<clus scale="   91.029">  7  8 -1 -1</clus>
<clus scale="   35.775">  1  5  2 -1</clus>
</clustering>
</event>
<event>
 9    1  0.1973774E-005  0.2873585E+03  0.7546771E-02  0.1132494E+00
         -2   -1    0    0    0  501 -0.00000000000E+00  0.00000000000E+00  0.25043345301E+03  0.25043345301E+03  0.00000000000E+00 0.  1.
          1   -1    0    0  502    0  0.00000000000E+00 -0.00000000000E+00 -0.46153040337E+03  0.46153040337E+03  0.00000000000E+00 0. -1.
        -24    2    1    2    0    0 -0.25395413070E+02  0.56973479590E+02 -0.30612239016E+02  0.10661754610E+03  0.80865861632E+02 0.  0.
         23    2    1    2    0    0  0.23290432900E+03  0.13327408328E+03 -0.21374800346E+02  0.28197338447E+03  0.83938666421E+02 0.  0.
         11    1    3    3    0    0 -0.26468575119E+02  0.29500295516E+01  0.19432754676E+02  0.32968471264E+02  0.00000000000E+00 0. -1.
        -12    1    3    3    0    0  0.10731620488E+01  0.54023450038E+02 -0.50044993691E+02  0.73649074837E+02  0.00000000000E+00 0.  1.
        -13    1    4    4    0    0  0.86922265742E+02  0.57166420197E+02 -0.49073727753E+02  0.11502917298E+03  0.00000000000E+00 0. -1.
         13    1    4    4    0    0  0.14598206326E+03  0.76107663079E+02  0.27698927407E+02  0.16694421150E+03  0.00000000000E+00 0.  1.
         21    1    1    2  502  501 -0.20750891593E+03 -0.19024756287E+03 -0.15910991099E+03  0.32337292581E+03  0.00000000000E+00 0. -1.
<scales pt_clust_5="13000.00000" pt_clust_6="13000.00000" pt_clust_7="13000.00000" pt_clust_8="13000.00000" pt_clust_9="274.82580"></scales>
<clustering>
<clus scale="   80.866">  5  6 -1 -1</clus>
<clus scale="   83.939">  7  8 -1 -1</clus>
<clus scale="  102.128">  1  5  2 -1</clus>
<clus scale="  274.826">  2  9  1 -1</clus>
<clus scale="  274.826">  2  5  1 -1</clus>
</clustering>
</event>
<event>
 9    1  0.1973774E-005  0.1044682E+03  0.7546771E-02  0.1282615E+00
         -2   -1    0    0    0  501 -0.00000000000E+00  0.00000000000E+00  0.23677932203E+03  0.23677932203E+03  0.00000000000E+00 0.  1.
          1   -1    0    0  502    0  0.00000000000E+00 -0.00000000000E+00 -0.88160612575E+02  0.88160612575E+02  0.00000000000E+00 0. -1.
        -24    2    1    2    0    0  0.14366245498E+02 -0.17306691593E+02  0.16860544550E+03  0.18796033942E+03  0.79971134517E+02 0.  0.
         23    2    1    2    0    0 -0.32572591385E+02  0.28942674332E+02 -0.44679135187E+01  0.11037694537E+03  0.10131365018E+03 0.  0.
         11    1    3    3    0    0  0.43142705448E+00  0.31911521345E+02  0.65947418141E+02  0.73263860690E+02  0.00000000000E+00 0. -1.
        -12    1    3    3    0    0  0.13934818443E+02 -0.49218212938E+02  0.10265802736E+03  0.11469647872E+03  0.00000000000E+00 0.  1.
        -13    1    4    4    0    0 -0.14878393689E+02  0.65893940925E+02 -0.12306341956E+02  0.68664576761E+02  0.00000000000E+00 0. -1.
         13    1    4    4    0    0 -0.17694197696E+02 -0.36951266593E+02  0.78384284378E+01  0.41712368613E+02  0.00000000000E+00 0.  1.
         21    1    1    2  502  501  0.18206345887E+02 -0.11635982739E+02 -0.15518822526E+02  0.26602649820E+02  0.00000000000E+00 0.  1.
<scales pt_clust_5="13000.00000" pt_clust_6="13000.00000" pt_clust_7="13000.00000" pt_clust_8="13000.00000" pt_clust_9="21.60711"></scales>
<clustering>
<clus scale="   21.607">  2  9  1 -1</clus>
<clus scale="   79.971">  5  6 -1 -1</clus>
<clus scale="   83.932">  1  5  2 -1</clus>
<clus scale="  101.314">  7  8 -1 -1</clus>
<clus scale="   21.607">  2  5  1 -1</clus>
</clustering>
</event>
<event>
 9    1  0.1973774E-005  0.1583732E+03  0.7546771E-02  0.1192217E+00
          1   -1    0    0  502    0  0.00000000000E+00  0.00000000000E+00  0.44813591753E+03  0.44813591753E+03  0.00000000000E+00 0. -1.
         -2   -1    0    0    0  501 -0.00000000000E+00 -0.00000000000E+00 -0.11593888135E+03  0.11593888135E+03  0.00000000000E+00 0.  1.
        -24    2    1    2    0    0  0.75526341658E+02  0.11567285363E+03 -0.76128152237E+01  0.15937873674E+03  0.79115039132E+02 0.  0.
         23    2    1    2    0    0 -0.10098031976E+03 -0.52150520829E+02  0.27327161097E+03  0.30924801761E+03  0.89667503749E+02 0.  0.
         11    1    3    3    0    0  0.19291397222E+02  0.12816426255E+02 -0.32139196988E+02  0.39614981658E+02  0.00000000000E+00 0. -1.
        -12    1    3    3    0    0  0.56234944436E+02  0.10285642738E+03  0.24526381764E+02  0.11976375508E+03  0.00000000000E+00 0.  1.
        -11    1    4    4    0    0 -0.97802100148E+02 -0.15522454915E+02  0.24013978706E+03  0.25975626023E+03  0.00000000000E+00 0. -1.
         11    1    4    4    0    0 -0.31782196154E+01 -0.36628065914E+02  0.33131823915E+02  0.49491757379E+02  0.00000000000E+00 0.  1.
         21    1    1    2  502  501  0.25453978105E+02 -0.63522332805E+02  0.66538240426E+02  0.95448044534E+02  0.00000000000E+00 0.  1.
<scales pt_clust_5="13000.00000" pt_clust_6="13000.00000" pt_clust_7="13000.00000" pt_clust_8="13000.00000" pt_clust_9="68.43239"></scales>
<clustering>
<clus scale="   68.432">  1  9  2 -1</clus>
<clus scale="   79.115">  5  6 -1 -1</clus>
<clus scale="   89.668">  7  8 -1 -1</clus>
<clus scale="  152.647">  2  5  1 -1</clus>
<clus scale="   68.432">  1  5  2 -1</clus>
</clustering>
</event>
<event>
 9    1  0.1973774E-005  0.9419467E+02  0.7546771E-02  0.1300517E+00
          1   -1    0    0  502    0  0.00000000000E+00  0.00000000000E+00  0.62934685677E+02  0.62934685677E+02  0.00000000000E+00 0. -1.
         -2   -1    0    0    0  501 -0.00000000000E+00 -0.00000000000E+00 -0.34724061996E+03  0.34724061996E+03  0.00000000000E+00 0.  1.
        -24    2    1    2    0    0 -0.23073719967E+02  0.10617396498E+02 -0.26001200483E+03  0.27284754363E+03  0.78704598015E+02 0.  0.
         23    2    1    2    0    0  0.17665009885E+02  0.22238581805E+02 -0.35683112345E+02  0.10213567565E+03  0.91388208422E+02 0.  0.
         11    1    3    3    0    0 -0.50693931075E+02  0.20565503982E+01 -0.19844430038E+03  0.20482735267E+03  0.00000000000E+00 0. -1.
        -12    1    3    3    0    0  0.27620211108E+02  0.85608460997E+01 -0.61567704449E+02  0.68020190964E+02  0.00000000000E+00 0.  1.
        -11    1    4    4    0    0 -0.10829063231E+02 -0.32305872727E+02 -0.10623933009E+02  0.35690418542E+02  0.00000000000E+00 0. -1.
         11    1    4    4    0    0  0.28494073116E+02  0.54544454532E+02 -0.25059179336E+02  0.66445257107E+02  0.00000000000E+00 0.  1.
         21    1    1    2  502  501  0.54087100816E+01 -0.32855978303E+02  0.11389182893E+02  0.35192086354E+02  0.00000000000E+00 0.  1.
<scales pt_clust_5="13000.00000" pt_clust_6="13000.00000" pt_clust_7="13000.00000" pt_clust_8="13000.00000" pt_clust_9="33.29819"></scales>
<clustering>
<clus scale="   33.298">  1  9  2 -1</clus>
<clus scale="   78.705">  5  6 -1 -1</clus>
<clus scale="   81.947">  2  5  1 -1</clus>
<clus scale="   91.388">  7  8 -1 -1</clus>
<clus scale="   33.298">  1  5  2 -1</clus>
</clustering>
</event>
<event>
 9    1  0.1973774E-005  0.1523099E+03  0.7546771E-02  0.1199245E+00
         -2   -1    0    0    0  501 -0.00000000000E+00  0.00000000000E+00  0.83776249147E+02  0.83776249147E+02  0.00000000000E+00 0.  1.
          1   -1    0    0  502    0  0.00000000000E+00 -0.00000000000E+00 -0.81565033624E+03  0.81565033624E+03  0.00000000000E+00 0. -1.
        -24    2    1    2    0    0 -0.90399955902E+02 -0.50588698900E+02 -0.70187080626E+02  0.15127975748E+03  0.85017470273E+02 0.  0.
         23    2    1    2    0    0  0.11915346395E+03  0.34755631713E+02 -0.68845199600E+03  0.70579337580E+03  0.93662354326E+02 0.  0.
         11    1    3    3    0    0 -0.70657560356E+02 -0.74709589420E+02 -0.52992522676E+02  0.11568155015E+03  0.00000000000E+00 0. -1.
        -12    1    3    3    0    0 -0.19742395546E+02  0.24120890519E+02 -0.17194557951E+02  0.35598207321E+02  0.00000000000E+00 0.  1.
        -11    1    4    4    0    0  0.89462216232E+02 -0.13776632109E+02 -0.52442659267E+03  0.53218092302E+03  0.00000000000E+00 0. -1.
         11    1    4    4    0    0  0.29691247722E+02  0.48532263822E+02 -0.16402540333E+03  0.17361245278E+03  0.00000000000E+00 0.  1.
         21    1    1    2  502  501 -0.28753508053E+02  0.15833067188E+02  0.26764989527E+02  0.42353452118E+02  0.00000000000E+00 0.  1.
<scales pt_clust_5="13000.00000" pt_clust_6="13000.00000" pt_clust_7="13000.00000" pt_clust_8="13000.00000" pt_clust_9="32.82454"></scales>
<clustering>
<clus scale="   32.825">  1  9  2 -1</clus>
<clus scale="   85.017">  5  6 -1 -1</clus>
<clus scale="   93.662">  7  8 -1 -1</clus>
<clus scale="  147.152">  1  5  2 -1</clus>
<clus scale="  152.310">  2  5  1 -1</clus>
</clustering>
</event>
<event>
 9    1  0.1973774E-005  0.1065849E+03  0.7546771E-02  0.1270194E+00
          1   -1    0    0  502    0  0.00000000000E+00  0.00000000000E+00  0.99384388225E+02  0.99384388225E+02  0.00000000000E+00 0. -1.
         -2   -1    0    0    0  501 -0.00000000000E+00 -0.00000000000E+00 -0.28073556550E+03  0.28073556550E+03  0.00000000000E+00 0.  1.
        -24    2    1    2    0    0 -0.23976302333E+02 -0.32761512265E+02 -0.22109492325E+03  0.24615648964E+03  0.10030888567E+03 0.  0.
         23    2    1    2    0    0  0.15262646640E+02  0.91880240461E+01  0.11114239369E+02  0.95867719038E+02  0.93539965086E+02 0.  0.
         11    1    3    3    0    0  0.82344523483E+01 -0.47848677920E+02 -0.43994768213E+02  0.65519781854E+02  0.00000000000E+00 0. -1.
        -12    1    3    3    0    0 -0.32210754681E+02  0.15087165655E+02 -0.17710015504E+03  0.18063670779E+03  0.00000000000E+00 0.  1.
        -11    1    4    4    0    0  0.47546497686E+01  0.48126116517E+02 -0.11389053625E+02  0.49683400929E+02  0.00000000000E+00 0.  1.
         11    1    4    4    0    0  0.10507996871E+02 -0.38938092471E+02  0.22503292994E+02  0.46184318108E+02  0.00000000000E+00 0. -1.
         21    1    1    2  502  501  0.87136556930E+01  0.23573488219E+02  0.28629506606E+02  0.38095745049E+02  0.00000000000E+00 0. -1.
<scales pt_clust_5="13000.00000" pt_clust_6="13000.00000" pt_clust_7="13000.00000" pt_clust_8="13000.00000" pt_clust_9="25.13239"></scales>
<clustering>
<clus scale="   25.132">  1  9  2 -1</clus>
<clus scale="   93.540">  7  8 -1 -1</clus>
<clus scale="  100.241">  1  7  2 -1</clus>
<clus scale="  100.309">  5  6 -1 -1</clus>
<clus scale="   25.132">  1  5  2 -1</clus>
</clustering>
</event>
<event>
 9    1  0.1973774E-005  0.1006125E+03  0.7546771E-02  0.1284004E+00
         -4   -1    0    0    0  501 -0.00000000000E+00  0.00000000000E+00  0.70136992931E+03  0.70136992931E+03  0.00000000000E+00 0.  1.
          3   -1    0    0  502    0  0.00000000000E+00 -0.00000000000E+00 -0.17680468035E+02  0.17680468035E+02  0.00000000000E+00 0. -1.
         23    2    1    2    0    0  0.38273881276E+02  0.25747293069E+02  0.40834559322E+03  0.42094196331E+03  0.91204165932E+02 0.  0.
        -24    2    1    2    0    0 -0.40754437096E+02 -0.27860610343E+01  0.22884617878E+03  0.24619113016E+03  0.81060549893E+02 0.  0.
         13    1    4    4    0    0 -0.14977112610E+02  0.37154518296E+02  0.73162825358E+02  0.83412056360E+02  0.00000000000E+00 0. -1.
        -14    1    4    4    0    0 -0.25777324487E+02 -0.39940579330E+02  0.15568335342E+03  0.16277907380E+03  0.00000000000E+00 0.  1.
        -11    1    3    3    0    0  0.15935738886E+02 -0.33352160919E+02  0.19351280143E+03  0.19701146852E+03  0.00000000000E+00 0.  1.
         11    1    3    3    0    0  0.22338142390E+02  0.59099453987E+02  0.21483279179E+03  0.22393049478E+03  0.00000000000E+00 0. -1.
         21    1    1    2  502  501  0.24805558204E+01 -0.22961232034E+02  0.46497689281E+02  0.51917303880E+02  0.00000000000E+00 0.  1.
<scales pt_clust_5="13000.00000" pt_clust_6="13000.00000" pt_clust_7="13000.00000" pt_clust_8="13000.00000" pt_clust_9="23.09483"></scales>
<clustering>
<clus scale="   23.095">  2  9  1 -1</clus>
<clus scale="   81.061">  5  6 -1 -1</clus>
<clus scale="   91.204">  7  8 -1 -1</clus>
<clus scale="   91.518">  2  5  1 -1</clus>
<clus scale="   23.095">  2  5  1 -1</clus>
</clustering>
</event>
<event>
 9    1  0.1973774E-005  0.1026773E+03  0.7546771E-02  0.1279730E+00
          1   -1    0    0  502    0  0.00000000000E+00  0.00000000000E+00  0.30313144969E+03  0.30313144969E+03  0.00000000000E+00 0. -1.
         -2   -1    0    0    0  501 -0.00000000000E+00 -0.00000000000E+00 -0.15938579904E+03  0.15938579904E+03  0.00000000000E+00 0.  1.
         23    2    1    2    0    0 -0.28559258020E+02 -0.44398883536E+02 -0.12242067886E+03  0.16134537631E+03  0.90876926485E+02 0.  0.
        -24    2    1    2    0    0 -0.69699405594E+01  0.24581786483E+02  0.10311629067E+03  0.13312319953E+03  0.80224513429E+02 0.  0.
         11    1    4    4    0    0  0.29709096193E+02  0.30302614915E+02  0.32894645110E+02  0.53692984125E+02  0.00000000000E+00 0. -1.
        -12    1    4    4    0    0 -0.36679036753E+02 -0.57208284322E+01  0.70221645558E+02  0.79430215410E+02  0.00000000000E+00 0.  1.
        -11    1    3    3    0    0  0.29748813305E+01  0.22880553179E+02 -0.70646740633E+01  0.24130463160E+02  0.00000000000E+00 0. -1.
         11    1    3    3    0    0 -0.31534139351E+02 -0.67279436714E+02 -0.11535600480E+03  0.13721491315E+03  0.00000000000E+00 0.  1.
         21    1    1    2  502  501  0.35529198580E+02  0.19817097053E+02  0.16305003884E+03  0.16804867287E+03  0.00000000000E+00 0.  1.
<scales pt_clust_5="13000.00000" pt_clust_6="13000.00000" pt_clust_7="13000.00000" pt_clust_8="13000.00000" pt_clust_9="40.68220"></scales>
<clustering>
<clus scale="   40.682">  1  9  2 -1</clus>
<clus scale="   80.225">  5  6 -1 -1</clus>
<clus scale="   90.877">  7  8 -1 -1</clus>
<clus scale="   93.381">  1  5  2 -1</clus>
<clus scale="   40.682">  1  5  2 -1</clus>
</clustering>
</event>
<event>
 9    1  0.1973774E-005  0.1136926E+03  0.7546771E-02  0.1257120E+00
         -2   -1    0    0    0  501 -0.00000000000E+00  0.00000000000E+00  0.98838082387E+02  0.98838082387E+02  0.00000000000E+00 0.  1.
          1   -1    0    0  502    0  0.00000000000E+00 -0.00000000000E+00 -0.65957103962E+03  0.65957103962E+03  0.00000000000E+00 0. -1.
        -24    2    1    2    0    0  0.22606706288E+02  0.73331079090E+02  0.50557507641E+02  0.12220510792E+03  0.80557535293E+02 0.  0.
         23    2    1    2    0    0  0.16276121244E+02 -0.87424977845E+00 -0.37822866868E+03  0.38906100441E+03  0.89698734109E+02 0.  0.
         11    1    3    3    0    0  0.34876648349E+02  0.42554141113E+01 -0.98610305548E+00  0.35149132970E+02  0.00000000000E+00 0. -1.
        -12    1    3    3    0    0 -0.12269942061E+02  0.69075664979E+02  0.51543610697E+02  0.87055974948E+02  0.00000000000E+00 0.  1.
        -13    1    4    4    0    0  0.42698507670E+02 -0.23350254413E+02 -0.29348245317E+03  0.29749007925E+03  0.00000000000E+00 0. -1.
         13    1    4    4    0    0 -0.26422386426E+02  0.22476004634E+02 -0.84746215516E+02  0.91570925152E+02  0.00000000000E+00 0.  1.
         21    1    1    2  502  501 -0.38882827532E+02 -0.72456829312E+02 -0.23306179619E+03  0.24714300968E+03  0.00000000000E+00 0. -1.
<scales pt_clust_5="13000.00000" pt_clust_6="13000.00000" pt_clust_7="13000.00000" pt_clust_8="13000.00000" pt_clust_9="82.23057"></scales>
<clustering>
<clus scale="   80.558">  5  6 -1 -1</clus>
<clus scale="   82.231">  2  9  1 -1</clus>
<clus scale="   89.699">  7  8 -1 -1</clus>
<clus scale="  106.629">  1  5  2 -1</clus>
<clus scale="   82.231">  2  5  1 -1</clus>
</clustering>
</event>
<event>
 9    1  0.1973774E-005  0.1233577E+03  0.7546771E-02  0.1238476E+00
         -4   -1    0    0    0  501 -0.00000000000E+00  0.00000000000E+00  0.63885958146E+02  0.63885958146E+02  0.00000000000E+00 0.  1.
          3   -1    0    0  502    0  0.00000000000E+00 -0.00000000000E+00 -0.35215429952E+03  0.35215429952E+03  0.00000000000E+00 0. -1.
        -24    2    1    2    0    0 -0.72339009865E+02 -0.28709613729E+02 -0.54423612269E+02  0.12819197080E+03  0.86105037814E+02 0.  0.
         23    2    1    2    0    0  0.94809534531E+02  0.32718791413E+02 -0.15102805214E+03  0.20194368881E+03  0.88951749647E+02 0.  0.
         13    1    3    3    0    0 -0.31810646716E+02 -0.16990642084E+02 -0.73515229434E+02  0.81884602470E+02  0.00000000000E+00 0. -1.
        -14    1    3    3    0    0 -0.40528363149E+02 -0.11718971645E+02  0.19091617165E+02  0.46307368333E+02  0.00000000000E+00 0.  1.
        -11    1    4    4    0    0  0.27291433141E+02  0.46323673585E+02 -0.27210080499E+02  0.60258555725E+02  0.00000000000E+00 0.  1.
         11    1    4    4    0    0  0.67518101390E+02 -0.13604882172E+02 -0.12381797164E+03  0.14168513308E+03  0.00000000000E+00 0. -1.
         21    1    1    2  502  501 -0.22470524666E+02 -0.40091776839E+01 -0.82816676966E+02  0.85904598061E+02  0.00000000000E+00 0.  1.
<scales pt_clust_5="13000.00000" pt_clust_6="13000.00000" pt_clust_7="13000.00000" pt_clust_8="13000.00000" pt_clust_9="22.82538"></scales>
<clustering>
<clus scale="   22.825">  2  9  1 -1</clus>
<clus scale="   86.105">  5  6 -1 -1</clus>
<clus scale="   88.952">  7  8 -1 -1</clus>
<clus scale="  121.321">  1  5  2 -1</clus>
<clus scale="   22.825">  2  5  1 -1</clus>
</clustering>
</event>
<event>
 9    1  0.1973774E-005  0.1105444E+03  0.7546771E-02  0.1262891E+00
         -2   -1    0    0    0  501 -0.00000000000E+00  0.00000000000E+00  0.26566690904E+03  0.26566690904E+03  0.00000000000E+00 0.  1.
          1   -1    0    0  502    0  0.00000000000E+00 -0.00000000000E+00 -0.57417073503E+02  0.57417073503E+02  0.00000000000E+00 0. -1.
         23    2    1    2    0    0  0.51855716614E+02  0.42877369381E+02  0.12357250880E+03  0.16810260218E+03  0.91982801540E+02 0.  0.
        -24    2    1    2    0    0 -0.54349378424E+02 -0.17436276020E+02  0.80137460848E+02  0.12901836892E+03  0.83461657252E+02 0.  0.
         13    1    4    4    0    0 -0.21819513297E+02  0.16498032830E+02 -0.85359444636E+01  0.28655515973E+02  0.00000000000E+00 0. -1.
        -14    1    4    4    0    0 -0.32529865127E+02 -0.33934308850E+02  0.88673405312E+02  0.10036285295E+03  0.00000000000E+00 0.  1.
        -11    1    3    3    0    0  0.41702840824E+02 -0.43343695919E+01  0.77793082388E+01  0.42643068947E+02  0.00000000000E+00 0. -1.
         11    1    3    3    0    0  0.10152875790E+02  0.47211738973E+02  0.11579320056E+03  0.12545953324E+03  0.00000000000E+00 0.  1.
         21    1    1    2  502  501  0.24936618104E+01 -0.25441093362E+02  0.45398658895E+01  0.25963011439E+02  0.00000000000E+00 0.  1.
<scales pt_clust_5="13000.00000" pt_clust_6="13000.00000" pt_clust_7="13000.00000" pt_clust_8="13000.00000" pt_clust_9="25.56301"></scales>
<clustering>
<clus scale="   25.563">  2  9  1 -1</clus>
<clus scale="   83.462">  5  6 -1 -1</clus>
<clus scale="   91.983">  7  8 -1 -1</clus>
<clus scale="  103.562">  2  5  1 -1</clus>
<clus scale="   25.563">  2  5  1 -1</clus>
</clustering>
</event>
<event>
 9    1  0.1973774E-005  0.1178396E+03  0.7546771E-02  0.1248488E+00
          1   -1    0    0  502    0  0.00000000000E+00  0.00000000000E+00  0.28542655054E+03  0.28542655054E+03  0.00000000000E+00 0. -1.
         -2   -1    0    0    0  501 -0.00000000000E+00 -0.00000000000E+00 -0.75590003588E+02  0.75590003588E+02  0.00000000000E+00 0.  1.
         23    2    1    2    0    0 -0.53920333029E+02 -0.78613812027E+02  0.48380786240E+02  0.13743077651E+03  0.86365410311E+02 0.  0.
        -24    2    1    2    0    0  0.13970132854E+02  0.74580343055E+02  0.13857280340E+03  0.17736979444E+03  0.80624003598E+02 0.  0.
         13    1    4    4    0    0  0.47027993632E+02  0.32558949183E+02  0.68980492643E+02  0.89610410792E+02  0.00000000000E+00 0. -1.
        -14    1    4    4    0    0 -0.33057860779E+02  0.42021393872E+02  0.69592310757E+02  0.87759383650E+02  0.00000000000E+00 0.  1.
        -13    1    3    3    0    0 -0.77540593552E+02 -0.60030704366E+02  0.31705357156E+02  0.10306046180E+03  0.00000000000E+00 0.  1.
         13    1    3    3    0    0  0.23620260522E+02 -0.18583107661E+02  0.16675429084E+02  0.34370314700E+02  0.00000000000E+00 0. -1.
         21    1    1    2  502  501  0.39950200176E+02  0.40334689720E+01  0.22882957311E+02  0.46215983180E+02  0.00000000000E+00 0.  1.
<scales pt_clust_5="13000.00000" pt_clust_6="13000.00000" pt_clust_7="13000.00000" pt_clust_8="13000.00000" pt_clust_9="40.15330"></scales>
<clustering>
<clus scale="   40.153">  2  9  1 -1</clus>
<clus scale="   80.624">  5  6 -1 -1</clus>
<clus scale="   86.365">  7  8 -1 -1</clus>
<clus scale="  113.699">  1  5  2 -1</clus>
<clus scale="  113.699">  1  5  2 -1</clus>
</clustering>
</event>
<event>
 9    1  0.1973774E-005  0.1012200E+03  0.7546771E-02  0.1279932E+00
         -2   -1    0    0    0  501 -0.00000000000E+00  0.00000000000E+00  0.13034432059E+03  0.13034432059E+03  0.00000000000E+00 0.  1.
          1   -1    0    0  502    0  0.00000000000E+00 -0.00000000000E+00 -0.24387431293E+03  0.24387431293E+03  0.00000000000E+00 0. -1.
        -24    2    1    2    0    0 -0.50335846989E+02 -0.29682784778E+02  0.79968408753E+02  0.12829392580E+03  0.81545200930E+02 0.  0.
         23    2    1    2    0    0 -0.48138877336E+01  0.39495853549E+02 -0.13240178750E+03  0.16303571116E+03  0.86413620548E+02 0.  0.
         11    1    3    3    0    0 -0.60656658676E+02 -0.42487150806E+02  0.38039447136E+02  0.83254956391E+02  0.00000000000E+00 0. -1.
        -12    1    3    3    0    0  0.10320811686E+02  0.12804366028E+02  0.41928961617E+02  0.45038969410E+02  0.00000000000E+00 0.  1.
        -11    1    4    4    0    0 -0.14303743727E+02 -0.23538076090E+02 -0.20810149983E+02  0.34521014657E+02  0.00000000000E+00 0. -1.
         11    1    4    4    0    0  0.94898559935E+01  0.63033929639E+02 -0.11159163752E+03  0.12851469650E+03  0.00000000000E+00 0.  1.
         21    1    1    2  502  501  0.55149734723E+02 -0.98130687712E+01 -0.61096613595E+02  0.82888996564E+02  0.00000000000E+00 0. -1.
<scales pt_clust_5="13000.00000" pt_clust_6="13000.00000" pt_clust_7="13000.00000" pt_clust_8="13000.00000" pt_clust_9="56.01598"></scales>
<clustering>
<clus scale="   56.016">  2  9  1 -1</clus>
<clus scale="   81.545">  5  6 -1 -1</clus>
<clus scale="   86.414">  7  8 -1 -1</clus>
<clus scale="   97.097">  1  5  2 -1</clus>
<clus scale="   56.016">  2  5  1 -1</clus>
</clustering>
</event>
<event>
 9    1  0.1973774E-005  0.2297327E+03  0.7546771E-02  0.1127511E+00
         -2   -1    0    0    0  501 -0.00000000000E+00  0.00000000000E+00  0.12935590344E+03  0.12935590344E+03  0.00000000000E+00 0.  1.
          1   -1    0    0  502    0  0.00000000000E+00 -0.00000000000E+00 -0.79720749771E+03  0.79720749771E+03  0.00000000000E+00 0. -1.
        -24    2    1    2    0    0 -0.22538249214E+03  0.56612871879E+02 -0.46498789087E+02  0.25028728745E+03  0.80494123049E+02 0.  0.
         23    2    1    2    0    0  0.20271899066E+03 -0.40953239357E+02 -0.60098867561E+03  0.64201890769E+03  0.90712362107E+02 0.  0.
         11    1    3    3    0    0 -0.19662752150E+02 -0.17878525267E+02  0.16058648510E+00  0.26576141102E+02  0.00000000000E+00 0. -1.
        -12    1    3    3    0    0 -0.20571973999E+03  0.74491397146E+02 -0.46659375572E+02  0.22371114635E+03  0.00000000000E+00 0.  1.
        -11    1    4    4    0    0  0.97789041921E+02 -0.65892508958E+02 -0.30628532435E+03  0.32819996857E+03  0.00000000000E+00 0.  1.
         11    1    4    4    0    0  0.10492994874E+03  0.24939269600E+02 -0.29470335125E+03  0.31381893912E+03  0.00000000000E+00 0. -1.
         21    1    1    2  502  501  0.22663501480E+02 -0.15659632522E+02 -0.20364129575E+02  0.34257206007E+02  0.00000000000E+00 0. -1.
<scales pt_clust_5="13000.00000" pt_clust_6="13000.00000" pt_clust_7="13000.00000" pt_clust_8="13000.00000" pt_clust_9="27.54738"></scales>
<clustering>
<clus scale="   27.547">  1  9  2 -1</clus>
<clus scale="   80.494">  5  6 -1 -1</clus>
<clus scale="   90.712">  7  8 -1 -1</clus>
<clus scale="  225.893">  1  5  2 -1</clus>
<clus scale="  229.733">  2  5  1 -1</clus>
</clustering>
</event>
<event>
 9    1  0.1973774E-005  0.2131625E+03  0.7546771E-02  0.1139934E+00
         -2   -1    0    0    0  501 -0.00000000000E+00  0.00000000000E+00  0.26363543004E+03  0.26363543004E+03  0.00000000000E+00 0.  1.
          1   -1    0    0  502    0  0.00000000000E+00 -0.00000000000E+00 -0.51208405314E+03  0.51208405314E+03  0.00000000000E+00 0. -1.
        -24    2    1    2    0    0  0.68084289314E+02  0.17647035172E+03  0.16660806149E+03  0.26441136863E+03  0.79861569114E+02 0.  0.
         23    2    1    2    0    0 -0.12118043905E+03 -0.19087826702E+03 -0.33575735231E+03  0.41479296941E+03  0.90559351872E+02 0.  0.
         11    1    3    3    0    0  0.16426150743E+02  0.28321880559E+02 -0.35811572022E+01  0.32935877604E+02  0.00000000000E+00 0. -1.
        -12    1    3    3    0    0  0.51658138571E+02  0.14814847116E+03  0.17018921869E+03  0.23147549103E+03  0.00000000000E+00 0.  1.
        -11    1    4    4    0    0 -0.12500951055E+03 -0.13209884806E+03 -0.22469283968E+03  0.28907499994E+03  0.00000000000E+00 0. -1.
         11    1    4    4    0    0  0.38290714973E+01 -0.58779418964E+02 -0.11106451263E+03  0.12571796947E+03  0.00000000000E+00 0.  1.
         21    1    1    2  502  501  0.53096149741E+02  0.14407915305E+02 -0.79299332277E+02  0.96515145135E+02  0.00000000000E+00 0. -1.
<scales pt_clust_5="13000.00000" pt_clust_6="13000.00000" pt_clust_7="13000.00000" pt_clust_8="13000.00000" pt_clust_9="55.01626"></scales>
<clustering>
<clus scale="   55.016">  2  9  1 -1</clus>
<clus scale="   79.862">  5  6 -1 -1</clus>
<clus scale="   90.559">  7  8 -1 -1</clus>
<clus scale="  208.842">  1  5  2 -1</clus>
<clus scale="   55.016">  2  5  1 -1</clus>
</clustering>
</event>
<event>
 9    1  0.1973774E-005  0.1243440E+03  0.7546771E-02  0.1239497E+00
          1   -1    0    0  502    0  0.00000000000E+00  0.00000000000E+00  0.49902352129E+03  0.49902352129E+03  0.00000000000E+00 0. -1.
         -2   -1    0    0    0  501 -0.00000000000E+00 -0.00000000000E+00 -0.65966404687E+02  0.65966404687E+02  0.00000000000E+00 0.  1.
        -24    2    1    2    0    0 -0.41161998362E+02 -0.56203269048E+02  0.48528928685E+02  0.11709879772E+03  0.80647095089E+02 0.  0.
         23    2    1    2    0    0  0.59906654647E+02  0.96588293650E+02  0.15152073700E+03  0.21066805912E+03  0.92219258561E+02 0.  0.
         11    1    3    3    0    0  0.22311655784E+02 -0.30843760491E+02  0.20354079653E+02  0.43167535296E+02  0.00000000000E+00 0. -1.
        -12    1    3    3    0    0 -0.63473654146E+02 -0.25359508557E+02  0.28174849031E+02  0.73931262419E+02  0.00000000000E+00 0.  1.
        -13    1    4    4    0    0  0.17616619298E+02  0.21816203506E+02  0.11317165999E+03  0.11659381045E+03  0.00000000000E+00 0. -1.
         13    1    4    4    0    0  0.42290035350E+02  0.74772090145E+02  0.38349077014E+02  0.94074248667E+02  0.00000000000E+00 0.  1.
         21    1    1    2  502  501 -0.18744656285E+02 -0.40385024603E+02  0.23300745091E+03  0.23722306914E+03  0.00000000000E+00 0.  1.
<scales pt_clust_5="13000.00000" pt_clust_6="13000.00000" pt_clust_7="13000.00000" pt_clust_8="13000.00000" pt_clust_9="44.52317"></scales>
<clustering>
<clus scale="   44.523">  1  9  2 -1</clus>
<clus scale="   80.647">  5  6 -1 -1</clus>
<clus scale="   92.219">  7  8 -1 -1</clus>
<clus scale="  116.022">  2  5  1 -1</clus>
<clus scale="   44.523">  1  5  2 -1</clus>
</clustering>
</event>
<event>
 9    1  0.1973774E-005  0.1193841E+03  0.7546771E-02  0.1251118E+00
         -2   -1    0    0    0  501 -0.00000000000E+00  0.00000000000E+00  0.31534330316E+03  0.31534330316E+03  0.00000000000E+00 0.  1.
          1   -1    0    0  502    0  0.00000000000E+00 -0.00000000000E+00 -0.21172282585E+03  0.21172282585E+03  0.00000000000E+00 0. -1.
        -24    2    1    2    0    0 -0.10416836055E+02  0.65613207515E+02  0.43460366475E+02  0.11247840184E+03  0.79680511744E+02 0.  0.
         23    2    1    2    0    0  0.31644744489E+02  0.63442431636E+02 -0.13592807911E+03  0.17888333535E+03  0.92176314690E+02 0.  0.
         13    1    3    3    0    0  0.27408554581E+02  0.53770390618E+02  0.11222824732E+02  0.61387584790E+02  0.00000000000E+00 0. -1.
        -14    1    3    3    0    0 -0.37825390636E+02  0.11842816897E+02  0.32237541743E+02  0.51090817046E+02  0.00000000000E+00 0.  1.
        -11    1    4    4    0    0  0.52301553458E+02  0.35681240297E+01 -0.53146176101E+02  0.74650519338E+02  0.00000000000E+00 0.  1.
         11    1    4    4    0    0 -0.20656808969E+02  0.59874307607E+02 -0.82781903006E+02  0.10423281601E+03  0.00000000000E+00 0. -1.
         21    1    1    2  502  501 -0.21227908434E+02 -0.12905563915E+03  0.19608818994E+03  0.23570439183E+03  0.00000000000E+00 0.  1.
<scales pt_clust_5="13000.00000" pt_clust_6="13000.00000" pt_clust_7="13000.00000" pt_clust_8="13000.00000" pt_clust_9="75.86890"></scales>
<clustering>
<clus scale="   79.681">  5  6 -1 -1</clus>
<clus scale="   92.176">  7  8 -1 -1</clus>
<clus scale="  103.743">  1  5  2 -1</clus>
<clus scale="   75.869">  1  9  2 -1</clus>
<clus scale="  119.384">  2  5  1 -1</clus>
</clustering>
</event>
<event>
 9    1  0.1973774E-005  0.1232980E+03  0.7546771E-02  0.1243438E+00
          1   -1    0    0  502    0  0.00000000000E+00  0.00000000000E+00  0.58753967834E+03  0.58753967834E+03  0.00000000000E+00 0. -1.
         -2   -1    0    0    0  501 -0.00000000000E+00 -0.00000000000E+00 -0.31791594244E+02  0.31791594244E+02  0.00000000000E+00 0.  1.
        -24    2    1    2    0    0 -0.54019491775E+02  0.36099755145E+02  0.13269260782E+03  0.16597902938E+03  0.75633406702E+02 0.  0.
         23    2    1    2    0    0  0.62059363926E+02 -0.65778226568E+02  0.36549606776E+03  0.38809477836E+03  0.94085289485E+02 0.  0.
         11    1    3    3    0    0 -0.30421908327E+02 -0.16286582383E+02  0.83470280169E+02  0.90321829828E+02  0.00000000000E+00 0. -1.
        -12    1    3    3    0    0 -0.23597583448E+02  0.52386337527E+02  0.49222327653E+02  0.75657199550E+02  0.00000000000E+00 0.  1.
        -13    1    4    4    0    0  0.56270549388E+02  0.75246159866E+01  0.16989055109E+03  0.17912507899E+03  0.00000000000E+00 0.  1.
         13    1    4    4    0    0  0.57888145377E+01 -0.73302842555E+02  0.19560551667E+03  0.20896969937E+03  0.00000000000E+00 0. -1.
         21    1    1    2  502  501 -0.80398721504E+01  0.29678471424E+02  0.57559408511E+02  0.65257464848E+02  0.00000000000E+00 0.  1.
<scales pt_clust_5="13000.00000" pt_clust_6="13000.00000" pt_clust_7="13000.00000" pt_clust_8="13000.00000" pt_clust_9="30.74819"></scales>
<clustering>
<clus scale="   30.748">  2  9  1 -1</clus>
<clus scale="   75.633">  5  6 -1 -1</clus>
<clus scale="   94.085">  7  8 -1 -1</clus>
<clus scale="  109.867">  2  5  1 -1</clus>
<clus scale="  123.298">  1  5  2 -1</clus>
</clustering>
</event>
<event>
 9    1  0.1973774E-005  0.1010829E+03  0.7546771E-02  0.1283507E+00
         -4   -1    0    0    0  501 -0.00000000000E+00  0.00000000000E+00  0.17521332393E+03  0.17521332393E+03  0.00000000000E+00 0.  1.
          3   -1    0    0  502    0  0.00000000000E+00 -0.00000000000E+00 -0.81956232384E+02  0.81956232384E+02  0.00000000000E+00 0. -1.
         23    2    1    2    0    0 -0.32216601362E+02  0.35602157162E+02  0.99052096627E+02  0.14274372928E+03  0.90879213264E+02 0.  0.
        -24    2    1    2    0    0  0.76036352315E+01 -0.39748725368E+02 -0.46156303240E+01  0.89438168999E+02  0.79624780022E+02 0.  0.
         13    1    4    4    0    0 -0.29354773668E+02 -0.42403421884E+02  0.28040951305E+01  0.51648967793E+02  0.00000000000E+00 0. -1.
        -14    1    4    4    0    0  0.36958408899E+02  0.26546965164E+01 -0.74197254545E+01  0.37789201206E+02  0.00000000000E+00 0.  1.
        -11    1    3    3    0    0  0.21531412659E+02  0.27310081188E+02  0.76186245394E+02  0.83748350747E+02  0.00000000000E+00 0.  1.
         11    1    3    3    0    0 -0.53748014022E+02  0.82920759739E+01  0.22865851233E+02  0.58995378529E+02  0.00000000000E+00 0. -1.
         21    1    1    2  502  501  0.24612966131E+02  0.41465682055E+01 -0.11793747537E+01  0.24987658042E+02  0.00000000000E+00 0. -1.
<scales pt_clust_5="13000.00000" pt_clust_6="13000.00000" pt_clust_7="13000.00000" pt_clust_8="13000.00000" pt_clust_9="24.95981"></scales>
<clustering>
<clus scale="   24.960">  2  9  1 -1</clus>
<clus scale="   79.625">  5  6 -1 -1</clus>
<clus scale="   90.879">  7  8 -1 -1</clus>
<clus scale="   91.098">  2  5  1 -1</clus>
<clus scale="   24.960">  2  5  1 -1</clus>
</clustering>
</event>
<event>
 9    1  0.1973774E-005  0.2561627E+03  0.7546771E-02  0.1145031E+00
          1   -1    0    0  502    0  0.00000000000E+00  0.00000000000E+00  0.48263541718E+03  0.48263541718E+03  0.00000000000E+00 0. -1.
         -2   -1    0    0    0  501 -0.00000000000E+00 -0.00000000000E+00 -0.22809588396E+03  0.22809588396E+03  0.00000000000E+00 0.  1.
         23    2    1    2    0    0 -0.48954486538E+02  0.21723324992E+02 -0.28793026736E+02  0.11029942291E+03  0.92024343002E+02 0.  0.
        -24    2    1    2    0    0 -0.16486474827E+03 -0.16871607752E+03  0.22196661212E+03  0.33380233369E+03  0.80680363431E+02 0.  0.
         11    1    4    4    0    0 -0.79092835414E+02 -0.95571676377E+02  0.16796324908E+03  0.20880918318E+03  0.00000000000E+00 0. -1.
        -12    1    4    4    0    0 -0.85771912853E+02 -0.73144401147E+02  0.54003363034E+02  0.12499315050E+03  0.00000000000E+00 0.  1.
        -13    1    3    3    0    0  0.17568701965E+02  0.31126259557E+02  0.32023536031E+01  0.35885350651E+02  0.00000000000E+00 0.  1.
         13    1    3    3    0    0 -0.66523188504E+02 -0.94029345651E+01 -0.31995380340E+02  0.74414072259E+02  0.00000000000E+00 0. -1.
         21    1    1    2  502  501  0.21381923481E+03  0.14699275253E+03  0.61365947842E+02  0.26662954455E+03  0.00000000000E+00 0.  1.
<scales pt_clust_5="13000.00000" pt_clust_6="13000.00000" pt_clust_7="13000.00000" pt_clust_8="13000.00000" pt_clust_9="243.12547"></scales>
<clustering>
<clus scale="   80.680">  5  6 -1 -1</clus>
<clus scale="   92.024">  7  8 -1 -1</clus>
<clus scale="  106.475">  2  7  1 -1</clus>
<clus scale="  243.125">  2  9  1 -1</clus>
<clus scale="  256.163">  1  5  2 -1</clus>
</clustering>
</event>
<event>
 9    1  0.1973774E-005  0.1031778E+03  0.7546771E-02  0.1278305E+00
          1   -1    0    0  502    0  0.00000000000E+00  0.00000000000E+00  0.14574614077E+03  0.14574614077E+03  0.00000000000E+00 0. -1.
         -2   -1    0    0    0  501 -0.00000000000E+00 -0.00000000000E+00 -0.17289374584E+03  0.17289374584E+03  0.00000000000E+00 0.  1.
         23    2    1    2    0    0  0.20284863283E+02  0.58547843038E+02 -0.11090675330E+03  0.15566720903E+03  0.89959137591E+02 0.  0.
        -24    2    1    2    0    0 -0.66858758887E+01 -0.23994879955E+02  0.15324738577E+02  0.85113136491E+02  0.79930865068E+02 0.  0.
         11    1    4    4    0    0  0.32166347552E+02 -0.26005368820E+02  0.19970947069E+02  0.45932470531E+02  0.00000000000E+00 0. -1.
        -12    1    4    4    0    0 -0.38852223440E+02  0.20104888650E+01 -0.46462084919E+01  0.39180665960E+02  0.00000000000E+00 0.  1.
        -13    1    3    3    0    0 -0.10909290416E+02  0.73688176757E+02 -0.73098108067E+02  0.10436615071E+03  0.00000000000E+00 0.  1.
         13    1    3    3    0    0  0.31194153699E+02 -0.15140333719E+02 -0.37808645232E+02  0.51301058316E+02  0.00000000000E+00 0. -1.
         21    1    1    2  502  501 -0.13598987394E+02 -0.34552963083E+02  0.68434409652E+02  0.77859541100E+02  0.00000000000E+00 0. -1.
<scales pt_clust_5="13000.00000" pt_clust_6="13000.00000" pt_clust_7="13000.00000" pt_clust_8="13000.00000" pt_clust_9="37.13273"></scales>
<clustering>
<clus scale="   37.133">  1  9  2 -1</clus>
<clus scale="   79.931">  5  6 -1 -1</clus>
<clus scale="   89.959">  7  8 -1 -1</clus>
<clus scale="   94.562">  1  5  2 -1</clus>
<clus scale="   37.133">  1  5  2 -1</clus>
</clustering>
</event>
<event>
 9    1  0.1973774E-005  0.1273938E+03  0.7546771E-02  0.1235262E+00
          1   -1    0    0  502    0  0.00000000000E+00  0.00000000000E+00  0.82455976484E+03  0.82455976484E+03  0.00000000000E+00 0. -1.
         -2   -1    0    0    0  501 -0.00000000000E+00 -0.00000000000E+00 -0.88698175080E+02  0.88698175080E+02  0.00000000000E+00 0.  1.
         23    2    1    2    0    0 -0.54778407987E+02  0.67495002454E+02 -0.30671499165E+02  0.13039389650E+03  0.92225690807E+02 0.  0.
        -24    2    1    2    0    0  0.53693148082E+02 -0.87663852687E+02  0.72791460893E+03  0.73928254154E+03  0.78173480931E+02 0.  0.
         13    1    4    4    0    0  0.57837558328E+02 -0.33014056568E+02  0.26964446948E+03  0.27774673896E+03  0.00000000000E+00 0. -1.
        -14    1    4    4    0    0 -0.41444102454E+01 -0.54649796119E+02  0.45827013945E+03  0.46153580258E+03  0.00000000000E+00 0.  1.
        -13    1    3    3    0    0 -0.26805204929E+02 -0.18021725571E+02 -0.23866973816E+02  0.40161350114E+02  0.00000000000E+00 0. -1.
         13    1    3    3    0    0 -0.27973203059E+02  0.85516728026E+02 -0.68045253492E+01  0.90232546383E+02  0.00000000000E+00 0.  1.
         21    1    1    2  502  501  0.10852599054E+01  0.20168850233E+02  0.38618479998E+02  0.43581501880E+02  0.00000000000E+00 0. -1.
<scales pt_clust_5="13000.00000" pt_clust_6="13000.00000" pt_clust_7="13000.00000" pt_clust_8="13000.00000" pt_clust_9="20.19803"></scales>
<clustering>
<clus scale="   20.198">  1  9  2 -1</clus>
<clus scale="   78.173">  5  6 -1 -1</clus>
<clus scale="   92.226">  7  8 -1 -1</clus>
<clus scale="  117.621">  1  5  2 -1</clus>
<clus scale="   20.198">  1  5  2 -1</clus>
</clustering>
</event>
<event>
 9    1  0.1973774E-005  0.1210387E+03  0.7546771E-02  0.1251185E+00
          3   -1    0    0  502    0  0.00000000000E+00  0.00000000000E+00  0.38964350621E+03  0.38964350621E+03  0.00000000000E+00 0. -1.
         -4   -1    0    0    0  501 -0.00000000000E+00 -0.00000000000E+00 -0.13113749207E+03  0.13113749207E+03  0.00000000000E+00 0.  1.
        -24    2    1    2    0    0  0.76787333952E+02  0.20264860819E+02 -0.36480939724E+02  0.11701320279E+03  0.77809198839E+02 0.  0.
         23    2    1    2    0    0  0.34424653184E+02  0.21436201901E+02  0.26240699373E+03  0.28060717469E+03  0.90765569621E+02 0.  0.
         13    1    3    3    0    0  0.44020059421E+02  0.49797082391E+02 -0.15917259306E+02  0.68343794084E+02  0.00000000000E+00 0. -1.
        -14    1    3    3    0    0  0.32767274531E+02 -0.29532221572E+02 -0.20563680418E+02  0.48669408703E+02  0.00000000000E+00 0.  1.
        -13    1    4    4    0    0  0.16234728576E+02 -0.35822611143E+02  0.10515406900E+03  0.11226844663E+03  0.00000000000E+00 0.  1.
         13    1    4    4    0    0  0.18189924607E+02  0.57258813044E+02  0.15725292473E+03  0.16833872806E+03  0.00000000000E+00 0. -1.
         21    1    1    2  502  501 -0.11121198714E+03 -0.41701062720E+02  0.32579960128E+02  0.12316062080E+03  0.00000000000E+00 0.  1.
<scales pt_clust_5="13000.00000" pt_clust_6="13000.00000" pt_clust_7="13000.00000" pt_clust_8="13000.00000" pt_clust_9="92.71518"></scales>
<clustering>
<clus scale="   77.809">  5  6 -1 -1</clus>
<clus scale="   90.766">  7  8 -1 -1</clus>
<clus scale="   99.413">  1  7  2 -1</clus>
<clus scale="   92.715">  1  9  2 -1</clus>
<clus scale="   99.413">  1  5  2 -1</clus>
</clustering>
</event>
<event>
 9    1  0.1973774E-005  0.1090822E+03  0.7546771E-02  0.1269033E+00
         -2   -1    0    0    0  501 -0.00000000000E+00  0.00000000000E+00  0.51105031498E+02  0.51105031498E+02  0.00000000000E+00 0.  1.
          1   -1    0    0  502    0  0.00000000000E+00 -0.00000000000E+00 -0.42647263214E+03  0.42647263214E+03  0.00000000000E+00 0. -1.
        -24    2    1    2    0    0  0.29797207922E+02  0.27318098394E+02 -0.43660666104E+02  0.10013719721E+03  0.80542239856E+02 0.  0.
         23    2    1    2    0    0 -0.58376527223E+02 -0.65095097127E+02 -0.21137992614E+03  0.24812508422E+03  0.96121764672E+02 0.  0.
         13    1    3    3    0    0  0.38600816782E+02 -0.15933927438E+02 -0.36415578737E+02  0.55407648160E+02  0.00000000000E+00 0. -1.
        -14    1    3    3    0    0 -0.88036088593E+01  0.43252025832E+02 -0.72450873673E+01  0.44729549053E+02  0.00000000000E+00 0.  1.
        -11    1    4    4    0    0 -0.26215493562E+01 -0.67200713257E+02 -0.74796154913E+02  0.10058465675E+03  0.00000000000E+00 0. -1.
         11    1    4    4    0    0 -0.55754977867E+02  0.21056161307E+01 -0.13658377122E+03  0.14754042747E+03  0.00000000000E+00 0.  1.
         21    1    1    2  502  501  0.28579319300E+02  0.37776998732E+02 -0.12032700840E+03  0.12931538221E+03  0.00000000000E+00 0.  1.
<scales pt_clust_5="13000.00000" pt_clust_6="13000.00000" pt_clust_7="13000.00000" pt_clust_8="13000.00000" pt_clust_9="47.36960"></scales>
<clustering>
<clus scale="   47.370">  2  9  1 -1</clus>
<clus scale="   80.542">  5  6 -1 -1</clus>
<clus scale="   95.638">  1  5  2 -1</clus>
<clus scale="   96.122">  7  8 -1 -1</clus>
<clus scale="   47.370">  2  5  1 -1</clus>
</clustering>
</event>
<event>
 9    1  0.1973774E-005  0.1475380E+03  0.7546771E-02  0.1205336E+00
          3   -1    0    0  502    0  0.00000000000E+00  0.00000000000E+00  0.73299710516E+03  0.73299710516E+03  0.00000000000E+00 0. -1.
         -4   -1    0    0    0  501 -0.00000000000E+00 -0.00000000000E+00 -0.14466897938E+03  0.14466897938E+03  0.00000000000E+00 0.  1.
        -24    2    1    2    0    0  0.10770886329E+03 -0.43920082231E+02 -0.61740417595E+02  0.15518112807E+03  0.82092207247E+02 0.  0.
         23    2    1    2    0    0 -0.14391752553E+03 -0.78402957987E+02  0.38991726966E+03  0.43273907021E+03  0.91478673606E+02 0.  0.
         11    1    3    3    0    0 -0.72103050620E+01 -0.19409809221E+02 -0.24149409976E+02  0.31810740251E+02  0.00000000000E+00 0. -1.
        -12    1    3    3    0    0  0.11491916835E+03 -0.24510273009E+02 -0.37591007619E+02  0.12337038782E+03  0.00000000000E+00 0.  1.
        -11    1    4    4    0    0 -0.79294981972E+02  0.29397592349E+01  0.12362598612E+03  0.14690037711E+03  0.00000000000E+00 0. -1.
         11    1    4    4    0    0 -0.64622543561E+02 -0.81342717222E+02  0.26629128354E+03  0.28583869309E+03  0.00000000000E+00 0.  1.
         21    1    1    2  502  501  0.36208662245E+02  0.12232304022E+03  0.26015127371E+03  0.28974588626E+03  0.00000000000E+00 0.  1.
<scales pt_clust_5="13000.00000" pt_clust_6="13000.00000" pt_clust_7="13000.00000" pt_clust_8="13000.00000" pt_clust_9="127.56956"></scales>
<clustering>
<clus scale="   82.092">  5  6 -1 -1</clus>
<clus scale="   91.479">  7  8 -1 -1</clus>
<clus scale="  127.570">  1  9  2 -1</clus>
<clus scale="  141.909">  2  5  1 -1</clus>
<clus scale="  127.570">  1  5  2 -1</clus>
</clustering>
</event>
<event>
 9    1  0.1973774E-005  0.1795770E+03  0.7546771E-02  0.1169425E+00
          1   -1    0    0  502    0  0.00000000000E+00  0.00000000000E+00  0.29792422991E+03  0.29792422991E+03  0.00000000000E+00 0. -1.
         -2   -1    0    0    0  501 -0.00000000000E+00 -0.00000000000E+00 -0.42166152106E+03  0.42166152106E+03  0.00000000000E+00 0.  1.
         23    2    1    2    0    0 -0.13905564938E+03 -0.84641487379E+02 -0.34688928096E+03  0.39372368097E+03  0.90473801164E+02 0.  0.
        -24    2    1    2    0    0  0.58499697220E+02  0.59755185473E+02  0.21091466721E+03  0.24066616918E+03  0.80264010474E+02 0.  0.
         11    1    4    4    0    0  0.54985090692E+02  0.78173570345E+02  0.18924833576E+03  0.21201273520E+03  0.00000000000E+00 0. -1.
        -12    1    4    4    0    0  0.35146065281E+01 -0.18418384873E+02  0.21666331457E+02  0.28653433985E+02  0.00000000000E+00 0.  1.
        -13    1    3    3    0    0 -0.19170427995E+02  0.15389846985E+02 -0.88243644004E+02  0.91604003225E+02  0.00000000000E+00 0. -1.
         13    1    3    3    0    0 -0.11988522139E+03 -0.10003133436E+03 -0.25864563696E+03  0.30211967774E+03  0.00000000000E+00 0.  1.
         21    1    1    2  502  501  0.80555952163E+02  0.24886301907E+02  0.12237322599E+02  0.85195900816E+02  0.00000000000E+00 0. -1.
<scales pt_clust_5="13000.00000" pt_clust_6="13000.00000" pt_clust_7="13000.00000" pt_clust_8="13000.00000" pt_clust_9="84.31245"></scales>
<clustering>
<clus scale="   80.264">  5  6 -1 -1</clus>
<clus scale="   84.312">  1  9  2 -1</clus>
<clus scale="   90.474">  7  8 -1 -1</clus>
<clus scale="  174.656">  1  5  2 -1</clus>
<clus scale="   84.312">  1  5  2 -1</clus>
</clustering>
</event>
<event>
 9    1  0.1973774E-005  0.1243761E+03  0.7546771E-02  0.1239622E+00
          1   -1    0    0  502    0  0.00000000000E+00  0.00000000000E+00  0.13538888995E+03  0.13538888995E+03  0.00000000000E+00 0. -1.
         -2   -1    0    0    0  501 -0.00000000000E+00 -0.00000000000E+00 -0.24710669508E+03  0.24710669508E+03  0.00000000000E+00 0.  1.
        -24    2    1    2    0    0  0.18147356161E+02 -0.79009019559E+02 -0.17293079337E+03  0.20668006597E+03  0.78992649454E+02 0.  0.
         23    2    1    2    0    0 -0.11333672439E+02  0.10357919104E+03  0.45308985237E+02  0.14576461352E+03  0.91308912300E+02 0.  0.
         13    1    3    3    0    0  0.25766880699E+02  0.12791668575E+00 -0.81708013851E+02  0.85674663881E+02  0.00000000000E+00 0. -1.
        -14    1    3    3    0    0 -0.76195245377E+01 -0.79136936244E+02 -0.91222779520E+02  0.12100540209E+03  0.00000000000E+00 0.  1.
        -11    1    4    4    0    0  0.10917843314E+02  0.41576772737E+02 -0.24747865386E+02  0.49601251749E+02  0.00000000000E+00 0.  1.
         11    1    4    4    0    0 -0.22251515753E+02  0.62002418299E+02  0.70056850624E+02  0.96163361774E+02  0.00000000000E+00 0. -1.
         21    1    1    2  502  501 -0.68136837223E+01 -0.24570171477E+02  0.15904003000E+02  0.30050905539E+02  0.00000000000E+00 0. -1.
<scales pt_clust_5="13000.00000" pt_clust_6="13000.00000" pt_clust_7="13000.00000" pt_clust_8="13000.00000" pt_clust_9="25.49744"></scales>
<clustering>
<clus scale="   25.497">  1  9  2 -1</clus>
<clus scale="   78.993">  5  6 -1 -1</clus>
<clus scale="   91.309">  7  8 -1 -1</clus>
<clus scale="  115.637">  2  5  1 -1</clus>
<clus scale="   25.497">  1  5  2 -1</clus>
</clustering>
</event>
<event>
 9    1  0.1973774E-005  0.1404916E+03  0.7546771E-02  0.1214677E+00
         -2   -1    0    0    0  501 -0.00000000000E+00  0.00000000000E+00  0.29775786391E+03  0.29775786391E+03  0.00000000000E+00 0.  1.
          1   -1    0    0  502    0  0.00000000000E+00 -0.00000000000E+00 -0.74269107406E+03  0.74269107406E+03  0.00000000000E+00 0. -1.
        -24    2    1    2    0    0 -0.10080840951E+03 -0.38487663440E+02  0.27160418930E+03  0.30337398439E+03  0.81383678324E+02 0.  0.
         23    2    1    2    0    0  0.68260428645E+02  0.44348858645E+02 -0.66323866839E+03  0.67434952493E+03  0.90749342382E+02 0.  0.
         13    1    3    3    0    0 -0.56273400660E+02 -0.52218484726E+02  0.10308907964E+03  0.12853335796E+03  0.00000000000E+00 0. -1.
        -14    1    3    3    0    0 -0.44535008849E+02  0.13730821285E+02  0.16851510966E+03  0.17484062643E+03  0.00000000000E+00 0.  1.
        -11    1    4    4    0    0 -0.19190965071E+02  0.26028514248E+02 -0.15889757199E+03  0.16215491074E+03  0.00000000000E+00 0.  1.
         11    1    4    4    0    0  0.87451393716E+02  0.18320344396E+02 -0.50434109640E+03  0.51219461418E+03  0.00000000000E+00 0. -1.
         21    1    1    2  502  501  0.32547980864E+02 -0.58611952041E+01 -0.53298731057E+02  0.62725428654E+02  0.00000000000E+00 0. -1.
<scales pt_clust_5="13000.00000" pt_clust_6="13000.00000" pt_clust_7="13000.00000" pt_clust_8="13000.00000" pt_clust_9="33.07151"></scales>
<clustering>
<clus scale="   33.072">  2  9  1 -1</clus>
<clus scale="   81.384">  5  6 -1 -1</clus>
<clus scale="   90.749">  7  8 -1 -1</clus>
<clus scale="  134.632">  1  5  2 -1</clus>
<clus scale="   33.072">  2  5  1 -1</clus>
</clustering>
</event>
<event>
 9    1  0.1973774E-005  0.1505870E+03  0.7546771E-02  0.1200100E+00
          1   -1    0    0  502    0  0.00000000000E+00  0.00000000000E+00  0.12423227845E+03  0.12423227845E+03  0.00000000000E+00 0. -1.
         -2   -1    0    0    0  501 -0.00000000000E+00 -0.00000000000E+00 -0.21910906173E+03  0.21910906173E+03  0.00000000000E+00 0.  1.
        -24    2    1    2    0    0  0.80921110477E+02  0.98783796877E+02 -0.83038851060E+02  0.17592629790E+03  0.88023558566E+02 0.  0.
         23    2    1    2    0    0 -0.58871574641E+02 -0.95136744480E+02 -0.16800591267E+02  0.14452157145E+03  0.89929763125E+02 0.  0.
         11    1    3    3    0    0  0.80708478184E+02  0.66838153827E+02 -0.22062981635E+02  0.10708861945E+03  0.00000000000E+00 0. -1.
        -12    1    3    3    0    0  0.21263229283E+00  0.31945643050E+02 -0.60975869425E+02  0.68837678451E+02  0.00000000000E+00 0.  1.
        -13    1    4    4    0    0 -0.77503878294E+02 -0.70558174002E+02 -0.32737764939E+02  0.10980468261E+03  0.00000000000E+00 0.  1.
         13    1    4    4    0    0  0.18632303653E+02 -0.24578570478E+02  0.15937173672E+02  0.34716888841E+02  0.00000000000E+00 0. -1.
         21    1    1    2  502  501 -0.22049535836E+02 -0.36470523968E+01  0.49626590545E+01  0.22893470830E+02  0.00000000000E+00 0.  1.
<scales pt_clust_5="13000.00000" pt_clust_6="13000.00000" pt_clust_7="13000.00000" pt_clust_8="13000.00000" pt_clust_9="22.34912"></scales>
<clustering>
<clus scale="   22.349">  1  9  2 -1</clus>
<clus scale="   88.024">  5  6 -1 -1</clus>
<clus scale="   89.930">  7  8 -1 -1</clus>
<clus scale="  149.456">  2  5  1 -1</clus>
<clus scale="   22.349">  1  5  2 -1</clus>
</clustering>
</event>
<event>
 9    1  0.1973774E-005  0.2545162E+03  0.7546771E-02  0.1110983E+00
          1   -1    0    0  502    0  0.00000000000E+00  0.00000000000E+00  0.12186715594E+04  0.12186715594E+04  0.00000000000E+00 0. -1.
         -2   -1    0    0    0  501 -0.00000000000E+00 -0.00000000000E+00 -0.10330299868E+03  0.10330299868E+03  0.00000000000E+00 0.  1.
         23    2    1    2    0    0  0.73171199405E+02  0.25257407003E+03  0.15764870408E+03  0.31965698444E+03  0.90442183341E+02 0.  0.
        -24    2    1    2    0    0 -0.61842795384E+02 -0.14883178142E+03  0.72793394420E+03  0.74994411874E+03  0.80950130436E+02 0.  0.
         11    1    4    4    0    0 -0.70730126530E+02 -0.12541982209E+03  0.49062882358E+03  0.51132135208E+03  0.00000000000E+00 0. -1.
        -12    1    4    4    0    0  0.88873311468E+01 -0.23411959332E+02  0.23730512062E+03  0.23862276666E+03  0.00000000000E+00 0.  1.
        -13    1    3    3    0    0  0.23818746496E+02  0.86226315624E+01  0.56316830020E+00  0.25337711386E+02  0.00000000000E+00 0. -1.
         13    1    3    3    0    0  0.49352452908E+02  0.24395143846E+03  0.15708553578E+03  0.29431927305E+03  0.00000000000E+00 0.  1.
         21    1    1    2  502  501 -0.11328404021E+02 -0.10374228861E+03  0.22978591248E+03  0.25237345494E+03  0.00000000000E+00 0. -1.
<scales pt_clust_5="13000.00000" pt_clust_6="13000.00000" pt_clust_7="13000.00000" pt_clust_8="13000.00000" pt_clust_9="104.35897"></scales>
<clustering>
<clus scale="   80.950">  5  6 -1 -1</clus>
<clus scale="   90.442">  7  8 -1 -1</clus>
<clus scale="  104.359">  1  9  2 -1</clus>
<clus scale="  251.300">  1  5  2 -1</clus>
<clus scale="  104.359">  1  5  2 -1</clus>
</clustering>
</event>
<event>
 9    1  0.1973774E-005  0.1347993E+03  0.7546771E-02  0.1244375E+00
         -2   -1    0    0    0  501 -0.00000000000E+00  0.00000000000E+00  0.90052575212E+02  0.90052575212E+02  0.00000000000E+00 0.  1.
          1   -1    0    0  502    0  0.00000000000E+00 -0.00000000000E+00 -0.53758622807E+03  0.53758622807E+03  0.00000000000E+00 0. -1.
         23    2    1    2    0    0 -0.55668348361E+02 -0.73673201135E+02 -0.14081265097E+03  0.18875005436E+03  0.85274115503E+02 0.  0.
        -24    2    1    2    0    0 -0.13586060192E+02 -0.91051666052E+01 -0.31970899422E+03  0.33018217500E+03  0.80863728654E+02 0.  0.
         13    1    4    4    0    0  0.22127110191E+02  0.13818672913E+02 -0.43429884858E+02  0.50662803172E+02  0.00000000000E+00 0. -1.
        -14    1    4    4    0    0 -0.35713170382E+02 -0.22923839518E+02 -0.27627910936E+03  0.27951937183E+03  0.00000000000E+00 0.  1.
        -13    1    3    3    0    0 -0.69606383457E+02 -0.23339656355E+02 -0.79680264231E+02  0.10834543223E+03  0.00000000000E+00 0.  1.
         13    1    3    3    0    0  0.13938035096E+02 -0.50333544781E+02 -0.61132386739E+02  0.80404622137E+02  0.00000000000E+00 0. -1.
         21    1    1    2  502  501  0.69254408552E+02  0.82778367741E+02  0.12987992324E+02  0.10870657392E+03  0.00000000000E+00 0.  1.
<scales pt_clust_5="13000.00000" pt_clust_6="13000.00000" pt_clust_7="13000.00000" pt_clust_8="13000.00000" pt_clust_9="104.39908"></scales>
<clustering>
<clus scale="   80.864">  5  6 -1 -1</clus>
<clus scale="   82.501">  2  5  1 -1</clus>
<clus scale="   85.274">  7  8 -1 -1</clus>
<clus scale="  104.399">  1  9  2 -1</clus>
<clus scale="   82.501">  2  5  1 -1</clus>
</clustering>
</event>
<event>
 9    1  0.1973774E-005  0.9206283E+02  0.7546771E-02  0.1303158E+00
         -4   -1    0    0    0  501 -0.00000000000E+00  0.00000000000E+00  0.25896918748E+03  0.25896918748E+03  0.00000000000E+00 0.  1.
          3   -1    0    0  502    0  0.00000000000E+00 -0.00000000000E+00 -0.43930628283E+02  0.43930628283E+02  0.00000000000E+00 0. -1.
        -24    2    1    2    0    0 -0.32684382430E+02 -0.44035464782E+01  0.13192203832E+03  0.15766431739E+03  0.79793187101E+02 0.  0.
         23    2    1    2    0    0  0.98962480635E+01 -0.12374132668E+02  0.55813890922E+02  0.10591345382E+03  0.88608207264E+02 0.  0.
         11    1    3    3    0    0  0.17627079333E+01 -0.35404920605E+02  0.33029846918E+02  0.48451897070E+02  0.00000000000E+00 0. -1.
        -12    1    3    3    0    0 -0.34447090363E+02  0.31001374127E+02  0.98892191401E+02  0.10921242032E+03  0.00000000000E+00 0.  1.
        -13    1    4    4    0    0 -0.13018929618E+02 -0.31274965427E+02 -0.86254323176E+01  0.34957317882E+02  0.00000000000E+00 0. -1.
         13    1    4    4    0    0  0.22915177682E+02  0.18900832760E+02  0.64439323239E+02  0.70956135934E+02  0.00000000000E+00 0.  1.
         21    1    1    2  502  501  0.22788134366E+02  0.16777679146E+02  0.27302629955E+02  0.39322044554E+02  0.00000000000E+00 0. -1.
<scales pt_clust_5="13000.00000" pt_clust_6="13000.00000" pt_clust_7="13000.00000" pt_clust_8="13000.00000" pt_clust_9="28.29823"></scales>
<clustering>
<clus scale="   28.298">  2  9  1 -1</clus>
<clus scale="   79.793">  5  6 -1 -1</clus>
<clus scale="   83.613">  1  5  2 -1</clus>
<clus scale="   88.608">  7  8 -1 -1</clus>
<clus scale="   28.298">  2  5  1 -1</clus>
</clustering>
</event>
<event>
 9    1  0.1973774E-005  0.9416737E+02  0.7546771E-02  0.1297083E+00
          1   -1    0    0  502    0  0.00000000000E+00  0.00000000000E+00  0.14381739428E+03  0.14381739428E+03  0.00000000000E+00 0. -1.
         -2   -1    0    0    0  501 -0.00000000000E+00 -0.00000000000E+00 -0.21083234620E+03  0.21083234620E+03  0.00000000000E+00 0.  1.
        -24    2    1    2    0    0 -0.46984127350E+01 -0.41853798960E+01 -0.10774777236E+03  0.13752437942E+03  0.85227812356E+02 0.  0.
         23    2    1    2    0    0  0.74444779220E+02 -0.34718281435E+02 -0.77469075805E+01  0.12369980496E+03  0.92164217298E+02 0.  0.
         13    1    3    3    0    0 -0.37283241152E+02  0.21822733731E+02 -0.62730491089E+02  0.76166831958E+02  0.00000000000E+00 0. -1.
        -14    1    3    3    0    0  0.32584828417E+02 -0.26008113627E+02 -0.45017281271E+02  0.61357547461E+02  0.00000000000E+00 0.  1.
        -13    1    4    4    0    0  0.68143327623E+02 -0.59466398874E+02  0.12245379816E+02  0.91267272455E+02  0.00000000000E+00 0.  1.
         13    1    4    4    0    0  0.63014515975E+01  0.24748117439E+02 -0.19992287397E+02  0.32432532500E+02  0.00000000000E+00 0. -1.
         21    1    1    2  502  501 -0.69746366485E+02  0.38903661331E+02  0.48479728022E+02  0.93425556096E+02  0.00000000000E+00 0. -1.
<scales pt_clust_5="13000.00000" pt_clust_6="13000.00000" pt_clust_7="13000.00000" pt_clust_8="13000.00000" pt_clust_9="79.86270"></scales>
<clustering>
<clus scale="   79.863">  1  9  2 -1</clus>
<clus scale="   85.228">  5  6 -1 -1</clus>
<clus scale="   87.390">  2  5  1 -1</clus>
<clus scale="   92.164">  7  8 -1 -1</clus>
<clus scale="   79.863">  1  5  2 -1</clus>
</clustering>
</event>
<event>
 9    1  0.1973774E-005  0.1669414E+03  0.7546771E-02  0.1181898E+00
         -2   -1    0    0    0  501 -0.00000000000E+00  0.00000000000E+00  0.75873924233E+02  0.75873924233E+02  0.00000000000E+00 0.  1.
          1   -1    0    0  502    0  0.00000000000E+00 -0.00000000000E+00 -0.43422619021E+03  0.43422619021E+03  0.00000000000E+00 0. -1.
         23    2    1    2    0    0 -0.62844821444E+01 -0.12956746769E+03 -0.15343745480E+03  0.21917704047E+03  0.87568825115E+02 0.  0.
        -24    2    1    2    0    0 -0.74105004650E+01  0.15625441124E+03 -0.17229533471E+03  0.24660856451E+03  0.81607261792E+02 0.  0.
         13    1    4    4    0    0  0.31207085347E+02  0.11399364860E+03 -0.12804548601E+03  0.17425292131E+03  0.00000000000E+00 0. -1.
        -14    1    4    4    0    0 -0.38617585812E+02  0.42260762636E+02 -0.44249848695E+02  0.72355643194E+02  0.00000000000E+00 0.  1.
        -13    1    3    3    0    0 -0.45817967266E+02 -0.65102929527E+02 -0.64677070603E+02  0.10257095602E+03  0.00000000000E+00 0.  1.
         13    1    3    3    0    0  0.39533485121E+02 -0.64464538163E+02 -0.88760384200E+02  0.11660608445E+03  0.00000000000E+00 0. -1.
         21    1    1    2  502  501  0.13694982609E+02 -0.26686943548E+02 -0.32619476465E+02  0.44314509469E+02  0.00000000000E+00 0. -1.
<scales pt_clust_5="13000.00000" pt_clust_6="13000.00000" pt_clust_7="13000.00000" pt_clust_8="13000.00000" pt_clust_9="29.99576"></scales>
<clustering>
<clus scale="   29.996">  2  9  1 -1</clus>
<clus scale="   81.607">  5  6 -1 -1</clus>
<clus scale="   87.569">  7  8 -1 -1</clus>
<clus scale="  163.893">  2  5  1 -1</clus>
<clus scale="   29.996">  2  5  1 -1</clus>
</clustering>
</event>
<event>
 9    1  0.1973774E-005  0.9302719E+02  0.7546771E-02  0.1301859E+00
         -2   -1    0    0    0  501 -0.00000000000E+00  0.00000000000E+00  0.96703785792E+02  0.96703785792E+02  0.00000000000E+00 0.  1.
          1   -1    0    0  502    0  0.00000000000E+00 -0.00000000000E+00 -0.49962519374E+03  0.49962519374E+03  0.00000000000E+00 0. -1.
         23    2    1    2    0    0  0.30146033588E+01  0.22317683937E+02  0.63049344388E+02  0.11265730254E+03  0.90605083405E+02 0.  0.
        -24    2    1    2    0    0 -0.27027818062E+02  0.63195660727E+01 -0.38825260044E+03  0.39743457533E+03  0.80272785263E+02 0.  0.
         13    1    4    4    0    0 -0.11991241432E+02 -0.36353343203E+02 -0.14251543142E+03  0.14756694625E+03  0.00000000000E+00 0. -1.
        -14    1    4    4    0    0 -0.15036576630E+02  0.42672909276E+02 -0.24573716902E+03  0.24986762908E+03  0.00000000000E+00 0.  1.
        -13    1    3    3    0    0  0.28350363648E+02 -0.25404038273E+02  0.17104046353E+02  0.41733160451E+02  0.00000000000E+00 0.  1.
         13    1    3    3    0    0 -0.25335760290E+02  0.47721722209E+02  0.45945298035E+02  0.70924142093E+02  0.00000000000E+00 0. -1.
         21    1    1    2  502  501  0.24013214703E+02 -0.28637250009E+02 -0.77718151894E+02  0.86237101657E+02  0.00000000000E+00 0. -1.
<scales pt_clust_5="13000.00000" pt_clust_6="13000.00000" pt_clust_7="13000.00000" pt_clust_8="13000.00000" pt_clust_9="37.37281"></scales>
<clustering>
<clus scale="   37.373">  2  9  1 -1</clus>
<clus scale="   80.273">  5  6 -1 -1</clus>
<clus scale="   82.997">  2  5  1 -1</clus>
<clus scale="   90.605">  7  8 -1 -1</clus>
<clus scale="   37.373">  2  5  1 -1</clus>
</clustering>
</event>
<event>
 9    1  0.1973774E-005  0.1122849E+03  0.7546771E-02  0.1260531E+00
          1   -1    0    0  502    0  0.00000000000E+00  0.00000000000E+00  0.10499068209E+03  0.10499068209E+03  0.00000000000E+00 0. -1.
         -2   -1    0    0    0  501 -0.00000000000E+00 -0.00000000000E+00 -0.14765103795E+03  0.14765103795E+03  0.00000000000E+00 0.  1.
        -24    2    1    2    0    0 -0.66926538915E+02 -0.40137221460E+02 -0.46651766873E+02  0.11975939330E+03  0.77947205035E+02 0.  0.
         23    2    1    2    0    0  0.51912831747E+02  0.18782533728E+02 -0.54719158157E+01  0.10511564444E+03  0.89283991678E+02 0.  0.
         13    1    3    3    0    0 -0.50821578290E+02  0.14885190830E+02 -0.23273066366E+02  0.57844942251E+02  0.00000000000E+00 0. -1.
        -14    1    3    3    0    0 -0.16104960626E+02 -0.55022412290E+02 -0.23378700508E+02  0.61914451047E+02  0.00000000000E+00 0.  1.
        -13    1    4    4    0    0  0.60201393910E+02 -0.57101893510E+01 -0.31706964877E+02  0.68279907094E+02  0.00000000000E+00 0. -1.
         13    1    4    4    0    0 -0.82885621625E+01  0.24492723079E+02  0.26235049061E+02  0.36835737345E+02  0.00000000000E+00 0.  1.
         21    1    1    2  502  501  0.15013707168E+02  0.21354687732E+02  0.94633268317E+01  0.27766682297E+02  0.00000000000E+00 0.  1.
<scales pt_clust_5="13000.00000" pt_clust_6="13000.00000" pt_clust_7="13000.00000" pt_clust_8="13000.00000" pt_clust_9="26.10429"></scales>
<clustering>
<clus scale="   26.104">  1  9  2 -1</clus>
<clus scale="   77.947">  5  6 -1 -1</clus>
<clus scale="   89.284">  7  8 -1 -1</clus>
<clus scale="  103.499">  2  5  1 -1</clus>
<clus scale="   26.104">  1  5  2 -1</clus>
</clustering>
</event>
<event>
 9    1  0.1973774E-005  0.1142046E+03  0.7546771E-02  0.1261947E+00
          1   -1    0    0  502    0  0.00000000000E+00  0.00000000000E+00  0.28538176083E+03  0.28538176083E+03  0.00000000000E+00 0. -1.
         -2   -1    0    0    0  501 -0.00000000000E+00 -0.00000000000E+00 -0.67135589412E+02  0.67135589412E+02  0.00000000000E+00 0.  1.
        -24    2    1    2    0    0 -0.12945401008E+02  0.68219056430E+02  0.15471543105E+02  0.99109759399E+02  0.69006903240E+02 0.  0.
         23    2    1    2    0    0 -0.22860255657E+02 -0.60685195451E+02  0.13425206330E+03  0.17572782497E+03  0.93012728869E+02 0.  0.
         13    1    3    3    0    0 -0.15571081217E+02  0.25639428583E+02  0.39924462393E+02  0.49937977189E+02  0.00000000000E+00 0. -1.
        -14    1    3    3    0    0  0.26256802092E+01  0.42579627846E+02 -0.24452919288E+02  0.49171782211E+02  0.00000000000E+00 0.  1.
        -13    1    4    4    0    0  0.17390486078E+02 -0.59419159761E+02  0.41287838880E+02  0.74416068105E+02  0.00000000000E+00 0.  1.
         13    1    4    4    0    0 -0.40250741735E+02 -0.12660356894E+01  0.92964224418E+02  0.10131175686E+03  0.00000000000E+00 0. -1.
         21    1    1    2  502  501  0.35805656665E+02 -0.75338609789E+01  0.68522565020E+02  0.77679765881E+02  0.00000000000E+00 0.  1.
<scales pt_clust_5="13000.00000" pt_clust_6="13000.00000" pt_clust_7="13000.00000" pt_clust_8="13000.00000" pt_clust_9="36.58967"></scales>
<clustering>
<clus scale="   36.590">  1  9  2 -1</clus>
<clus scale="   69.007">  5  6 -1 -1</clus>
<clus scale="   93.013">  7  8 -1 -1</clus>
<clus scale="   95.673">  2  5  1 -1</clus>
<clus scale="   36.590">  1  5  2 -1</clus>
</clustering>
</event>
<event>
 9    1  0.1973774E-005  0.2587293E+03  0.7546771E-02  0.1138345E+00
         -2   -1    0    0    0  501 -0.00000000000E+00  0.00000000000E+00  0.21496989785E+03  0.21496989785E+03  0.00000000000E+00 0.  1.
          1   -1    0    0  502    0  0.00000000000E+00 -0.00000000000E+00 -0.10316441125E+04  0.10316441125E+04  0.00000000000E+00 0. -1.
        -24    2    1    2    0    0 -0.45626011590E+02  0.24894602867E+03  0.85085251253E+02  0.28001511942E+03  0.84339249457E+02 0.  0.
         23    2    1    2    0    0 -0.13795012939E+02 -0.79204242522E+02 -0.14658337614E+03  0.19030380614E+03  0.90913354654E+02 0.  0.
         13    1    3    3    0    0  0.21526175757E+02  0.40935946968E+02  0.23840728697E+01  0.46312112890E+02  0.00000000000E+00 0. -1.
        -14    1    3    3    0    0 -0.67152187347E+02  0.20801008171E+03  0.82701178383E+02  0.23370300653E+03  0.00000000000E+00 0.  1.
        -13    1    4    4    0    0  0.17754056075E+02  0.12167650237E+02 -0.12123433231E+02  0.24702952308E+02  0.00000000000E+00 0. -1.
         13    1    4    4    0    0 -0.31549069014E+02 -0.91371892759E+02 -0.13445994291E+03  0.16560085383E+03  0.00000000000E+00 0.  1.
         21    1    1    2  502  501  0.59421024529E+02 -0.16974178615E+03 -0.75517608971E+03  0.77629508474E+03  0.00000000000E+00 0. -1.
<scales pt_clust_5="13000.00000" pt_clust_6="13000.00000" pt_clust_7="13000.00000" pt_clust_8="13000.00000" pt_clust_9="244.59707"></scales>
<clustering>
<clus scale="   84.339">  5  6 -1 -1</clus>
<clus scale="   90.913">  7  8 -1 -1</clus>
<clus scale="  121.362">  2  7  1 -1</clus>
<clus scale="  244.597">  2  9  1 -1</clus>
<clus scale="  121.362">  2  5  1 -1</clus>
</clustering>
</event>
<event>
 9    1  0.1973774E-005  0.1333353E+03  0.7546771E-02  0.1225025E+00
          1   -1    0    0  502    0  0.00000000000E+00  0.00000000000E+00  0.13974806093E+03  0.13974806093E+03  0.00000000000E+00 0. -1.
         -2   -1    0    0    0  501 -0.00000000000E+00 -0.00000000000E+00 -0.24160017721E+03  0.24160017721E+03  0.00000000000E+00 0.  1.
         23    2    1    2    0    0  0.10592144760E+03 -0.25563007453E+02 -0.16584965437E+03  0.21834791637E+03  0.91087234659E+02 0.  0.
        -24    2    1    2    0    0 -0.63517176272E+02  0.60108785054E+01  0.42794645074E+02  0.11171708235E+03  0.81109570952E+02 0.  0.
         11    1    4    4    0    0 -0.41965173576E+02  0.42554563032E+02  0.17295244008E+02  0.62218101011E+02  0.00000000000E+00 0. -1.
        -12    1    4    4    0    0 -0.21552002695E+02 -0.36543684527E+02  0.25499401066E+02  0.49498981340E+02  0.00000000000E+00 0.  1.
        -11    1    3    3    0    0  0.28680343924E+02  0.18284531815E+02 -0.46915533733E+01  0.34335068143E+02  0.00000000000E+00 0. -1.
         11    1    3    3    0    0  0.77241103678E+02 -0.43847539268E+02 -0.16115810099E+03  0.18401284823E+03  0.00000000000E+00 0.  1.
         21    1    1    2  502  501 -0.42404271331E+02  0.19552128948E+02  0.21202893010E+02  0.51283239421E+02  0.00000000000E+00 0. -1.
<scales pt_clust_5="13000.00000" pt_clust_6="13000.00000" pt_clust_7="13000.00000" pt_clust_8="13000.00000" pt_clust_9="46.69484"></scales>
<clustering>
<clus scale="   46.695">  1  9  2 -1</clus>
<clus scale="   81.110">  5  6 -1 -1</clus>
<clus scale="   91.087">  7  8 -1 -1</clus>
<clus scale="  126.729">  1  5  2 -1</clus>
<clus scale="   46.695">  1  5  2 -1</clus>
</clustering>
</event>
<event>
 9    1  0.1973774E-005  0.1044485E+03  0.7546771E-02  0.1277901E+00
         -2   -1    0    0    0  501 -0.00000000000E+00  0.00000000000E+00  0.16006319294E+03  0.16006319294E+03  0.00000000000E+00 0.  1.
          1   -1    0    0  502    0  0.00000000000E+00 -0.00000000000E+00 -0.12848935698E+03  0.12848935698E+03  0.00000000000E+00 0. -1.
        -24    2    1    2    0    0 -0.73239116294E+01 -0.54194450056E+02  0.95989157623E+02  0.13621591985E+03  0.79688018808E+02 0.  0.
         23    2    1    2    0    0  0.11333907652E+02  0.11990274717E+02 -0.39981031020E+02  0.10340497321E+03  0.93924871530E+02 0.  0.
         13    1    3    3    0    0 -0.41544196693E+02 -0.21333790681E+02  0.32235751503E+02  0.56746758309E+02  0.00000000000E+00 0. -1.
        -14    1    3    3    0    0  0.34220285063E+02 -0.32860659375E+02  0.63753406120E+02  0.79469161543E+02  0.00000000000E+00 0.  1.
        -11    1    4    4    0    0  0.26367688212E+02 -0.10985497925E+02  0.21710745244E+02  0.35878860146E+02  0.00000000000E+00 0.  1.
         11    1    4    4    0    0 -0.15033780560E+02  0.22975772642E+02 -0.61691776264E+02  0.67526113060E+02  0.00000000000E+00 0. -1.
         21    1    1    2  502  501 -0.40099960229E+01  0.42204175339E+02 -0.24434290642E+02  0.48931656862E+02  0.00000000000E+00 0. -1.
<scales pt_clust_5="13000.00000" pt_clust_6="13000.00000" pt_clust_7="13000.00000" pt_clust_8="13000.00000" pt_clust_9="42.39425"></scales>
<clustering>
<clus scale="   42.394">  2  9  1 -1</clus>
<clus scale="   79.688">  5  6 -1 -1</clus>
<clus scale="   91.857">  1  5  2 -1</clus>
<clus scale="   93.925">  7  8 -1 -1</clus>
<clus scale="   42.394">  2  5  1 -1</clus>
</clustering>
</event>
<event>
 9    1  0.1973774E-005  0.9096998E+02  0.7546771E-02  0.1305982E+00
         -2   -1    0    0    0  501 -0.00000000000E+00  0.00000000000E+00  0.62893279907E+02  0.62893279907E+02  0.00000000000E+00 0.  1.
          1   -1    0    0  502    0  0.00000000000E+00 -0.00000000000E+00 -0.43411744964E+03  0.43411744964E+03  0.00000000000E+00 0. -1.
        -24    2    1    2    0    0  0.35911668910E+01  0.17202301990E+02  0.22937743088E+02  0.85483182383E+02  0.80451343923E+02 0.  0.
         23    2    1    2    0    0 -0.26346866678E+02 -0.80983964291E+01 -0.32384898146E+03  0.33706540050E+03  0.89303863370E+02 0.  0.
         13    1    3    3    0    0 -0.18954950367E+02 -0.26762192439E+02  0.66775327153E+01  0.33467813354E+02  0.00000000000E+00 0. -1.
        -14    1    3    3    0    0  0.22546117258E+02  0.43964494429E+02  0.16260210373E+02  0.52015369029E+02  0.00000000000E+00 0.  1.
        -13    1    4    4    0    0 -0.53065906647E+02  0.17970932903E+02 -0.20209342973E+03  0.20971575816E+03  0.00000000000E+00 0.  1.
         13    1    4    4    0    0  0.26719039969E+02 -0.26069329332E+02 -0.12175555173E+03  0.12734964234E+03  0.00000000000E+00 0. -1.
         21    1    1    2  502  501  0.22755699787E+02 -0.91039055609E+01 -0.70312931365E+02  0.74462146668E+02  0.00000000000E+00 0. -1.
<scales pt_clust_5="13000.00000" pt_clust_6="13000.00000" pt_clust_7="13000.00000" pt_clust_8="13000.00000" pt_clust_9="24.50924"></scales>
<clustering>
<clus scale="   24.509">  2  9  1 -1</clus>
<clus scale="   80.451">  5  6 -1 -1</clus>
<clus scale="   82.297">  1  5  2 -1</clus>
<clus scale="   89.304">  7  8 -1 -1</clus>
<clus scale="   24.509">  2  5  1 -1</clus>
</clustering>
</event>
<event>
 9    1  0.1973774E-005  0.9811094E+02  0.7546771E-02  0.1290669E+00
          1   -1    0    0  502    0  0.00000000000E+00  0.00000000000E+00  0.88947881574E+02  0.88947881574E+02  0.00000000000E+00 0. -1.
         -2   -1    0    0    0  501 -0.00000000000E+00 -0.00000000000E+00 -0.15533044960E+03  0.15533044960E+03  0.00000000000E+00 0.  1.
         23    2    1    2    0    0  0.67577015674E+01 -0.37642057774E+02 -0.83230023492E+02  0.12972807136E+03  0.91866994317E+02 0.  0.
        -24    2    1    2    0    0  0.17780282624E+02  0.27224272695E+02  0.16517732173E+02  0.87890334236E+02  0.79966092202E+02 0.  0.
         11    1    4    4    0    0  0.60036889751E+01  0.25068434319E+02  0.47848372384E+02  0.54350137261E+02  0.00000000000E+00 0. -1.
        -12    1    4    4    0    0  0.11776593649E+02  0.21558383756E+01 -0.31330640211E+02  0.33540196975E+02  0.00000000000E+00 0.  1.
        -13    1    3    3    0    0  0.31350058666E+02 -0.37892884123E+02 -0.70579278301E+01  0.49684114069E+02  0.00000000000E+00 0. -1.
         13    1    3    3    0    0 -0.24592357099E+02  0.25082634913E+00 -0.76172095662E+02  0.80043957293E+02  0.00000000000E+00 0.  1.
         21    1    1    2  502  501 -0.24537984191E+02  0.10417785079E+02  0.32972329678E+00  0.26659925574E+02  0.00000000000E+00 0. -1.
<scales pt_clust_5="13000.00000" pt_clust_6="13000.00000" pt_clust_7="13000.00000" pt_clust_8="13000.00000" pt_clust_9="26.65789"></scales>
<clustering>
<clus scale="   26.658">  1  9  2 -1</clus>
<clus scale="   79.966">  5  6 -1 -1</clus>
<clus scale="   87.068">  1  5  2 -1</clus>
<clus scale="   91.867">  7  8 -1 -1</clus>
<clus scale="   26.658">  1  5  2 -1</clus>
</clustering>
</event>
<event>
 9    1  0.1973774E-005  0.9601107E+02  0.7546771E-02  0.1294971E+00
         -2   -1    0    0    0  501 -0.00000000000E+00  0.00000000000E+00  0.23136569972E+03  0.23136569972E+03  0.00000000000E+00 0.  1.
          1   -1    0    0  502    0  0.00000000000E+00 -0.00000000000E+00 -0.98558970813E+02  0.98558970813E+02  0.00000000000E+00 0. -1.
        -24    2    1    2    0    0  0.25420646148E+02 -0.26863375160E+02  0.16577281209E+03  0.18798704589E+03  0.80564595317E+02 0.  0.
         23    2    1    2    0    0  0.76288476767E+01 -0.50032318765E+01 -0.17712076825E+02  0.93559588341E+02  0.91413605437E+02 0.  0.
         11    1    3    3    0    0  0.11463207285E+02 -0.23176982937E+02  0.47146163873E+01  0.26283174599E+02  0.00000000000E+00 0. -1.
        -12    1    3    3    0    0  0.13957438863E+02 -0.36863922229E+01  0.16105819571E+03  0.16170387129E+03  0.00000000000E+00 0.  1.
        -11    1    4    4    0    0  0.30100608632E+02  0.31945212364E+02 -0.23731611357E+02  0.49897220469E+02  0.00000000000E+00 0.  1.
         11    1    4    4    0    0 -0.22471760955E+02 -0.36948444240E+02  0.60195345321E+01  0.43662367872E+02  0.00000000000E+00 0. -1.
         21    1    1    2  502  501 -0.33049493825E+02  0.31866607037E+02 -0.15254006361E+02  0.48378036299E+02  0.00000000000E+00 0. -1.
<scales pt_clust_5="13000.00000" pt_clust_6="13000.00000" pt_clust_7="13000.00000" pt_clust_8="13000.00000" pt_clust_9="45.91024"></scales>
<clustering>
<clus scale="   45.910">  2  9  1 -1</clus>
<clus scale="   80.565">  5  6 -1 -1</clus>
<clus scale="   85.746">  1  5  2 -1</clus>
<clus scale="   91.414">  7  8 -1 -1</clus>
<clus scale="   45.910">  2  5  1 -1</clus>
</clustering>
</event>
<event>
 9    1  0.1973774E-005  0.1028207E+03  0.7546771E-02  0.1279557E+00
          3   -1    0    0  502    0  0.00000000000E+00  0.00000000000E+00  0.29901736457E+03  0.29901736457E+03  0.00000000000E+00 0. -1.
         -4   -1    0    0    0  501 -0.00000000000E+00 -0.00000000000E+00 -0.11569332506E+03  0.11569332506E+03  0.00000000000E+00 0.  1.
        -24    2    1    2    0    0 -0.24083151490E+02 -0.38461943502E+02 -0.62573271966E+02  0.11063556431E+03  0.79154876295E+02 0.  0.
         23    2    1    2    0    0  0.85984201544E+01  0.88368411619E+02  0.17024892115E+03  0.21213432141E+03  0.90185177089E+02 0.  0.
         11    1    3    3    0    0 -0.35772515100E+02  0.61239009726E+01 -0.51887311157E+02  0.63320360539E+02  0.00000000000E+00 0. -1.
        -12    1    3    3    0    0  0.11689363610E+02 -0.44585844475E+02 -0.10685960809E+02  0.47315203767E+02  0.00000000000E+00 0.  1.
        -13    1    4    4    0    0  0.45810172318E+02  0.39321397577E+02  0.55960465859E+02  0.82318393658E+02  0.00000000000E+00 0.  1.
         13    1    4    4    0    0 -0.37211752164E+02  0.49047014042E+02  0.11428845530E+03  0.12981592776E+03  0.00000000000E+00 0. -1.
         21    1    1    2  502  501  0.15484731336E+02 -0.49906468116E+02  0.75648390324E+02  0.91940803907E+02  0.00000000000E+00 0.  1.
<scales pt_clust_5="13000.00000" pt_clust_6="13000.00000" pt_clust_7="13000.00000" pt_clust_8="13000.00000" pt_clust_9="52.25354"></scales>
<clustering>
<clus scale="   52.254">  1  9  2 -1</clus>
<clus scale="   79.155">  5  6 -1 -1</clus>
<clus scale="   90.185">  7  8 -1 -1</clus>
<clus scale="   93.296">  2  5  1 -1</clus>
<clus scale="   52.254">  1  5  2 -1</clus>
</clustering>
</event>
<event>
 9    1  0.1973774E-005  0.9468997E+02  0.7546771E-02  0.1301914E+00
         -2   -1    0    0    0  501 -0.00000000000E+00  0.00000000000E+00  0.12226143427E+03  0.12226143427E+03  0.00000000000E+00 0.  1.
          1   -1    0    0  502    0  0.00000000000E+00 -0.00000000000E+00 -0.20838105082E+03  0.20838105082E+03  0.00000000000E+00 0. -1.
        -24    2    1    2    0    0 -0.80461121739E+01  0.23084996113E+01  0.76507662105E+02  0.10929952755E+03  0.77607314537E+02 0.  0.
         23    2    1    2    0    0  0.31591323699E+02 -0.21071781924E+02 -0.67789592274E+02  0.12184107561E+03  0.93849811716E+02 0.  0.
         11    1    3    3    0    0  0.27299606502E+02 -0.21871151290E+01  0.29233154251E+01  0.27542653482E+02  0.00000000000E+00 0. -1.
        -12    1    3    3    0    0 -0.35345718676E+02  0.44956147403E+01  0.73584346680E+02  0.81756874065E+02  0.00000000000E+00 0.  1.
        -13    1    4    4    0    0 -0.25594925336E+02  0.18074415379E+02 -0.15087268421E+02  0.34776577788E+02  0.00000000000E+00 0.  1.
         13    1    4    4    0    0  0.57186249035E+02 -0.39146197303E+02 -0.52702323853E+02  0.87064497825E+02  0.00000000000E+00 0. -1.
         21    1    1    2  502  501 -0.23545211525E+02  0.18763282313E+02 -0.94837686388E+02  0.99501881933E+02  0.00000000000E+00 0. -1.
<scales pt_clust_5="13000.00000" pt_clust_6="13000.00000" pt_clust_7="13000.00000" pt_clust_8="13000.00000" pt_clust_9="30.10710"></scales>
<clustering>
<clus scale="   30.107">  2  9  1 -1</clus>
<clus scale="   77.607">  5  6 -1 -1</clus>
<clus scale="   78.621">  1  5  2 -1</clus>
<clus scale="   93.850">  7  8 -1 -1</clus>
<clus scale="   30.107">  2  5  1 -1</clus>
</clustering>
</event>
<event>
 9    1  0.1973774E-005  0.1023078E+03  0.7546771E-02  0.1279517E+00
         -2   -1    0    0    0  501 -0.00000000000E+00  0.00000000000E+00  0.11983893829E+03  0.11983893829E+03  0.00000000000E+00 0.  1.
          1   -1    0    0  502    0  0.00000000000E+00 -0.00000000000E+00 -0.62375419364E+03  0.62375419364E+03  0.00000000000E+00 0. -1.
        -24    2    1    2    0    0 -0.47422963175E+02 -0.11719172703E+02  0.89901974317E+02  0.13037364074E+03  0.80800029500E+02 0.  0.
         23    2    1    2    0    0  0.68333372828E+02 -0.16200103719E+02 -0.38318948900E+03  0.39972294234E+03  0.89511747591E+02 0.  0.
         13    1    3    3    0    0 -0.23051044538E+02  0.11713256939E+02 -0.77837974750E+01  0.27002565537E+02  0.00000000000E+00 0. -1.
        -14    1    3    3    0    0 -0.24371918637E+02 -0.23432429642E+02  0.97685771792E+02  0.10337107520E+03  0.00000000000E+00 0.  1.
        -13    1    4    4    0    0  0.12246302447E+02  0.34631593095E+02 -0.15555234003E+03  0.15983069059E+03  0.00000000000E+00 0. -1.
         13    1    4    4    0    0  0.56087070381E+02 -0.50831696814E+02 -0.22763714896E+03  0.23989225176E+03  0.00000000000E+00 0.  1.
         21    1    1    2  502  501 -0.20910409653E+02  0.27919276422E+02 -0.21062774068E+03  0.21349654885E+03  0.00000000000E+00 0. -1.
<scales pt_clust_5="13000.00000" pt_clust_6="13000.00000" pt_clust_7="13000.00000" pt_clust_8="13000.00000" pt_clust_9="34.88167"></scales>
<clustering>
<clus scale="   34.882">  2  9  1 -1</clus>
<clus scale="   80.800">  5  6 -1 -1</clus>
<clus scale="   89.512">  7  8 -1 -1</clus>
<clus scale="   94.780">  1  5  2 -1</clus>
<clus scale="   34.882">  2  5  1 -1</clus>
</clustering>
</event>
<event>
 9    1  0.1973774E-005  0.1253538E+03  0.7546771E-02  0.1237093E+00
         -2   -1    0    0    0  501 -0.00000000000E+00  0.00000000000E+00  0.35373062650E+02  0.35373062650E+02  0.00000000000E+00 0.  1.
          1   -1    0    0  502    0  0.00000000000E+00 -0.00000000000E+00 -0.55383149685E+03  0.55383149685E+03  0.00000000000E+00 0. -1.
        -24    2    1    2    0    0  0.19069899265E+02 -0.89260527615E+02 -0.19459169251E+03  0.22958619031E+03  0.80701853389E+02 0.  0.
         23    2    1    2    0    0 -0.36275332072E+02  0.76212650170E+02 -0.20843999630E+03  0.24218920937E+03  0.89911697320E+02 0.  0.
         11    1    3    3    0    0  0.26535792470E+02  0.22502258241E+01 -0.23972080870E+02  0.35831166036E+02  0.00000000000E+00 0. -1.
        -12    1    3    3    0    0 -0.74658932046E+01 -0.91510753439E+02 -0.17061961164E+03  0.19375502427E+03  0.00000000000E+00 0.  1.
        -11    1    4    4    0    0 -0.35412724503E+02  0.44598438562E+02 -0.20205268392E+03  0.20992467424E+03  0.00000000000E+00 0. -1.
         11    1    4    4    0    0 -0.86260756874E+00  0.31614211609E+02 -0.63873123849E+01  0.32264535127E+02  0.00000000000E+00 0.  1.
         21    1    1    2  502  501  0.17205432806E+02  0.13047877444E+02 -0.11542674540E+03  0.11742915982E+03  0.00000000000E+00 0. -1.
<scales pt_clust_5="13000.00000" pt_clust_6="13000.00000" pt_clust_7="13000.00000" pt_clust_8="13000.00000" pt_clust_9="21.59338"></scales>
<clustering>
<clus scale="   21.593">  2  9  1 -1</clus>
<clus scale="   80.702">  5  6 -1 -1</clus>
<clus scale="   89.912">  7  8 -1 -1</clus>
<clus scale="  118.921">  1  5  2 -1</clus>
<clus scale="   21.593">  2  5  1 -1</clus>
</clustering>
</event>
<event>
 9    1  0.1973774E-005  0.1325359E+03  0.7546771E-02  0.1225693E+00
         -2   -1    0    0    0  501 -0.00000000000E+00  0.00000000000E+00  0.18772728386E+03  0.18772728386E+03  0.00000000000E+00 0.  1.
          1   -1    0    0  502    0  0.00000000000E+00 -0.00000000000E+00 -0.18532364700E+03  0.18532364700E+03  0.00000000000E+00 0. -1.
         23    2    1    2    0    0  0.82213360595E+02 -0.25488950955E+02  0.17069798751E+02  0.12613579677E+03  0.90609811367E+02 0.  0.
        -24    2    1    2    0    0 -0.61286754373E+02  0.10804545880E+03  0.27729160410E+02  0.15177910943E+03  0.82692830962E+02 0.  0.
         13    1    4    4    0    0 -0.22645241505E+02 -0.34510126803E+01 -0.13728593311E+02  0.26705630972E+02  0.00000000000E+00 0. -1.
        -14    1    4    4    0    0 -0.38641512868E+02  0.11149647148E+03  0.41457753721E+02  0.12507347845E+03  0.00000000000E+00 0.  1.
        -13    1    3    3    0    0  0.48387079249E+02 -0.19141058915E+02  0.54455831564E+02  0.75320164405E+02  0.00000000000E+00 0.  1.
         13    1    3    3    0    0  0.33826281346E+02 -0.63478920406E+01 -0.37386032813E+02  0.50815632364E+02  0.00000000000E+00 0. -1.
         21    1    1    2  502  501 -0.20926606222E+02 -0.82556507842E+02 -0.42395322307E+02  0.95136024663E+02  0.00000000000E+00 0. -1.
<scales pt_clust_5="13000.00000" pt_clust_6="13000.00000" pt_clust_7="13000.00000" pt_clust_8="13000.00000" pt_clust_9="85.16748"></scales>
<clustering>
<clus scale="   82.693">  5  6 -1 -1</clus>
<clus scale="   85.167">  2  9  1 -1</clus>
<clus scale="   90.610">  7  8 -1 -1</clus>
<clus scale="  127.255">  2  5  1 -1</clus>
<clus scale="   85.167">  2  5  1 -1</clus>
</clustering>
</event>
<event>
 9    1  0.1973774E-005  0.1208413E+03  0.7546771E-02  0.1249276E+00
          1   -1    0    0  502    0  0.00000000000E+00  0.00000000000E+00  0.53550642727E+03  0.53550642727E+03  0.00000000000E+00 0. -1.
         -2   -1    0    0    0  501 -0.00000000000E+00 -0.00000000000E+00 -0.90928282551E+02  0.90928282551E+02  0.00000000000E+00 0.  1.
        -24    2    1    2    0    0 -0.41751070276E+02  0.49511331615E+02 -0.12454631110E+02  0.10452884028E+03  0.81096465930E+02 0.  0.
         23    2    1    2    0    0 -0.67385208798E+02 -0.12264628318E+02  0.33578757959E+03  0.35457851993E+03  0.91002421495E+02 0.  0.
         13    1    3    3    0    0 -0.51287303139E+02  0.34685947143E+02  0.22097085690E+02  0.65740273718E+02  0.00000000000E+00 0. -1.
        -14    1    3    3    0    0  0.95362328636E+01  0.14825384472E+02 -0.34551716800E+02  0.38788566560E+02  0.00000000000E+00 0.  1.
        -13    1    4    4    0    0  0.22073122843E+02 -0.21721945398E+01  0.93822441521E+02  0.96408462876E+02  0.00000000000E+00 0.  1.
         13    1    4    4    0    0 -0.89458331641E+02 -0.10092433779E+02  0.24196513807E+03  0.25817005706E+03  0.00000000000E+00 0. -1.
         21    1    1    2  502  501  0.10913627907E+03 -0.37246703297E+02  0.12124519623E+03  0.16732734961E+03  0.00000000000E+00 0. -1.
<scales pt_clust_5="13000.00000" pt_clust_6="13000.00000" pt_clust_7="13000.00000" pt_clust_8="13000.00000" pt_clust_9="79.50582"></scales>
<clustering>
<clus scale="   81.096">  5  6 -1 -1</clus>
<clus scale="   91.002">  7  8 -1 -1</clus>
<clus scale="  103.784">  2  5  1 -1</clus>
<clus scale="   79.506">  2  9  1 -1</clus>
<clus scale="  120.841">  1  5  2 -1</clus>
</clustering>
</event>
<event>
 9    1  0.1973774E-005  0.1113180E+03  0.7546771E-02  0.1269045E+00
          1   -1    0    0  502    0  0.00000000000E+00  0.00000000000E+00  0.21173640570E+03  0.21173640570E+03  0.00000000000E+00 0. -1.
         -2   -1    0    0    0  501 -0.00000000000E+00 -0.00000000000E+00 -0.23977602500E+03  0.23977602500E+03  0.00000000000E+00 0.  1.
        -24    2    1    2    0    0  0.43294645308E+02  0.15315880538E+02 -0.18495075304E+03  0.20486003351E+03  0.75178785362E+02 0.  0.
         23    2    1    2    0    0 -0.90271901638E+02 -0.27569325185E+02  0.90797879490E+02  0.16462818183E+03  0.99745172392E+02 0.  0.
         11    1    3    3    0    0  0.12218254822E+02 -0.16339562135E+02 -0.71658435034E+01  0.21624438831E+02  0.00000000000E+00 0. -1.
        -12    1    3    3    0    0  0.31076390487E+02  0.31655442672E+02 -0.17778490954E+03  0.18323559468E+03  0.00000000000E+00 0.  1.
        -13    1    4    4    0    0  0.17659034533E+02  0.11867375746E+02  0.22439044218E+02  0.30922270505E+02  0.00000000000E+00 0.  1.
         13    1    4    4    0    0 -0.10793093617E+03 -0.39436700931E+02  0.68358835271E+02  0.13370591132E+03  0.00000000000E+00 0. -1.
         21    1    1    2  502  501  0.46977256329E+02  0.12253444647E+02  0.66113254260E+02  0.82024215368E+02  0.00000000000E+00 0.  1.
<scales pt_clust_5="13000.00000" pt_clust_6="13000.00000" pt_clust_7="13000.00000" pt_clust_8="13000.00000" pt_clust_9="48.54904"></scales>
<clustering>
<clus scale="   48.549">  1  9  2 -1</clus>
<clus scale="   75.179">  5  6 -1 -1</clus>
<clus scale="   89.969">  2  5  1 -1</clus>
<clus scale="   99.745">  7  8 -1 -1</clus>
<clus scale="   48.549">  1  5  2 -1</clus>
</clustering>
</event>
<event>
 9    1  0.1973774E-005  0.1189981E+03  0.7546771E-02  0.1248443E+00
         -4   -1    0    0    0  501 -0.00000000000E+00  0.00000000000E+00  0.19030501171E+03  0.19030501171E+03  0.00000000000E+00 0.  1.
          3   -1    0    0  502    0  0.00000000000E+00 -0.00000000000E+00 -0.15089476667E+03  0.15089476667E+03  0.00000000000E+00 0. -1.
        -24    2    1    2    0    0  0.63361189042E+02 -0.38683917374E+02  0.74587817253E+02  0.13200671973E+03  0.79695331295E+02 0.  0.
         23    2    1    2    0    0 -0.53746391343E+02  0.62601600772E+02  0.40368350360E+02  0.12937021524E+03  0.91101118972E+02 0.  0.
         11    1    3    3    0    0  0.77925453735E+02 -0.23457746583E+02  0.38065197395E+02  0.89842091846E+02  0.00000000000E+00 0. -1.
        -12    1    3    3    0    0 -0.14564264693E+02 -0.15226170791E+02  0.36522619858E+02  0.42164627880E+02  0.00000000000E+00 0.  1.
        -11    1    4    4    0    0 -0.13972562214E+02  0.57107290555E+02 -0.15283689470E+02  0.60745915856E+02  0.00000000000E+00 0. -1.
         11    1    4    4    0    0 -0.39773829129E+02  0.54943102177E+01  0.55652039829E+02  0.68624299381E+02  0.00000000000E+00 0.  1.
         21    1    1    2  502  501 -0.96147976995E+01 -0.23917683398E+02 -0.75545922574E+02  0.79822843419E+02  0.00000000000E+00 0. -1.
<scales pt_clust_5="13000.00000" pt_clust_6="13000.00000" pt_clust_7="13000.00000" pt_clust_8="13000.00000" pt_clust_9="25.77790"></scales>
<clustering>
<clus scale="   25.778">  2  9  1 -1</clus>
<clus scale="   79.695">  5  6 -1 -1</clus>
<clus scale="   91.101">  7  8 -1 -1</clus>
<clus scale="  110.510">  1  5  2 -1</clus>
<clus scale="   25.778">  2  5  1 -1</clus>
</clustering>
</event>
<event>
 9    1  0.1987018E-005  0.1004523E+03  0.7546771E-02  0.1279980E+00
          1   -1    0    0  502    0  0.00000000000E+00  0.00000000000E+00  0.49310613983E+03  0.49310613983E+03  0.00000000000E+00 0. -1.
         -2   -1    0    0    0  501 -0.00000000000E+00 -0.00000000000E+00 -0.35721895197E+03  0.35721895197E+03  0.00000000000E+00 0.  1.
         23    2    1    2    0    0 -0.21746395041E+02  0.51351056423E+02 -0.31068194215E+03  0.32852940271E+03  0.91095897700E+02 0.  0.
        -24    2    1    2    0    0  0.42092092308E+02  0.80014191130E+01  0.44812690169E+03  0.45903351575E+03  0.89767932047E+02 0.  0.
         13    1    4    4    0    0  0.70101031952E+01 -0.31307120874E+02  0.67033522991E+02  0.74315345447E+02  0.00000000000E+00 0. -1.
        -14    1    4    4    0    0  0.35081989113E+02  0.39308539988E+02  0.38109337869E+03  0.38471817030E+03  0.00000000000E+00 0.  1.
        -13    1    3    3    0    0  0.10261077437E+02  0.56239040942E+02 -0.27266218018E+03  0.27859071043E+03  0.00000000000E+00 0.  1.
         13    1    3    3    0    0 -0.32007472478E+02 -0.48879845193E+01 -0.38019761966E+02  0.49938692285E+02  0.00000000000E+00 0. -1.
         21    1    1    2  502  501 -0.20345697267E+02 -0.59352475536E+02 -0.15577716837E+01  0.62762173338E+02  0.00000000000E+00 0. -1.
<scales pt_clust_5="13000.00000" pt_clust_6="13000.00000" pt_clust_7="13000.00000" pt_clust_8="13000.00000" pt_clust_9="62.74284"></scales>
<clustering>
<clus scale="   62.743">  2  9  1 -1</clus>
<clus scale="   89.768">  5  6 -1 -1</clus>
<clus scale="   91.096">  7  8 -1 -1</clus>
<clus scale="   99.250">  1  5  2 -1</clus>
<clus scale="   99.250">  1  5  2 -1</clus>
</clustering>
</event>
<event>
 9    1  0.1973774E-005  0.2023920E+03  0.7546771E-02  0.1187160E+00
          1   -1    0    0  502    0  0.00000000000E+00  0.00000000000E+00  0.37900696747E+03  0.37900696747E+03  0.00000000000E+00 0. -1.
         -2   -1    0    0    0  501 -0.00000000000E+00 -0.00000000000E+00 -0.19212177432E+03  0.19212177432E+03  0.00000000000E+00 0.  1.
        -24    2    1    2    0    0  0.11733089773E+02  0.13800770127E+02 -0.58815167936E+02  0.10074113898E+03  0.79758550962E+02 0.  0.
         23    2    1    2    0    0  0.14805302704E+03 -0.10030066987E+03  0.57779896181E+02  0.20899147256E+03  0.91427545134E+02 0.  0.
         13    1    3    3    0    0  0.19940392194E+02  0.41315797605E+02 -0.14829650241E+02  0.48213409948E+02  0.00000000000E+00 0. -1.
        -14    1    3    3    0    0 -0.82073024210E+01 -0.27515027478E+02 -0.43985517695E+02  0.52527729030E+02  0.00000000000E+00 0.  1.
        -13    1    4    4    0    0  0.71394014862E+02  0.29565609325E+01  0.29564803840E+02  0.77329969849E+02  0.00000000000E+00 0.  1.
         13    1    4    4    0    0  0.76659012177E+02 -0.10325723080E+03  0.28215092341E+02  0.13166150271E+03  0.00000000000E+00 0. -1.
         21    1    1    2  502  501 -0.15978611681E+03  0.86499899744E+02  0.18792046490E+03  0.26139613025E+03  0.00000000000E+00 0.  1.
<scales pt_clust_5="13000.00000" pt_clust_6="13000.00000" pt_clust_7="13000.00000" pt_clust_8="13000.00000" pt_clust_9="180.56445"></scales>
<clustering>
<clus scale="   79.759">  5  6 -1 -1</clus>
<clus scale="   81.790">  2  5  1 -1</clus>
<clus scale="   91.428">  7  8 -1 -1</clus>
<clus scale="  180.564">  1  9  2 -1</clus>
<clus scale="  180.564">  1  5  2 -1</clus>
</clustering>
</event>
<event>
 9    1  0.1973774E-005  0.1669468E+03  0.7546771E-02  0.1182631E+00
         -2   -1    0    0    0  501 -0.00000000000E+00  0.00000000000E+00  0.32438133045E+02  0.32438133045E+02  0.00000000000E+00 0.  1.
          1   -1    0    0  502    0  0.00000000000E+00 -0.00000000000E+00 -0.11696362993E+04  0.11696362993E+04  0.00000000000E+00 0. -1.
        -24    2    1    2    0    0 -0.53124598124E+02  0.12680014259E+03 -0.49405785865E+03  0.51921385957E+03  0.81174904874E+02 0.  0.
         23    2    1    2    0    0  0.98787352072E+02 -0.10681367269E+03 -0.56055733593E+03  0.58640077138E+03  0.92050183077E+02 0.  0.
         11    1    3    3    0    0 -0.11978684593E+02  0.11532813586E+03 -0.33396519631E+03  0.35352060782E+03  0.00000000000E+00 0. -1.
        -12    1    3    3    0    0 -0.41145913532E+02  0.11472006732E+02 -0.16009266234E+03  0.16569325174E+03  0.00000000000E+00 0.  1.
        -11    1    4    4    0    0  0.70944916774E+02 -0.13719733585E+02 -0.29191602718E+03  0.30072641924E+03  0.00000000000E+00 0. -1.
         11    1    4    4    0    0  0.27842435298E+02 -0.93093939101E+02 -0.26864130875E+03  0.28567435214E+03  0.00000000000E+00 0.  1.
         21    1    1    2  502  501 -0.45662753948E+02 -0.19986469907E+02 -0.82582971719E+02  0.96459801448E+02  0.00000000000E+00 0.  1.
<scales pt_clust_5="13000.00000" pt_clust_6="13000.00000" pt_clust_7="13000.00000" pt_clust_8="13000.00000" pt_clust_9="49.84522"></scales>
<clustering>
<clus scale="   49.845">  1  9  2 -1</clus>
<clus scale="   81.175">  5  6 -1 -1</clus>
<clus scale="   92.050">  7  8 -1 -1</clus>
<clus scale="  161.206">  1  5  2 -1</clus>
<clus scale="  166.947">  2  5  1 -1</clus>
</clustering>
</event>
<event>
 9    1  0.1973774E-005  0.2017777E+03  0.7546771E-02  0.1148353E+00
         -2   -1    0    0    0  501 -0.00000000000E+00  0.00000000000E+00  0.39637022653E+03  0.39637022653E+03  0.00000000000E+00 0.  1.
          1   -1    0    0  502    0  0.00000000000E+00 -0.00000000000E+00 -0.14153786911E+03  0.14153786911E+03  0.00000000000E+00 0. -1.
         23    2    1    2    0    0 -0.17562117590E+03  0.26646777900E+02  0.17859750996E+03  0.26425360715E+03  0.79875215978E+02 0.  0.
        -24    2    1    2    0    0  0.18744148154E+03 -0.69329185020E+02  0.77908329192E+02  0.22933397356E+03  0.81138885718E+02 0.  0.
         11    1    4    4    0    0  0.20507833218E+02 -0.14862059484E+02  0.43595023206E+02  0.50418033319E+02  0.00000000000E+00 0. -1.
        -12    1    4    4    0    0  0.16693364832E+03 -0.54467125536E+02  0.34313305986E+02  0.17891594024E+03  0.00000000000E+00 0.  1.
        -13    1    3    3    0    0 -0.69753412669E+02  0.49905566532E+02  0.68635600325E+02  0.10984966901E+03  0.00000000000E+00 0.  1.
         13    1    3    3    0    0 -0.10586776323E+03 -0.23258788633E+02  0.10996190964E+03  0.15440393814E+03  0.00000000000E+00 0. -1.
         21    1    1    2  502  501 -0.11820305634E+02  0.42682407121E+02 -0.16734817408E+01  0.44320514934E+02  0.00000000000E+00 0.  1.
<scales pt_clust_5="13000.00000" pt_clust_6="13000.00000" pt_clust_7="13000.00000" pt_clust_8="13000.00000" pt_clust_9="44.28891"></scales>
<clustering>
<clus scale="   44.289">  2  9  1 -1</clus>
<clus scale="   79.875">  7  8 -1 -1</clus>
<clus scale="   81.139">  5  6 -1 -1</clus>
<clus scale="  201.273">  1  7  2 -1</clus>
<clus scale="   44.289">  2  5  1 -1</clus>
</clustering>
</event>
<event>
 9    1  0.1973774E-005  0.1187647E+03  0.7546771E-02  0.1250700E+00
         -2   -1    0    0    0  501 -0.00000000000E+00  0.00000000000E+00  0.14122998597E+03  0.14122998597E+03  0.00000000000E+00 0.  1.
          1   -1    0    0  502    0  0.00000000000E+00 -0.00000000000E+00 -0.11594936098E+03  0.11594936098E+03  0.00000000000E+00 0. -1.
        -24    2    1    2    0    0  0.24707601630E+02  0.55128757736E+02  0.98466975126E+01  0.98923716326E+02  0.77712924871E+02 0.  0.
         23    2    1    2    0    0 -0.39371725970E+02 -0.77519887260E+02  0.23604526694E+02  0.13027067188E+03  0.94094678621E+02 0.  0.
         11    1    3    3    0    0  0.45251457828E+02  0.74208804909E+01  0.10212161092E+02  0.46979273483E+02  0.00000000000E+00 0. -1.
        -12    1    3    3    0    0 -0.20543856198E+02  0.47707877245E+02 -0.36546357901E+00  0.51944442843E+02  0.00000000000E+00 0.  1.
        -11    1    4    4    0    0 -0.38495048221E+02 -0.31328796597E+02  0.55252287716E+02  0.74270973682E+02  0.00000000000E+00 0.  1.
         11    1    4    4    0    0 -0.87667774834E+00 -0.46191090663E+02 -0.31647761022E+02  0.55999698197E+02  0.00000000000E+00 0. -1.
         21    1    1    2  502  501  0.14664124340E+02  0.22391129524E+02 -0.81705992167E+01  0.27984958738E+02  0.00000000000E+00 0. -1.
<scales pt_clust_5="13000.00000" pt_clust_6="13000.00000" pt_clust_7="13000.00000" pt_clust_8="13000.00000" pt_clust_9="26.76564"></scales>
<clustering>
<clus scale="   26.766">  2  9  1 -1</clus>
<clus scale="   77.713">  5  6 -1 -1</clus>
<clus scale="   94.095">  7  8 -1 -1</clus>
<clus scale="  106.257">  1  5  2 -1</clus>
<clus scale="   26.766">  2  5  1 -1</clus>
</clustering>
</event>
<event>
 9    1  0.1973774E-005  0.1820324E+03  0.7546771E-02  0.1167982E+00
          1   -1    0    0  502    0  0.00000000000E+00  0.00000000000E+00  0.10654506655E+03  0.10654506655E+03  0.00000000000E+00 0. -1.
         -2   -1    0    0    0  501 -0.00000000000E+00 -0.00000000000E+00 -0.52630752704E+03  0.52630752704E+03  0.00000000000E+00 0.  1.
        -24    2    1    2    0    0  0.11437898540E+03 -0.92978283953E+02 -0.35057038239E+03  0.38917404915E+03  0.82639784244E+02 0.  0.
         23    2    1    2    0    0 -0.14677071002E+03  0.92229987215E+02 -0.50251632519E+02  0.20614823333E+03  0.99618550841E+02 0.  0.
         11    1    3    3    0    0  0.20088484995E+02  0.14414403208E+02 -0.36124515324E+02  0.43775596588E+02  0.00000000000E+00 0. -1.
        -12    1    3    3    0    0  0.94290500407E+02 -0.10739268716E+03 -0.31444586706E+03  0.34539845257E+03  0.00000000000E+00 0.  1.
        -11    1    4    4    0    0  0.22191171824E+01  0.41092945806E+02 -0.12148632724E+01  0.41170748947E+02  0.00000000000E+00 0.  1.
         11    1    4    4    0    0 -0.14898982721E+03  0.51137041409E+02 -0.49036769246E+02  0.16497748438E+03  0.00000000000E+00 0. -1.
         21    1    1    2  502  501  0.32391724623E+02  0.74829673710E+00 -0.18940445586E+02  0.37530311097E+02  0.00000000000E+00 0. -1.
<scales pt_clust_5="13000.00000" pt_clust_6="13000.00000" pt_clust_7="13000.00000" pt_clust_8="13000.00000" pt_clust_9="32.40037"></scales>
<clustering>
<clus scale="   32.400">  1  9  2 -1</clus>
<clus scale="   82.640">  5  6 -1 -1</clus>
<clus scale="   99.619">  7  8 -1 -1</clus>
<clus scale="  173.324">  2  5  1 -1</clus>
<clus scale="   32.400">  1  5  2 -1</clus>
</clustering>
</event>
<event>
 9    1  0.1973774E-005  0.9886628E+02  0.7546771E-02  0.1289053E+00
          1   -1    0    0  502    0  0.00000000000E+00  0.00000000000E+00  0.59658385584E+03  0.59658385584E+03  0.00000000000E+00 0. -1.
         -2   -1    0    0    0  501 -0.00000000000E+00 -0.00000000000E+00 -0.37314124418E+02  0.37314124418E+02  0.00000000000E+00 0.  1.
        -24    2    1    2    0    0 -0.11526424164E+02 -0.24517547988E+02  0.36465557103E+02  0.94153023098E+02  0.82468698851E+02 0.  0.
         23    2    1    2    0    0  0.32143529194E+01  0.50433213727E+02  0.41825206234E+03  0.43170859116E+03  0.94253270076E+02 0.  0.
         11    1    3    3    0    0  0.27971383138E+02 -0.26052282535E+02  0.38916900831E+02  0.54549471769E+02  0.00000000000E+00 0. -1.
        -12    1    3    3    0    0 -0.39497807302E+02  0.15347345469E+01 -0.24513437279E+01  0.39603551329E+02  0.00000000000E+00 0.  1.
        -13    1    4    4    0    0 -0.27438147699E+02  0.66635972877E+02  0.26940122764E+03  0.27887313654E+03  0.00000000000E+00 0.  1.
         13    1    4    4    0    0  0.30652500619E+02 -0.16202759150E+02  0.14885083470E+03  0.15283545462E+03  0.00000000000E+00 0. -1.
         21    1    1    2  502  501  0.83120712451E+01 -0.25915665738E+02  0.10455211199E+03  0.10803636601E+03  0.00000000000E+00 0.  1.
<scales pt_clust_5="13000.00000" pt_clust_6="13000.00000" pt_clust_7="13000.00000" pt_clust_8="13000.00000" pt_clust_9="27.21603"></scales>
<clustering>
<clus scale="   27.216">  1  9  2 -1</clus>
<clus scale="   82.469">  5  6 -1 -1</clus>
<clus scale="   87.704">  2  5  1 -1</clus>
<clus scale="   94.253">  7  8 -1 -1</clus>
<clus scale="   27.216">  1  5  2 -1</clus>
</clustering>
</event>
<event>
 9    1  0.1973774E-005  0.1039099E+03  0.7546771E-02  0.1278285E+00
          1   -1    0    0  502    0  0.00000000000E+00  0.00000000000E+00  0.22195472550E+03  0.22195472550E+03  0.00000000000E+00 0. -1.
         -2   -1    0    0    0  501 -0.00000000000E+00 -0.00000000000E+00 -0.95954459756E+02  0.95954459756E+02  0.00000000000E+00 0.  1.
         23    2    1    2    0    0  0.13212314371E+02 -0.41293998239E+02 -0.30489060717E+02  0.10755863425E+03  0.93592293688E+02 0.  0.
        -24    2    1    2    0    0  0.16275842689E+02  0.57719505284E+02  0.14089641396E+03  0.17316873274E+03  0.80865111073E+02 0.  0.
         11    1    4    4    0    0  0.38198343373E+02  0.66572601401E+02  0.10202547656E+03  0.12767232496E+03  0.00000000000E+00 0. -1.
        -12    1    4    4    0    0 -0.21922500684E+02 -0.88530961163E+01  0.38870937398E+02  0.45496407784E+02  0.00000000000E+00 0.  1.
        -13    1    3    3    0    0 -0.51748727786E+00 -0.64417943371E+02 -0.43451952414E+02  0.77704642010E+02  0.00000000000E+00 0.  1.
         13    1    3    3    0    0  0.13729801649E+02  0.23123945132E+02  0.12962891697E+02  0.29853992245E+02  0.00000000000E+00 0. -1.
         21    1    1    2  502  501 -0.29488157060E+02 -0.16425507045E+02  0.15592912504E+02  0.37181818257E+02  0.00000000000E+00 0.  1.
<scales pt_clust_5="13000.00000" pt_clust_6="13000.00000" pt_clust_7="13000.00000" pt_clust_8="13000.00000" pt_clust_9="33.75424"></scales>
<clustering>
<clus scale="   33.754">  1  9  2 -1</clus>
<clus scale="   80.865">  5  6 -1 -1</clus>
<clus scale="   92.612">  1  5  2 -1</clus>
<clus scale="   93.592">  7  8 -1 -1</clus>
<clus scale="   33.754">  1  5  2 -1</clus>
</clustering>
</event>
<event>
 9    1  0.1973774E-005  0.9904070E+02  0.7546771E-02  0.1287170E+00
          1   -1    0    0  502    0  0.00000000000E+00  0.00000000000E+00  0.70502255115E+02  0.70502255115E+02  0.00000000000E+00 0. -1.
         -2   -1    0    0    0  501 -0.00000000000E+00 -0.00000000000E+00 -0.26015535385E+03  0.26015535385E+03  0.00000000000E+00 0.  1.
        -24    2    1    2    0    0  0.39262073841E+01 -0.38328643486E+02 -0.19077206560E+03  0.21168091338E+03  0.83248591931E+02 0.  0.
         23    2    1    2    0    0 -0.15316656547E+02  0.18544709884E+02 -0.33793214804E+01  0.95709100969E+02  0.92575946996E+02 0.  0.
         13    1    3    3    0    0 -0.28505753495E+02 -0.39970685525E+02 -0.63129329785E+02  0.79972157422E+02  0.00000000000E+00 0. -1.
        -14    1    3    3    0    0  0.32431960880E+02  0.16420420385E+01 -0.12764273582E+03  0.13170875596E+03  0.00000000000E+00 0.  1.
        -13    1    4    4    0    0  0.61652116778E+00  0.55014376823E+02  0.42666191364E+01  0.55183020889E+02  0.00000000000E+00 0. -1.
         13    1    4    4    0    0 -0.15933177715E+02 -0.36469666939E+02 -0.76459406168E+01  0.40526080080E+02  0.00000000000E+00 0.  1.
         21    1    1    2  502  501  0.11390449163E+02  0.19783933602E+02  0.44982883528E+01  0.23267594612E+02  0.00000000000E+00 0.  1.
<scales pt_clust_5="13000.00000" pt_clust_6="13000.00000" pt_clust_7="13000.00000" pt_clust_8="13000.00000" pt_clust_9="22.82863"></scales>
<clustering>
<clus scale="   22.829">  1  9  2 -1</clus>
<clus scale="   83.249">  5  6 -1 -1</clus>
<clus scale="   90.383">  2  5  1 -1</clus>
<clus scale="   92.576">  7  8 -1 -1</clus>
<clus scale="   22.829">  1  5  2 -1</clus>
</clustering>
</event>
<event>
 9    1  0.1973774E-005  0.1194174E+03  0.7546771E-02  0.1244371E+00
          1   -1    0    0  502    0  0.00000000000E+00  0.00000000000E+00  0.14299874817E+03  0.14299874817E+03  0.00000000000E+00 0. -1.
         -2   -1    0    0    0  501 -0.00000000000E+00 -0.00000000000E+00 -0.28383781902E+03  0.28383781902E+03  0.00000000000E+00 0.  1.
         23    2    1    2    0    0 -0.94096561426E+02  0.22090225100E+02 -0.22043236261E+03  0.25472126096E+03  0.83368779408E+02 0.  0.
        -24    2    1    2    0    0  0.43932430834E+02 -0.12575535001E+02  0.25070832611E+02  0.97418131742E+02  0.82301538167E+02 0.  0.
         13    1    4    4    0    0  0.52329970490E+02  0.11953579726E+02 -0.91839311668E+01  0.54457859593E+02  0.00000000000E+00 0. -1.
        -14    1    4    4    0    0 -0.83975396561E+01 -0.24529114727E+02  0.34254763778E+02  0.42960272148E+02  0.00000000000E+00 0.  1.
        -11    1    3    3    0    0 -0.14900611466E+02 -0.25127894347E+02 -0.24308211835E+02  0.38004321583E+02  0.00000000000E+00 0. -1.
         11    1    3    3    0    0 -0.79195949960E+02  0.47218119446E+02 -0.19612415077E+03  0.21671693937E+03  0.00000000000E+00 0.  1.
         21    1    1    2  502  501  0.50164130592E+02 -0.95146900986E+01  0.54522459146E+02  0.74697174491E+02  0.00000000000E+00 0. -1.
<scales pt_clust_5="13000.00000" pt_clust_6="13000.00000" pt_clust_7="13000.00000" pt_clust_8="13000.00000" pt_clust_9="51.05849"></scales>
<clustering>
<clus scale="   51.058">  1  9  2 -1</clus>
<clus scale="   82.302">  5  6 -1 -1</clus>
<clus scale="   83.369">  7  8 -1 -1</clus>
<clus scale="  118.675">  1  5  2 -1</clus>
<clus scale="   51.058">  1  5  2 -1</clus>
</clustering>
</event>
<event>
 9    1  0.1973774E-005  0.1897979E+03  0.7546771E-02  0.1191774E+00
          1   -1    0    0  502    0  0.00000000000E+00  0.00000000000E+00  0.43367174335E+03  0.43367174335E+03  0.00000000000E+00 0. -1.
         -2   -1    0    0    0  501 -0.00000000000E+00 -0.00000000000E+00 -0.13394769164E+03  0.13394769164E+03  0.00000000000E+00 0.  1.
        -24    2    1    2    0    0  0.19590939329E+02  0.26554957425E+02 -0.15398753784E+02  0.90869789091E+02  0.83253986593E+02 0.  0.
         23    2    1    2    0    0 -0.19548708709E+02  0.15181412686E+03  0.13835893541E+03  0.22563015685E+03  0.91302199010E+02 0.  0.
         11    1    3    3    0    0  0.23173334288E+02 -0.21860452941E+02  0.13245997197E+02  0.34501293694E+02  0.00000000000E+00 0. -1.
        -12    1    3    3    0    0 -0.35823949590E+01  0.48415410366E+02 -0.28644750981E+02  0.56368495397E+02  0.00000000000E+00 0.  1.
        -13    1    4    4    0    0 -0.14371898591E+02  0.12674949596E+03  0.15051307712E+03  0.19729716820E+03  0.00000000000E+00 0.  1.
         13    1    4    4    0    0 -0.51768101179E+01  0.25064630905E+02 -0.12154141706E+02  0.28332988653E+02  0.00000000000E+00 0. -1.
         21    1    1    2  502  501 -0.42230620624E-01 -0.17836908429E+03  0.17676387009E+03  0.25111948905E+03  0.00000000000E+00 0. -1.
<scales pt_clust_5="13000.00000" pt_clust_6="13000.00000" pt_clust_7="13000.00000" pt_clust_8="13000.00000" pt_clust_9="166.39459"></scales>
<clustering>
<clus scale="   83.254">  5  6 -1 -1</clus>
<clus scale="   89.556">  2  5  1 -1</clus>
<clus scale="   91.302">  7  8 -1 -1</clus>
<clus scale="  166.395">  1  9  2 -1</clus>
<clus scale="  166.395">  1  5  2 -1</clus>
</clustering>
</event>
<event>
 9    1  0.1973774E-005  0.1368924E+03  0.7546771E-02  0.1220409E+00
         -2   -1    0    0    0  501 -0.00000000000E+00  0.00000000000E+00  0.98718353371E+02  0.98718353371E+02  0.00000000000E+00 0.  1.
          1   -1    0    0  502    0  0.00000000000E+00 -0.00000000000E+00 -0.35101010247E+03  0.35101010247E+03  0.00000000000E+00 0. -1.
         23    2    1    2    0    0  0.62676810585E+02 -0.61549982794E+02 -0.50486697357E+02  0.13733617787E+03  0.92712114498E+02 0.  0.
        -24    2    1    2    0    0 -0.83888686102E+02  0.75544480411E+02 -0.34150921343E+02  0.14282312669E+03  0.80547376821E+02 0.  0.
         11    1    4    4    0    0 -0.15571569558E+02 -0.15772976288E+02  0.40891016572E+01  0.22538440759E+02  0.00000000000E+00 0. -1.
        -12    1    4    4    0    0 -0.68317116544E+02  0.91317456699E+02 -0.38240023001E+02  0.12028468593E+03  0.00000000000E+00 0.  1.
        -13    1    3    3    0    0  0.10945427542E+02 -0.73547175926E+02 -0.25132136541E+02  0.78489577384E+02  0.00000000000E+00 0.  1.
         13    1    3    3    0    0  0.51731383043E+02  0.11997193131E+02 -0.25354560816E+02  0.58846600486E+02  0.00000000000E+00 0. -1.
         21    1    1    2  502  501  0.21211875517E+02 -0.13994497616E+02 -0.16765413040E+03  0.16956915128E+03  0.00000000000E+00 0. -1.
<scales pt_clust_5="13000.00000" pt_clust_6="13000.00000" pt_clust_7="13000.00000" pt_clust_8="13000.00000" pt_clust_9="25.41239"></scales>
<clustering>
<clus scale="   25.412">  2  9  1 -1</clus>
<clus scale="   80.547">  5  6 -1 -1</clus>
<clus scale="   92.712">  7  8 -1 -1</clus>
<clus scale="  128.965">  2  5  1 -1</clus>
<clus scale="   25.412">  2  5  1 -1</clus>
</clustering>
</event>
<event>
 9    1  0.1973774E-005  0.1851339E+03  0.7546771E-02  0.1164243E+00
          1   -1    0    0  502    0  0.00000000000E+00  0.00000000000E+00  0.42668782121E+03  0.42668782121E+03  0.00000000000E+00 0. -1.
         -2   -1    0    0    0  501 -0.00000000000E+00 -0.00000000000E+00 -0.11663491159E+03  0.11663491159E+03  0.00000000000E+00 0.  1.
         23    2    1    2    0    0  0.46198399804E+02  0.16627254318E+03  0.23678465750E+02  0.19646380791E+03  0.90865325166E+02 0.  0.
        -24    2    1    2    0    0 -0.42604465381E+02 -0.12987571415E+03  0.21565805800E+03  0.26724452444E+03  0.78920189234E+02 0.  0.
         13    1    4    4    0    0 -0.39760272102E+02 -0.14016867268E+03  0.18984621379E+03  0.23931092940E+03  0.00000000000E+00 0. -1.
        -14    1    4    4    0    0 -0.28441932790E+01  0.10292958530E+02  0.25811844207E+02  0.27933595044E+02  0.00000000000E+00 0.  1.
        -13    1    3    3    0    0  0.52553500714E+02  0.76610498481E+02 -0.22238568451E+02  0.95527968897E+02  0.00000000000E+00 0.  1.
         13    1    3    3    0    0 -0.63551009096E+01  0.89662044698E+02  0.45917034201E+02  0.10093583901E+03  0.00000000000E+00 0. -1.
         21    1    1    2  502  501 -0.35939344229E+01 -0.36396829025E+02  0.70716385880E+02  0.79614400454E+02  0.00000000000E+00 0. -1.
<scales pt_clust_5="13000.00000" pt_clust_6="13000.00000" pt_clust_7="13000.00000" pt_clust_8="13000.00000" pt_clust_9="36.57384"></scales>
<clustering>
<clus scale="   36.574">  1  9  2 -1</clus>
<clus scale="   78.920">  5  6 -1 -1</clus>
<clus scale="   90.865">  7  8 -1 -1</clus>
<clus scale="  179.573">  1  5  2 -1</clus>
<clus scale="   36.574">  1  5  2 -1</clus>
</clustering>
</event>
<event>
 9    1  0.1973774E-005  0.1312627E+03  0.7546771E-02  0.1228037E+00
          1   -1    0    0  502    0  0.00000000000E+00  0.00000000000E+00  0.66204798630E+03  0.66204798630E+03  0.00000000000E+00 0. -1.
         -2   -1    0    0    0  501 -0.00000000000E+00 -0.00000000000E+00 -0.16253981333E+03  0.16253981333E+03  0.00000000000E+00 0.  1.
         23    2    1    2    0    0  0.95780571273E+02 -0.25345884605E+02 -0.87099838953E+02  0.15985705394E+03  0.90286012481E+02 0.  0.
        -24    2    1    2    0    0 -0.92331940436E+02 -0.62321094337E+02  0.99294720200E+02  0.16958265013E+03  0.80558846449E+02 0.  0.
         11    1    4    4    0    0 -0.50991714685E+02  0.36181524373E+01  0.69437312001E+02  0.86225206823E+02  0.00000000000E+00 0. -1.
        -12    1    4    4    0    0 -0.41340225750E+02 -0.65939246774E+02  0.29857408199E+02  0.83357443306E+02  0.00000000000E+00 0.  1.
        -13    1    3    3    0    0  0.11110278513E+03 -0.11878854587E+02 -0.62963647479E+02  0.12825504651E+03  0.00000000000E+00 0.  1.
         13    1    3    3    0    0 -0.15322213860E+02 -0.13467030019E+02 -0.24136191474E+02  0.31602007436E+02  0.00000000000E+00 0. -1.
         21    1    1    2  502  501 -0.34486308377E+01  0.87666978942E+02  0.48731329172E+03  0.49514809557E+03  0.00000000000E+00 0. -1.
<scales pt_clust_5="13000.00000" pt_clust_6="13000.00000" pt_clust_7="13000.00000" pt_clust_8="13000.00000" pt_clust_9="87.73478"></scales>
<clustering>
<clus scale="   80.559">  5  6 -1 -1</clus>
<clus scale="   87.735">  1  9  2 -1</clus>
<clus scale="   90.286">  7  8 -1 -1</clus>
<clus scale="  124.772">  1  5  2 -1</clus>
<clus scale="   87.735">  1  5  2 -1</clus>
</clustering>
</event>
<event>
 9    1  0.1973774E-005  0.8807296E+02  0.7546771E-02  0.1307661E+00
          1   -1    0    0  502    0  0.00000000000E+00  0.00000000000E+00  0.61244412721E+03  0.61244412721E+03  0.00000000000E+00 0. -1.
         -2   -1    0    0    0  501 -0.00000000000E+00 -0.00000000000E+00 -0.29333227994E+02  0.29333227994E+02  0.00000000000E+00 0.  1.
        -24    2    1    2    0    0  0.27008610503E+02 -0.14518550968E+02  0.65872792583E+02  0.10877171951E+03  0.80943244303E+02 0.  0.
         23    2    1    2    0    0 -0.41847393924E+02  0.38090033677E+02  0.43925824604E+03  0.45020066635E+03  0.80813230504E+02 0.  0.
         13    1    3    3    0    0  0.33092289043E+02  0.27806152945E+02  0.26862275278E+02  0.50890702184E+02  0.00000000000E+00 0. -1.
        -14    1    3    3    0    0 -0.60836785397E+01 -0.42324703913E+02  0.39010517305E+02  0.57881017323E+02  0.00000000000E+00 0.  1.
        -11    1    4    4    0    0  0.82942883464E+01  0.46237111839E+02  0.18120352952E+03  0.18719344230E+03  0.00000000000E+00 0. -1.
         11    1    4    4    0    0 -0.50141682270E+02 -0.81470781616E+01  0.25805471652E+03  0.26300722405E+03  0.00000000000E+00 0.  1.
         21    1    1    2  502  501  0.14838783421E+02 -0.23571482709E+02  0.77979860588E+02  0.82804969343E+02  0.00000000000E+00 0. -1.
<scales pt_clust_5="13000.00000" pt_clust_6="13000.00000" pt_clust_7="13000.00000" pt_clust_8="13000.00000" pt_clust_9="27.85326"></scales>
<clustering>
<clus scale="   27.853">  1  9  2 -1</clus>
<clus scale="   80.813">  7  8 -1 -1</clus>
<clus scale="   80.943">  5  6 -1 -1</clus>
<clus scale="   87.953">  1  7  2 -1</clus>
<clus scale="   27.853">  1  5  2 -1</clus>
</clustering>
</event>
<event>
 9    1  0.1973774E-005  0.1381114E+03  0.7546771E-02  0.1238882E+00
         -2   -1    0    0    0  501 -0.00000000000E+00  0.00000000000E+00  0.24820510295E+03  0.24820510295E+03  0.00000000000E+00 0.  1.
          1   -1    0    0  502    0  0.00000000000E+00 -0.00000000000E+00 -0.56879465590E+03  0.56879465590E+03  0.00000000000E+00 0. -1.
        -24    2    1    2    0    0 -0.29200873142E+02 -0.89378083012E+01  0.34222758048E+01  0.85801633622E+02  0.80110130140E+02 0.  0.
         23    2    1    2    0    0 -0.59411631842E+02 -0.45483536262E+02  0.18061694753E+03  0.21596607980E+03  0.91762583994E+02 0.  0.
         13    1    3    3    0    0 -0.29054137263E+02  0.61011818404E+01 -0.34197963886E+02  0.45286510639E+02  0.00000000000E+00 0. -1.
        -14    1    3    3    0    0 -0.14673587925E+00 -0.15038990142E+02  0.37620239691E+02  0.40515122983E+02  0.00000000000E+00 0.  1.
        -11    1    4    4    0    0 -0.31091208250E+02 -0.64956802310E+01  0.16072543985E+03  0.16383383078E+03  0.00000000000E+00 0.  1.
         11    1    4    4    0    0 -0.28320423592E+02 -0.38987856031E+02  0.19891507674E+02  0.52132249020E+02  0.00000000000E+00 0. -1.
         21    1    1    2  502  501  0.88612504984E+02  0.54421344564E+02 -0.50462877628E+03  0.51523204542E+03  0.00000000000E+00 0. -1.
<scales pt_clust_5="13000.00000" pt_clust_6="13000.00000" pt_clust_7="13000.00000" pt_clust_8="13000.00000" pt_clust_9="103.22014"></scales>
<clustering>
<clus scale="   80.110">  5  6 -1 -1</clus>
<clus scale="   85.733">  1  5  2 -1</clus>
<clus scale="   91.763">  7  8 -1 -1</clus>
<clus scale="  103.220">  2  9  1 -1</clus>
<clus scale="  103.220">  2  5  1 -1</clus>
</clustering>
</event>
<event>
 9    1  0.1973774E-005  0.1145491E+03  0.7546771E-02  0.1256195E+00
          1   -1    0    0  502    0  0.00000000000E+00  0.00000000000E+00  0.13582181274E+03  0.13582181274E+03  0.00000000000E+00 0. -1.
         -2   -1    0    0    0  501 -0.00000000000E+00 -0.00000000000E+00 -0.35201823560E+03  0.35201823560E+03  0.00000000000E+00 0.  1.
        -24    2    1    2    0    0  0.17691938135E+02 -0.86276382572E+02 -0.28950138901E+03  0.31324243147E+03  0.80951514920E+02 0.  0.
         23    2    1    2    0    0 -0.97976762759E+01  0.66258889590E+02  0.91978956206E+02  0.14610661303E+03  0.91655764009E+02 0.  0.
         13    1    3    3    0    0  0.26777443910E+02  0.57144834289E+00 -0.11543001011E+03  0.11849660455E+03  0.00000000000E+00 0. -1.
        -14    1    3    3    0    0 -0.90855057756E+01 -0.86847830915E+02 -0.17407137890E+03  0.19474582692E+03  0.00000000000E+00 0.  1.
        -13    1    4    4    0    0 -0.35601599259E+02 -0.49448117686E+01  0.17853967443E+02  0.40133392414E+02  0.00000000000E+00 0.  1.
         13    1    4    4    0    0  0.25803922983E+02  0.71203701358E+02  0.74124988764E+02  0.10597322062E+03  0.00000000000E+00 0. -1.
         21    1    1    2  502  501 -0.78942618589E+01  0.20017492982E+02 -0.18673990056E+02  0.28491003847E+02  0.00000000000E+00 0.  1.
<scales pt_clust_5="13000.00000" pt_clust_6="13000.00000" pt_clust_7="13000.00000" pt_clust_8="13000.00000" pt_clust_9="21.51789"></scales>
<clustering>
<clus scale="   21.518">  2  9  1 -1</clus>
<clus scale="   80.952">  5  6 -1 -1</clus>
<clus scale="   91.656">  7  8 -1 -1</clus>
<clus scale="  106.178">  2  5  1 -1</clus>
<clus scale="  114.549">  1  5  2 -1</clus>
</clustering>
</event>
<event>
 9    1  0.1973774E-005  0.1457384E+03  0.7546771E-02  0.1207483E+00
          1   -1    0    0  502    0  0.00000000000E+00  0.00000000000E+00  0.91329486945E+02  0.91329486945E+02  0.00000000000E+00 0. -1.
         -2   -1    0    0    0  501 -0.00000000000E+00 -0.00000000000E+00 -0.55008905827E+03  0.55008905827E+03  0.00000000000E+00 0.  1.
         23    2    1    2    0    0 -0.85098459648E+02  0.75346671504E+02 -0.44502175032E+03  0.46838159112E+03  0.91750138426E+02 0.  0.
        -24    2    1    2    0    0  0.10204870470E+03 -0.51251430196E+02 -0.20396162597E+02  0.14283389177E+03  0.83335886401E+02 0.  0.
         13    1    4    4    0    0  0.43005948673E+02 -0.43355617983E+01  0.29569109507E+02  0.52370229658E+02  0.00000000000E+00 0. -1.
        -14    1    4    4    0    0  0.59042756026E+02 -0.46915868397E+02 -0.49965272105E+02  0.90463662114E+02  0.00000000000E+00 0.  1.
        -11    1    3    3    0    0 -0.51414352198E+02  0.94226963891E+02 -0.31888943280E+03  0.33647084077E+03  0.00000000000E+00 0.  1.
         11    1    3    3    0    0 -0.33684107450E+02 -0.18880292387E+02 -0.12613231752E+03  0.13191075035E+03  0.00000000000E+00 0. -1.
         21    1    1    2  502  501 -0.16950245051E+02 -0.24095241308E+02  0.66583415913E+01  0.30203062324E+02  0.00000000000E+00 0. -1.
<scales pt_clust_5="13000.00000" pt_clust_6="13000.00000" pt_clust_7="13000.00000" pt_clust_8="13000.00000" pt_clust_9="29.46000"></scales>
<clustering>
<clus scale="   29.460">  1  9  2 -1</clus>
<clus scale="   83.336">  5  6 -1 -1</clus>
<clus scale="   91.750">  7  8 -1 -1</clus>
<clus scale="  140.593">  1  5  2 -1</clus>
<clus scale="   29.460">  1  5  2 -1</clus>
</clustering>
</event>
<event>
 9    1  0.1973774E-005  0.1174105E+03  0.7546771E-02  0.1253843E+00
         -2   -1    0    0    0  501 -0.00000000000E+00  0.00000000000E+00  0.11160083376E+03  0.11160083376E+03  0.00000000000E+00 0.  1.
          1   -1    0    0  502    0  0.00000000000E+00 -0.00000000000E+00 -0.21246767478E+03  0.21246767478E+03  0.00000000000E+00 0. -1.
        -24    2    1    2    0    0 -0.22728161819E+02  0.62856099083E+02  0.35012061978E+02  0.10526212476E+03  0.73394903722E+02 0.  0.
         23    2    1    2    0    0  0.22301770750E+02 -0.88054759217E+02 -0.67579597614E+02  0.14600563244E+03  0.92193454702E+02 0.  0.
         11    1    3    3    0    0 -0.25184019474E+02  0.24461748796E+01 -0.12637031232E+02  0.28282736196E+02  0.00000000000E+00 0. -1.
        -12    1    3    3    0    0  0.24558576545E+01  0.60409924203E+02  0.47649093211E+02  0.76979388559E+02  0.00000000000E+00 0.  1.
        -13    1    4    4    0    0  0.88223039033E+01 -0.24764596167E+02  0.22834117053E+02  0.34821188536E+02  0.00000000000E+00 0.  1.
         13    1    4    4    0    0  0.13479466846E+02 -0.63290163050E+02 -0.90413714667E+02  0.11118444390E+03  0.00000000000E+00 0. -1.
         21    1    1    2  502  501  0.42639106951E+00  0.25198660134E+02 -0.68299305379E+02  0.72800751351E+02  0.00000000000E+00 0. -1.
<scales pt_clust_5="13000.00000" pt_clust_6="13000.00000" pt_clust_7="13000.00000" pt_clust_8="13000.00000" pt_clust_9="25.20227"></scales>
<clustering>
<clus scale="   25.202">  2  9  1 -1</clus>
<clus scale="   73.395">  5  6 -1 -1</clus>
<clus scale="   92.193">  7  8 -1 -1</clus>
<clus scale="  103.307">  1  5  2 -1</clus>
<clus scale="   25.202">  2  5  1 -1</clus>
</clustering>
</event>
<event>
 9    1  0.1973774E-005  0.1056325E+03  0.7546771E-02  0.1273881E+00
         -2   -1    0    0    0  501 -0.00000000000E+00  0.00000000000E+00  0.14567215823E+03  0.14567215823E+03  0.00000000000E+00 0.  1.
          1   -1    0    0  502    0  0.00000000000E+00 -0.00000000000E+00 -0.10145657331E+03  0.10145657331E+03  0.00000000000E+00 0. -1.
         23    2    1    2    0    0 -0.50685140970E+01 -0.60063274178E+02  0.72362029500E+02  0.13060645052E+03  0.90490302591E+02 0.  0.
        -24    2    1    2    0    0 -0.87263699646E+01  0.42792473812E+02 -0.27885452750E+02  0.94416908635E+02  0.78927870955E+02 0.  0.
         11    1    4    4    0    0 -0.20515984338E+02  0.35976262615E+02 -0.52148541911E+02  0.66593299276E+02  0.00000000000E+00 0. -1.
        -12    1    4    4    0    0  0.11789614373E+02  0.68162111970E+01  0.24263089161E+02  0.27823609359E+02  0.00000000000E+00 0.  1.
        -11    1    3    3    0    0  0.54983615349E+01 -0.30167804146E+02  0.89468907475E+02  0.94578083039E+02  0.00000000000E+00 0.  1.
         11    1    3    3    0    0 -0.10566875632E+02 -0.29895470032E+02 -0.17106877975E+02  0.36028367478E+02  0.00000000000E+00 0. -1.
         21    1    1    2  502  501  0.13794884062E+02  0.17270800366E+02 -0.26099182534E+00  0.22105372386E+02  0.00000000000E+00 0. -1.
<scales pt_clust_5="13000.00000" pt_clust_6="13000.00000" pt_clust_7="13000.00000" pt_clust_8="13000.00000" pt_clust_9="22.10383"></scales>
<clustering>
<clus scale="   22.104">  2  9  1 -1</clus>
<clus scale="   78.928">  5  6 -1 -1</clus>
<clus scale="   90.490">  7  8 -1 -1</clus>
<clus scale="   95.913">  2  5  1 -1</clus>
<clus scale="   22.104">  2  5  1 -1</clus>
</clustering>
</event>
<event>
 9    1  0.1973774E-005  0.2044762E+03  0.7546771E-02  0.1165864E+00
         -2   -1    0    0    0  501 -0.00000000000E+00  0.00000000000E+00  0.35777682051E+03  0.35777682051E+03  0.00000000000E+00 0.  1.
          1   -1    0    0  502    0  0.00000000000E+00 -0.00000000000E+00 -0.63950323306E+03  0.63950323306E+03  0.00000000000E+00 0. -1.
         23    2    1    2    0    0 -0.81442776078E+02  0.42241206530E+02  0.62685724984E+01  0.12854210314E+03  0.89813874059E+02 0.  0.
        -24    2    1    2    0    0 -0.11103462751E+03 -0.30168118202E+02  0.25580996771E+03  0.29174823042E+03  0.80246411196E+02 0.  0.
         11    1    4    4    0    0 -0.57353368475E+02 -0.33179877354E+02  0.62445651495E+02  0.91048187940E+02  0.00000000000E+00 0. -1.
        -12    1    4    4    0    0 -0.53681259034E+02  0.30117591523E+01  0.19336431622E+03  0.20070004248E+03  0.00000000000E+00 0.  1.
        -13    1    3    3    0    0 -0.10069366683E+03  0.28675508563E+02  0.27753099334E+01  0.10473395665E+03  0.00000000000E+00 0.  1.
         13    1    3    3    0    0  0.19250890747E+02  0.13565697967E+02  0.34932625649E+01  0.23808146489E+02  0.00000000000E+00 0. -1.
         21    1    1    2  502  501  0.19247740359E+03 -0.12073088329E+02 -0.54380495276E+03  0.57698972001E+03  0.00000000000E+00 0. -1.
<scales pt_clust_5="13000.00000" pt_clust_6="13000.00000" pt_clust_7="13000.00000" pt_clust_8="13000.00000" pt_clust_9="188.07182"></scales>
<clustering>
<clus scale="   80.246">  5  6 -1 -1</clus>
<clus scale="   89.814">  7  8 -1 -1</clus>
<clus scale="  128.389">  1  7  2 -1</clus>
<clus scale="  188.072">  2  9  1 -1</clus>
<clus scale="  188.072">  2  5  1 -1</clus>
</clustering>
</event>
<event>
 9    1  0.1973774E-005  0.1901896E+03  0.7546771E-02  0.1159525E+00
         -2   -1    0    0    0  501 -0.00000000000E+00  0.00000000000E+00  0.22828750518E+03  0.22828750518E+03  0.00000000000E+00 0.  1.
          1   -1    0    0  502    0  0.00000000000E+00 -0.00000000000E+00 -0.29449748877E+03  0.29449748877E+03  0.00000000000E+00 0. -1.
        -24    2    1    2    0    0  0.14906132729E+03 -0.66038181931E+02  0.11586088946E+03  0.21585025355E+03  0.81161970685E+02 0.  0.
         23    2    1    2    0    0 -0.17790705545E+03  0.38179689533E+02 -0.16789326059E+03  0.26440032694E+03  0.92794271728E+02 0.  0.
         11    1    3    3    0    0  0.29554211518E+02  0.15952263813E+02  0.40125873328E+02  0.52326015036E+02  0.00000000000E+00 0. -1.
        -12    1    3    3    0    0  0.11950711577E+03 -0.81990445744E+02  0.75735016130E+02  0.16352423851E+03  0.00000000000E+00 0.  1.
        -11    1    4    4    0    0 -0.53187408354E+02  0.15201079375E+02 -0.11378938271E+03  0.12652271274E+03  0.00000000000E+00 0. -1.
         11    1    4    4    0    0 -0.12471964710E+03  0.22978610158E+02 -0.54103877873E+02  0.13787761420E+03  0.00000000000E+00 0.  1.
         21    1    1    2  502  501  0.28845728162E+02  0.27858492398E+02 -0.14177612463E+02  0.42534413444E+02  0.00000000000E+00 0.  1.
<scales pt_clust_5="13000.00000" pt_clust_6="13000.00000" pt_clust_7="13000.00000" pt_clust_8="13000.00000" pt_clust_9="40.10202"></scales>
<clustering>
<clus scale="   40.102">  2  9  1 -1</clus>
<clus scale="   81.162">  5  6 -1 -1</clus>
<clus scale="   92.794">  7  8 -1 -1</clus>
<clus scale="  184.793">  1  5  2 -1</clus>
<clus scale="   40.102">  2  5  1 -1</clus>
</clustering>
</event>
<event>
 9    1  0.1973774E-005  0.1590626E+03  0.7546771E-02  0.1190650E+00
          1   -1    0    0  502    0  0.00000000000E+00  0.00000000000E+00  0.66394152318E+02  0.66394152318E+02  0.00000000000E+00 0. -1.
         -2   -1    0    0    0  501 -0.00000000000E+00 -0.00000000000E+00 -0.12580799516E+04  0.12580799516E+04  0.00000000000E+00 0.  1.
        -24    2    1    2    0    0  0.83025014460E+02  0.83626921287E+02 -0.97804129523E+03  0.99002641807E+03  0.98493239920E+02 0.  0.
         23    2    1    2    0    0 -0.14643160636E+03 -0.53340871294E+02 -0.15842407411E+03  0.24507802319E+03  0.10333240684E+03 0.  0.
         11    1    3    3    0    0  0.62006647539E+02  0.69761196111E+02 -0.37434294016E+03  0.38580316959E+03  0.00000000000E+00 0. -1.
        -12    1    3    3    0    0  0.21018366921E+02  0.13865725177E+02 -0.60369835507E+03  0.60422324848E+03  0.00000000000E+00 0.  1.
        -13    1    4    4    0    0 -0.59122034854E+02 -0.49189779386E+02 -0.13369652983E+03  0.15423946152E+03  0.00000000000E+00 0.  1.
         13    1    4    4    0    0 -0.87309571504E+02 -0.41510919081E+01 -0.24727544280E+02  0.90838561671E+02  0.00000000000E+00 0. -1.
         21    1    1    2  502  501  0.63406591899E+02 -0.30286049993E+02 -0.55220429937E+02  0.89369662654E+02  0.00000000000E+00 0.  1.
<scales pt_clust_5="13000.00000" pt_clust_6="13000.00000" pt_clust_7="13000.00000" pt_clust_8="13000.00000" pt_clust_9="70.26835"></scales>
<clustering>
<clus scale="   70.268">  1  9  2 -1</clus>
<clus scale="   98.493">  5  6 -1 -1</clus>
<clus scale="  103.332">  7  8 -1 -1</clus>
<clus scale="  155.962">  2  5  1 -1</clus>
<clus scale="   70.268">  1  5  2 -1</clus>
</clustering>
</event>
<event>
 9    1  0.1973774E-005  0.1456912E+03  0.7546771E-02  0.1210704E+00
          1   -1    0    0  502    0  0.00000000000E+00  0.00000000000E+00  0.64939921155E+03  0.64939921155E+03  0.00000000000E+00 0. -1.
         -2   -1    0    0    0  501 -0.00000000000E+00 -0.00000000000E+00 -0.44540850237E+02  0.44540850237E+02  0.00000000000E+00 0.  1.
         23    2    1    2    0    0  0.10777695304E+03  0.60373877884E+02  0.15209824224E+03  0.21619419137E+03  0.91351936772E+02 0.  0.
        -24    2    1    2    0    0 -0.87184179821E+02 -0.42583360048E+02  0.29251411992E+03  0.31520558286E+03  0.66148509825E+02 0.  0.
         11    1    4    4    0    0 -0.50134816158E+02  0.77343167952E+00  0.20274058451E+03  0.20884885108E+03  0.00000000000E+00 0. -1.
        -12    1    4    4    0    0 -0.37049363662E+02 -0.43356791728E+02  0.89773535403E+02  0.10635673178E+03  0.00000000000E+00 0.  1.
        -11    1    3    3    0    0  0.96018613516E+02  0.84084353837E+01  0.73378313617E+02  0.12113898149E+03  0.00000000000E+00 0.  1.
         11    1    3    3    0    0  0.11758339521E+02  0.51965442501E+02  0.78719928623E+02  0.95055209878E+02  0.00000000000E+00 0. -1.
         21    1    1    2  502  501 -0.20592773216E+02 -0.17790517836E+02  0.16024599916E+03  0.16254028756E+03  0.00000000000E+00 0. -1.
<scales pt_clust_5="13000.00000" pt_clust_6="13000.00000" pt_clust_7="13000.00000" pt_clust_8="13000.00000" pt_clust_9="27.21332"></scales>
<clustering>
<clus scale="   27.213">  1  9  2 -1</clus>
<clus scale="   66.149">  5  6 -1 -1</clus>
<clus scale="   91.352">  7  8 -1 -1</clus>
<clus scale="  131.364">  1  5  2 -1</clus>
<clus scale="   27.213">  1  5  2 -1</clus>
</clustering>
</event>
<event>
 9    1  0.1973774E-005  0.9796856E+02  0.7546771E-02  0.1295508E+00
         -2   -1    0    0    0  501 -0.00000000000E+00  0.00000000000E+00  0.21951046546E+03  0.21951046546E+03  0.00000000000E+00 0.  1.
          1   -1    0    0  502    0  0.00000000000E+00 -0.00000000000E+00 -0.74397431537E+02  0.74397431537E+02  0.00000000000E+00 0. -1.
        -24    2    1    2    0    0 -0.30503727576E+02  0.19539108937E+02  0.15341263641E+03  0.17362647180E+03  0.72790524980E+02 0.  0.
         23    2    1    2    0    0  0.78718288821E+01 -0.20535782577E+02  0.31608859074E+01  0.94893652731E+02  0.92255786122E+02 0.  0.
         11    1    3    3    0    0 -0.74179187151E+01  0.44875731677E+02  0.70397586395E+02  0.83813346084E+02  0.00000000000E+00 0. -1.
        -12    1    3    3    0    0 -0.23085808861E+02 -0.25336622740E+02  0.83015050011E+02  0.89813125716E+02  0.00000000000E+00 0.  1.
        -11    1    4    4    0    0  0.19658658772E+02 -0.45303184903E+02 -0.25196678210E+02  0.55441086027E+02  0.00000000000E+00 0. -1.
         11    1    4    4    0    0 -0.11786829890E+02  0.24767402326E+02  0.28357564117E+02  0.39452566704E+02  0.00000000000E+00 0.  1.
         21    1    1    2  502  501  0.22631898694E+02  0.99667364003E+00 -0.11460488387E+02  0.25387772468E+02  0.00000000000E+00 0. -1.
<scales pt_clust_5="13000.00000" pt_clust_6="13000.00000" pt_clust_7="13000.00000" pt_clust_8="13000.00000" pt_clust_9="22.65383"></scales>
<clustering>
<clus scale="   22.654">  2  9  1 -1</clus>
<clus scale="   72.791">  5  6 -1 -1</clus>
<clus scale="   79.907">  1  5  2 -1</clus>
<clus scale="   92.256">  7  8 -1 -1</clus>
<clus scale="   22.654">  2  5  1 -1</clus>
</clustering>
</event>
<event>
 9    1  0.2460717E-005  0.1112641E+03  0.7546771E-02  0.1265144E+00
          1   -1    0    0  502    0  0.00000000000E+00  0.00000000000E+00  0.42341215201E+03  0.42341215201E+03  0.00000000000E+00 0. -1.
         -2   -1    0    0    0  501 -0.00000000000E+00 -0.00000000000E+00 -0.24089064706E+03  0.24089064706E+03  0.00000000000E+00 0.  1.
        -24    2    1    2    0    0 -0.28115331305E+02  0.57618734472E+01 -0.20320763554E+03  0.22018671893E+03  0.79782059441E+02 0.  0.
         23    2    1    2    0    0  0.33736006179E+02  0.46187384768E+02  0.37416321666E+03  0.39059890524E+03  0.96426134677E+02 0.  0.
         13    1    3    3    0    0 -0.31338784158E+02  0.15076749887E+02 -0.27854361381E+02  0.44556629446E+02  0.00000000000E+00 0. -1.
        -14    1    3    3    0    0  0.32234528527E+01 -0.93148764403E+01 -0.17535327416E+03  0.17563008948E+03  0.00000000000E+00 0.  1.
        -13    1    4    4    0    0 -0.23527469093E+02  0.41524655693E+02  0.23921579278E+03  0.24393038833E+03  0.00000000000E+00 0. -1.
         13    1    4    4    0    0  0.57263475272E+02  0.46627290755E+01  0.13494742388E+03  0.14666851692E+03  0.00000000000E+00 0.  1.
         21    1    1    2  502  501 -0.56206748736E+01 -0.51949258215E+02  0.11565923835E+02  0.53517174901E+02  0.00000000000E+00 0. -1.
<scales pt_clust_5="13000.00000" pt_clust_6="13000.00000" pt_clust_7="13000.00000" pt_clust_8="13000.00000" pt_clust_9="52.25244"></scales>
<clustering>
<clus scale="   52.252">  2  9  1 -1</clus>
<clus scale="   79.782">  5  6 -1 -1</clus>
<clus scale="   96.426">  7  8 -1 -1</clus>
<clus scale="   97.195">  2  5  1 -1</clus>
<clus scale="  111.264">  1  5  2 -1</clus>
</clustering>
</event>
<event>
 9    1  0.1973774E-005  0.1494537E+03  0.7546771E-02  0.1202723E+00
          1   -1    0    0  502    0  0.00000000000E+00  0.00000000000E+00  0.19738665838E+03  0.19738665838E+03  0.00000000000E+00 0. -1.
         -2   -1    0    0    0  501 -0.00000000000E+00 -0.00000000000E+00 -0.15264925943E+03  0.15264925943E+03  0.00000000000E+00 0.  1.
        -24    2    1    2    0    0 -0.12180163927E+03 -0.99524808348E+01 -0.51466856619E+02  0.15469638236E+03  0.79670836446E+02 0.  0.
         23    2    1    2    0    0  0.11361024328E+03  0.30936330668E+02  0.79993628215E+02  0.16758696150E+03  0.88442439902E+02 0.  0.
         11    1    3    3    0    0 -0.26763231143E+02  0.23753171975E+02  0.92884136509E+01  0.36969694998E+02  0.00000000000E+00 0. -1.
        -12    1    3    3    0    0 -0.95038408129E+02 -0.33705652809E+02 -0.60755270270E+02  0.11772668736E+03  0.00000000000E+00 0.  1.
        -11    1    4    4    0    0  0.94291758476E+02  0.80004400731E+01  0.14738681062E+02  0.95771454397E+02  0.00000000000E+00 0.  1.
         11    1    4    4    0    0  0.19318484808E+02  0.22935890594E+02  0.65254947153E+02  0.71815507104E+02  0.00000000000E+00 0. -1.
         21    1    1    2  502  501  0.81913959875E+01 -0.20983849833E+02  0.16210627346E+02  0.27752573952E+02  0.00000000000E+00 0.  1.
<scales pt_clust_5="13000.00000" pt_clust_6="13000.00000" pt_clust_7="13000.00000" pt_clust_8="13000.00000" pt_clust_9="22.52601"></scales>
<clustering>
<clus scale="   22.526">  1  9  2 -1</clus>
<clus scale="   79.671">  5  6 -1 -1</clus>
<clus scale="   88.442">  7  8 -1 -1</clus>
<clus scale="  144.436">  2  5  1 -1</clus>
<clus scale="   22.526">  1  5  2 -1</clus>
</clustering>
</event>
<event>
 9    1  0.1973774E-005  0.9464560E+02  0.7546771E-02  0.1298600E+00
          1   -1    0    0  502    0  0.00000000000E+00  0.00000000000E+00  0.41506284437E+03  0.41506284437E+03  0.00000000000E+00 0. -1.
         -2   -1    0    0    0  501 -0.00000000000E+00 -0.00000000000E+00 -0.87096152037E+02  0.87096152037E+02  0.00000000000E+00 0.  1.
        -24    2    1    2    0    0 -0.11289217497E+02 -0.22903358918E+02 -0.55756143893E+02  0.10098535009E+03  0.80232680806E+02 0.  0.
         23    2    1    2    0    0  0.50692589794E+01 -0.48046223013E+00  0.27923572977E+03  0.29392139044E+03  0.91603835882E+02 0.  0.
         13    1    3    3    0    0 -0.43639785903E+02 -0.45024457485E+01 -0.16448328868E+02  0.46853499911E+02  0.00000000000E+00 0. -1.
        -14    1    3    3    0    0  0.32350568406E+02 -0.18400913170E+02 -0.39307815024E+02  0.54131850178E+02  0.00000000000E+00 0.  1.
        -11    1    4    4    0    0 -0.13951272664E+02 -0.36933899917E+02  0.20762807848E+03  0.21134845622E+03  0.00000000000E+00 0.  1.
         11    1    4    4    0    0  0.19020531643E+02  0.36453437687E+02  0.71607651289E+02  0.82572934224E+02  0.00000000000E+00 0. -1.
         21    1    1    2  502  501  0.62199585171E+01  0.23383821148E+02  0.10448710645E+03  0.10725225587E+03  0.00000000000E+00 0. -1.
<scales pt_clust_5="13000.00000" pt_clust_6="13000.00000" pt_clust_7="13000.00000" pt_clust_8="13000.00000" pt_clust_9="24.19692"></scales>
<clustering>
<clus scale="   24.197">  1  9  2 -1</clus>
<clus scale="   80.233">  5  6 -1 -1</clus>
<clus scale="   83.689">  2  5  1 -1</clus>
<clus scale="   91.604">  7  8 -1 -1</clus>
<clus scale="   24.197">  1  5  2 -1</clus>
</clustering>
</event>
<event>
 9    1  0.1973774E-005  0.1312338E+03  0.7546771E-02  0.1226780E+00
          1   -1    0    0  502    0  0.00000000000E+00  0.00000000000E+00  0.57933858146E+03  0.57933858146E+03  0.00000000000E+00 0. -1.
         -2   -1    0    0    0  501 -0.00000000000E+00 -0.00000000000E+00 -0.53048137993E+02  0.53048137993E+02  0.00000000000E+00 0.  1.
        -24    2    1    2    0    0 -0.10113447981E+03  0.53948750587E+00  0.66536994837E+02  0.14908917586E+03  0.87016875516E+02 0.  0.
         23    2    1    2    0    0  0.70469273229E+02 -0.11901075887E+02  0.34782245472E+03  0.36668713246E+03  0.91495568369E+02 0.  0.
         13    1    3    3    0    0 -0.99070799975E+02  0.18742113864E+02  0.78002175805E+02  0.12747795759E+03  0.00000000000E+00 0. -1.
        -14    1    3    3    0    0 -0.20636798332E+01 -0.18202626358E+02 -0.11465180968E+02  0.21611218277E+02  0.00000000000E+00 0.  1.
        -13    1    4    4    0    0  0.10414184604E+02 -0.45706162069E+02  0.12793337090E+03  0.13625144359E+03  0.00000000000E+00 0.  1.
         13    1    4    4    0    0  0.60055088624E+02  0.33805086181E+02  0.21988908382E+03  0.23043568887E+03  0.00000000000E+00 0. -1.
         21    1    1    2  502  501  0.30665206580E+02  0.11361588382E+02  0.11193099391E+03  0.11661041113E+03  0.00000000000E+00 0. -1.
<scales pt_clust_5="13000.00000" pt_clust_6="13000.00000" pt_clust_7="13000.00000" pt_clust_8="13000.00000" pt_clust_9="32.70230"></scales>
<clustering>
<clus scale="   32.702">  1  9  2 -1</clus>
<clus scale="   87.017">  5  6 -1 -1</clus>
<clus scale="   91.496">  7  8 -1 -1</clus>
<clus scale="  128.152">  2  5  1 -1</clus>
<clus scale="   32.702">  1  5  2 -1</clus>
</clustering>
</event>
<event>
 9    1  0.1973774E-005  0.1023199E+03  0.7546771E-02  0.1279917E+00
         -2   -1    0    0    0  501 -0.00000000000E+00  0.00000000000E+00  0.53404427674E+03  0.53404427674E+03  0.00000000000E+00 0.  1.
          1   -1    0    0  502    0  0.00000000000E+00 -0.00000000000E+00 -0.92184693232E+02  0.92184693232E+02  0.00000000000E+00 0. -1.
         23    2    1    2    0    0  0.33817229206E+02 -0.17915031954E+02  0.37196071123E+03  0.38489733346E+03  0.91250387681E+02 0.  0.
        -24    2    1    2    0    0 -0.43710177185E+02  0.69317628198E+02  0.12147983153E+03  0.16784223131E+03  0.81842238318E+02 0.  0.
         11    1    4    4    0    0 -0.13100812053E+02 -0.16670992371E+02  0.91187585532E+01  0.23080403390E+02  0.00000000000E+00 0. -1.
        -12    1    4    4    0    0 -0.30609365132E+02  0.85988620569E+02  0.11236107298E+03  0.14476182792E+03  0.00000000000E+00 0.  1.
        -13    1    3    3    0    0  0.55017113889E+02 -0.39132969108E+02  0.22518944679E+03  0.23509266053E+03  0.00000000000E+00 0.  1.
         13    1    3    3    0    0 -0.21199884683E+02  0.21217937154E+02  0.14677126444E+03  0.14980467293E+03  0.00000000000E+00 0. -1.
         21    1    1    2  502  501  0.98929479785E+01 -0.51402596244E+02 -0.51580959245E+02  0.73489405203E+02  0.00000000000E+00 0. -1.
<scales pt_clust_5="13000.00000" pt_clust_6="13000.00000" pt_clust_7="13000.00000" pt_clust_8="13000.00000" pt_clust_9="52.34594"></scales>
<clustering>
<clus scale="   52.346">  2  9  1 -1</clus>
<clus scale="   81.842">  5  6 -1 -1</clus>
<clus scale="   91.250">  7  8 -1 -1</clus>
<clus scale="   94.026">  2  5  1 -1</clus>
<clus scale="   52.346">  2  5  1 -1</clus>
</clustering>
</event>
<event>
 9    1  0.1973774E-005  0.9665386E+02  0.7546771E-02  0.1288296E+00
         -4   -1    0    0    0  501 -0.00000000000E+00  0.00000000000E+00  0.31174232693E+03  0.31174232693E+03  0.00000000000E+00 0.  1.
          3   -1    0    0  502    0  0.00000000000E+00 -0.00000000000E+00 -0.12890457200E+03  0.12890457200E+03  0.00000000000E+00 0. -1.
         23    2    1    2    0    0 -0.18881494942E+02  0.26181191633E+02  0.25461633820E+03  0.27258126683E+03  0.91810139423E+02 0.  0.
        -24    2    1    2    0    0 -0.36115564568E+01 -0.25369885975E+02 -0.10684029863E+01  0.93859667560E+02  0.90287436862E+02 0.  0.
         11    1    4    4    0    0  0.34581734661E+02 -0.38310050190E+02 -0.99679576833E+01  0.52563452114E+02  0.00000000000E+00 0. -1.
        -12    1    4    4    0    0 -0.38193291118E+02  0.12940164216E+02  0.88995546971E+01  0.41296215446E+02  0.00000000000E+00 0.  1.
        -13    1    3    3    0    0 -0.37099754021E+02  0.53071102208E+02  0.16407725271E+03  0.17639239920E+03  0.00000000000E+00 0.  1.
         13    1    3    3    0    0  0.18218259079E+02 -0.26889910576E+02  0.90539085489E+02  0.96188867629E+02  0.00000000000E+00 0. -1.
         21    1    1    2  502  501  0.22493051398E+02 -0.81130565833E+00 -0.70710180280E+02  0.74205964540E+02  0.00000000000E+00 0. -1.
<scales pt_clust_5="13000.00000" pt_clust_6="13000.00000" pt_clust_7="13000.00000" pt_clust_8="13000.00000" pt_clust_9="22.50768"></scales>
<clustering>
<clus scale="   22.508">  2  9  1 -1</clus>
<clus scale="   90.287">  5  6 -1 -1</clus>
<clus scale="   91.810">  7  8 -1 -1</clus>
<clus scale="   95.209">  2  5  1 -1</clus>
<clus scale="   22.508">  2  5  1 -1</clus>
</clustering>
</event>
<event>
 9    1  0.1973774E-005  0.1185089E+03  0.7546771E-02  0.1247870E+00
          1   -1    0    0  502    0  0.00000000000E+00  0.00000000000E+00  0.18635978681E+03  0.18635978681E+03  0.00000000000E+00 0. -1.
         -2   -1    0    0    0  501 -0.00000000000E+00 -0.00000000000E+00 -0.13429875338E+03  0.13429875338E+03  0.00000000000E+00 0.  1.
        -24    2    1    2    0    0  0.35254219040E+02 -0.60390263465E+02 -0.73664169927E+02  0.14186487425E+03  0.99042358277E+02 0.  0.
         23    2    1    2    0    0 -0.27951834948E+02  0.38637142894E+02  0.10165298023E+03  0.14553716290E+03  0.92593755228E+02 0.  0.
         13    1    3    3    0    0  0.54673958165E+02 -0.30941617945E+01 -0.13195675730E+02  0.56328868235E+02  0.00000000000E+00 0. -1.
        -14    1    3    3    0    0 -0.19419739125E+02 -0.57296101670E+02 -0.60468494197E+02  0.85536006013E+02  0.00000000000E+00 0.  1.
        -13    1    4    4    0    0  0.28490521800E+02  0.37726152328E+02  0.39808833400E+02  0.61803847927E+02  0.00000000000E+00 0. -1.
         13    1    4    4    0    0 -0.56442356749E+02  0.91099056521E+00  0.61844146828E+02  0.83733314971E+02  0.00000000000E+00 0.  1.
         21    1    1    2  502  501 -0.73023840923E+01  0.21753120571E+02  0.24072223133E+02  0.33256503042E+02  0.00000000000E+00 0.  1.
<scales pt_clust_5="13000.00000" pt_clust_6="13000.00000" pt_clust_7="13000.00000" pt_clust_8="13000.00000" pt_clust_9="22.94609"></scales>
<clustering>
<clus scale="   22.946">  1  9  2 -1</clus>
<clus scale="   92.594">  7  8 -1 -1</clus>
<clus scale="   99.042">  5  6 -1 -1</clus>
<clus scale="  113.175">  1  7  2 -1</clus>
<clus scale="   22.946">  1  5  2 -1</clus>
</clustering>
</event>
<event>
 9    1  0.1973774E-005  0.1250169E+03  0.7546771E-02  0.1238561E+00
          1   -1    0    0  502    0  0.00000000000E+00  0.00000000000E+00  0.29522665351E+03  0.29522665351E+03  0.00000000000E+00 0. -1.
         -2   -1    0    0    0  501 -0.00000000000E+00 -0.00000000000E+00 -0.31959654670E+03  0.31959654670E+03  0.00000000000E+00 0.  1.
         23    2    1    2    0    0  0.40216219390E+02 -0.82669345565E+02 -0.28414563121E+03  0.31193457379E+03  0.90071491554E+02 0.  0.
        -24    2    1    2    0    0  0.10902168807E+02  0.35032443879E+02  0.14672794551E+03  0.16998953912E+03  0.77596546371E+02 0.  0.
         13    1    4    4    0    0  0.24038737351E+02  0.49656840437E+02  0.13773286044E+03  0.14837116815E+03  0.00000000000E+00 0. -1.
        -14    1    4    4    0    0 -0.13136568544E+02 -0.14624396557E+02  0.89950850703E+01  0.21618370965E+02  0.00000000000E+00 0.  1.
        -11    1    3    3    0    0  0.61552520159E+02 -0.83411571183E+02 -0.20183012556E+03  0.22689557626E+03  0.00000000000E+00 0. -1.
         11    1    3    3    0    0 -0.21336300770E+02  0.74222561756E+00 -0.82315505648E+02  0.85038997521E+02  0.00000000000E+00 0.  1.
         21    1    1    2  502  501 -0.51118388197E+02  0.47636901686E+02  0.11304779251E+03  0.13289908730E+03  0.00000000000E+00 0. -1.
<scales pt_clust_5="13000.00000" pt_clust_6="13000.00000" pt_clust_7="13000.00000" pt_clust_8="13000.00000" pt_clust_9="69.87392"></scales>
<clustering>
<clus scale="   69.874">  1  9  2 -1</clus>
<clus scale="   77.597">  5  6 -1 -1</clus>
<clus scale="   90.071">  7  8 -1 -1</clus>
<clus scale="  116.351">  1  5  2 -1</clus>
<clus scale="   69.874">  1  5  2 -1</clus>
</clustering>
</event>
<event>
 9    1  0.1973774E-005  0.1034615E+03  0.7546771E-02  0.1279076E+00
         -4   -1    0    0    0  501 -0.00000000000E+00  0.00000000000E+00  0.31275252804E+03  0.31275252804E+03  0.00000000000E+00 0.  1.
          3   -1    0    0  502    0  0.00000000000E+00 -0.00000000000E+00 -0.10163612615E+03  0.10163612615E+03  0.00000000000E+00 0. -1.
         23    2    1    2    0    0 -0.31277570791E+02 -0.23063339149E+02  0.20401198198E+03  0.22702998809E+03  0.91714353586E+02 0.  0.
        -24    2    1    2    0    0  0.70834325558E+02  0.26373672480E+02  0.57216104121E+02  0.12342998670E+03  0.79045599300E+02 0.  0.
         11    1    4    4    0    0  0.84402083501E+02  0.35530905938E+02  0.40820468811E+02  0.10026199504E+03  0.00000000000E+00 0. -1.
        -12    1    4    4    0    0 -0.13567757943E+02 -0.91572334577E+01  0.16395635309E+02  0.23167991657E+02  0.00000000000E+00 0.  1.
        -11    1    3    3    0    0  0.12739803648E+02 -0.47111813973E+02  0.11352983087E+03  0.12357527306E+03  0.00000000000E+00 0.  1.
         11    1    3    3    0    0 -0.44017374439E+02  0.24048474824E+02  0.90482151109E+02  0.10345471504E+03  0.00000000000E+00 0. -1.
         21    1    1    2  502  501 -0.39556754767E+02 -0.33103333306E+01 -0.50111684211E+02  0.63928679393E+02  0.00000000000E+00 0.  1.
<scales pt_clust_5="13000.00000" pt_clust_6="13000.00000" pt_clust_7="13000.00000" pt_clust_8="13000.00000" pt_clust_9="39.69503"></scales>
<clustering>
<clus scale="   39.695">  2  9  1 -1</clus>
<clus scale="   79.046">  5  6 -1 -1</clus>
<clus scale="   91.714">  7  8 -1 -1</clus>
<clus scale="   92.417">  2  5  1 -1</clus>
<clus scale="   39.695">  2  5  1 -1</clus>
</clustering>
</event>
<event>
 9    1  0.1973774E-005  0.2184926E+03  0.7546771E-02  0.1136147E+00
          1   -1    0    0  502    0  0.00000000000E+00  0.00000000000E+00  0.38590176788E+03  0.38590176788E+03  0.00000000000E+00 0. -1.
         -2   -1    0    0    0  501 -0.00000000000E+00 -0.00000000000E+00 -0.28954980545E+03  0.28954980545E+03  0.00000000000E+00 0.  1.
        -24    2    1    2    0    0  0.23967995576E+02  0.19509663311E+03 -0.18735005125E+03  0.28415844893E+03  0.83718703603E+02 0.  0.
         23    2    1    2    0    0  0.15932055321E+02 -0.19226242789E+03  0.18441823098E+03  0.28425427030E+03  0.97835242622E+02 0.  0.
         11    1    3    3    0    0 -0.18134920470E+02  0.49024522516E+02 -0.88636653789E+02  0.10290158183E+03  0.00000000000E+00 0. -1.
        -12    1    3    3    0    0  0.42102916046E+02  0.14607211060E+03 -0.98713397463E+02  0.18125686710E+03  0.00000000000E+00 0.  1.
        -11    1    4    4    0    0  0.38924260712E+02 -0.22438373506E+02  0.37265421723E+02  0.58371999570E+02  0.00000000000E+00 0.  1.
         11    1    4    4    0    0 -0.22992205391E+02 -0.16982405439E+03  0.14715280926E+03  0.22588227073E+03  0.00000000000E+00 0. -1.
         21    1    1    2  502  501 -0.39900050897E+02 -0.28342052175E+01  0.99283782699E+02  0.10703885410E+03  0.00000000000E+00 0. -1.
<scales pt_clust_5="13000.00000" pt_clust_6="13000.00000" pt_clust_7="13000.00000" pt_clust_8="13000.00000" pt_clust_9="40.00058"></scales>
<clustering>
<clus scale="   40.001">  1  9  2 -1</clus>
<clus scale="   83.719">  5  6 -1 -1</clus>
<clus scale="   97.835">  7  8 -1 -1</clus>
<clus scale="  212.547">  2  5  1 -1</clus>
<clus scale="   40.001">  1  5  2 -1</clus>
</clustering>
</event>
<event>
 9    1  0.1973774E-005  0.1771151E+03  0.7546771E-02  0.1197655E+00
         -4   -1    0    0    0  501 -0.00000000000E+00  0.00000000000E+00  0.38102351639E+03  0.38102351639E+03  0.00000000000E+00 0.  1.
          3   -1    0    0  502    0  0.00000000000E+00 -0.00000000000E+00 -0.17803211281E+03  0.17803211281E+03  0.00000000000E+00 0. -1.
        -24    2    1    2    0    0  0.12283378881E+03  0.93760708144E+02  0.90282971635E+02  0.19664018228E+03  0.81468621283E+02 0.  0.
         23    2    1    2    0    0 -0.86768322460E+01  0.17196754310E+02 -0.70418155720E+02  0.11976607784E+03  0.94943040656E+02 0.  0.
         13    1    3    3    0    0  0.87809438407E+02  0.57107502492E+02  0.14907443086E+02  0.10580168323E+03  0.00000000000E+00 0. -1.
        -14    1    3    3    0    0  0.35024350403E+02  0.36653205652E+02  0.75375528549E+02  0.90838499051E+02  0.00000000000E+00 0.  1.
        -11    1    4    4    0    0 -0.39834950742E+02 -0.17219585306E+02 -0.56610700892E+02  0.71330981167E+02  0.00000000000E+00 0.  1.
         11    1    4    4    0    0  0.31158118496E+02  0.34416339616E+02 -0.13807454828E+02  0.48435096671E+02  0.00000000000E+00 0. -1.
         21    1    1    2  502  501 -0.11415695656E+03 -0.11095746245E+03  0.18312658767E+03  0.24264936908E+03  0.00000000000E+00 0.  1.
<scales pt_clust_5="13000.00000" pt_clust_6="13000.00000" pt_clust_7="13000.00000" pt_clust_8="13000.00000" pt_clust_9="157.26609"></scales>
<clustering>
<clus scale="   81.469">  5  6 -1 -1</clus>
<clus scale="   94.943">  7  8 -1 -1</clus>
<clus scale="   96.877">  2  7  1 -1</clus>
<clus scale="  157.266">  1  9  2 -1</clus>
<clus scale="   96.877">  2  5  1 -1</clus>
</clustering>
</event>
<event>
 9    1  0.1973774E-005  0.1632815E+03  0.7546771E-02  0.1186632E+00
          3   -1    0    0  502    0  0.00000000000E+00  0.00000000000E+00  0.89365457567E+03  0.89365457567E+03  0.00000000000E+00 0. -1.
         -4   -1    0    0    0  501 -0.00000000000E+00 -0.00000000000E+00 -0.16672459846E+03  0.16672459846E+03  0.00000000000E+00 0.  1.
         23    2    1    2    0    0  0.29421569608E+01 -0.13919560943E+03 -0.10857160093E+03  0.19848410341E+03  0.90686673806E+02 0.  0.
        -24    2    1    2    0    0 -0.30102752681E+02  0.79646537003E+02  0.71756085070E+03  0.72701065659E+03  0.80007335656E+02 0.  0.
         11    1    4    4    0    0  0.20325618159E+02  0.49538334687E+02  0.24302750510E+03  0.24885647589E+03  0.00000000000E+00 0. -1.
        -12    1    4    4    0    0 -0.50428370840E+02  0.30108202315E+02  0.47453334560E+03  0.47815418070E+03  0.00000000000E+00 0.  1.
        -13    1    3    3    0    0  0.20175607272E+02 -0.47517591254E+02 -0.89424552091E+02  0.10325563967E+03  0.00000000000E+00 0.  1.
         13    1    3    3    0    0 -0.17233450311E+02 -0.91678018180E+02 -0.19147048835E+02  0.95228463739E+02  0.00000000000E+00 0. -1.
         21    1    1    2  502  501  0.27160595720E+02  0.59549072432E+02  0.11794072743E+03  0.13488441413E+03  0.00000000000E+00 0.  1.
<scales pt_clust_5="13000.00000" pt_clust_6="13000.00000" pt_clust_7="13000.00000" pt_clust_8="13000.00000" pt_clust_9="65.45067"></scales>
<clustering>
<clus scale="   65.451">  1  9  2 -1</clus>
<clus scale="   80.007">  5  6 -1 -1</clus>
<clus scale="   90.687">  7  8 -1 -1</clus>
<clus scale="  157.601">  1  5  2 -1</clus>
<clus scale="   65.451">  1  5  2 -1</clus>
</clustering>
</event>
<event>
 9    1  0.1973774E-005  0.1249857E+03  0.7546771E-02  0.1239106E+00
          1   -1    0    0  502    0  0.00000000000E+00  0.00000000000E+00  0.68999934791E+03  0.68999934791E+03  0.00000000000E+00 0. -1.
         -2   -1    0    0    0  501 -0.00000000000E+00 -0.00000000000E+00 -0.30350067973E+02  0.30350067973E+02  0.00000000000E+00 0.  1.
         23    2    1    2    0    0 -0.81765001397E+02 -0.49469507984E+02  0.20801189870E+03  0.24744960865E+03  0.93966010602E+02 0.  0.
        -24    2    1    2    0    0  0.73575295437E+02  0.25434033723E+02  0.39985620734E+03  0.41522775788E+03  0.80429411232E+02 0.  0.
         11    1    4    4    0    0  0.39256608625E+02  0.17383259729E+01  0.53556641958E+02  0.66426026494E+02  0.00000000000E+00 0. -1.
        -12    1    4    4    0    0  0.34318686812E+02  0.23695707750E+02  0.34629956539E+03  0.34880173138E+03  0.00000000000E+00 0.  1.
        -13    1    3    3    0    0 -0.50592099255E+01 -0.55970743873E+02  0.74284673318E+02  0.93147906389E+02  0.00000000000E+00 0.  1.
         13    1    3    3    0    0 -0.76705791471E+02  0.65012358890E+01  0.13372722538E+03  0.15430170226E+03  0.00000000000E+00 0. -1.
         21    1    1    2  502  501  0.81897059595E+01  0.24035474260E+02  0.51781173894E+02  0.57672049352E+02  0.00000000000E+00 0.  1.
<scales pt_clust_5="13000.00000" pt_clust_6="13000.00000" pt_clust_7="13000.00000" pt_clust_8="13000.00000" pt_clust_9="25.39243"></scales>
<clustering>
<clus scale="   25.392">  2  9  1 -1</clus>
<clus scale="   80.429">  5  6 -1 -1</clus>
<clus scale="   93.966">  7  8 -1 -1</clus>
<clus scale="  115.155">  1  5  2 -1</clus>
<clus scale="  115.155">  1  5  2 -1</clus>
</clustering>
</event>
<event>
 9    1  0.1973774E-005  0.1348121E+03  0.7546771E-02  0.1223171E+00
         -2   -1    0    0    0  501 -0.00000000000E+00  0.00000000000E+00  0.75945161211E+02  0.75945161211E+02  0.00000000000E+00 0.  1.
          1   -1    0    0  502    0  0.00000000000E+00 -0.00000000000E+00 -0.49434450713E+03  0.49434450713E+03  0.00000000000E+00 0. -1.
        -24    2    1    2    0    0  0.99208472672E+02  0.23645636186E+02 -0.14362202755E+02  0.13072697360E+03  0.80509822992E+02 0.  0.
         23    2    1    2    0    0 -0.89425285494E+02 -0.37865093464E+01 -0.22322609922E+03  0.25740142201E+03  0.91729936998E+02 0.  0.
         13    1    3    3    0    0  0.53375498017E+02 -0.28152319333E+02 -0.11975280852E+02  0.61521575272E+02  0.00000000000E+00 0. -1.
        -14    1    3    3    0    0  0.45832974655E+02  0.51797955519E+02 -0.23869219029E+01  0.69205398329E+02  0.00000000000E+00 0.  1.
        -13    1    4    4    0    0 -0.75344242745E+02  0.28587526901E+02 -0.95856437292E+02  0.12522962181E+03  0.00000000000E+00 0.  1.
         13    1    4    4    0    0 -0.14081042748E+02 -0.32374036247E+02 -0.12736966193E+03  0.13217180020E+03  0.00000000000E+00 0. -1.
         21    1    1    2  502  501 -0.97831871788E+01 -0.19859126839E+02 -0.18081104394E+03  0.18216127272E+03  0.00000000000E+00 0. -1.
<scales pt_clust_5="13000.00000" pt_clust_6="13000.00000" pt_clust_7="13000.00000" pt_clust_8="13000.00000" pt_clust_9="22.13810"></scales>
<clustering>
<clus scale="   22.138">  2  9  1 -1</clus>
<clus scale="   80.510">  5  6 -1 -1</clus>
<clus scale="   91.730">  7  8 -1 -1</clus>
<clus scale="  127.443">  1  5  2 -1</clus>
<clus scale="   22.138">  2  5  1 -1</clus>
</clustering>
</event>
<event>
 9    1  0.1973774E-005  0.9235690E+02  0.7546771E-02  0.1302526E+00
         -2   -1    0    0    0  501 -0.00000000000E+00  0.00000000000E+00  0.25985446554E+03  0.25985446554E+03  0.00000000000E+00 0.  1.
          1   -1    0    0  502    0  0.00000000000E+00 -0.00000000000E+00 -0.54528661743E+02  0.54528661743E+02  0.00000000000E+00 0. -1.
        -24    2    1    2    0    0  0.29582741395E+02  0.80248999118E+01  0.17659986856E+03  0.19606100372E+03  0.79453546147E+02 0.  0.
         23    2    1    2    0    0 -0.68719287823E+01 -0.13205609716E+02  0.14038181753E+02  0.90783952494E+02  0.88447973127E+02 0.  0.
         11    1    3    3    0    0 -0.38879319471E+01  0.22741808845E+02  0.94052987989E+01  0.24915166663E+02  0.00000000000E+00 0. -1.
        -12    1    3    3    0    0  0.33470673342E+02 -0.14716908933E+02  0.16719456977E+03  0.17114583706E+03  0.00000000000E+00 0.  1.
        -11    1    4    4    0    0  0.23324906922E+02 -0.31531414389E+02  0.32491948156E+02  0.50931405550E+02  0.00000000000E+00 0.  1.
         11    1    4    4    0    0 -0.30196835704E+02  0.18325804673E+02 -0.18453766403E+02  0.39852546944E+02  0.00000000000E+00 0. -1.
         21    1    1    2  502  501 -0.22710812613E+02  0.51807098040E+01  0.14687753482E+02  0.27538171072E+02  0.00000000000E+00 0. -1.
<scales pt_clust_5="13000.00000" pt_clust_6="13000.00000" pt_clust_7="13000.00000" pt_clust_8="13000.00000" pt_clust_9="23.29422"></scales>
<clustering>
<clus scale="   23.294">  2  9  1 -1</clus>
<clus scale="   79.454">  5  6 -1 -1</clus>
<clus scale="   83.783">  1  5  2 -1</clus>
<clus scale="   88.448">  7  8 -1 -1</clus>
<clus scale="   23.294">  2  5  1 -1</clus>
</clustering>
</event>
<event>
 9    1  0.1973774E-005  0.1356487E+03  0.7546771E-02  0.1222805E+00
          1   -1    0    0  502    0  0.00000000000E+00  0.00000000000E+00  0.23874201650E+03  0.23874201650E+03  0.00000000000E+00 0. -1.
         -2   -1    0    0    0  501 -0.00000000000E+00 -0.00000000000E+00 -0.14673321638E+03  0.14673321638E+03  0.00000000000E+00 0.  1.
         23    2    1    2    0    0  0.10520881183E+03 -0.14769469731E+02 -0.52860026614E+02  0.15203562022E+03  0.95045336956E+02 0.  0.
        -24    2    1    2    0    0 -0.82568013552E+02 -0.14590345887E+02  0.41457870748E+02  0.12358320486E+03  0.80769415133E+02 0.  0.
         13    1    4    4    0    0 -0.90715508486E+02 -0.32346044149E+02  0.38947284559E+02  0.10388677022E+03  0.00000000000E+00 0. -1.
        -14    1    4    4    0    0  0.81474949345E+01  0.17755698262E+02  0.25105861890E+01  0.19696434639E+02  0.00000000000E+00 0.  1.
        -11    1    3    3    0    0  0.47088115399E+02 -0.17811151701E+02 -0.74523025740E+02  0.89934471157E+02  0.00000000000E+00 0.  1.
         11    1    3    3    0    0  0.58120696435E+02  0.30416819698E+01  0.21662999126E+02  0.62101149059E+02  0.00000000000E+00 0. -1.
         21    1    1    2  502  501 -0.22640798283E+02  0.29359815618E+02  0.10341095598E+03  0.10985640781E+03  0.00000000000E+00 0.  1.
<scales pt_clust_5="13000.00000" pt_clust_6="13000.00000" pt_clust_7="13000.00000" pt_clust_8="13000.00000" pt_clust_9="37.07566"></scales>
<clustering>
<clus scale="   37.076">  1  9  2 -1</clus>
<clus scale="   80.769">  5  6 -1 -1</clus>
<clus scale="   95.045">  7  8 -1 -1</clus>
<clus scale="  126.058">  1  5  2 -1</clus>
<clus scale="   37.076">  1  5  2 -1</clus>
</clustering>
</event>
<event>
 9    1  0.1973774E-005  0.1061831E+03  0.7546771E-02  0.1269777E+00
          3   -1    0    0  502    0  0.00000000000E+00  0.00000000000E+00  0.10162515445E+03  0.10162515445E+03  0.00000000000E+00 0. -1.
         -4   -1    0    0    0  501 -0.00000000000E+00 -0.00000000000E+00 -0.35945422472E+03  0.35945422472E+03  0.00000000000E+00 0.  1.
        -24    2    1    2    0    0 -0.83243666571E+02 -0.40384935217E+02 -0.21052188165E+03  0.24411714540E+03  0.81934528804E+02 0.  0.
         23    2    1    2    0    0  0.30011720414E+02 -0.23232361693E+02 -0.83638235124E+02  0.12640426615E+03  0.86846059980E+02 0.  0.
         11    1    3    3    0    0 -0.27458745645E+02 -0.13831771162E+02 -0.71475300296E+01  0.31565610898E+02  0.00000000000E+00 0. -1.
        -12    1    3    3    0    0 -0.55784920926E+02 -0.26553164055E+02 -0.20337435162E+03  0.21255153450E+03  0.00000000000E+00 0.  1.
        -13    1    4    4    0    0  0.51112010978E+02 -0.20759652145E+02 -0.88800375495E+02  0.10454141529E+03  0.00000000000E+00 0.  1.
         13    1    4    4    0    0 -0.21100290564E+02 -0.24727095483E+01  0.51621403708E+01  0.21862850857E+02  0.00000000000E+00 0. -1.
         21    1    1    2  502  501  0.53231946157E+02  0.63617296910E+02  0.36331046501E+02  0.90557967610E+02  0.00000000000E+00 0.  1.
<scales pt_clust_5="13000.00000" pt_clust_6="13000.00000" pt_clust_7="13000.00000" pt_clust_8="13000.00000" pt_clust_9="82.95059"></scales>
<clustering>
<clus scale="   81.935">  5  6 -1 -1</clus>
<clus scale="   82.951">  1  9  2 -1</clus>
<clus scale="   86.846">  7  8 -1 -1</clus>
<clus scale="  102.205">  2  5  1 -1</clus>
<clus scale="   82.951">  1  5  2 -1</clus>
</clustering>
</event>
<event>
 9    1  0.2596600E-005  0.9172725E+02  0.7546771E-02  0.1305988E+00
         -2   -1    0    0    0  501 -0.00000000000E+00  0.00000000000E+00  0.39834674123E+03  0.39834674123E+03  0.00000000000E+00 0.  1.
          1   -1    0    0  502    0  0.00000000000E+00 -0.00000000000E+00 -0.23376896293E+03  0.23376896293E+03  0.00000000000E+00 0. -1.
        -24    2    1    2    0    0 -0.53180230638E+01  0.71245972606E+00  0.37622349948E+03  0.38468825361E+03  0.80075851129E+02 0.  0.
         23    2    1    2    0    0  0.77089407384E+01 -0.30320661285E+02 -0.17758444142E+03  0.20223306079E+03  0.91559853506E+02 0.  0.
         11    1    3    3    0    0  0.32921211203E+02  0.15622057149E+02  0.12765670960E+03  0.13275575439E+03  0.00000000000E+00 0. -1.
        -12    1    3    3    0    0 -0.38239234267E+02 -0.14909597423E+02  0.24856678988E+03  0.25193249922E+03  0.00000000000E+00 0.  1.
        -11    1    4    4    0    0 -0.39385907805E+01  0.22064127792E+02 -0.12537338978E+03  0.12736100305E+03  0.00000000000E+00 0.  1.
         11    1    4    4    0    0  0.11647531519E+02 -0.52384789076E+02 -0.52211051638E+02  0.74872057740E+02  0.00000000000E+00 0. -1.
         21    1    1    2  502  501 -0.23909176747E+01  0.29608201558E+02 -0.34061279765E+02  0.45194389763E+02  0.00000000000E+00 0.  1.
<scales pt_clust_5="13000.00000" pt_clust_6="13000.00000" pt_clust_7="13000.00000" pt_clust_8="13000.00000" pt_clust_9="29.70458"></scales>
<clustering>
<clus scale="   29.705">  2  9  1 -1</clus>
<clus scale="   80.076">  5  6 -1 -1</clus>
<clus scale="   80.267">  1  5  2 -1</clus>
<clus scale="   91.560">  7  8 -1 -1</clus>
<clus scale="   29.705">  2  5  1 -1</clus>
</clustering>
</event>
<event>
 9    1  0.1973774E-005  0.9275312E+02  0.7546771E-02  0.1301991E+00
         -2   -1    0    0    0  501 -0.00000000000E+00  0.00000000000E+00  0.36253650771E+03  0.36253650771E+03  0.00000000000E+00 0.  1.
          1   -1    0    0  502    0  0.00000000000E+00 -0.00000000000E+00 -0.11926693080E+03  0.11926693080E+03  0.00000000000E+00 0. -1.
        -24    2    1    2    0    0 -0.25562555419E+01  0.14478922163E+02  0.26128379907E+03  0.27386347903E+03  0.80720554164E+02 0.  0.
         23    2    1    2    0    0 -0.15793940413E+02 -0.59431254294E+02  0.53426046812E+02  0.12156198840E+03  0.90229995043E+02 0.  0.
         11    1    3    3    0    0  0.19733025385E+02 -0.22842417894E+02  0.52119194701E+02  0.60229384875E+02  0.00000000000E+00 0. -1.
        -12    1    3    3    0    0 -0.22289280927E+02  0.37321340057E+02  0.20916460437E+03  0.21363409416E+03  0.00000000000E+00 0.  1.
        -11    1    4    4    0    0 -0.37472007907E+02 -0.63969132367E+02  0.63137589925E+02  0.97378419241E+02  0.00000000000E+00 0.  1.
         11    1    4    4    0    0  0.21678067495E+02  0.45378780731E+01 -0.97115431127E+01  0.24183569160E+02  0.00000000000E+00 0. -1.
         21    1    1    2  502  501  0.18350195955E+02  0.44952332131E+02 -0.71440268976E+02  0.86377971074E+02  0.00000000000E+00 0. -1.
<scales pt_clust_5="13000.00000" pt_clust_6="13000.00000" pt_clust_7="13000.00000" pt_clust_8="13000.00000" pt_clust_9="48.55349"></scales>
<clustering>
<clus scale="   48.553">  2  9  1 -1</clus>
<clus scale="   80.721">  5  6 -1 -1</clus>
<clus scale="   83.531">  1  5  2 -1</clus>
<clus scale="   90.230">  7  8 -1 -1</clus>
<clus scale="   48.553">  2  5  1 -1</clus>
</clustering>
</event>
<event>
 9    1  0.1973774E-005  0.9570330E+02  0.7546771E-02  0.1295296E+00
          1   -1    0    0  502    0  0.00000000000E+00  0.00000000000E+00  0.21208702355E+03  0.21208702355E+03  0.00000000000E+00 0. -1.
         -2   -1    0    0    0  501 -0.00000000000E+00 -0.00000000000E+00 -0.11206948900E+03  0.11206948900E+03  0.00000000000E+00 0.  1.
        -24    2    1    2    0    0 -0.32552678131E+02 -0.46684945062E+01 -0.70622595277E+02  0.11149867955E+03  0.79767994100E+02 0.  0.
         23    2    1    2    0    0  0.29509706337E+02 -0.20275853766E+02  0.15572251380E+03  0.18343429016E+03  0.90092754908E+02 0.  0.
         13    1    3    3    0    0 -0.53345902036E+01  0.36495066433E+02 -0.32084472886E+02  0.48885183103E+02  0.00000000000E+00 0. -1.
        -14    1    3    3    0    0 -0.27218087928E+02 -0.41163560940E+02 -0.38538122391E+02  0.62613496445E+02  0.00000000000E+00 0.  1.
        -11    1    4    4    0    0  0.23628625672E+02 -0.43911444113E+02  0.36620861973E+02  0.61867717001E+02  0.00000000000E+00 0.  1.
         11    1    4    4    0    0  0.58810806655E+01  0.23635590347E+02  0.11910165183E+03  0.12156657316E+03  0.00000000000E+00 0. -1.
         21    1    1    2  502  501  0.30429717942E+01  0.24944348272E+02  0.14917616029E+02  0.29223542838E+02  0.00000000000E+00 0. -1.
<scales pt_clust_5="13000.00000" pt_clust_6="13000.00000" pt_clust_7="13000.00000" pt_clust_8="13000.00000" pt_clust_9="25.12927"></scales>
<clustering>
<clus scale="   25.129">  1  9  2 -1</clus>
<clus scale="   79.768">  5  6 -1 -1</clus>
<clus scale="   86.054">  2  5  1 -1</clus>
<clus scale="   90.093">  7  8 -1 -1</clus>
<clus scale="   25.129">  1  5  2 -1</clus>
</clustering>
</event>
<event>
 9    1  0.1973774E-005  0.1480073E+03  0.7546771E-02  0.1204429E+00
         -4   -1    0    0    0  501 -0.00000000000E+00  0.00000000000E+00  0.17840890510E+03  0.17840890510E+03  0.00000000000E+00 0.  1.
          3   -1    0    0  502    0  0.00000000000E+00 -0.00000000000E+00 -0.34164273587E+03  0.34164273587E+03  0.00000000000E+00 0. -1.
         23    2    1    2    0    0 -0.83474219511E+02 -0.81346849235E+02  0.11216655426E+03  0.18547688663E+03  0.90747365674E+02 0.  0.
        -24    2    1    2    0    0  0.56999989813E+02  0.11125747070E+03 -0.22013247301E+03  0.26638331637E+03  0.82912857524E+02 0.  0.
         13    1    4    4    0    0  0.11939483705E+02  0.10286749528E+03 -0.16334890561E+03  0.19340924958E+03  0.00000000000E+00 0. -1.
        -14    1    4    4    0    0  0.45060506108E+02  0.83899754142E+01 -0.56783567397E+02  0.72974066795E+02  0.00000000000E+00 0.  1.
        -11    1    3    3    0    0 -0.43491539469E+02 -0.81178909485E+02  0.34914976009E+02  0.98491547354E+02  0.00000000000E+00 0. -1.
         11    1    3    3    0    0 -0.39982680041E+02 -0.16793975071E+00  0.77251578251E+02  0.86985339278E+02  0.00000000000E+00 0.  1.
         21    1    1    2  502  501  0.26474229697E+02 -0.29910621460E+02 -0.55267912016E+02  0.68191437972E+02  0.00000000000E+00 0. -1.
<scales pt_clust_5="13000.00000" pt_clust_6="13000.00000" pt_clust_7="13000.00000" pt_clust_8="13000.00000" pt_clust_9="39.94409"></scales>
<clustering>
<clus scale="   39.944">  2  9  1 -1</clus>
<clus scale="   82.913">  5  6 -1 -1</clus>
<clus scale="   90.747">  7  8 -1 -1</clus>
<clus scale="  143.337">  2  5  1 -1</clus>
<clus scale="   39.944">  2  5  1 -1</clus>
</clustering>
</event>
<event>
 9    1  0.1973774E-005  0.8922786E+02  0.7546771E-02  0.1310152E+00
          1   -1    0    0  502    0  0.00000000000E+00  0.00000000000E+00  0.96519728217E+02  0.96519728217E+02  0.00000000000E+00 0. -1.
         -2   -1    0    0    0  501 -0.00000000000E+00 -0.00000000000E+00 -0.21336290734E+03  0.21336290734E+03  0.00000000000E+00 0.  1.
        -24    2    1    2    0    0  0.25959578130E+02  0.33479320816E+02 -0.11382562665E+03  0.14585693777E+03  0.80766381580E+02 0.  0.
         23    2    1    2    0    0  0.72003297948E+01  0.35907682235E+01  0.40197880926E+02  0.98136816492E+02  0.89164044068E+02 0.  0.
         11    1    3    3    0    0  0.17318537075E+02  0.38377925809E+02 -0.12324984446E+02  0.43871427574E+02  0.00000000000E+00 0. -1.
        -12    1    3    3    0    0  0.86410410549E+01 -0.48986049933E+01 -0.10150064220E+03  0.10198551019E+03  0.00000000000E+00 0.  1.
        -11    1    4    4    0    0  0.24799053493E+02  0.26378177437E+02  0.54934878102E+02  0.65792416973E+02  0.00000000000E+00 0.  1.
         11    1    4    4    0    0 -0.17598723698E+02 -0.22787409214E+02 -0.14736997176E+02  0.32344399519E+02  0.00000000000E+00 0. -1.
         21    1    1    2  502  501 -0.33159907925E+02 -0.37070089039E+02 -0.43215433402E+02  0.65888881301E+02  0.00000000000E+00 0.  1.
<scales pt_clust_5="13000.00000" pt_clust_6="13000.00000" pt_clust_7="13000.00000" pt_clust_8="13000.00000" pt_clust_9="49.73702"></scales>
<clustering>
<clus scale="   49.737">  2  9  1 -1</clus>
<clus scale="   80.766">  5  6 -1 -1</clus>
<clus scale="   80.837">  2  5  1 -1</clus>
<clus scale="   89.164">  7  8 -1 -1</clus>
<clus scale="   89.228">  1  5  2 -1</clus>
</clustering>
</event>
<event>
 9    1  0.1973774E-005  0.1389028E+03  0.7546771E-02  0.1217022E+00
         -2   -1    0    0    0  501 -0.00000000000E+00  0.00000000000E+00  0.72087769169E+02  0.72087769169E+02  0.00000000000E+00 0.  1.
          1   -1    0    0  502    0  0.00000000000E+00 -0.00000000000E+00 -0.42617940200E+03  0.42617940200E+03  0.00000000000E+00 0. -1.
         23    2    1    2    0    0  0.71100599366E+02 -0.13057436590E+02 -0.30779380440E+02  0.11977399557E+03  0.90402698377E+02 0.  0.
        -24    2    1    2    0    0 -0.11853734684E+03  0.57286681491E+01 -0.27658658408E+03  0.31150628183E+03  0.80324995438E+02 0.  0.
         11    1    4    4    0    0 -0.12056725916E+03  0.18609714120E+02 -0.27124131407E+03  0.29741324097E+03  0.00000000000E+00 0. -1.
        -12    1    4    4    0    0  0.20299123226E+01 -0.12881045971E+02 -0.53452700062E+01  0.14093040864E+02  0.00000000000E+00 0.  1.
        -13    1    3    3    0    0  0.89622580049E+02 -0.23660110699E+02 -0.16644416261E+02  0.94175603452E+02  0.00000000000E+00 0.  1.
         13    1    3    3    0    0 -0.18521980683E+02  0.10602674109E+02 -0.14134964179E+02  0.25598392118E+02  0.00000000000E+00 0. -1.
         21    1    1    2  502  501  0.47436747472E+02  0.73287684408E+01 -0.46725668307E+02  0.66986893766E+02  0.00000000000E+00 0. -1.
<scales pt_clust_5="13000.00000" pt_clust_6="13000.00000" pt_clust_7="13000.00000" pt_clust_8="13000.00000" pt_clust_9="47.99954"></scales>
<clustering>
<clus scale="   48.000">  1  9  2 -1</clus>
<clus scale="   80.325">  5  6 -1 -1</clus>
<clus scale="   90.403">  7  8 -1 -1</clus>
<clus scale="  132.565">  2  5  1 -1</clus>
<clus scale="  132.565">  2  5  1 -1</clus>
</clustering>
</event>
<event>
 9    1  0.1973774E-005  0.1114781E+03  0.7546771E-02  0.1266510E+00
          1   -1    0    0  502    0  0.00000000000E+00  0.00000000000E+00  0.53831412416E+02  0.53831412416E+02  0.00000000000E+00 0. -1.
         -2   -1    0    0    0  501 -0.00000000000E+00 -0.00000000000E+00 -0.10550524092E+04  0.10550524092E+04  0.00000000000E+00 0.  1.
        -24    2    1    2    0    0 -0.12487770086E+02  0.44743026397E+02 -0.79956922389E+03  0.80474324153E+03  0.78376387912E+02 0.  0.
         23    2    1    2    0    0  0.98962983595E+01 -0.11150210346E+03 -0.18031221017E+03  0.23400594502E+03  0.98567912474E+02 0.  0.
         13    1    3    3    0    0 -0.29684350315E+02  0.19957108721E+02 -0.14042468340E+03  0.14490872489E+03  0.00000000000E+00 0. -1.
        -14    1    3    3    0    0  0.17196580229E+02  0.24785917676E+02 -0.65914454049E+03  0.65983451664E+03  0.00000000000E+00 0.  1.
        -11    1    4    4    0    0  0.24738856104E+02 -0.12529955767E+03 -0.16473557541E+03  0.20844615602E+03  0.00000000000E+00 0. -1.
         11    1    4    4    0    0 -0.14842557744E+02  0.13797454210E+02 -0.15576634758E+02  0.25559788995E+02  0.00000000000E+00 0.  1.
         21    1    1    2  502  501  0.25914717266E+01  0.66759077067E+02 -0.21339562699E+02  0.70134635044E+02  0.00000000000E+00 0.  1.
<scales pt_clust_5="13000.00000" pt_clust_6="13000.00000" pt_clust_7="13000.00000" pt_clust_8="13000.00000" pt_clust_9="66.80936"></scales>
<clustering>
<clus scale="   66.809">  1  9  2 -1</clus>
<clus scale="   78.376">  5  6 -1 -1</clus>
<clus scale="   94.099">  2  5  1 -1</clus>
<clus scale="   98.568">  7  8 -1 -1</clus>
<clus scale="   66.809">  1  5  2 -1</clus>
</clustering>
</event>
<event>
 9    1  0.1973774E-005  0.1126504E+03  0.7546771E-02  0.1258274E+00
          1   -1    0    0  502    0  0.00000000000E+00  0.00000000000E+00  0.20443152907E+03  0.20443152907E+03  0.00000000000E+00 0. -1.
         -2   -1    0    0    0  501 -0.00000000000E+00 -0.00000000000E+00 -0.20871286659E+03  0.20871286659E+03  0.00000000000E+00 0.  1.
         23    2    1    2    0    0 -0.68701240030E+02  0.12197501480E+01 -0.13081264109E+03  0.17202619363E+03  0.88089250502E+02 0.  0.
        -24    2    1    2    0    0  0.72956396466E+02  0.71597328198E+02  0.64979570767E+02  0.14567686368E+03  0.80935720199E+02 0.  0.
         11    1    4    4    0    0  0.51183760358E+02  0.10417673907E+01  0.47413623077E+02  0.69777605698E+02  0.00000000000E+00 0. -1.
        -12    1    4    4    0    0  0.21772636108E+02  0.70555560808E+02  0.17565947690E+02  0.75899257982E+02  0.00000000000E+00 0.  1.
        -11    1    3    3    0    0  0.16296900200E+02 -0.12189772474E+02 -0.49982118846E+02  0.53966579597E+02  0.00000000000E+00 0. -1.
         11    1    3    3    0    0 -0.84998140231E+02  0.13409522622E+02 -0.80830522247E+02  0.11805961404E+03  0.00000000000E+00 0.  1.
         21    1    1    2  502  501 -0.42551564361E+01 -0.72817078346E+02  0.61551732801E+02  0.95441338350E+02  0.00000000000E+00 0. -1.
<scales pt_clust_5="13000.00000" pt_clust_6="13000.00000" pt_clust_7="13000.00000" pt_clust_8="13000.00000" pt_clust_9="72.94130"></scales>
<clustering>
<clus scale="   72.941">  1  9  2 -1</clus>
<clus scale="   80.936">  5  6 -1 -1</clus>
<clus scale="   88.089">  7  8 -1 -1</clus>
<clus scale="  107.149">  1  5  2 -1</clus>
<clus scale="   72.941">  1  5  2 -1</clus>
</clustering>
</event>
<event>
 9    1  0.1973774E-005  0.1656151E+03  0.7546771E-02  0.1183824E+00
         -2   -1    0    0    0  501 -0.00000000000E+00  0.00000000000E+00  0.38404649016E+03  0.38404649016E+03  0.00000000000E+00 0.  1.
          1   -1    0    0  502    0  0.00000000000E+00 -0.00000000000E+00 -0.18221304347E+03  0.18221304347E+03  0.00000000000E+00 0. -1.
         23    2    1    2    0    0  0.23818316421E+02  0.14430013823E+03  0.28933558637E+03  0.33696605458E+03  0.91875994200E+02 0.  0.
        -24    2    1    2    0    0 -0.22446580741E+01 -0.11262196569E+03 -0.68498535990E+01  0.13999778710E+03  0.82847536191E+02 0.  0.
         11    1    4    4    0    0 -0.80325789131E+01 -0.11009030581E+03 -0.31307920723E+02  0.11473701956E+03  0.00000000000E+00 0. -1.
        -12    1    4    4    0    0  0.57879208390E+01 -0.25316598811E+01  0.24458067124E+02  0.25260767542E+02  0.00000000000E+00 0.  1.
        -11    1    3    3    0    0  0.33799987263E+02  0.73128873488E+01  0.71868671008E+02  0.79756023803E+02  0.00000000000E+00 0. -1.
         11    1    3    3    0    0 -0.99816708413E+01  0.13698725088E+03  0.21746691536E+03  0.25721003078E+03  0.00000000000E+00 0.  1.
         21    1    1    2  502  501 -0.21573658347E+02 -0.31678172537E+02 -0.80652286081E+02  0.89295691945E+02  0.00000000000E+00 0.  1.
<scales pt_clust_5="13000.00000" pt_clust_6="13000.00000" pt_clust_7="13000.00000" pt_clust_8="13000.00000" pt_clust_9="38.32661"></scales>
<clustering>
<clus scale="   38.327">  2  9  1 -1</clus>
<clus scale="   82.848">  5  6 -1 -1</clus>
<clus scale="   91.876">  7  8 -1 -1</clus>
<clus scale="  160.782">  2  5  1 -1</clus>
<clus scale="   38.327">  2  5  1 -1</clus>
</clustering>
</event>
<event>
 9    1  0.1973774E-005  0.1810029E+03  0.7546771E-02  0.1168039E+00
          1   -1    0    0  502    0  0.00000000000E+00  0.00000000000E+00  0.42857239059E+03  0.42857239059E+03  0.00000000000E+00 0. -1.
         -2   -1    0    0    0  501 -0.00000000000E+00 -0.00000000000E+00 -0.16863423841E+03  0.16863423841E+03  0.00000000000E+00 0.  1.
        -24    2    1    2    0    0 -0.47117191429E+02  0.14698891315E+03 -0.78476727809E+02  0.19073332290E+03  0.79967701872E+02 0.  0.
         23    2    1    2    0    0  0.29752132039E+02 -0.16895683401E+03  0.26868512106E+03  0.33133094711E+03  0.90315564054E+02 0.  0.
         11    1    3    3    0    0 -0.15316345849E+01  0.59550931128E+02  0.73288263502E+01  0.60019755068E+02  0.00000000000E+00 0. -1.
        -12    1    3    3    0    0 -0.45585556844E+02  0.87437982018E+02 -0.85805554159E+02  0.13071356784E+03  0.00000000000E+00 0.  1.
        -13    1    4    4    0    0  0.20727900321E+02 -0.11017779125E+03  0.24086425097E+03  0.26567720815E+03  0.00000000000E+00 0. -1.
         13    1    4    4    0    0  0.90242317177E+01 -0.58779042762E+02  0.27820870095E+02  0.65653738956E+02  0.00000000000E+00 0.  1.
         21    1    1    2  502  501  0.17365059390E+02  0.21967920862E+02  0.69729758927E+02  0.75142358991E+02  0.00000000000E+00 0. -1.
<scales pt_clust_5="13000.00000" pt_clust_6="13000.00000" pt_clust_7="13000.00000" pt_clust_8="13000.00000" pt_clust_9="28.00241"></scales>
<clustering>
<clus scale="   28.002">  1  9  2 -1</clus>
<clus scale="   79.968">  5  6 -1 -1</clus>
<clus scale="   90.316">  7  8 -1 -1</clus>
<clus scale="  176.068">  2  5  1 -1</clus>
<clus scale="   28.002">  1  5  2 -1</clus>
</clustering>
</event>
<event>
 9    1  0.1973774E-005  0.1013582E+03  0.7546771E-02  0.1284835E+00
         -2   -1    0    0    0  501 -0.00000000000E+00  0.00000000000E+00  0.14889451252E+03  0.14889451252E+03  0.00000000000E+00 0.  1.
          1   -1    0    0  502    0  0.00000000000E+00 -0.00000000000E+00 -0.12501031822E+03  0.12501031822E+03  0.00000000000E+00 0. -1.
         23    2    1    2    0    0 -0.37204564201E+02  0.17559402456E+02  0.92974119993E+02  0.13926639461E+03  0.95175781931E+02 0.  0.
        -24    2    1    2    0    0  0.17736439324E+02 -0.74886400311E+01 -0.27480872998E+02  0.87609281262E+02  0.80929146623E+02 0.  0.
         11    1    4    4    0    0  0.38442678944E+02  0.83560436059E+01 -0.42179751626E+02  0.57678370957E+02  0.00000000000E+00 0. -1.
        -12    1    4    4    0    0 -0.20706239620E+02 -0.15844683637E+02  0.14698878627E+02  0.29930910305E+02  0.00000000000E+00 0.  1.
        -11    1    3    3    0    0 -0.11882852743E+02  0.37330418850E+02 -0.17778041034E+01  0.39216360722E+02  0.00000000000E+00 0. -1.
         11    1    3    3    0    0 -0.25321711458E+02 -0.19771016394E+02  0.94751924096E+02  0.10005003388E+03  0.00000000000E+00 0.  1.
         21    1    1    2  502  501  0.19468124877E+02 -0.10070762425E+02 -0.41609052695E+02  0.47029154875E+02  0.00000000000E+00 0. -1.
<scales pt_clust_5="13000.00000" pt_clust_6="13000.00000" pt_clust_7="13000.00000" pt_clust_8="13000.00000" pt_clust_9="21.91867"></scales>
<clustering>
<clus scale="   21.919">  2  9  1 -1</clus>
<clus scale="   80.929">  5  6 -1 -1</clus>
<clus scale="   88.117">  2  5  1 -1</clus>
<clus scale="   95.176">  7  8 -1 -1</clus>
<clus scale="   21.919">  2  5  1 -1</clus>
</clustering>
</event>
<event>
 9    1  0.1973774E-005  0.1370092E+03  0.7546771E-02  0.1219580E+00
         -2   -1    0    0    0  501 -0.00000000000E+00  0.00000000000E+00  0.11969022835E+03  0.11969022835E+03  0.00000000000E+00 0.  1.
          1   -1    0    0  502    0  0.00000000000E+00 -0.00000000000E+00 -0.69115352202E+03  0.69115352202E+03  0.00000000000E+00 0. -1.
         23    2    1    2    0    0  0.10545945040E+03  0.13651819603E+02  0.64694187288E+02  0.15320965755E+03  0.89329689573E+02 0.  0.
        -24    2    1    2    0    0 -0.86057073892E+02  0.16493597122E+02 -0.35556400284E+03  0.37475974206E+03  0.79631937306E+02 0.  0.
         13    1    4    4    0    0 -0.64623400329E+02 -0.19786053164E+02 -0.14441389847E+03  0.15944605935E+03  0.00000000000E+00 0. -1.
        -14    1    4    4    0    0 -0.21433673563E+02  0.36279650286E+02 -0.21115010437E+03  0.21531368271E+03  0.00000000000E+00 0.  1.
        -11    1    3    3    0    0  0.56943494377E+02 -0.22876339303E+02 -0.40281460440E+01  0.61498897651E+02  0.00000000000E+00 0. -1.
         11    1    3    3    0    0  0.48515956026E+02  0.36528158906E+02  0.68722333332E+02  0.91710759896E+02  0.00000000000E+00 0.  1.
         21    1    1    2  502  501 -0.19402376511E+02 -0.30145416725E+02 -0.28059347811E+03  0.28287435076E+03  0.00000000000E+00 0. -1.
<scales pt_clust_5="13000.00000" pt_clust_6="13000.00000" pt_clust_7="13000.00000" pt_clust_8="13000.00000" pt_clust_9="35.84966"></scales>
<clustering>
<clus scale="   35.850">  2  9  1 -1</clus>
<clus scale="   79.632">  5  6 -1 -1</clus>
<clus scale="   89.330">  7  8 -1 -1</clus>
<clus scale="  130.893">  2  5  1 -1</clus>
<clus scale="   35.850">  2  5  1 -1</clus>
</clustering>
</event>
<event>
 9    1  0.1973774E-005  0.1067369E+03  0.7546771E-02  0.1272455E+00
         -2   -1    0    0    0  501 -0.00000000000E+00  0.00000000000E+00  0.31154040612E+03  0.31154040612E+03  0.00000000000E+00 0.  1.
          1   -1    0    0  502    0  0.00000000000E+00 -0.00000000000E+00 -0.54533324049E+02  0.54533324049E+02  0.00000000000E+00 0. -1.
         23    2    1    2    0    0 -0.41017326837E+02 -0.41912902795E+02  0.22155587588E+03  0.24716521773E+03  0.92544725406E+02 0.  0.
        -24    2    1    2    0    0  0.17506319825E+02  0.37350534709E+02  0.29877529962E+02  0.94318910568E+02  0.79384232800E+02 0.  0.
         11    1    4    4    0    0  0.40569537252E+02  0.26103384126E+01  0.33200537672E+02  0.52487874039E+02  0.00000000000E+00 0. -1.
        -12    1    4    4    0    0 -0.23063217427E+02  0.34740196296E+02 -0.33230077101E+01  0.41831036528E+02  0.00000000000E+00 0.  1.
        -13    1    3    3    0    0 -0.51546935871E+02 -0.65714213129E+02  0.17067401463E+03  0.19001332499E+03  0.00000000000E+00 0. -1.
         13    1    3    3    0    0  0.10529609035E+02  0.23801310333E+02  0.50881861244E+02  0.57151892739E+02  0.00000000000E+00 0.  1.
         21    1    1    2  502  501  0.23511007012E+02  0.45623680863E+01  0.55736762319E+01  0.24589601867E+02  0.00000000000E+00 0. -1.
<scales pt_clust_5="13000.00000" pt_clust_6="13000.00000" pt_clust_7="13000.00000" pt_clust_8="13000.00000" pt_clust_9="23.94959"></scales>
<clustering>
<clus scale="   23.950">  2  9  1 -1</clus>
<clus scale="   79.384">  5  6 -1 -1</clus>
<clus scale="   92.545">  7  8 -1 -1</clus>
<clus scale="   95.552">  2  5  1 -1</clus>
<clus scale="   23.950">  2  5  1 -1</clus>
</clustering>
</event>
<event>
 9    1  0.1973774E-005  0.1627458E+03  0.7546771E-02  0.1187145E+00
          1   -1    0    0  502    0  0.00000000000E+00  0.00000000000E+00  0.70220795920E+03  0.70220795920E+03  0.00000000000E+00 0. -1.
         -2   -1    0    0    0  501 -0.00000000000E+00 -0.00000000000E+00 -0.15156470990E+03  0.15156470990E+03  0.00000000000E+00 0.  1.
        -24    2    1    2    0    0 -0.10939556612E+03 -0.69206419728E+02 -0.61193783797E+02  0.16424399710E+03  0.80464234226E+02 0.  0.
         23    2    1    2    0    0  0.19862920885E+03  0.29455891492E+02  0.42652089513E+03  0.48004163545E+03  0.90546593684E+02 0.  0.
         11    1    3    3    0    0 -0.77367849709E+02 -0.15645651046E+01 -0.26967911423E+02  0.81948156045E+02  0.00000000000E+00 0. -1.
        -12    1    3    3    0    0 -0.32027716415E+02 -0.67641854623E+02 -0.34225872374E+02  0.82295841058E+02  0.00000000000E+00 0.  1.
        -11    1    4    4    0    0  0.57303216686E+02  0.30322790685E+02  0.64674628135E+02  0.91574766185E+02  0.00000000000E+00 0.  1.
         11    1    4    4    0    0  0.14132599216E+03 -0.86689919277E+00  0.36184626700E+03  0.38846686926E+03  0.00000000000E+00 0. -1.
         21    1    1    2  502  501 -0.89233642723E+02  0.39750528236E+02  0.18531613797E+03  0.20948703655E+03  0.00000000000E+00 0.  1.
<scales pt_clust_5="13000.00000" pt_clust_6="13000.00000" pt_clust_7="13000.00000" pt_clust_8="13000.00000" pt_clust_9="97.68699"></scales>
<clustering>
<clus scale="   80.464">  5  6 -1 -1</clus>
<clus scale="   90.547">  7  8 -1 -1</clus>
<clus scale="   97.687">  1  9  2 -1</clus>
<clus scale="  157.359">  2  5  1 -1</clus>
<clus scale="   97.687">  1  5  2 -1</clus>
</clustering>
</event>
<event>
 9    1  0.1973774E-005  0.1187163E+03  0.7546771E-02  0.1249451E+00
         -2   -1    0    0    0  501 -0.00000000000E+00  0.00000000000E+00  0.37767056402E+03  0.37767056402E+03  0.00000000000E+00 0.  1.
          1   -1    0    0  502    0  0.00000000000E+00 -0.00000000000E+00 -0.62076231140E+02  0.62076231140E+02  0.00000000000E+00 0. -1.
        -24    2    1    2    0    0 -0.79108142513E+02  0.21104634672E+02  0.18889677443E+03  0.22017494156E+03  0.78048124162E+02 0.  0.
         23    2    1    2    0    0  0.62335768645E+02 -0.32010379041E+02  0.14994875508E+03  0.18889831566E+03  0.91035883522E+02 0.  0.
         11    1    3    3    0    0 -0.91270752120E+02  0.15190832911E+02  0.12888587094E+03  0.15865900329E+03  0.00000000000E+00 0. -1.
        -12    1    3    3    0    0  0.12162609608E+02  0.59138017614E+01  0.60010903489E+02  0.61515938270E+02  0.00000000000E+00 0.  1.
        -13    1    4    4    0    0  0.15783391494E+02 -0.56252026577E+02  0.10330368604E+03  0.11868048487E+03  0.00000000000E+00 0.  1.
         13    1    4    4    0    0  0.46552377152E+02  0.24241647536E+02  0.46645069045E+02  0.70217830783E+02  0.00000000000E+00 0. -1.
         21    1    1    2  502  501  0.16772373868E+02  0.10905744369E+02 -0.23251196628E+02  0.30673537944E+02  0.00000000000E+00 0. -1.
<scales pt_clust_5="13000.00000" pt_clust_6="13000.00000" pt_clust_7="13000.00000" pt_clust_8="13000.00000" pt_clust_9="20.00619"></scales>
<clustering>
<clus scale="   20.006">  2  9  1 -1</clus>
<clus scale="   78.048">  5  6 -1 -1</clus>
<clus scale="   91.036">  7  8 -1 -1</clus>
<clus scale="  109.076">  1  5  2 -1</clus>
<clus scale="   20.006">  2  5  1 -1</clus>
</clustering>
</event>
<event>
 9    1  0.1973774E-005  0.1279608E+03  0.7546771E-02  0.1237994E+00
          1   -1    0    0  502    0  0.00000000000E+00  0.00000000000E+00  0.25886645859E+03  0.25886645859E+03  0.00000000000E+00 0. -1.
         -2   -1    0    0    0  501 -0.00000000000E+00 -0.00000000000E+00 -0.14912535391E+03  0.14912535391E+03  0.00000000000E+00 0.  1.
        -24    2    1    2    0    0 -0.42063517886E+02 -0.72530188459E+02 -0.83520891811E+02  0.14376692734E+03  0.81628562727E+02 0.  0.
         23    2    1    2    0    0  0.79997898238E+01  0.13469970199E+02  0.14931296168E+03  0.18310790413E+03  0.10482703513E+03 0.  0.
         13    1    3    3    0    0 -0.30120404775E+02 -0.17617534194E+02  0.85264421512E+01  0.35920975915E+02  0.00000000000E+00 0. -1.
        -14    1    3    3    0    0 -0.11943113111E+02 -0.54912654265E+02 -0.92047333962E+02  0.10784595142E+03  0.00000000000E+00 0.  1.
        -13    1    4    4    0    0  0.37840846093E+02 -0.90481108849E+01  0.11879523056E+02  0.40680720392E+02  0.00000000000E+00 0.  1.
         13    1    4    4    0    0 -0.29841056269E+02  0.22518081084E+02  0.13743343862E+03  0.14242718374E+03  0.00000000000E+00 0. -1.
         21    1    1    2  502  501  0.34063728062E+02  0.59060218260E+02  0.43949034813E+02  0.81116981030E+02  0.00000000000E+00 0. -1.
<scales pt_clust_5="13000.00000" pt_clust_6="13000.00000" pt_clust_7="13000.00000" pt_clust_8="13000.00000" pt_clust_9="68.17952"></scales>
<clustering>
<clus scale="   68.180">  1  9  2 -1</clus>
<clus scale="   81.629">  5  6 -1 -1</clus>
<clus scale="  104.827">  7  8 -1 -1</clus>
<clus scale="  109.766">  2  5  1 -1</clus>
<clus scale="   68.180">  1  5  2 -1</clus>
</clustering>
</event>
<event>
 9    1  0.1973774E-005  0.1597559E+03  0.7546771E-02  0.1190816E+00
         -2   -1    0    0    0  501 -0.00000000000E+00  0.00000000000E+00  0.48328578648E+03  0.48328578648E+03  0.00000000000E+00 0.  1.
          1   -1    0    0  502    0  0.00000000000E+00 -0.00000000000E+00 -0.13367783073E+03  0.13367783073E+03  0.00000000000E+00 0. -1.
         23    2    1    2    0    0 -0.11931255551E+03  0.46139275269E+01  0.26220989360E+03  0.30270765248E+03  0.92849988367E+02 0.  0.
        -24    2    1    2    0    0  0.14684619620E+03 -0.45280947662E+02  0.15347066134E+03  0.23193041426E+03  0.81389824938E+02 0.  0.
         11    1    4    4    0    0  0.12922103565E+03 -0.48409265809E+02  0.87082735585E+02  0.16317149232E+03  0.00000000000E+00 0. -1.
        -12    1    4    4    0    0  0.17625160558E+02  0.31283181465E+01  0.66387925760E+02  0.68758921937E+02  0.00000000000E+00 0.  1.
        -13    1    3    3    0    0 -0.78995231887E+02 -0.36396382500E+02  0.19941532670E+03  0.21755784482E+03  0.00000000000E+00 0.  1.
         13    1    3    3    0    0 -0.40317323619E+02  0.41010310027E+02  0.62794566898E+02  0.85149807658E+02  0.00000000000E+00 0. -1.
         21    1    1    2  502  501 -0.27533640698E+02  0.40667020135E+02 -0.66072599197E+02  0.82325550478E+02  0.00000000000E+00 0. -1.
<scales pt_clust_5="13000.00000" pt_clust_6="13000.00000" pt_clust_7="13000.00000" pt_clust_8="13000.00000" pt_clust_9="49.11118"></scales>
<clustering>
<clus scale="   49.111">  2  9  1 -1</clus>
<clus scale="   81.390">  5  6 -1 -1</clus>
<clus scale="   92.850">  7  8 -1 -1</clus>
<clus scale="  153.379">  2  5  1 -1</clus>
<clus scale="   49.111">  2  5  1 -1</clus>
</clustering>
</event>
<event>
 9    1  0.1973774E-005  0.1862138E+03  0.7546771E-02  0.1163860E+00
          1   -1    0    0  502    0  0.00000000000E+00  0.00000000000E+00  0.10079809107E+03  0.10079809107E+03  0.00000000000E+00 0. -1.
         -2   -1    0    0    0  501 -0.00000000000E+00 -0.00000000000E+00 -0.45305836961E+03  0.45305836961E+03  0.00000000000E+00 0.  1.
         23    2    1    2    0    0  0.11870735153E+03  0.99308942112E+02 -0.21375612246E+03  0.28168512692E+03  0.98494312272E+02 0.  0.
        -24    2    1    2    0    0 -0.11164493132E+03 -0.11819316722E+03 -0.16021695312E+03  0.24254132713E+03  0.81991510730E+02 0.  0.
         11    1    4    4    0    0 -0.32793709778E+02 -0.66085192473E+02 -0.25663412578E+02  0.78110759888E+02  0.00000000000E+00 0. -1.
        -12    1    4    4    0    0 -0.78851221539E+02 -0.52107974750E+02 -0.13455354054E+03  0.16443056724E+03  0.00000000000E+00 0.  1.
        -13    1    3    3    0    0  0.34512943578E+02  0.43847792968E+02 -0.15558046404E+03  0.16528476341E+03  0.00000000000E+00 0.  1.
         13    1    3    3    0    0  0.84194407950E+02  0.55461149144E+02 -0.58175658419E+02  0.11640036352E+03  0.00000000000E+00 0. -1.
         21    1    1    2  502  501 -0.70624202115E+01  0.18884225111E+02  0.21712797046E+02  0.29630006629E+02  0.00000000000E+00 0. -1.
<scales pt_clust_5="13000.00000" pt_clust_6="13000.00000" pt_clust_7="13000.00000" pt_clust_8="13000.00000" pt_clust_9="20.16164"></scales>
<clustering>
<clus scale="   20.162">  1  9  2 -1</clus>
<clus scale="   81.992">  5  6 -1 -1</clus>
<clus scale="   98.494">  7  8 -1 -1</clus>
<clus scale="  178.037">  1  5  2 -1</clus>
<clus scale="   20.162">  1  5  2 -1</clus>
</clustering>
</event>
<event>
 9    1  0.1973774E-005  0.1077461E+03  0.7546771E-02  0.1267722E+00
          1   -1    0    0  502    0  0.00000000000E+00  0.00000000000E+00  0.76055726071E+03  0.76055726071E+03  0.00000000000E+00 0. -1.
         -2   -1    0    0    0  501 -0.00000000000E+00 -0.00000000000E+00 -0.32831662122E+02  0.32831662122E+02  0.00000000000E+00 0.  1.
         23    2    1    2    0    0 -0.18370214266E+02 -0.64343721753E+02  0.82537698039E+02  0.13707091694E+03  0.86593217818E+02 0.  0.
        -24    2    1    2    0    0  0.32317275878E+01  0.49912237884E+02  0.58859294381E+03  0.59598202464E+03  0.79064812883E+02 0.  0.
         13    1    4    4    0    0  0.30347427991E+02  0.56454095891E+02  0.35613973482E+03  0.36186121932E+03  0.00000000000E+00 0. -1.
        -14    1    4    4    0    0 -0.27115700403E+02 -0.65418580070E+01  0.23245320899E+03  0.23412080532E+03  0.00000000000E+00 0.  1.
        -11    1    3    3    0    0 -0.33458956002E+02 -0.80025825410E+02  0.72750951618E+02  0.11320925506E+03  0.00000000000E+00 0.  1.
         11    1    3    3    0    0  0.15088741736E+02  0.15682103658E+02  0.97867464206E+01  0.23861661882E+02  0.00000000000E+00 0. -1.
         21    1    1    2  502  501  0.15138486679E+02  0.14431483869E+02  0.56594956746E+02  0.60335981260E+02  0.00000000000E+00 0. -1.
<scales pt_clust_5="13000.00000" pt_clust_6="13000.00000" pt_clust_7="13000.00000" pt_clust_8="13000.00000" pt_clust_9="20.91510"></scales>
<clustering>
<clus scale="   20.915">  1  9  2 -1</clus>
<clus scale="   79.065">  5  6 -1 -1</clus>
<clus scale="   86.593">  7  8 -1 -1</clus>
<clus scale="  101.794">  1  5  2 -1</clus>
<clus scale="   20.915">  1  5  2 -1</clus>
</clustering>
</event>
<event>
 9    1  0.1973774E-005  0.1296500E+03  0.7546771E-02  0.1230317E+00
          1   -1    0    0  502    0  0.00000000000E+00  0.00000000000E+00  0.96102437766E+03  0.96102437766E+03  0.00000000000E+00 0. -1.
         -2   -1    0    0    0  501 -0.00000000000E+00 -0.00000000000E+00 -0.26715414601E+02  0.26715414601E+02  0.00000000000E+00 0.  1.
        -24    2    1    2    0    0 -0.57562007774E+02  0.86719854566E+02  0.24711356773E+03  0.28000732425E+03  0.80655243857E+02 0.  0.
         23    2    1    2    0    0  0.63870238025E+02 -0.48844429841E+02  0.39352093596E+03  0.41155848258E+03  0.89757851499E+02 0.  0.
         11    1    3    3    0    0  0.60351059699E+01  0.63747333594E+02  0.11739999530E+03  0.13372697537E+03  0.00000000000E+00 0. -1.
        -12    1    3    3    0    0 -0.63597113744E+02  0.22972520972E+02  0.12971357243E+03  0.14628034888E+03  0.00000000000E+00 0.  1.
        -13    1    4    4    0    0  0.21764519504E+02 -0.70013865881E+02  0.24580085480E+03  0.25650281859E+03  0.00000000000E+00 0. -1.
         13    1    4    4    0    0  0.42105718521E+02  0.21169436040E+02  0.14772008116E+03  0.15505566398E+03  0.00000000000E+00 0.  1.
         21    1    1    2  502  501 -0.63082302510E+01 -0.37875424725E+02  0.29367445936E+03  0.29617398544E+03  0.00000000000E+00 0. -1.
<scales pt_clust_5="13000.00000" pt_clust_6="13000.00000" pt_clust_7="13000.00000" pt_clust_8="13000.00000" pt_clust_9="38.39716"></scales>
<clustering>
<clus scale="   38.397">  1  9  2 -1</clus>
<clus scale="   80.655">  5  6 -1 -1</clus>
<clus scale="   89.758">  7  8 -1 -1</clus>
<clus scale="  123.523">  2  5  1 -1</clus>
<clus scale="   38.397">  1  5  2 -1</clus>
</clustering>
</event>
<event>
 9    1  0.1973774E-005  0.1157967E+03  0.7546771E-02  0.1252993E+00
          3   -1    0    0  502    0  0.00000000000E+00  0.00000000000E+00  0.24843157403E+03  0.24843157403E+03  0.00000000000E+00 0. -1.
         -4   -1    0    0    0  501 -0.00000000000E+00 -0.00000000000E+00 -0.13516035936E+03  0.13516035936E+03  0.00000000000E+00 0.  1.
        -24    2    1    2    0    0  0.85933063198E+02 -0.23589920096E+02 -0.24406597384E+02  0.12255947007E+03  0.80524319483E+02 0.  0.
         23    2    1    2    0    0 -0.37798120463E+02  0.55728605760E+02 -0.19645791133E+00  0.11150259290E+03  0.88873022999E+02 0.  0.
         13    1    3    3    0    0  0.68305615609E+01 -0.33637724841E+02 -0.25588413994E+02  0.42812615366E+02  0.00000000000E+00 0. -1.
        -14    1    3    3    0    0  0.79102501637E+02  0.10047804745E+02  0.11818166100E+01  0.79746854708E+02  0.00000000000E+00 0.  1.
        -11    1    4    4    0    0 -0.24338998273E+02 -0.21831849231E+02 -0.20635845326E+01  0.32760873903E+02  0.00000000000E+00 0.  1.
         11    1    4    4    0    0 -0.13459122190E+02  0.77560454991E+02  0.18671266213E+01  0.78741718995E+02  0.00000000000E+00 0. -1.
         21    1    1    2  502  501 -0.48134942734E+02 -0.32138685663E+02  0.13787426997E+03  0.14952987042E+03  0.00000000000E+00 0. -1.
<scales pt_clust_5="13000.00000" pt_clust_6="13000.00000" pt_clust_7="13000.00000" pt_clust_8="13000.00000" pt_clust_9="57.87804"></scales>
<clustering>
<clus scale="   57.878">  1  9  2 -1</clus>
<clus scale="   80.524">  5  6 -1 -1</clus>
<clus scale="   88.873">  7  8 -1 -1</clus>
<clus scale="  109.520">  2  5  1 -1</clus>
<clus scale="   57.878">  1  5  2 -1</clus>
</clustering>
</event>
<event>
 9    1  0.1973774E-005  0.1218968E+03  0.7546771E-02  0.1242232E+00
         -2   -1    0    0    0  501 -0.00000000000E+00  0.00000000000E+00  0.52883714954E+02  0.52883714954E+02  0.00000000000E+00 0.  1.
          1   -1    0    0  502    0  0.00000000000E+00 -0.00000000000E+00 -0.67541722728E+03  0.67541722728E+03  0.00000000000E+00 0. -1.
        -24    2    1    2    0    0  0.65100624635E+02  0.53553387404E+02 -0.32595039044E+02  0.12295705604E+03  0.83366326718E+02 0.  0.
         23    2    1    2    0    0 -0.54252531954E+02 -0.31737624262E+02 -0.50823120366E+03  0.52008142935E+03  0.90747577211E+02 0.  0.
         11    1    3    3    0    0  0.22657376537E+02  0.16162885862E+02 -0.55377079834E+02  0.61977548854E+02  0.00000000000E+00 0. -1.
        -12    1    3    3    0    0  0.42443248098E+02  0.37390501541E+02  0.22782040790E+02  0.60979507191E+02  0.00000000000E+00 0.  1.
        -13    1    4    4    0    0 -0.51183843188E+02  0.22587252453E+02 -0.25144478533E+03  0.25759357493E+03  0.00000000000E+00 0.  1.
         13    1    4    4    0    0 -0.30686887662E+01 -0.54324876716E+02 -0.25678641833E+03  0.26248785442E+03  0.00000000000E+00 0. -1.
         21    1    1    2  502  501 -0.10848092681E+02 -0.21815763141E+02 -0.81707269621E+02  0.85262456833E+02  0.00000000000E+00 0. -1.
<scales pt_clust_5="13000.00000" pt_clust_6="13000.00000" pt_clust_7="13000.00000" pt_clust_8="13000.00000" pt_clust_9="24.36408"></scales>
<clustering>
<clus scale="   24.364">  2  9  1 -1</clus>
<clus scale="   83.366">  5  6 -1 -1</clus>
<clus scale="   90.748">  7  8 -1 -1</clus>
<clus scale="  116.506">  1  5  2 -1</clus>
<clus scale="   24.364">  2  5  1 -1</clus>
</clustering>
</event>
<event>
 9    1  0.1973774E-005  0.1901994E+03  0.7546771E-02  0.1159207E+00
         -2   -1    0    0    0  501 -0.00000000000E+00  0.00000000000E+00  0.52226015459E+03  0.52226015459E+03  0.00000000000E+00 0.  1.
          1   -1    0    0  502    0  0.00000000000E+00 -0.00000000000E+00 -0.12728308652E+03  0.12728308652E+03  0.00000000000E+00 0. -1.
         23    2    1    2    0    0 -0.86953817037E+02  0.13031660725E+03  0.31348924047E+03  0.36202202070E+03  0.90780257567E+02 0.  0.
        -24    2    1    2    0    0  0.82129045041E+02 -0.18250573614E+03  0.90343067423E+02  0.23436673920E+03  0.81929084263E+02 0.  0.
         13    1    4    4    0    0  0.15265416562E+02 -0.10931249558E+03  0.18446636534E+02  0.11190412428E+03  0.00000000000E+00 0. -1.
        -14    1    4    4    0    0  0.66863628480E+02 -0.73193240563E+02  0.71896430889E+02  0.12246261492E+03  0.00000000000E+00 0.  1.
        -11    1    3    3    0    0 -0.23086337061E+02  0.98209186270E+02  0.23565817834E+03  0.25634508040E+03  0.00000000000E+00 0.  1.
         11    1    3    3    0    0 -0.63867479975E+02  0.32107420976E+02  0.77831062131E+02  0.10567694031E+03  0.00000000000E+00 0. -1.
         21    1    1    2  502  501  0.48247719954E+01  0.52189128895E+02 -0.88552398246E+01  0.53154481203E+02  0.00000000000E+00 0. -1.
<scales pt_clust_5="13000.00000" pt_clust_6="13000.00000" pt_clust_7="13000.00000" pt_clust_8="13000.00000" pt_clust_9="52.41167"></scales>
<clustering>
<clus scale="   52.412">  2  9  1 -1</clus>
<clus scale="   81.929">  5  6 -1 -1</clus>
<clus scale="   90.780">  7  8 -1 -1</clus>
<clus scale="  186.137">  2  5  1 -1</clus>
<clus scale="   52.412">  2  5  1 -1</clus>
</clustering>
</event>
<event>
 9    1  0.1973774E-005  0.1033127E+03  0.7546771E-02  0.1278202E+00
         -4   -1    0    0    0  501 -0.00000000000E+00  0.00000000000E+00  0.58434494366E+02  0.58434494366E+02  0.00000000000E+00 0.  1.
          3   -1    0    0  502    0  0.00000000000E+00 -0.00000000000E+00 -0.41319399540E+03  0.41319399540E+03  0.00000000000E+00 0. -1.
        -24    2    1    2    0    0 -0.32281572939E+02 -0.60128112829E+02 -0.18598920138E+02  0.10677936679E+03  0.79990145876E+02 0.  0.
         23    2    1    2    0    0  0.27509409687E+02  0.38040650582E+02 -0.32306291752E+03  0.33873057944E+03  0.90359825447E+02 0.  0.
         13    1    3    3    0    0 -0.47569377445E+02 -0.11987666056E+02 -0.26338828181E+02  0.55680191073E+02  0.00000000000E+00 0. -1.
        -14    1    3    3    0    0  0.15287804506E+02 -0.48140446772E+02  0.77399080433E+01  0.51099175713E+02  0.00000000000E+00 0.  1.
        -11    1    4    4    0    0 -0.13278114772E+02 -0.23064111220E+02 -0.60747473473E+02  0.66321317023E+02  0.00000000000E+00 0.  1.
         11    1    4    4    0    0  0.40787524459E+02  0.61104761802E+02 -0.26231544404E+03  0.27240926242E+03  0.00000000000E+00 0. -1.
         21    1    1    2  502  501  0.47721632514E+01  0.22087462247E+02 -0.13097663377E+02  0.26118543538E+02  0.00000000000E+00 0. -1.
<scales pt_clust_5="13000.00000" pt_clust_6="13000.00000" pt_clust_7="13000.00000" pt_clust_8="13000.00000" pt_clust_9="22.59711"></scales>
<clustering>
<clus scale="   22.597">  1  9  2 -1</clus>
<clus scale="   79.990">  5  6 -1 -1</clus>
<clus scale="   90.360">  7  8 -1 -1</clus>
<clus scale="   94.377">  1  5  2 -1</clus>
<clus scale="  103.313">  2  5  1 -1</clus>
</clustering>
</event>
<event>
 9    1  0.1973774E-005  0.1356562E+03  0.7546771E-02  0.1245759E+00
          1   -1    0    0  502    0  0.00000000000E+00  0.00000000000E+00  0.62723196220E+02  0.62723196220E+02  0.00000000000E+00 0. -1.
         -2   -1    0    0    0  501 -0.00000000000E+00 -0.00000000000E+00 -0.75488717398E+03  0.75488717398E+03  0.00000000000E+00 0.  1.
         23    2    1    2    0    0 -0.71381258154E+02  0.73445999364E+02 -0.14670367151E+03  0.20052187932E+03  0.90539814532E+02 0.  0.
        -24    2    1    2    0    0  0.17595690914E+00 -0.21357714418E+01 -0.18883447043E+02  0.80955548232E+02  0.78693225483E+02 0.  0.
         11    1    4    4    0    0  0.41583561058E+01  0.35562541574E+02  0.49982181031E+01  0.36152018932E+02  0.00000000000E+00 0. -1.
        -12    1    4    4    0    0 -0.39823991967E+01 -0.37698313015E+02 -0.23881665146E+02  0.44803529300E+02  0.00000000000E+00 0.  1.
        -13    1    3    3    0    0 -0.65793526951E+01  0.69258010074E+02 -0.93677121974E+02  0.11668488772E+03  0.00000000000E+00 0. -1.
         13    1    3    3    0    0 -0.64801905459E+02  0.41879892902E+01 -0.53026549531E+02  0.83836991600E+02  0.00000000000E+00 0.  1.
         21    1    1    2  502  501  0.71205301245E+02 -0.71310227923E+02 -0.52657685922E+03  0.53613294265E+03  0.00000000000E+00 0.  1.
<scales pt_clust_5="13000.00000" pt_clust_6="13000.00000" pt_clust_7="13000.00000" pt_clust_8="13000.00000" pt_clust_9="101.02058"></scales>
<clustering>
<clus scale="   78.693">  5  6 -1 -1</clus>
<clus scale="   78.722">  1  5  2 -1</clus>
<clus scale="   90.540">  7  8 -1 -1</clus>
<clus scale="  101.021">  2  9  1 -1</clus>
<clus scale="   78.722">  1  5  2 -1</clus>
</clustering>
</event>
<event>
 9    1  0.1973774E-005  0.1652903E+03  0.7546771E-02  0.1184055E+00
          1   -1    0    0  502    0  0.00000000000E+00  0.00000000000E+00  0.11861379946E+03  0.11861379946E+03  0.00000000000E+00 0. -1.
         -2   -1    0    0    0  501 -0.00000000000E+00 -0.00000000000E+00 -0.60786083007E+03  0.60786083007E+03  0.00000000000E+00 0.  1.
         23    2    1    2    0    0 -0.12713257341E+03  0.71304545333E+02 -0.35256556689E+03  0.39179930978E+03  0.89203087272E+02 0.  0.
        -24    2    1    2    0    0  0.40430918034E+02 -0.15217033522E+03 -0.12259890610E+03  0.21528197217E+03  0.80779735752E+02 0.  0.
         13    1    4    4    0    0 -0.58170724785E+01 -0.78621959366E+02 -0.20969688311E+02  0.81578052530E+02  0.00000000000E+00 0. -1.
        -14    1    4    4    0    0  0.46247990512E+02 -0.73548375856E+02 -0.10162921779E+03  0.13370391964E+03  0.00000000000E+00 0.  1.
        -11    1    3    3    0    0 -0.14447449934E+02 -0.16992470788E+02 -0.20940661155E+02  0.30593858251E+02  0.00000000000E+00 0. -1.
         11    1    3    3    0    0 -0.11268512347E+03  0.88297016121E+02 -0.33162490574E+03  0.36120545153E+03  0.00000000000E+00 0.  1.
         21    1    1    2  502  501  0.86701655374E+02  0.80865789890E+02 -0.14082557612E+02  0.11939334759E+03  0.00000000000E+00 0.  1.
<scales pt_clust_5="13000.00000" pt_clust_6="13000.00000" pt_clust_7="13000.00000" pt_clust_8="13000.00000" pt_clust_9="118.55991"></scales>
<clustering>
<clus scale="   80.780">  5  6 -1 -1</clus>
<clus scale="   89.203">  7  8 -1 -1</clus>
<clus scale="  118.560">  1  9  2 -1</clus>
<clus scale="  160.901">  1  5  2 -1</clus>
<clus scale="  118.560">  1  5  2 -1</clus>
</clustering>
</event>
<event>
 9    1  0.1973774E-005  0.1349527E+03  0.7546771E-02  0.1222465E+00
          3   -1    0    0  502    0  0.00000000000E+00  0.00000000000E+00  0.13606863796E+03  0.13606863796E+03  0.00000000000E+00 0. -1.
         -4   -1    0    0    0  501 -0.00000000000E+00 -0.00000000000E+00 -0.42642081101E+03  0.42642081101E+03  0.00000000000E+00 0.  1.
        -24    2    1    2    0    0 -0.94157098515E+02  0.39986570034E+02 -0.33929777388E+03  0.36376883913E+03  0.82099354301E+02 0.  0.
         23    2    1    2    0    0  0.51441944508E+02 -0.65972293977E+02  0.72479221991E+02  0.14346055595E+03  0.91263773019E+02 0.  0.
         13    1    3    3    0    0 -0.61995898547E+02  0.48245425424E+01 -0.86574222040E+02  0.10659204271E+03  0.00000000000E+00 0. -1.
        -14    1    3    3    0    0 -0.32161199968E+02  0.35162027491E+02 -0.25272355184E+03  0.25717679642E+03  0.00000000000E+00 0.  1.
        -11    1    4    4    0    0  0.14675755241E+02  0.23142489671E+02  0.15908269407E+02  0.31686363875E+02  0.00000000000E+00 0.  1.
         11    1    4    4    0    0  0.36766189267E+02 -0.89114783648E+02  0.56570952583E+02  0.11177419208E+03  0.00000000000E+00 0. -1.
         21    1    1    2  502  501  0.42715154008E+02  0.25985723944E+02 -0.23533621162E+02  0.55260053889E+02  0.00000000000E+00 0. -1.
<scales pt_clust_5="13000.00000" pt_clust_6="13000.00000" pt_clust_7="13000.00000" pt_clust_8="13000.00000" pt_clust_9="49.99842"></scales>
<clustering>
<clus scale="   49.998">  1  9  2 -1</clus>
<clus scale="   82.099">  5  6 -1 -1</clus>
<clus scale="   91.264">  7  8 -1 -1</clus>
<clus scale="  128.932">  2  5  1 -1</clus>
<clus scale="   49.998">  1  5  2 -1</clus>
</clustering>
</event>
<event>
 9    1  0.1973774E-005  0.1346066E+03  0.7546771E-02  0.1223205E+00
          1   -1    0    0  502    0  0.00000000000E+00  0.00000000000E+00  0.53731585065E+03  0.53731585065E+03  0.00000000000E+00 0. -1.
         -2   -1    0    0    0  501 -0.00000000000E+00 -0.00000000000E+00 -0.29251612207E+03  0.29251612207E+03  0.00000000000E+00 0.  1.
        -24    2    1    2    0    0  0.78094816160E+02  0.58278337621E+02 -0.24464938914E+03  0.27513720793E+03  0.79699401692E+02 0.  0.
         23    2    1    2    0    0 -0.11775506447E+03 -0.72685139438E+02  0.18752440803E+03  0.24983574565E+03  0.90017284421E+02 0.  0.
         13    1    3    3    0    0  0.84236953676E+02  0.69390725194E+02 -0.19077010000E+03  0.21978209245E+03  0.00000000000E+00 0. -1.
        -14    1    3    3    0    0 -0.61421375167E+01 -0.11112387572E+02 -0.53879289140E+02  0.55355115473E+02  0.00000000000E+00 0.  1.
        -13    1    4    4    0    0 -0.15394404916E+02  0.21168406079E+02  0.31627261768E+02  0.41053292263E+02  0.00000000000E+00 0.  1.
         13    1    4    4    0    0 -0.10236065956E+03 -0.93853545517E+02  0.15589714626E+03  0.20878245339E+03  0.00000000000E+00 0. -1.
         21    1    1    2  502  501  0.39660248312E+02  0.14406801816E+02  0.30192470969E+03  0.30485901914E+03  0.00000000000E+00 0. -1.
<scales pt_clust_5="13000.00000" pt_clust_6="13000.00000" pt_clust_7="13000.00000" pt_clust_8="13000.00000" pt_clust_9="42.19587"></scales>
<clustering>
<clus scale="   42.196">  1  9  2 -1</clus>
<clus scale="   79.699">  5  6 -1 -1</clus>
<clus scale="   90.017">  7  8 -1 -1</clus>
<clus scale="  127.937">  2  5  1 -1</clus>
<clus scale="   42.196">  1  5  2 -1</clus>
</clustering>
</event>
<event>
 9    1  0.1973774E-005  0.1836244E+03  0.7546771E-02  0.1165704E+00
          1   -1    0    0  502    0  0.00000000000E+00  0.00000000000E+00  0.11398767641E+04  0.11398767641E+04  0.00000000000E+00 0. -1.
         -2   -1    0    0    0  501 -0.00000000000E+00 -0.00000000000E+00 -0.88404390194E+02  0.88404390194E+02  0.00000000000E+00 0.  1.
         23    2    1    2    0    0 -0.50520945292E+02 -0.13256540624E+03  0.19368536627E+02  0.16973686864E+03  0.91156522081E+02 0.  0.
        -24    2    1    2    0    0  0.65722873490E+02  0.14725610506E+03  0.10165617545E+04  0.10323055435E+04  0.79076405143E+02 0.  0.
         11    1    4    4    0    0  0.45728903107E+01  0.10531381516E+03  0.58636154945E+03  0.59576151073E+03  0.00000000000E+00 0. -1.
        -12    1    4    4    0    0  0.61149983179E+02  0.41942289899E+02  0.43020020504E+03  0.43654403276E+03  0.00000000000E+00 0.  1.
        -13    1    3    3    0    0  0.43273186561E+01 -0.84767733569E+02 -0.19733630579E+02  0.87141898746E+02  0.00000000000E+00 0. -1.
         13    1    3    3    0    0 -0.54848263948E+02 -0.47797672675E+02  0.39102167206E+02  0.82594969892E+02  0.00000000000E+00 0.  1.
         21    1    1    2  502  501 -0.15201928198E+02 -0.14690698813E+02  0.15542082766E+02  0.26238742143E+02  0.00000000000E+00 0.  1.
<scales pt_clust_5="13000.00000" pt_clust_6="13000.00000" pt_clust_7="13000.00000" pt_clust_8="13000.00000" pt_clust_9="21.14037"></scales>
<clustering>
<clus scale="   21.140">  2  9  1 -1</clus>
<clus scale="   79.076">  5  6 -1 -1</clus>
<clus scale="   91.157">  7  8 -1 -1</clus>
<clus scale="  177.937">  1  5  2 -1</clus>
<clus scale="  177.937">  1  5  2 -1</clus>
</clustering>
</event>
<event>
 9    1  0.1973774E-005  0.1419834E+03  0.7546771E-02  0.1211679E+00
         -2   -1    0    0    0  501 -0.00000000000E+00  0.00000000000E+00  0.38840095798E+03  0.38840095798E+03  0.00000000000E+00 0.  1.
          1   -1    0    0  502    0  0.00000000000E+00 -0.00000000000E+00 -0.20328755306E+03  0.20328755306E+03  0.00000000000E+00 0. -1.
         23    2    1    2    0    0 -0.10854674731E+03  0.22579928600E+02  0.32281823833E+03  0.35274004812E+03  0.89003803423E+02 0.  0.
        -24    2    1    2    0    0  0.94871683315E+02 -0.70179577561E+02 -0.11179738482E+03  0.18305633601E+03  0.84173377620E+02 0.  0.
         11    1    4    4    0    0 -0.11358216976E+02 -0.28612408624E+02 -0.21098409552E+02  0.37320529280E+02  0.00000000000E+00 0. -1.
        -12    1    4    4    0    0  0.10622990029E+03 -0.41567168937E+02 -0.90698975264E+02  0.14573580673E+03  0.00000000000E+00 0.  1.
        -13    1    3    3    0    0 -0.69804359034E+02  0.42268004308E+02  0.28031872512E+03  0.29195516844E+03  0.00000000000E+00 0.  1.
         13    1    3    3    0    0 -0.38742388279E+02 -0.19688075707E+02  0.42499513213E+02  0.60784879682E+02  0.00000000000E+00 0. -1.
         21    1    1    2  502  501  0.13675063997E+02  0.47599648961E+02 -0.25907448594E+02  0.55892126898E+02  0.00000000000E+00 0. -1.
<scales pt_clust_5="13000.00000" pt_clust_6="13000.00000" pt_clust_7="13000.00000" pt_clust_8="13000.00000" pt_clust_9="49.52508"></scales>
<clustering>
<clus scale="   49.525">  2  9  1 -1</clus>
<clus scale="   84.173">  5  6 -1 -1</clus>
<clus scale="   89.004">  7  8 -1 -1</clus>
<clus scale="  139.006">  2  5  1 -1</clus>
<clus scale="   49.525">  2  5  1 -1</clus>
</clustering>
</event>
<event>
 9    1  0.1973774E-005  0.1189132E+03  0.7546771E-02  0.1248049E+00
          3   -1    0    0  502    0  0.00000000000E+00  0.00000000000E+00  0.18325157630E+03  0.18325157630E+03  0.00000000000E+00 0. -1.
         -4   -1    0    0    0  501 -0.00000000000E+00 -0.00000000000E+00 -0.16940972727E+03  0.16940972727E+03  0.00000000000E+00 0.  1.
         23    2    1    2    0    0  0.43576298401E+02  0.65532723980E+02 -0.93614641104E+02  0.15134669640E+03  0.89155424897E+02 0.  0.
        -24    2    1    2    0    0 -0.22902980875E+01 -0.89582952419E+02  0.92720465664E+02  0.15131362990E+03  0.79173095244E+02 0.  0.
         13    1    4    4    0    0 -0.30388409364E+02 -0.57989397331E+02  0.86645627182E+02  0.10859875845E+03  0.00000000000E+00 0. -1.
        -14    1    4    4    0    0  0.28098111277E+02 -0.31593555088E+02  0.60748384813E+01  0.42714871450E+02  0.00000000000E+00 0.  1.
        -13    1    3    3    0    0  0.27117876313E+01  0.28824707685E+02 -0.91939629190E+02  0.96390419549E+02  0.00000000000E+00 0.  1.
         13    1    3    3    0    0  0.40864510770E+02  0.36708016295E+02 -0.16750119145E+01  0.54956276854E+02  0.00000000000E+00 0. -1.
         21    1    1    2  502  501 -0.41286000314E+02  0.24050228439E+02  0.14736024470E+02  0.50000977261E+02  0.00000000000E+00 0.  1.
<scales pt_clust_5="13000.00000" pt_clust_6="13000.00000" pt_clust_7="13000.00000" pt_clust_8="13000.00000" pt_clust_9="47.78020"></scales>
<clustering>
<clus scale="   47.780">  1  9  2 -1</clus>
<clus scale="   79.173">  5  6 -1 -1</clus>
<clus scale="   89.155">  7  8 -1 -1</clus>
<clus scale="  111.625">  1  5  2 -1</clus>
<clus scale="   47.780">  1  5  2 -1</clus>
</clustering>
</event>
<event>
 9    1  0.1973774E-005  0.1577719E+03  0.7546771E-02  0.1213710E+00
         -2   -1    0    0    0  501 -0.00000000000E+00  0.00000000000E+00  0.44770992039E+02  0.44770992039E+02  0.00000000000E+00 0.  1.
          1   -1    0    0  502    0  0.00000000000E+00 -0.00000000000E+00 -0.95672826025E+03  0.95672826025E+03  0.00000000000E+00 0. -1.
         23    2    1    2    0    0  0.10475824036E+02  0.16050797866E+03 -0.50385542278E+03  0.53654926464E+03  0.90234540060E+02 0.  0.
        -24    2    1    2    0    0 -0.32927829504E+02 -0.43300553936E+02 -0.23929972999E+03  0.25822353279E+03  0.80348317900E+02 0.  0.
         11    1    4    4    0    0  0.77653067417E+01 -0.43951980123E+02 -0.18532913082E+03  0.19062781349E+03  0.00000000000E+00 0. -1.
        -12    1    4    4    0    0 -0.40693136246E+02  0.65142618697E+00 -0.53970599165E+02  0.67595719301E+02  0.00000000000E+00 0.  1.
        -13    1    3    3    0    0 -0.31013080543E+02  0.51694108035E+02 -0.25142851658E+03  0.25855442545E+03  0.00000000000E+00 0. -1.
         13    1    3    3    0    0  0.41488904579E+02  0.10881387062E+03 -0.25242690620E+03  0.27799483919E+03  0.00000000000E+00 0.  1.
         21    1    1    2  502  501  0.22452005468E+02 -0.11720742472E+03 -0.16880211545E+03  0.20672645486E+03  0.00000000000E+00 0.  1.
<scales pt_clust_5="13000.00000" pt_clust_6="13000.00000" pt_clust_7="13000.00000" pt_clust_8="13000.00000" pt_clust_9="129.42062"></scales>
<clustering>
<clus scale="   80.348">  5  6 -1 -1</clus>
<clus scale="   90.235">  7  8 -1 -1</clus>
<clus scale="   97.031">  2  5  1 -1</clus>
<clus scale="  129.421">  1  9  2 -1</clus>
<clus scale="   97.031">  2  5  1 -1</clus>
</clustering>
</event>
<event>
 9    1  0.1973774E-005  0.1013366E+03  0.7546771E-02  0.1279500E+00
          1   -1    0    0  502    0  0.00000000000E+00  0.00000000000E+00  0.66638412937E+02  0.66638412937E+02  0.00000000000E+00 0. -1.
         -2   -1    0    0    0  501 -0.00000000000E+00 -0.00000000000E+00 -0.30236529834E+03  0.30236529834E+03  0.00000000000E+00 0.  1.
        -24    2    1    2    0    0  0.25149432453E+02 -0.38131758892E+02 -0.19790412259E+03  0.22179842821E+03  0.89117764940E+02 0.  0.
         23    2    1    2    0    0 -0.34185803563E+02 -0.27935920566E+01 -0.18486367839E+02  0.10104863107E+03  0.93234149990E+02 0.  0.
         11    1    3    3    0    0 -0.18312094932E+02 -0.49658714219E+02 -0.83337987211E+02  0.98724570554E+02  0.00000000000E+00 0. -1.
        -12    1    3    3    0    0  0.43461527385E+02  0.11526955327E+02 -0.11456613538E+03  0.12307385765E+03  0.00000000000E+00 0.  1.
        -13    1    4    4    0    0  0.14320705258E+02  0.16827665717E+02  0.24745156577E+02  0.33174925871E+02  0.00000000000E+00 0.  1.
         13    1    4    4    0    0 -0.48506508821E+02 -0.19621257774E+02 -0.43231524416E+02  0.67873705203E+02  0.00000000000E+00 0. -1.
         21    1    1    2  502  501  0.90363711096E+01  0.40925350949E+02 -0.19336394976E+02  0.46156651999E+02  0.00000000000E+00 0.  1.
<scales pt_clust_5="13000.00000" pt_clust_6="13000.00000" pt_clust_7="13000.00000" pt_clust_8="13000.00000" pt_clust_9="41.91110"></scales>
<clustering>
<clus scale="   41.911">  1  9  2 -1</clus>
<clus scale="   89.118">  5  6 -1 -1</clus>
<clus scale="   93.234">  7  8 -1 -1</clus>
<clus scale="   97.563">  2  5  1 -1</clus>
<clus scale="   41.911">  1  5  2 -1</clus>
</clustering>
</event>
<event>
 9    1  0.1973774E-005  0.1338459E+03  0.7546771E-02  0.1228189E+00
          1   -1    0    0  502    0  0.00000000000E+00  0.00000000000E+00  0.33956703858E+03  0.33956703858E+03  0.00000000000E+00 0. -1.
         -2   -1    0    0    0  501 -0.00000000000E+00 -0.00000000000E+00 -0.14547220804E+03  0.14547220804E+03  0.00000000000E+00 0.  1.
        -24    2    1    2    0    0  0.31398804748E+02 -0.77295451946E+02 -0.96127387925E+02  0.15118439747E+03  0.81582936321E+02 0.  0.
         23    2    1    2    0    0 -0.14782036975E+02  0.93325266384E+02  0.23196066643E+03  0.27118523635E+03  0.10395945209E+03 0.  0.
         13    1    3    3    0    0  0.34940205788E+02 -0.54315813176E+02 -0.14340089596E+02  0.66156358055E+02  0.00000000000E+00 0. -1.
        -14    1    3    3    0    0 -0.35414010398E+01 -0.22979638771E+02 -0.81787298329E+02  0.85028039419E+02  0.00000000000E+00 0.  1.
        -13    1    4    4    0    0  0.83109917843E+01  0.11087321765E+03  0.17655249601E+03  0.20864497795E+03  0.00000000000E+00 0. -1.
         13    1    4    4    0    0 -0.23093028759E+02 -0.17547951267E+02  0.55408170422E+02  0.62540258398E+02  0.00000000000E+00 0.  1.
         21    1    1    2  502  501 -0.16616767773E+02 -0.16029814438E+02  0.58261552036E+02  0.62669612795E+02  0.00000000000E+00 0.  1.
<scales pt_clust_5="13000.00000" pt_clust_6="13000.00000" pt_clust_7="13000.00000" pt_clust_8="13000.00000" pt_clust_9="23.08835"></scales>
<clustering>
<clus scale="   23.088">  1  9  2 -1</clus>
<clus scale="   81.583">  5  6 -1 -1</clus>
<clus scale="  103.959">  7  8 -1 -1</clus>
<clus scale="  117.316">  2  5  1 -1</clus>
<clus scale="   23.088">  1  5  2 -1</clus>
</clustering>
</event>
<event>
 9    1  0.1973774E-005  0.9488027E+02  0.7546771E-02  0.1298011E+00
          1   -1    0    0  502    0  0.00000000000E+00  0.00000000000E+00  0.82699022472E+03  0.82699022472E+03  0.00000000000E+00 0. -1.
         -2   -1    0    0    0  501 -0.00000000000E+00 -0.00000000000E+00 -0.64153184050E+02  0.64153184050E+02  0.00000000000E+00 0.  1.
         23    2    1    2    0    0 -0.32248524889E+02 -0.13046463371E+01 -0.93941365493E+01  0.97989981299E+02  0.92044104504E+02 0.  0.
        -24    2    1    2    0    0 -0.47593093212E+02  0.15633520702E+02  0.32437428075E+03  0.33800971354E+03  0.80761271288E+02 0.  0.
         13    1    4    4    0    0 -0.27760027047E+02 -0.31892039965E+02  0.11939963958E+03  0.12666489350E+03  0.00000000000E+00 0. -1.
        -14    1    4    4    0    0 -0.19833066165E+02  0.47525560667E+02  0.20497464117E+03  0.21134482003E+03  0.00000000000E+00 0.  1.
        -11    1    3    3    0    0  0.29003982354E+02  0.15358815186E+02 -0.10633533002E+02  0.34499220577E+02  0.00000000000E+00 0. -1.
         11    1    3    3    0    0 -0.61252507243E+02 -0.16663461523E+02  0.12393964526E+01  0.63490760722E+02  0.00000000000E+00 0.  1.
         21    1    1    2  502  501  0.79841618101E+02 -0.14328874365E+02  0.44785689646E+03  0.45514371393E+03  0.00000000000E+00 0. -1.
<scales pt_clust_5="13000.00000" pt_clust_6="13000.00000" pt_clust_7="13000.00000" pt_clust_8="13000.00000" pt_clust_9="81.11720"></scales>
<clustering>
<clus scale="   80.761">  5  6 -1 -1</clus>
<clus scale="   81.117">  1  9  2 -1</clus>
<clus scale="   83.979">  1  5  2 -1</clus>
<clus scale="   92.044">  7  8 -1 -1</clus>
<clus scale="   81.117">  1  5  2 -1</clus>
</clustering>
</event>
<event>
 9    1  0.2939732E-005  0.8902141E+02  0.7546771E-02  0.1307450E+00
         -2   -1    0    0    0  501 -0.00000000000E+00  0.00000000000E+00  0.19643106697E+03  0.19643106697E+03  0.00000000000E+00 0.  1.
          1   -1    0    0  502    0  0.00000000000E+00 -0.00000000000E+00 -0.14935564278E+03  0.14935564278E+03  0.00000000000E+00 0. -1.
        -24    2    1    2    0    0  0.24337425041E+02 -0.31017516029E+02  0.16309420370E+03  0.18606085351E+03  0.80402272189E+02 0.  0.
         23    2    1    2    0    0 -0.19736465435E+01  0.30203422193E+02 -0.10842120444E+03  0.13609273362E+03  0.76484851970E+02 0.  0.
         13    1    3    3    0    0 -0.10005349688E+02  0.21988954990E+02  0.28339951756E+02  0.37239414999E+02  0.00000000000E+00 0. -1.
        -14    1    3    3    0    0  0.34342774729E+02 -0.53006471019E+02  0.13475425194E+03  0.14882143852E+03  0.00000000000E+00 0.  1.
        -11    1    4    4    0    0  0.15553586583E+02 -0.19460997371E+02 -0.15667967684E+02  0.29430081305E+02  0.00000000000E+00 0.  1.
         11    1    4    4    0    0 -0.17527233127E+02  0.49664419564E+02 -0.92753236751E+02  0.10666265232E+03  0.00000000000E+00 0. -1.
         21    1    1    2  502  501 -0.22363778498E+02  0.81409383619E+00 -0.75975750635E+01  0.23633122610E+02  0.00000000000E+00 0. -1.
<scales pt_clust_5="13000.00000" pt_clust_6="13000.00000" pt_clust_7="13000.00000" pt_clust_8="13000.00000" pt_clust_9="22.37859"></scales>
<clustering>
<clus scale="   22.379">  2  9  1 -1</clus>
<clus scale="   76.485">  7  8 -1 -1</clus>
<clus scale="   80.402">  5  6 -1 -1</clus>
<clus scale="   85.500">  2  7  1 -1</clus>
<clus scale="   22.379">  2  5  1 -1</clus>
</clustering>
</event>
<event>
 9    1  0.1973774E-005  0.1131416E+03  0.7546771E-02  0.1258097E+00
         -2   -1    0    0    0  501 -0.00000000000E+00  0.00000000000E+00  0.41062766034E+03  0.41062766034E+03  0.00000000000E+00 0.  1.
          1   -1    0    0  502    0  0.00000000000E+00 -0.00000000000E+00 -0.85639971928E+02  0.85639971928E+02  0.00000000000E+00 0. -1.
        -24    2    1    2    0    0 -0.54865848739E+02  0.39811213043E+02  0.32994403678E+03  0.34612318998E+03  0.79642960708E+02 0.  0.
         23    2    1    2    0    0  0.65442292456E+02 -0.61240526147E+02 -0.33577068411E+01  0.12619382066E+03  0.88772239428E+02 0.  0.
         13    1    3    3    0    0 -0.37948433910E+02  0.13133810661E+02  0.48746909123E+02  0.63157278027E+02  0.00000000000E+00 0. -1.
        -14    1    3    3    0    0 -0.16917414829E+02  0.26677402381E+02  0.28119712766E+03  0.28296591195E+03  0.00000000000E+00 0.  1.
        -13    1    4    4    0    0 -0.20212347730E+02 -0.21862717854E+02  0.90232086474E+01  0.31111665449E+02  0.00000000000E+00 0.  1.
         13    1    4    4    0    0  0.85654640186E+02 -0.39377808293E+02 -0.12380915489E+02  0.95082155211E+02  0.00000000000E+00 0. -1.
         21    1    1    2  502  501 -0.10576443717E+02  0.21429313104E+02 -0.15986415271E+01  0.23950621632E+02  0.00000000000E+00 0. -1.
<scales pt_clust_5="13000.00000" pt_clust_6="13000.00000" pt_clust_7="13000.00000" pt_clust_8="13000.00000" pt_clust_9="23.89721"></scales>
<clustering>
<clus scale="   23.897">  2  9  1 -1</clus>
<clus scale="   79.643">  5  6 -1 -1</clus>
<clus scale="   88.772">  7  8 -1 -1</clus>
<clus scale="  106.130">  1  5  2 -1</clus>
<clus scale="   23.897">  2  5  1 -1</clus>
</clustering>
</event>
<event>
 9    1  0.1973774E-005  0.1404725E+03  0.7546771E-02  0.1215338E+00
         -2   -1    0    0    0  501 -0.00000000000E+00  0.00000000000E+00  0.10242311405E+03  0.10242311405E+03  0.00000000000E+00 0.  1.
          1   -1    0    0  502    0  0.00000000000E+00 -0.00000000000E+00 -0.52280978019E+03  0.52280978019E+03  0.00000000000E+00 0. -1.
         23    2    1    2    0    0 -0.51423671966E+02  0.96160779247E+02  0.36402752507E+02  0.14710438264E+03  0.91778262665E+02 0.  0.
        -24    2    1    2    0    0  0.42165578558E+02 -0.75333598894E+02 -0.40185240625E+03  0.41865112878E+03  0.79563333790E+02 0.  0.
         11    1    4    4    0    0  0.57810435961E+02 -0.54545205119E+02 -0.36491514821E+03  0.37347060299E+03  0.00000000000E+00 0. -1.
        -12    1    4    4    0    0 -0.15644857404E+02 -0.20788393776E+02 -0.36937258039E+02  0.45180525787E+02  0.00000000000E+00 0.  1.
        -11    1    3    3    0    0 -0.60557937498E+02  0.17104988857E+02  0.14849637535E+02  0.64655673941E+02  0.00000000000E+00 0.  1.
         11    1    3    3    0    0  0.91342655326E+01  0.79055790390E+02  0.21553114972E+02  0.82448708698E+02  0.00000000000E+00 0. -1.
         21    1    1    2  502  501  0.92580934081E+01 -0.20827180352E+02 -0.54937012397E+02  0.59477382811E+02  0.00000000000E+00 0. -1.
<scales pt_clust_5="13000.00000" pt_clust_6="13000.00000" pt_clust_7="13000.00000" pt_clust_8="13000.00000" pt_clust_9="22.79219"></scales>
<clustering>
<clus scale="   22.792">  2  9  1 -1</clus>
<clus scale="   79.563">  5  6 -1 -1</clus>
<clus scale="   91.778">  7  8 -1 -1</clus>
<clus scale="  132.814">  2  5  1 -1</clus>
<clus scale="   22.792">  2  5  1 -1</clus>
</clustering>
</event>
<event>
 9    1  0.1973774E-005  0.1141524E+03  0.7546771E-02  0.1257347E+00
         -4   -1    0    0    0  501 -0.00000000000E+00  0.00000000000E+00  0.74602673956E+02  0.74602673956E+02  0.00000000000E+00 0.  1.
          3   -1    0    0  502    0  0.00000000000E+00 -0.00000000000E+00 -0.35540981489E+03  0.35540981489E+03  0.00000000000E+00 0. -1.
        -24    2    1    2    0    0  0.76286369698E+01 -0.63490948609E+02 -0.13924197484E+01  0.10333663971E+03  0.81161725068E+02 0.  0.
         23    2    1    2    0    0 -0.29368646371E+02  0.70081483947E+02 -0.13549678992E+03  0.18097604095E+03  0.92838653259E+02 0.  0.
         13    1    3    3    0    0  0.36755655034E+02 -0.38599794621E+01 -0.78495738565E-02  0.36957782401E+02  0.00000000000E+00 0. -1.
        -14    1    3    3    0    0 -0.29127018064E+02 -0.59630969147E+02 -0.13845701746E+01  0.66378857306E+02  0.00000000000E+00 0.  1.
        -11    1    4    4    0    0 -0.54593539435E+01  0.27355332330E+02  0.82748699925E+01  0.29096257934E+02  0.00000000000E+00 0.  1.
         11    1    4    4    0    0 -0.23909292427E+02  0.42726151618E+02 -0.14377165991E+03  0.15187978302E+03  0.00000000000E+00 0. -1.
         21    1    1    2  502  501  0.21740009401E+02 -0.65905353384E+01 -0.14391793126E+03  0.14569980818E+03  0.00000000000E+00 0. -1.
<scales pt_clust_5="13000.00000" pt_clust_6="13000.00000" pt_clust_7="13000.00000" pt_clust_8="13000.00000" pt_clust_9="22.71702"></scales>
<clustering>
<clus scale="   22.717">  2  9  1 -1</clus>
<clus scale="   81.162">  5  6 -1 -1</clus>
<clus scale="   92.839">  7  8 -1 -1</clus>
<clus scale="  104.876">  1  5  2 -1</clus>
<clus scale="   22.717">  2  5  1 -1</clus>
</clustering>
</event>
<event>
 9    1  0.1973774E-005  0.1298352E+03  0.7546771E-02  0.1252728E+00
         -2   -1    0    0    0  501 -0.00000000000E+00  0.00000000000E+00  0.11863364915E+03  0.11863364915E+03  0.00000000000E+00 0.  1.
          1   -1    0    0  502    0  0.00000000000E+00 -0.00000000000E+00 -0.41754588169E+03  0.41754588169E+03  0.00000000000E+00 0. -1.
        -24    2    1    2    0    0  0.12349605176E+01  0.17619222815E+02  0.70394778452E+02  0.10514888464E+03  0.76084827441E+02 0.  0.
         23    2    1    2    0    0  0.41458126915E+02 -0.90754209215E+02 -0.21193445139E+03  0.25231985061E+03  0.93776289893E+02 0.  0.
         11    1    3    3    0    0  0.22162317964E+02 -0.19338630583E+02  0.50056736448E+02  0.58058830802E+02  0.00000000000E+00 0. -1.
        -12    1    3    3    0    0 -0.20927357446E+02  0.36957853398E+02  0.20338042004E+02  0.47090053834E+02  0.00000000000E+00 0.  1.
        -11    1    4    4    0    0  0.62619184094E+02 -0.24976954000E+02 -0.94876016669E+02  0.11638929928E+03  0.00000000000E+00 0.  1.
         11    1    4    4    0    0 -0.21161057179E+02 -0.65777255215E+02 -0.11705843472E+03  0.13593055133E+03  0.00000000000E+00 0. -1.
         21    1    1    2  502  501 -0.42693087433E+02  0.73134986400E+02 -0.15737255960E+03  0.17871079560E+03  0.00000000000E+00 0.  1.
<scales pt_clust_5="13000.00000" pt_clust_6="13000.00000" pt_clust_7="13000.00000" pt_clust_8="13000.00000" pt_clust_9="89.79530"></scales>
<clustering>
<clus scale="   76.085">  5  6 -1 -1</clus>
<clus scale="   78.108">  1  5  2 -1</clus>
<clus scale="   89.795">  2  9  1 -1</clus>
<clus scale="   93.776">  7  8 -1 -1</clus>
<clus scale="   89.795">  2  5  1 -1</clus>
</clustering>
</event>
<event>
 9    1  0.1973774E-005  0.9386651E+02  0.7546771E-02  0.1300004E+00
         -2   -1    0    0    0  501 -0.00000000000E+00  0.00000000000E+00  0.94077235096E+03  0.94077235096E+03  0.00000000000E+00 0.  1.
          1   -1    0    0  502    0  0.00000000000E+00 -0.00000000000E+00 -0.18127961899E+02  0.18127961899E+02  0.00000000000E+00 0. -1.
        -24    2    1    2    0    0  0.45935630762E+02  0.10467429026E+02  0.31112096933E+03  0.32465966830E+03  0.79924923678E+02 0.  0.
         23    2    1    2    0    0  0.31433876066E+01  0.35334684420E+02  0.29355016282E+03  0.30925822079E+03  0.90611965150E+02 0.  0.
         13    1    3    3    0    0  0.56772423163E+02 -0.19035790963E+02  0.17512701778E+03  0.18508090590E+03  0.00000000000E+00 0. -1.
        -14    1    3    3    0    0 -0.10836792401E+02  0.29503219989E+02  0.13599395154E+03  0.13957876241E+03  0.00000000000E+00 0.  1.
        -13    1    4    4    0    0  0.46507294232E+02  0.11885228587E+02  0.14278274169E+03  0.15063564784E+03  0.00000000000E+00 0.  1.
         13    1    4    4    0    0 -0.43363906625E+02  0.23449455833E+02  0.15076742113E+03  0.15862257295E+03  0.00000000000E+00 0. -1.
         21    1    1    2  502  501 -0.49079018369E+02 -0.45802113446E+02  0.31797325691E+03  0.32498242376E+03  0.00000000000E+00 0. -1.
<scales pt_clust_5="13000.00000" pt_clust_6="13000.00000" pt_clust_7="13000.00000" pt_clust_8="13000.00000" pt_clust_9="67.13109"></scales>
<clustering>
<clus scale="   67.131">  1  9  2 -1</clus>
<clus scale="   79.925">  5  6 -1 -1</clus>
<clus scale="   83.597">  1  5  2 -1</clus>
<clus scale="   90.612">  7  8 -1 -1</clus>
<clus scale="   93.867">  2  5  1 -1</clus>
</clustering>
</event>
<event>
 9    1  0.1973774E-005  0.9524792E+02  0.7546771E-02  0.1296841E+00
         -2   -1    0    0    0  501 -0.00000000000E+00  0.00000000000E+00  0.78504941557E+02  0.78504941557E+02  0.00000000000E+00 0.  1.
          1   -1    0    0  502    0  0.00000000000E+00 -0.00000000000E+00 -0.52040556317E+03  0.52040556317E+03  0.00000000000E+00 0. -1.
        -24    2    1    2    0    0  0.17591754997E+02 -0.19244365122E+02  0.44228504113E+02  0.95544211875E+02  0.80577418759E+02 0.  0.
         23    2    1    2    0    0 -0.37743566427E+02  0.11584437387E+02 -0.45308460074E+03  0.46391112046E+03  0.91482764847E+02 0.  0.
         11    1    3    3    0    0  0.50007786250E+02 -0.11309660651E+02  0.25228361221E+02  0.57141555103E+02  0.00000000000E+00 0. -1.
        -12    1    3    3    0    0 -0.32416031253E+02 -0.79347044707E+01  0.19000142892E+02  0.38402656772E+02  0.00000000000E+00 0.  1.
        -11    1    4    4    0    0  0.28768245257E+02 -0.80138109746E+01 -0.11727951540E+03  0.12102197253E+03  0.00000000000E+00 0. -1.
         11    1    4    4    0    0 -0.66511811684E+02  0.19598248361E+02 -0.33580508534E+03  0.34288914793E+03  0.00000000000E+00 0.  1.
         21    1    1    2  502  501  0.20151811430E+02  0.76599277350E+01 -0.33044524990E+02  0.39455172394E+02  0.00000000000E+00 0.  1.
<scales pt_clust_5="13000.00000" pt_clust_6="13000.00000" pt_clust_7="13000.00000" pt_clust_8="13000.00000" pt_clust_9="21.55852"></scales>
<clustering>
<clus scale="   21.559">  2  9  1 -1</clus>
<clus scale="   80.577">  5  6 -1 -1</clus>
<clus scale="   84.828">  1  5  2 -1</clus>
<clus scale="   91.483">  7  8 -1 -1</clus>
<clus scale="   21.559">  2  5  1 -1</clus>
</clustering>
</event>
<event>
 9    1  0.1973774E-005  0.2699273E+03  0.7546771E-02  0.1101678E+00
          1   -1    0    0  502    0  0.00000000000E+00  0.00000000000E+00  0.49814334423E+03  0.49814334423E+03  0.00000000000E+00 0. -1.
         -2   -1    0    0    0  501 -0.00000000000E+00 -0.00000000000E+00 -0.42575955776E+03  0.42575955776E+03  0.00000000000E+00 0.  1.
        -24    2    1    2    0    0 -0.44129463981E+02  0.25549313300E+03 -0.33471761100E+03  0.43100384530E+03  0.80649147270E+02 0.  0.
         23    2    1    2    0    0  0.44613016474E+02 -0.21721721890E+03  0.33680391585E+03  0.41285522281E+03  0.88537652097E+02 0.  0.
         13    1    3    3    0    0 -0.21505346354E+02  0.14855695038E+02 -0.14763131808E+02  0.30018688473E+02  0.00000000000E+00 0. -1.
        -14    1    3    3    0    0 -0.22624117627E+02  0.24063743796E+03 -0.31995447919E+03  0.40098515683E+03  0.00000000000E+00 0.  1.
        -13    1    4    4    0    0  0.39799857035E+02 -0.11252815737E+03  0.10706470478E+03  0.16034171582E+03  0.00000000000E+00 0.  1.
         13    1    4    4    0    0  0.48131594389E+01 -0.10468906153E+03  0.22973921108E+03  0.25251350699E+03  0.00000000000E+00 0. -1.
         21    1    1    2  502  501 -0.48355249324E+00 -0.38275914097E+02  0.70297481603E+02  0.80043833883E+02  0.00000000000E+00 0. -1.
<scales pt_clust_5="13000.00000" pt_clust_6="13000.00000" pt_clust_7="13000.00000" pt_clust_8="13000.00000" pt_clust_9="38.27897"></scales>
<clustering>
<clus scale="   38.279">  1  9  2 -1</clus>
<clus scale="   80.649">  5  6 -1 -1</clus>
<clus scale="   88.538">  7  8 -1 -1</clus>
<clus scale="  267.444">  2  5  1 -1</clus>
<clus scale="   38.279">  1  5  2 -1</clus>
</clustering>
</event>
<event>
 9    1  0.1973774E-005  0.1231919E+03  0.7546771E-02  0.1240665E+00
         -2   -1    0    0    0  501 -0.00000000000E+00  0.00000000000E+00  0.51333129739E+02  0.51333129739E+02  0.00000000000E+00 0.  1.
          1   -1    0    0  502    0  0.00000000000E+00 -0.00000000000E+00 -0.60606748099E+03  0.60606748099E+03  0.00000000000E+00 0. -1.
        -24    2    1    2    0    0 -0.71977032917E+02  0.56491192158E+02 -0.57449519592E+02  0.13558514961E+03  0.81920311489E+02 0.  0.
         23    2    1    2    0    0  0.49087781786E+02 -0.33200889019E+02 -0.25329245140E+03  0.27564755570E+03  0.91173459242E+02 0.  0.
         13    1    3    3    0    0  0.64588841629E+01  0.42340496079E+02 -0.24483975863E+02  0.49334570707E+02  0.00000000000E+00 0. -1.
        -14    1    3    3    0    0 -0.78435917080E+02  0.14150696079E+02 -0.32965543729E+02  0.86250578903E+02  0.00000000000E+00 0.  1.
        -11    1    4    4    0    0 -0.26523735720E+02 -0.10891660691E+02 -0.50521002187E+02  0.58090519804E+02  0.00000000000E+00 0.  1.
         11    1    4    4    0    0  0.75611517506E+02 -0.22309228328E+02 -0.20277144922E+03  0.21755703589E+03  0.00000000000E+00 0. -1.
         21    1    1    2  502  501  0.22889251131E+02 -0.23290303139E+02 -0.24399238026E+03  0.24616790543E+03  0.00000000000E+00 0. -1.
<scales pt_clust_5="13000.00000" pt_clust_6="13000.00000" pt_clust_7="13000.00000" pt_clust_8="13000.00000" pt_clust_9="32.65511"></scales>
<clustering>
<clus scale="   32.655">  2  9  1 -1</clus>
<clus scale="   81.920">  5  6 -1 -1</clus>
<clus scale="   91.173">  7  8 -1 -1</clus>
<clus scale="  116.510">  1  5  2 -1</clus>
<clus scale="   32.655">  2  5  1 -1</clus>
</clustering>
</event>
<event>
 9    1  0.1973774E-005  0.1213441E+03  0.7546771E-02  0.1246880E+00
         -2   -1    0    0    0  501 -0.00000000000E+00  0.00000000000E+00  0.71085264828E+02  0.71085264828E+02  0.00000000000E+00 0.  1.
          1   -1    0    0  502    0  0.00000000000E+00 -0.00000000000E+00 -0.26444159870E+03  0.26444159870E+03  0.00000000000E+00 0. -1.
        -24    2    1    2    0    0  0.38269426857E+02  0.40847242683E+02 -0.55954687327E+02  0.11241315580E+03  0.79829470100E+02 0.  0.
         23    2    1    2    0    0 -0.79307430211E+02 -0.45163116859E+02 -0.11408395402E+03  0.17571688005E+03  0.97631438373E+02 0.  0.
         11    1    3    3    0    0  0.22940651773E+02 -0.13610281678E+02 -0.48498741968E+02  0.55350169319E+02  0.00000000000E+00 0. -1.
        -12    1    3    3    0    0  0.15328775084E+02  0.54457524361E+02 -0.74559453588E+01  0.57062986482E+02  0.00000000000E+00 0.  1.
        -11    1    4    4    0    0 -0.99248669952E+02 -0.25573519024E+02 -0.10396047875E+03  0.14598659015E+03  0.00000000000E+00 0. -1.
         11    1    4    4    0    0  0.19941239742E+02 -0.19589597835E+02 -0.10123475268E+02  0.29730289896E+02  0.00000000000E+00 0.  1.
         21    1    1    2  502  501  0.41038003354E+02  0.43158741763E+01 -0.23317692526E+02  0.47396827678E+02  0.00000000000E+00 0.  1.
<scales pt_clust_5="13000.00000" pt_clust_6="13000.00000" pt_clust_7="13000.00000" pt_clust_8="13000.00000" pt_clust_9="41.26432"></scales>
<clustering>
<clus scale="   41.264">  1  9  2 -1</clus>
<clus scale="   79.829">  5  6 -1 -1</clus>
<clus scale="   97.631">  7  8 -1 -1</clus>
<clus scale="  107.542">  1  5  2 -1</clus>
<clus scale="  121.344">  2  5  1 -1</clus>
</clustering>
</event>
<event>
 9    1  0.1973774E-005  0.1091667E+03  0.7546771E-02  0.1264996E+00
         -2   -1    0    0    0  501 -0.00000000000E+00  0.00000000000E+00  0.16622150050E+03  0.16622150050E+03  0.00000000000E+00 0.  1.
          1   -1    0    0  502    0  0.00000000000E+00 -0.00000000000E+00 -0.16939215270E+03  0.16939215270E+03  0.00000000000E+00 0. -1.
         23    2    1    2    0    0  0.38978439413E+02 -0.50702043488E+02  0.10727911919E+03  0.15293189397E+03  0.88257231012E+02 0.  0.
        -24    2    1    2    0    0 -0.21443370177E+02  0.61046984191E+02 -0.12143472173E+03  0.15954811305E+03  0.80762963877E+02 0.  0.
         13    1    4    4    0    0 -0.21150489172E+02  0.20958934143E+02 -0.11518907990E+03  0.11897539343E+03  0.00000000000E+00 0. -1.
        -14    1    4    4    0    0 -0.29288100498E+00  0.40088050048E+02 -0.62456418259E+01  0.40572719625E+02  0.00000000000E+00 0.  1.
        -11    1    3    3    0    0 -0.15226522847E+02 -0.15184518812E+02 -0.60883393224E+01  0.22349149542E+02  0.00000000000E+00 0. -1.
         11    1    3    3    0    0  0.54204962261E+02 -0.35517524676E+02  0.11336745851E+03  0.13058274442E+03  0.00000000000E+00 0.  1.
         21    1    1    2  502  501 -0.17535069237E+02 -0.10344940703E+02  0.10984950349E+02  0.23133646177E+02  0.00000000000E+00 0.  1.
<scales pt_clust_5="13000.00000" pt_clust_6="13000.00000" pt_clust_7="13000.00000" pt_clust_8="13000.00000" pt_clust_9="20.35919"></scales>
<clustering>
<clus scale="   20.359">  1  9  2 -1</clus>
<clus scale="   80.763">  5  6 -1 -1</clus>
<clus scale="   88.257">  7  8 -1 -1</clus>
<clus scale="  103.202">  2  5  1 -1</clus>
<clus scale="  103.202">  2  5  1 -1</clus>
</clustering>
</event>
<event>
 9    1  0.1973774E-005  0.1116555E+03  0.7546771E-02  0.1260448E+00
         -4   -1    0    0    0  501 -0.00000000000E+00  0.00000000000E+00  0.34657470287E+03  0.34657470287E+03  0.00000000000E+00 0.  1.
          3   -1    0    0  502    0  0.00000000000E+00 -0.00000000000E+00 -0.62919574765E+02  0.62919574765E+02  0.00000000000E+00 0. -1.
        -24    2    1    2    0    0  0.71785193286E+02  0.36929397336E+02  0.20898172927E+03  0.23879902345E+03  0.82672341616E+02 0.  0.
         23    2    1    2    0    0 -0.58288490504E+02 -0.18682998595E+02  0.19400911782E+02  0.11094460668E+03  0.90474901553E+02 0.  0.
         13    1    3    3    0    0  0.15774595645E+01 -0.22711355374E+02  0.31919402938E+02  0.39206406690E+02  0.00000000000E+00 0. -1.
        -14    1    3    3    0    0  0.70207733721E+02  0.59640752710E+02  0.17706232633E+03  0.19959261676E+03  0.00000000000E+00 0.  1.
        -13    1    4    4    0    0 -0.81880328055E+02 -0.22686552459E+02  0.11472089879E+02  0.85736087099E+02  0.00000000000E+00 0. -1.
         13    1    4    4    0    0  0.23591837551E+02  0.40035538636E+01  0.79288219030E+01  0.25208519578E+02  0.00000000000E+00 0.  1.
         21    1    1    2  502  501 -0.13496702781E+02 -0.18246398741E+02  0.55272487056E+02  0.59750647514E+02  0.00000000000E+00 0. -1.
<scales pt_clust_5="13000.00000" pt_clust_6="13000.00000" pt_clust_7="13000.00000" pt_clust_8="13000.00000" pt_clust_9="22.69564"></scales>
<clustering>
<clus scale="   22.696">  1  9  2 -1</clus>
<clus scale="   82.672">  5  6 -1 -1</clus>
<clus scale="   90.475">  7  8 -1 -1</clus>
<clus scale="  105.432">  1  5  2 -1</clus>
<clus scale="  111.656">  2  5  1 -1</clus>
</clustering>
</event>
<event>
 9    1  0.1973774E-005  0.8979593E+02  0.7546771E-02  0.1304465E+00
         -2   -1    0    0    0  501 -0.00000000000E+00  0.00000000000E+00  0.16854269858E+03  0.16854269858E+03  0.00000000000E+00 0.  1.
          1   -1    0    0  502    0  0.00000000000E+00 -0.00000000000E+00 -0.13539744522E+03  0.13539744522E+03  0.00000000000E+00 0. -1.
         23    2    1    2    0    0  0.55584782534E+01 -0.65911908367E+01  0.12405557853E+03  0.15203673196E+03  0.87470228212E+02 0.  0.
        -24    2    1    2    0    0 -0.23186862063E+02 -0.70284123253E+01 -0.49639793767E+02  0.10500447510E+03  0.89301744181E+02 0.  0.
         13    1    4    4    0    0 -0.50118065731E+02 -0.27942824567E+02 -0.23359794205E+02  0.61954030883E+02  0.00000000000E+00 0. -1.
        -14    1    4    4    0    0  0.26931203667E+02  0.20914412242E+02 -0.26279999562E+02  0.43050444218E+02  0.00000000000E+00 0.  1.
        -11    1    3    3    0    0 -0.20049202675E+02  0.25891010378E+02  0.16225269173E+02  0.36545510067E+02  0.00000000000E+00 0. -1.
         11    1    3    3    0    0  0.25607680929E+02 -0.32482201215E+02  0.10783030935E+03  0.11549122189E+03  0.00000000000E+00 0.  1.
         21    1    1    2  502  501  0.17628383810E+02  0.13619603162E+02 -0.41270531398E+02  0.46898936747E+02  0.00000000000E+00 0. -1.
<scales pt_clust_5="13000.00000" pt_clust_6="13000.00000" pt_clust_7="13000.00000" pt_clust_8="13000.00000" pt_clust_9="22.27675"></scales>
<clustering>
<clus scale="   22.277">  2  9  1 -1</clus>
<clus scale="   87.470">  7  8 -1 -1</clus>
<clus scale="   87.975">  1  7  2 -1</clus>
<clus scale="   89.302">  5  6 -1 -1</clus>
<clus scale="   22.277">  2  5  1 -1</clus>
</clustering>
</event>
<event>
 9    1  0.1973774E-005  0.1051781E+03  0.7546771E-02  0.1271041E+00
          1   -1    0    0  502    0  0.00000000000E+00  0.00000000000E+00  0.41124781755E+03  0.41124781755E+03  0.00000000000E+00 0. -1.
         -2   -1    0    0    0  501 -0.00000000000E+00 -0.00000000000E+00 -0.56614817252E+02  0.56614817252E+02  0.00000000000E+00 0.  1.
         23    2    1    2    0    0  0.63007976250E+02  0.65682483498E+01  0.24535102372E+02  0.10770691866E+03  0.83580273520E+02 0.  0.
        -24    2    1    2    0    0 -0.66384580233E+02  0.17799384123E+02  0.18580711630E+03  0.21378286132E+03  0.80343616782E+02 0.  0.
         11    1    4    4    0    0 -0.61893882874E+02  0.45924662501E+02  0.13002776957E+03  0.15115273144E+03  0.00000000000E+00 0. -1.
        -12    1    4    4    0    0 -0.44906973590E+01 -0.28125278378E+02  0.55779346736E+02  0.62630129880E+02  0.00000000000E+00 0.  1.
        -13    1    3    3    0    0  0.22017850517E+02 -0.33788985258E+02 -0.87219215283E+01  0.41262006511E+02  0.00000000000E+00 0.  1.
         13    1    3    3    0    0  0.40990125733E+02  0.40357233608E+02  0.33257023900E+02  0.66444912151E+02  0.00000000000E+00 0. -1.
         21    1    1    2  502  501  0.33766039828E+01 -0.24367632473E+02  0.14429078162E+03  0.14637285482E+03  0.00000000000E+00 0. -1.
<scales pt_clust_5="13000.00000" pt_clust_6="13000.00000" pt_clust_7="13000.00000" pt_clust_8="13000.00000" pt_clust_9="24.60047"></scales>
<clustering>
<clus scale="   24.600">  1  9  2 -1</clus>
<clus scale="   80.344">  5  6 -1 -1</clus>
<clus scale="   83.580">  7  8 -1 -1</clus>
<clus scale="  102.625">  1  5  2 -1</clus>
<clus scale="   24.600">  1  5  2 -1</clus>
</clustering>
</event>
<event>
 9    1  0.1973774E-005  0.1154840E+03  0.7546771E-02  0.1254159E+00
          1   -1    0    0  502    0  0.00000000000E+00  0.00000000000E+00  0.70654189742E+03  0.70654189742E+03  0.00000000000E+00 0. -1.
         -2   -1    0    0    0  501 -0.00000000000E+00 -0.00000000000E+00 -0.28760615118E+03  0.28760615118E+03  0.00000000000E+00 0.  1.
         23    2    1    2    0    0  0.12650242297E+02 -0.71950749948E+02 -0.26248530179E+03  0.28684001706E+03  0.89675652668E+02 0.  0.
        -24    2    1    2    0    0  0.42640768099E+02  0.73166111446E+02  0.29724061021E+03  0.31916735893E+03  0.79651162429E+02 0.  0.
         11    1    4    4    0    0 -0.89771272159E+01  0.56371357537E+02  0.19785307090E+03  0.20592269527E+03  0.00000000000E+00 0. -1.
        -12    1    4    4    0    0  0.51617895315E+02  0.16794753909E+02  0.99387539316E+02  0.11324466366E+03  0.00000000000E+00 0.  1.
        -11    1    3    3    0    0  0.50875289208E+02 -0.44174234201E+02 -0.17275075536E+03  0.18542513718E+03  0.00000000000E+00 0. -1.
         11    1    3    3    0    0 -0.38225046911E+02 -0.27776515747E+02 -0.89734546424E+02  0.10141487988E+03  0.00000000000E+00 0.  1.
         21    1    1    2  502  501 -0.55291010396E+02 -0.12153614976E+01  0.38418043782E+03  0.38814067261E+03  0.00000000000E+00 0. -1.
<scales pt_clust_5="13000.00000" pt_clust_6="13000.00000" pt_clust_7="13000.00000" pt_clust_8="13000.00000" pt_clust_9="55.30437"></scales>
<clustering>
<clus scale="   55.304">  1  9  2 -1</clus>
<clus scale="   79.651">  5  6 -1 -1</clus>
<clus scale="   89.676">  7  8 -1 -1</clus>
<clus scale="  107.885">  1  5  2 -1</clus>
<clus scale="   55.304">  1  5  2 -1</clus>
</clustering>
</event>
<event>
 9    1  0.1973774E-005  0.1710563E+03  0.7546771E-02  0.1178162E+00
          3   -1    0    0  502    0  0.00000000000E+00  0.00000000000E+00  0.34840837923E+03  0.34840837923E+03  0.00000000000E+00 0. -1.
         -4   -1    0    0    0  501 -0.00000000000E+00 -0.00000000000E+00 -0.15446395827E+03  0.15446395827E+03  0.00000000000E+00 0.  1.
        -24    2    1    2    0    0 -0.12367096303E+03  0.41999166218E+02 -0.16929777687E+02  0.15347392675E+03  0.78798424851E+02 0.  0.
         23    2    1    2    0    0  0.16675366597E+03 -0.88925416522E+02  0.12917250528E+03  0.24579648529E+03  0.89531342248E+02 0.  0.
         11    1    3    3    0    0 -0.11497000309E+03  0.24951566877E+02  0.12562660482E+02  0.11831526840E+03  0.00000000000E+00 0. -1.
        -12    1    3    3    0    0 -0.87009599415E+01  0.17047599342E+02 -0.29492438169E+02  0.35158658341E+02  0.00000000000E+00 0.  1.
        -11    1    4    4    0    0  0.55591755336E+02  0.10484491583E+02  0.16623997189E+02  0.58963760969E+02  0.00000000000E+00 0. -1.
         11    1    4    4    0    0  0.11116191063E+03 -0.99409908105E+02  0.11254850809E+03  0.18683272432E+03  0.00000000000E+00 0.  1.
         21    1    1    2  502  501 -0.43082702939E+02  0.46926250304E+02  0.81701693365E+02  0.10360192546E+03  0.00000000000E+00 0. -1.
<scales pt_clust_5="13000.00000" pt_clust_6="13000.00000" pt_clust_7="13000.00000" pt_clust_8="13000.00000" pt_clust_9="63.70394"></scales>
<clustering>
<clus scale="   63.704">  1  9  2 -1</clus>
<clus scale="   78.798">  5  6 -1 -1</clus>
<clus scale="   89.531">  7  8 -1 -1</clus>
<clus scale="  165.691">  2  5  1 -1</clus>
<clus scale="   63.704">  1  5  2 -1</clus>
</clustering>
</event>
<event>
 9    1  0.1973774E-005  0.3123040E+03  0.7546771E-02  0.1079535E+00
          1   -1    0    0  502    0  0.00000000000E+00  0.00000000000E+00  0.11804335328E+04  0.11804335328E+04  0.00000000000E+00 0. -1.
         -2   -1    0    0    0  501 -0.00000000000E+00 -0.00000000000E+00 -0.18171679059E+03  0.18171679059E+03  0.00000000000E+00 0.  1.
        -24    2    1    2    0    0  0.26186145549E+03 -0.21132058233E+03  0.62869278643E+02  0.35160253137E+03  0.80274426086E+02 0.  0.
         23    2    1    2    0    0 -0.18485068152E+03  0.11477378688E+03  0.43269162494E+03  0.49245731638E+03  0.89159237006E+02 0.  0.
         11    1    3    3    0    0  0.17290058711E+02 -0.13205822936E+02 -0.16142998928E+02  0.27091258812E+02  0.00000000000E+00 0. -1.
        -12    1    3    3    0    0  0.24457139677E+03 -0.19811475940E+03  0.79012277571E+02  0.32451127256E+03  0.00000000000E+00 0.  1.
        -13    1    4    4    0    0 -0.55837393338E+02  0.67453434911E+01  0.53578378060E+02  0.77678547548E+02  0.00000000000E+00 0.  1.
         13    1    4    4    0    0 -0.12901328818E+03  0.10802844339E+03  0.37911324688E+03  0.41477876883E+03  0.00000000000E+00 0. -1.
         21    1    1    2  502  501 -0.77010773969E+02  0.96546795450E+02  0.50315583866E+03  0.51809047568E+03  0.00000000000E+00 0. -1.
<scales pt_clust_5="13000.00000" pt_clust_6="13000.00000" pt_clust_7="13000.00000" pt_clust_8="13000.00000" pt_clust_9="123.49876"></scales>
<clustering>
<clus scale="   80.274">  5  6 -1 -1</clus>
<clus scale="   89.159">  7  8 -1 -1</clus>
<clus scale="  123.499">  1  9  2 -1</clus>
<clus scale="  309.885">  2  5  1 -1</clus>
<clus scale="  123.499">  1  5  2 -1</clus>
</clustering>
</event>
<event>
 9    1  0.1973774E-005  0.9075382E+02  0.7546771E-02  0.1307088E+00
          1   -1    0    0  502    0  0.00000000000E+00  0.00000000000E+00  0.16276024136E+03  0.16276024136E+03  0.00000000000E+00 0. -1.
         -2   -1    0    0    0  501 -0.00000000000E+00 -0.00000000000E+00 -0.14875418341E+03  0.14875418341E+03  0.00000000000E+00 0.  1.
        -24    2    1    2    0    0 -0.14520521748E+02 -0.90824835775E+01 -0.10005297888E+03  0.12950269335E+03  0.80417734000E+02 0.  0.
         23    2    1    2    0    0 -0.10650712167E+02 -0.10510321415E+02  0.36754931551E+02  0.98385218168E+02  0.90026782874E+02 0.  0.
         13    1    3    3    0    0 -0.39325417604E+02  0.11703862984E+02 -0.25706663576E+02  0.48417986645E+02  0.00000000000E+00 0. -1.
        -14    1    3    3    0    0  0.24804895856E+02 -0.20786346562E+02 -0.74346315307E+02  0.81084706706E+02  0.00000000000E+00 0.  1.
        -13    1    4    4    0    0  0.23221979965E+02  0.28009861619E+02  0.28957522907E+02  0.46501084227E+02  0.00000000000E+00 0. -1.
         13    1    4    4    0    0 -0.33872692131E+02 -0.38520183034E+02  0.77974086440E+01  0.51884133941E+02  0.00000000000E+00 0.  1.
         21    1    1    2  502  501  0.25171233915E+02  0.19592804993E+02  0.77304105289E+02  0.83626513253E+02  0.00000000000E+00 0. -1.
<scales pt_clust_5="13000.00000" pt_clust_6="13000.00000" pt_clust_7="13000.00000" pt_clust_8="13000.00000" pt_clust_9="31.89779"></scales>
<clustering>
<clus scale="   31.898">  1  9  2 -1</clus>
<clus scale="   80.418">  5  6 -1 -1</clus>
<clus scale="   81.231">  2  5  1 -1</clus>
<clus scale="   90.027">  7  8 -1 -1</clus>
<clus scale="   31.898">  1  5  2 -1</clus>
</clustering>
</event>
<event>
 9    1  0.1973774E-005  0.1000854E+03  0.7546771E-02  0.1286517E+00
         -2   -1    0    0    0  501 -0.00000000000E+00  0.00000000000E+00  0.59140712788E+02  0.59140712788E+02  0.00000000000E+00 0.  1.
          1   -1    0    0  502    0  0.00000000000E+00 -0.00000000000E+00 -0.50999555201E+03  0.50999555201E+03  0.00000000000E+00 0. -1.
         23    2    1    2    0    0  0.74255105435E+02 -0.10671167688E+02 -0.26768236164E+02  0.12132569927E+03  0.91518808625E+02 0.  0.
        -24    2    1    2    0    0 -0.35667301682E+02  0.96062838863E+01 -0.37697472975E+03  0.38690341339E+03  0.78866135440E+02 0.  0.
         13    1    4    4    0    0  0.23872961961E+02 -0.44717379766E+01 -0.76500811787E+02  0.80263870810E+02  0.00000000000E+00 0. -1.
        -14    1    4    4    0    0 -0.59540263644E+02  0.14078021863E+02 -0.30047391796E+03  0.30663954258E+03  0.00000000000E+00 0.  1.
        -11    1    3    3    0    0  0.13871538467E+02  0.27707482176E+02 -0.37859723353E+02  0.48923233747E+02  0.00000000000E+00 0.  1.
         11    1    3    3    0    0  0.60383566968E+02 -0.38378649864E+02  0.11091487189E+02  0.72402465519E+02  0.00000000000E+00 0. -1.
         21    1    1    2  502  501 -0.38587803753E+02  0.10648838020E+01 -0.47111873304E+02  0.60907152143E+02  0.00000000000E+00 0.  1.
<scales pt_clust_5="13000.00000" pt_clust_6="13000.00000" pt_clust_7="13000.00000" pt_clust_8="13000.00000" pt_clust_9="38.60249"></scales>
<clustering>
<clus scale="   38.602">  1  9  2 -1</clus>
<clus scale="   78.866">  5  6 -1 -1</clus>
<clus scale="   88.664">  2  5  1 -1</clus>
<clus scale="   91.519">  7  8 -1 -1</clus>
<clus scale="   88.664">  2  5  1 -1</clus>
</clustering>
</event>
<event>
 9    1  0.1973774E-005  0.2192553E+03  0.7546771E-02  0.1135306E+00
         -2   -1    0    0    0  501 -0.00000000000E+00  0.00000000000E+00  0.13366107616E+03  0.13366107616E+03  0.00000000000E+00 0.  1.
          1   -1    0    0  502    0  0.00000000000E+00 -0.00000000000E+00 -0.45143648910E+03  0.45143648910E+03  0.00000000000E+00 0. -1.
         23    2    1    2    0    0 -0.61473516894E+02 -0.19049037293E+03 -0.11729007937E+03  0.24888809911E+03  0.90126287517E+02 0.  0.
        -24    2    1    2    0    0  0.10968727626E+03  0.17104099685E+03 -0.16596312362E+03  0.27380251300E+03  0.78343707764E+02 0.  0.
         13    1    4    4    0    0  0.10211187126E+03  0.97763669211E+02 -0.12901508581E+03  0.19138824843E+03  0.00000000000E+00 0. -1.
        -14    1    4    4    0    0  0.75754049962E+01  0.73277327638E+02 -0.36948037817E+02  0.82414264573E+02  0.00000000000E+00 0.  1.
        -11    1    3    3    0    0 -0.92362880116E+01 -0.14681024042E+03 -0.10226909847E+03  0.17915781928E+03  0.00000000000E+00 0.  1.
         11    1    3    3    0    0 -0.52237228883E+02 -0.43680132516E+02 -0.15020980896E+02  0.69730279829E+02  0.00000000000E+00 0. -1.
         21    1    1    2  502  501 -0.48213759364E+02  0.19449376085E+02 -0.34522209952E+02  0.62406953155E+02  0.00000000000E+00 0.  1.
<scales pt_clust_5="13000.00000" pt_clust_6="13000.00000" pt_clust_7="13000.00000" pt_clust_8="13000.00000" pt_clust_9="51.98889"></scales>
<clustering>
<clus scale="   51.989">  2  9  1 -1</clus>
<clus scale="   78.344">  5  6 -1 -1</clus>
<clus scale="   90.126">  7  8 -1 -1</clus>
<clus scale="  214.681">  2  5  1 -1</clus>
<clus scale="   51.989">  2  5  1 -1</clus>
</clustering>
</event>
<event>
 9    1  0.1973774E-005  0.1244705E+03  0.7546771E-02  0.1238785E+00
         -2   -1    0    0    0  501 -0.00000000000E+00  0.00000000000E+00  0.23623758536E+03  0.23623758536E+03  0.00000000000E+00 0.  1.
          1   -1    0    0  502    0  0.00000000000E+00 -0.00000000000E+00 -0.15525963768E+03  0.15525963768E+03  0.00000000000E+00 0. -1.
        -24    2    1    2    0    0 -0.78454479198E+02 -0.25397883808E+02  0.18039808114E+03  0.22108878236E+03  0.97655640883E+02 0.  0.
         23    2    1    2    0    0  0.50085152771E+02  0.44096469869E+01 -0.83955621428E+02  0.13187954375E+03  0.88406448716E+02 0.  0.
         13    1    3    3    0    0 -0.10528513446E+02  0.34939057165E+02  0.60550936085E+02  0.70696557000E+02  0.00000000000E+00 0. -1.
        -14    1    3    3    0    0 -0.67925965753E+02 -0.60336940973E+02  0.11984714506E+03  0.15039222536E+03  0.00000000000E+00 0.  1.
        -13    1    4    4    0    0  0.36179455892E+01  0.31967318146E+02 -0.15218700458E+00  0.32171759676E+02  0.00000000000E+00 0.  1.
         13    1    4    4    0    0  0.46467207182E+02 -0.27557671160E+02 -0.83803434423E+02  0.99707784070E+02  0.00000000000E+00 0. -1.
         21    1    1    2  502  501  0.28369326427E+02  0.20988236821E+02 -0.15464512032E+02  0.38528896937E+02  0.00000000000E+00 0. -1.
<scales pt_clust_5="13000.00000" pt_clust_6="13000.00000" pt_clust_7="13000.00000" pt_clust_8="13000.00000" pt_clust_9="35.28916"></scales>
<clustering>
<clus scale="   35.289">  2  9  1 -1</clus>
<clus scale="   88.406">  7  8 -1 -1</clus>
<clus scale="   97.656">  5  6 -1 -1</clus>
<clus scale="  117.354">  2  7  1 -1</clus>
<clus scale="   35.289">  2  5  1 -1</clus>
</clustering>
</event>
<event>
 9    1  0.1973774E-005  0.9152263E+02  0.7546771E-02  0.1306053E+00
         -2   -1    0    0    0  501 -0.00000000000E+00  0.00000000000E+00  0.16565552283E+03  0.16565552283E+03  0.00000000000E+00 0.  1.
          1   -1    0    0  502    0  0.00000000000E+00 -0.00000000000E+00 -0.20261459265E+03  0.20261459265E+03  0.00000000000E+00 0. -1.
        -24    2    1    2    0    0  0.44023565117E+01  0.67681083143E+01  0.12340175297E+03  0.14746552002E+03  0.80329937926E+02 0.  0.
         23    2    1    2    0    0 -0.34676283577E+02  0.31772246059E+02 -0.10347877452E+03  0.14572172798E+03  0.91186868385E+02 0.  0.
         11    1    3    3    0    0 -0.17197140447E+02  0.37404271451E+02  0.81061226740E+02  0.90916135218E+02  0.00000000000E+00 0. -1.
        -12    1    3    3    0    0  0.21599496959E+02 -0.30636163137E+02  0.42340526228E+02  0.56549384805E+02  0.00000000000E+00 0.  1.
        -13    1    4    4    0    0 -0.80445942260E+01  0.45839186701E+02 -0.10572957253E+03  0.11551921503E+03  0.00000000000E+00 0. -1.
         13    1    4    4    0    0 -0.26631689351E+02 -0.14066940642E+02  0.22507980074E+01  0.30202512948E+02  0.00000000000E+00 0.  1.
         21    1    1    2  502  501  0.30273927066E+02 -0.38540354374E+02 -0.56882048262E+02  0.75082867485E+02  0.00000000000E+00 0.  1.
<scales pt_clust_5="13000.00000" pt_clust_6="13000.00000" pt_clust_7="13000.00000" pt_clust_8="13000.00000" pt_clust_9="49.00887"></scales>
<clustering>
<clus scale="   49.009">  2  9  1 -1</clus>
<clus scale="   80.330">  5  6 -1 -1</clus>
<clus scale="   80.711">  1  5  2 -1</clus>
<clus scale="   91.187">  7  8 -1 -1</clus>
<clus scale="   49.009">  2  5  1 -1</clus>
</clustering>
</event>
<event>
 9    1  0.1973774E-005  0.1387028E+03  0.7546771E-02  0.1218664E+00
         -2   -1    0    0    0  501 -0.00000000000E+00  0.00000000000E+00  0.58305053874E+02  0.58305053874E+02  0.00000000000E+00 0.  1.
          1   -1    0    0  502    0  0.00000000000E+00 -0.00000000000E+00 -0.43511603763E+03  0.43511603763E+03  0.00000000000E+00 0. -1.
         23    2    1    2    0    0 -0.63856313868E+02 -0.79436666903E+02 -0.81507380829E+02  0.16216092536E+03  0.96254349074E+02 0.  0.
        -24    2    1    2    0    0  0.42674402304E+02  0.87405132170E+02 -0.23655343676E+03  0.26830183198E+03  0.81040624726E+02 0.  0.
         11    1    4    4    0    0 -0.18288883123E+01  0.76469299520E+02 -0.17952921076E+03  0.19514516678E+03  0.00000000000E+00 0. -1.
        -12    1    4    4    0    0  0.44503290616E+02  0.10935832650E+02 -0.57024226002E+02  0.73156665195E+02  0.00000000000E+00 0.  1.
        -13    1    3    3    0    0 -0.78184586063E+02 -0.32790465747E+02 -0.26945097469E+02  0.88961128698E+02  0.00000000000E+00 0.  1.
         13    1    3    3    0    0  0.14328272194E+02 -0.46646201156E+02 -0.54562283360E+02  0.73199796665E+02  0.00000000000E+00 0. -1.
         21    1    1    2  502  501  0.21181911565E+02 -0.79684652673E+01 -0.58750166161E+02  0.62958334160E+02  0.00000000000E+00 0.  1.
<scales pt_clust_5="13000.00000" pt_clust_6="13000.00000" pt_clust_7="13000.00000" pt_clust_8="13000.00000" pt_clust_9="22.63117"></scales>
<clustering>
<clus scale="   22.631">  2  9  1 -1</clus>
<clus scale="   81.041">  5  6 -1 -1</clus>
<clus scale="   96.254">  7  8 -1 -1</clus>
<clus scale="  128.612">  2  5  1 -1</clus>
<clus scale="   22.631">  2  5  1 -1</clus>
</clustering>
</event>
<event>
 9    1  0.1973774E-005  0.9945007E+02  0.7546771E-02  0.1291756E+00
          1   -1    0    0  502    0  0.00000000000E+00  0.00000000000E+00  0.29406713849E+03  0.29406713849E+03  0.00000000000E+00 0. -1.
         -2   -1    0    0    0  501 -0.00000000000E+00 -0.00000000000E+00 -0.58262659926E+02  0.58262659926E+02  0.00000000000E+00 0.  1.
        -24    2    1    2    0    0  0.54413993961E+02  0.24671259489E+02  0.10440569126E+02  0.89504654694E+02  0.65821910825E+02 0.  0.
         23    2    1    2    0    0 -0.20840694895E+02  0.15569214832E+01  0.12270121396E+03  0.15167338742E+03  0.86674505908E+02 0.  0.
         13    1    3    3    0    0  0.40710153704E+02  0.31943391549E+02  0.33549911129E+02  0.61670847367E+02  0.00000000000E+00 0. -1.
        -14    1    3    3    0    0  0.13703840257E+02 -0.72721320598E+01 -0.23109342003E+02  0.27833807327E+02  0.00000000000E+00 0.  1.
        -13    1    4    4    0    0  0.13862459424E+02  0.35770900201E+02  0.38273079590E+02  0.54189977890E+02  0.00000000000E+00 0.  1.
         13    1    4    4    0    0 -0.34703154318E+02 -0.34213978718E+02  0.84428134371E+02  0.97483409526E+02  0.00000000000E+00 0. -1.
         21    1    1    2  502  501 -0.33573299067E+02 -0.26228180972E+02  0.10266269547E+03  0.11115175630E+03  0.00000000000E+00 0. -1.
<scales pt_clust_5="13000.00000" pt_clust_6="13000.00000" pt_clust_7="13000.00000" pt_clust_8="13000.00000" pt_clust_9="42.60380"></scales>
<clustering>
<clus scale="   42.604">  1  9  2 -1</clus>
<clus scale="   65.822">  5  6 -1 -1</clus>
<clus scale="   81.917">  2  5  1 -1</clus>
<clus scale="   86.675">  7  8 -1 -1</clus>
<clus scale="   42.604">  1  5  2 -1</clus>
</clustering>
</event>
<event>
 9    1  0.1973774E-005  0.1916646E+03  0.7546771E-02  0.1158558E+00
          3   -1    0    0  502    0  0.00000000000E+00  0.00000000000E+00  0.19909602989E+03  0.19909602989E+03  0.00000000000E+00 0. -1.
         -4   -1    0    0    0  501 -0.00000000000E+00 -0.00000000000E+00 -0.62607774790E+03  0.62607774790E+03  0.00000000000E+00 0.  1.
        -24    2    1    2    0    0  0.12439883854E+03 -0.10602723383E+03 -0.50843092882E+03  0.53979616908E+03  0.78492352643E+02 0.  0.
         23    2    1    2    0    0 -0.13217223784E+03  0.15229036549E+03  0.47308731636E+02  0.22735799646E+03  0.93763994088E+02 0.  0.
         11    1    3    3    0    0  0.40230766378E+02  0.64556448454E+01 -0.10734685094E+03  0.11481958161E+03  0.00000000000E+00 0. -1.
        -12    1    3    3    0    0  0.84168072164E+02 -0.11248287868E+03 -0.40108407788E+03  0.42497658747E+03  0.00000000000E+00 0.  1.
        -13    1    4    4    0    0 -0.63533819860E+02  0.94086740920E+02  0.71501508083E+02  0.13416902303E+03  0.00000000000E+00 0. -1.
         13    1    4    4    0    0 -0.68638417984E+02  0.58203624565E+02 -0.24192776447E+02  0.93188973426E+02  0.00000000000E+00 0.  1.
         21    1    1    2  502  501  0.77733993019E+01 -0.46263131651E+02  0.34140479187E+02  0.58019612253E+02  0.00000000000E+00 0. -1.
<scales pt_clust_5="13000.00000" pt_clust_6="13000.00000" pt_clust_7="13000.00000" pt_clust_8="13000.00000" pt_clust_9="46.91165"></scales>
<clustering>
<clus scale="   46.912">  1  9  2 -1</clus>
<clus scale="   78.492">  5  6 -1 -1</clus>
<clus scale="   93.764">  7  8 -1 -1</clus>
<clus scale="  184.675">  2  5  1 -1</clus>
<clus scale="   46.912">  1  5  2 -1</clus>
</clustering>
</event>
<event>
 9    1  0.1973774E-005  0.9289825E+02  0.7546771E-02  0.1301045E+00
          1   -1    0    0  502    0  0.00000000000E+00  0.00000000000E+00  0.65814028367E+03  0.65814028367E+03  0.00000000000E+00 0. -1.
         -2   -1    0    0    0  501 -0.00000000000E+00 -0.00000000000E+00 -0.27392151053E+02  0.27392151053E+02  0.00000000000E+00 0.  1.
         23    2    1    2    0    0 -0.59701964576E+01 -0.78604613091E+01  0.83284751173E+02  0.12508670770E+03  0.92805735635E+02 0.  0.
        -24    2    1    2    0    0 -0.44677381975E+01 -0.22722639074E+02  0.39897008146E+03  0.40847685966E+03  0.84498165454E+02 0.  0.
         11    1    4    4    0    0  0.27861939709E+02 -0.14900606941E+01  0.49090010145E+02  0.56465361606E+02  0.00000000000E+00 0. -1.
        -12    1    4    4    0    0 -0.32329677906E+02 -0.21232578380E+02  0.34988007132E+03  0.35201149805E+03  0.00000000000E+00 0.  1.
        -11    1    3    3    0    0 -0.31612842043E+02  0.25178207239E+01  0.91000129233E+02  0.96367705813E+02  0.00000000000E+00 0. -1.
         11    1    3    3    0    0  0.25642645585E+02 -0.10378282033E+02 -0.77153780602E+01  0.28719001883E+02  0.00000000000E+00 0.  1.
         21    1    1    2  502  501  0.10437934655E+02  0.30583100383E+02  0.14849329998E+03  0.15196886737E+03  0.00000000000E+00 0.  1.
<scales pt_clust_5="13000.00000" pt_clust_6="13000.00000" pt_clust_7="13000.00000" pt_clust_8="13000.00000" pt_clust_9="32.31527"></scales>
<clustering>
<clus scale="   32.315">  1  9  2 -1</clus>
<clus scale="   84.498">  5  6 -1 -1</clus>
<clus scale="   84.600">  1  5  2 -1</clus>
<clus scale="   92.806">  7  8 -1 -1</clus>
<clus scale="   32.315">  1  5  2 -1</clus>
</clustering>
</event>
<event>
 9    1  0.1973774E-005  0.1174688E+03  0.7546771E-02  0.1251109E+00
          1   -1    0    0  502    0  0.00000000000E+00  0.00000000000E+00  0.47397743328E+03  0.47397743328E+03  0.00000000000E+00 0. -1.
         -2   -1    0    0    0  501 -0.00000000000E+00 -0.00000000000E+00 -0.47661067605E+02  0.47661067605E+02  0.00000000000E+00 0.  1.
        -24    2    1    2    0    0 -0.11722333611E+01  0.77633916098E+02  0.47897684850E+02  0.12163096925E+03  0.80445667422E+02 0.  0.
         23    2    1    2    0    0 -0.51453494937E+01 -0.57157120578E+02  0.31944685679E+03  0.33726291404E+03  0.91687337268E+02 0.  0.
         11    1    3    3    0    0 -0.16112812687E+02  0.42295045768E+02  0.65340205330E+02  0.79484816549E+02  0.00000000000E+00 0. -1.
        -12    1    3    3    0    0  0.14940579326E+02  0.35338870330E+02 -0.17442520480E+02  0.42146152701E+02  0.00000000000E+00 0.  1.
        -13    1    4    4    0    0  0.33372358913E+02 -0.58140027156E+02  0.16536116980E+03  0.17843288255E+03  0.00000000000E+00 0.  1.
         13    1    4    4    0    0 -0.38517708406E+02  0.98290657780E+00  0.15408568699E+03  0.15883003149E+03  0.00000000000E+00 0. -1.
         21    1    1    2  502  501  0.63175828547E+01 -0.20476795520E+02  0.58971824034E+02  0.62744617600E+02  0.00000000000E+00 0. -1.
<scales pt_clust_5="13000.00000" pt_clust_6="13000.00000" pt_clust_7="13000.00000" pt_clust_8="13000.00000" pt_clust_9="21.42921"></scales>
<clustering>
<clus scale="   21.429">  1  9  2 -1</clus>
<clus scale="   80.446">  5  6 -1 -1</clus>
<clus scale="   91.687">  7  8 -1 -1</clus>
<clus scale="  108.921">  2  5  1 -1</clus>
<clus scale="   21.429">  1  5  2 -1</clus>
</clustering>
</event>
<event>
 9    1  0.1973774E-005  0.1223012E+03  0.7546771E-02  0.1244302E+00
         -2   -1    0    0    0  501 -0.00000000000E+00  0.00000000000E+00  0.24982344475E+03  0.24982344475E+03  0.00000000000E+00 0.  1.
          1   -1    0    0  502    0  0.00000000000E+00 -0.00000000000E+00 -0.23445878856E+03  0.23445878856E+03  0.00000000000E+00 0. -1.
        -24    2    1    2    0    0 -0.66395792718E+02 -0.42447089257E+02  0.17367381301E+03  0.20714489762E+03  0.80847131106E+02 0.  0.
         23    2    1    2    0    0  0.76498634520E+02 -0.11079710302E+02 -0.15606381244E+02  0.12439157359E+03  0.96202408393E+02 0.  0.
         13    1    3    3    0    0 -0.28449022544E+02  0.14251847677E+02  0.16589313278E+02  0.35884082278E+02  0.00000000000E+00 0. -1.
        -14    1    3    3    0    0 -0.37946770174E+02 -0.56698936934E+02  0.15708449973E+03  0.17126081534E+03  0.00000000000E+00 0.  1.
        -11    1    4    4    0    0  0.45418079021E+02 -0.36858879770E+02  0.28095459509E+02  0.64890166935E+02  0.00000000000E+00 0.  1.
         11    1    4    4    0    0  0.31080555498E+02  0.25779169467E+02 -0.43701840753E+02  0.59501406653E+02  0.00000000000E+00 0. -1.
         21    1    1    2  502  501 -0.10102841802E+02  0.53526799560E+02 -0.14270277558E+03  0.15274576211E+03  0.00000000000E+00 0. -1.
<scales pt_clust_5="13000.00000" pt_clust_6="13000.00000" pt_clust_7="13000.00000" pt_clust_8="13000.00000" pt_clust_9="54.47188"></scales>
<clustering>
<clus scale="   54.472">  2  9  1 -1</clus>
<clus scale="   80.847">  5  6 -1 -1</clus>
<clus scale="   96.202">  7  8 -1 -1</clus>
<clus scale="  110.630">  1  5  2 -1</clus>
<clus scale="   54.472">  2  5  1 -1</clus>
</clustering>
</event>
<event>
 9    1  0.1973774E-005  0.1178710E+03  0.7546771E-02  0.1248905E+00
         -2   -1    0    0    0  501 -0.00000000000E+00  0.00000000000E+00  0.73034071597E+02  0.73034071597E+02  0.00000000000E+00 0.  1.
          1   -1    0    0  502    0  0.00000000000E+00 -0.00000000000E+00 -0.42010694249E+03  0.42010694249E+03  0.00000000000E+00 0. -1.
        -24    2    1    2    0    0  0.43856178932E+02 -0.68230567118E+02 -0.14341874026E+02  0.11702744262E+03  0.83132173403E+02 0.  0.
         23    2    1    2    0    0 -0.66248043455E+02  0.18755083087E+02 -0.27179066634E+03  0.29448671926E+03  0.90065004903E+02 0.  0.
         11    1    3    3    0    0  0.16339792465E+02 -0.73601167850E+02 -0.34082677293E+02  0.82739045306E+02  0.00000000000E+00 0. -1.
        -12    1    3    3    0    0  0.27516386467E+02  0.53706007318E+01  0.19740803267E+02  0.34288397309E+02  0.00000000000E+00 0.  1.
        -13    1    4    4    0    0 -0.14170990671E+02 -0.31467555474E+02 -0.46792005481E+02  0.58142203269E+02  0.00000000000E+00 0.  1.
         13    1    4    4    0    0 -0.52077052784E+02  0.50222638561E+02 -0.22499866086E+03  0.23634451600E+03  0.00000000000E+00 0. -1.
         21    1    1    2  502  501  0.22391864524E+02  0.49475484031E+02 -0.60940330519E+02  0.81626852204E+02  0.00000000000E+00 0. -1.
<scales pt_clust_5="13000.00000" pt_clust_6="13000.00000" pt_clust_7="13000.00000" pt_clust_8="13000.00000" pt_clust_9="54.30671"></scales>
<clustering>
<clus scale="   54.307">  2  9  1 -1</clus>
<clus scale="   83.132">  5  6 -1 -1</clus>
<clus scale="   90.065">  7  8 -1 -1</clus>
<clus scale="  112.662">  1  5  2 -1</clus>
<clus scale="   54.307">  2  5  1 -1</clus>
</clustering>
</event>
<event>
 9    1  0.1973774E-005  0.9239579E+02  0.7546771E-02  0.1303972E+00
         -4   -1    0    0    0  501 -0.00000000000E+00  0.00000000000E+00  0.12563289337E+03  0.12563289337E+03  0.00000000000E+00 0.  1.
          3   -1    0    0  502    0  0.00000000000E+00 -0.00000000000E+00 -0.13478463135E+03  0.13478463135E+03  0.00000000000E+00 0. -1.
        -24    2    1    2    0    0  0.10014883772E+02  0.12119458414E+02  0.67239897549E+02  0.10634137348E+03  0.80870913942E+02 0.  0.
         23    2    1    2    0    0  0.25464356878E+02  0.11018790265E+00 -0.46262964698E+02  0.10595050765E+03  0.91852068867E+02 0.  0.
         13    1    3    3    0    0 -0.29611048075E+02  0.96519417485E+01  0.36263766023E+01  0.31354820281E+02  0.00000000000E+00 0. -1.
        -14    1    3    3    0    0  0.39625931847E+02  0.24675166658E+01  0.63613520946E+02  0.74986553198E+02  0.00000000000E+00 0.  1.
        -13    1    4    4    0    0 -0.15688976326E+02 -0.29960023448E+02 -0.43236335098E+02  0.54891963491E+02  0.00000000000E+00 0. -1.
         13    1    4    4    0    0  0.41153333204E+02  0.30070211351E+02 -0.30266296000E+01  0.51058544155E+02  0.00000000000E+00 0.  1.
         21    1    1    2  502  501 -0.35479240650E+02 -0.12229646317E+02 -0.30128670831E+02  0.48125643603E+02  0.00000000000E+00 0. -1.
<scales pt_clust_5="13000.00000" pt_clust_6="13000.00000" pt_clust_7="13000.00000" pt_clust_8="13000.00000" pt_clust_9="37.52787"></scales>
<clustering>
<clus scale="   37.528">  2  9  1 -1</clus>
<clus scale="   80.871">  5  6 -1 -1</clus>
<clus scale="   81.488">  1  5  2 -1</clus>
<clus scale="   91.852">  7  8 -1 -1</clus>
<clus scale="   37.528">  2  5  1 -1</clus>
</clustering>
</event>
<event>
 9    1  0.1973774E-005  0.2597832E+03  0.7546771E-02  0.1107733E+00
         -2   -1    0    0    0  501 -0.00000000000E+00  0.00000000000E+00  0.48266150110E+03  0.48266150110E+03  0.00000000000E+00 0.  1.
          1   -1    0    0  502    0  0.00000000000E+00 -0.00000000000E+00 -0.14668115252E+04  0.14668115252E+04  0.00000000000E+00 0. -1.
         23    2    1    2    0    0  0.11022524779E+03 -0.22085340230E+03  0.42093829177E+03  0.49620779117E+03  0.90040524144E+02 0.  0.
        -24    2    1    2    0    0  0.94636305881E+01  0.21290708723E+03 -0.65227824929E+03  0.69095849380E+03  0.80856277252E+02 0.  0.
         13    1    4    4    0    0 -0.35923683281E+02  0.99606117215E+02 -0.30252916497E+03  0.32052423507E+03  0.00000000000E+00 0. -1.
        -14    1    4    4    0    0  0.45387313869E+02  0.11330097001E+03 -0.34974908432E+03  0.37043425874E+03  0.00000000000E+00 0.  1.
        -11    1    3    3    0    0  0.40214017449E+02 -0.93648198435E+02  0.26099236372E+03  0.28018594931E+03  0.00000000000E+00 0.  1.
         11    1    3    3    0    0  0.70011230343E+02 -0.12720520386E+03  0.15994592805E+03  0.21602184187E+03  0.00000000000E+00 0. -1.
         21    1    1    2  502  501 -0.11968887838E+03  0.79463150717E+01 -0.75281006656E+03  0.76230674131E+03  0.00000000000E+00 0. -1.
<scales pt_clust_5="13000.00000" pt_clust_6="13000.00000" pt_clust_7="13000.00000" pt_clust_8="13000.00000" pt_clust_9="119.95237"></scales>
<clustering>
<clus scale="   80.856">  5  6 -1 -1</clus>
<clus scale="   90.041">  7  8 -1 -1</clus>
<clus scale="  119.952">  2  9  1 -1</clus>
<clus scale="  256.745">  2  5  1 -1</clus>
<clus scale="  119.952">  2  5  1 -1</clus>
</clustering>
</event>
<event>
 9    1  0.1973774E-005  0.3401635E+03  0.7546771E-02  0.1099348E+00
          1   -1    0    0  502    0  0.00000000000E+00  0.00000000000E+00  0.18261528892E+04  0.18261528892E+04  0.00000000000E+00 0. -1.
         -2   -1    0    0    0  501 -0.00000000000E+00 -0.00000000000E+00 -0.20112445936E+03  0.20112445936E+03  0.00000000000E+00 0.  1.
        -24    2    1    2    0    0 -0.61355222842E+02 -0.10070738631E+03 -0.99484756720E+02  0.17334403942E+03  0.79022137129E+02 0.  0.
         23    2    1    2    0    0  0.45860781481E+00 -0.26413228735E+03  0.49999668905E+03  0.57477067762E+03  0.10294934313E+03 0.  0.
         13    1    3    3    0    0 -0.17784459810E+02 -0.92426322944E+02 -0.84621530381E+02  0.12656901512E+03  0.00000000000E+00 0. -1.
        -14    1    3    3    0    0 -0.43570763032E+02 -0.82810633666E+01 -0.14863226339E+02  0.46775024307E+02  0.00000000000E+00 0.  1.
        -13    1    4    4    0    0  0.15078529279E+02 -0.24614025874E+03  0.38317124044E+03  0.45566719052E+03  0.00000000000E+00 0.  1.
         13    1    4    4    0    0 -0.14619921464E+02 -0.17992028617E+02  0.11682544860E+03  0.11910348710E+03  0.00000000000E+00 0. -1.
         21    1    1    2  502  501  0.60896615027E+02  0.36483967366E+03  0.12245164975E+04  0.12791626315E+04  0.00000000000E+00 0. -1.
<scales pt_clust_5="13000.00000" pt_clust_6="13000.00000" pt_clust_7="13000.00000" pt_clust_8="13000.00000" pt_clust_9="324.21082"></scales>
<clustering>
<clus scale="   79.022">  5  6 -1 -1</clus>
<clus scale="  102.949">  7  8 -1 -1</clus>
<clus scale="  141.954">  2  5  1 -1</clus>
<clus scale="  324.211">  1  9  2 -1</clus>
<clus scale="  324.211">  1  5  2 -1</clus>
</clustering>
</event>
<event>
 9    1  0.1973774E-005  0.1309834E+03  0.7546771E-02  0.1226923E+00
         -2   -1    0    0    0  501 -0.00000000000E+00  0.00000000000E+00  0.77836491896E+02  0.77836491896E+02  0.00000000000E+00 0.  1.
          1   -1    0    0  502    0  0.00000000000E+00 -0.00000000000E+00 -0.51837084886E+03  0.51837084886E+03  0.00000000000E+00 0. -1.
        -24    2    1    2    0    0  0.26913693365E+02  0.99190872509E+02  0.13871715990E+01  0.13175568526E+03  0.82428516150E+02 0.  0.
         23    2    1    2    0    0 -0.16608847221E+02 -0.72604553381E+02 -0.36722453340E+03  0.38449752298E+03  0.86239273370E+02 0.  0.
         13    1    3    3    0    0 -0.22357748586E+02  0.61780592583E+02  0.17173188342E+02  0.67908975398E+02  0.00000000000E+00 0. -1.
        -14    1    3    3    0    0  0.49271441952E+02  0.37410279926E+02 -0.15786016743E+02  0.63846709866E+02  0.00000000000E+00 0.  1.
        -13    1    4    4    0    0  0.22322841272E+02 -0.68929292170E+02 -0.27368164255E+03  0.28310986919E+03  0.00000000000E+00 0.  1.
         13    1    4    4    0    0 -0.38931688493E+02 -0.36752612114E+01 -0.93542890846E+02  0.10138765379E+03  0.00000000000E+00 0. -1.
         21    1    1    2  502  501 -0.10304846145E+02 -0.26586319127E+02 -0.74696995162E+02  0.79954132508E+02  0.00000000000E+00 0. -1.
<scales pt_clust_5="13000.00000" pt_clust_6="13000.00000" pt_clust_7="13000.00000" pt_clust_8="13000.00000" pt_clust_9="28.51354"></scales>
<clustering>
<clus scale="   28.514">  2  9  1 -1</clus>
<clus scale="   82.429">  5  6 -1 -1</clus>
<clus scale="   86.239">  7  8 -1 -1</clus>
<clus scale="  128.506">  1  5  2 -1</clus>
<clus scale="   28.514">  2  5  1 -1</clus>
</clustering>
</event>
<event>
 9    1  0.1973774E-005  0.1249136E+03  0.7546771E-02  0.1238163E+00
          1   -1    0    0  502    0  0.00000000000E+00  0.00000000000E+00  0.35061876720E+03  0.35061876720E+03  0.00000000000E+00 0. -1.
         -2   -1    0    0    0  501 -0.00000000000E+00 -0.00000000000E+00 -0.17107969490E+03  0.17107969490E+03  0.00000000000E+00 0.  1.
        -24    2    1    2    0    0  0.84555986969E+02  0.11638401120E+02 -0.11591667534E+03  0.16488163599E+03  0.80399694973E+02 0.  0.
         23    2    1    2    0    0 -0.78808652697E+02 -0.71273439885E+02  0.19626610554E+03  0.24093777366E+03  0.90774002980E+02 0.  0.
         13    1    3    3    0    0  0.69062277134E+01  0.32036065507E+02 -0.15321275846E+02  0.36176608021E+02  0.00000000000E+00 0. -1.
        -14    1    3    3    0    0  0.77649759255E+02 -0.20397664387E+02 -0.10059539949E+03  0.12870502797E+03  0.00000000000E+00 0.  1.
        -11    1    4    4    0    0 -0.24098911939E+02 -0.37892985153E+02  0.12943159637E+02  0.46735011093E+02  0.00000000000E+00 0.  1.
         11    1    4    4    0    0 -0.54709740758E+02 -0.33380454732E+02  0.18332294591E+03  0.19420276257E+03  0.00000000000E+00 0. -1.
         21    1    1    2  502  501 -0.57473342714E+01  0.59635038765E+02  0.99189642091E+02  0.11587905246E+03  0.00000000000E+00 0.  1.
<scales pt_clust_5="13000.00000" pt_clust_6="13000.00000" pt_clust_7="13000.00000" pt_clust_8="13000.00000" pt_clust_9="59.91135"></scales>
<clustering>
<clus scale="   59.911">  1  9  2 -1</clus>
<clus scale="   80.400">  5  6 -1 -1</clus>
<clus scale="   90.774">  7  8 -1 -1</clus>
<clus scale="  117.591">  2  5  1 -1</clus>
<clus scale="   59.911">  1  5  2 -1</clus>
</clustering>
</event>
<event>
 9    1  0.1973774E-005  0.9087258E+02  0.7546771E-02  0.1306981E+00
          3   -1    0    0  502    0  0.00000000000E+00  0.00000000000E+00  0.10222848264E+03  0.10222848264E+03  0.00000000000E+00 0. -1.
         -4   -1    0    0    0  501 -0.00000000000E+00 -0.00000000000E+00 -0.14130725762E+03  0.14130725762E+03  0.00000000000E+00 0.  1.
        -24    2    1    2    0    0 -0.16046252226E+02 -0.91125964973E+01 -0.83258694607E+02  0.11689964371E+03  0.79956205807E+02 0.  0.
         23    2    1    2    0    0 -0.11175363531E+02  0.69155653068E+01  0.28789860012E+02  0.95288094289E+02  0.89879091451E+02 0.  0.
         13    1    3    3    0    0 -0.58405549236E+01 -0.36087153071E+02 -0.96003318722E+01  0.37796310278E+02  0.00000000000E+00 0. -1.
        -14    1    3    3    0    0 -0.10205697302E+02  0.26974556573E+02 -0.73658362735E+02  0.79103333435E+02  0.00000000000E+00 0.  1.
        -13    1    4    4    0    0  0.26080429662E+02 -0.16691777669E+01 -0.20282098479E+02  0.33080787241E+02  0.00000000000E+00 0.  1.
         13    1    4    4    0    0 -0.37255793192E+02  0.85847430737E+01  0.49071958491E+02  0.62207307048E+02  0.00000000000E+00 0. -1.
         21    1    1    2  502  501  0.27221615757E+02  0.21970311905E+01  0.15390059613E+02  0.31348002255E+02  0.00000000000E+00 0. -1.
<scales pt_clust_5="13000.00000" pt_clust_6="13000.00000" pt_clust_7="13000.00000" pt_clust_8="13000.00000" pt_clust_9="27.31013"></scales>
<clustering>
<clus scale="   27.310">  1  9  2 -1</clus>
<clus scale="   79.956">  5  6 -1 -1</clus>
<clus scale="   81.071">  2  5  1 -1</clus>
<clus scale="   89.879">  7  8 -1 -1</clus>
<clus scale="   27.310">  1  5  2 -1</clus>
</clustering>
</event>
<event>
 9    1  0.1973774E-005  0.1139126E+03  0.7546771E-02  0.1258652E+00
          1   -1    0    0  502    0  0.00000000000E+00  0.00000000000E+00  0.19264752336E+03  0.19264752336E+03  0.00000000000E+00 0. -1.
         -2   -1    0    0    0  501 -0.00000000000E+00 -0.00000000000E+00 -0.20917981890E+03  0.20917981890E+03  0.00000000000E+00 0.  1.
        -24    2    1    2    0    0 -0.57484015147E+02 -0.52792404998E+02 -0.10076877517E+03  0.14948835052E+03  0.78108711871E+02 0.  0.
         23    2    1    2    0    0  0.36201704431E+02  0.36726189202E+02 -0.49016022043E+02  0.11644458698E+03  0.92181316132E+02 0.  0.
         13    1    3    3    0    0 -0.46222041914E+02 -0.49772757549E+01 -0.11966686008E+02  0.48004708171E+02  0.00000000000E+00 0. -1.
        -14    1    3    3    0    0 -0.11261973233E+02 -0.47815129243E+02 -0.88802089160E+02  0.10148364235E+03  0.00000000000E+00 0.  1.
        -11    1    4    4    0    0  0.10184374135E+02  0.27730535086E+02 -0.73743704159E+02  0.79440782698E+02  0.00000000000E+00 0.  1.
         11    1    4    4    0    0  0.26017330296E+02  0.89956541164E+01  0.24727682116E+02  0.37003804285E+02  0.00000000000E+00 0. -1.
         21    1    1    2  502  501  0.21282310717E+02  0.16066215796E+02  0.13325250168E+03  0.13589440475E+03  0.00000000000E+00 0.  1.
<scales pt_clust_5="13000.00000" pt_clust_6="13000.00000" pt_clust_7="13000.00000" pt_clust_8="13000.00000" pt_clust_9="26.66571"></scales>
<clustering>
<clus scale="   26.666">  1  9  2 -1</clus>
<clus scale="   78.109">  5  6 -1 -1</clus>
<clus scale="   92.181">  7  8 -1 -1</clus>
<clus scale="  102.857">  2  5  1 -1</clus>
<clus scale="   26.666">  1  5  2 -1</clus>
</clustering>
</event>
<event>
 9    1  0.1973774E-005  0.9357399E+02  0.7546771E-02  0.1304187E+00
          1   -1    0    0  502    0  0.00000000000E+00  0.00000000000E+00  0.29210523104E+03  0.29210523104E+03  0.00000000000E+00 0. -1.
         -2   -1    0    0    0  501 -0.00000000000E+00 -0.00000000000E+00 -0.82172115542E+02  0.82172115542E+02  0.00000000000E+00 0.  1.
        -24    2    1    2    0    0 -0.44417871964E+02  0.52331662046E+01  0.25257864623E+02  0.93292712241E+02  0.77879631827E+02 0.  0.
         23    2    1    2    0    0 -0.23362429307E+02  0.38370030648E+01  0.18935400422E+03  0.21244028414E+03  0.93356358748E+02 0.  0.
         11    1    3    3    0    0 -0.66616872451E+01  0.37751830392E+02  0.19852935405E+02  0.43170798222E+02  0.00000000000E+00 0. -1.
        -12    1    3    3    0    0 -0.37756184719E+02 -0.32518664188E+02  0.54049292185E+01  0.50121914019E+02  0.00000000000E+00 0.  1.
        -13    1    4    4    0    0  0.21956605804E+02  0.17764102831E+02  0.15456440100E+02  0.32195611943E+02  0.00000000000E+00 0.  1.
         13    1    4    4    0    0 -0.45319035111E+02 -0.13927099766E+02  0.17389756412E+03  0.18024467220E+03  0.00000000000E+00 0. -1.
         21    1    1    2  502  501  0.67780301271E+02 -0.90701692693E+01 -0.46787533425E+01  0.68544350196E+02  0.00000000000E+00 0.  1.
<scales pt_clust_5="13000.00000" pt_clust_6="13000.00000" pt_clust_7="13000.00000" pt_clust_8="13000.00000" pt_clust_9="68.38448"></scales>
<clustering>
<clus scale="   68.384">  2  9  1 -1</clus>
<clus scale="   77.880">  5  6 -1 -1</clus>
<clus scale="   78.140">  2  5  1 -1</clus>
<clus scale="   93.356">  7  8 -1 -1</clus>
<clus scale="   93.574">  1  5  2 -1</clus>
</clustering>
</event>
<event>
 9    1  0.1973774E-005  0.1128912E+03  0.7546771E-02  0.1266317E+00
         -2   -1    0    0    0  501 -0.00000000000E+00  0.00000000000E+00  0.12800435597E+03  0.12800435597E+03  0.00000000000E+00 0.  1.
          1   -1    0    0  502    0  0.00000000000E+00 -0.00000000000E+00 -0.15336196181E+03  0.15336196181E+03  0.00000000000E+00 0. -1.
         23    2    1    2    0    0 -0.32555498529E+02 -0.88271664173E+01  0.40493773502E+02  0.11689589707E+03  0.10434139019E+03 0.  0.
        -24    2    1    2    0    0  0.65331642069E+02 -0.22047771482E+02 -0.46152768845E+02  0.11532194535E+03  0.80092105253E+02 0.  0.
         13    1    4    4    0    0  0.53824728625E+02 -0.15573936499E+02 -0.69029567378E+02  0.88908548982E+02  0.00000000000E+00 0. -1.
        -14    1    4    4    0    0  0.11506913444E+02 -0.64738349825E+01  0.22876798533E+02  0.26413396365E+02  0.00000000000E+00 0.  1.
        -11    1    3    3    0    0 -0.43530141868E+02  0.40294679243E+02  0.22609907443E+02  0.63480251582E+02  0.00000000000E+00 0.  1.
         11    1    3    3    0    0  0.10974643338E+02 -0.49121845661E+02  0.17883866059E+02  0.53415645486E+02  0.00000000000E+00 0. -1.
         21    1    1    2  502  501 -0.32776143540E+02  0.30874937899E+02 -0.19698610500E+02  0.49148475370E+02  0.00000000000E+00 0.  1.
<scales pt_clust_5="13000.00000" pt_clust_6="13000.00000" pt_clust_7="13000.00000" pt_clust_8="13000.00000" pt_clust_9="45.02818"></scales>
<clustering>
<clus scale="   45.028">  2  9  1 -1</clus>
<clus scale="   80.092">  5  6 -1 -1</clus>
<clus scale="   90.951">  2  5  1 -1</clus>
<clus scale="  104.341">  7  8 -1 -1</clus>
<clus scale="   45.028">  2  5  1 -1</clus>
</clustering>
</event>
<event>
 9    1  0.1973774E-005  0.9018527E+02  0.7546771E-02  0.1308313E+00
          1   -1    0    0  502    0  0.00000000000E+00  0.00000000000E+00  0.90373902469E+03  0.90373902469E+03  0.00000000000E+00 0. -1.
         -2   -1    0    0    0  501 -0.00000000000E+00 -0.00000000000E+00 -0.22017440030E+02  0.22017440030E+02  0.00000000000E+00 0.  1.
        -24    2    1    2    0    0 -0.54645524196E+01 -0.28937930753E+01  0.88769265130E+02  0.11971262146E+03  0.80080546541E+02 0.  0.
         23    2    1    2    0    0  0.41942771361E+02 -0.18100572988E+02  0.48983500405E+03  0.50001846718E+03  0.89405310300E+02 0.  0.
         13    1    3    3    0    0  0.18607186977E+02  0.18458363316E+02  0.99727908072E+00  0.26228479732E+02  0.00000000000E+00 0. -1.
        -14    1    3    3    0    0 -0.24071739396E+02 -0.21352156391E+02  0.87771986049E+02  0.93484141731E+02  0.00000000000E+00 0.  1.
        -11    1    4    4    0    0  0.69984029968E+02 -0.17209215610E+02  0.33535217628E+03  0.34300875162E+03  0.00000000000E+00 0.  1.
         11    1    4    4    0    0 -0.28041258607E+02 -0.89135737860E+00  0.15448282777E+03  0.15700971556E+03  0.00000000000E+00 0. -1.
         21    1    1    2  502  501 -0.36478218942E+02  0.20994366064E+02  0.30311731547E+03  0.30602537608E+03  0.00000000000E+00 0. -1.
<scales pt_clust_5="13000.00000" pt_clust_6="13000.00000" pt_clust_7="13000.00000" pt_clust_8="13000.00000" pt_clust_9="42.08829"></scales>
<clustering>
<clus scale="   42.088">  1  9  2 -1</clus>
<clus scale="   80.081">  5  6 -1 -1</clus>
<clus scale="   80.950">  2  5  1 -1</clus>
<clus scale="   89.405">  7  8 -1 -1</clus>
<clus scale="   42.088">  1  5  2 -1</clus>
</clustering>
</event>
<event>
 9    1  0.1973774E-005  0.1056063E+03  0.7546771E-02  0.1275613E+00
          1   -1    0    0  502    0  0.00000000000E+00  0.00000000000E+00  0.32833834900E+03  0.32833834900E+03  0.00000000000E+00 0. -1.
         -2   -1    0    0    0  501 -0.00000000000E+00 -0.00000000000E+00 -0.84614024292E+02  0.84614024292E+02  0.00000000000E+00 0.  1.
         23    2    1    2    0    0  0.18132342550E+02 -0.51103956135E+02 -0.32169893370E+02  0.11307208249E+03  0.93861587559E+02 0.  0.
        -24    2    1    2    0    0 -0.46011766832E+01  0.23387259170E+02  0.16229963868E+03  0.18217287298E+03  0.79231611236E+02 0.  0.
         11    1    4    4    0    0 -0.19973782992E+02  0.48949905817E+02  0.10094405831E+03  0.11395063929E+03  0.00000000000E+00 0. -1.
        -12    1    4    4    0    0  0.15372606309E+02 -0.25562646647E+02  0.61355580362E+02  0.68222233692E+02  0.00000000000E+00 0.  1.
        -13    1    3    3    0    0 -0.32230505717E+02 -0.43323839388E+02 -0.23947697484E+01  0.54050860125E+02  0.00000000000E+00 0. -1.
         13    1    3    3    0    0  0.50362848267E+02 -0.77801167468E+01 -0.29775123622E+02  0.59021222360E+02  0.00000000000E+00 0.  1.
         21    1    1    2  502  501 -0.13531165867E+02  0.27716696965E+02  0.11359457940E+03  0.11770741782E+03  0.00000000000E+00 0. -1.
<scales pt_clust_5="13000.00000" pt_clust_6="13000.00000" pt_clust_7="13000.00000" pt_clust_8="13000.00000" pt_clust_9="30.84328"></scales>
<clustering>
<clus scale="   30.843">  1  9  2 -1</clus>
<clus scale="   79.232">  5  6 -1 -1</clus>
<clus scale="   92.846">  1  5  2 -1</clus>
<clus scale="   93.862">  7  8 -1 -1</clus>
<clus scale="   30.843">  1  5  2 -1</clus>
</clustering>
</event>
<event>
 9    1  0.1973774E-005  0.9769106E+02  0.7546771E-02  0.1294329E+00
         -2   -1    0    0    0  501 -0.00000000000E+00  0.00000000000E+00  0.55791558053E+02  0.55791558053E+02  0.00000000000E+00 0.  1.
          1   -1    0    0  502    0  0.00000000000E+00 -0.00000000000E+00 -0.23988541369E+03  0.23988541369E+03  0.00000000000E+00 0. -1.
         23    2    1    2    0    0 -0.19096269981E+02 -0.18925775503E+02 -0.23329992339E+02  0.99955229181E+02  0.93401856473E+02 0.  0.
        -24    2    1    2    0    0  0.29643793956E+01  0.37852929361E+02 -0.11505027008E+03  0.14368130010E+03  0.77240659929E+02 0.  0.
         13    1    4    4    0    0 -0.21070483937E+02  0.41728137308E+02 -0.10899184133E+03  0.11859352517E+03  0.00000000000E+00 0. -1.
        -14    1    4    4    0    0  0.24034863333E+02 -0.38752079470E+01 -0.60584287582E+01  0.25087774933E+02  0.00000000000E+00 0.  1.
        -11    1    3    3    0    0  0.23042094098E+02 -0.24766332217E+02  0.19946687117E+02  0.39270595091E+02  0.00000000000E+00 0.  1.
         11    1    3    3    0    0 -0.42138364079E+02  0.58405567137E+01 -0.43276679456E+02  0.60684634090E+02  0.00000000000E+00 0. -1.
         21    1    1    2  502  501  0.16131890585E+02 -0.18927153858E+02 -0.45713593216E+02  0.52040442463E+02  0.00000000000E+00 0. -1.
<scales pt_clust_5="13000.00000" pt_clust_6="13000.00000" pt_clust_7="13000.00000" pt_clust_8="13000.00000" pt_clust_9="24.86916"></scales>
<clustering>
<clus scale="   24.869">  2  9  1 -1</clus>
<clus scale="   77.241">  5  6 -1 -1</clus>
<clus scale="   82.376">  2  5  1 -1</clus>
<clus scale="   93.402">  7  8 -1 -1</clus>
<clus scale="   24.869">  2  5  1 -1</clus>
</clustering>
</event>
<event>
 9    1  0.1973774E-005  0.1341935E+03  0.7546771E-02  0.1225387E+00
         -2   -1    0    0    0  501 -0.00000000000E+00  0.00000000000E+00  0.45529793955E+02  0.45529793955E+02  0.00000000000E+00 0.  1.
          1   -1    0    0  502    0  0.00000000000E+00 -0.00000000000E+00 -0.44421193294E+03  0.44421193294E+03  0.00000000000E+00 0. -1.
         23    2    1    2    0    0  0.95776327189E+02  0.32109428668E+02 -0.17111690346E+03  0.22069313428E+03  0.96022625504E+02 0.  0.
        -24    2    1    2    0    0 -0.89048498524E+02 -0.10418146134E+02 -0.19922677962E+03  0.23273270767E+03  0.80218642737E+02 0.  0.
         11    1    4    4    0    0 -0.25151055799E+02 -0.40858179661E+02 -0.62707609646E+02  0.78957018437E+02  0.00000000000E+00 0. -1.
        -12    1    4    4    0    0 -0.63897442725E+02  0.30440033527E+02 -0.13651916997E+03  0.15377568923E+03  0.00000000000E+00 0.  1.
        -13    1    3    3    0    0  0.40788502084E+02 -0.34129226997E+02 -0.69424788495E+02  0.87454601338E+02  0.00000000000E+00 0. -1.
         13    1    3    3    0    0  0.54987825105E+02  0.66238655665E+02 -0.10169211496E+03  0.13323853294E+03  0.00000000000E+00 0.  1.
         21    1    1    2  502  501 -0.67278286649E+01 -0.21691282534E+02 -0.28338455912E+02  0.36315884953E+02  0.00000000000E+00 0. -1.
<scales pt_clust_5="13000.00000" pt_clust_6="13000.00000" pt_clust_7="13000.00000" pt_clust_8="13000.00000" pt_clust_9="22.71069"></scales>
<clustering>
<clus scale="   22.711">  1  9  2 -1</clus>
<clus scale="   80.219">  5  6 -1 -1</clus>
<clus scale="   96.023">  7  8 -1 -1</clus>
<clus scale="  123.380">  2  5  1 -1</clus>
<clus scale="  123.380">  2  5  1 -1</clus>
</clustering>
</event>
<event>
 9    1  0.1973774E-005  0.1148741E+03  0.7546771E-02  0.1255033E+00
          1   -1    0    0  502    0  0.00000000000E+00  0.00000000000E+00  0.20880765565E+03  0.20880765565E+03  0.00000000000E+00 0. -1.
         -2   -1    0    0    0  501 -0.00000000000E+00 -0.00000000000E+00 -0.11641586129E+03  0.11641586129E+03  0.00000000000E+00 0.  1.
        -24    2    1    2    0    0 -0.21713139558E+02  0.80189357441E+02 -0.45101766125E+02  0.12453012268E+03  0.81066569378E+02 0.  0.
         23    2    1    2    0    0  0.17148612463E+02 -0.31707271320E+02  0.96864001462E+02  0.13727329770E+03  0.90343220650E+02 0.  0.
         11    1    3    3    0    0 -0.27799874749E+02  0.17102557403E+02  0.16126367230E+02  0.36405909216E+02  0.00000000000E+00 0. -1.
        -12    1    3    3    0    0  0.60867351910E+01  0.63086800037E+02 -0.61228133355E+02  0.88124213463E+02  0.00000000000E+00 0.  1.
        -11    1    4    4    0    0  0.42299923764E+02  0.18789965394E+01  0.14356723827E+02  0.44709391602E+02  0.00000000000E+00 0.  1.
         11    1    4    4    0    0 -0.25151311301E+02 -0.33586267859E+02  0.82507277634E+02  0.92563906095E+02  0.00000000000E+00 0. -1.
         21    1    1    2  502  501  0.45645270959E+01 -0.48482086121E+02  0.40629559027E+02  0.63420096570E+02  0.00000000000E+00 0. -1.
<scales pt_clust_5="13000.00000" pt_clust_6="13000.00000" pt_clust_7="13000.00000" pt_clust_8="13000.00000" pt_clust_9="48.69648"></scales>
<clustering>
<clus scale="   48.696">  1  9  2 -1</clus>
<clus scale="   81.067">  5  6 -1 -1</clus>
<clus scale="   90.343">  7  8 -1 -1</clus>
<clus scale="  107.731">  2  5  1 -1</clus>
<clus scale="   48.696">  1  5  2 -1</clus>
</clustering>
</event>
<event>
 9    1  0.1973774E-005  0.1029633E+03  0.7546771E-02  0.1285234E+00
          1   -1    0    0  502    0  0.00000000000E+00  0.00000000000E+00  0.33140772029E+03  0.33140772029E+03  0.00000000000E+00 0. -1.
         -2   -1    0    0    0  501 -0.00000000000E+00 -0.00000000000E+00 -0.20726786731E+03  0.20726786731E+03  0.00000000000E+00 0.  1.
         23    2    1    2    0    0 -0.35708207546E+02  0.12347941495E+02 -0.15993395939E+03  0.19224658703E+03  0.99761370848E+02 0.  0.
        -24    2    1    2    0    0 -0.25600433076E+02 -0.21053778574E+01  0.36416815074E+02  0.91090699808E+02  0.79445052594E+02 0.  0.
         13    1    4    4    0    0 -0.22418220865E+02 -0.31807562495E+02  0.45497156431E+02  0.59868931024E+02  0.00000000000E+00 0. -1.
        -14    1    4    4    0    0 -0.31822122112E+01  0.29702184638E+02 -0.90803413569E+01  0.31221768784E+02  0.00000000000E+00 0.  1.
        -11    1    3    3    0    0  0.42073422024E+01  0.48965242733E+02 -0.10024287378E+03  0.11164197449E+03  0.00000000000E+00 0.  1.
         11    1    3    3    0    0 -0.39915549748E+02 -0.36617301238E+02 -0.59691085613E+02  0.80604612544E+02  0.00000000000E+00 0. -1.
         21    1    1    2  502  501  0.61308640622E+02 -0.10242563637E+02  0.24765699730E+03  0.25533830076E+03  0.00000000000E+00 0. -1.
<scales pt_clust_5="13000.00000" pt_clust_6="13000.00000" pt_clust_7="13000.00000" pt_clust_8="13000.00000" pt_clust_9="62.15834"></scales>
<clustering>
<clus scale="   62.158">  1  9  2 -1</clus>
<clus scale="   79.445">  5  6 -1 -1</clus>
<clus scale="   83.430">  1  5  2 -1</clus>
<clus scale="   99.761">  7  8 -1 -1</clus>
<clus scale="   62.158">  1  5  2 -1</clus>
</clustering>
</event>
<event>
 9    1  0.1973774E-005  0.3685661E+03  0.7546771E-02  0.1055243E+00
         -2   -1    0    0    0  501 -0.00000000000E+00  0.00000000000E+00  0.83060256070E+02  0.83060256070E+02  0.00000000000E+00 0.  1.
          1   -1    0    0  502    0  0.00000000000E+00 -0.00000000000E+00 -0.15649882874E+04  0.15649882874E+04  0.00000000000E+00 0. -1.
        -24    2    1    2    0    0 -0.54435200852E+02  0.50238922565E+02 -0.10152943263E+03  0.14971578566E+03  0.81360004630E+02 0.  0.
         23    2    1    2    0    0 -0.13069604583E+03  0.19453642370E+03 -0.41143400766E+03  0.48192687071E+03  0.89720061952E+02 0.  0.
         13    1    3    3    0    0 -0.11539549727E+02  0.23696874021E+02 -0.95313926174E+02  0.98891089432E+02  0.00000000000E+00 0. -1.
        -14    1    3    3    0    0 -0.42895651125E+02  0.26542048544E+02 -0.62155064584E+01  0.50824696230E+02  0.00000000000E+00 0.  1.
        -13    1    4    4    0    0 -0.90801690089E+02  0.55889911249E+02 -0.17978209529E+03  0.20902208230E+03  0.00000000000E+00 0. -1.
         13    1    4    4    0    0 -0.39894355737E+02  0.13864651245E+03 -0.23165191237E+03  0.27290478841E+03  0.00000000000E+00 0.  1.
         21    1    1    2  502  501  0.18513124668E+03 -0.24477534626E+03 -0.96896459100E+03  0.10164058871E+04  0.00000000000E+00 0. -1.
<scales pt_clust_5="13000.00000" pt_clust_6="13000.00000" pt_clust_7="13000.00000" pt_clust_8="13000.00000" pt_clust_9="306.90153"></scales>
<clustering>
<clus scale="   81.360">  5  6 -1 -1</clus>
<clus scale="   89.720">  7  8 -1 -1</clus>
<clus scale="  104.968">  5  7 -1 -1</clus>
<clus scale="  306.902">  2  9  1 -1</clus>
<clus scale="  306.902">  2  5  1 -1</clus>
</clustering>
</event>
<event>
 9    1  0.1973774E-005  0.1012046E+03  0.7546771E-02  0.1283710E+00
         -2   -1    0    0    0  501 -0.00000000000E+00  0.00000000000E+00  0.28162680769E+02  0.28162680769E+02  0.00000000000E+00 0.  1.
          1   -1    0    0  502    0  0.00000000000E+00 -0.00000000000E+00 -0.51878003204E+03  0.51878003204E+03  0.00000000000E+00 0. -1.
        -24    2    1    2    0    0  0.43310026947E+02  0.15405490569E+02 -0.12602846503E+03  0.15658585204E+03  0.80764271111E+02 0.  0.
         23    2    1    2    0    0 -0.15023773065E+02 -0.38201470235E+02 -0.23866583284E+03  0.25929815550E+03  0.92677330544E+02 0.  0.
         13    1    3    3    0    0  0.35792875664E+02 -0.79146321437E+01 -0.12687998891E+03  0.13206931110E+03  0.00000000000E+00 0. -1.
        -14    1    3    3    0    0  0.75171512830E+01  0.23320122712E+02  0.85152387585E+00  0.24516540940E+02  0.00000000000E+00 0.  1.
        -11    1    4    4    0    0  0.29123605820E+02  0.10703060416E+02 -0.11577497324E+03  0.11986068725E+03  0.00000000000E+00 0.  1.
         11    1    4    4    0    0 -0.44147378886E+02 -0.48904530651E+02 -0.12289085959E+03  0.13943746825E+03  0.00000000000E+00 0. -1.
         21    1    1    2  502  501 -0.28286253881E+02  0.22795979666E+02 -0.12592305341E+03  0.13105870527E+03  0.00000000000E+00 0.  1.
<scales pt_clust_5="13000.00000" pt_clust_6="13000.00000" pt_clust_7="13000.00000" pt_clust_8="13000.00000" pt_clust_9="36.32862"></scales>
<clustering>
<clus scale="   36.329">  2  9  1 -1</clus>
<clus scale="   80.764">  5  6 -1 -1</clus>
<clus scale="   90.422">  1  5  2 -1</clus>
<clus scale="   92.677">  7  8 -1 -1</clus>
<clus scale="   36.329">  2  5  1 -1</clus>
</clustering>
</event>
<event>
 9    1  0.3416290E-005  0.1230471E+03  0.7546771E-02  0.1241195E+00
          1   -1    0    0  502    0  0.00000000000E+00  0.00000000000E+00  0.27953098338E+03  0.27953098338E+03  0.00000000000E+00 0. -1.
         -2   -1    0    0    0  501 -0.00000000000E+00 -0.00000000000E+00 -0.41846586060E+03  0.41846586060E+03  0.00000000000E+00 0.  1.
         23    2    1    2    0    0 -0.62484593147E+02  0.55557878675E+02 -0.38954650530E+03  0.40877904619E+03  0.91448491254E+02 0.  0.
        -24    2    1    2    0    0  0.25520095271E+02 -0.48817158315E+02  0.21944054536E+03  0.24039723029E+03  0.81254447091E+02 0.  0.
         13    1    4    4    0    0  0.38621446129E+02 -0.33222512214E+02  0.21304160102E+03  0.21904811157E+03  0.00000000000E+00 0. -1.
        -14    1    4    4    0    0 -0.13101350858E+02 -0.15594646100E+02  0.63989443490E+01  0.21349118719E+02  0.00000000000E+00 0.  1.
        -11    1    3    3    0    0 -0.84685016047E+02  0.54852107846E+02 -0.33558696164E+03  0.35042676054E+03  0.00000000000E+00 0.  1.
         11    1    3    3    0    0  0.22200422900E+02  0.70577082983E+00 -0.53959543652E+02  0.58352285650E+02  0.00000000000E+00 0. -1.
         21    1    1    2  502  501  0.36964497877E+02 -0.67407203608E+01  0.31171082712E+02  0.48820567507E+02  0.00000000000E+00 0. -1.
<scales pt_clust_5="13000.00000" pt_clust_6="13000.00000" pt_clust_7="13000.00000" pt_clust_8="13000.00000" pt_clust_9="37.57408"></scales>
<clustering>
<clus scale="   37.574">  1  9  2 -1</clus>
<clus scale="   81.254">  5  6 -1 -1</clus>
<clus scale="   91.448">  7  8 -1 -1</clus>
<clus scale="  115.672">  1  5  2 -1</clus>
<clus scale="   37.574">  1  5  2 -1</clus>
</clustering>
</event>
<event>
 9    1  0.1973774E-005  0.1741201E+03  0.7546771E-02  0.1174389E+00
         -2   -1    0    0    0  501 -0.00000000000E+00  0.00000000000E+00  0.21166281661E+03  0.21166281661E+03  0.00000000000E+00 0.  1.
          1   -1    0    0  502    0  0.00000000000E+00 -0.00000000000E+00 -0.18611774560E+03  0.18611774560E+03  0.00000000000E+00 0. -1.
        -24    2    1    2    0    0  0.79806987529E+02  0.12391140253E+03  0.84704268139E+02  0.18955665105E+03  0.83867275995E+02 0.  0.
         23    2    1    2    0    0 -0.99587738765E+02 -0.11734437665E+03 -0.47975541574E+02  0.18457062175E+03  0.89873474290E+02 0.  0.
         13    1    3    3    0    0  0.58018339141E+02  0.18917803846E+02  0.19531878950E+02  0.64074216923E+02  0.00000000000E+00 0. -1.
        -14    1    3    3    0    0  0.21788648388E+02  0.10499359868E+03  0.65172389189E+02  0.12548243413E+03  0.00000000000E+00 0.  1.
        -11    1    4    4    0    0 -0.78028070457E+01 -0.42566936555E+02  0.20411791953E+02  0.47848397425E+02  0.00000000000E+00 0.  1.
         11    1    4    4    0    0 -0.91784931720E+02 -0.74777440092E+02 -0.68387333526E+02  0.13672222432E+03  0.00000000000E+00 0. -1.
         21    1    1    2  502  501  0.19780751237E+02 -0.65670258805E+01 -0.11183655555E+02  0.23653289411E+02  0.00000000000E+00 0. -1.
<scales pt_clust_5="13000.00000" pt_clust_6="13000.00000" pt_clust_7="13000.00000" pt_clust_8="13000.00000" pt_clust_9="20.84236"></scales>
<clustering>
<clus scale="   20.842">  2  9  1 -1</clus>
<clus scale="   83.867">  5  6 -1 -1</clus>
<clus scale="   89.873">  7  8 -1 -1</clus>
<clus scale="  171.097">  1  5  2 -1</clus>
<clus scale="   20.842">  2  5  1 -1</clus>
</clustering>
</event>
<event>
 9    1  0.1973774E-005  0.9541960E+02  0.7546771E-02  0.1297464E+00
          1   -1    0    0  502    0  0.00000000000E+00  0.00000000000E+00  0.49505408717E+03  0.49505408717E+03  0.00000000000E+00 0. -1.
         -2   -1    0    0    0  501 -0.00000000000E+00 -0.00000000000E+00 -0.46910219690E+02  0.46910219690E+02  0.00000000000E+00 0.  1.
         23    2    1    2    0    0  0.19288750526E+01 -0.25598387443E+02  0.19123480930E+02  0.96701491652E+02  0.91249509402E+02 0.  0.
        -24    2    1    2    0    0 -0.18217008912E+02  0.41258275749E+02  0.38789244668E+03  0.39833688587E+03  0.78597835338E+02 0.  0.
         13    1    4    4    0    0 -0.74605016785E+01  0.64461954952E+02  0.26760926877E+03  0.27536470989E+03  0.00000000000E+00 0. -1.
        -14    1    4    4    0    0 -0.10756507234E+02 -0.23203679203E+02  0.12028317791E+03  0.12297217598E+03  0.00000000000E+00 0.  1.
        -11    1    3    3    0    0  0.27171581307E+02 -0.42037407662E+02 -0.13953755570E+02  0.51962926863E+02  0.00000000000E+00 0.  1.
         11    1    3    3    0    0 -0.25242706255E+02  0.16439020220E+02  0.33077236500E+02  0.44738564788E+02  0.00000000000E+00 0. -1.
         21    1    1    2  502  501  0.16288133860E+02 -0.15659888307E+02  0.41127939867E+02  0.46925929337E+02  0.00000000000E+00 0. -1.
<scales pt_clust_5="13000.00000" pt_clust_6="13000.00000" pt_clust_7="13000.00000" pt_clust_8="13000.00000" pt_clust_9="22.59503"></scales>
<clustering>
<clus scale="   22.595">  1  9  2 -1</clus>
<clus scale="   78.598">  5  6 -1 -1</clus>
<clus scale="   83.403">  1  5  2 -1</clus>
<clus scale="   91.250">  7  8 -1 -1</clus>
<clus scale="   22.595">  1  5  2 -1</clus>
</clustering>
</event>
<event>
 9    1  0.1973774E-005  0.1781158E+03  0.7546771E-02  0.1170333E+00
          1   -1    0    0  502    0  0.00000000000E+00  0.00000000000E+00  0.47220984346E+03  0.47220984346E+03  0.00000000000E+00 0. -1.
         -2   -1    0    0    0  501 -0.00000000000E+00 -0.00000000000E+00 -0.89702538408E+02  0.89702538408E+02  0.00000000000E+00 0.  1.
         23    2    1    2    0    0 -0.49593657795E+01  0.14085836721E+03  0.56982516111E+02  0.17664869286E+03  0.89955981599E+02 0.  0.
        -24    2    1    2    0    0  0.15349416696E+02 -0.15817627340E+03  0.31436266096E+03  0.36218867798E+03  0.84269910343E+02 0.  0.
         11    1    4    4    0    0 -0.33969070417E+02 -0.75467452021E+02  0.12815266274E+03  0.15255274179E+03  0.00000000000E+00 0. -1.
        -12    1    4    4    0    0  0.49318487113E+02 -0.82708821383E+02  0.18620999822E+03  0.20963593619E+03  0.00000000000E+00 0.  1.
        -11    1    3    3    0    0 -0.33616126051E+02  0.71699618746E+02  0.63500514598E+02  0.10150465316E+03  0.00000000000E+00 0. -1.
         11    1    3    3    0    0  0.28656760271E+02  0.69158748464E+02 -0.65179984873E+01  0.75144039702E+02  0.00000000000E+00 0.  1.
         21    1    1    2  502  501 -0.10390050917E+02  0.17317906194E+02  0.11162127986E+02  0.23075011033E+02  0.00000000000E+00 0.  1.
<scales pt_clust_5="13000.00000" pt_clust_6="13000.00000" pt_clust_7="13000.00000" pt_clust_8="13000.00000" pt_clust_9="20.19562"></scales>
<clustering>
<clus scale="   20.196">  2  9  1 -1</clus>
<clus scale="   84.270">  5  6 -1 -1</clus>
<clus scale="   89.956">  7  8 -1 -1</clus>
<clus scale="  175.313">  1  5  2 -1</clus>
<clus scale="  175.313">  1  5  2 -1</clus>
</clustering>
</event>
<event>
 9    1  0.1973774E-005  0.1803605E+03  0.7546771E-02  0.1168498E+00
         -2   -1    0    0    0  501 -0.00000000000E+00  0.00000000000E+00  0.14303932055E+03  0.14303932055E+03  0.00000000000E+00 0.  1.
          1   -1    0    0  502    0  0.00000000000E+00 -0.00000000000E+00 -0.42070724947E+03  0.42070724947E+03  0.00000000000E+00 0. -1.
        -24    2    1    2    0    0  0.93029563788E+02  0.11707714003E+03  0.36403717375E+02  0.17994758043E+03  0.93243469525E+02 0.  0.
         23    2    1    2    0    0 -0.11322113738E+03 -0.13269145066E+03 -0.26355955249E+03  0.32720413151E+03  0.84692732508E+02 0.  0.
         13    1    3    3    0    0 -0.18736049707E+02  0.24399803898E+02  0.26032891519E+01  0.30873404466E+02  0.00000000000E+00 0. -1.
        -14    1    3    3    0    0  0.11176561349E+03  0.92677336133E+02  0.33800428223E+02  0.14907417597E+03  0.00000000000E+00 0.  1.
        -13    1    4    4    0    0 -0.10938121007E+02 -0.65209503246E+02 -0.58313685972E+02  0.88161260066E+02  0.00000000000E+00 0.  1.
         13    1    4    4    0    0 -0.10228301637E+03 -0.67481947416E+02 -0.20524586651E+03  0.23904287144E+03  0.00000000000E+00 0. -1.
         21    1    1    2  502  501  0.20191573594E+02  0.15614310632E+02 -0.50512093809E+02  0.56594858085E+02  0.00000000000E+00 0.  1.
<scales pt_clust_5="13000.00000" pt_clust_6="13000.00000" pt_clust_7="13000.00000" pt_clust_8="13000.00000" pt_clust_9="25.52462"></scales>
<clustering>
<clus scale="   25.525">  2  9  1 -1</clus>
<clus scale="   84.693">  7  8 -1 -1</clus>
<clus scale="   93.243">  5  6 -1 -1</clus>
<clus scale="  176.092">  2  7  1 -1</clus>
<clus scale="   25.525">  2  5  1 -1</clus>
</clustering>
</event>
<event>
 9    1  0.1973774E-005  0.1102548E+03  0.7546771E-02  0.1265285E+00
         -4   -1    0    0    0  501 -0.00000000000E+00  0.00000000000E+00  0.10962215624E+03  0.10962215624E+03  0.00000000000E+00 0.  1.
          3   -1    0    0  502    0  0.00000000000E+00 -0.00000000000E+00 -0.17519283999E+03  0.17519283999E+03  0.00000000000E+00 0. -1.
         23    2    1    2    0    0 -0.23035947896E+02 -0.48942435296E+02  0.39589902260E+02  0.11474863609E+03  0.93133625798E+02 0.  0.
        -24    2    1    2    0    0  0.41422038000E+02  0.62669999976E+02 -0.93575509256E+02  0.14436211255E+03  0.80254155517E+02 0.  0.
         11    1    4    4    0    0  0.23063662102E+02  0.13456460158E+02 -0.87502440060E+02  0.91485987157E+02  0.00000000000E+00 0. -1.
        -12    1    4    4    0    0  0.18358375897E+02  0.49213539818E+02 -0.60730691962E+01  0.52876125392E+02  0.00000000000E+00 0.  1.
        -13    1    3    3    0    0 -0.46063841885E+02 -0.49162738506E+02  0.55057973440E+02  0.87007084918E+02  0.00000000000E+00 0.  1.
         13    1    3    3    0    0  0.23027893990E+02  0.22030320922E+00 -0.15468071180E+02  0.27741551167E+02  0.00000000000E+00 0. -1.
         21    1    1    2  502  501 -0.18386090104E+02 -0.13727564680E+02 -0.11585076746E+02  0.25704247597E+02  0.00000000000E+00 0.  1.
<scales pt_clust_5="13000.00000" pt_clust_6="13000.00000" pt_clust_7="13000.00000" pt_clust_8="13000.00000" pt_clust_9="22.94546"></scales>
<clustering>
<clus scale="   22.945">  2  9  1 -1</clus>
<clus scale="   80.254">  5  6 -1 -1</clus>
<clus scale="   93.134">  7  8 -1 -1</clus>
<clus scale="   99.614">  2  5  1 -1</clus>
<clus scale="   22.945">  2  5  1 -1</clus>
</clustering>
</event>
<event>
 9    1  0.1973774E-005  0.1906097E+03  0.7546771E-02  0.1158974E+00
          1   -1    0    0  502    0  0.00000000000E+00  0.00000000000E+00  0.21539583051E+03  0.21539583051E+03  0.00000000000E+00 0. -1.
         -2   -1    0    0    0  501 -0.00000000000E+00 -0.00000000000E+00 -0.70734866418E+03  0.70734866418E+03  0.00000000000E+00 0.  1.
         23    2    1    2    0    0 -0.84118866247E+01  0.17184186675E+03 -0.63225252833E+03  0.66147549479E+03  0.90587988299E+02 0.  0.
        -24    2    1    2    0    0  0.46960618481E+02 -0.12710442329E+03  0.79234972312E+02  0.17631993345E+03  0.80310049093E+02 0.  0.
         11    1    4    4    0    0 -0.13318280294E+02 -0.77787457097E+02  0.31506717307E+02  0.84976104330E+02  0.00000000000E+00 0. -1.
        -12    1    4    4    0    0  0.60278898775E+02 -0.49316966197E+02  0.47728255005E+02  0.91343829120E+02  0.00000000000E+00 0.  1.
        -13    1    3    3    0    0  0.39556001930E+02  0.10463295681E+03 -0.36080130260E+03  0.37774371324E+03  0.00000000000E+00 0.  1.
         13    1    3    3    0    0 -0.47967888555E+02  0.67208909936E+02 -0.27145122573E+03  0.28373178155E+03  0.00000000000E+00 0. -1.
         21    1    1    2  502  501 -0.38548731856E+02 -0.44737443452E+02  0.61064722354E+02  0.84949066449E+02  0.00000000000E+00 0. -1.
<scales pt_clust_5="13000.00000" pt_clust_6="13000.00000" pt_clust_7="13000.00000" pt_clust_8="13000.00000" pt_clust_9="59.05458"></scales>
<clustering>
<clus scale="   59.055">  1  9  2 -1</clus>
<clus scale="   80.310">  5  6 -1 -1</clus>
<clus scale="   90.588">  7  8 -1 -1</clus>
<clus scale="  185.945">  1  5  2 -1</clus>
<clus scale="   59.055">  1  5  2 -1</clus>
</clustering>
</event>
<event>
 9    1  0.1973774E-005  0.9550166E+02  0.7546771E-02  0.1296151E+00
          1   -1    0    0  502    0  0.00000000000E+00  0.00000000000E+00  0.41735357551E+03  0.41735357551E+03  0.00000000000E+00 0. -1.
         -2   -1    0    0    0  501 -0.00000000000E+00 -0.00000000000E+00 -0.74517205396E+02  0.74517205396E+02  0.00000000000E+00 0.  1.
        -24    2    1    2    0    0 -0.19243374841E+02  0.22797700697E+02 -0.25017220966E+02  0.89450806091E+02  0.80532867409E+02 0.  0.
         23    2    1    2    0    0  0.39456624368E+02  0.16072040787E+02  0.15342943589E+03  0.18356579828E+03  0.91327294923E+02 0.  0.
         13    1    3    3    0    0  0.26909808578E+02  0.49337193581E+01 -0.28916593048E+02  0.39807646727E+02  0.00000000000E+00 0. -1.
        -14    1    3    3    0    0 -0.46153183419E+02  0.17863981339E+02  0.38993720821E+01  0.49643159364E+02  0.00000000000E+00 0.  1.
        -13    1    4    4    0    0 -0.22428055816E+02 -0.18708367447E+02  0.54046478804E+02  0.61433236700E+02  0.00000000000E+00 0. -1.
         13    1    4    4    0    0  0.61884680184E+02  0.34780408234E+02  0.99382957090E+02  0.12213256158E+03  0.00000000000E+00 0.  1.
         21    1    1    2  502  501 -0.20213249527E+02 -0.38869741484E+02  0.21442415518E+03  0.21885417653E+03  0.00000000000E+00 0. -1.
<scales pt_clust_5="13000.00000" pt_clust_6="13000.00000" pt_clust_7="13000.00000" pt_clust_8="13000.00000" pt_clust_9="43.81133"></scales>
<clustering>
<clus scale="   43.811">  1  9  2 -1</clus>
<clus scale="   80.533">  5  6 -1 -1</clus>
<clus scale="   85.238">  2  5  1 -1</clus>
<clus scale="   91.327">  7  8 -1 -1</clus>
<clus scale="   43.811">  1  5  2 -1</clus>
</clustering>
</event>
<event>
 9    1  0.1973774E-005  0.1157529E+03  0.7546771E-02  0.1253964E+00
         -2   -1    0    0    0  501 -0.00000000000E+00  0.00000000000E+00  0.63932735859E+03  0.63932735859E+03  0.00000000000E+00 0.  1.
          1   -1    0    0  502    0  0.00000000000E+00 -0.00000000000E+00 -0.39396213731E+02  0.39396213731E+02  0.00000000000E+00 0. -1.
        -24    2    1    2    0    0  0.42427544344E+02  0.25197463322E+02  0.39831846740E+03  0.40943163945E+03  0.80880512080E+02 0.  0.
         23    2    1    2    0    0 -0.47690525859E+02 -0.61672482434E+02  0.85622139204E+02  0.14758765621E+03  0.91504558337E+02 0.  0.
         13    1    3    3    0    0 -0.12883006201E+02  0.18427623874E+02  0.33273391617E+02  0.40158034814E+02  0.00000000000E+00 0. -1.
        -14    1    3    3    0    0  0.55310550546E+02  0.67698394481E+01  0.36504507578E+03  0.36927360463E+03  0.00000000000E+00 0.  1.
        -11    1    4    4    0    0 -0.53843115416E+01 -0.68757065560E+02  0.77829666785E+02  0.10399029718E+03  0.00000000000E+00 0.  1.
         11    1    4    4    0    0 -0.42306214317E+02  0.70845831262E+01  0.77924724190E+01  0.43597359029E+02  0.00000000000E+00 0. -1.
         21    1    1    2  502  501  0.52629815141E+01  0.36475019112E+02  0.11599053826E+03  0.12170427667E+03  0.00000000000E+00 0.  1.
<scales pt_clust_5="13000.00000" pt_clust_6="13000.00000" pt_clust_7="13000.00000" pt_clust_8="13000.00000" pt_clust_9="36.85276"></scales>
<clustering>
<clus scale="   36.853">  1  9  2 -1</clus>
<clus scale="   80.881">  5  6 -1 -1</clus>
<clus scale="   91.505">  7  8 -1 -1</clus>
<clus scale="  107.551">  1  5  2 -1</clus>
<clus scale="  115.753">  2  5  1 -1</clus>
</clustering>
</event>
<event>
 9    1  0.1973774E-005  0.1017099E+03  0.7546771E-02  0.1287467E+00
         -2   -1    0    0    0  501 -0.00000000000E+00  0.00000000000E+00  0.24574444140E+03  0.24574444140E+03  0.00000000000E+00 0.  1.
          1   -1    0    0  502    0  0.00000000000E+00 -0.00000000000E+00 -0.12771250498E+03  0.12771250498E+03  0.00000000000E+00 0. -1.
         23    2    1    2    0    0  0.25705426699E+02  0.31172633718E+01  0.21150155992E+03  0.23491836002E+03  0.98910261003E+02 0.  0.
        -24    2    1    2    0    0 -0.46133184845E+01 -0.65610187505E+01 -0.80978023080E+02  0.11378426227E+03  0.79530424640E+02 0.  0.
         11    1    4    4    0    0 -0.13336136428E+02 -0.30186512402E+02 -0.82192928920E+02  0.88570625098E+02  0.00000000000E+00 0. -1.
        -12    1    4    4    0    0  0.87228179431E+01  0.23625493651E+02  0.12149058399E+01  0.25213637170E+02  0.00000000000E+00 0.  1.
        -11    1    3    3    0    0  0.13133364809E+01 -0.43037815518E+02  0.54448222577E+02  0.69416045401E+02  0.00000000000E+00 0. -1.
         11    1    3    3    0    0  0.24392090218E+02  0.46155078890E+02  0.15705333735E+03  0.16550231462E+03  0.00000000000E+00 0.  1.
         21    1    1    2  502  501 -0.21092108215E+02  0.34437553788E+01 -0.12491600424E+02  0.24754324091E+02  0.00000000000E+00 0. -1.
<scales pt_clust_5="13000.00000" pt_clust_6="13000.00000" pt_clust_7="13000.00000" pt_clust_8="13000.00000" pt_clust_9="21.37139"></scales>
<clustering>
<clus scale="   21.371">  2  9  1 -1</clus>
<clus scale="   79.530">  5  6 -1 -1</clus>
<clus scale="   82.986">  2  5  1 -1</clus>
<clus scale="   98.910">  7  8 -1 -1</clus>
<clus scale="   21.371">  2  5  1 -1</clus>
</clustering>
</event>
<event>
 9    1  0.1973774E-005  0.1136185E+03  0.7546771E-02  0.1254216E+00
         -2   -1    0    0    0  501 -0.00000000000E+00  0.00000000000E+00  0.29248091204E+02  0.29248091204E+02  0.00000000000E+00 0.  1.
          1   -1    0    0  502    0  0.00000000000E+00 -0.00000000000E+00 -0.85218757667E+03  0.85218757667E+03  0.00000000000E+00 0. -1.
        -24    2    1    2    0    0 -0.65065048472E+02  0.40501518345E+01 -0.12815245986E+03  0.16978635361E+03  0.90302207285E+02 0.  0.
         23    2    1    2    0    0  0.79035235000E+02  0.22456901538E+02 -0.51421527965E+03  0.52860848432E+03  0.90877362807E+02 0.  0.
         11    1    3    3    0    0 -0.10317489685E+02  0.26001165814E+02 -0.10109210546E+03  0.10489101488E+03  0.00000000000E+00 0. -1.
        -12    1    3    3    0    0 -0.54747558787E+02 -0.21951013980E+02 -0.27060354402E+02  0.64895338725E+02  0.00000000000E+00 0.  1.
        -13    1    4    4    0    0  0.77558457464E+01  0.45930578196E+02 -0.16691509282E+03  0.17329287166E+03  0.00000000000E+00 0.  1.
         13    1    4    4    0    0  0.71279389254E+02 -0.23473676659E+02 -0.34730018683E+03  0.35531561266E+03  0.00000000000E+00 0. -1.
         21    1    1    2  502  501 -0.13970186528E+02 -0.26507053372E+02 -0.18057174596E+03  0.18304082995E+03  0.00000000000E+00 0. -1.
<scales pt_clust_5="13000.00000" pt_clust_6="13000.00000" pt_clust_7="13000.00000" pt_clust_8="13000.00000" pt_clust_9="29.96314"></scales>
<clustering>
<clus scale="   29.963">  2  9  1 -1</clus>
<clus scale="   90.302">  5  6 -1 -1</clus>
<clus scale="   90.877">  7  8 -1 -1</clus>
<clus scale="  113.159">  1  5  2 -1</clus>
<clus scale="   29.963">  2  5  1 -1</clus>
</clustering>
</event>
<event>
 9    1  0.1973774E-005  0.1118152E+03  0.7546771E-02  0.1260335E+00
         -2   -1    0    0    0  501 -0.00000000000E+00  0.00000000000E+00  0.12321894302E+03  0.12321894302E+03  0.00000000000E+00 0.  1.
          1   -1    0    0  502    0  0.00000000000E+00 -0.00000000000E+00 -0.45449878029E+03  0.45449878029E+03  0.00000000000E+00 0. -1.
        -24    2    1    2    0    0  0.43139263452E+02  0.50223641842E+02  0.81483214670E+02  0.13367988381E+03  0.82748938424E+02 0.  0.
         23    2    1    2    0    0 -0.67116538424E+02 -0.67633036430E+01 -0.30628294013E+03  0.32655709672E+03  0.90994098708E+02 0.  0.
         11    1    3    3    0    0  0.13522396399E+02  0.67958091129E+02  0.41139615751E+02  0.80583033812E+02  0.00000000000E+00 0. -1.
        -12    1    3    3    0    0  0.29616867053E+02 -0.17734449287E+02  0.40343598919E+02  0.53096849993E+02  0.00000000000E+00 0.  1.
        -11    1    4    4    0    0 -0.59154207224E+02 -0.40907869287E+02 -0.14948118776E+03  0.16588339126E+03  0.00000000000E+00 0. -1.
         11    1    4    4    0    0 -0.79623312002E+01  0.34144565644E+02 -0.15680175237E+03  0.16067370546E+03  0.00000000000E+00 0.  1.
         21    1    1    2  502  501  0.23977274972E+02 -0.43460338199E+02 -0.10648011181E+03  0.11748074278E+03  0.00000000000E+00 0. -1.
<scales pt_clust_5="13000.00000" pt_clust_6="13000.00000" pt_clust_7="13000.00000" pt_clust_8="13000.00000" pt_clust_9="49.63578"></scales>
<clustering>
<clus scale="   49.636">  2  9  1 -1</clus>
<clus scale="   82.749">  5  6 -1 -1</clus>
<clus scale="   90.994">  7  8 -1 -1</clus>
<clus scale="  105.215">  1  5  2 -1</clus>
<clus scale="   49.636">  2  5  1 -1</clus>
</clustering>
</event>
<event>
 9    1  0.1973774E-005  0.1117308E+03  0.7546771E-02  0.1264780E+00
         -2   -1    0    0    0  501 -0.00000000000E+00  0.00000000000E+00  0.20773494028E+03  0.20773494028E+03  0.00000000000E+00 0.  1.
          1   -1    0    0  502    0  0.00000000000E+00 -0.00000000000E+00 -0.29296626035E+03  0.29296626035E+03  0.00000000000E+00 0. -1.
        -24    2    1    2    0    0  0.65512506587E+02  0.35906428538E+02  0.14967711666E+03  0.18552217388E+03  0.80212702351E+02 0.  0.
         23    2    1    2    0    0  0.20740458662E+02  0.30333515772E+02 -0.77709599733E+02  0.12402783374E+03  0.89408237015E+02 0.  0.
         11    1    3    3    0    0  0.63314603414E+02 -0.35912035627E+01  0.59110766880E+02  0.86693243737E+02  0.00000000000E+00 0. -1.
        -12    1    3    3    0    0  0.21979031727E+01  0.39497632101E+02  0.90566349782E+02  0.98828930141E+02  0.00000000000E+00 0.  1.
        -11    1    4    4    0    0  0.42172595493E+02  0.26587994010E+02 -0.73648923106E+01  0.50395345766E+02  0.00000000000E+00 0.  1.
         11    1    4    4    0    0 -0.21432136831E+02  0.37455217624E+01 -0.70344707422E+02  0.73632487971E+02  0.00000000000E+00 0. -1.
         21    1    1    2  502  501 -0.86252965249E+02 -0.66239944310E+02 -0.15719883701E+03  0.19115119302E+03  0.00000000000E+00 0. -1.
<scales pt_clust_5="13000.00000" pt_clust_6="13000.00000" pt_clust_7="13000.00000" pt_clust_8="13000.00000" pt_clust_9="77.77977"></scales>
<clustering>
<clus scale="   80.213">  5  6 -1 -1</clus>
<clus scale="   89.408">  7  8 -1 -1</clus>
<clus scale="   96.665">  2  7  1 -1</clus>
<clus scale="   77.780">  2  9  1 -1</clus>
<clus scale="   96.665">  2  5  1 -1</clus>
</clustering>
</event>
<event>
 9    1  0.1973774E-005  0.2194942E+03  0.7546771E-02  0.1135142E+00
         -4   -1    0    0    0  501 -0.00000000000E+00  0.00000000000E+00  0.50316389243E+03  0.50316389243E+03  0.00000000000E+00 0.  1.
          3   -1    0    0  502    0  0.00000000000E+00 -0.00000000000E+00 -0.19021036712E+03  0.19021036712E+03  0.00000000000E+00 0. -1.
        -24    2    1    2    0    0  0.85976145952E+02 -0.17949063272E+03  0.36090284883E+03  0.41984067927E+03  0.80040894360E+02 0.  0.
         23    2    1    2    0    0 -0.55111693870E+02  0.19553199509E+03 -0.11620269012E+02  0.22323706042E+03  0.91813368232E+02 0.  0.
         13    1    3    3    0    0  0.42688664318E+02 -0.60593592681E+02  0.67230274919E+02  0.10006905316E+03  0.00000000000E+00 0. -1.
        -14    1    3    3    0    0  0.43287481634E+02 -0.11889704004E+03  0.29367257391E+03  0.31977162611E+03  0.00000000000E+00 0.  1.
        -13    1    4    4    0    0 -0.70060526976E+02  0.18097381485E+03  0.85032165560E+01  0.19424804707E+03  0.00000000000E+00 0. -1.
         13    1    4    4    0    0  0.14948833106E+02  0.14558180248E+02 -0.20123485568E+02  0.28989013346E+02  0.00000000000E+00 0.  1.
         21    1    1    2  502  501 -0.30864452082E+02 -0.16041362373E+02 -0.36329054510E+02  0.50296519866E+02  0.00000000000E+00 0.  1.
<scales pt_clust_5="13000.00000" pt_clust_6="13000.00000" pt_clust_7="13000.00000" pt_clust_8="13000.00000" pt_clust_9="34.78419"></scales>
<clustering>
<clus scale="   34.784">  2  9  1 -1</clus>
<clus scale="   80.041">  5  6 -1 -1</clus>
<clus scale="   91.813">  7  8 -1 -1</clus>
<clus scale="  214.836">  1  5  2 -1</clus>
<clus scale="   34.784">  2  5  1 -1</clus>
</clustering>
</event>
<event>
 9    1  0.1973774E-005  0.1200932E+03  0.7546771E-02  0.1246683E+00
          1   -1    0    0  502    0  0.00000000000E+00  0.00000000000E+00  0.32935983951E+03  0.32935983951E+03  0.00000000000E+00 0. -1.
         -2   -1    0    0    0  501 -0.00000000000E+00 -0.00000000000E+00 -0.60358754605E+02  0.60358754605E+02  0.00000000000E+00 0.  1.
        -24    2    1    2    0    0  0.75519975147E+02  0.37455871800E+02  0.38727535539E+02  0.12227487744E+03  0.79656228040E+02 0.  0.
         23    2    1    2    0    0 -0.50135192946E+02 -0.36846392329E+02  0.18885608565E+03  0.21886218795E+03  0.91448575862E+02 0.  0.
         11    1    3    3    0    0  0.15766583901E+02  0.31990839950E+02  0.49805167119E+02  0.61258090734E+02  0.00000000000E+00 0. -1.
        -12    1    3    3    0    0  0.59753391246E+02  0.54650318500E+01 -0.11077631580E+02  0.61016786706E+02  0.00000000000E+00 0.  1.
        -13    1    4    4    0    0 -0.42338477391E+02 -0.59025071086E+02  0.82423765587E+02  0.10986438376E+03  0.00000000000E+00 0.  1.
         13    1    4    4    0    0 -0.77967155545E+01  0.22178678757E+02  0.10643232006E+03  0.10899780419E+03  0.00000000000E+00 0. -1.
         21    1    1    2  502  501 -0.25384782202E+02 -0.60947947084E+00  0.41417463719E+02  0.48581528728E+02  0.00000000000E+00 0. -1.
<scales pt_clust_5="13000.00000" pt_clust_6="13000.00000" pt_clust_7="13000.00000" pt_clust_8="13000.00000" pt_clust_9="25.39210"></scales>
<clustering>
<clus scale="   25.392">  1  9  2 -1</clus>
<clus scale="   79.656">  5  6 -1 -1</clus>
<clus scale="   91.449">  7  8 -1 -1</clus>
<clus scale="  111.376">  2  5  1 -1</clus>
<clus scale="   25.392">  1  5  2 -1</clus>
</clustering>
</event>
<event>
 9    1  0.1973774E-005  0.9763802E+02  0.7546771E-02  0.1289843E+00
          1   -1    0    0  502    0  0.00000000000E+00  0.00000000000E+00  0.13864583094E+03  0.13864583094E+03  0.00000000000E+00 0. -1.
         -2   -1    0    0    0  501 -0.00000000000E+00 -0.00000000000E+00 -0.12687079026E+03  0.12687079026E+03  0.00000000000E+00 0.  1.
         23    2    1    2    0    0 -0.27923923191E+02  0.29687044125E+02 -0.64729458613E+02  0.11670150899E+03  0.88137808650E+02 0.  0.
        -24    2    1    2    0    0  0.92512001696E+01 -0.52290272985E+02  0.71123600384E+02  0.11900688158E+03  0.79273034375E+02 0.  0.
         11    1    4    4    0    0  0.30273537271E+02 -0.59032577918E+02  0.70662007692E+02  0.96924979472E+02  0.00000000000E+00 0. -1.
        -12    1    4    4    0    0 -0.21022337102E+02  0.67423049328E+01  0.46159269280E+00  0.22081902111E+02  0.00000000000E+00 0.  1.
        -13    1    3    3    0    0 -0.28583740325E+02 -0.27602947928E+02 -0.28771720010E+02  0.49058789402E+02  0.00000000000E+00 0.  1.
         13    1    3    3    0    0  0.65981713382E+00  0.57289992054E+02 -0.35957738603E+02  0.67642719590E+02  0.00000000000E+00 0. -1.
         21    1    1    2  502  501  0.18672723022E+02  0.22603228859E+02  0.53808989087E+01  0.29808230625E+02  0.00000000000E+00 0. -1.
<scales pt_clust_5="13000.00000" pt_clust_6="13000.00000" pt_clust_7="13000.00000" pt_clust_8="13000.00000" pt_clust_9="29.31854"></scales>
<clustering>
<clus scale="   29.319">  1  9  2 -1</clus>
<clus scale="   79.273">  5  6 -1 -1</clus>
<clus scale="   88.138">  7  8 -1 -1</clus>
<clus scale="   89.717">  1  5  2 -1</clus>
<clus scale="   29.319">  1  5  2 -1</clus>
</clustering>
</event>
<event>
 9    1  0.1973774E-005  0.9200793E+02  0.7546771E-02  0.1304177E+00
          1   -1    0    0  502    0  0.00000000000E+00  0.00000000000E+00  0.23503974877E+03  0.23503974877E+03  0.00000000000E+00 0. -1.
         -2   -1    0    0    0  501 -0.00000000000E+00 -0.00000000000E+00 -0.16226699564E+03  0.16226699564E+03  0.00000000000E+00 0.  1.
        -24    2    1    2    0    0  0.99250345708E+01  0.16287449347E+02 -0.10592909700E+03  0.13484502839E+03  0.81230663994E+02 0.  0.
         23    2    1    2    0    0 -0.40233259666E+00  0.63165849450E+02  0.11877153521E+03  0.16248596301E+03  0.91131356802E+02 0.  0.
         13    1    3    3    0    0  0.10473737999E+02 -0.24210660296E+02 -0.60465207557E+01  0.27063179282E+02  0.00000000000E+00 0. -1.
        -14    1    3    3    0    0 -0.54870342827E+00  0.40498109643E+02 -0.99882576240E+02  0.10778184910E+03  0.00000000000E+00 0.  1.
        -11    1    4    4    0    0  0.94467872555E+01  0.84695775980E+02  0.79023859996E+02  0.11622128337E+03  0.00000000000E+00 0.  1.
         11    1    4    4    0    0 -0.98491198522E+01 -0.21529926530E+02  0.39747675211E+02  0.46264679648E+02  0.00000000000E+00 0. -1.
         21    1    1    2  502  501 -0.95227019741E+01 -0.79453298797E+02  0.59930314916E+02  0.99975753003E+02  0.00000000000E+00 0. -1.
<scales pt_clust_5="13000.00000" pt_clust_6="13000.00000" pt_clust_7="13000.00000" pt_clust_8="13000.00000" pt_clust_9="80.02193"></scales>
<clustering>
<clus scale="   80.022">  1  9  2 -1</clus>
<clus scale="   81.231">  5  6 -1 -1</clus>
<clus scale="   82.213">  2  5  1 -1</clus>
<clus scale="   91.131">  7  8 -1 -1</clus>
<clus scale="   80.022">  1  5  2 -1</clus>
</clustering>
</event>
<event>
 9    1  0.1973774E-005  0.1015506E+03  0.7546771E-02  0.1282443E+00
         -2   -1    0    0    0  501 -0.00000000000E+00  0.00000000000E+00  0.77462113444E+02  0.77462113444E+02  0.00000000000E+00 0.  1.
          1   -1    0    0  502    0  0.00000000000E+00 -0.00000000000E+00 -0.44185174580E+03  0.44185174580E+03  0.00000000000E+00 0. -1.
         23    2    1    2    0    0  0.32397512266E+02  0.34078078453E+02  0.28378989433E+02  0.10712938603E+03  0.91980563586E+02 0.  0.
        -24    2    1    2    0    0 -0.99254245535E+01 -0.21824696805E+02 -0.19133907917E+03  0.20913521631E+03  0.80944820972E+02 0.  0.
         13    1    4    4    0    0  0.45467394936E+01 -0.41081935791E+02 -0.17550896383E+03  0.18031027334E+03  0.00000000000E+00 0. -1.
        -14    1    4    4    0    0 -0.14472164047E+02  0.19257238986E+02 -0.15830115336E+02  0.28824942968E+02  0.00000000000E+00 0.  1.
        -11    1    3    3    0    0  0.53029708972E+02 -0.44193633503E+01  0.33914844284E+02  0.63102277843E+02  0.00000000000E+00 0.  1.
         11    1    3    3    0    0 -0.20632196706E+02  0.38497441803E+02 -0.55358548515E+01  0.44027108186E+02  0.00000000000E+00 0. -1.
         21    1    1    2  502  501 -0.22472087713E+02 -0.12253381648E+02 -0.20142954262E+03  0.20304925690E+03  0.00000000000E+00 0. -1.
<scales pt_clust_5="13000.00000" pt_clust_6="13000.00000" pt_clust_7="13000.00000" pt_clust_8="13000.00000" pt_clust_9="25.59570"></scales>
<clustering>
<clus scale="   25.596">  2  9  1 -1</clus>
<clus scale="   80.945">  5  6 -1 -1</clus>
<clus scale="   91.674">  2  5  1 -1</clus>
<clus scale="   91.981">  7  8 -1 -1</clus>
<clus scale="   25.596">  2  5  1 -1</clus>
</clustering>
</event>
<event>
 9    1  0.1973774E-005  0.1258186E+03  0.7546771E-02  0.1234472E+00
         -2   -1    0    0    0  501 -0.00000000000E+00  0.00000000000E+00  0.23234135067E+03  0.23234135067E+03  0.00000000000E+00 0.  1.
          1   -1    0    0  502    0  0.00000000000E+00 -0.00000000000E+00 -0.32809433996E+03  0.32809433996E+03  0.00000000000E+00 0. -1.
         23    2    1    2    0    0 -0.74049053114E+02 -0.45601519730E+02  0.19198799077E+03  0.22891057798E+03  0.89319109051E+02 0.  0.
        -24    2    1    2    0    0  0.73174865428E+02  0.20045157817E+02 -0.28086531441E+03  0.30504556174E+03  0.91712052722E+02 0.  0.
         11    1    4    4    0    0  0.62258869662E+02  0.19487051564E+02 -0.28572913329E+03  0.29308198451E+03  0.00000000000E+00 0. -1.
        -12    1    4    4    0    0  0.10915995766E+02  0.55810625327E+00  0.48638188785E+01  0.11963577234E+02  0.00000000000E+00 0.  1.
        -13    1    3    3    0    0 -0.25883303907E+02 -0.18501524590E+02  0.29417422212E+01  0.31951614679E+02  0.00000000000E+00 0. -1.
         13    1    3    3    0    0 -0.48165749207E+02 -0.27099995140E+02  0.18904624855E+03  0.19695896330E+03  0.00000000000E+00 0.  1.
         21    1    1    2  502  501  0.87418768565E+00  0.25556361913E+02 -0.68756656398E+01  0.26479550909E+02  0.00000000000E+00 0.  1.
<scales pt_clust_5="13000.00000" pt_clust_6="13000.00000" pt_clust_7="13000.00000" pt_clust_8="13000.00000" pt_clust_9="25.57131"></scales>
<clustering>
<clus scale="   25.571">  2  9  1 -1</clus>
<clus scale="   89.319">  7  8 -1 -1</clus>
<clus scale="   91.712">  5  6 -1 -1</clus>
<clus scale="  124.085">  1  7  2 -1</clus>
<clus scale="   25.571">  2  5  1 -1</clus>
</clustering>
</event>
<event>
 9    1  0.1973774E-005  0.1003305E+03  0.7546771E-02  0.1285838E+00
          1   -1    0    0  502    0  0.00000000000E+00  0.00000000000E+00  0.41265061365E+03  0.41265061365E+03  0.00000000000E+00 0. -1.
         -2   -1    0    0    0  501 -0.00000000000E+00 -0.00000000000E+00 -0.84828251057E+02  0.84828251057E+02  0.00000000000E+00 0.  1.
        -24    2    1    2    0    0  0.42634157360E+02 -0.45761713836E+02 -0.31850557030E+02  0.10801056987E+03  0.82097621123E+02 0.  0.
         23    2    1    2    0    0 -0.19174095284E+02  0.25524806348E+02  0.33624407163E+03  0.35062479016E+03  0.94119637156E+02 0.  0.
         11    1    3    3    0    0 -0.23015166127E+02  0.15268022995E+00 -0.53530851341E+01  0.23629995843E+02  0.00000000000E+00 0. -1.
        -12    1    3    3    0    0  0.65649323487E+02 -0.45914394066E+02 -0.26497471896E+02  0.84380574030E+02  0.00000000000E+00 0.  1.
        -11    1    4    4    0    0  0.35291527425E+02  0.43809735218E+01  0.76083633076E+02  0.83984546549E+02  0.00000000000E+00 0.  1.
         11    1    4    4    0    0 -0.54465622709E+02  0.21143832826E+02  0.26016043855E+03  0.26664024361E+03  0.00000000000E+00 0. -1.
         21    1    1    2  502  501 -0.23460062076E+02  0.20236907488E+02  0.23428847997E+02  0.38843504679E+02  0.00000000000E+00 0. -1.
<scales pt_clust_5="13000.00000" pt_clust_6="13000.00000" pt_clust_7="13000.00000" pt_clust_8="13000.00000" pt_clust_9="30.98236"></scales>
<clustering>
<clus scale="   30.982">  2  9  1 -1</clus>
<clus scale="   82.098">  5  6 -1 -1</clus>
<clus scale="   89.150">  2  5  1 -1</clus>
<clus scale="   94.120">  7  8 -1 -1</clus>
<clus scale="  100.331">  1  5  2 -1</clus>
</clustering>
</event>
<event>
 9    1  0.1973774E-005  0.9856886E+02  0.7546771E-02  0.1287199E+00
         -2   -1    0    0    0  501 -0.00000000000E+00  0.00000000000E+00  0.33820331825E+03  0.33820331825E+03  0.00000000000E+00 0.  1.
          1   -1    0    0  502    0  0.00000000000E+00 -0.00000000000E+00 -0.94731195365E+02  0.94731195365E+02  0.00000000000E+00 0. -1.
        -24    2    1    2    0    0  0.21838035525E+02  0.24052880375E+02  0.23408624685E+03  0.25087999894E+03  0.84195974082E+02 0.  0.
         23    2    1    2    0    0 -0.88219837263E+01 -0.77399138197E+02 -0.16330032796E+02  0.12141996351E+03  0.91693421669E+02 0.  0.
         11    1    3    3    0    0  0.15578027834E+02  0.45436755239E+02  0.67701818111E+02  0.83010299683E+02  0.00000000000E+00 0. -1.
        -12    1    3    3    0    0  0.62600076917E+01 -0.21383874864E+02  0.16638442874E+03  0.16786969925E+03  0.00000000000E+00 0.  1.
        -13    1    4    4    0    0  0.29383967271E+02 -0.23292123631E+02 -0.36350943734E+02  0.52223861080E+02  0.00000000000E+00 0.  1.
         13    1    4    4    0    0 -0.38205950997E+02 -0.54107014566E+02  0.20020910938E+02  0.69196102431E+02  0.00000000000E+00 0. -1.
         21    1    1    2  502  501 -0.13016051799E+02  0.53346257822E+02  0.25715908827E+02  0.60634551164E+02  0.00000000000E+00 0.  1.
<scales pt_clust_5="13000.00000" pt_clust_6="13000.00000" pt_clust_7="13000.00000" pt_clust_8="13000.00000" pt_clust_9="54.91121"></scales>
<clustering>
<clus scale="   54.911">  2  9  1 -1</clus>
<clus scale="   84.196">  5  6 -1 -1</clus>
<clus scale="   91.636">  1  5  2 -1</clus>
<clus scale="   91.693">  7  8 -1 -1</clus>
<clus scale="   54.911">  2  5  1 -1</clus>
</clustering>
</event>
<event>
 9    1  0.1973774E-005  0.9283941E+02  0.7546771E-02  0.1302059E+00
          1   -1    0    0  502    0  0.00000000000E+00  0.00000000000E+00  0.22102291857E+03  0.22102291857E+03  0.00000000000E+00 0. -1.
         -2   -1    0    0    0  501 -0.00000000000E+00 -0.00000000000E+00 -0.78326572293E+02  0.78326572293E+02  0.00000000000E+00 0.  1.
         23    2    1    2    0    0 -0.24191637596E+02 -0.10797139853E+02 -0.27480904532E+02  0.97728585596E+02  0.89965897818E+02 0.  0.
        -24    2    1    2    0    0  0.12827786503E+02 -0.12305094525E+02  0.13697126210E+03  0.15960319435E+03  0.79975530924E+02 0.  0.
         11    1    4    4    0    0  0.28508782977E+02  0.16935642805E+02  0.11529845921E+03  0.11997208592E+03  0.00000000000E+00 0. -1.
        -12    1    4    4    0    0 -0.15680996474E+02 -0.29240737329E+02  0.21672802892E+02  0.39631108427E+02  0.00000000000E+00 0.  1.
        -13    1    3    3    0    0 -0.29281371883E+02 -0.45581892153E+02 -0.30964628641E+02  0.62401248854E+02  0.00000000000E+00 0.  1.
         13    1    3    3    0    0  0.50897342867E+01  0.34784752300E+02  0.34837241090E+01  0.35327336743E+02  0.00000000000E+00 0. -1.
         21    1    1    2  502  501  0.11363851093E+02  0.23102234378E+02  0.33205988712E+02  0.42017710923E+02  0.00000000000E+00 0. -1.
<scales pt_clust_5="13000.00000" pt_clust_6="13000.00000" pt_clust_7="13000.00000" pt_clust_8="13000.00000" pt_clust_9="25.74588"></scales>
<clustering>
<clus scale="   25.746">  1  9  2 -1</clus>
<clus scale="   79.976">  5  6 -1 -1</clus>
<clus scale="   83.195">  1  5  2 -1</clus>
<clus scale="   89.966">  7  8 -1 -1</clus>
<clus scale="   25.746">  1  5  2 -1</clus>
</clustering>
</event>
<event>
 9    1  0.1973774E-005  0.1445209E+03  0.7546771E-02  0.1209788E+00
          1   -1    0    0  502    0  0.00000000000E+00  0.00000000000E+00  0.32076246587E+03  0.32076246587E+03  0.00000000000E+00 0. -1.
         -2   -1    0    0    0  501 -0.00000000000E+00 -0.00000000000E+00 -0.29787632502E+03  0.29787632502E+03  0.00000000000E+00 0.  1.
         23    2    1    2    0    0 -0.36911984135E+02 -0.79444298563E+02 -0.21848429459E+03  0.25292100146E+03  0.92518943182E+02 0.  0.
        -24    2    1    2    0    0  0.10915417687E+03  0.36138505439E+02  0.24389923467E+03  0.28145201373E+03  0.80670772007E+02 0.  0.
         11    1    4    4    0    0  0.10685473170E+03  0.38970128226E+01  0.17055567286E+03  0.20130165906E+03  0.00000000000E+00 0. -1.
        -12    1    4    4    0    0  0.22994451647E+01  0.32241492616E+02  0.73343561817E+02  0.80150354673E+02  0.00000000000E+00 0.  1.
        -11    1    3    3    0    0 -0.60500597469E+02 -0.49543252986E+02 -0.18968959455E+03  0.20517553093E+03  0.00000000000E+00 0.  1.
         11    1    3    3    0    0  0.23588613334E+02 -0.29901045577E+02 -0.28794700042E+02  0.47745470530E+02  0.00000000000E+00 0. -1.
         21    1    1    2  502  501 -0.72242192733E+02  0.43305793124E+02 -0.25287992314E+01  0.84265775702E+02  0.00000000000E+00 0. -1.
<scales pt_clust_5="13000.00000" pt_clust_6="13000.00000" pt_clust_7="13000.00000" pt_clust_8="13000.00000" pt_clust_9="84.22782"></scales>
<clustering>
<clus scale="   80.671">  5  6 -1 -1</clus>
<clus scale="   84.228">  2  9  1 -1</clus>
<clus scale="   92.519">  7  8 -1 -1</clus>
<clus scale="  137.238">  1  5  2 -1</clus>
<clus scale="  137.238">  1  5  2 -1</clus>
</clustering>
</event>
<event>
 9    1  0.1973774E-005  0.1050860E+03  0.7546771E-02  0.1275753E+00
          1   -1    0    0  502    0  0.00000000000E+00  0.00000000000E+00  0.78815881372E+02  0.78815881372E+02  0.00000000000E+00 0. -1.
         -2   -1    0    0    0  501 -0.00000000000E+00 -0.00000000000E+00 -0.20916795128E+03  0.20916795128E+03  0.00000000000E+00 0.  1.
         23    2    1    2    0    0  0.19245163191E+02 -0.21723839977E+02 -0.11017744148E+03  0.14431457990E+03  0.88573855238E+02 0.  0.
        -24    2    1    2    0    0 -0.38744957543E+02  0.11776215511E+02 -0.38829989625E+02  0.11490782521E+03  0.10028055252E+03 0.  0.
         11    1    4    4    0    0  0.79268000160E+01  0.23826021044E+02 -0.57868886343E+02  0.63081863034E+02  0.00000000000E+00 0. -1.
        -12    1    4    4    0    0 -0.46671757559E+02 -0.12049805533E+02  0.19038896717E+02  0.51825962174E+02  0.00000000000E+00 0.  1.
        -13    1    3    3    0    0 -0.15243008358E+02  0.27634478810E+02 -0.50412612658E+02  0.59476425900E+02  0.00000000000E+00 0.  1.
         13    1    3    3    0    0  0.34488171549E+02 -0.49358318787E+02 -0.59764828823E+02  0.84838154002E+02  0.00000000000E+00 0. -1.
         21    1    1    2  502  501  0.19499794352E+02  0.99476244656E+01  0.18655361203E+02  0.28761427536E+02  0.00000000000E+00 0. -1.
<scales pt_clust_5="13000.00000" pt_clust_6="13000.00000" pt_clust_7="13000.00000" pt_clust_8="13000.00000" pt_clust_9="21.89057"></scales>
<clustering>
<clus scale="   21.891">  1  9  2 -1</clus>
<clus scale="   88.574">  7  8 -1 -1</clus>
<clus scale="   93.980">  2  7  1 -1</clus>
<clus scale="  100.281">  5  6 -1 -1</clus>
<clus scale="   21.891">  1  5  2 -1</clus>
</clustering>
</event>
<event>
 9    1  0.1973774E-005  0.1091280E+03  0.7546771E-02  0.1266870E+00
          3   -1    0    0  502    0  0.00000000000E+00  0.00000000000E+00  0.16024767963E+03  0.16024767963E+03  0.00000000000E+00 0. -1.
         -4   -1    0    0    0  501 -0.00000000000E+00 -0.00000000000E+00 -0.75539687163E+03  0.75539687163E+03  0.00000000000E+00 0.  1.
        -24    2    1    2    0    0 -0.21616566211E+02  0.55977123360E+02 -0.71108006025E+03  0.71813700223E+03  0.80530662511E+02 0.  0.
         23    2    1    2    0    0 -0.12407210691E+01 -0.36482436739E+02  0.25542234061E+02  0.10225733340E+03  0.92041560906E+02 0.  0.
         11    1    3    3    0    0  0.19126120861E+02 -0.97834803178E+01 -0.10802943367E+03  0.11014482978E+03  0.00000000000E+00 0. -1.
        -12    1    3    3    0    0 -0.40742687072E+02  0.65760603678E+02 -0.60305062658E+03  0.60799217245E+03  0.00000000000E+00 0.  1.
        -13    1    4    4    0    0 -0.27639098750E+02 -0.22948893867E+02 -0.24919787792E+02  0.43721474506E+02  0.00000000000E+00 0.  1.
         13    1    4    4    0    0  0.26398377681E+02 -0.13533542872E+02  0.50462021853E+02  0.58535858893E+02  0.00000000000E+00 0. -1.
         21    1    1    2  502  501  0.22857287280E+02 -0.19494686622E+02  0.90388634186E+02  0.95250215634E+02  0.00000000000E+00 0. -1.
<scales pt_clust_5="13000.00000" pt_clust_6="13000.00000" pt_clust_7="13000.00000" pt_clust_8="13000.00000" pt_clust_9="30.04161"></scales>
<clustering>
<clus scale="   30.042">  1  9  2 -1</clus>
<clus scale="   80.531">  5  6 -1 -1</clus>
<clus scale="   92.042">  7  8 -1 -1</clus>
<clus scale="   99.612">  2  5  1 -1</clus>
<clus scale="   30.042">  1  5  2 -1</clus>
</clustering>
</event>
<event>
 9    1  0.1973774E-005  0.2205858E+03  0.7546771E-02  0.1137638E+00
         -2   -1    0    0    0  501 -0.00000000000E+00  0.00000000000E+00  0.88286631974E+03  0.88286631974E+03  0.00000000000E+00 0.  1.
          1   -1    0    0  502    0  0.00000000000E+00 -0.00000000000E+00 -0.58884157065E+02  0.58884157065E+02  0.00000000000E+00 0. -1.
         23    2    1    2    0    0 -0.10797912887E+03 -0.14749021990E+03  0.43932056187E+03  0.49195004270E+03  0.12489768293E+03 0.  0.
        -24    2    1    2    0    0  0.12934905200E+03  0.12803979333E+03  0.36121683803E+03  0.41258955383E+03  0.81407431631E+02 0.  0.
         13    1    4    4    0    0  0.97812702168E+02  0.72605983778E+02  0.30166640805E+03  0.32533302220E+03  0.00000000000E+00 0. -1.
        -14    1    4    4    0    0  0.31536349832E+02  0.55433809550E+02  0.59550429980E+02  0.87256531634E+02  0.00000000000E+00 0.  1.
        -13    1    3    3    0    0 -0.11379246535E+03 -0.50969779488E+02  0.24568685157E+03  0.27551528565E+03  0.00000000000E+00 0.  1.
         13    1    3    3    0    0  0.58133364837E+01 -0.96520440413E+02  0.19363371029E+03  0.21643475705E+03  0.00000000000E+00 0. -1.
         21    1    1    2  502  501 -0.21369923133E+02  0.19450426572E+02  0.23444762774E+02  0.37210880265E+02  0.00000000000E+00 0.  1.
<scales pt_clust_5="13000.00000" pt_clust_6="13000.00000" pt_clust_7="13000.00000" pt_clust_8="13000.00000" pt_clust_9="28.89624"></scales>
<clustering>
<clus scale="   28.896">  2  9  1 -1</clus>
<clus scale="   81.407">  5  6 -1 -1</clus>
<clus scale="  124.898">  7  8 -1 -1</clus>
<clus scale="  199.213">  2  5  1 -1</clus>
<clus scale="   28.896">  2  5  1 -1</clus>
</clustering>
</event>
<event>
 9    1  0.1973774E-005  0.2307323E+03  0.7546771E-02  0.1129164E+00
          1   -1    0    0  502    0  0.00000000000E+00  0.00000000000E+00  0.12552118936E+04  0.12552118936E+04  0.00000000000E+00 0. -1.
         -2   -1    0    0    0  501 -0.00000000000E+00 -0.00000000000E+00 -0.57917986880E+02  0.57917986880E+02  0.00000000000E+00 0.  1.
        -24    2    1    2    0    0 -0.12595851146E+03 -0.15624583871E+03  0.23777092806E+03  0.31706347631E+03  0.60958387922E+02 0.  0.
         23    2    1    2    0    0  0.14847768787E+03  0.16233098764E+03  0.87167341519E+03  0.90517257519E+03  0.10547926234E+03 0.  0.
         11    1    3    3    0    0 -0.88811872980E+01 -0.52621301495E+02  0.62976378034E+02  0.82546356971E+02  0.00000000000E+00 0. -1.
        -12    1    3    3    0    0 -0.11707732416E+03 -0.10362453722E+03  0.17479455002E+03  0.23451711934E+03  0.00000000000E+00 0.  1.
        -13    1    4    4    0    0  0.28995699709E+02  0.22065993983E+01  0.37756257100E+02  0.47656632621E+02  0.00000000000E+00 0.  1.
         13    1    4    4    0    0  0.11948198816E+03  0.16012438824E+03  0.83391715809E+03  0.85751594257E+03  0.00000000000E+00 0. -1.
         21    1    1    2  502  501 -0.22519176408E+02 -0.60851489327E+01  0.87849563463E+02  0.90893828966E+02  0.00000000000E+00 0.  1.
<scales pt_clust_5="13000.00000" pt_clust_6="13000.00000" pt_clust_7="13000.00000" pt_clust_8="13000.00000" pt_clust_9="23.32686"></scales>
<clustering>
<clus scale="   23.327">  1  9  2 -1</clus>
<clus scale="   60.958">  5  6 -1 -1</clus>
<clus scale="  105.479">  7  8 -1 -1</clus>
<clus scale="  214.073">  2  5  1 -1</clus>
<clus scale="   23.327">  1  5  2 -1</clus>
</clustering>
</event>
<event>
 9    1  0.1973774E-005  0.1320155E+03  0.7546771E-02  0.1226956E+00
          1   -1    0    0  502    0  0.00000000000E+00  0.00000000000E+00  0.46751288162E+03  0.46751288162E+03  0.00000000000E+00 0. -1.
         -2   -1    0    0    0  501 -0.00000000000E+00 -0.00000000000E+00 -0.87622490471E+02  0.87622490471E+02  0.00000000000E+00 0.  1.
         23    2    1    2    0    0  0.10271414917E+03 -0.15174353049E+02 -0.25913483739E+01  0.13827747642E+03  0.91287939888E+02 0.  0.
        -24    2    1    2    0    0 -0.52384868966E+02  0.10514216928E+02  0.32962760230E+03  0.34372573355E+03  0.81475766053E+02 0.  0.
         13    1    4    4    0    0 -0.59190295331E+02  0.36825640649E+02  0.22004611027E+03  0.23082441273E+03  0.00000000000E+00 0. -1.
        -14    1    4    4    0    0  0.68054263648E+01 -0.26311423722E+02  0.10958149203E+03  0.11290132081E+03  0.00000000000E+00 0.  1.
        -13    1    3    3    0    0  0.81392158321E+02 -0.18658117228E+02 -0.41897646632E+02  0.93424951528E+02  0.00000000000E+00 0.  1.
         13    1    3    3    0    0  0.21321990848E+02  0.34837641796E+01  0.39306298258E+02  0.44852524894E+02  0.00000000000E+00 0. -1.
         21    1    1    2  502  501 -0.50329280203E+02  0.46601361210E+01  0.52854137228E+02  0.73132162121E+02  0.00000000000E+00 0. -1.
<scales pt_clust_5="13000.00000" pt_clust_6="13000.00000" pt_clust_7="13000.00000" pt_clust_8="13000.00000" pt_clust_9="50.54457"></scales>
<clustering>
<clus scale="   50.545">  1  9  2 -1</clus>
<clus scale="   81.476">  5  6 -1 -1</clus>
<clus scale="   91.288">  7  8 -1 -1</clus>
<clus scale="  125.431">  1  5  2 -1</clus>
<clus scale="   50.545">  1  5  2 -1</clus>
</clustering>
</event>
<event>
 9    1  0.1973774E-005  0.9518056E+02  0.7546771E-02  0.1295913E+00
          1   -1    0    0  502    0  0.00000000000E+00  0.00000000000E+00  0.37420086283E+03  0.37420086283E+03  0.00000000000E+00 0. -1.
         -2   -1    0    0    0  501 -0.00000000000E+00 -0.00000000000E+00 -0.47010750722E+02  0.47010750722E+02  0.00000000000E+00 0.  1.
         23    2    1    2    0    0  0.23625110788E+01 -0.30588269378E+02  0.25749405293E+02  0.99249375816E+02  0.90808496545E+02 0.  0.
        -24    2    1    2    0    0 -0.22107149276E+02  0.17874444181E+02  0.20085788344E+03  0.21867430791E+03  0.81647668664E+02 0.  0.
         11    1    4    4    0    0 -0.38175275557E+02  0.36199620413E+02  0.17667083077E+03  0.18433758875E+03  0.00000000000E+00 0. -1.
        -12    1    4    4    0    0  0.16068126281E+02 -0.18325176231E+02  0.24187052671E+02  0.34336719165E+02  0.00000000000E+00 0.  1.
        -11    1    3    3    0    0 -0.36631451305E+02 -0.38814592812E+02  0.26065952264E+02  0.59395872813E+02  0.00000000000E+00 0.  1.
         11    1    3    3    0    0  0.38993962383E+02  0.82263234344E+01 -0.31654697046E+00  0.39853503003E+02  0.00000000000E+00 0. -1.
         21    1    1    2  502  501  0.19744638198E+02  0.12713825196E+02  0.10058282338E+03  0.10328792983E+03  0.00000000000E+00 0. -1.
<scales pt_clust_5="13000.00000" pt_clust_6="13000.00000" pt_clust_7="13000.00000" pt_clust_8="13000.00000" pt_clust_9="23.48387"></scales>
<clustering>
<clus scale="   23.484">  1  9  2 -1</clus>
<clus scale="   81.648">  5  6 -1 -1</clus>
<clus scale="   86.484">  1  5  2 -1</clus>
<clus scale="   90.808">  7  8 -1 -1</clus>
<clus scale="   23.484">  1  5  2 -1</clus>
</clustering>
</event>
<event>
 9    1  0.1973774E-005  0.1247303E+03  0.7546771E-02  0.1243013E+00
          1   -1    0    0  502    0  0.00000000000E+00  0.00000000000E+00  0.33449451396E+03  0.33449451396E+03  0.00000000000E+00 0. -1.
         -2   -1    0    0    0  501 -0.00000000000E+00 -0.00000000000E+00 -0.10636400596E+03  0.10636400596E+03  0.00000000000E+00 0.  1.
        -24    2    1    2    0    0 -0.72148653809E+02 -0.35335898547E+02 -0.46666008706E+02  0.12031377960E+03  0.76443673510E+02 0.  0.
         23    2    1    2    0    0  0.55421392811E+02 -0.11733527762E+02  0.18098534381E+03  0.21426271780E+03  0.99717656954E+02 0.  0.
         13    1    3    3    0    0 -0.38346487125E+02 -0.67177959789E+01  0.17226627292E+02  0.42571569685E+02  0.00000000000E+00 0. -1.
        -14    1    3    3    0    0 -0.33802166684E+02 -0.28618102568E+02 -0.63892635998E+02  0.77742209911E+02  0.00000000000E+00 0.  1.
        -13    1    4    4    0    0  0.71240522738E+02  0.18435968042E+02  0.15444165639E+03  0.17107694826E+03  0.00000000000E+00 0. -1.
         13    1    4    4    0    0 -0.15819129927E+02 -0.30169495803E+02  0.26543687426E+02  0.43185769541E+02  0.00000000000E+00 0.  1.
         21    1    1    2  502  501  0.16727260997E+02  0.47069426309E+02  0.93811172888E+02  0.10628202253E+03  0.00000000000E+00 0. -1.
<scales pt_clust_5="13000.00000" pt_clust_6="13000.00000" pt_clust_7="13000.00000" pt_clust_8="13000.00000" pt_clust_9="49.95330"></scales>
<clustering>
<clus scale="   49.953">  1  9  2 -1</clus>
<clus scale="   76.444">  5  6 -1 -1</clus>
<clus scale="   99.718">  7  8 -1 -1</clus>
<clus scale="  107.040">  2  5  1 -1</clus>
<clus scale="   49.953">  1  5  2 -1</clus>
</clustering>
</event>
<event>
 9    1  0.1973774E-005  0.2208784E+03  0.7546771E-02  0.1134057E+00
          1   -1    0    0  502    0  0.00000000000E+00  0.00000000000E+00  0.46016338447E+03  0.46016338447E+03  0.00000000000E+00 0. -1.
         -2   -1    0    0    0  501 -0.00000000000E+00 -0.00000000000E+00 -0.69441438241E+03  0.69441438241E+03  0.00000000000E+00 0.  1.
         23    2    1    2    0    0  0.11624750850E+03 -0.16315684928E+03 -0.63388524996E+03  0.67104173869E+03  0.91394005528E+02 0.  0.
        -24    2    1    2    0    0 -0.10184999083E+03  0.19434229108E+03  0.37284733391E+03  0.43997734047E+03  0.80140994410E+02 0.  0.
         11    1    4    4    0    0 -0.84674097971E+02  0.76070546105E+02  0.19211616089E+03  0.22330483677E+03  0.00000000000E+00 0. -1.
        -12    1    4    4    0    0 -0.17175892863E+02  0.11827174497E+03  0.18073117303E+03  0.21667250369E+03  0.00000000000E+00 0.  1.
        -13    1    3    3    0    0 -0.96431776532E+01 -0.40655060575E+02 -0.16868637303E+03  0.17378411110E+03  0.00000000000E+00 0. -1.
         13    1    3    3    0    0  0.12589068616E+03 -0.12250178870E+03 -0.46519887693E+03  0.49725762759E+03  0.00000000000E+00 0.  1.
         21    1    1    2  502  501 -0.14397517668E+02 -0.31185441797E+02  0.26786918107E+02  0.43558687730E+02  0.00000000000E+00 0. -1.
<scales pt_clust_5="13000.00000" pt_clust_6="13000.00000" pt_clust_7="13000.00000" pt_clust_8="13000.00000" pt_clust_9="34.34851"></scales>
<clustering>
<clus scale="   34.349">  1  9  2 -1</clus>
<clus scale="   80.141">  5  6 -1 -1</clus>
<clus scale="   91.394">  7  8 -1 -1</clus>
<clus scale="  216.465">  1  5  2 -1</clus>
<clus scale="   34.349">  1  5  2 -1</clus>
</clustering>
</event>
<event>
 9    1  0.1973774E-005  0.1281640E+03  0.7546771E-02  0.1232460E+00
         -2   -1    0    0    0  501 -0.00000000000E+00  0.00000000000E+00  0.58375223186E+02  0.58375223186E+02  0.00000000000E+00 0.  1.
          1   -1    0    0  502    0  0.00000000000E+00 -0.00000000000E+00 -0.61355139105E+03  0.61355139105E+03  0.00000000000E+00 0. -1.
         23    2    1    2    0    0 -0.87551545150E+02 -0.42826560535E+02 -0.44028870131E+02  0.14021072387E+03  0.90670382913E+02 0.  0.
        -24    2    1    2    0    0  0.64348765276E+02  0.83468372669E+01 -0.37619717767E+03  0.39051123317E+03  0.82245203236E+02 0.  0.
         11    1    4    4    0    0  0.29524343114E+02  0.40987942960E+02 -0.12502483827E+03  0.13484401540E+03  0.00000000000E+00 0. -1.
        -12    1    4    4    0    0  0.34824422162E+02 -0.32641105694E+02 -0.25117233941E+03  0.25566721777E+03  0.00000000000E+00 0.  1.
        -13    1    3    3    0    0 -0.68441764072E+02 -0.65368033224E+02 -0.10043805474E+02  0.95174223744E+02  0.00000000000E+00 0.  1.
         13    1    3    3    0    0 -0.19109781078E+02  0.22541472689E+02 -0.33985064657E+02  0.45036500125E+02  0.00000000000E+00 0. -1.
         21    1    1    2  502  501  0.23202779873E+02  0.34479723268E+02 -0.13495012006E+03  0.14120465720E+03  0.00000000000E+00 0. -1.
<scales pt_clust_5="13000.00000" pt_clust_6="13000.00000" pt_clust_7="13000.00000" pt_clust_8="13000.00000" pt_clust_9="41.55984"></scales>
<clustering>
<clus scale="   41.560">  2  9  1 -1</clus>
<clus scale="   82.245">  5  6 -1 -1</clus>
<clus scale="   90.670">  7  8 -1 -1</clus>
<clus scale="  122.349">  2  5  1 -1</clus>
<clus scale="   41.560">  2  5  1 -1</clus>
</clustering>
</event>
<event>
 9    1  0.1973774E-005  0.8009942E+02  0.7546771E-02  0.1330934E+00
          1   -1    0    0  502    0  0.00000000000E+00  0.00000000000E+00  0.37176916137E+03  0.37176916137E+03  0.00000000000E+00 0. -1.
         -2   -1    0    0    0  501 -0.00000000000E+00 -0.00000000000E+00 -0.39225088463E+02  0.39225088463E+02  0.00000000000E+00 0.  1.
         23    2    1    2    0    0  0.15997254675E+02 -0.16703617012E+02  0.52212159811E+02  0.95610991516E+02  0.76683955871E+02 0.  0.
        -24    2    1    2    0    0  0.33042813324E+02 -0.12695775904E+02  0.16291949314E+03  0.18478873725E+03  0.79693826180E+02 0.  0.
         13    1    4    4    0    0  0.51273447940E+02 -0.24177459729E+02  0.73560154390E+02  0.92868790972E+02  0.00000000000E+00 0. -1.
        -14    1    4    4    0    0 -0.18230634616E+02  0.11481683825E+02  0.89359338753E+02  0.91919946282E+02  0.00000000000E+00 0.  1.
        -11    1    3    3    0    0  0.42594323567E+02 -0.92487202929E+00  0.10846751504E+02  0.43963437157E+02  0.00000000000E+00 0. -1.
         11    1    3    3    0    0 -0.26597068892E+02 -0.15778744982E+02  0.41365408307E+02  0.51647554359E+02  0.00000000000E+00 0.  1.
         21    1    1    2  502  501 -0.49040067999E+02  0.29399392916E+02  0.11741241996E+03  0.13059452107E+03  0.00000000000E+00 0.  1.
<scales pt_clust_5="13000.00000" pt_clust_6="13000.00000" pt_clust_7="13000.00000" pt_clust_8="13000.00000" pt_clust_9="57.17738"></scales>
<clustering>
<clus scale="   57.177">  1  9  2 -1</clus>
<clus scale="   76.684">  7  8 -1 -1</clus>
<clus scale="   77.105">  2  7  1 -1</clus>
<clus scale="   79.694">  5  6 -1 -1</clus>
<clus scale="   57.177">  1  5  2 -1</clus>
</clustering>
</event>
<event>
 9    1  0.1973774E-005  0.1114103E+03  0.7546771E-02  0.1261257E+00
         -2   -1    0    0    0  501 -0.00000000000E+00  0.00000000000E+00  0.28931146267E+03  0.28931146267E+03  0.00000000000E+00 0.  1.
          1   -1    0    0  502    0  0.00000000000E+00 -0.00000000000E+00 -0.21347950291E+03  0.21347950291E+03  0.00000000000E+00 0. -1.
         23    2    1    2    0    0 -0.67340768464E+02  0.28172660438E+02  0.24317961337E+03  0.26982645630E+03  0.91331890743E+02 0.  0.
        -24    2    1    2    0    0  0.52637056049E+00  0.12519133916E+02 -0.80822097776E+02  0.11631693018E+03  0.82706777100E+02 0.  0.
         13    1    4    4    0    0  0.17416838761E+02 -0.28722712663E+02 -0.14908104319E+02  0.36750402304E+02  0.00000000000E+00 0. -1.
        -14    1    4    4    0    0 -0.16890468200E+02  0.41241846578E+02 -0.65913993458E+02  0.79566527879E+02  0.00000000000E+00 0.  1.
        -11    1    3    3    0    0 -0.84311615303E+02  0.13569255987E+02  0.22603016016E+03  0.24162410162E+03  0.00000000000E+00 0.  1.
         11    1    3    3    0    0  0.16970846839E+02  0.14603404451E+02  0.17149453216E+02  0.28202354682E+02  0.00000000000E+00 0. -1.
         21    1    1    2  502  501  0.66814397904E+02 -0.40691794353E+02 -0.86525555839E+02  0.11664757909E+03  0.00000000000E+00 0. -1.
<scales pt_clust_5="13000.00000" pt_clust_6="13000.00000" pt_clust_7="13000.00000" pt_clust_8="13000.00000" pt_clust_9="78.23034"></scales>
<clustering>
<clus scale="   78.230">  2  9  1 -1</clus>
<clus scale="   82.707">  5  6 -1 -1</clus>
<clus scale="   91.332">  7  8 -1 -1</clus>
<clus scale="  104.456">  2  5  1 -1</clus>
<clus scale="   78.230">  2  5  1 -1</clus>
</clustering>
</event>
<event>
 9    1  0.1973774E-005  0.1281956E+03  0.7546771E-02  0.1233581E+00
          3   -1    0    0  502    0  0.00000000000E+00  0.00000000000E+00  0.20427176333E+03  0.20427176333E+03  0.00000000000E+00 0. -1.
         -4   -1    0    0    0  501 -0.00000000000E+00 -0.00000000000E+00 -0.11059726180E+03  0.11059726180E+03  0.00000000000E+00 0.  1.
        -24    2    1    2    0    0  0.37490449189E+02 -0.78432559420E+02 -0.23025581579E+02  0.12024547774E+03  0.79822286063E+02 0.  0.
         23    2    1    2    0    0 -0.58308294288E+02  0.75521966523E+02  0.89053166054E+02  0.15989306729E+03  0.92368295276E+02 0.  0.
         11    1    3    3    0    0  0.25951939837E+02 -0.27400899211E+02  0.28131851923E+02  0.47071366578E+02  0.00000000000E+00 0. -1.
        -12    1    3    3    0    0  0.11538509351E+02 -0.51031660209E+02 -0.51157433502E+02  0.73174111162E+02  0.00000000000E+00 0.  1.
        -13    1    4    4    0    0 -0.28153439425E+02  0.66750440230E+02  0.78986484297E+01  0.72874042493E+02  0.00000000000E+00 0.  1.
         13    1    4    4    0    0 -0.30154854863E+02  0.87715262937E+01  0.81154517625E+02  0.87019024794E+02  0.00000000000E+00 0. -1.
         21    1    1    2  502  501  0.20817845099E+02  0.29105928969E+01  0.27646917058E+02  0.34730480106E+02  0.00000000000E+00 0. -1.
<scales pt_clust_5="13000.00000" pt_clust_6="13000.00000" pt_clust_7="13000.00000" pt_clust_8="13000.00000" pt_clust_9="21.02033"></scales>
<clustering>
<clus scale="   21.020">  1  9  2 -1</clus>
<clus scale="   79.822">  5  6 -1 -1</clus>
<clus scale="   92.368">  7  8 -1 -1</clus>
<clus scale="  119.473">  2  5  1 -1</clus>
<clus scale="   21.020">  1  5  2 -1</clus>
</clustering>
</event>
<event>
 9    1  0.1973774E-005  0.1270374E+03  0.7546771E-02  0.1234500E+00
         -2   -1    0    0    0  501 -0.00000000000E+00  0.00000000000E+00  0.59922910169E+02  0.59922910169E+02  0.00000000000E+00 0.  1.
          1   -1    0    0  502    0  0.00000000000E+00 -0.00000000000E+00 -0.40205533659E+03  0.40205533659E+03  0.00000000000E+00 0. -1.
        -24    2    1    2    0    0 -0.20614416313E+02  0.91819344241E+02 -0.42087418048E+02  0.13116187950E+03  0.81094646792E+02 0.  0.
         23    2    1    2    0    0  0.20401725167E+02 -0.70147179506E+02 -0.26759937531E+03  0.29179781954E+03  0.90552110064E+02 0.  0.
         11    1    3    3    0    0  0.22377674111E+02  0.48966729934E+01 -0.22739025013E+02  0.32276941670E+02  0.00000000000E+00 0. -1.
        -12    1    3    3    0    0 -0.42992090424E+02  0.86922671248E+02 -0.19348393035E+02  0.98884937826E+02  0.00000000000E+00 0.  1.
        -11    1    4    4    0    0 -0.35939801682E+02 -0.32533937654E+02 -0.10498819011E+03  0.11564015958E+03  0.00000000000E+00 0.  1.
         11    1    4    4    0    0  0.56341526849E+02 -0.37613241852E+02 -0.16261118520E+03  0.17615765996E+03  0.00000000000E+00 0. -1.
         21    1    1    2  502  501  0.21269114635E+00 -0.21672164735E+02 -0.32445633054E+02  0.39018547719E+02  0.00000000000E+00 0. -1.
<scales pt_clust_5="13000.00000" pt_clust_6="13000.00000" pt_clust_7="13000.00000" pt_clust_8="13000.00000" pt_clust_9="21.67321"></scales>
<clustering>
<clus scale="   21.673">  2  9  1 -1</clus>
<clus scale="   81.095">  5  6 -1 -1</clus>
<clus scale="   90.552">  7  8 -1 -1</clus>
<clus scale="  120.479">  1  5  2 -1</clus>
<clus scale="   21.673">  2  5  1 -1</clus>
</clustering>
</event>
<event>
 9    1  0.1973774E-005  0.1272551E+03  0.7546771E-02  0.1241397E+00
         -2   -1    0    0    0  501 -0.00000000000E+00  0.00000000000E+00  0.10508722403E+03  0.10508722403E+03  0.00000000000E+00 0.  1.
          1   -1    0    0  502    0  0.00000000000E+00 -0.00000000000E+00 -0.26210182040E+03  0.26210182040E+03  0.00000000000E+00 0. -1.
         23    2    1    2    0    0 -0.41383623898E+02 -0.31971564753E+02  0.42939095652E+01  0.11956283228E+03  0.10743392353E+03 0.  0.
        -24    2    1    2    0    0  0.93804322857E+02  0.44559570032E+02 -0.90579075216E+02  0.15869342895E+03  0.78703425963E+02 0.  0.
         11    1    4    4    0    0  0.73363599028E+02  0.50073914632E+02 -0.10149504205E+03  0.13487348943E+03  0.00000000000E+00 0. -1.
        -12    1    4    4    0    0  0.20440723829E+02 -0.55143445996E+01  0.10915966839E+02  0.23819939526E+02  0.00000000000E+00 0.  1.
        -11    1    3    3    0    0 -0.73793049887E+02 -0.14662385349E+01  0.10759858061E+02  0.74587791310E+02  0.00000000000E+00 0.  1.
         11    1    3    3    0    0  0.32409425989E+02 -0.30505326218E+02 -0.64659484960E+01  0.44975040974E+02  0.00000000000E+00 0. -1.
         21    1    1    2  502  501 -0.52420698959E+02 -0.12588005279E+02 -0.70729430716E+02  0.88932783189E+02  0.00000000000E+00 0.  1.
<scales pt_clust_5="13000.00000" pt_clust_6="13000.00000" pt_clust_7="13000.00000" pt_clust_8="13000.00000" pt_clust_9="53.91092"></scales>
<clustering>
<clus scale="   53.911">  2  9  1 -1</clus>
<clus scale="   78.703">  5  6 -1 -1</clus>
<clus scale="  104.144">  2  5  1 -1</clus>
<clus scale="  107.434">  7  8 -1 -1</clus>
<clus scale="   53.911">  2  5  1 -1</clus>
</clustering>
</event>
<event>
 9    1  0.1973774E-005  0.9808703E+02  0.7546771E-02  0.1289844E+00
         -2   -1    0    0    0  501 -0.00000000000E+00  0.00000000000E+00  0.94865350928E+02  0.94865350928E+02  0.00000000000E+00 0.  1.
          1   -1    0    0  502    0  0.00000000000E+00 -0.00000000000E+00 -0.29092160603E+03  0.29092160603E+03  0.00000000000E+00 0. -1.
        -24    2    1    2    0    0  0.48486809018E+02 -0.17546862637E+01  0.26663433815E+02  0.97172829442E+02  0.79859692625E+02 0.  0.
         23    2    1    2    0    0 -0.13650455031E+02 -0.39323936542E+02 -0.21129853571E+03  0.23355536299E+03  0.90378811003E+02 0.  0.
         13    1    3    3    0    0 -0.27397344276E+01 -0.32047210026E+02  0.18493312146E+02  0.37101649684E+02  0.00000000000E+00 0. -1.
        -14    1    3    3    0    0  0.51226543446E+02  0.30292523762E+02  0.81701216697E+01  0.60071179757E+02  0.00000000000E+00 0.  1.
        -11    1    4    4    0    0  0.17313421255E+02  0.14846670782E+02 -0.14319079375E+02  0.26929801763E+02  0.00000000000E+00 0.  1.
         11    1    4    4    0    0 -0.30963876285E+02 -0.54170607324E+02 -0.19697945634E+03  0.20662556122E+03  0.00000000000E+00 0. -1.
         21    1    1    2  502  501 -0.34836353988E+02  0.41078622806E+02 -0.11421153203E+02  0.55058764528E+02  0.00000000000E+00 0.  1.
<scales pt_clust_5="13000.00000" pt_clust_6="13000.00000" pt_clust_7="13000.00000" pt_clust_8="13000.00000" pt_clust_9="53.86116"></scales>
<clustering>
<clus scale="   53.861">  1  9  2 -1</clus>
<clus scale="   79.860">  5  6 -1 -1</clus>
<clus scale="   88.489">  1  5  2 -1</clus>
<clus scale="   90.379">  7  8 -1 -1</clus>
<clus scale="   98.087">  2  5  1 -1</clus>
</clustering>
</event>
<event>
 9    1  0.1973774E-005  0.9367981E+02  0.7546771E-02  0.1301781E+00
          1   -1    0    0  502    0  0.00000000000E+00  0.00000000000E+00  0.84598936237E+03  0.84598936237E+03  0.00000000000E+00 0. -1.
         -2   -1    0    0    0  501 -0.00000000000E+00 -0.00000000000E+00 -0.12341400875E+02  0.12341400875E+02  0.00000000000E+00 0.  1.
        -24    2    1    2    0    0 -0.19804618887E+01 -0.29059124802E+02  0.25701876318E+03  0.27035779073E+03  0.78653260700E+02 0.  0.
         23    2    1    2    0    0  0.20851399847E+01  0.75631787094E+01  0.42053802858E+03  0.43040857322E+03  0.91311318784E+02 0.  0.
         11    1    3    3    0    0  0.26733847889E+02 -0.41367441150E+02  0.19208774696E+03  0.19830195748E+03  0.00000000000E+00 0. -1.
        -12    1    3    3    0    0 -0.28714309778E+02  0.12308316349E+02  0.64931016224E+02  0.72055833249E+02  0.00000000000E+00 0.  1.
        -13    1    4    4    0    0 -0.18762092605E+02 -0.37173504047E+02  0.16715628879E+03  0.17226465222E+03  0.00000000000E+00 0. -1.
         13    1    4    4    0    0  0.20847232589E+02  0.44736682756E+02  0.25338173979E+03  0.25814392100E+03  0.00000000000E+00 0.  1.
         21    1    1    2  502  501 -0.10467809599E+00  0.21495946092E+02  0.15609116973E+03  0.15756439929E+03  0.00000000000E+00 0.  1.
<scales pt_clust_5="13000.00000" pt_clust_6="13000.00000" pt_clust_7="13000.00000" pt_clust_8="13000.00000" pt_clust_9="21.49620"></scales>
<clustering>
<clus scale="   21.496">  1  9  2 -1</clus>
<clus scale="   78.653">  5  6 -1 -1</clus>
<clus scale="   81.391">  2  5  1 -1</clus>
<clus scale="   91.311">  7  8 -1 -1</clus>
<clus scale="   21.496">  1  5  2 -1</clus>
</clustering>
</event>
<event>
 9    1  0.1973774E-005  0.1944272E+03  0.7546771E-02  0.1155293E+00
         -4   -1    0    0    0  501 -0.00000000000E+00  0.00000000000E+00  0.19608057436E+03  0.19608057436E+03  0.00000000000E+00 0.  1.
          3   -1    0    0  502    0  0.00000000000E+00 -0.00000000000E+00 -0.32522648673E+03  0.32522648673E+03  0.00000000000E+00 0. -1.
         23    2    1    2    0    0 -0.10658238689E+03 -0.15300256634E+03  0.32464655672E+02  0.21159039121E+03  0.94588314734E+02 0.  0.
        -24    2    1    2    0    0  0.18483802204E+02  0.14986158156E+03 -0.12341287463E+03  0.21364227063E+03  0.87247565036E+02 0.  0.
         13    1    4    4    0    0  0.29743320029E+02  0.14913894036E+03 -0.13043686021E+03  0.20035184831E+03  0.00000000000E+00 0. -1.
        -14    1    4    4    0    0 -0.11259517825E+02  0.72264119719E+00  0.70239855862E+01  0.13290422321E+02  0.00000000000E+00 0.  1.
        -13    1    3    3    0    0 -0.13040009020E+02 -0.86574916590E+02  0.40733875962E+02  0.96563485173E+02  0.00000000000E+00 0.  1.
         13    1    3    3    0    0 -0.93542377872E+02 -0.66427649749E+02 -0.82692202902E+01  0.11502690604E+03  0.00000000000E+00 0. -1.
         21    1    1    2  502  501  0.88098584688E+02  0.31409847828E+01 -0.38197693419E+02  0.96074399254E+02  0.00000000000E+00 0. -1.
<scales pt_clust_5="13000.00000" pt_clust_6="13000.00000" pt_clust_7="13000.00000" pt_clust_8="13000.00000" pt_clust_9="88.15456"></scales>
<clustering>
<clus scale="   87.248">  5  6 -1 -1</clus>
<clus scale="   88.155">  2  9  1 -1</clus>
<clus scale="   94.588">  7  8 -1 -1</clus>
<clus scale="  190.964">  2  5  1 -1</clus>
<clus scale="   88.155">  2  5  1 -1</clus>
</clustering>
</event>
<event>
 9    1  0.1973774E-005  0.9272844E+02  0.7546771E-02  0.1303715E+00
         -2   -1    0    0    0  501 -0.00000000000E+00  0.00000000000E+00  0.90707873391E+02  0.90707873391E+02  0.00000000000E+00 0.  1.
          1   -1    0    0  502    0  0.00000000000E+00 -0.00000000000E+00 -0.50847653277E+03  0.50847653277E+03  0.00000000000E+00 0. -1.
        -24    2    1    2    0    0 -0.48328487963E+02  0.33769132388E+02  0.35460081998E+02  0.10511771040E+03  0.79475270202E+02 0.  0.
         23    2    1    2    0    0  0.11536835567E+02  0.97974975614E+01 -0.41547012824E+03  0.42567525041E+03  0.91405152035E+02 0.  0.
         11    1    3    3    0    0 -0.21323259784E+02  0.53285252505E+02  0.42055147438E+02  0.71152195808E+02  0.00000000000E+00 0. -1.
        -12    1    3    3    0    0 -0.27005228179E+02 -0.19516120117E+02 -0.65950654402E+01  0.33965514593E+02  0.00000000000E+00 0.  1.
        -11    1    4    4    0    0 -0.30777362494E+02 -0.21561361815E+02 -0.22230591699E+03  0.22545966179E+03  0.00000000000E+00 0.  1.
         11    1    4    4    0    0  0.42314198061E+02  0.31358859376E+02 -0.19316421125E+03  0.20021558862E+03  0.00000000000E+00 0. -1.
         21    1    1    2  502  501  0.36791652396E+02 -0.43566629950E+02 -0.37758613141E+02  0.68391445353E+02  0.00000000000E+00 0. -1.
<scales pt_clust_5="13000.00000" pt_clust_6="13000.00000" pt_clust_7="13000.00000" pt_clust_8="13000.00000" pt_clust_9="57.02348"></scales>
<clustering>
<clus scale="   57.023">  1  9  2 -1</clus>
<clus scale="   79.475">  5  6 -1 -1</clus>
<clus scale="   80.994">  1  5  2 -1</clus>
<clus scale="   91.405">  7  8 -1 -1</clus>
<clus scale="   92.728">  2  5  1 -1</clus>
</clustering>
</event>
<event>
 9    1  0.1973774E-005  0.3944845E+03  0.7546771E-02  0.1045706E+00
         -2   -1    0    0    0  501 -0.00000000000E+00  0.00000000000E+00  0.18435612174E+03  0.18435612174E+03  0.00000000000E+00 0.  1.
          1   -1    0    0  502    0  0.00000000000E+00 -0.00000000000E+00 -0.78639695505E+03  0.78639695505E+03  0.00000000000E+00 0. -1.
        -24    2    1    2    0    0 -0.64376956417E+02 -0.21878514838E+03 -0.29457674359E+03  0.38046267517E+03  0.77233772830E+02 0.  0.
         23    2    1    2    0    0 -0.89178145701E+02 -0.86640015810E+02 -0.15004601949E+03  0.21393398924E+03  0.88287653583E+02 0.  0.
         11    1    3    3    0    0 -0.80917300211E+02 -0.18735639478E+03 -0.26334966623E+03  0.33317123952E+03  0.00000000000E+00 0. -1.
        -12    1    3    3    0    0  0.16540343794E+02 -0.31428753606E+02 -0.31227077355E+02  0.47291435653E+02  0.00000000000E+00 0.  1.
        -13    1    4    4    0    0  0.24203033234E+01 -0.54300901635E+02 -0.42384134914E+02  0.68926487499E+02  0.00000000000E+00 0.  1.
         13    1    4    4    0    0 -0.91598449024E+02 -0.32339114174E+02 -0.10766188458E+03  0.14500750174E+03  0.00000000000E+00 0. -1.
         21    1    1    2  502  501  0.15355510212E+03  0.30542516419E+03 -0.15741807023E+03  0.37635641238E+03  0.00000000000E+00 0.  1.
<scales pt_clust_5="13000.00000" pt_clust_6="13000.00000" pt_clust_7="13000.00000" pt_clust_8="13000.00000" pt_clust_9="341.85333"></scales>
<clustering>
<clus scale="   77.234">  5  6 -1 -1</clus>
<clus scale="   88.288">  7  8 -1 -1</clus>
<clus scale="  110.045">  5  7 -1 -1</clus>
<clus scale="  341.853">  1  9  2 -1</clus>
<clus scale="  394.484">  2  5  1 -1</clus>
</clustering>
</event>
<event>
 9    1  0.1973774E-005  0.1118656E+03  0.7546771E-02  0.1259371E+00
         -4   -1    0    0    0  501 -0.00000000000E+00  0.00000000000E+00  0.17498035591E+03  0.17498035591E+03  0.00000000000E+00 0.  1.
          3   -1    0    0  502    0  0.00000000000E+00 -0.00000000000E+00 -0.86760664596E+02  0.86760664596E+02  0.00000000000E+00 0. -1.
         23    2    1    2    0    0  0.58160940954E+02 -0.39099552252E+02  0.52678625040E+02  0.12470567025E+03  0.88684816167E+02 0.  0.
        -24    2    1    2    0    0 -0.66397860528E+02  0.16228954702E+02  0.34862109048E+02  0.11271720765E+03  0.82569651811E+02 0.  0.
         13    1    4    4    0    0 -0.17837161048E+02  0.25480946895E+02  0.51834578899E+02  0.60450529679E+02  0.00000000000E+00 0. -1.
        -14    1    4    4    0    0 -0.48560699480E+02 -0.92519921931E+01 -0.16972469850E+02  0.52266677973E+02  0.00000000000E+00 0.  1.
        -11    1    3    3    0    0 -0.22268379053E+02  0.23819005503E+01  0.80025242167E+01  0.23782231807E+02  0.00000000000E+00 0. -1.
         11    1    3    3    0    0  0.80429320007E+02 -0.41481452803E+02  0.44676100823E+02  0.10092343845E+03  0.00000000000E+00 0.  1.
         21    1    1    2  502  501  0.82369195741E+01  0.22870597551E+02  0.67895722110E+00  0.24318142596E+02  0.00000000000E+00 0. -1.
<scales pt_clust_5="13000.00000" pt_clust_6="13000.00000" pt_clust_7="13000.00000" pt_clust_8="13000.00000" pt_clust_9="24.30866"></scales>
<clustering>
<clus scale="   24.309">  2  9  1 -1</clus>
<clus scale="   82.570">  5  6 -1 -1</clus>
<clus scale="   88.685">  7  8 -1 -1</clus>
<clus scale="  107.082">  2  5  1 -1</clus>
<clus scale="   24.309">  2  5  1 -1</clus>
</clustering>
</event>
<event>
 9    1  0.1973774E-005  0.2798764E+03  0.7546771E-02  0.1096174E+00
         -4   -1    0    0    0  501 -0.00000000000E+00  0.00000000000E+00  0.25191632155E+03  0.25191632155E+03  0.00000000000E+00 0.  1.
          3   -1    0    0  502    0  0.00000000000E+00 -0.00000000000E+00 -0.45630183155E+03  0.45630183155E+03  0.00000000000E+00 0. -1.
         23    2    1    2    0    0  0.17290262630E+03  0.20517609400E+03  0.56476712292E+02  0.28871842199E+03  0.90422123602E+02 0.  0.
        -24    2    1    2    0    0 -0.12527570606E+03 -0.22730170747E+03 -0.24144529774E+03  0.36350970287E+03  0.80519584776E+02 0.  0.
         13    1    4    4    0    0 -0.11116362442E+03 -0.20600491651E+03 -0.24363751100E+03  0.33786774600E+03  0.00000000000E+00 0. -1.
        -14    1    4    4    0    0 -0.14112081636E+02 -0.21296790956E+02  0.21922132565E+01  0.25641956869E+02  0.00000000000E+00 0.  1.
        -11    1    3    3    0    0  0.13713838346E+03  0.17565883199E+03  0.10017515067E+02  0.22307691966E+03  0.00000000000E+00 0.  1.
         11    1    3    3    0    0  0.35764242836E+02  0.29517262007E+02  0.46459197225E+02  0.65641502335E+02  0.00000000000E+00 0. -1.
         21    1    1    2  502  501 -0.47626920238E+02  0.22125613465E+02 -0.19416924547E+02  0.55990028232E+02  0.00000000000E+00 0.  1.
<scales pt_clust_5="13000.00000" pt_clust_6="13000.00000" pt_clust_7="13000.00000" pt_clust_8="13000.00000" pt_clust_9="52.51539"></scales>
<clustering>
<clus scale="   52.515">  2  9  1 -1</clus>
<clus scale="   80.520">  5  6 -1 -1</clus>
<clus scale="   90.422">  7  8 -1 -1</clus>
<clus scale="  276.836">  2  5  1 -1</clus>
<clus scale="   52.515">  2  5  1 -1</clus>
</clustering>
</event>
<event>
 9    1  0.1973774E-005  0.1138053E+03  0.7546771E-02  0.1257245E+00
         -4   -1    0    0    0  501 -0.00000000000E+00  0.00000000000E+00  0.11309427142E+03  0.11309427142E+03  0.00000000000E+00 0.  1.
          3   -1    0    0  502    0  0.00000000000E+00 -0.00000000000E+00 -0.35158938863E+03  0.35158938863E+03  0.00000000000E+00 0. -1.
        -24    2    1    2    0    0 -0.45316948760E+02  0.32808338392E+02  0.17392215128E+02  0.98983055336E+02  0.79781847457E+02 0.  0.
         23    2    1    2    0    0  0.12322354856E+03 -0.10753583373E+02 -0.81056521318E+02  0.17303077575E+03  0.89832105807E+02 0.  0.
         13    1    3    3    0    0 -0.37190988866E+02  0.43692756034E+02 -0.18757113439E+02  0.60366015996E+02  0.00000000000E+00 0. -1.
        -14    1    3    3    0    0 -0.81259598934E+01 -0.10884417641E+02  0.36149328567E+02  0.38617039340E+02  0.00000000000E+00 0.  1.
        -13    1    4    4    0    0  0.73374726566E+01  0.29339812895E+02 -0.15709108640E+02  0.34079894659E+02  0.00000000000E+00 0. -1.
         13    1    4    4    0    0  0.11588607590E+03 -0.40093396268E+02 -0.65347412678E+02  0.13895088109E+03  0.00000000000E+00 0.  1.
         21    1    1    2  502  501 -0.77906599796E+02 -0.22054755020E+02 -0.17483081103E+03  0.19266982897E+03  0.00000000000E+00 0. -1.
<scales pt_clust_5="13000.00000" pt_clust_6="13000.00000" pt_clust_7="13000.00000" pt_clust_8="13000.00000" pt_clust_9="80.96821"></scales>
<clustering>
<clus scale="   79.782">  5  6 -1 -1</clus>
<clus scale="   80.968">  2  9  1 -1</clus>
<clus scale="   89.832">  7  8 -1 -1</clus>
<clus scale="  106.052">  1  5  2 -1</clus>
<clus scale="   80.968">  2  5  1 -1</clus>
</clustering>
</event>
<event>
 9    1  0.1973774E-005  0.9350238E+02  0.7546771E-02  0.1297945E+00
         -2   -1    0    0    0  501 -0.00000000000E+00  0.00000000000E+00  0.34493804248E+02  0.34493804248E+02  0.00000000000E+00 0.  1.
          1   -1    0    0  502    0  0.00000000000E+00 -0.00000000000E+00 -0.47969371493E+03  0.47969371493E+03  0.00000000000E+00 0. -1.
         23    2    1    2    0    0 -0.36610815148E+02  0.14083058686E+02 -0.58149858371E+02  0.11205734021E+03  0.87388541233E+02 0.  0.
        -24    2    1    2    0    0  0.11641751720E+02 -0.78720084263E+01 -0.27224650365E+03  0.28447863389E+03  0.81316883184E+02 0.  0.
         13    1    4    4    0    0  0.42273492466E+02  0.41730680563E+00 -0.89313099047E+02  0.98813217596E+02  0.00000000000E+00 0. -1.
        -14    1    4    4    0    0 -0.30631740746E+02 -0.82893152319E+01 -0.18293340461E+03  0.18566541630E+03  0.00000000000E+00 0.  1.
        -13    1    3    3    0    0  0.78144140983E+01 -0.29401017064E+02 -0.33315503140E+02  0.45115492035E+02  0.00000000000E+00 0. -1.
         13    1    3    3    0    0 -0.44425229247E+02  0.43484075750E+02 -0.24834355230E+02  0.66941848175E+02  0.00000000000E+00 0.  1.
         21    1    1    2  502  501  0.24969063428E+02 -0.62110502594E+01 -0.11480354866E+03  0.11765154507E+03  0.00000000000E+00 0. -1.
<scales pt_clust_5="13000.00000" pt_clust_6="13000.00000" pt_clust_7="13000.00000" pt_clust_8="13000.00000" pt_clust_9="25.72997"></scales>
<clustering>
<clus scale="   25.730">  2  9  1 -1</clus>
<clus scale="   81.317">  5  6 -1 -1</clus>
<clus scale="   87.389">  7  8 -1 -1</clus>
<clus scale="   87.854">  2  5  1 -1</clus>
<clus scale="   25.730">  2  5  1 -1</clus>
</clustering>
</event>
<event>
 9    1  0.1973774E-005  0.9504670E+02  0.7546771E-02  0.1297311E+00
         -2   -1    0    0    0  501 -0.00000000000E+00  0.00000000000E+00  0.29104666670E+02  0.29104666670E+02  0.00000000000E+00 0.  1.
          1   -1    0    0  502    0  0.00000000000E+00 -0.00000000000E+00 -0.57356668274E+03  0.57356668274E+03  0.00000000000E+00 0. -1.
         23    2    1    2    0    0  0.17495852519E+00  0.36537115823E+02 -0.91992189264E+02  0.13509354753E+03  0.91938633103E+02 0.  0.
        -24    2    1    2    0    0 -0.12163129229E+02 -0.18997220572E+02 -0.42270011677E+03  0.43100459040E+03  0.81121711787E+02 0.  0.
         11    1    4    4    0    0 -0.28441529925E+02 -0.98339940162E+01 -0.53902378699E+02  0.61734062657E+02  0.00000000000E+00 0. -1.
        -12    1    4    4    0    0  0.16278400696E+02 -0.91632265561E+01 -0.36879773807E+03  0.36927052774E+03  0.00000000000E+00 0.  1.
        -13    1    3    3    0    0 -0.14012405159E+02 -0.28792120627E+02 -0.32013418401E+02  0.45279053283E+02  0.00000000000E+00 0.  1.
         13    1    3    3    0    0  0.14187363684E+02  0.65329236450E+02 -0.59978770863E+02  0.89814494252E+02  0.00000000000E+00 0. -1.
         21    1    1    2  502  501  0.11988170703E+02 -0.17539895251E+02 -0.29769710036E+02  0.36573211479E+02  0.00000000000E+00 0.  1.
<scales pt_clust_5="13000.00000" pt_clust_6="13000.00000" pt_clust_7="13000.00000" pt_clust_8="13000.00000" pt_clust_9="21.24533"></scales>
<clustering>
<clus scale="   21.245">  1  9  2 -1</clus>
<clus scale="   81.122">  5  6 -1 -1</clus>
<clus scale="   84.628">  2  5  1 -1</clus>
<clus scale="   91.939">  7  8 -1 -1</clus>
<clus scale="   84.628">  2  5  1 -1</clus>
</clustering>
</event>
<event>
 9    1  0.1973774E-005  0.1529280E+03  0.7546771E-02  0.1219115E+00
          1   -1    0    0  502    0  0.00000000000E+00  0.00000000000E+00  0.12665023798E+03  0.12665023798E+03  0.00000000000E+00 0. -1.
         -2   -1    0    0    0  501 -0.00000000000E+00 -0.00000000000E+00 -0.33155421637E+03  0.33155421637E+03  0.00000000000E+00 0.  1.
        -24    2    1    2    0    0  0.15004161326E+02  0.48692173280E+02 -0.14227206553E+03  0.17110196518E+03  0.80240197305E+02 0.  0.
         23    2    1    2    0    0  0.83744044317E+02  0.55072279906E+02 -0.41430202065E+02  0.14229992565E+03  0.92123754934E+02 0.  0.
         11    1    3    3    0    0  0.47066051918E+02  0.23374401119E+02 -0.95473981397E+02  0.10898099373E+03  0.00000000000E+00 0. -1.
        -12    1    3    3    0    0 -0.32061890592E+02  0.25317772162E+02 -0.46798084128E+02  0.62120971448E+02  0.00000000000E+00 0.  1.
        -13    1    4    4    0    0 -0.72062580505E+01  0.29836481560E+02 -0.36631806093E+02  0.47791578804E+02  0.00000000000E+00 0.  1.
         13    1    4    4    0    0  0.90950302368E+02  0.25235798346E+02 -0.47983959718E+01  0.94508346842E+02  0.00000000000E+00 0. -1.
         21    1    1    2  502  501 -0.98748205643E+02 -0.10376445319E+03 -0.21201710801E+02  0.14480256353E+03  0.00000000000E+00 0.  1.
<scales pt_clust_5="13000.00000" pt_clust_6="13000.00000" pt_clust_7="13000.00000" pt_clust_8="13000.00000" pt_clust_9="122.06632"></scales>
<clustering>
<clus scale="   80.240">  5  6 -1 -1</clus>
<clus scale="   92.124">  7  8 -1 -1</clus>
<clus scale="   95.050">  2  5  1 -1</clus>
<clus scale="  122.066">  2  9  1 -1</clus>
<clus scale="  152.928">  1  5  2 -1</clus>
</clustering>
</event>
<event>
 9    1  0.1973774E-005  0.1012024E+03  0.7546771E-02  0.1282247E+00
         -2   -1    0    0    0  501 -0.00000000000E+00  0.00000000000E+00  0.57419366491E+03  0.57419366491E+03  0.00000000000E+00 0.  1.
          1   -1    0    0  502    0  0.00000000000E+00 -0.00000000000E+00 -0.18165176670E+03  0.18165176670E+03  0.00000000000E+00 0. -1.
        -24    2    1    2    0    0  0.47133735940E+02 -0.68489885108E+01  0.41726532201E+03  0.42793495339E+03  0.82155204803E+02 0.  0.
         23    2    1    2    0    0 -0.25382157926E+02  0.28486227493E+02  0.13379592842E+03  0.16644937987E+03  0.91369176968E+02 0.  0.
         11    1    3    3    0    0 -0.22343352580E+02 -0.11243551431E+02  0.12681971346E+03  0.12926284298E+03  0.00000000000E+00 0. -1.
        -12    1    3    3    0    0  0.69477088520E+02  0.43945629199E+01  0.29044560855E+03  0.29867211041E+03  0.00000000000E+00 0.  1.
        -11    1    4    4    0    0  0.32192973167E+02  0.24352060453E+02  0.66460364050E+02  0.77758538819E+02  0.00000000000E+00 0.  1.
         11    1    4    4    0    0 -0.57575131092E+02  0.41341670398E+01  0.67335564365E+02  0.88690841048E+02  0.00000000000E+00 0. -1.
         21    1    1    2  502  501 -0.21751578014E+02 -0.21637238982E+02 -0.15851935221E+03  0.16146109835E+03  0.00000000000E+00 0. -1.
<scales pt_clust_5="13000.00000" pt_clust_6="13000.00000" pt_clust_7="13000.00000" pt_clust_8="13000.00000" pt_clust_9="30.68063"></scales>
<clustering>
<clus scale="   30.681">  2  9  1 -1</clus>
<clus scale="   82.155">  5  6 -1 -1</clus>
<clus scale="   91.369">  7  8 -1 -1</clus>
<clus scale="   92.968">  1  5  2 -1</clus>
<clus scale="   30.681">  2  5  1 -1</clus>
</clustering>
</event>
<event>
 9    1  0.1973774E-005  0.2195537E+03  0.7546771E-02  0.1134655E+00
          1   -1    0    0  502    0  0.00000000000E+00  0.00000000000E+00  0.86051861685E+03  0.86051861685E+03  0.00000000000E+00 0. -1.
         -2   -1    0    0    0  501 -0.00000000000E+00 -0.00000000000E+00 -0.23321068661E+03  0.23321068661E+03  0.00000000000E+00 0.  1.
        -24    2    1    2    0    0  0.71601250631E+01 -0.20356950097E+03 -0.16238554281E+03  0.27278172311E+03  0.80925860113E+02 0.  0.
         23    2    1    2    0    0 -0.36715447790E+01  0.17504365853E+03  0.67914033620E+03  0.70672021959E+03  0.86994884277E+02 0.  0.
         11    1    3    3    0    0 -0.11146907398E+02 -0.38508177854E+02 -0.75189139574E+02  0.85208802457E+02  0.00000000000E+00 0. -1.
        -12    1    3    3    0    0  0.18307032461E+02 -0.16506132312E+03 -0.87196403233E+02  0.18757292066E+03  0.00000000000E+00 0.  1.
        -11    1    4    4    0    0  0.16384154368E+02  0.58593221567E+02  0.11257704026E+03  0.12796560523E+03  0.00000000000E+00 0.  1.
         11    1    4    4    0    0 -0.20055699147E+02  0.11645043697E+03  0.56656329595E+03  0.57875461437E+03  0.00000000000E+00 0. -1.
         21    1    1    2  502  501 -0.34885802841E+01  0.28525842440E+02  0.11055313684E+03  0.11422736076E+03  0.00000000000E+00 0.  1.
<scales pt_clust_5="13000.00000" pt_clust_6="13000.00000" pt_clust_7="13000.00000" pt_clust_8="13000.00000" pt_clust_9="28.73837"></scales>
<clustering>
<clus scale="   28.738">  1  9  2 -1</clus>
<clus scale="   80.926">  5  6 -1 -1</clus>
<clus scale="   86.995">  7  8 -1 -1</clus>
<clus scale="  217.220">  2  5  1 -1</clus>
<clus scale="   28.738">  1  5  2 -1</clus>
</clustering>
</event>
<event>
 9    1  0.1973774E-005  0.2206604E+03  0.7546771E-02  0.1133769E+00
         -2   -1    0    0    0  501 -0.00000000000E+00  0.00000000000E+00  0.75244298680E+03  0.75244298680E+03  0.00000000000E+00 0.  1.
          1   -1    0    0  502    0  0.00000000000E+00 -0.00000000000E+00 -0.14245423583E+03  0.14245423583E+03  0.00000000000E+00 0. -1.
        -24    2    1    2    0    0  0.19013602333E+03 -0.16795257721E+02  0.48454909595E+03  0.52688726343E+03  0.79928555157E+02 0.  0.
         23    2    1    2    0    0 -0.25461437058E+03  0.48676176352E+02  0.11117864741E+03  0.29468038417E+03  0.85311132481E+02 0.  0.
         11    1    3    3    0    0  0.63647363809E+02  0.28354571721E+02  0.20981743541E+03  0.22108442925E+03  0.00000000000E+00 0. -1.
        -12    1    3    3    0    0  0.12648865953E+03 -0.45149829442E+02  0.27473166054E+03  0.30580283418E+03  0.00000000000E+00 0.  1.
        -13    1    4    4    0    0 -0.15235503585E+03 -0.74733784135E+01  0.86779918343E+02  0.17549547732E+03  0.00000000000E+00 0. -1.
         13    1    4    4    0    0 -0.10225933473E+03  0.56149554765E+02  0.24398729063E+02  0.11918490684E+03  0.00000000000E+00 0.  1.
         21    1    1    2  502  501  0.64478347244E+02 -0.31880918631E+02  0.14261007615E+02  0.73329575031E+02  0.00000000000E+00 0. -1.
<scales pt_clust_5="13000.00000" pt_clust_6="13000.00000" pt_clust_7="13000.00000" pt_clust_8="13000.00000" pt_clust_9="71.92948"></scales>
<clustering>
<clus scale="   71.929">  2  9  1 -1</clus>
<clus scale="   79.929">  5  6 -1 -1</clus>
<clus scale="   85.311">  7  8 -1 -1</clus>
<clus scale="  218.636">  1  5  2 -1</clus>
<clus scale="   71.929">  2  5  1 -1</clus>
</clustering>
</event>
<event>
 9    1  0.1973774E-005  0.1106832E+03  0.7546771E-02  0.1263972E+00
         -2   -1    0    0    0  501 -0.00000000000E+00  0.00000000000E+00  0.31280234306E+03  0.31280234306E+03  0.00000000000E+00 0.  1.
          1   -1    0    0  502    0  0.00000000000E+00 -0.00000000000E+00 -0.75253087249E+02  0.75253087249E+02  0.00000000000E+00 0. -1.
         23    2    1    2    0    0  0.34493432379E+02  0.48567275721E+02  0.23355978277E+03  0.25799141044E+03  0.91982708087E+02 0.  0.
        -24    2    1    2    0    0 -0.24665367203E+02 -0.66910752204E+02  0.11696238449E+02  0.10787239470E+03  0.80088840944E+02 0.  0.
         13    1    4    4    0    0 -0.20733632880E+02 -0.67070210219E+02 -0.22292748769E+02  0.73656386545E+02  0.00000000000E+00 0. -1.
        -14    1    4    4    0    0 -0.39317343232E+01  0.15945801514E+00  0.33988987218E+02  0.34216008150E+02  0.00000000000E+00 0.  1.
        -13    1    3    3    0    0 -0.71394120825E+01  0.51400884365E+02  0.19278883313E+03  0.19965108639E+03  0.00000000000E+00 0.  1.
         13    1    3    3    0    0  0.41632844462E+02 -0.28336086435E+01  0.40770949644E+02  0.58340324055E+02  0.00000000000E+00 0. -1.
         21    1    1    2  502  501 -0.98280651762E+01  0.18343476483E+02 -0.77067654078E+01  0.22191625169E+02  0.00000000000E+00 0.  1.
<scales pt_clust_5="13000.00000" pt_clust_6="13000.00000" pt_clust_7="13000.00000" pt_clust_8="13000.00000" pt_clust_9="20.81043"></scales>
<clustering>
<clus scale="   20.810">  2  9  1 -1</clus>
<clus scale="   80.089">  5  6 -1 -1</clus>
<clus scale="   91.983">  7  8 -1 -1</clus>
<clus scale="  101.016">  2  5  1 -1</clus>
<clus scale="   20.810">  2  5  1 -1</clus>
</clustering>
</event>
<event>
 9    1  0.1973774E-005  0.1982496E+03  0.7546771E-02  0.1152695E+00
          1   -1    0    0  502    0  0.00000000000E+00  0.00000000000E+00  0.11793636341E+04  0.11793636341E+04  0.00000000000E+00 0. -1.
         -2   -1    0    0    0  501 -0.00000000000E+00 -0.00000000000E+00 -0.63666565924E+02  0.63666565924E+02  0.00000000000E+00 0.  1.
        -24    2    1    2    0    0  0.42613481254E+02  0.16688170287E+03  0.18258225554E+03  0.26331567556E+03  0.79582997066E+02 0.  0.
         23    2    1    2    0    0 -0.11756492912E+03 -0.15014381706E+03  0.56765837779E+03  0.60627606618E+03  0.94709852595E+02 0.  0.
         11    1    3    3    0    0  0.13592530018E+02  0.86166356502E+02  0.14598203360E+03  0.17005926026E+03  0.00000000000E+00 0. -1.
        -12    1    3    3    0    0  0.29020951237E+02  0.80715346364E+02  0.36600221941E+02  0.93256415305E+02  0.00000000000E+00 0.  1.
        -13    1    4    4    0    0 -0.11297053082E+02 -0.62924468568E+02  0.98817166658E+02  0.11769428440E+03  0.00000000000E+00 0.  1.
         13    1    4    4    0    0 -0.10626787604E+03 -0.87219348487E+02  0.46884121114E+03  0.48858178178E+03  0.00000000000E+00 0. -1.
         21    1    1    2  502  501  0.74951447870E+02 -0.16737885812E+02  0.36545643484E+03  0.37343845828E+03  0.00000000000E+00 0. -1.
<scales pt_clust_5="13000.00000" pt_clust_6="13000.00000" pt_clust_7="13000.00000" pt_clust_8="13000.00000" pt_clust_9="76.79763"></scales>
<clustering>
<clus scale="   76.798">  1  9  2 -1</clus>
<clus scale="   79.583">  5  6 -1 -1</clus>
<clus scale="   94.710">  7  8 -1 -1</clus>
<clus scale="  191.485">  2  5  1 -1</clus>
<clus scale="   76.798">  1  5  2 -1</clus>
</clustering>
</event>
<event>
 9    1  0.1973774E-005  0.1173389E+03  0.7546771E-02  0.1250968E+00
         -2   -1    0    0    0  501 -0.00000000000E+00  0.00000000000E+00  0.53536385597E+02  0.53536385597E+02  0.00000000000E+00 0.  1.
          1   -1    0    0  502    0  0.00000000000E+00 -0.00000000000E+00 -0.62856648912E+03  0.62856648912E+03  0.00000000000E+00 0. -1.
         23    2    1    2    0    0  0.30930190576E+02  0.62388774626E+02 -0.33415122662E+02  0.12042013694E+03  0.92387245173E+02 0.  0.
        -24    2    1    2    0    0 -0.20856886162E+02 -0.86356578030E+02 -0.40959973141E+03  0.42713180635E+03  0.82323579537E+02 0.  0.
         13    1    4    4    0    0 -0.43689592488E+02 -0.51188091380E+02 -0.33371590885E+03  0.34043400096E+03  0.00000000000E+00 0. -1.
        -14    1    4    4    0    0  0.22832706326E+02 -0.35168486650E+02 -0.75883822563E+02  0.86697805383E+02  0.00000000000E+00 0.  1.
        -11    1    3    3    0    0 -0.36553357537E+01  0.75097922919E+02 -0.78981474594E+01  0.75600530683E+02  0.00000000000E+00 0.  1.
         11    1    3    3    0    0  0.34585526330E+02 -0.12709148294E+02 -0.25516975203E+02  0.44819606261E+02  0.00000000000E+00 0. -1.
         21    1    1    2  502  501 -0.10073304414E+02  0.23967803404E+02 -0.13201524945E+03  0.13455093143E+03  0.00000000000E+00 0.  1.
<scales pt_clust_5="13000.00000" pt_clust_6="13000.00000" pt_clust_7="13000.00000" pt_clust_8="13000.00000" pt_clust_9="25.99860"></scales>
<clustering>
<clus scale="   25.999">  2  9  1 -1</clus>
<clus scale="   82.324">  5  6 -1 -1</clus>
<clus scale="   92.387">  7  8 -1 -1</clus>
<clus scale="  109.591">  2  5  1 -1</clus>
<clus scale="   25.999">  2  5  1 -1</clus>
</clustering>
</event>
<event>
 9    1  0.1973774E-005  0.1050381E+03  0.7546771E-02  0.1275784E+00
          3   -1    0    0  502    0  0.00000000000E+00  0.00000000000E+00  0.37393384181E+03  0.37393384181E+03  0.00000000000E+00 0. -1.
         -4   -1    0    0    0  501 -0.00000000000E+00 -0.00000000000E+00 -0.52476035332E+02  0.52476035332E+02  0.00000000000E+00 0.  1.
         23    2    1    2    0    0 -0.55253547476E+01  0.47922389271E+02  0.36674993480E+02  0.11128136039E+03  0.93334886752E+02 0.  0.
        -24    2    1    2    0    0  0.40477200664E+02 -0.40214668907E+02  0.20053902327E+03  0.22359679223E+03  0.80771296094E+02 0.  0.
         11    1    4    4    0    0  0.47072328935E+02 -0.58704725880E+02  0.12829925844E+03  0.14873717998E+03  0.00000000000E+00 0. -1.
        -12    1    4    4    0    0 -0.65951282709E+01  0.18490056972E+02  0.72239764826E+02  0.74859612247E+02  0.00000000000E+00 0.  1.
        -11    1    3    3    0    0 -0.46002440082E+02  0.44366304049E+02  0.27773722105E+02  0.69684812320E+02  0.00000000000E+00 0.  1.
         11    1    3    3    0    0  0.40477085334E+02  0.35560852213E+01  0.89012713751E+01  0.41596548070E+02  0.00000000000E+00 0. -1.
         21    1    1    2  502  501 -0.34951845917E+02 -0.77077203631E+01  0.84243789724E+02  0.91531724518E+02  0.00000000000E+00 0. -1.
<scales pt_clust_5="13000.00000" pt_clust_6="13000.00000" pt_clust_7="13000.00000" pt_clust_8="13000.00000" pt_clust_9="35.79163"></scales>
<clustering>
<clus scale="   35.792">  1  9  2 -1</clus>
<clus scale="   80.771">  5  6 -1 -1</clus>
<clus scale="   93.335">  7  8 -1 -1</clus>
<clus scale="   94.051">  1  5  2 -1</clus>
<clus scale="   35.792">  1  5  2 -1</clus>
</clustering>
</event>
<event>
 9    1  0.1973774E-005  0.9287627E+02  0.7546771E-02  0.1303406E+00
         -2   -1    0    0    0  501 -0.00000000000E+00  0.00000000000E+00  0.14292005947E+03  0.14292005947E+03  0.00000000000E+00 0.  1.
          1   -1    0    0  502    0  0.00000000000E+00 -0.00000000000E+00 -0.33727044174E+03  0.33727044174E+03  0.00000000000E+00 0. -1.
        -24    2    1    2    0    0  0.13259329361E+00  0.71405300349E+01  0.92843141679E+02  0.12306909227E+03  0.80468302853E+02 0.  0.
         23    2    1    2    0    0 -0.51611109354E+02  0.16739488235E+00 -0.55121244404E+02  0.11929587138E+03  0.92354852141E+02 0.  0.
         11    1    3    3    0    0  0.39575214340E+02  0.66903888984E+01  0.36235052483E+02  0.54073449327E+02  0.00000000000E+00 0. -1.
        -12    1    3    3    0    0 -0.39442621047E+02  0.45014113645E+00  0.56608089196E+02  0.68995642939E+02  0.00000000000E+00 0.  1.
        -11    1    4    4    0    0  0.16327140521E+02 -0.13580347401E+02 -0.44318331566E+02  0.49143828361E+02  0.00000000000E+00 0. -1.
         11    1    4    4    0    0 -0.67938249876E+02  0.13747742283E+02 -0.10802912837E+02  0.70152043020E+02  0.00000000000E+00 0.  1.
         21    1    1    2  502  501  0.51478516061E+02 -0.73079249172E+01 -0.23207227954E+03  0.23782553756E+03  0.00000000000E+00 0. -1.
<scales pt_clust_5="13000.00000" pt_clust_6="13000.00000" pt_clust_7="13000.00000" pt_clust_8="13000.00000" pt_clust_9="51.99465"></scales>
<clustering>
<clus scale="   51.995">  2  9  1 -1</clus>
<clus scale="   80.468">  5  6 -1 -1</clus>
<clus scale="   81.066">  1  5  2 -1</clus>
<clus scale="   92.355">  7  8 -1 -1</clus>
<clus scale="   51.995">  2  5  1 -1</clus>
</clustering>
</event>
<event>
 9    1  0.1973774E-005  0.1005934E+03  0.7546771E-02  0.1282934E+00
          1   -1    0    0  502    0  0.00000000000E+00  0.00000000000E+00  0.24636920998E+03  0.24636920998E+03  0.00000000000E+00 0. -1.
         -2   -1    0    0    0  501 -0.00000000000E+00 -0.00000000000E+00 -0.65761995675E+02  0.65761995675E+02  0.00000000000E+00 0.  1.
         23    2    1    2    0    0 -0.15963566261E+02 -0.39830968151E+02  0.17506346028E+02  0.99789992027E+02  0.88375499353E+02 0.  0.
        -24    2    1    2    0    0  0.40734679267E+02  0.44155996743E+02  0.88638598120E+02  0.13374767961E+03  0.80140966939E+02 0.  0.
         11    1    4    4    0    0  0.21329327753E+02  0.37804124927E+02  0.10096287949E+03  0.10989811244E+03  0.00000000000E+00 0. -1.
        -12    1    4    4    0    0  0.19405351514E+02  0.63518718160E+01 -0.12324281369E+02  0.23849567170E+02  0.00000000000E+00 0.  1.
        -13    1    3    3    0    0 -0.50494998939E+02 -0.19006780250E+02  0.23813339272E+02  0.58975229890E+02  0.00000000000E+00 0.  1.
         13    1    3    3    0    0  0.34531432678E+02 -0.20824187901E+02 -0.63069932440E+01  0.40814762137E+02  0.00000000000E+00 0. -1.
         21    1    1    2  502  501 -0.24771113007E+02 -0.43250285913E+01  0.74462270157E+02  0.78593534014E+02  0.00000000000E+00 0.  1.
<scales pt_clust_5="13000.00000" pt_clust_6="13000.00000" pt_clust_7="13000.00000" pt_clust_8="13000.00000" pt_clust_9="25.14585"></scales>
<clustering>
<clus scale="   25.146">  1  9  2 -1</clus>
<clus scale="   80.141">  5  6 -1 -1</clus>
<clus scale="   88.375">  7  8 -1 -1</clus>
<clus scale="   93.442">  1  5  2 -1</clus>
<clus scale="   25.146">  1  5  2 -1</clus>
</clustering>
</event>
<event>
 9    1  0.1973774E-005  0.1048580E+03  0.7546771E-02  0.1274220E+00
         -2   -1    0    0    0  501 -0.00000000000E+00  0.00000000000E+00  0.24828013188E+02  0.24828013188E+02  0.00000000000E+00 0.  1.
          1   -1    0    0  502    0  0.00000000000E+00 -0.00000000000E+00 -0.81633682680E+03  0.81633682680E+03  0.00000000000E+00 0. -1.
         23    2    1    2    0    0  0.41007601563E+02  0.47840972152E+02 -0.13603771792E+03  0.17443545649E+03  0.89168861053E+02 0.  0.
        -24    2    1    2    0    0 -0.10238783988E+02 -0.30927464437E+02 -0.48530044491E+03  0.49297427633E+03  0.80285581166E+02 0.  0.
         11    1    4    4    0    0 -0.13690111351E+02 -0.55611838828E+02 -0.25627596377E+03  0.26259753498E+03  0.00000000000E+00 0. -1.
        -12    1    4    4    0    0  0.34513273632E+01  0.24684374391E+02 -0.22902448114E+03  0.23037674136E+03  0.00000000000E+00 0.  1.
        -11    1    3    3    0    0  0.17234337447E+02  0.61037133830E+02 -0.40850203370E+02  0.75440660183E+02  0.00000000000E+00 0.  1.
         11    1    3    3    0    0  0.23773264115E+02 -0.13196161677E+02 -0.95187514552E+02  0.98994796309E+02  0.00000000000E+00 0. -1.
         21    1    1    2  502  501 -0.30768817575E+02 -0.16913507715E+02 -0.17017065078E+03  0.17375510716E+03  0.00000000000E+00 0.  1.
<scales pt_clust_5="13000.00000" pt_clust_6="13000.00000" pt_clust_7="13000.00000" pt_clust_8="13000.00000" pt_clust_9="35.11106"></scales>
<clustering>
<clus scale="   35.111">  2  9  1 -1</clus>
<clus scale="   80.286">  5  6 -1 -1</clus>
<clus scale="   89.169">  7  8 -1 -1</clus>
<clus scale="   97.416">  2  5  1 -1</clus>
<clus scale="   35.111">  2  5  1 -1</clus>
</clustering>
</event>
<event>
 9    1  0.1973774E-005  0.9677960E+02  0.7546771E-02  0.1293402E+00
          1   -1    0    0  502    0  0.00000000000E+00  0.00000000000E+00  0.47705614950E+03  0.47705614950E+03  0.00000000000E+00 0. -1.
         -2   -1    0    0    0  501 -0.00000000000E+00 -0.00000000000E+00 -0.35321765348E+02  0.35321765348E+02  0.00000000000E+00 0.  1.
         23    2    1    2    0    0 -0.24693154265E+02 -0.16677067688E+02  0.62214086916E+02  0.11435845166E+03  0.91210670431E+02 0.  0.
        -24    2    1    2    0    0  0.18286484760E+02  0.42964825482E+02  0.30552837866E+03  0.31923560927E+03  0.79896259649E+02 0.  0.
         11    1    4    4    0    0 -0.23196183970E+02  0.44314220878E+02  0.19017368616E+03  0.19664140976E+03  0.00000000000E+00 0. -1.
        -12    1    4    4    0    0  0.41482668730E+02 -0.13493953965E+01  0.11535469249E+03  0.12259419951E+03  0.00000000000E+00 0.  1.
        -11    1    3    3    0    0 -0.31797620168E+02 -0.50462716943E+02  0.49692861777E+02  0.77633465472E+02  0.00000000000E+00 0.  1.
         11    1    3    3    0    0  0.71044659031E+01  0.33785649255E+02  0.12521225139E+02  0.36724986185E+02  0.00000000000E+00 0. -1.
         21    1    1    2  502  501  0.64066695044E+01 -0.26287757793E+02  0.73991918573E+02  0.78783853917E+02  0.00000000000E+00 0.  1.
<scales pt_clust_5="13000.00000" pt_clust_6="13000.00000" pt_clust_7="13000.00000" pt_clust_8="13000.00000" pt_clust_9="27.05719"></scales>
<clustering>
<clus scale="   27.057">  1  9  2 -1</clus>
<clus scale="   79.896">  5  6 -1 -1</clus>
<clus scale="   86.199">  1  5  2 -1</clus>
<clus scale="   91.211">  7  8 -1 -1</clus>
<clus scale="   27.057">  1  5  2 -1</clus>
</clustering>
</event>
<event>
 9    1  0.1973774E-005  0.8916480E+02  0.7546771E-02  0.1307936E+00
          1   -1    0    0  502    0  0.00000000000E+00  0.00000000000E+00  0.65490715267E+02  0.65490715267E+02  0.00000000000E+00 0. -1.
         -2   -1    0    0    0  501 -0.00000000000E+00 -0.00000000000E+00 -0.27507966965E+03  0.27507966965E+03  0.00000000000E+00 0.  1.
        -24    2    1    2    0    0  0.32867257205E+00  0.18188771569E+02 -0.20569466130E+03  0.22243638533E+03  0.82684414453E+02 0.  0.
         23    2    1    2    0    0 -0.21047746726E+02 -0.50184599034E+01  0.84963170244E+01  0.90633738461E+02  0.87601909582E+02 0.  0.
         13    1    3    3    0    0 -0.23575566808E+02 -0.20035226259E+02 -0.13567791744E+03  0.13916075209E+03  0.00000000000E+00 0. -1.
        -14    1    3    3    0    0  0.23904239380E+02  0.38223997828E+02 -0.70016743862E+02  0.83275633239E+02  0.00000000000E+00 0.  1.
        -13    1    4    4    0    0 -0.16648309965E+02  0.15147646114E+02  0.44081704786E+02  0.49495596818E+02  0.00000000000E+00 0. -1.
         13    1    4    4    0    0 -0.43994367606E+01 -0.20166106017E+02 -0.35585387762E+02  0.41138141643E+02  0.00000000000E+00 0.  1.
         21    1    1    2  502  501  0.20719074154E+02 -0.13170311666E+02 -0.12390610102E+02  0.27500261124E+02  0.00000000000E+00 0.  1.
<scales pt_clust_5="13000.00000" pt_clust_6="13000.00000" pt_clust_7="13000.00000" pt_clust_8="13000.00000" pt_clust_9="24.55071"></scales>
<clustering>
<clus scale="   24.551">  1  9  2 -1</clus>
<clus scale="   82.684">  5  6 -1 -1</clus>
<clus scale="   84.338">  2  5  1 -1</clus>
<clus scale="   87.602">  7  8 -1 -1</clus>
<clus scale="   24.551">  1  5  2 -1</clus>
</clustering>
</event>
<event>
 9    1  0.1973774E-005  0.1206292E+03  0.7546771E-02  0.1244965E+00
         -2   -1    0    0    0  501 -0.00000000000E+00  0.00000000000E+00  0.24001476631E+03  0.24001476631E+03  0.00000000000E+00 0.  1.
          1   -1    0    0  502    0  0.00000000000E+00 -0.00000000000E+00 -0.35565831021E+03  0.35565831021E+03  0.00000000000E+00 0. -1.
         23    2    1    2    0    0 -0.21203519559E+02  0.74176087056E+02  0.20070793984E+03  0.23353750339E+03  0.91128520455E+02 0.  0.
        -24    2    1    2    0    0  0.41649372510E+02 -0.10416557069E+03 -0.26606730380E+03  0.30012024613E+03  0.81824297320E+02 0.  0.
         11    1    4    4    0    0  0.12012377712E+01 -0.42588649814E+02 -0.18804468313E+03  0.19281088900E+03  0.00000000000E+00 0. -1.
        -12    1    4    4    0    0  0.40448134739E+02 -0.61576920880E+02 -0.78022620677E+02  0.10730935712E+03  0.00000000000E+00 0.  1.
        -13    1    3    3    0    0 -0.25512426920E+02 -0.45578126966E+01  0.11151629557E+03  0.11448817302E+03  0.00000000000E+00 0.  1.
         13    1    3    3    0    0  0.43089073611E+01  0.78733899752E+02  0.89191644270E+02  0.11904933037E+03  0.00000000000E+00 0. -1.
         21    1    1    2  502  501 -0.20445852952E+02  0.29989483638E+02 -0.50284179937E+02  0.62015327006E+02  0.00000000000E+00 0. -1.
<scales pt_clust_5="13000.00000" pt_clust_6="13000.00000" pt_clust_7="13000.00000" pt_clust_8="13000.00000" pt_clust_9="36.29603"></scales>
<clustering>
<clus scale="   36.296">  2  9  1 -1</clus>
<clus scale="   81.824">  5  6 -1 -1</clus>
<clus scale="   91.129">  7  8 -1 -1</clus>
<clus scale="  113.764">  2  5  1 -1</clus>
<clus scale="   36.296">  2  5  1 -1</clus>
</clustering>
</event>
<event>
 9    1  0.1973774E-005  0.1186536E+03  0.7546771E-02  0.1248794E+00
          3   -1    0    0  502    0  0.00000000000E+00  0.00000000000E+00  0.77843602501E+02  0.77843602501E+02  0.00000000000E+00 0. -1.
         -4   -1    0    0    0  501 -0.00000000000E+00 -0.00000000000E+00 -0.38281747654E+03  0.38281747654E+03  0.00000000000E+00 0.  1.
         23    2    1    2    0    0  0.62132062865E+02  0.43680705662E+02 -0.28896098707E+03  0.31223202003E+03  0.90675161978E+02 0.  0.
        -24    2    1    2    0    0 -0.52317353635E+02 -0.61211235342E+02 -0.37005688292E+02  0.11937143186E+03  0.79976227437E+02 0.  0.
         11    1    4    4    0    0 -0.28662092400E+02  0.28389734565E+01  0.15986277009E+02  0.32941408040E+02  0.00000000000E+00 0. -1.
        -12    1    4    4    0    0 -0.23655261235E+02 -0.64050208799E+02 -0.52991965302E+02  0.86430023822E+02  0.00000000000E+00 0.  1.
        -13    1    3    3    0    0  0.61482199713E+02 -0.11929349513E+02 -0.15701027257E+03  0.16904021993E+03  0.00000000000E+00 0.  1.
         13    1    3    3    0    0  0.64986315294E+00  0.55610055175E+02 -0.13195071450E+03  0.14319180010E+03  0.00000000000E+00 0. -1.
         21    1    1    2  502  501 -0.98147092306E+01  0.17530529681E+02  0.20992801324E+02  0.29057627150E+02  0.00000000000E+00 0. -1.
<scales pt_clust_5="13000.00000" pt_clust_6="13000.00000" pt_clust_7="13000.00000" pt_clust_8="13000.00000" pt_clust_9="20.09099"></scales>
<clustering>
<clus scale="   20.091">  1  9  2 -1</clus>
<clus scale="   79.976">  5  6 -1 -1</clus>
<clus scale="   90.675">  7  8 -1 -1</clus>
<clus scale="  110.693">  1  5  2 -1</clus>
<clus scale="   20.091">  1  5  2 -1</clus>
</clustering>
</event>
<event>
 9    1  0.1973774E-005  0.1161483E+03  0.7546771E-02  0.1253078E+00
         -2   -1    0    0    0  501 -0.00000000000E+00  0.00000000000E+00  0.39200202804E+03  0.39200202804E+03  0.00000000000E+00 0.  1.
          1   -1    0    0  502    0  0.00000000000E+00 -0.00000000000E+00 -0.89883604239E+02  0.89883604239E+02  0.00000000000E+00 0. -1.
         23    2    1    2    0    0  0.72097722914E+02  0.16536043255E+02  0.28824702467E+03  0.31143112103E+03  0.91823055593E+02 0.  0.
        -24    2    1    2    0    0 -0.61239039560E+02  0.30613628245E+02 -0.23669950279E+02  0.10921436557E+03  0.81731859768E+02 0.  0.
         13    1    4    4    0    0 -0.37282301113E+02  0.22041405060E+02 -0.54259763488E+02  0.69425610887E+02  0.00000000000E+00 0. -1.
        -14    1    4    4    0    0 -0.23956738448E+02  0.85722231852E+01  0.30589813210E+02  0.39788754687E+02  0.00000000000E+00 0.  1.
        -11    1    3    3    0    0  0.25311097808E+02 -0.37758196176E+02  0.12975147020E+03  0.13748373384E+03  0.00000000000E+00 0.  1.
         11    1    3    3    0    0  0.46786625106E+02  0.54294239431E+02  0.15849555447E+03  0.17394738719E+03  0.00000000000E+00 0. -1.
         21    1    1    2  502  501 -0.10858683354E+02 -0.47149671500E+02  0.37541349407E+02  0.61240145673E+02  0.00000000000E+00 0.  1.
<scales pt_clust_5="13000.00000" pt_clust_6="13000.00000" pt_clust_7="13000.00000" pt_clust_8="13000.00000" pt_clust_9="48.38391"></scales>
<clustering>
<clus scale="   48.384">  2  9  1 -1</clus>
<clus scale="   81.732">  5  6 -1 -1</clus>
<clus scale="   91.823">  7  8 -1 -1</clus>
<clus scale="  108.347">  2  5  1 -1</clus>
<clus scale="   48.384">  2  5  1 -1</clus>
</clustering>
</event>
<event>
 9    1  0.1973774E-005  0.1489572E+03  0.7546771E-02  0.1203076E+00
          1   -1    0    0  502    0  0.00000000000E+00  0.00000000000E+00  0.90112318733E+02  0.90112318733E+02  0.00000000000E+00 0. -1.
         -2   -1    0    0    0  501 -0.00000000000E+00 -0.00000000000E+00 -0.59397983209E+03  0.59397983209E+03  0.00000000000E+00 0.  1.
        -24    2    1    2    0    0 -0.10262736928E+03  0.46775286863E+02 -0.44501753757E+03  0.46638428369E+03  0.82178993311E+02 0.  0.
         23    2    1    2    0    0  0.11987306743E+03 -0.16176208334E+02 -0.14098636466E+01  0.15037968437E+03  0.89335545800E+02 0.  0.
         13    1    3    3    0    0 -0.29917352345E+02  0.57731154379E+02 -0.18129622025E+03  0.19260387752E+03  0.00000000000E+00 0. -1.
        -14    1    3    3    0    0 -0.72710016935E+02 -0.10955867516E+02 -0.26372131731E+03  0.27378040617E+03  0.00000000000E+00 0.  1.
        -13    1    4    4    0    0  0.53452058139E+02 -0.48224450585E+02 -0.19216952825E+02  0.74511820736E+02  0.00000000000E+00 0.  1.
         13    1    4    4    0    0  0.66421009294E+02  0.32048242252E+02  0.17807089178E+02  0.75867863632E+02  0.00000000000E+00 0. -1.
         21    1    1    2  502  501 -0.17245698154E+02 -0.30599078529E+02 -0.57440112142E+02  0.67328182766E+02  0.00000000000E+00 0.  1.
<scales pt_clust_5="13000.00000" pt_clust_6="13000.00000" pt_clust_7="13000.00000" pt_clust_8="13000.00000" pt_clust_9="35.12432"></scales>
<clustering>
<clus scale="   35.124">  2  9  1 -1</clus>
<clus scale="   82.179">  5  6 -1 -1</clus>
<clus scale="   89.336">  7  8 -1 -1</clus>
<clus scale="  144.778">  2  5  1 -1</clus>
<clus scale="  148.957">  1  5  2 -1</clus>
</clustering>
</event>
<event>
 9    1  0.1973774E-005  0.1310743E+03  0.7546771E-02  0.1228417E+00
         -2   -1    0    0    0  501 -0.00000000000E+00  0.00000000000E+00  0.70642061582E+02  0.70642061582E+02  0.00000000000E+00 0.  1.
          1   -1    0    0  502    0  0.00000000000E+00 -0.00000000000E+00 -0.53021048306E+03  0.53021048306E+03  0.00000000000E+00 0. -1.
        -24    2    1    2    0    0 -0.78479975270E+02  0.66434449495E+02 -0.16867330099E+02  0.13145705652E+03  0.80148663653E+02 0.  0.
         23    2    1    2    0    0  0.55200524301E+02 -0.26464189108E+02 -0.33069531590E+03  0.34821443229E+03  0.90257673955E+02 0.  0.
         11    1    3    3    0    0 -0.20751558909E+02  0.21909401954E+02 -0.44266543858E+02  0.53574023522E+02  0.00000000000E+00 0. -1.
        -12    1    3    3    0    0 -0.57728416360E+02  0.44525047541E+02  0.27399213759E+02  0.77883032995E+02  0.00000000000E+00 0.  1.
        -11    1    4    4    0    0  0.91446787240E+01 -0.54206638598E+02 -0.15383311319E+03  0.16336037319E+03  0.00000000000E+00 0.  1.
         11    1    4    4    0    0  0.46055845577E+02  0.27742449490E+02 -0.17686220271E+03  0.18485405910E+03  0.00000000000E+00 0. -1.
         21    1    1    2  502  501  0.23279450969E+02 -0.39970260387E+02 -0.11200577548E+03  0.12118105584E+03  0.00000000000E+00 0. -1.
<scales pt_clust_5="13000.00000" pt_clust_6="13000.00000" pt_clust_7="13000.00000" pt_clust_8="13000.00000" pt_clust_9="46.25532"></scales>
<clustering>
<clus scale="   46.255">  2  9  1 -1</clus>
<clus scale="   80.149">  5  6 -1 -1</clus>
<clus scale="   90.258">  7  8 -1 -1</clus>
<clus scale="  124.330">  1  5  2 -1</clus>
<clus scale="   46.255">  2  5  1 -1</clus>
</clustering>
</event>
<event>
 9    1  0.1973774E-005  0.9658779E+02  0.7546771E-02  0.1293258E+00
         -2   -1    0    0    0  501 -0.00000000000E+00  0.00000000000E+00  0.63386100970E+03  0.63386100970E+03  0.00000000000E+00 0.  1.
          1   -1    0    0  502    0  0.00000000000E+00 -0.00000000000E+00 -0.20790121569E+02  0.20790121569E+02  0.00000000000E+00 0. -1.
        -24    2    1    2    0    0 -0.29810395086E+02  0.21056386608E+02  0.35409138721E+03  0.36425540501E+03  0.77260976665E+02 0.  0.
         23    2    1    2    0    0  0.52120604060E+02 -0.37345035971E+01  0.21534300670E+03  0.23841556962E+03  0.87970844141E+02 0.  0.
         11    1    3    3    0    0 -0.22456338608E+02 -0.25810619889E+02  0.97827225228E+02  0.10363706498E+03  0.00000000000E+00 0. -1.
        -12    1    3    3    0    0 -0.73540564780E+01  0.46867006498E+02  0.25626416198E+03  0.26061834003E+03  0.00000000000E+00 0.  1.
        -11    1    4    4    0    0 -0.97638303236E+01  0.23878357124E+02  0.11129528621E+03  0.11424600235E+03  0.00000000000E+00 0.  1.
         11    1    4    4    0    0  0.61884434383E+02 -0.27612860721E+02  0.10404772049E+03  0.12416956727E+03  0.00000000000E+00 0. -1.
         21    1    1    2  502  501 -0.22310208974E+02 -0.17321883011E+02  0.43636494225E+02  0.51980156634E+02  0.00000000000E+00 0. -1.
<scales pt_clust_5="13000.00000" pt_clust_6="13000.00000" pt_clust_7="13000.00000" pt_clust_8="13000.00000" pt_clust_9="28.24523"></scales>
<clustering>
<clus scale="   28.245">  2  9  1 -1</clus>
<clus scale="   77.261">  5  6 -1 -1</clus>
<clus scale="   86.946">  1  5  2 -1</clus>
<clus scale="   87.971">  7  8 -1 -1</clus>
<clus scale="   28.245">  2  5  1 -1</clus>
</clustering>
</event>
<event>
 9    1  0.1973774E-005  0.1085913E+03  0.7546771E-02  0.1264106E+00
          1   -1    0    0  502    0  0.00000000000E+00  0.00000000000E+00  0.37873688677E+02  0.37873688677E+02  0.00000000000E+00 0. -1.
         -2   -1    0    0    0  501 -0.00000000000E+00 -0.00000000000E+00 -0.70999196584E+03  0.70999196584E+03  0.00000000000E+00 0.  1.
         23    2    1    2    0    0  0.83807651412E+02 -0.24192083968E+02 -0.46765999097E+03  0.48334779080E+03  0.85499943611E+02 0.  0.
        -24    2    1    2    0    0 -0.41044716597E+02 -0.11187220567E+02 -0.18221394176E+03  0.20472509959E+03  0.83069989546E+02 0.  0.
         11    1    4    4    0    0 -0.53729748240E+02  0.97118750343E+01 -0.64536547129E+02  0.84535035801E+02  0.00000000000E+00 0. -1.
        -12    1    4    4    0    0  0.12685031643E+02 -0.20899095602E+02 -0.11767739463E+03  0.12019006378E+03  0.00000000000E+00 0.  1.
        -11    1    3    3    0    0  0.97261841109E+02 -0.36004901483E+01 -0.36120846795E+03  0.37409141474E+03  0.00000000000E+00 0.  1.
         11    1    3    3    0    0 -0.13454189697E+02 -0.20591593820E+02 -0.10645152302E+03  0.10925637606E+03  0.00000000000E+00 0. -1.
         21    1    1    2  502  501 -0.42762934814E+02  0.35379304536E+02 -0.22244344436E+02  0.59792764134E+02  0.00000000000E+00 0. -1.
<scales pt_clust_5="13000.00000" pt_clust_6="13000.00000" pt_clust_7="13000.00000" pt_clust_8="13000.00000" pt_clust_9="55.50103"></scales>
<clustering>
<clus scale="   55.501">  1  9  2 -1</clus>
<clus scale="   83.070">  5  6 -1 -1</clus>
<clus scale="   85.500">  7  8 -1 -1</clus>
<clus scale="  106.689">  1  5  2 -1</clus>
<clus scale="   55.501">  1  5  2 -1</clus>
</clustering>
</event>
<event>
 9    1  0.1973774E-005  0.1381682E+03  0.7546771E-02  0.1217810E+00
         -2   -1    0    0    0  501 -0.00000000000E+00  0.00000000000E+00  0.38451849143E+02  0.38451849143E+02  0.00000000000E+00 0.  1.
          1   -1    0    0  502    0  0.00000000000E+00 -0.00000000000E+00 -0.77692481217E+03  0.77692481217E+03  0.00000000000E+00 0. -1.
         23    2    1    2    0    0 -0.10942991301E+03 -0.21374638737E+02 -0.14943137797E+03  0.20692422895E+03  0.89755884282E+02 0.  0.
        -24    2    1    2    0    0  0.81320160600E+02  0.31037232786E+02 -0.51830372700E+03  0.53172324322E+03  0.80712921004E+02 0.  0.
         11    1    4    4    0    0  0.80899503289E+02  0.40200632397E+01 -0.46456871892E+03  0.47157712534E+03  0.00000000000E+00 0. -1.
        -12    1    4    4    0    0  0.42065731095E+00  0.27017169547E+02 -0.53735008076E+02  0.60146117878E+02  0.00000000000E+00 0.  1.
        -13    1    3    3    0    0 -0.99608059649E+02  0.10211860686E+02 -0.73839920171E+02  0.12441214353E+03  0.00000000000E+00 0.  1.
         13    1    3    3    0    0 -0.98218533583E+01 -0.31586499423E+02 -0.75591457799E+02  0.82512085426E+02  0.00000000000E+00 0. -1.
         21    1    1    2  502  501  0.28109752407E+02 -0.96625940491E+01 -0.70737858059E+02  0.76729189146E+02  0.00000000000E+00 0.  1.
<scales pt_clust_5="13000.00000" pt_clust_6="13000.00000" pt_clust_7="13000.00000" pt_clust_8="13000.00000" pt_clust_9="29.72413"></scales>
<clustering>
<clus scale="   29.724">  2  9  1 -1</clus>
<clus scale="   80.713">  5  6 -1 -1</clus>
<clus scale="   89.756">  7  8 -1 -1</clus>
<clus scale="  132.472">  2  5  1 -1</clus>
<clus scale="   29.724">  2  5  1 -1</clus>
</clustering>
</event>
<event>
 9    1  0.1973774E-005  0.1561931E+03  0.7546771E-02  0.1222674E+00
         -2   -1    0    0    0  501 -0.00000000000E+00  0.00000000000E+00  0.26610509888E+02  0.26610509888E+02  0.00000000000E+00 0.  1.
          1   -1    0    0  502    0  0.00000000000E+00 -0.00000000000E+00 -0.16456221544E+04  0.16456221544E+04  0.00000000000E+00 0. -1.
         23    2    1    2    0    0 -0.10979722347E+03  0.48789406659E+02 -0.30583766384E+03  0.34388739935E+03  0.10142006868E+03 0.  0.
        -24    2    1    2    0    0  0.49134647260E+01  0.55553458010E+00 -0.62821531541E+03  0.63364828121E+03  0.82651140390E+02 0.  0.
         11    1    4    4    0    0  0.18705731819E+02  0.21672082488E+02 -0.82051865564E+02  0.86902774437E+02  0.00000000000E+00 0. -1.
        -12    1    4    4    0    0 -0.13792267092E+02 -0.21116547908E+02 -0.54616344985E+03  0.54674550677E+03  0.00000000000E+00 0.  1.
        -11    1    3    3    0    0 -0.95787030585E+02  0.70538059571E+02 -0.18236268824E+03  0.21773130951E+03  0.00000000000E+00 0.  1.
         11    1    3    3    0    0 -0.14010192887E+02 -0.21748652912E+02 -0.12347497559E+03  0.12615608985E+03  0.00000000000E+00 0. -1.
         21    1    1    2  502  501  0.10488375875E+03 -0.49344941239E+02 -0.68495866530E+03  0.69469698376E+03  0.00000000000E+00 0. -1.
<scales pt_clust_5="13000.00000" pt_clust_6="13000.00000" pt_clust_7="13000.00000" pt_clust_8="13000.00000" pt_clust_9="118.78660"></scales>
<clustering>
<clus scale="   82.651">  5  6 -1 -1</clus>
<clus scale="   82.799">  2  5  1 -1</clus>
<clus scale="  101.420">  7  8 -1 -1</clus>
<clus scale="  118.787">  2  9  1 -1</clus>
<clus scale="   82.799">  2  5  1 -1</clus>
</clustering>
</event>
<event>
 9    1  0.1973774E-005  0.1141358E+03  0.7546771E-02  0.1256720E+00
         -2   -1    0    0    0  501 -0.00000000000E+00  0.00000000000E+00  0.11511771567E+03  0.11511771567E+03  0.00000000000E+00 0.  1.
          1   -1    0    0  502    0  0.00000000000E+00 -0.00000000000E+00 -0.37304489287E+03  0.37304489287E+03  0.00000000000E+00 0. -1.
         23    2    1    2    0    0  0.29991898865E+02 -0.46687728026E+02  0.10733326850E+02  0.10739292929E+03  0.91316915249E+02 0.  0.
        -24    2    1    2    0    0  0.11914907391E+02  0.14268574076E+03 -0.17502173156E+03  0.24027050283E+03  0.81216515428E+02 0.  0.
         13    1    4    4    0    0  0.47713837603E+01  0.14173593444E+03 -0.18166803276E+03  0.23046716760E+03  0.00000000000E+00 0. -1.
        -14    1    4    4    0    0  0.71435236306E+01  0.94980631582E+00  0.66463012029E+01  0.98033352273E+01  0.00000000000E+00 0.  1.
        -11    1    3    3    0    0  0.56525150972E+01 -0.29308269756E+02 -0.39150331066E+02  0.49230823938E+02  0.00000000000E+00 0. -1.
         11    1    3    3    0    0  0.24339383768E+02 -0.17379458270E+02  0.49883657917E+02  0.58162105353E+02  0.00000000000E+00 0.  1.
         21    1    1    2  502  501 -0.41906806256E+02 -0.95998012732E+02 -0.93638772497E+02  0.14049917642E+03  0.00000000000E+00 0. -1.
<scales pt_clust_5="13000.00000" pt_clust_6="13000.00000" pt_clust_7="13000.00000" pt_clust_8="13000.00000" pt_clust_9="104.74635"></scales>
<clustering>
<clus scale="   81.217">  5  6 -1 -1</clus>
<clus scale="   91.317">  7  8 -1 -1</clus>
<clus scale="  104.746">  2  9  1 -1</clus>
<clus scale="  106.228">  2  5  1 -1</clus>
<clus scale="  104.746">  2  5  1 -1</clus>
</clustering>
</event>
<event>
 9    1  0.1973774E-005  0.1553197E+03  0.7546771E-02  0.1194581E+00
         -2   -1    0    0    0  501 -0.00000000000E+00  0.00000000000E+00  0.16705486810E+03  0.16705486810E+03  0.00000000000E+00 0.  1.
          1   -1    0    0  502    0  0.00000000000E+00 -0.00000000000E+00 -0.33674290184E+03  0.33674290184E+03  0.00000000000E+00 0. -1.
         23    2    1    2    0    0  0.13826247920E+03  0.82837208800E+01  0.85395936861E+02  0.18672118593E+03  0.91581668784E+02 0.  0.
        -24    2    1    2    0    0 -0.12336594620E+03  0.66602744412E+01 -0.25387051097E+03  0.29594125398E+03  0.88698779737E+02 0.  0.
         13    1    4    4    0    0 -0.12046010774E+03  0.33152311693E+02 -0.21783804891E+03  0.25112373221E+03  0.00000000000E+00 0. -1.
        -14    1    4    4    0    0 -0.29058384601E+01 -0.26492037252E+02 -0.36032462065E+02  0.44817521767E+02  0.00000000000E+00 0.  1.
        -11    1    3    3    0    0  0.50027683547E+00  0.26218570424E+02  0.21008425473E+02  0.33600857918E+02  0.00000000000E+00 0. -1.
         11    1    3    3    0    0  0.13776220236E+03 -0.17934849544E+02  0.64387511388E+02  0.15312032801E+03  0.00000000000E+00 0.  1.
         21    1    1    2  502  501 -0.14896532995E+02 -0.14943995321E+02 -0.12134596261E+01  0.21135330035E+02  0.00000000000E+00 0.  1.
<scales pt_clust_5="13000.00000" pt_clust_6="13000.00000" pt_clust_7="13000.00000" pt_clust_8="13000.00000" pt_clust_9="21.10047"></scales>
<clustering>
<clus scale="   21.100">  1  9  2 -1</clus>
<clus scale="   88.699">  5  6 -1 -1</clus>
<clus scale="   91.582">  7  8 -1 -1</clus>
<clus scale="  153.637">  2  5  1 -1</clus>
<clus scale="  153.637">  2  5  1 -1</clus>
</clustering>
</event>
<event>
 9    1  0.1973774E-005  0.1412823E+03  0.7546771E-02  0.1213729E+00
          1   -1    0    0  502    0  0.00000000000E+00  0.00000000000E+00  0.32733515457E+03  0.32733515457E+03  0.00000000000E+00 0. -1.
         -2   -1    0    0    0  501 -0.00000000000E+00 -0.00000000000E+00 -0.12905360781E+03  0.12905360781E+03  0.00000000000E+00 0.  1.
         23    2    1    2    0    0 -0.85929939259E+02 -0.59677267541E+02 -0.47212486457E+02  0.14601472778E+03  0.90254923021E+02 0.  0.
        -24    2    1    2    0    0  0.90198379380E+02  0.85929734708E+02  0.14836318630E+03  0.20966746563E+03  0.80181943988E+02 0.  0.
         13    1    4    4    0    0  0.12504345537E+02  0.27977616629E+02  0.93274157555E+02  0.98179295969E+02  0.00000000000E+00 0. -1.
        -14    1    4    4    0    0  0.77694033843E+02  0.57952118079E+02  0.55089028749E+02  0.11148816966E+03  0.00000000000E+00 0.  1.
        -13    1    3    3    0    0 -0.52553064795E+02 -0.17239204494E+02 -0.68445453687E+02  0.87998834773E+02  0.00000000000E+00 0. -1.
         13    1    3    3    0    0 -0.33376874464E+02 -0.42438063047E+02  0.21232967231E+02  0.58015893008E+02  0.00000000000E+00 0.  1.
         21    1    1    2  502  501 -0.42684401217E+01 -0.26252467168E+02  0.97130846909E+02  0.10070656897E+03  0.00000000000E+00 0. -1.
<scales pt_clust_5="13000.00000" pt_clust_6="13000.00000" pt_clust_7="13000.00000" pt_clust_8="13000.00000" pt_clust_9="26.59721"></scales>
<clustering>
<clus scale="   26.597">  1  9  2 -1</clus>
<clus scale="   80.182">  5  6 -1 -1</clus>
<clus scale="   90.255">  7  8 -1 -1</clus>
<clus scale="  135.070">  1  5  2 -1</clus>
<clus scale="   26.597">  1  5  2 -1</clus>
</clustering>
</event>
<event>
 9    1  0.1973774E-005  0.1200661E+03  0.7546771E-02  0.1247102E+00
          1   -1    0    0  502    0  0.00000000000E+00  0.00000000000E+00  0.11689768338E+03  0.11689768338E+03  0.00000000000E+00 0. -1.
         -2   -1    0    0    0  501 -0.00000000000E+00 -0.00000000000E+00 -0.27909513274E+03  0.27909513274E+03  0.00000000000E+00 0.  1.
        -24    2    1    2    0    0  0.78855340457E+02  0.17671651046E+02 -0.19734871659E+03  0.22763753526E+03  0.79635918734E+02 0.  0.
         23    2    1    2    0    0 -0.65154301431E+02  0.20892805112E+02  0.92530523786E+00  0.11500406510E+03  0.92430982354E+02 0.  0.
         13    1    3    3    0    0 -0.30180647885E+01 -0.20270656154E+02 -0.59028863744E+02  0.62485318042E+02  0.00000000000E+00 0. -1.
        -14    1    3    3    0    0  0.81873405245E+02  0.37942307200E+02 -0.13831985284E+03  0.16515221722E+03  0.00000000000E+00 0.  1.
        -13    1    4    4    0    0  0.43461025887E+01 -0.25388726069E+02  0.15759140453E+02  0.30196465471E+02  0.00000000000E+00 0. -1.
         13    1    4    4    0    0 -0.69500404019E+02  0.46281531181E+02 -0.14833835215E+02  0.84807599627E+02  0.00000000000E+00 0.  1.
         21    1    1    2  502  501 -0.13701039026E+02 -0.38564456158E+02  0.34225961986E+02  0.53351215759E+02  0.00000000000E+00 0. -1.
<scales pt_clust_5="13000.00000" pt_clust_6="13000.00000" pt_clust_7="13000.00000" pt_clust_8="13000.00000" pt_clust_9="40.92598"></scales>
<clustering>
<clus scale="   40.926">  1  9  2 -1</clus>
<clus scale="   79.636">  5  6 -1 -1</clus>
<clus scale="   92.431">  7  8 -1 -1</clus>
<clus scale="  110.518">  2  5  1 -1</clus>
<clus scale="   40.926">  1  5  2 -1</clus>
</clustering>
</event>
<event>
 9    1  0.1973774E-005  0.2260016E+03  0.7546771E-02  0.1130361E+00
         -2   -1    0    0    0  501 -0.00000000000E+00  0.00000000000E+00  0.21244243183E+03  0.21244243183E+03  0.00000000000E+00 0.  1.
          1   -1    0    0  502    0  0.00000000000E+00 -0.00000000000E+00 -0.33373379050E+03  0.33373379050E+03  0.00000000000E+00 0. -1.
         23    2    1    2    0    0  0.18428806370E+03  0.78268745709E+02  0.48696557870E+02  0.22574390437E+03  0.92200155280E+02 0.  0.
        -24    2    1    2    0    0 -0.20856699166E+03 -0.69620217430E+02 -0.11700416882E+03  0.26151253430E+03  0.79697336158E+02 0.  0.
         13    1    4    4    0    0 -0.14853576783E+03 -0.18543360033E+02 -0.10236888742E+03  0.18134530497E+03  0.00000000000E+00 0. -1.
        -14    1    4    4    0    0 -0.60031223834E+02 -0.51076857397E+02 -0.14635281407E+02  0.80167229330E+02  0.00000000000E+00 0.  1.
        -11    1    3    3    0    0  0.94484838575E+02  0.68043374118E+01 -0.12713277346E+02  0.95578821656E+02  0.00000000000E+00 0. -1.
         11    1    3    3    0    0  0.89803225125E+02  0.71464408298E+02  0.61409835217E+02  0.13016508271E+03  0.00000000000E+00 0.  1.
         21    1    1    2  502  501  0.24278927961E+02 -0.86485282795E+01 -0.52983747711E+02  0.58919783654E+02  0.00000000000E+00 0.  1.
<scales pt_clust_5="13000.00000" pt_clust_6="13000.00000" pt_clust_7="13000.00000" pt_clust_8="13000.00000" pt_clust_9="25.77331"></scales>
<clustering>
<clus scale="   25.773">  2  9  1 -1</clus>
<clus scale="   79.697">  5  6 -1 -1</clus>
<clus scale="   92.200">  7  8 -1 -1</clus>
<clus scale="  221.196">  2  5  1 -1</clus>
<clus scale="   25.773">  2  5  1 -1</clus>
</clustering>
</event>
<event>
 9    1  0.1973774E-005  0.1249541E+03  0.7546771E-02  0.1239467E+00
         -2   -1    0    0    0  501 -0.00000000000E+00  0.00000000000E+00  0.39310128679E+03  0.39310128679E+03  0.00000000000E+00 0.  1.
          1   -1    0    0  502    0  0.00000000000E+00 -0.00000000000E+00 -0.21397769609E+03  0.21397769609E+03  0.00000000000E+00 0. -1.
         23    2    1    2    0    0  0.32129825526E+02  0.56020737404E+02  0.50770294796E+02  0.12556700326E+03  0.94967366846E+02 0.  0.
        -24    2    1    2    0    0  0.50456908869E+02 -0.78358982467E+02 -0.14779704753E+03  0.19241238075E+03  0.80576219958E+02 0.  0.
         11    1    4    4    0    0  0.70059430629E+02 -0.75174015794E+02 -0.13030061620E+03  0.16594489162E+03  0.00000000000E+00 0. -1.
        -12    1    4    4    0    0 -0.19602521759E+02 -0.31849666732E+01 -0.17496431323E+02  0.26467489134E+02  0.00000000000E+00 0.  1.
        -13    1    3    3    0    0  0.10219897778E+02  0.58174005623E+02 -0.10920174496E+02  0.60065892583E+02  0.00000000000E+00 0.  1.
         13    1    3    3    0    0  0.21909927748E+02 -0.21532682191E+01  0.61690469292E+02  0.65501110674E+02  0.00000000000E+00 0. -1.
         21    1    1    2  502  501 -0.82586734396E+02  0.22338245064E+02  0.27615034343E+03  0.28909959887E+03  0.00000000000E+00 0.  1.
<scales pt_clust_5="13000.00000" pt_clust_6="13000.00000" pt_clust_7="13000.00000" pt_clust_8="13000.00000" pt_clust_9="85.55446"></scales>
<clustering>
<clus scale="   80.576">  5  6 -1 -1</clus>
<clus scale="   85.554">  1  9  2 -1</clus>
<clus scale="   94.967">  7  8 -1 -1</clus>
<clus scale="  114.400">  2  5  1 -1</clus>
<clus scale="  114.400">  2  5  1 -1</clus>
</clustering>
</event>
<event>
 9    1  0.1973774E-005  0.2255269E+03  0.7546771E-02  0.1130607E+00
          1   -1    0    0  502    0  0.00000000000E+00  0.00000000000E+00  0.43296869303E+03  0.43296869303E+03  0.00000000000E+00 0. -1.
         -2   -1    0    0    0  501 -0.00000000000E+00 -0.00000000000E+00 -0.30865480238E+03  0.30865480238E+03  0.00000000000E+00 0.  1.
        -24    2    1    2    0    0  0.64428829227E+02 -0.20300282714E+03 -0.21102202580E+03  0.31044303192E+03  0.80519307214E+02 0.  0.
         23    2    1    2    0    0 -0.71958533501E+02  0.16130855410E+03  0.17383185043E+03  0.26421138794E+03  0.91606032150E+02 0.  0.
         13    1    3    3    0    0  0.45604779019E+02 -0.44366977940E+02 -0.34535038499E+02  0.72394015533E+02  0.00000000000E+00 0. -1.
        -14    1    3    3    0    0  0.18824050208E+02 -0.15863584920E+03 -0.17648698730E+03  0.23804901639E+03  0.00000000000E+00 0.  1.
        -11    1    4    4    0    0 -0.20230036059E+02  0.13696160631E+03  0.14386539275E+03  0.19966218268E+03  0.00000000000E+00 0. -1.
         11    1    4    4    0    0 -0.51728497442E+02  0.24346947792E+02  0.29966457678E+02  0.64549205264E+02  0.00000000000E+00 0.  1.
         21    1    1    2  502  501  0.75297042740E+01  0.41694273046E+02  0.16150406601E+03  0.16696907555E+03  0.00000000000E+00 0. -1.
<scales pt_clust_5="13000.00000" pt_clust_6="13000.00000" pt_clust_7="13000.00000" pt_clust_8="13000.00000" pt_clust_9="42.36872"></scales>
<clustering>
<clus scale="   42.369">  1  9  2 -1</clus>
<clus scale="   80.519">  5  6 -1 -1</clus>
<clus scale="   91.606">  7  8 -1 -1</clus>
<clus scale="  221.256">  2  5  1 -1</clus>
<clus scale="   42.369">  1  5  2 -1</clus>
</clustering>
</event>
<event>
 9    1  0.1973774E-005  0.9214288E+02  0.7546771E-02  0.1303484E+00
          1   -1    0    0  502    0  0.00000000000E+00  0.00000000000E+00  0.16251177082E+03  0.16251177082E+03  0.00000000000E+00 0. -1.
         -2   -1    0    0    0  501 -0.00000000000E+00 -0.00000000000E+00 -0.86995983357E+02  0.86995983357E+02  0.00000000000E+00 0.  1.
         23    2    1    2    0    0  0.11855620863E+02  0.16532886821E+02 -0.31801099795E+02  0.97994705486E+02  0.90430969597E+02 0.  0.
        -24    2    1    2    0    0  0.94818076858E+01 -0.15194934298E+02  0.97434307558E+02  0.12796010077E+03  0.80991063675E+02 0.  0.
         13    1    4    4    0    0 -0.11046082760E+01 -0.27117240235E+02  0.10630483929E+03  0.10971455570E+03  0.00000000000E+00 0. -1.
        -14    1    4    4    0    0  0.10586415962E+02  0.11922305937E+02 -0.88705317279E+01  0.18245545070E+02  0.00000000000E+00 0.  1.
        -11    1    3    3    0    0 -0.38671592076E+02 -0.22843641915E+01 -0.11974457732E+02  0.40547478237E+02  0.00000000000E+00 0. -1.
         11    1    3    3    0    0  0.50527212939E+02  0.18817251012E+02 -0.19826642064E+02  0.57447227249E+02  0.00000000000E+00 0.  1.
         21    1    1    2  502  501 -0.21337428549E+02 -0.13379525228E+01  0.98825796965E+01  0.23552947915E+02  0.00000000000E+00 0. -1.
<scales pt_clust_5="13000.00000" pt_clust_6="13000.00000" pt_clust_7="13000.00000" pt_clust_8="13000.00000" pt_clust_9="21.37934"></scales>
<clustering>
<clus scale="   21.379">  1  9  2 -1</clus>
<clus scale="   80.991">  5  6 -1 -1</clus>
<clus scale="   82.898">  1  5  2 -1</clus>
<clus scale="   90.431">  7  8 -1 -1</clus>
<clus scale="   21.379">  1  5  2 -1</clus>
</clustering>
</event>
<event>
 9    1  0.1973774E-005  0.1460249E+03  0.7546771E-02  0.1225604E+00
          1   -1    0    0  502    0  0.00000000000E+00  0.00000000000E+00  0.39375812222E+03  0.39375812222E+03  0.00000000000E+00 0. -1.
         -2   -1    0    0    0  501 -0.00000000000E+00 -0.00000000000E+00 -0.10487806324E+03  0.10487806324E+03  0.00000000000E+00 0.  1.
         23    2    1    2    0    0  0.35619816968E+01  0.26640545356E+02 -0.10097226426E+02  0.95856035427E+02  0.91455011759E+02 0.  0.
        -24    2    1    2    0    0  0.22753781547E+02  0.10402433962E+03  0.11845997490E+03  0.17838689935E+03  0.80313899153E+02 0.  0.
         13    1    4    4    0    0 -0.46532509014E+01  0.10576220143E+03  0.95995400952E+02  0.14290700822E+03  0.00000000000E+00 0. -1.
        -14    1    4    4    0    0  0.27407032448E+02 -0.17378618148E+01  0.22464573951E+02  0.35479891123E+02  0.00000000000E+00 0.  1.
        -11    1    3    3    0    0  0.17154259119E+02 -0.28720237133E+02  0.10781671807E+02  0.35147760581E+02  0.00000000000E+00 0. -1.
         11    1    3    3    0    0 -0.13592277423E+02  0.55360782489E+02 -0.20878898234E+02  0.60708274846E+02  0.00000000000E+00 0.  1.
         21    1    1    2  502  501 -0.26315763244E+02 -0.13066488497E+03  0.18051731051E+03  0.22439325069E+03  0.00000000000E+00 0.  1.
<scales pt_clust_5="13000.00000" pt_clust_6="13000.00000" pt_clust_7="13000.00000" pt_clust_8="13000.00000" pt_clust_9="121.95465"></scales>
<clustering>
<clus scale="   80.314">  5  6 -1 -1</clus>
<clus scale="   91.455">  7  8 -1 -1</clus>
<clus scale="   95.323">  2  7  1 -1</clus>
<clus scale="  121.955">  1  9  2 -1</clus>
<clus scale="  121.955">  1  5  2 -1</clus>
</clustering>
</event>
<event>
 9    1  0.1973774E-005  0.9446644E+02  0.7546771E-02  0.1298832E+00
          1   -1    0    0  502    0  0.00000000000E+00  0.00000000000E+00  0.15839896265E+03  0.15839896265E+03  0.00000000000E+00 0. -1.
         -2   -1    0    0    0  501 -0.00000000000E+00 -0.00000000000E+00 -0.20383868687E+03  0.20383868687E+03  0.00000000000E+00 0.  1.
        -24    2    1    2    0    0  0.14932062736E+02  0.14488606883E+02 -0.16904897949E+03  0.18873145745E+03  0.81296490304E+02 0.  0.
         23    2    1    2    0    0 -0.23052145135E+02  0.43411344281E+01  0.11918508358E+03  0.15252838973E+03  0.92247377642E+02 0.  0.
         13    1    3    3    0    0 -0.12741465586E+02  0.33370650123E+02 -0.33042250688E+02  0.48659383119E+02  0.00000000000E+00 0. -1.
        -14    1    3    3    0    0  0.27673528322E+02 -0.18882043240E+02 -0.13600672880E+03  0.14007207433E+03  0.00000000000E+00 0.  1.
        -13    1    4    4    0    0  0.34345873716E+02  0.13328786054E+02  0.40997105603E+02  0.55118583498E+02  0.00000000000E+00 0.  1.
         13    1    4    4    0    0 -0.57398018851E+02 -0.89876516260E+01  0.78187977980E+02  0.97409806233E+02  0.00000000000E+00 0. -1.
         21    1    1    2  502  501  0.81200823991E+01 -0.18829741311E+02  0.44241716816E+01  0.20977802342E+02  0.00000000000E+00 0. -1.
<scales pt_clust_5="13000.00000" pt_clust_6="13000.00000" pt_clust_7="13000.00000" pt_clust_8="13000.00000" pt_clust_9="20.50597"></scales>
<clustering>
<clus scale="   20.506">  1  9  2 -1</clus>
<clus scale="   81.296">  5  6 -1 -1</clus>
<clus scale="   83.806">  2  5  1 -1</clus>
<clus scale="   92.247">  7  8 -1 -1</clus>
<clus scale="   20.506">  1  5  2 -1</clus>
</clustering>
</event>
<event>
 9    1  0.1973774E-005  0.1118526E+03  0.7546771E-02  0.1262227E+00
         -2   -1    0    0    0  501 -0.00000000000E+00  0.00000000000E+00  0.18927095152E+04  0.18927095152E+04  0.00000000000E+00 0.  1.
          1   -1    0    0  502    0  0.00000000000E+00 -0.00000000000E+00 -0.18402756845E+02  0.18402756845E+02  0.00000000000E+00 0. -1.
        -24    2    1    2    0    0 -0.36767632933E+02 -0.44679389523E+02  0.14835684910E+04  0.14868997575E+04  0.80915478327E+02 0.  0.
         23    2    1    2    0    0  0.40010881654E+02  0.68965106401E+02  0.37594482042E+03  0.39559152962E+03  0.93814144770E+02 0.  0.
         11    1    3    3    0    0 -0.23329906957E+02 -0.19513935812E+02  0.15134992870E+03  0.15437577260E+03  0.00000000000E+00 0. -1.
        -12    1    3    3    0    0 -0.13437725976E+02 -0.25165453711E+02  0.13322185623E+04  0.13325239849E+04  0.00000000000E+00 0.  1.
        -11    1    4    4    0    0  0.46980630240E+02  0.13115526176E+02  0.28112915927E+03  0.28532928492E+03  0.00000000000E+00 0.  1.
         11    1    4    4    0    0 -0.69697485857E+01  0.55849580226E+02  0.94815661148E+02  0.11026224470E+03  0.00000000000E+00 0. -1.
         21    1    1    2  502  501 -0.32432487212E+01 -0.24285716878E+02  0.14793446934E+02  0.28620984937E+02  0.00000000000E+00 0. -1.
<scales pt_clust_5="13000.00000" pt_clust_6="13000.00000" pt_clust_7="13000.00000" pt_clust_8="13000.00000" pt_clust_9="24.50132"></scales>
<clustering>
<clus scale="   24.501">  2  9  1 -1</clus>
<clus scale="   80.915">  5  6 -1 -1</clus>
<clus scale="   93.814">  7  8 -1 -1</clus>
<clus scale="  101.278">  1  5  2 -1</clus>
<clus scale="   24.501">  2  5  1 -1</clus>
</clustering>
</event>
<event>
 9    1  0.1973774E-005  0.1359787E+03  0.7546771E-02  0.1219053E+00
          1   -1    0    0  502    0  0.00000000000E+00  0.00000000000E+00  0.33146614955E+03  0.33146614955E+03  0.00000000000E+00 0. -1.
         -2   -1    0    0    0  501 -0.00000000000E+00 -0.00000000000E+00 -0.83171947405E+02  0.83171947405E+02  0.00000000000E+00 0.  1.
         23    2    1    2    0    0 -0.45830434367E+02  0.66234106026E+02  0.16805929031E+02  0.12312592232E+03  0.91597860134E+02 0.  0.
        -24    2    1    2    0    0  0.66322944161E+02 -0.85676678475E+02  0.21898877513E+03  0.26062214338E+03  0.90711585970E+02 0.  0.
         11    1    4    4    0    0  0.58498381240E+02 -0.98196775992E+02  0.21759933470E+03  0.24579287598E+03  0.00000000000E+00 0. -1.
        -12    1    4    4    0    0  0.78245629211E+01  0.12520097518E+02  0.13894404325E+01  0.14829267395E+02  0.00000000000E+00 0.  1.
        -11    1    3    3    0    0  0.24906089139E+02  0.27847973697E+02  0.20395360282E+02  0.42565169284E+02  0.00000000000E+00 0. -1.
         11    1    3    3    0    0 -0.70736523506E+02  0.38386132329E+02 -0.35894312511E+01  0.80560753035E+02  0.00000000000E+00 0.  1.
         21    1    1    2  502  501 -0.20492509794E+02  0.19442572449E+02  0.12499497979E+02  0.30890031253E+02  0.00000000000E+00 0.  1.
<scales pt_clust_5="13000.00000" pt_clust_6="13000.00000" pt_clust_7="13000.00000" pt_clust_8="13000.00000" pt_clust_9="28.24813"></scales>
<clustering>
<clus scale="   28.248">  2  9  1 -1</clus>
<clus scale="   90.712">  5  6 -1 -1</clus>
<clus scale="   91.598">  7  8 -1 -1</clus>
<clus scale="  135.383">  1  5  2 -1</clus>
<clus scale="  135.383">  1  5  2 -1</clus>
</clustering>
</event>
<event>
 9    1  0.1973774E-005  0.9623053E+02  0.7546771E-02  0.1296534E+00
         -2   -1    0    0    0  501 -0.00000000000E+00  0.00000000000E+00  0.15630924809E+03  0.15630924809E+03  0.00000000000E+00 0.  1.
          1   -1    0    0  502    0  0.00000000000E+00 -0.00000000000E+00 -0.11454846119E+03  0.11454846119E+03  0.00000000000E+00 0. -1.
         23    2    1    2    0    0 -0.23905871131E+02  0.65247008369E+02  0.37688214779E+02  0.12015593320E+03  0.90489689884E+02 0.  0.
        -24    2    1    2    0    0  0.24477490804E+02 -0.59684911956E+01 -0.26095518804E+02  0.84185739979E+02  0.75970338100E+02 0.  0.
         13    1    4    4    0    0  0.25629460830E+02 -0.38927790587E+02 -0.19660565456E+02  0.50584384710E+02  0.00000000000E+00 0. -1.
        -14    1    4    4    0    0 -0.11519700265E+01  0.32959299392E+02 -0.64349533477E+01  0.33601355269E+02  0.00000000000E+00 0.  1.
        -11    1    3    3    0    0  0.19616482708E+02  0.17281648529E+02  0.47917546634E+02  0.54585282312E+02  0.00000000000E+00 0.  1.
         11    1    3    3    0    0 -0.43522353839E+02  0.47965359840E+02 -0.10229331854E+02  0.65570650892E+02  0.00000000000E+00 0. -1.
         21    1    1    2  502  501 -0.57161967289E+00 -0.59278517174E+02  0.30168090928E+02  0.66516036093E+02  0.00000000000E+00 0. -1.
<scales pt_clust_5="13000.00000" pt_clust_6="13000.00000" pt_clust_7="13000.00000" pt_clust_8="13000.00000" pt_clust_9="59.28127"></scales>
<clustering>
<clus scale="   59.281">  1  9  2 -1</clus>
<clus scale="   75.970">  5  6 -1 -1</clus>
<clus scale="   82.725">  2  5  1 -1</clus>
<clus scale="   90.490">  7  8 -1 -1</clus>
<clus scale="   82.725">  2  5  1 -1</clus>
</clustering>
</event>
<event>
 9    1  0.1973774E-005  0.1371785E+03  0.7546771E-02  0.1229215E+00
         -2   -1    0    0    0  501 -0.00000000000E+00  0.00000000000E+00  0.97321106861E+02  0.97321106861E+02  0.00000000000E+00 0.  1.
          1   -1    0    0  502    0  0.00000000000E+00 -0.00000000000E+00 -0.18140389818E+03  0.18140389818E+03  0.00000000000E+00 0. -1.
        -24    2    1    2    0    0 -0.20361782663E+02 -0.73186708663E+02 -0.31576512523E+02  0.11576799859E+03  0.81450947429E+02 0.  0.
         23    2    1    2    0    0  0.28905322405E+02  0.54606972211E+02 -0.47180853098E+02  0.14182506766E+03  0.11862073108E+03 0.  0.
         13    1    3    3    0    0 -0.37747442181E+02 -0.32630823319E+01 -0.19831175242E+02  0.42764384820E+02  0.00000000000E+00 0. -1.
        -14    1    3    3    0    0  0.17385659518E+02 -0.69923626331E+02 -0.11745337281E+02  0.73003613774E+02  0.00000000000E+00 0.  1.
        -13    1    4    4    0    0  0.12153257210E+02  0.84037832550E+02 -0.61717934802E+02  0.10497219840E+03  0.00000000000E+00 0. -1.
         13    1    4    4    0    0  0.16752065195E+02 -0.29430860338E+02  0.14537081704E+02  0.36852869264E+02  0.00000000000E+00 0.  1.
         21    1    1    2  502  501 -0.85435397416E+01  0.18579736452E+02 -0.53254256988E+01  0.21131938785E+02  0.00000000000E+00 0. -1.
<scales pt_clust_5="13000.00000" pt_clust_6="13000.00000" pt_clust_7="13000.00000" pt_clust_8="13000.00000" pt_clust_9="20.44991"></scales>
<clustering>
<clus scale="   20.450">  1  9  2 -1</clus>
<clus scale="   81.451">  5  6 -1 -1</clus>
<clus scale="  106.683">  1  5  2 -1</clus>
<clus scale="  118.621">  7  8 -1 -1</clus>
<clus scale="  137.179">  2  5  1 -1</clus>
</clustering>
</event>
<event>
 9    1  0.1973774E-005  0.1145243E+03  0.7546771E-02  0.1255537E+00
          1   -1    0    0  502    0  0.00000000000E+00  0.00000000000E+00  0.18443929408E+03  0.18443929408E+03  0.00000000000E+00 0. -1.
         -2   -1    0    0    0  501 -0.00000000000E+00 -0.00000000000E+00 -0.11309550755E+03  0.11309550755E+03  0.00000000000E+00 0.  1.
         23    2    1    2    0    0 -0.63176806350E+02 -0.36144424646E+02 -0.34521586650E+01  0.11543519499E+03  0.89530098564E+02 0.  0.
        -24    2    1    2    0    0  0.49275277671E+02  0.51925128425E+02  0.35460962466E+01  0.10781081821E+03  0.80537728886E+02 0.  0.
         13    1    4    4    0    0  0.23246549261E+02 -0.20255909477E+02  0.39012941322E+01  0.31079318159E+02  0.00000000000E+00 0. -1.
        -14    1    4    4    0    0  0.26028728410E+02  0.72181037902E+02 -0.35519788560E+00  0.76731500056E+02  0.00000000000E+00 0.  1.
        -13    1    3    3    0    0 -0.25023299992E+02 -0.52698044445E+01  0.41587468637E+02  0.48820630158E+02  0.00000000000E+00 0. -1.
         13    1    3    3    0    0 -0.38153506358E+02 -0.30874620202E+02 -0.45039627302E+02  0.66614564830E+02  0.00000000000E+00 0.  1.
         21    1    1    2  502  501  0.13901528678E+02 -0.15780703778E+02  0.71249848951E+02  0.74288788433E+02  0.00000000000E+00 0. -1.
<scales pt_clust_5="13000.00000" pt_clust_6="13000.00000" pt_clust_7="13000.00000" pt_clust_8="13000.00000" pt_clust_9="21.03053"></scales>
<clustering>
<clus scale="   21.031">  1  9  2 -1</clus>
<clus scale="   80.538">  5  6 -1 -1</clus>
<clus scale="   89.530">  7  8 -1 -1</clus>
<clus scale="  107.641">  1  5  2 -1</clus>
<clus scale="   21.031">  1  5  2 -1</clus>
</clustering>
</event>
<event>
 9    1  0.1973774E-005  0.1113384E+03  0.7546771E-02  0.1261002E+00
         -2   -1    0    0    0  501 -0.00000000000E+00  0.00000000000E+00  0.20399740262E+03  0.20399740262E+03  0.00000000000E+00 0.  1.
          1   -1    0    0  502    0  0.00000000000E+00 -0.00000000000E+00 -0.42217019902E+03  0.42217019902E+03  0.00000000000E+00 0. -1.
        -24    2    1    2    0    0  0.16068289313E+02 -0.49717202375E+01  0.12205871756E+03  0.14717391661E+03  0.80491759059E+02 0.  0.
         23    2    1    2    0    0  0.14272916484E+01 -0.72294672506E+02 -0.37535005194E+03  0.39233629924E+03  0.88382992579E+02 0.  0.
         13    1    3    3    0    0 -0.26993915522E+02 -0.12485946323E+02  0.19170238737E+02  0.35384578336E+02  0.00000000000E+00 0. -1.
        -14    1    3    3    0    0  0.43062204835E+02  0.75142260853E+01  0.10288847882E+03  0.11178933828E+03  0.00000000000E+00 0.  1.
        -13    1    4    4    0    0 -0.24332400860E+02 -0.82809423526E+02 -0.27828794834E+03  0.29136514642E+03  0.00000000000E+00 0. -1.
         13    1    4    4    0    0  0.25759692509E+02  0.10514751020E+02 -0.97062103598E+02  0.10097115282E+03  0.00000000000E+00 0.  1.
         21    1    1    2  502  501 -0.17495580962E+02  0.77266392744E+02  0.35118537976E+02  0.86657385781E+02  0.00000000000E+00 0.  1.
<scales pt_clust_5="13000.00000" pt_clust_6="13000.00000" pt_clust_7="13000.00000" pt_clust_8="13000.00000" pt_clust_9="79.22241"></scales>
<clustering>
<clus scale="   79.222">  1  9  2 -1</clus>
<clus scale="   80.492">  5  6 -1 -1</clus>
<clus scale="   88.383">  7  8 -1 -1</clus>
<clus scale="  105.184">  1  5  2 -1</clus>
<clus scale="  111.338">  2  5  1 -1</clus>
</clustering>
</event>
<event>
 9    1  0.1973774E-005  0.1087824E+03  0.7546771E-02  0.1268864E+00
          1   -1    0    0  502    0  0.00000000000E+00  0.00000000000E+00  0.10167458612E+03  0.10167458612E+03  0.00000000000E+00 0. -1.
         -2   -1    0    0    0  501 -0.00000000000E+00 -0.00000000000E+00 -0.37842725303E+03  0.37842725303E+03  0.00000000000E+00 0.  1.
        -24    2    1    2    0    0 -0.52369827947E+02 -0.22589366568E+02 -0.31294071843E+03  0.32723444372E+03  0.76795895368E+02 0.  0.
         23    2    1    2    0    0  0.77616236827E+02  0.21155951290E+02  0.37708481081E+02  0.12753465876E+03  0.91494836718E+02 0.  0.
         11    1    3    3    0    0 -0.30540964278E+02  0.22532525536E+02 -0.20145259653E+03  0.20499661913E+03  0.00000000000E+00 0. -1.
        -12    1    3    3    0    0 -0.21828863670E+02 -0.45121892104E+02 -0.11148812190E+03  0.12223782459E+03  0.00000000000E+00 0.  1.
        -11    1    4    4    0    0  0.27418057793E+02 -0.48267462798E+01 -0.28931926859E+02  0.40151011999E+02  0.00000000000E+00 0.  1.
         11    1    4    4    0    0  0.50198179034E+02  0.25982697570E+02  0.66640407940E+02  0.87383646764E+02  0.00000000000E+00 0. -1.
         21    1    1    2  502  501 -0.25246408880E+02  0.14334152786E+01 -0.15204295553E+01  0.25332736661E+02  0.00000000000E+00 0.  1.
<scales pt_clust_5="13000.00000" pt_clust_6="13000.00000" pt_clust_7="13000.00000" pt_clust_8="13000.00000" pt_clust_9="25.28707"></scales>
<clustering>
<clus scale="   25.287">  1  9  2 -1</clus>
<clus scale="   76.796">  5  6 -1 -1</clus>
<clus scale="   91.495">  7  8 -1 -1</clus>
<clus scale="   96.747">  2  5  1 -1</clus>
<clus scale="   25.287">  1  5  2 -1</clus>
</clustering>
</event>
<event>
 9    1  0.1973774E-005  0.1736249E+03  0.7546771E-02  0.1179284E+00
          1   -1    0    0  502    0  0.00000000000E+00  0.00000000000E+00  0.22259233239E+03  0.22259233239E+03  0.00000000000E+00 0. -1.
         -2   -1    0    0    0  501 -0.00000000000E+00 -0.00000000000E+00 -0.15775747814E+03  0.15775747814E+03  0.00000000000E+00 0.  1.
         23    2    1    2    0    0  0.81264321053E+02 -0.10392567115E+03 -0.26121154254E+02  0.17844956510E+03  0.11729235945E+03 0.  0.
        -24    2    1    2    0    0 -0.95138157434E+02  0.78519144327E+02  0.82408414934E+02  0.17171686760E+03  0.86481273936E+02 0.  0.
         13    1    4    4    0    0 -0.89023032553E+02  0.48083681589E+02  0.94457010111E+02  0.13841700589E+03  0.00000000000E+00 0. -1.
        -14    1    4    4    0    0 -0.61151248806E+01  0.30435462738E+02 -0.12048595178E+02  0.33299861713E+02  0.00000000000E+00 0.  1.
        -11    1    3    3    0    0  0.42320864661E+02 -0.97315059705E+02  0.29579435266E+02  0.11016451072E+03  0.00000000000E+00 0. -1.
         11    1    3    3    0    0  0.38943456393E+02 -0.66106114482E+01 -0.55700589520E+02  0.68285054386E+02  0.00000000000E+00 0.  1.
         21    1    1    2  502  501  0.13873836380E+02  0.25406526826E+02  0.85475935714E+01  0.30183377828E+02  0.00000000000E+00 0.  1.
<scales pt_clust_5="13000.00000" pt_clust_6="13000.00000" pt_clust_7="13000.00000" pt_clust_8="13000.00000" pt_clust_9="28.94780"></scales>
<clustering>
<clus scale="   28.948">  1  9  2 -1</clus>
<clus scale="   86.481">  5  6 -1 -1</clus>
<clus scale="  117.292">  7  8 -1 -1</clus>
<clus scale="  154.490">  1  5  2 -1</clus>
<clus scale="   28.948">  1  5  2 -1</clus>
</clustering>
</event>
<event>
 9    1  0.1973774E-005  0.1092227E+03  0.7546771E-02  0.1267133E+00
         -2   -1    0    0    0  501 -0.00000000000E+00  0.00000000000E+00  0.92119185903E+02  0.92119185903E+02  0.00000000000E+00 0.  1.
          1   -1    0    0  502    0  0.00000000000E+00 -0.00000000000E+00 -0.72184801555E+03  0.72184801555E+03  0.00000000000E+00 0. -1.
        -24    2    1    2    0    0  0.55978740467E+02  0.33697744201E+02  0.52877865127E+02  0.11229892604E+03  0.74470281461E+02 0.  0.
         23    2    1    2    0    0 -0.73317998808E+02  0.72367592722E+01 -0.42135572781E+03  0.43666195248E+03  0.87778765957E+02 0.  0.
         13    1    3    3    0    0  0.97646192127E+01 -0.21476927155E+02  0.10649446090E+01  0.23616525897E+02  0.00000000000E+00 0. -1.
        -14    1    3    3    0    0  0.46214121255E+02  0.55174671356E+02  0.51812920518E+02  0.88682400143E+02  0.00000000000E+00 0.  1.
        -13    1    4    4    0    0 -0.73016201688E+02 -0.28810471511E+02 -0.29502338632E+03  0.30528709022E+03  0.00000000000E+00 0. -1.
         13    1    4    4    0    0 -0.30179712005E+00  0.36047230783E+02 -0.12633234149E+03  0.13137486227E+03  0.00000000000E+00 0.  1.
         21    1    1    2  502  501  0.17339258340E+02 -0.40934503473E+02 -0.26125096696E+03  0.26500632293E+03  0.00000000000E+00 0.  1.
<scales pt_clust_5="13000.00000" pt_clust_6="13000.00000" pt_clust_7="13000.00000" pt_clust_8="13000.00000" pt_clust_9="44.45541"></scales>
<clustering>
<clus scale="   44.455">  2  9  1 -1</clus>
<clus scale="   74.470">  5  6 -1 -1</clus>
<clus scale="   87.779">  7  8 -1 -1</clus>
<clus scale="   98.845">  1  5  2 -1</clus>
<clus scale="   44.455">  2  5  1 -1</clus>
</clustering>
</event>
<event>
 9    1  0.1973774E-005  0.1743592E+03  0.7546771E-02  0.1174154E+00
          1   -1    0    0  502    0  0.00000000000E+00  0.00000000000E+00  0.36698055365E+03  0.36698055365E+03  0.00000000000E+00 0. -1.
         -2   -1    0    0    0  501 -0.00000000000E+00 -0.00000000000E+00 -0.49071260853E+03  0.49071260853E+03  0.00000000000E+00 0.  1.
        -24    2    1    2    0    0  0.16718729463E+02  0.15635182829E+03 -0.44615376241E+03  0.47949296885E+03  0.78325713162E+02 0.  0.
         23    2    1    2    0    0 -0.18048985692E+02 -0.79801232954E+02  0.22792433745E+03  0.25657981602E+03  0.84792073452E+02 0.  0.
         13    1    3    3    0    0  0.28402363771E+02  0.72303527658E+02 -0.12376967609E+03  0.14612811878E+03  0.00000000000E+00 0. -1.
        -14    1    3    3    0    0 -0.11683634308E+02  0.84048300631E+02 -0.32238408632E+03  0.33336485007E+03  0.00000000000E+00 0.  1.
        -11    1    4    4    0    0  0.27817245498E+02 -0.63160905742E+02  0.13105498407E+03  0.14811653523E+03  0.00000000000E+00 0. -1.
         11    1    4    4    0    0 -0.45866231191E+02 -0.16640327213E+02  0.96869353386E+02  0.10846328079E+03  0.00000000000E+00 0.  1.
         21    1    1    2  502  501  0.13302562299E+01 -0.76550595335E+02  0.94497370068E+02  0.12162037731E+03  0.00000000000E+00 0. -1.
<scales pt_clust_5="13000.00000" pt_clust_6="13000.00000" pt_clust_7="13000.00000" pt_clust_8="13000.00000" pt_clust_9="76.56215"></scales>
<clustering>
<clus scale="   76.562">  1  9  2 -1</clus>
<clus scale="   78.326">  5  6 -1 -1</clus>
<clus scale="   84.792">  7  8 -1 -1</clus>
<clus scale="  171.308">  2  5  1 -1</clus>
<clus scale="   76.562">  1  5  2 -1</clus>
</clustering>
</event>
<event>
 9    1  0.1973774E-005  0.1324964E+03  0.7546771E-02  0.1226703E+00
         -2   -1    0    0    0  501 -0.00000000000E+00  0.00000000000E+00  0.48210018035E+02  0.48210018035E+02  0.00000000000E+00 0.  1.
          1   -1    0    0  502    0  0.00000000000E+00 -0.00000000000E+00 -0.49726809548E+03  0.49726809548E+03  0.00000000000E+00 0. -1.
        -24    2    1    2    0    0  0.16596491296E+02  0.84682283772E+02 -0.10599154230E+03  0.15843902829E+03  0.80138542154E+02 0.  0.
         23    2    1    2    0    0 -0.30004043549E+02 -0.11187605434E+03 -0.26727270604E+03  0.30540595381E+03  0.91769292578E+02 0.  0.
         13    1    3    3    0    0 -0.15742003699E+02  0.78265824169E+02 -0.94073180966E+02  0.12338198122E+03  0.00000000000E+00 0. -1.
        -14    1    3    3    0    0  0.32338494995E+02  0.64164596031E+01 -0.11918361337E+02  0.35057047071E+02  0.00000000000E+00 0.  1.
        -13    1    4    4    0    0 -0.60440412978E+02 -0.94647037801E+02 -0.19258992485E+03  0.22293941876E+03  0.00000000000E+00 0. -1.
         13    1    4    4    0    0  0.30436369429E+02 -0.17229016541E+02 -0.74682781198E+02  0.82466535045E+02  0.00000000000E+00 0.  1.
         21    1    1    2  502  501  0.13407552253E+02  0.27193770570E+02 -0.75793829096E+02  0.81633131413E+02  0.00000000000E+00 0. -1.
<scales pt_clust_5="13000.00000" pt_clust_6="13000.00000" pt_clust_7="13000.00000" pt_clust_8="13000.00000" pt_clust_9="30.31936"></scales>
<clustering>
<clus scale="   30.319">  2  9  1 -1</clus>
<clus scale="   80.139">  5  6 -1 -1</clus>
<clus scale="   91.769">  7  8 -1 -1</clus>
<clus scale="  124.723">  1  5  2 -1</clus>
<clus scale="   30.319">  2  5  1 -1</clus>
</clustering>
</event>
<event>
 9    1  0.1973774E-005  0.1439977E+03  0.7546771E-02  0.1210180E+00
          1   -1    0    0  502    0  0.00000000000E+00  0.00000000000E+00  0.15214223483E+03  0.15214223483E+03  0.00000000000E+00 0. -1.
         -2   -1    0    0    0  501 -0.00000000000E+00 -0.00000000000E+00 -0.40072761271E+03  0.40072761271E+03  0.00000000000E+00 0.  1.
         23    2    1    2    0    0  0.53432045218E+02  0.11369330722E+03 -0.32441129545E+03  0.35953843825E+03  0.90796742231E+02 0.  0.
        -24    2    1    2    0    0  0.53798339993E+00 -0.63284942748E+02  0.30350516047E+02  0.10660321698E+03  0.80236018359E+02 0.  0.
         13    1    4    4    0    0 -0.29379298763E+02  0.27116213121E+00 -0.16188058450E+01  0.29425112694E+02  0.00000000000E+00 0. -1.
        -14    1    4    4    0    0  0.29917282163E+02 -0.63556104879E+02  0.31969321892E+02  0.77178104289E+02  0.00000000000E+00 0.  1.
        -13    1    3    3    0    0 -0.51453258858E+01  0.57861709385E+02 -0.62126409555E+02  0.85053762736E+02  0.00000000000E+00 0. -1.
         13    1    3    3    0    0  0.58577371104E+02  0.55831597840E+02 -0.26228488590E+03  0.27448467551E+03  0.00000000000E+00 0.  1.
         21    1    1    2  502  501 -0.53970028618E+02 -0.50408364476E+02  0.45475401523E+02  0.86728192313E+02  0.00000000000E+00 0. -1.
<scales pt_clust_5="13000.00000" pt_clust_6="13000.00000" pt_clust_7="13000.00000" pt_clust_8="13000.00000" pt_clust_9="73.84963"></scales>
<clustering>
<clus scale="   73.850">  1  9  2 -1</clus>
<clus scale="   80.236">  5  6 -1 -1</clus>
<clus scale="   90.797">  7  8 -1 -1</clus>
<clus scale="  137.583">  1  5  2 -1</clus>
<clus scale="   73.850">  1  5  2 -1</clus>
</clustering>
</event>
<event>
 9    1  0.1973774E-005  0.9421981E+02  0.7546771E-02  0.1299119E+00
         -4   -1    0    0    0  501 -0.00000000000E+00  0.00000000000E+00  0.26514064365E+03  0.26514064365E+03  0.00000000000E+00 0.  1.
          3   -1    0    0  502    0  0.00000000000E+00 -0.00000000000E+00 -0.10384776146E+03  0.10384776146E+03  0.00000000000E+00 0. -1.
        -24    2    1    2    0    0 -0.12470500245E+02 -0.15686281813E+02  0.20296278799E+03  0.21944191658E+03  0.80989435283E+02 0.  0.
         23    2    1    2    0    0  0.19500012039E+01  0.51562159112E+02 -0.38962371666E+02  0.11206195555E+03  0.91527901314E+02 0.  0.
         13    1    3    3    0    0  0.28089595170E+02 -0.22280798930E+02  0.53273429205E+02  0.64214621520E+02  0.00000000000E+00 0. -1.
        -14    1    3    3    0    0 -0.40560095415E+02  0.65945171167E+01  0.14968935879E+03  0.15522729506E+03  0.00000000000E+00 0.  1.
        -11    1    4    4    0    0 -0.23251781155E+02  0.62459310971E+02 -0.49113648085E+02  0.82788654308E+02  0.00000000000E+00 0. -1.
         11    1    4    4    0    0  0.25201782359E+02 -0.10897151859E+02  0.10151276419E+02  0.29273301243E+02  0.00000000000E+00 0.  1.
         21    1    1    2  502  501  0.10520499041E+02 -0.35875877299E+02 -0.27075341340E+01  0.37484532985E+02  0.00000000000E+00 0. -1.
<scales pt_clust_5="13000.00000" pt_clust_6="13000.00000" pt_clust_7="13000.00000" pt_clust_8="13000.00000" pt_clust_9="37.38662"></scales>
<clustering>
<clus scale="   37.387">  2  9  1 -1</clus>
<clus scale="   80.989">  5  6 -1 -1</clus>
<clus scale="   84.020">  1  5  2 -1</clus>
<clus scale="   91.528">  7  8 -1 -1</clus>
<clus scale="   37.387">  2  5  1 -1</clus>
</clustering>
</event>
<event>
 9    1  0.1973774E-005  0.2000947E+03  0.7546771E-02  0.1150746E+00
         -4   -1    0    0    0  501 -0.00000000000E+00  0.00000000000E+00  0.21646877009E+03  0.21646877009E+03  0.00000000000E+00 0.  1.
          3   -1    0    0  502    0  0.00000000000E+00 -0.00000000000E+00 -0.36355229661E+03  0.36355229661E+03  0.00000000000E+00 0. -1.
        -24    2    1    2    0    0 -0.61761224059E+02 -0.18917645980E+03  0.71204984018E+01  0.21511588426E+03  0.81375428867E+02 0.  0.
         23    2    1    2    0    0 -0.30938202518E+02  0.17240184199E+03 -0.17940424812E+03  0.26738788787E+03  0.92902265005E+02 0.  0.
         11    1    3    3    0    0 -0.13389056711E+02 -0.10256858779E+03  0.39560405005E+02  0.11074568924E+03  0.00000000000E+00 0. -1.
        -12    1    3    3    0    0 -0.48372167348E+02 -0.86607872007E+02 -0.32439906604E+02  0.10437019502E+03  0.00000000000E+00 0.  1.
        -13    1    4    4    0    0  0.18858608688E+01  0.16172582604E+03 -0.13209264883E+03  0.20882353113E+03  0.00000000000E+00 0.  1.
         13    1    4    4    0    0 -0.32824063387E+02  0.10676015953E+02 -0.47311599285E+02  0.58564356743E+02  0.00000000000E+00 0. -1.
         21    1    1    2  502  501  0.92699426577E+02  0.16774617808E+02  0.25200223196E+02  0.97517294566E+02  0.00000000000E+00 0.  1.
<scales pt_clust_5="13000.00000" pt_clust_6="13000.00000" pt_clust_7="13000.00000" pt_clust_8="13000.00000" pt_clust_9="94.20494"></scales>
<clustering>
<clus scale="   81.375">  5  6 -1 -1</clus>
<clus scale="   92.902">  7  8 -1 -1</clus>
<clus scale="   94.205">  1  9  2 -1</clus>
<clus scale="  195.010">  1  5  2 -1</clus>
<clus scale="  200.095">  2  5  1 -1</clus>
</clustering>
</event>
<event>
 9    1  0.1973774E-005  0.9604926E+02  0.7546771E-02  0.1292504E+00
         -2   -1    0    0    0  501 -0.00000000000E+00  0.00000000000E+00  0.58012677769E+02  0.58012677769E+02  0.00000000000E+00 0.  1.
          1   -1    0    0  502    0  0.00000000000E+00 -0.00000000000E+00 -0.41401146072E+03  0.41401146072E+03  0.00000000000E+00 0. -1.
        -24    2    1    2    0    0  0.20288835150E+02 -0.24030501116E+02 -0.64654272350E+01  0.90764759058E+02  0.84896041851E+02 0.  0.
         23    2    1    2    0    0 -0.30244787871E+02 -0.51462754657E+01 -0.33204883262E+03  0.34581768317E+03  0.91609013747E+02 0.  0.
         13    1    3    3    0    0  0.72550209417E+01  0.29535052262E+02  0.11899022425E+02  0.32657945061E+02  0.00000000000E+00 0. -1.
        -14    1    3    3    0    0  0.13033814208E+02 -0.53565553378E+02 -0.18364449660E+02  0.58106813997E+02  0.00000000000E+00 0.  1.
        -13    1    4    4    0    0 -0.49889420269E+02 -0.34871270079E+02 -0.20133024785E+03  0.21033028415E+03  0.00000000000E+00 0. -1.
         13    1    4    4    0    0  0.19644632399E+02  0.29724994613E+02 -0.13071858478E+03  0.13548739902E+03  0.00000000000E+00 0.  1.
         21    1    1    2  502  501  0.99559527209E+01  0.29176776582E+02 -0.17484523091E+02  0.35441696264E+02  0.00000000000E+00 0. -1.
<scales pt_clust_5="13000.00000" pt_clust_6="13000.00000" pt_clust_7="13000.00000" pt_clust_8="13000.00000" pt_clust_9="30.82864"></scales>
<clustering>
<clus scale="   30.829">  1  9  2 -1</clus>
<clus scale="   84.896">  5  6 -1 -1</clus>
<clus scale="   89.669">  1  5  2 -1</clus>
<clus scale="   91.609">  7  8 -1 -1</clus>
<clus scale="   96.049">  2  5  1 -1</clus>
</clustering>
</event>
<event>
 9    1  0.1973774E-005  0.9610317E+02  0.7546771E-02  0.1292785E+00
          3   -1    0    0  502    0  0.00000000000E+00  0.00000000000E+00  0.14824642528E+03  0.14824642528E+03  0.00000000000E+00 0. -1.
         -4   -1    0    0    0  501 -0.00000000000E+00 -0.00000000000E+00 -0.23323343664E+03  0.23323343664E+03  0.00000000000E+00 0.  1.
         23    2    1    2    0    0  0.48451932547E+02  0.10518987165E+02 -0.16973111500E+03  0.19738332429E+03  0.87711381527E+02 0.  0.
        -24    2    1    2    0    0  0.24641990709E+02 -0.28063189211E+02  0.47894392872E+02  0.10038022007E+03  0.79922120954E+02 0.  0.
         11    1    4    4    0    0 -0.26242722133E+02 -0.90213188934E+01  0.34770826709E+02  0.44486796351E+02  0.00000000000E+00 0. -1.
        -12    1    4    4    0    0  0.50884712842E+02 -0.19041870317E+02  0.13123566163E+02  0.55893423719E+02  0.00000000000E+00 0.  1.
        -13    1    3    3    0    0  0.19153875682E+01 -0.31174304686E+02 -0.25928184766E+02  0.40592816451E+02  0.00000000000E+00 0. -1.
         13    1    3    3    0    0  0.46536544978E+02  0.41693291850E+02 -0.14380293024E+03  0.15679050784E+03  0.00000000000E+00 0.  1.
         21    1    1    2  502  501 -0.73093923255E+02  0.17544202046E+02  0.36849710776E+02  0.83716317565E+02  0.00000000000E+00 0. -1.
<scales pt_clust_5="13000.00000" pt_clust_6="13000.00000" pt_clust_7="13000.00000" pt_clust_8="13000.00000" pt_clust_9="75.16995"></scales>
<clustering>
<clus scale="   75.170">  1  9  2 -1</clus>
<clus scale="   79.922">  5  6 -1 -1</clus>
<clus scale="   87.711">  7  8 -1 -1</clus>
<clus scale="   89.051">  1  5  2 -1</clus>
<clus scale="   75.170">  1  5  2 -1</clus>
</clustering>
</event>
<event>
 9    1  0.1973774E-005  0.2271066E+03  0.7546771E-02  0.1139133E+00
          1   -1    0    0  502    0  0.00000000000E+00  0.00000000000E+00  0.20847355772E+03  0.20847355772E+03  0.00000000000E+00 0. -1.
         -2   -1    0    0    0  501 -0.00000000000E+00 -0.00000000000E+00 -0.89923845595E+03  0.89923845595E+03  0.00000000000E+00 0.  1.
         23    2    1    2    0    0 -0.12683297273E+03 -0.79598268443E+02 -0.18849430549E+03  0.25792825899E+03  0.92598036010E+02 0.  0.
        -24    2    1    2    0    0 -0.81801857031E+02  0.15671202791E+03 -0.58193271759E+03  0.61351890705E+03  0.80681831918E+02 0.  0.
         11    1    4    4    0    0  0.87879358200E+01  0.55371924249E+02 -0.21595519011E+03  0.22311414555E+03  0.00000000000E+00 0. -1.
        -12    1    4    4    0    0 -0.90589792851E+02  0.10134010366E+03 -0.36597752748E+03  0.39040476150E+03  0.00000000000E+00 0.  1.
        -11    1    3    3    0    0 -0.11001819859E+03 -0.20456324710E+02 -0.99391055373E+02  0.14966979364E+03  0.00000000000E+00 0. -1.
         11    1    3    3    0    0 -0.16814774144E+02 -0.59141943733E+02 -0.89103250115E+02  0.10825846535E+03  0.00000000000E+00 0.  1.
         21    1    1    2  502  501  0.20863482976E+03 -0.77113759466E+02  0.79662124849E+02  0.23626484763E+03  0.00000000000E+00 0. -1.
<scales pt_clust_5="13000.00000" pt_clust_6="13000.00000" pt_clust_7="13000.00000" pt_clust_8="13000.00000" pt_clust_9="212.29185"></scales>
<clustering>
<clus scale="   80.682">  5  6 -1 -1</clus>
<clus scale="   92.598">  7  8 -1 -1</clus>
<clus scale="  176.059">  2  7  1 -1</clus>
<clus scale="  212.292">  1  9  2 -1</clus>
<clus scale="  212.292">  1  5  2 -1</clus>
</clustering>
</event>
<event>
 9    1  0.1973774E-005  0.1053192E+03  0.7546771E-02  0.1274947E+00
          1   -1    0    0  502    0  0.00000000000E+00  0.00000000000E+00  0.19810962841E+03  0.19810962841E+03  0.00000000000E+00 0. -1.
         -2   -1    0    0    0  501 -0.00000000000E+00 -0.00000000000E+00 -0.22788301385E+03  0.22788301385E+03  0.00000000000E+00 0.  1.
        -24    2    1    2    0    0 -0.29280649394E+02  0.39615349811E+02 -0.18816608248E+03  0.21059071688E+03  0.80717055645E+02 0.  0.
         23    2    1    2    0    0  0.50294580549E+02 -0.33626948535E+02  0.15869024027E+03  0.19354935610E+03  0.92835577170E+02 0.  0.
         11    1    3    3    0    0 -0.37277310301E+02  0.35862085778E+02 -0.49344066894E+02  0.71487929032E+02  0.00000000000E+00 0. -1.
        -12    1    3    3    0    0  0.79966609071E+01  0.37532640326E+01 -0.13882201559E+03  0.13910278785E+03  0.00000000000E+00 0.  1.
        -13    1    4    4    0    0  0.62375427484E+02  0.63721463039E+01  0.61816778961E+02  0.88048920286E+02  0.00000000000E+00 0. -1.
         13    1    4    4    0    0 -0.12080846936E+02 -0.39999094839E+02  0.96873461307E+02  0.10550043581E+03  0.00000000000E+00 0.  1.
         21    1    1    2  502  501 -0.21013931154E+02 -0.59884012762E+01 -0.29754322711E+00  0.21852569285E+02  0.00000000000E+00 0.  1.
<scales pt_clust_5="13000.00000" pt_clust_6="13000.00000" pt_clust_7="13000.00000" pt_clust_8="13000.00000" pt_clust_9="21.85054"></scales>
<clustering>
<clus scale="   21.851">  1  9  2 -1</clus>
<clus scale="   80.717">  5  6 -1 -1</clus>
<clus scale="   92.836">  7  8 -1 -1</clus>
<clus scale="   94.810">  2  5  1 -1</clus>
<clus scale="   21.851">  1  5  2 -1</clus>
</clustering>
</event>
<event>
 9    1  0.1973774E-005  0.1120770E+03  0.7546771E-02  0.1260637E+00
          1   -1    0    0  502    0  0.00000000000E+00  0.00000000000E+00  0.61673627980E+03  0.61673627980E+03  0.00000000000E+00 0. -1.
         -2   -1    0    0    0  501 -0.00000000000E+00 -0.00000000000E+00 -0.30280129238E+02  0.30280129238E+02  0.00000000000E+00 0.  1.
        -24    2    1    2    0    0  0.44890843492E+02  0.49844464480E+02  0.13659861493E+03  0.17210658466E+03  0.80385548540E+02 0.  0.
         23    2    1    2    0    0 -0.14497888203E+02 -0.66423255631E+02  0.38549335263E+03  0.40182537938E+03  0.90753914181E+02 0.  0.
         13    1    3    3    0    0  0.15096504190E+02 -0.20048406262E+02  0.55865888596E+02  0.61244106173E+02  0.00000000000E+00 0. -1.
        -14    1    3    3    0    0  0.29794339302E+02  0.69892870742E+02  0.80732726330E+02  0.11086247848E+03  0.00000000000E+00 0.  1.
        -13    1    4    4    0    0  0.29398743933E+02 -0.56785600656E+02  0.27905980445E+03  0.28629227207E+03  0.00000000000E+00 0. -1.
         13    1    4    4    0    0 -0.43896632136E+02 -0.96376549745E+01  0.10643354818E+03  0.11553310731E+03  0.00000000000E+00 0.  1.
         21    1    1    2  502  501 -0.30392955289E+02  0.16578791150E+02  0.64364183006E+02  0.73084445002E+02  0.00000000000E+00 0.  1.
<scales pt_clust_5="13000.00000" pt_clust_6="13000.00000" pt_clust_7="13000.00000" pt_clust_8="13000.00000" pt_clust_9="34.62063"></scales>
<clustering>
<clus scale="   34.621">  2  9  1 -1</clus>
<clus scale="   80.386">  5  6 -1 -1</clus>
<clus scale="   90.754">  7  8 -1 -1</clus>
<clus scale="  103.860">  2  5  1 -1</clus>
<clus scale="  112.077">  1  5  2 -1</clus>
</clustering>
</event>
<event>
 9    1  0.1973774E-005  0.1072599E+03  0.7546771E-02  0.1269231E+00
          1   -1    0    0  502    0  0.00000000000E+00  0.00000000000E+00  0.10159329197E+03  0.10159329197E+03  0.00000000000E+00 0. -1.
         -2   -1    0    0    0  501 -0.00000000000E+00 -0.00000000000E+00 -0.16112918223E+03  0.16112918223E+03  0.00000000000E+00 0.  1.
        -24    2    1    2    0    0  0.25989340386E+02  0.31183282754E+02 -0.31623075298E+02  0.97409180122E+02  0.82708443001E+02 0.  0.
         23    2    1    2    0    0 -0.49540196316E+02 -0.59383592478E+02 -0.40937585382E+02  0.12633195330E+03  0.91122085260E+02 0.  0.
         13    1    3    3    0    0 -0.28696780295E+02  0.12713301742E+02  0.42165071591E+00  0.31389664379E+02  0.00000000000E+00 0. -1.
        -14    1    3    3    0    0  0.54686120680E+02  0.18469981012E+02 -0.32044726014E+02  0.66019515743E+02  0.00000000000E+00 0.  1.
        -13    1    4    4    0    0  0.23780877730E+02 -0.34860649954E+02 -0.14076341268E+02  0.44485260978E+02  0.00000000000E+00 0.  1.
         13    1    4    4    0    0 -0.73321074046E+02 -0.24522942524E+02 -0.26861244113E+02  0.81846692326E+02  0.00000000000E+00 0. -1.
         21    1    1    2  502  501  0.23550855931E+02  0.28200309723E+02  0.13024770420E+02  0.38981340767E+02  0.00000000000E+00 0. -1.
<scales pt_clust_5="13000.00000" pt_clust_6="13000.00000" pt_clust_7="13000.00000" pt_clust_8="13000.00000" pt_clust_9="36.74099"></scales>
<clustering>
<clus scale="   36.741">  1  9  2 -1</clus>
<clus scale="   82.708">  5  6 -1 -1</clus>
<clus scale="   91.122">  7  8 -1 -1</clus>
<clus scale="  100.211">  2  5  1 -1</clus>
<clus scale="   36.741">  1  5  2 -1</clus>
</clustering>
</event>
<event>
 9    1  0.1973774E-005  0.9097663E+02  0.7546771E-02  0.1303559E+00
          3   -1    0    0  502    0  0.00000000000E+00  0.00000000000E+00  0.96056147593E+02  0.96056147593E+02  0.00000000000E+00 0. -1.
         -4   -1    0    0    0  501 -0.00000000000E+00 -0.00000000000E+00 -0.13361957520E+03  0.13361957520E+03  0.00000000000E+00 0.  1.
        -24    2    1    2    0    0 -0.65869683382E+01 -0.42020958004E+02 -0.60700744054E+02  0.11069417719E+03  0.82216004954E+02 0.  0.
         23    2    1    2    0    0  0.85088463887E+01  0.17002058555E+02  0.27364568315E+02  0.93535355262E+02  0.87398928042E+02 0.  0.
         11    1    3    3    0    0  0.13623160391E+02 -0.38965962792E+02  0.52845506368E+01  0.41615660884E+02  0.00000000000E+00 0. -1.
        -12    1    3    3    0    0 -0.20210128729E+02 -0.30549952111E+01 -0.65985294691E+02  0.69078516302E+02  0.00000000000E+00 0.  1.
        -13    1    4    4    0    0 -0.55938036660E+00 -0.25796565835E+02 -0.17259724378E+02  0.31043095865E+02  0.00000000000E+00 0.  1.
         13    1    4    4    0    0  0.90682267553E+01  0.42798624389E+02  0.44624292693E+02  0.62492259397E+02  0.00000000000E+00 0. -1.
         21    1    1    2  502  501 -0.19218780505E+01  0.25018899449E+02 -0.42272518717E+01  0.25446190349E+02  0.00000000000E+00 0. -1.
<scales pt_clust_5="13000.00000" pt_clust_6="13000.00000" pt_clust_7="13000.00000" pt_clust_8="13000.00000" pt_clust_9="25.09261"></scales>
<clustering>
<clus scale="   25.093">  2  9  1 -1</clus>
<clus scale="   82.216">  5  6 -1 -1</clus>
<clus scale="   86.010">  2  5  1 -1</clus>
<clus scale="   87.399">  7  8 -1 -1</clus>
<clus scale="   90.977">  1  5  2 -1</clus>
</clustering>
</event>
<event>
 9    1  0.1973774E-005  0.1208942E+03  0.7546771E-02  0.1244271E+00
         -2   -1    0    0    0  501 -0.00000000000E+00  0.00000000000E+00  0.52771681802E+03  0.52771681802E+03  0.00000000000E+00 0.  1.
          1   -1    0    0  502    0  0.00000000000E+00 -0.00000000000E+00 -0.15812766710E+03  0.15812766710E+03  0.00000000000E+00 0. -1.
        -24    2    1    2    0    0  0.36302382065E+02 -0.75202483163E+02  0.48411996310E+03  0.49786502376E+03  0.80772314497E+02 0.  0.
         23    2    1    2    0    0 -0.16045905614E+02  0.37982112485E+02 -0.10608419301E+03  0.14477036269E+03  0.89467815167E+02 0.  0.
         13    1    3    3    0    0 -0.22993197512E+02 -0.32972769499E+02  0.12044832589E+03  0.12697909226E+03  0.00000000000E+00 0. -1.
        -14    1    3    3    0    0  0.59295579577E+02 -0.42229713665E+02  0.36367163721E+03  0.37088593150E+03  0.00000000000E+00 0.  1.
        -13    1    4    4    0    0  0.36469485074E+02  0.58216577255E+01 -0.39908514724E+02  0.54374668621E+02  0.00000000000E+00 0.  1.
         13    1    4    4    0    0 -0.52515390687E+02  0.32160454759E+02 -0.66175678290E+02  0.90395694071E+02  0.00000000000E+00 0. -1.
         21    1    1    2  502  501 -0.20256476452E+02  0.37220370679E+02 -0.84466191729E+01  0.43209098661E+02  0.00000000000E+00 0. -1.
<scales pt_clust_5="13000.00000" pt_clust_6="13000.00000" pt_clust_7="13000.00000" pt_clust_8="13000.00000" pt_clust_9="42.37547"></scales>
<clustering>
<clus scale="   42.375">  2  9  1 -1</clus>
<clus scale="   80.772">  5  6 -1 -1</clus>
<clus scale="   89.468">  7  8 -1 -1</clus>
<clus scale="  114.608">  1  5  2 -1</clus>
<clus scale="   42.375">  2  5  1 -1</clus>
</clustering>
</event>
<event>
 9    1  0.3485699E-005  0.9885407E+02  0.7546771E-02  0.1286702E+00
         -4   -1    0    0    0  501 -0.00000000000E+00  0.00000000000E+00  0.50591094037E+03  0.50591094037E+03  0.00000000000E+00 0.  1.
          3   -1    0    0  502    0  0.00000000000E+00 -0.00000000000E+00 -0.19107682344E+03  0.19107682344E+03  0.00000000000E+00 0. -1.
        -24    2    1    2    0    0 -0.71965687852E+02  0.88261496608E+01  0.45382435245E+03  0.46678683920E+03  0.81709541826E+02 0.  0.
         23    2    1    2    0    0  0.40688115674E+02  0.16916337590E+01 -0.16227121028E+03  0.18981634741E+03  0.89665576878E+02 0.  0.
         13    1    3    3    0    0 -0.47134202167E+02  0.10531559707E+02  0.90238655294E+02  0.10235019137E+03  0.00000000000E+00 0. -1.
        -14    1    3    3    0    0 -0.24831485685E+02 -0.17054100463E+01  0.36358569716E+03  0.36443664783E+03  0.00000000000E+00 0.  1.
        -13    1    4    4    0    0  0.68030607282E+02  0.12005133097E+02 -0.11909155255E+03  0.13767746597E+03  0.00000000000E+00 0. -1.
         13    1    4    4    0    0 -0.27342491609E+02 -0.10313499338E+02 -0.43179657731E+02  0.52138881439E+02  0.00000000000E+00 0.  1.
         21    1    1    2  502  501  0.31277572178E+02 -0.10517783420E+02  0.23280974767E+02  0.40384577199E+02  0.00000000000E+00 0.  1.
<scales pt_clust_5="13000.00000" pt_clust_6="13000.00000" pt_clust_7="13000.00000" pt_clust_8="13000.00000" pt_clust_9="32.99864"></scales>
<clustering>
<clus scale="   32.999">  1  9  2 -1</clus>
<clus scale="   81.710">  5  6 -1 -1</clus>
<clus scale="   89.666">  7  8 -1 -1</clus>
<clus scale="   91.699">  1  5  2 -1</clus>
<clus scale="   98.854">  2  5  1 -1</clus>
</clustering>
</event>
<event>
 9    1  0.1973774E-005  0.1158127E+03  0.7546771E-02  0.1258355E+00
          1   -1    0    0  502    0  0.00000000000E+00  0.00000000000E+00  0.70515528943E+02  0.70515528943E+02  0.00000000000E+00 0. -1.
         -2   -1    0    0    0  501 -0.00000000000E+00 -0.00000000000E+00 -0.34696904787E+03  0.34696904787E+03  0.00000000000E+00 0.  1.
         23    2    1    2    0    0  0.10850767592E+02  0.28116803516E+02 -0.23448039325E+03  0.25755515548E+03  0.10220229694E+03 0.  0.
        -24    2    1    2    0    0 -0.22882374908E+02 -0.54441225449E+02  0.88454612569E+01  0.10144640206E+03  0.82010244465E+02 0.  0.
         13    1    4    4    0    0  0.11035615924E+02 -0.48326902166E+02  0.32830776091E+02  0.59456994126E+02  0.00000000000E+00 0. -1.
        -14    1    4    4    0    0 -0.33917990832E+02 -0.61143232828E+01 -0.23985314834E+02  0.41989407938E+02  0.00000000000E+00 0.  1.
        -11    1    3    3    0    0  0.93296836152E+01 -0.35743601320E+02 -0.12951618523E+03  0.13468143995E+03  0.00000000000E+00 0. -1.
         11    1    3    3    0    0  0.15210839764E+01  0.63860404835E+02 -0.10496420802E+03  0.12287371553E+03  0.00000000000E+00 0.  1.
         21    1    1    2  502  501  0.12031607316E+02  0.26324421933E+02 -0.50818586930E+02  0.58483019264E+02  0.00000000000E+00 0.  1.
<scales pt_clust_5="13000.00000" pt_clust_6="13000.00000" pt_clust_7="13000.00000" pt_clust_8="13000.00000" pt_clust_9="28.94365"></scales>
<clustering>
<clus scale="   28.944">  2  9  1 -1</clus>
<clus scale="   82.010">  5  6 -1 -1</clus>
<clus scale="   98.453">  1  5  2 -1</clus>
<clus scale="  102.202">  7  8 -1 -1</clus>
<clus scale="   98.453">  1  5  2 -1</clus>
</clustering>
</event>
<event>
 9    1  0.1973774E-005  0.2120766E+03  0.7546771E-02  0.1140962E+00
          1   -1    0    0  502    0  0.00000000000E+00  0.00000000000E+00  0.66402456267E+03  0.66402456267E+03  0.00000000000E+00 0. -1.
         -2   -1    0    0    0  501 -0.00000000000E+00 -0.00000000000E+00 -0.12424644470E+03  0.12424644470E+03  0.00000000000E+00 0.  1.
        -24    2    1    2    0    0 -0.15390329336E+03  0.12256322634E+03  0.67114452325E+01  0.21119779268E+03  0.76495071597E+02 0.  0.
         23    2    1    2    0    0  0.13013219685E+03 -0.11359757636E+03  0.45178906059E+03  0.49191748591E+03  0.89613947930E+02 0.  0.
         13    1    3    3    0    0 -0.82697483784E+02  0.35993887963E+02  0.33045586700E+02  0.96054383529E+02  0.00000000000E+00 0. -1.
        -14    1    3    3    0    0 -0.71205809573E+02  0.86569338378E+02 -0.26334141467E+02  0.11514340915E+03  0.00000000000E+00 0.  1.
        -13    1    4    4    0    0  0.12443661572E+03 -0.59313009150E+02  0.28837865880E+03  0.31963221871E+03  0.00000000000E+00 0. -1.
         13    1    4    4    0    0  0.56955811344E+01 -0.54284567212E+02  0.16341040178E+03  0.17228526720E+03  0.00000000000E+00 0.  1.
         21    1    1    2  502  501  0.23771096506E+02 -0.89656499794E+01  0.81277612143E+02  0.85155728782E+02  0.00000000000E+00 0. -1.
<scales pt_clust_5="13000.00000" pt_clust_6="13000.00000" pt_clust_7="13000.00000" pt_clust_8="13000.00000" pt_clust_9="25.40567"></scales>
<clustering>
<clus scale="   25.406">  1  9  2 -1</clus>
<clus scale="   76.495">  5  6 -1 -1</clus>
<clus scale="   89.614">  7  8 -1 -1</clus>
<clus scale="  206.875">  2  5  1 -1</clus>
<clus scale="   25.406">  1  5  2 -1</clus>
</clustering>
</event>
<event>
 9    1  0.1973774E-005  0.1330072E+03  0.7546771E-02  0.1226287E+00
          1   -1    0    0  502    0  0.00000000000E+00  0.00000000000E+00  0.23315524670E+03  0.23315524670E+03  0.00000000000E+00 0. -1.
         -2   -1    0    0    0  501 -0.00000000000E+00 -0.00000000000E+00 -0.24958007232E+03  0.24958007232E+03  0.00000000000E+00 0.  1.
        -24    2    1    2    0    0  0.78758968352E+01 -0.93337292737E+02 -0.19766942200E+03  0.23289959277E+03  0.79969618936E+02 0.  0.
         23    2    1    2    0    0 -0.15433610401E+02  0.11234027454E+03  0.17539377924E+03  0.22856451536E+03  0.92845173677E+02 0.  0.
         13    1    3    3    0    0 -0.18750216973E+02 -0.37359651440E+02 -0.23335858145E+02  0.47873546637E+02  0.00000000000E+00 0. -1.
        -14    1    3    3    0    0  0.26626113809E+02 -0.55977641297E+02 -0.17433356385E+03  0.18502604613E+03  0.00000000000E+00 0.  1.
        -13    1    4    4    0    0 -0.27828829986E+02  0.40840497493E+02  0.13623424364E+02  0.51263902556E+02  0.00000000000E+00 0.  1.
         13    1    4    4    0    0  0.12395219585E+02  0.71499777042E+02  0.16177035487E+03  0.17730061281E+03  0.00000000000E+00 0. -1.
         21    1    1    2  502  501  0.75577135654E+01 -0.19002981799E+02  0.58508171413E+01  0.21271210892E+02  0.00000000000E+00 0.  1.
<scales pt_clust_5="13000.00000" pt_clust_6="13000.00000" pt_clust_7="13000.00000" pt_clust_8="13000.00000" pt_clust_9="20.45073"></scales>
<clustering>
<clus scale="   20.451">  1  9  2 -1</clus>
<clus scale="   79.970">  5  6 -1 -1</clus>
<clus scale="   92.845">  7  8 -1 -1</clus>
<clus scale="  124.362">  2  5  1 -1</clus>
<clus scale="   20.451">  1  5  2 -1</clus>
</clustering>
</event>
<event>
 9    1  0.1973774E-005  0.1260777E+03  0.7546771E-02  0.1250644E+00
          1   -1    0    0  502    0  0.00000000000E+00  0.00000000000E+00  0.32978974065E+02  0.32978974065E+02  0.00000000000E+00 0. -1.
         -2   -1    0    0    0  501 -0.00000000000E+00 -0.00000000000E+00 -0.68481378463E+03  0.68481378463E+03  0.00000000000E+00 0.  1.
         23    2    1    2    0    0  0.46696290490E+02  0.48173953920E+02 -0.27499235725E+03  0.29904364511E+03  0.96462592531E+02 0.  0.
        -24    2    1    2    0    0  0.86098884782E+01  0.26425393056E+02 -0.16467127496E+03  0.18714504426E+03  0.84464236308E+02 0.  0.
         13    1    4    4    0    0  0.21092517474E+02 -0.24059025184E+01 -0.18381468158E+01  0.21308717560E+02  0.00000000000E+00 0. -1.
        -14    1    4    4    0    0 -0.12482628996E+02  0.28831295574E+02 -0.16283312814E+03  0.16583632670E+03  0.00000000000E+00 0.  1.
        -13    1    3    3    0    0 -0.89591580571E+01  0.40083325685E+02 -0.39698881798E+02  0.57122156184E+02  0.00000000000E+00 0. -1.
         13    1    3    3    0    0  0.55655448547E+02  0.80906282356E+01 -0.23529347545E+03  0.24192148893E+03  0.00000000000E+00 0.  1.
         21    1    1    2  502  501 -0.55306178968E+02 -0.74599346976E+02 -0.21217117836E+03  0.23160406932E+03  0.00000000000E+00 0.  1.
<scales pt_clust_5="13000.00000" pt_clust_6="13000.00000" pt_clust_7="13000.00000" pt_clust_8="13000.00000" pt_clust_9="81.18221"></scales>
<clustering>
<clus scale="   84.464">  5  6 -1 -1</clus>
<clus scale="   88.919">  1  5  2 -1</clus>
<clus scale="   81.182">  1  9  2 -1</clus>
<clus scale="   96.463">  7  8 -1 -1</clus>
<clus scale="   88.919">  1  5  2 -1</clus>
</clustering>
</event>
<event>
 9    1  0.1973774E-005  0.1452933E+03  0.7546771E-02  0.1208740E+00
          1   -1    0    0  502    0  0.00000000000E+00  0.00000000000E+00  0.86152554516E+03  0.86152554516E+03  0.00000000000E+00 0. -1.
         -2   -1    0    0    0  501 -0.00000000000E+00 -0.00000000000E+00 -0.36637458717E+02  0.36637458717E+02  0.00000000000E+00 0.  1.
         23    2    1    2    0    0  0.11966641381E+03 -0.10628567758E+02  0.19624020138E+03  0.24810522316E+03  0.92806077798E+02 0.  0.
        -24    2    1    2    0    0 -0.95280947204E+02 -0.18833449069E+02  0.45666440311E+03  0.47387327662E+03  0.81119341257E+02 0.  0.
         13    1    4    4    0    0 -0.48063132481E+02 -0.48956559044E+02  0.29173564845E+03  0.29969400720E+03  0.00000000000E+00 0. -1.
        -14    1    4    4    0    0 -0.47217814723E+02  0.30123109975E+02  0.16492875466E+03  0.17417926942E+03  0.00000000000E+00 0.  1.
        -13    1    3    3    0    0  0.11368865677E+03 -0.40999349101E+02  0.15615566784E+03  0.19746050214E+03  0.00000000000E+00 0.  1.
         13    1    3    3    0    0  0.59777570355E+01  0.30370781343E+02  0.40084533540E+02  0.50644721025E+02  0.00000000000E+00 0. -1.
         21    1    1    2  502  501 -0.24385466605E+02  0.29462016826E+02  0.17198348195E+03  0.17618450409E+03  0.00000000000E+00 0. -1.
<scales pt_clust_5="13000.00000" pt_clust_6="13000.00000" pt_clust_7="13000.00000" pt_clust_8="13000.00000" pt_clust_9="38.24476"></scales>
<clustering>
<clus scale="   38.245">  1  9  2 -1</clus>
<clus scale="   81.119">  5  6 -1 -1</clus>
<clus scale="   92.806">  7  8 -1 -1</clus>
<clus scale="  138.121">  1  5  2 -1</clus>
<clus scale="   38.245">  1  5  2 -1</clus>
</clustering>
</event>
<event>
 9    1  0.1973774E-005  0.8738323E+02  0.7546771E-02  0.1313770E+00
          1   -1    0    0  502    0  0.00000000000E+00  0.00000000000E+00  0.45184083779E+03  0.45184083779E+03  0.00000000000E+00 0. -1.
         -2   -1    0    0    0  501 -0.00000000000E+00 -0.00000000000E+00 -0.11082020216E+03  0.11082020216E+03  0.00000000000E+00 0.  1.
         23    2    1    2    0    0 -0.83567026591E+01  0.18082256315E+02 -0.82026502918E+02  0.11527047178E+03  0.78499248467E+02 0.  0.
        -24    2    1    2    0    0 -0.39076444551E+02 -0.31389439957E+01  0.30875309591E+03  0.32274573587E+03  0.85437195054E+02 0.  0.
         13    1    4    4    0    0 -0.65489377263E+02  0.63269304578E+01  0.20791638355E+03  0.21807822251E+03  0.00000000000E+00 0. -1.
        -14    1    4    4    0    0  0.26412932711E+02 -0.94658744535E+01  0.10083671235E+03  0.10466751335E+03  0.00000000000E+00 0.  1.
        -11    1    3    3    0    0  0.15530442025E+02 -0.14760992549E+02 -0.69565613751E+02  0.72790494895E+02  0.00000000000E+00 0.  1.
         11    1    3    3    0    0 -0.23887144684E+02  0.32843248863E+02 -0.12460889167E+02  0.42479976881E+02  0.00000000000E+00 0. -1.
         21    1    1    2  502  501  0.47433147210E+02 -0.14943312319E+02  0.11429404264E+03  0.12464483230E+03  0.00000000000E+00 0. -1.
<scales pt_clust_5="13000.00000" pt_clust_6="13000.00000" pt_clust_7="13000.00000" pt_clust_8="13000.00000" pt_clust_9="49.73134"></scales>
<clustering>
<clus scale="   49.731">  1  9  2 -1</clus>
<clus scale="   78.499">  7  8 -1 -1</clus>
<clus scale="   80.613">  2  7  1 -1</clus>
<clus scale="   85.437">  5  6 -1 -1</clus>
<clus scale="   49.731">  1  5  2 -1</clus>
</clustering>
</event>
<event>
 9    1  0.1973774E-005  0.1425554E+03  0.7546771E-02  0.1213042E+00
         -2   -1    0    0    0  501 -0.00000000000E+00  0.00000000000E+00  0.46304128495E+03  0.46304128495E+03  0.00000000000E+00 0.  1.
          1   -1    0    0  502    0  0.00000000000E+00 -0.00000000000E+00 -0.18057601300E+03  0.18057601300E+03  0.00000000000E+00 0. -1.
        -24    2    1    2    0    0 -0.11325720667E+03 -0.23868970032E+01  0.37392147185E+03  0.39882300100E+03  0.80060145377E+02 0.  0.
         23    2    1    2    0    0  0.68353072939E+02 -0.60386716962E+02 -0.86949732227E+01  0.13162924723E+03  0.94509036616E+02 0.  0.
         11    1    3    3    0    0 -0.47755590666E+02  0.11618072366E+02  0.27499901479E+03  0.27935646436E+03  0.00000000000E+00 0. -1.
        -12    1    3    3    0    0 -0.65501615999E+02 -0.14004969369E+02  0.98922457055E+02  0.11946653663E+03  0.00000000000E+00 0.  1.
        -11    1    4    4    0    0  0.44713458975E+02 -0.70154350398E+02 -0.39078070912E+02  0.91913121585E+02  0.00000000000E+00 0. -1.
         11    1    4    4    0    0  0.23639613964E+02  0.97676334355E+01  0.30383097689E+02  0.39716125648E+02  0.00000000000E+00 0.  1.
         21    1    1    2  502  501  0.44904133726E+02  0.62773613966E+02 -0.82761226682E+02  0.11316504972E+03  0.00000000000E+00 0. -1.
<scales pt_clust_5="13000.00000" pt_clust_6="13000.00000" pt_clust_7="13000.00000" pt_clust_8="13000.00000" pt_clust_9="77.18101"></scales>
<clustering>
<clus scale="   77.181">  2  9  1 -1</clus>
<clus scale="   80.060">  5  6 -1 -1</clus>
<clus scale="   94.509">  7  8 -1 -1</clus>
<clus scale="  133.416">  1  5  2 -1</clus>
<clus scale="   77.181">  2  5  1 -1</clus>
</clustering>
</event>
<event>
 9    1  0.1973774E-005  0.1696660E+03  0.7546771E-02  0.1200071E+00
          1   -1    0    0  502    0  0.00000000000E+00  0.00000000000E+00  0.73660801606E+03  0.73660801606E+03  0.00000000000E+00 0. -1.
         -2   -1    0    0    0  501 -0.00000000000E+00 -0.00000000000E+00 -0.81465285559E+02  0.81465285559E+02  0.00000000000E+00 0.  1.
         23    2    1    2    0    0 -0.82135850359E+02  0.11688666309E+02  0.35010609541E+02  0.11026762087E+03  0.63641830565E+02 0.  0.
        -24    2    1    2    0    0 -0.11245979825E+03  0.27836421835E+02  0.27664932171E+03  0.31105622274E+03  0.82456375721E+02 0.  0.
         11    1    4    4    0    0 -0.84850686908E+02 -0.10885033847E+02  0.12016462613E+03  0.14750478095E+03  0.00000000000E+00 0. -1.
        -12    1    4    4    0    0 -0.27609111346E+02  0.38721455682E+02  0.15648469558E+03  0.16355144178E+03  0.00000000000E+00 0.  1.
        -11    1    3    3    0    0 -0.32185290522E+02  0.34999386395E+02  0.58484121324E+01  0.47906720807E+02  0.00000000000E+00 0. -1.
         11    1    3    3    0    0 -0.49950559837E+02 -0.23310720086E+02  0.29162197409E+02  0.62360900063E+02  0.00000000000E+00 0.  1.
         21    1    1    2  502  501  0.19459564861E+03 -0.39525088143E+02  0.34348279926E+03  0.39674945802E+03  0.00000000000E+00 0.  1.
<scales pt_clust_5="13000.00000" pt_clust_6="13000.00000" pt_clust_7="13000.00000" pt_clust_8="13000.00000" pt_clust_9="148.28178"></scales>
<clustering>
<clus scale="   63.642">  7  8 -1 -1</clus>
<clus scale="   82.456">  5  6 -1 -1</clus>
<clus scale="  104.562">  2  7  1 -1</clus>
<clus scale="  148.282">  2  9  1 -1</clus>
<clus scale="  169.666">  1  5  2 -1</clus>
</clustering>
</event>
<event>
 9    1  0.1973774E-005  0.2075281E+03  0.7546771E-02  0.1143782E+00
          3   -1    0    0  502    0  0.00000000000E+00  0.00000000000E+00  0.68816607376E+03  0.68816607376E+03  0.00000000000E+00 0. -1.
         -4   -1    0    0    0  501 -0.00000000000E+00 -0.00000000000E+00 -0.90770047867E+02  0.90770047867E+02  0.00000000000E+00 0.  1.
        -24    2    1    2    0    0  0.19849340609E+03 -0.37571879627E+01  0.11759954596E+03  0.24430510014E+03  0.80259454418E+02 0.  0.
         23    2    1    2    0    0 -0.17356402132E+03  0.58805887276E+01  0.32472699068E+03  0.37755610448E+03  0.83318321724E+02 0.  0.
         13    1    3    3    0    0  0.18164547624E+03  0.79391437951E+01  0.74339427470E+02  0.19642927358E+03  0.00000000000E+00 0. -1.
        -14    1    3    3    0    0  0.16847929843E+02 -0.11696331758E+02  0.43260118494E+02  0.47875826559E+02  0.00000000000E+00 0.  1.
        -11    1    4    4    0    0 -0.46912608827E+02 -0.26366391681E+02  0.14998473466E+03  0.15934679196E+03  0.00000000000E+00 0. -1.
         11    1    4    4    0    0 -0.12665141249E+03  0.32246980409E+02  0.17474225602E+03  0.21820931252E+03  0.00000000000E+00 0.  1.
         21    1    1    2  502  501 -0.24929384764E+02 -0.21234007648E+01  0.15506948925E+03  0.15707491701E+03  0.00000000000E+00 0. -1.
<scales pt_clust_5="13000.00000" pt_clust_6="13000.00000" pt_clust_7="13000.00000" pt_clust_8="13000.00000" pt_clust_9="25.01965"></scales>
<clustering>
<clus scale="   25.020">  1  9  2 -1</clus>
<clus scale="   80.259">  5  6 -1 -1</clus>
<clus scale="   83.318">  7  8 -1 -1</clus>
<clus scale="  206.319">  2  5  1 -1</clus>
<clus scale="   25.020">  1  5  2 -1</clus>
</clustering>
</event>
<event>
 9    1  0.1973774E-005  0.3632750E+03  0.7546771E-02  0.1106158E+00
         -2   -1    0    0    0  501 -0.00000000000E+00  0.00000000000E+00  0.27381880230E+03  0.27381880230E+03  0.00000000000E+00 0.  1.
          1   -1    0    0  502    0  0.00000000000E+00 -0.00000000000E+00 -0.10915727049E+04  0.10915727049E+04  0.00000000000E+00 0. -1.
        -24    2    1    2    0    0 -0.25753635069E+02 -0.34486229394E+03 -0.19371057839E+02  0.35585314040E+03  0.81627006259E+02 0.  0.
         23    2    1    2    0    0  0.22045970683E+02 -0.24202444137E+02 -0.56380602842E+03  0.57221833476E+03  0.92112984006E+02 0.  0.
         11    1    3    3    0    0  0.18315657085E+02 -0.50531753902E+02  0.16166804071E+02  0.56127417549E+02  0.00000000000E+00 0. -1.
        -12    1    3    3    0    0 -0.44069292154E+02 -0.29433054004E+03 -0.35537861910E+02  0.29972572285E+03  0.00000000000E+00 0.  1.
        -13    1    4    4    0    0  0.22457955311E+02  0.33307427348E+02 -0.24296607977E+03  0.24626461458E+03  0.00000000000E+00 0. -1.
         13    1    4    4    0    0 -0.41198462800E+00 -0.57509871485E+02 -0.32083994865E+03  0.32595372018E+03  0.00000000000E+00 0.  1.
         21    1    1    2  502  501  0.37076643856E+01  0.36906473808E+03 -0.23457681634E+03  0.43732003205E+03  0.00000000000E+00 0. -1.
<scales pt_clust_5="13000.00000" pt_clust_6="13000.00000" pt_clust_7="13000.00000" pt_clust_8="13000.00000" pt_clust_9="353.98549"></scales>
<clustering>
<clus scale="   81.627">  5  6 -1 -1</clus>
<clus scale="   92.113">  7  8 -1 -1</clus>
<clus scale="   97.758">  2  7  1 -1</clus>
<clus scale="  353.985">  2  9  1 -1</clus>
<clus scale="   97.758">  2  5  1 -1</clus>
</clustering>
</event>
<event>
 9    1  0.1973774E-005  0.1518930E+03  0.7546771E-02  0.1200279E+00
          1   -1    0    0  502    0  0.00000000000E+00  0.00000000000E+00  0.93556108450E+02  0.93556108450E+02  0.00000000000E+00 0. -1.
         -2   -1    0    0    0  501 -0.00000000000E+00 -0.00000000000E+00 -0.44337424848E+03  0.44337424848E+03  0.00000000000E+00 0.  1.
        -24    2    1    2    0    0 -0.11863808225E+03 -0.27561993173E+02 -0.30735457450E+03  0.33932048433E+03  0.76399598112E+02 0.  0.
         23    2    1    2    0    0  0.11773634882E+03  0.60913353087E+02 -0.38021345302E+02  0.16395189210E+03  0.88669700604E+02 0.  0.
         11    1    3    3    0    0 -0.68934401540E+02 -0.22740962063E+02 -0.86649116043E+02  0.11303615520E+03  0.00000000000E+00 0. -1.
        -12    1    3    3    0    0 -0.49703680711E+02 -0.48210311094E+01 -0.22070545846E+03  0.22628432913E+03  0.00000000000E+00 0.  1.
        -13    1    4    4    0    0  0.69212327930E+02  0.80722658511E+02 -0.32824448642E+02  0.11128314501E+03  0.00000000000E+00 0.  1.
         13    1    4    4    0    0  0.48524020890E+02 -0.19809305423E+02 -0.51968966592E+01  0.52668747086E+02  0.00000000000E+00 0. -1.
         21    1    1    2  502  501  0.90173343045E+00 -0.33351359914E+02 -0.44422202314E+01  0.33657980508E+02  0.00000000000E+00 0. -1.
<scales pt_clust_5="13000.00000" pt_clust_6="13000.00000" pt_clust_7="13000.00000" pt_clust_8="13000.00000" pt_clust_9="33.36355"></scales>
<clustering>
<clus scale="   33.364">  1  9  2 -1</clus>
<clus scale="   76.400">  5  6 -1 -1</clus>
<clus scale="   88.670">  7  8 -1 -1</clus>
<clus scale="  145.073">  2  5  1 -1</clus>
<clus scale="   33.364">  1  5  2 -1</clus>
</clustering>
</event>
<event>
 9    1  0.1973774E-005  0.9153316E+02  0.7546771E-02  0.1303428E+00
         -2   -1    0    0    0  501 -0.00000000000E+00  0.00000000000E+00  0.18309584293E+03  0.18309584293E+03  0.00000000000E+00 0.  1.
          1   -1    0    0  502    0  0.00000000000E+00 -0.00000000000E+00 -0.13167813248E+03  0.13167813248E+03  0.00000000000E+00 0. -1.
        -24    2    1    2    0    0 -0.10114842727E+01  0.21370100473E+02  0.12790339471E+03  0.15282818886E+03  0.80867005853E+02 0.  0.
         23    2    1    2    0    0  0.26330718880E+02 -0.41761338593E+02 -0.30158153667E+02  0.10534979444E+03  0.88044016252E+02 0.  0.
         13    1    3    3    0    0  0.17921296541E+02  0.41931080585E+02  0.11139471455E+03  0.12036681777E+03  0.00000000000E+00 0. -1.
        -14    1    3    3    0    0 -0.18932780814E+02 -0.20560980112E+02  0.16508680160E+02  0.32461371092E+02  0.00000000000E+00 0.  1.
        -11    1    4    4    0    0  0.82279465781E+01 -0.32450311064E+02 -0.60304671907E+02  0.68973728672E+02  0.00000000000E+00 0. -1.
         11    1    4    4    0    0  0.18102772302E+02 -0.93110275287E+01  0.30146518240E+02  0.36376065767E+02  0.00000000000E+00 0.  1.
         21    1    1    2  502  501 -0.25319234608E+02  0.20391238119E+02 -0.46327530594E+02  0.56595992121E+02  0.00000000000E+00 0. -1.
<scales pt_clust_5="13000.00000" pt_clust_6="13000.00000" pt_clust_7="13000.00000" pt_clust_8="13000.00000" pt_clust_9="32.50948"></scales>
<clustering>
<clus scale="   32.509">  2  9  1 -1</clus>
<clus scale="   80.867">  5  6 -1 -1</clus>
<clus scale="   84.652">  1  5  2 -1</clus>
<clus scale="   88.044">  7  8 -1 -1</clus>
<clus scale="   32.509">  2  5  1 -1</clus>
</clustering>
</event>
<event>
 9    1  0.1973774E-005  0.9749885E+02  0.7546771E-02  0.1288981E+00
          1   -1    0    0  502    0  0.00000000000E+00  0.00000000000E+00  0.37744174941E+03  0.37744174941E+03  0.00000000000E+00 0. -1.
         -2   -1    0    0    0  501 -0.00000000000E+00 -0.00000000000E+00 -0.60224456532E+02  0.60224456532E+02  0.00000000000E+00 0.  1.
         23    2    1    2    0    0  0.21471699316E+01  0.44873381895E+02 -0.14647573144E+01  0.98497877558E+02  0.87643913811E+02 0.  0.
        -24    2    1    2    0    0 -0.19907169876E+02 -0.28179618453E+02  0.27936496698E+03  0.29290892536E+03  0.80996712715E+02 0.  0.
         11    1    4    4    0    0  0.67788177508E+01 -0.51808666899E+02  0.15773697267E+03  0.16616570911E+03  0.00000000000E+00 0. -1.
        -12    1    4    4    0    0 -0.26685987627E+02  0.23629048446E+02  0.12162799431E+03  0.12674321625E+03  0.00000000000E+00 0.  1.
        -11    1    3    3    0    0  0.10810432665E+02  0.68007083291E+02 -0.14788659185E+02  0.70431053326E+02  0.00000000000E+00 0.  1.
         11    1    3    3    0    0 -0.86632627329E+01 -0.23133701395E+02  0.13323901870E+02  0.28066824232E+02  0.00000000000E+00 0. -1.
         21    1    1    2  502  501  0.17759999944E+02 -0.16693763443E+02  0.39317083212E+02  0.46259403024E+02  0.00000000000E+00 0. -1.
<scales pt_clust_5="13000.00000" pt_clust_6="13000.00000" pt_clust_7="13000.00000" pt_clust_8="13000.00000" pt_clust_9="24.37415"></scales>
<clustering>
<clus scale="   24.374">  1  9  2 -1</clus>
<clus scale="   80.997">  5  6 -1 -1</clus>
<clus scale="   87.644">  7  8 -1 -1</clus>
<clus scale="   91.570">  1  5  2 -1</clus>
<clus scale="   24.374">  1  5  2 -1</clus>
</clustering>
</event>
<event>
 9    1  0.1973774E-005  0.1256874E+03  0.7546771E-02  0.1238955E+00
          1   -1    0    0  502    0  0.00000000000E+00  0.00000000000E+00  0.35231215817E+03  0.35231215817E+03  0.00000000000E+00 0. -1.
         -2   -1    0    0    0  501 -0.00000000000E+00 -0.00000000000E+00 -0.11334572232E+03  0.11334572232E+03  0.00000000000E+00 0.  1.
        -24    2    1    2    0    0 -0.93217790872E+02 -0.55021200375E+02 -0.47321551903E+01  0.14600892223E+03  0.97874016225E+02 0.  0.
         23    2    1    2    0    0  0.54610216471E+02 -0.93515502916E+01  0.47511116024E+02  0.10959201079E+03  0.81751914022E+02 0.  0.
         13    1    3    3    0    0 -0.47870259669E+02  0.23468815008E+02 -0.13327382247E+02  0.54954218730E+02  0.00000000000E+00 0. -1.
        -14    1    3    3    0    0 -0.45347531203E+02 -0.78490015384E+02  0.85952270563E+01  0.91054703499E+02  0.00000000000E+00 0.  1.
        -13    1    4    4    0    0  0.28846987484E+02  0.10560826192E+02  0.65533122536E+02  0.72375892990E+02  0.00000000000E+00 0. -1.
         13    1    4    4    0    0  0.25763228987E+02 -0.19912376484E+02 -0.18022006512E+02  0.37216117796E+02  0.00000000000E+00 0.  1.
         21    1    1    2  502  501  0.38607574401E+02  0.64372750667E+02  0.19618747502E+03  0.21005694748E+03  0.00000000000E+00 0. -1.
<scales pt_clust_5="13000.00000" pt_clust_6="13000.00000" pt_clust_7="13000.00000" pt_clust_8="13000.00000" pt_clust_9="75.06261"></scales>
<clustering>
<clus scale="   75.063">  1  9  2 -1</clus>
<clus scale="   81.752">  7  8 -1 -1</clus>
<clus scale="   97.874">  5  6 -1 -1</clus>
<clus scale="  113.584">  1  7  2 -1</clus>
<clus scale="   75.063">  1  5  2 -1</clus>
</clustering>
</event>
<event>
 9    1  0.1973774E-005  0.1133756E+03  0.7546771E-02  0.1258807E+00
          1   -1    0    0  502    0  0.00000000000E+00  0.00000000000E+00  0.37828391241E+03  0.37828391241E+03  0.00000000000E+00 0. -1.
         -2   -1    0    0    0  501 -0.00000000000E+00 -0.00000000000E+00 -0.23606002904E+03  0.23606002904E+03  0.00000000000E+00 0.  1.
         23    2    1    2    0    0  0.52590511412E+02 -0.44174441883E+02 -0.20715666175E+03  0.23712205254E+03  0.92713764276E+02 0.  0.
        -24    2    1    2    0    0 -0.48930611616E+01  0.31757954827E+02  0.16783058607E+03  0.18910064199E+03  0.80990353982E+02 0.  0.
         11    1    4    4    0    0  0.35426398801E+02  0.30462013897E+02  0.86296653752E+02  0.98132953035E+02  0.00000000000E+00 0. -1.
        -12    1    4    4    0    0 -0.40319459962E+02  0.12959409299E+01  0.81533932318E+02  0.90967688954E+02  0.00000000000E+00 0.  1.
        -13    1    3    3    0    0  0.13235542995E+02 -0.52888412566E+02 -0.47034074427E+02  0.72003943915E+02  0.00000000000E+00 0. -1.
         13    1    3    3    0    0  0.39354968417E+02  0.87139706834E+01 -0.16012258732E+03  0.16511810862E+03  0.00000000000E+00 0.  1.
         21    1    1    2  502  501 -0.47697450251E+02  0.12416487056E+02  0.18154995905E+03  0.18812124692E+03  0.00000000000E+00 0. -1.
<scales pt_clust_5="13000.00000" pt_clust_6="13000.00000" pt_clust_7="13000.00000" pt_clust_8="13000.00000" pt_clust_9="49.28708"></scales>
<clustering>
<clus scale="   49.287">  1  9  2 -1</clus>
<clus scale="   80.990">  5  6 -1 -1</clus>
<clus scale="   92.714">  7  8 -1 -1</clus>
<clus scale="  104.008">  1  5  2 -1</clus>
<clus scale="   49.287">  1  5  2 -1</clus>
</clustering>
</event>
<event>
 9    1  0.1973774E-005  0.1580418E+03  0.7546771E-02  0.1192585E+00
         -2   -1    0    0    0  501 -0.00000000000E+00  0.00000000000E+00  0.81278413854E+03  0.81278413854E+03  0.00000000000E+00 0.  1.
          1   -1    0    0  502    0  0.00000000000E+00 -0.00000000000E+00 -0.31189759802E+03  0.31189759802E+03  0.00000000000E+00 0. -1.
        -24    2    1    2    0    0  0.12786414036E+03 -0.12151749893E+02  0.76219708137E+03  0.77716166006E+03  0.80863784188E+02 0.  0.
         23    2    1    2    0    0 -0.14328821886E+03  0.38097026655E+02 -0.14245409100E+03  0.22489089868E+03  0.91103518914E+02 0.  0.
         11    1    3    3    0    0  0.75050681843E+02  0.30039304402E+02  0.33285996956E+03  0.34253572658E+03  0.00000000000E+00 0. -1.
        -12    1    3    3    0    0  0.52813458517E+02 -0.42191054296E+02  0.42933711182E+03  0.43462593347E+03  0.00000000000E+00 0.  1.
        -11    1    4    4    0    0 -0.58041841211E+02 -0.29598242966E+02 -0.54539604724E+02  0.84967522038E+02  0.00000000000E+00 0.  1.
         11    1    4    4    0    0 -0.85246377651E+02  0.67695269621E+02 -0.87914486280E+02  0.13992337664E+03  0.00000000000E+00 0. -1.
         21    1    1    2  502  501  0.15424078501E+02 -0.25945276762E+02 -0.11885644985E+03  0.12262917783E+03  0.00000000000E+00 0.  1.
<scales pt_clust_5="13000.00000" pt_clust_6="13000.00000" pt_clust_7="13000.00000" pt_clust_8="13000.00000" pt_clust_9="30.18376"></scales>
<clustering>
<clus scale="   30.184">  2  9  1 -1</clus>
<clus scale="   80.864">  5  6 -1 -1</clus>
<clus scale="   91.104">  7  8 -1 -1</clus>
<clus scale="  152.369">  1  5  2 -1</clus>
<clus scale="   30.184">  2  5  1 -1</clus>
</clustering>
</event>
<event>
 9    1  0.1973774E-005  0.1038457E+03  0.7546771E-02  0.1277291E+00
          1   -1    0    0  502    0  0.00000000000E+00  0.00000000000E+00  0.23577013710E+03  0.23577013710E+03  0.00000000000E+00 0. -1.
         -2   -1    0    0    0  501 -0.00000000000E+00 -0.00000000000E+00 -0.11959189735E+03  0.11959189735E+03  0.00000000000E+00 0.  1.
         23    2    1    2    0    0  0.41034197528E+02  0.15269473949E+02 -0.51822813392E+02  0.11339310016E+03  0.90859391230E+02 0.  0.
        -24    2    1    2    0    0 -0.51629133380E+02 -0.68911691321E+02  0.97542074502E+02  0.15278256862E+03  0.80085381690E+02 0.  0.
         13    1    4    4    0    0  0.91140348923E+01 -0.46916866176E+02  0.64334508401E+02  0.80144787323E+02  0.00000000000E+00 0. -1.
        -14    1    4    4    0    0 -0.60743168272E+02 -0.21994825145E+02  0.33207566100E+02  0.72637781293E+02  0.00000000000E+00 0.  1.
        -11    1    3    3    0    0  0.55439436376E+02  0.40350128951E+02 -0.22400051539E+02  0.72134778859E+02  0.00000000000E+00 0.  1.
         11    1    3    3    0    0 -0.14405238848E+02 -0.25080655002E+02 -0.29422761853E+02  0.41258321302E+02  0.00000000000E+00 0. -1.
         21    1    1    2  502  501  0.10594935851E+02  0.53642217372E+02  0.70458978637E+02  0.89186365667E+02  0.00000000000E+00 0.  1.
<scales pt_clust_5="13000.00000" pt_clust_6="13000.00000" pt_clust_7="13000.00000" pt_clust_8="13000.00000" pt_clust_9="54.67852"></scales>
<clustering>
<clus scale="   54.679">  1  9  2 -1</clus>
<clus scale="   80.085">  5  6 -1 -1</clus>
<clus scale="   90.859">  7  8 -1 -1</clus>
<clus scale="   94.563">  1  5  2 -1</clus>
<clus scale="   54.679">  1  5  2 -1</clus>
</clustering>
</event>
<event>
 9    1  0.1973774E-005  0.1094186E+03  0.7546771E-02  0.1264460E+00
          3   -1    0    0  502    0  0.00000000000E+00  0.00000000000E+00  0.14565133866E+03  0.14565133866E+03  0.00000000000E+00 0. -1.
         -4   -1    0    0    0  501 -0.00000000000E+00 -0.00000000000E+00 -0.28314141918E+03  0.28314141918E+03  0.00000000000E+00 0.  1.
         23    2    1    2    0    0 -0.55421947469E+02 -0.37713654291E+02 -0.18072910133E+03  0.21238940138E+03  0.89175881086E+02 0.  0.
        -24    2    1    2    0    0  0.56042199616E+02  0.16733228850E+02 -0.55866181964E+02  0.11509983144E+03  0.81891463682E+02 0.  0.
         11    1    4    4    0    0  0.41891007205E+02 -0.13230942174E+02  0.65655062837E+01  0.44418691879E+02  0.00000000000E+00 0. -1.
        -12    1    4    4    0    0  0.14151192411E+02  0.29964171024E+02 -0.62431688247E+02  0.70681139558E+02  0.00000000000E+00 0.  1.
        -13    1    3    3    0    0 -0.20087759109E+02  0.29427928308E+02 -0.61057992372E+02  0.70693701722E+02  0.00000000000E+00 0.  1.
         13    1    3    3    0    0 -0.35334188360E+02 -0.67141582600E+02 -0.11967110896E+03  0.14169569966E+03  0.00000000000E+00 0. -1.
         21    1    1    2  502  501 -0.62025214671E+00  0.20980425441E+02  0.99105202774E+02  0.10130352502E+03  0.00000000000E+00 0. -1.
<scales pt_clust_5="13000.00000" pt_clust_6="13000.00000" pt_clust_7="13000.00000" pt_clust_8="13000.00000" pt_clust_9="20.98959"></scales>
<clustering>
<clus scale="   20.990">  1  9  2 -1</clus>
<clus scale="   81.891">  5  6 -1 -1</clus>
<clus scale="   89.176">  7  8 -1 -1</clus>
<clus scale="  103.568">  1  5  2 -1</clus>
<clus scale="   20.990">  1  5  2 -1</clus>
</clustering>
</event>
<event>
 9    1  0.1973774E-005  0.9689407E+02  0.7546771E-02  0.1293578E+00
         -2   -1    0    0    0  501 -0.00000000000E+00  0.00000000000E+00  0.73086779701E+02  0.73086779701E+02  0.00000000000E+00 0.  1.
          1   -1    0    0  502    0  0.00000000000E+00 -0.00000000000E+00 -0.24056215379E+03  0.24056215379E+03  0.00000000000E+00 0. -1.
         23    2    1    2    0    0  0.17932950530E+01  0.16322081706E+02  0.84083864448E+01  0.94636956142E+02  0.92821475139E+02 0.  0.
        -24    2    1    2    0    0 -0.25359300100E+02 -0.17900961403E+02 -0.17507942199E+03  0.19537944859E+03  0.80973985993E+02 0.  0.
         11    1    4    4    0    0 -0.32039426769E+02  0.89147844527E+00 -0.17228396104E+03  0.17524007200E+03  0.00000000000E+00 0. -1.
        -12    1    4    4    0    0  0.66801266688E+01 -0.18792439848E+02 -0.27954609484E+01  0.20139376596E+02  0.00000000000E+00 0.  1.
        -11    1    3    3    0    0 -0.33724577606E+02  0.35661381901E+02  0.19321899170E+02  0.52748621606E+02  0.00000000000E+00 0.  1.
         11    1    3    3    0    0  0.35517872659E+02 -0.19339300195E+02 -0.10913512725E+02  0.41888334537E+02  0.00000000000E+00 0. -1.
         21    1    1    2  502  501  0.23566005047E+02  0.15788796974E+01 -0.80433854605E+00  0.23632528757E+02  0.00000000000E+00 0. -1.
<scales pt_clust_5="13000.00000" pt_clust_6="13000.00000" pt_clust_7="13000.00000" pt_clust_8="13000.00000" pt_clust_9="23.61884"></scales>
<clustering>
<clus scale="   23.619">  1  9  2 -1</clus>
<clus scale="   80.974">  5  6 -1 -1</clus>
<clus scale="   85.612">  2  5  1 -1</clus>
<clus scale="   92.821">  7  8 -1 -1</clus>
<clus scale="   85.612">  2  5  1 -1</clus>
</clustering>
</event>
<event>
 9    1  0.1973774E-005  0.1328516E+03  0.7546771E-02  0.1231459E+00
         -2   -1    0    0    0  501 -0.00000000000E+00  0.00000000000E+00  0.29612037265E+03  0.29612037265E+03  0.00000000000E+00 0.  1.
          1   -1    0    0  502    0  0.00000000000E+00 -0.00000000000E+00 -0.15092083590E+03  0.15092083590E+03  0.00000000000E+00 0. -1.
         23    2    1    2    0    0  0.51004598148E+01 -0.87302094104E+02  0.23571763019E+03  0.27006202661E+03  0.98605409124E+02 0.  0.
        -24    2    1    2    0    0  0.12767051334E+02  0.10110648933E+03 -0.93515436598E+02  0.15420214639E+03  0.68173640695E+02 0.  0.
         13    1    4    4    0    0 -0.87741201418E+00  0.10105956695E+03 -0.97040642089E+02  0.14010957191E+03  0.00000000000E+00 0. -1.
        -14    1    4    4    0    0  0.13644463349E+02  0.46922379478E-01  0.35252054908E+01  0.14092574482E+02  0.00000000000E+00 0.  1.
        -13    1    3    3    0    0 -0.37140452263E+02 -0.75479460697E+01  0.10129747179E+03  0.10815527022E+03  0.00000000000E+00 0.  1.
         13    1    3    3    0    0  0.42240912077E+02 -0.79754148034E+02  0.13442015840E+03  0.16190675640E+03  0.00000000000E+00 0. -1.
         21    1    1    2  502  501 -0.17867511149E+02 -0.13804395222E+02  0.29973431526E+01  0.22777035542E+02  0.00000000000E+00 0. -1.
<scales pt_clust_5="13000.00000" pt_clust_6="13000.00000" pt_clust_7="13000.00000" pt_clust_8="13000.00000" pt_clust_9="22.57896"></scales>
<clustering>
<clus scale="   22.579">  2  9  1 -1</clus>
<clus scale="   68.174">  5  6 -1 -1</clus>
<clus scale="   98.605">  7  8 -1 -1</clus>
<clus scale="  112.135">  2  5  1 -1</clus>
<clus scale="   22.579">  2  5  1 -1</clus>
</clustering>
</event>
<event>
 9    1  0.1973774E-005  0.1062620E+03  0.7546771E-02  0.1274323E+00
         -2   -1    0    0    0  501 -0.00000000000E+00  0.00000000000E+00  0.46472461720E+03  0.46472461720E+03  0.00000000000E+00 0.  1.
          1   -1    0    0  502    0  0.00000000000E+00 -0.00000000000E+00 -0.12007331923E+03  0.12007331923E+03  0.00000000000E+00 0. -1.
        -24    2    1    2    0    0 -0.22200002650E+02 -0.45324045083E+02  0.42082386036E+03  0.43120125775E+03  0.79339107984E+02 0.  0.
         23    2    1    2    0    0  0.73624179529E+01  0.25458873405E+02 -0.82581336476E+02  0.12798708379E+03  0.94120439059E+02 0.  0.
         13    1    3    3    0    0  0.28037214106E+02 -0.29965791643E+01  0.13751157080E+03  0.14037270734E+03  0.00000000000E+00 0. -1.
        -14    1    3    3    0    0 -0.50237216756E+02 -0.42327465919E+02  0.28331228956E+03  0.29082855041E+03  0.00000000000E+00 0.  1.
        -11    1    4    4    0    0  0.17846116049E+02  0.56318834144E+02 -0.30343099899E+02  0.66415349497E+02  0.00000000000E+00 0. -1.
         11    1    4    4    0    0 -0.10483698096E+02 -0.30859960739E+02 -0.52238236578E+02  0.61571734289E+02  0.00000000000E+00 0.  1.
         21    1    1    2  502  501  0.14837584697E+02  0.19865171678E+02  0.64087740910E+01  0.25609594897E+02  0.00000000000E+00 0. -1.
<scales pt_clust_5="13000.00000" pt_clust_6="13000.00000" pt_clust_7="13000.00000" pt_clust_8="13000.00000" pt_clust_9="24.79474"></scales>
<clustering>
<clus scale="   24.795">  2  9  1 -1</clus>
<clus scale="   79.339">  5  6 -1 -1</clus>
<clus scale="   93.422">  1  5  2 -1</clus>
<clus scale="   94.120">  7  8 -1 -1</clus>
<clus scale="   24.795">  2  5  1 -1</clus>
</clustering>
</event>
<event>
 9    1  0.1973774E-005  0.2633129E+03  0.7546771E-02  0.1110550E+00
          1   -1    0    0  502    0  0.00000000000E+00  0.00000000000E+00  0.93323966206E+03  0.93323966206E+03  0.00000000000E+00 0. -1.
         -2   -1    0    0    0  501 -0.00000000000E+00 -0.00000000000E+00 -0.57056397079E+03  0.57056397079E+03  0.00000000000E+00 0.  1.
        -24    2    1    2    0    0 -0.14750914526E+03 -0.18159615566E+03 -0.21581564004E+03  0.32857240398E+03  0.81531113574E+02 0.  0.
         23    2    1    2    0    0  0.15855772817E+03 -0.13949052549E+03  0.76846389299E+03  0.80199095480E+03  0.89747294656E+02 0.  0.
         13    1    3    3    0    0 -0.84875312357E+02 -0.15076688283E+03 -0.18161254399E+03  0.25083378508E+03  0.00000000000E+00 0. -1.
        -14    1    3    3    0    0 -0.62633832903E+02 -0.30829272837E+02 -0.34203096054E+02  0.77738618894E+02  0.00000000000E+00 0.  1.
        -13    1    4    4    0    0  0.10930288297E+02 -0.57238513962E+02  0.15214630697E+03  0.16292396204E+03  0.00000000000E+00 0. -1.
         13    1    4    4    0    0  0.14762743987E+03 -0.82252011532E+02  0.61631758602E+03  0.63906699276E+03  0.00000000000E+00 0.  1.
         21    1    1    2  502  501 -0.11048582909E+02  0.32108668116E+03 -0.18997256167E+03  0.37324027407E+03  0.00000000000E+00 0.  1.
<scales pt_clust_5="13000.00000" pt_clust_6="13000.00000" pt_clust_7="13000.00000" pt_clust_8="13000.00000" pt_clust_9="250.37242"></scales>
<clustering>
<clus scale="   81.531">  5  6 -1 -1</clus>
<clus scale="   89.747">  7  8 -1 -1</clus>
<clus scale="  229.462">  1  7  2 -1</clus>
<clus scale="  250.372">  1  9  2 -1</clus>
<clus scale="  229.462">  1  5  2 -1</clus>
</clustering>
</event>
<event>
 9    1  0.1973774E-005  0.1217548E+03  0.7546771E-02  0.1242997E+00
         -2   -1    0    0    0  501 -0.00000000000E+00  0.00000000000E+00  0.28443622364E+03  0.28443622364E+03  0.00000000000E+00 0.  1.
          1   -1    0    0  502    0  0.00000000000E+00 -0.00000000000E+00 -0.12062086984E+03  0.12062086984E+03  0.00000000000E+00 0. -1.
         23    2    1    2    0    0 -0.81446595782E+02 -0.25062259843E+02  0.22396133730E+03  0.25571224392E+03  0.89265929978E+02 0.  0.
        -24    2    1    2    0    0  0.70243643135E+02  0.34250216488E+01 -0.64619750971E+02  0.12457206570E+03  0.79978666921E+02 0.  0.
         11    1    4    4    0    0  0.85167515305E+02 -0.84363947678E+01 -0.61174485499E+02  0.10519979133E+03  0.00000000000E+00 0. -1.
        -12    1    4    4    0    0 -0.14923872171E+02  0.11861416417E+02 -0.34452654715E+01  0.19372274367E+02  0.00000000000E+00 0.  1.
        -11    1    3    3    0    0 -0.23333209369E+02 -0.18867695599E+01  0.24327959090E+00  0.23410633136E+02  0.00000000000E+00 0. -1.
         11    1    3    3    0    0 -0.58113386412E+02 -0.23175490283E+02  0.22371805771E+03  0.23230161079E+03  0.00000000000E+00 0.  1.
         21    1    1    2  502  501  0.11202952647E+02  0.21637238194E+02  0.44737674719E+01  0.24772783858E+02  0.00000000000E+00 0. -1.
<scales pt_clust_5="13000.00000" pt_clust_6="13000.00000" pt_clust_7="13000.00000" pt_clust_8="13000.00000" pt_clust_9="24.36547"></scales>
<clustering>
<clus scale="   24.365">  2  9  1 -1</clus>
<clus scale="   79.979">  5  6 -1 -1</clus>
<clus scale="   89.266">  7  8 -1 -1</clus>
<clus scale="  115.119">  2  5  1 -1</clus>
<clus scale="   24.365">  2  5  1 -1</clus>
</clustering>
</event>
<event>
 9    1  0.1973774E-005  0.9202141E+02  0.7546771E-02  0.1305614E+00
         -2   -1    0    0    0  501 -0.00000000000E+00  0.00000000000E+00  0.10282199633E+03  0.10282199633E+03  0.00000000000E+00 0.  1.
          1   -1    0    0  502    0  0.00000000000E+00 -0.00000000000E+00 -0.25721972763E+03  0.25721972763E+03  0.00000000000E+00 0. -1.
        -24    2    1    2    0    0  0.40868724686E+01 -0.58715810369E+01  0.59953205741E+02  0.10003898241E+03  0.79763607825E+02 0.  0.
         23    2    1    2    0    0  0.36384809036E+02  0.14661018535E+02 -0.18153003016E+03  0.20715935839E+03  0.91777165588E+02 0.  0.
         13    1    3    3    0    0  0.36850280288E+02  0.14511998374E+02  0.41157071425E+02  0.57117823683E+02  0.00000000000E+00 0. -1.
        -14    1    3    3    0    0 -0.32763407819E+02 -0.20383579411E+02  0.18796134317E+02  0.42921158730E+02  0.00000000000E+00 0.  1.
        -11    1    4    4    0    0  0.34953182256E+01 -0.25672975540E+02 -0.97747894537E+01  0.27692335247E+02  0.00000000000E+00 0.  1.
         11    1    4    4    0    0  0.32889490810E+02  0.40333994074E+02 -0.17175524071E+03  0.17946702314E+03  0.00000000000E+00 0. -1.
         21    1    1    2  502  501 -0.40471681504E+02 -0.87894374977E+01 -0.32820906883E+02  0.52843383162E+02  0.00000000000E+00 0.  1.
<scales pt_clust_5="13000.00000" pt_clust_6="13000.00000" pt_clust_7="13000.00000" pt_clust_8="13000.00000" pt_clust_9="41.41511"></scales>
<clustering>
<clus scale="   41.415">  2  9  1 -1</clus>
<clus scale="   79.764">  5  6 -1 -1</clus>
<clus scale="   80.045">  1  5  2 -1</clus>
<clus scale="   91.777">  7  8 -1 -1</clus>
<clus scale="   41.415">  2  5  1 -1</clus>
</clustering>
</event>
<event>
 9    1  0.1973774E-005  0.1097764E+03  0.7546771E-02  0.1264808E+00
          1   -1    0    0  502    0  0.00000000000E+00  0.00000000000E+00  0.90721853740E+03  0.90721853740E+03  0.00000000000E+00 0. -1.
         -2   -1    0    0    0  501 -0.00000000000E+00 -0.00000000000E+00 -0.73827194259E+02  0.73827194259E+02  0.00000000000E+00 0.  1.
         23    2    1    2    0    0  0.63026710108E+02  0.14863490706E+02 -0.20310049407E+02  0.11438345259E+03  0.92074896557E+02 0.  0.
        -24    2    1    2    0    0  0.10626468942E+01 -0.17187687605E+02  0.53189004170E+03  0.53852298989E+03  0.82483018570E+02 0.  0.
         11    1    4    4    0    0  0.37067160352E+02 -0.16981450057E+02  0.16889022221E+03  0.17374190968E+03  0.00000000000E+00 0. -1.
        -12    1    4    4    0    0 -0.36004513458E+02 -0.20623754866E+00  0.36299981949E+03  0.36478108021E+03  0.00000000000E+00 0.  1.
        -11    1    3    3    0    0  0.81055279196E+02 -0.59444816261E+01 -0.19595824644E+01  0.81296587325E+02  0.00000000000E+00 0.  1.
         11    1    3    3    0    0 -0.18028569087E+02  0.20807972332E+02 -0.18350466943E+02  0.33086865263E+02  0.00000000000E+00 0. -1.
         21    1    1    2  502  501 -0.64089357003E+02  0.23241968989E+01  0.32181135084E+03  0.32813928918E+03  0.00000000000E+00 0. -1.
<scales pt_clust_5="13000.00000" pt_clust_6="13000.00000" pt_clust_7="13000.00000" pt_clust_8="13000.00000" pt_clust_9="64.13149"></scales>
<clustering>
<clus scale="   64.131">  1  9  2 -1</clus>
<clus scale="   82.483">  5  6 -1 -1</clus>
<clus scale="   92.075">  7  8 -1 -1</clus>
<clus scale="  101.865">  1  5  2 -1</clus>
<clus scale="   64.131">  1  5  2 -1</clus>
</clustering>
</event>
<event>
 9    1  0.1973774E-005  0.1532840E+03  0.7546771E-02  0.1198064E+00
         -2   -1    0    0    0  501 -0.00000000000E+00  0.00000000000E+00  0.53913095665E+02  0.53913095665E+02  0.00000000000E+00 0.  1.
          1   -1    0    0  502    0  0.00000000000E+00 -0.00000000000E+00 -0.73459074990E+03  0.73459074990E+03  0.00000000000E+00 0. -1.
         23    2    1    2    0    0  0.73551713042E+02 -0.11883781777E+03 -0.17816224590E+03  0.24382972417E+03  0.90437089188E+02 0.  0.
        -24    2    1    2    0    0 -0.15613806839E+02  0.11998377416E+03 -0.41349795040E+03  0.43845631682E+03  0.81384825043E+02 0.  0.
         13    1    4    4    0    0 -0.30206942709E+02  0.55213083030E+02 -0.30363850066E+03  0.31009237819E+03  0.00000000000E+00 0. -1.
        -14    1    4    4    0    0  0.14593135869E+02  0.64770691134E+02 -0.10985944974E+03  0.12836393863E+03  0.00000000000E+00 0.  1.
        -13    1    3    3    0    0  0.10031455586E+00 -0.34832785676E+02 -0.10442011291E+03  0.11007675959E+03  0.00000000000E+00 0. -1.
         13    1    3    3    0    0  0.73451398486E+02 -0.84005032098E+02 -0.73742132990E+02  0.13375296459E+03  0.00000000000E+00 0.  1.
         21    1    1    2  502  501 -0.57937906203E+02 -0.11459563901E+01 -0.89017457938E+02  0.10621780458E+03  0.00000000000E+00 0. -1.
<scales pt_clust_5="13000.00000" pt_clust_6="13000.00000" pt_clust_7="13000.00000" pt_clust_8="13000.00000" pt_clust_9="57.94924"></scales>
<clustering>
<clus scale="   57.949">  1  9  2 -1</clus>
<clus scale="   81.385">  5  6 -1 -1</clus>
<clus scale="   90.437">  7  8 -1 -1</clus>
<clus scale="  148.124">  2  5  1 -1</clus>
<clus scale="  148.124">  2  5  1 -1</clus>
</clustering>
</event>
<event>
 9    1  0.1973774E-005  0.1395099E+03  0.7546771E-02  0.1216631E+00
         -2   -1    0    0    0  501 -0.00000000000E+00  0.00000000000E+00  0.37403883357E+02  0.37403883357E+02  0.00000000000E+00 0.  1.
          1   -1    0    0  502    0  0.00000000000E+00 -0.00000000000E+00 -0.72581446859E+03  0.72581446859E+03  0.00000000000E+00 0. -1.
         23    2    1    2    0    0 -0.68874618037E+02  0.86743835924E+02 -0.15651762424E+03  0.21255083061E+03  0.91716317062E+02 0.  0.
        -24    2    1    2    0    0  0.54231902960E+02 -0.72205548746E+02 -0.47847737627E+03  0.49340500663E+03  0.79706714886E+02 0.  0.
         11    1    4    4    0    0  0.61658323684E+02 -0.19268026394E+02 -0.21219868575E+03  0.22181363339E+03  0.00000000000E+00 0. -1.
        -12    1    4    4    0    0 -0.74264207241E+01 -0.52937522352E+02 -0.26627869052E+03  0.27159137324E+03  0.00000000000E+00 0.  1.
        -13    1    3    3    0    0 -0.63472371462E+00  0.63501475760E+02 -0.38518430071E+02  0.74273210198E+02  0.00000000000E+00 0.  1.
         13    1    3    3    0    0 -0.68239894322E+02  0.23242360164E+02 -0.11799919416E+03  0.13827762041E+03  0.00000000000E+00 0. -1.
         21    1    1    2  502  501  0.14642715076E+02 -0.14538287178E+02 -0.53415584735E+02  0.57262514715E+02  0.00000000000E+00 0.  1.
<scales pt_clust_5="13000.00000" pt_clust_6="13000.00000" pt_clust_7="13000.00000" pt_clust_8="13000.00000" pt_clust_9="20.63422"></scales>
<clustering>
<clus scale="   20.634">  2  9  1 -1</clus>
<clus scale="   79.707">  5  6 -1 -1</clus>
<clus scale="   91.716">  7  8 -1 -1</clus>
<clus scale="  131.925">  2  5  1 -1</clus>
<clus scale="   20.634">  2  5  1 -1</clus>
</clustering>
</event>
<event>
 9    1  0.1973774E-005  0.1383816E+03  0.7546771E-02  0.1218721E+00
          1   -1    0    0  502    0  0.00000000000E+00  0.00000000000E+00  0.33040904584E+03  0.33040904584E+03  0.00000000000E+00 0. -1.
         -2   -1    0    0    0  501 -0.00000000000E+00 -0.00000000000E+00 -0.64511276786E+02  0.64511276786E+02  0.00000000000E+00 0.  1.
        -24    2    1    2    0    0  0.67966074938E+02  0.63367655813E+02  0.10086994647E+03  0.15884654372E+03  0.80141320207E+02 0.  0.
         23    2    1    2    0    0 -0.87140120295E+02 -0.71466461429E+02  0.13416830239E+03  0.19885087394E+03  0.94019577886E+02 0.  0.
         13    1    3    3    0    0  0.68642968765E+02  0.18139938379E+02  0.35571926922E+02  0.79412067788E+02  0.00000000000E+00 0. -1.
        -14    1    3    3    0    0 -0.67689382732E+00  0.45227717434E+02  0.65298019546E+02  0.79434475929E+02  0.00000000000E+00 0.  1.
        -11    1    4    4    0    0 -0.97801392074E+02 -0.41797193103E+02  0.69915801031E+02  0.12728054398E+03  0.00000000000E+00 0.  1.
         11    1    4    4    0    0  0.10661271780E+02 -0.29669268326E+02  0.64252501359E+02  0.71570329955E+02  0.00000000000E+00 0. -1.
         21    1    1    2  502  501  0.19174045357E+02  0.80988056156E+01  0.30859520192E+02  0.37222904968E+02  0.00000000000E+00 0. -1.
<scales pt_clust_5="13000.00000" pt_clust_6="13000.00000" pt_clust_7="13000.00000" pt_clust_8="13000.00000" pt_clust_9="20.81429"></scales>
<clustering>
<clus scale="   20.814">  1  9  2 -1</clus>
<clus scale="   80.141">  5  6 -1 -1</clus>
<clus scale="   94.020">  7  8 -1 -1</clus>
<clus scale="  129.354">  2  5  1 -1</clus>
<clus scale="   20.814">  1  5  2 -1</clus>
</clustering>
</event>
<event>
 9    1  0.1973774E-005  0.1281443E+03  0.7546771E-02  0.1233813E+00
          1   -1    0    0  502    0  0.00000000000E+00  0.00000000000E+00  0.67703367227E+03  0.67703367227E+03  0.00000000000E+00 0. -1.
         -2   -1    0    0    0  501 -0.00000000000E+00 -0.00000000000E+00 -0.86354175331E+02  0.86354175331E+02  0.00000000000E+00 0.  1.
         23    2    1    2    0    0 -0.91769613487E+02 -0.38135436875E+01 -0.25067662587E+02  0.13260805157E+03  0.92305484993E+02 0.  0.
        -24    2    1    2    0    0  0.64138844104E+02  0.19049140545E+02  0.42647549183E+03  0.43889611506E+03  0.79194656416E+02 0.  0.
         11    1    4    4    0    0  0.46271311499E+02  0.32405807996E+00  0.87924363647E+02  0.99357098408E+02  0.00000000000E+00 0. -1.
        -12    1    4    4    0    0  0.17867532605E+02  0.18725082465E+02  0.33855112818E+03  0.33953901665E+03  0.00000000000E+00 0.  1.
        -11    1    3    3    0    0 -0.88017207876E+02 -0.32447952890E+02 -0.37683138934E+02  0.10109360756E+03  0.00000000000E+00 0.  1.
         11    1    3    3    0    0 -0.37524056107E+01  0.28634409202E+02  0.12615476347E+02  0.31514444017E+02  0.00000000000E+00 0. -1.
         21    1    1    2  502  501  0.27630769383E+02 -0.15235596858E+02  0.18927166769E+03  0.19188368096E+03  0.00000000000E+00 0. -1.
<scales pt_clust_5="13000.00000" pt_clust_6="13000.00000" pt_clust_7="13000.00000" pt_clust_8="13000.00000" pt_clust_9="31.55286"></scales>
<clustering>
<clus scale="   31.553">  1  9  2 -1</clus>
<clus scale="   79.195">  5  6 -1 -1</clus>
<clus scale="   92.305">  7  8 -1 -1</clus>
<clus scale="  119.048">  1  5  2 -1</clus>
<clus scale="   31.553">  1  5  2 -1</clus>
</clustering>
</event>
<event>
 9    1  0.1973774E-005  0.1080362E+03  0.7546771E-02  0.1266053E+00
         -2   -1    0    0    0  501 -0.00000000000E+00  0.00000000000E+00  0.50099073012E+03  0.50099073012E+03  0.00000000000E+00 0.  1.
          1   -1    0    0  502    0  0.00000000000E+00 -0.00000000000E+00 -0.51956864989E+02  0.51956864989E+02  0.00000000000E+00 0. -1.
         23    2    1    2    0    0 -0.68069213278E+02 -0.22648601686E+02  0.30369019217E+03  0.32099661029E+03  0.75264294630E+02 0.  0.
        -24    2    1    2    0    0  0.45944480069E+02  0.78035670334E+02  0.94617303425E+02  0.15365414095E+03  0.80353592516E+02 0.  0.
         11    1    4    4    0    0  0.53617823788E+02  0.19166725958E+02  0.25072941428E+02  0.62216451229E+02  0.00000000000E+00 0. -1.
        -12    1    4    4    0    0 -0.76733437193E+01  0.58868944377E+02  0.69544361997E+02  0.91437689721E+02  0.00000000000E+00 0.  1.
        -13    1    3    3    0    0 -0.45301315601E+02 -0.48804549682E+02  0.23188221140E+03  0.24125391858E+03  0.00000000000E+00 0.  1.
         13    1    3    3    0    0 -0.22767897677E+02  0.26155947996E+02  0.71807980764E+02  0.79742691712E+02  0.00000000000E+00 0. -1.
         21    1    1    2  502  501  0.22124733210E+02 -0.55387068648E+02  0.50726369540E+02  0.78296843869E+02  0.00000000000E+00 0.  1.
<scales pt_clust_5="13000.00000" pt_clust_6="13000.00000" pt_clust_7="13000.00000" pt_clust_8="13000.00000" pt_clust_9="59.64253"></scales>
<clustering>
<clus scale="   59.643">  2  9  1 -1</clus>
<clus scale="   75.264">  7  8 -1 -1</clus>
<clus scale="   80.354">  5  6 -1 -1</clus>
<clus scale="  104.306">  1  7  2 -1</clus>
<clus scale="   59.643">  2  5  1 -1</clus>
</clustering>
</event>
<event>
 9    1  0.1973774E-005  0.1070300E+03  0.7546771E-02  0.1271098E+00
          1   -1    0    0  502    0  0.00000000000E+00  0.00000000000E+00  0.91639107327E+02  0.91639107327E+02  0.00000000000E+00 0. -1.
         -2   -1    0    0    0  501 -0.00000000000E+00 -0.00000000000E+00 -0.22912136363E+03  0.22912136363E+03  0.00000000000E+00 0.  1.
         23    2    1    2    0    0 -0.25863834890E+02 -0.49511186953E+02 -0.16845227322E+03  0.20077141995E+03  0.93875977367E+02 0.  0.
        -24    2    1    2    0    0  0.60172473461E+01  0.34844787597E+02  0.31785832878E+02  0.95297840769E+02  0.82589180861E+02 0.  0.
         13    1    4    4    0    0  0.11508840465E+02  0.37086313569E+02  0.57236301072E+02  0.69165325297E+02  0.00000000000E+00 0. -1.
        -14    1    4    4    0    0 -0.54915931185E+01 -0.22415259718E+01 -0.25450468194E+02  0.26132515473E+02  0.00000000000E+00 0.  1.
        -13    1    3    3    0    0 -0.50349033511E+02  0.25374540818E+01 -0.94249322344E+02  0.10688497842E+03  0.00000000000E+00 0.  1.
         13    1    3    3    0    0  0.24485198620E+02 -0.52048641035E+02 -0.74202950876E+02  0.93886441533E+02  0.00000000000E+00 0. -1.
         21    1    1    2  502  501  0.19846587544E+02  0.14666399355E+02 -0.81581595736E+00  0.24691210235E+02  0.00000000000E+00 0. -1.
<scales pt_clust_5="13000.00000" pt_clust_6="13000.00000" pt_clust_7="13000.00000" pt_clust_8="13000.00000" pt_clust_9="24.67773"></scales>
<clustering>
<clus scale="   24.678">  1  9  2 -1</clus>
<clus scale="   82.589">  5  6 -1 -1</clus>
<clus scale="   93.876">  7  8 -1 -1</clus>
<clus scale="   97.282">  1  5  2 -1</clus>
<clus scale="   24.678">  1  5  2 -1</clus>
</clustering>
</event>
<event>
 9    1  0.1973774E-005  0.1690948E+03  0.7546771E-02  0.1180386E+00
         -4   -1    0    0    0  501 -0.00000000000E+00  0.00000000000E+00  0.46650810186E+03  0.46650810186E+03  0.00000000000E+00 0.  1.
          3   -1    0    0  502    0  0.00000000000E+00 -0.00000000000E+00 -0.90628729548E+02  0.90628729548E+02  0.00000000000E+00 0. -1.
        -24    2    1    2    0    0  0.15392546578E+03  0.16960550949E+02  0.26330474676E+03  0.31582980024E+03  0.80239415178E+02 0.  0.
         23    2    1    2    0    0 -0.12320182047E+03 -0.20070865797E+02  0.13309718446E+03  0.20422884534E+03  0.91722584653E+02 0.  0.
         13    1    3    3    0    0  0.51019159153E+02 -0.67937370913E+00  0.27540902047E+02  0.57982044072E+02  0.00000000000E+00 0. -1.
        -14    1    3    3    0    0  0.10290630663E+03  0.17639924658E+02  0.23576384472E+03  0.25784775617E+03  0.00000000000E+00 0.  1.
        -13    1    4    4    0    0 -0.67751660574E+02  0.93691606169E+01  0.14318260271E+02  0.69879047349E+02  0.00000000000E+00 0. -1.
         13    1    4    4    0    0 -0.55450159894E+02 -0.29440026414E+02  0.11877892419E+03  0.13434979799E+03  0.00000000000E+00 0.  1.
         21    1    1    2  502  501 -0.30723645314E+02  0.31103148477E+01 -0.20522558915E+02  0.37078185828E+02  0.00000000000E+00 0. -1.
<scales pt_clust_5="13000.00000" pt_clust_6="13000.00000" pt_clust_7="13000.00000" pt_clust_8="13000.00000" pt_clust_9="30.88068"></scales>
<clustering>
<clus scale="   30.881">  2  9  1 -1</clus>
<clus scale="   80.239">  5  6 -1 -1</clus>
<clus scale="   91.723">  7  8 -1 -1</clus>
<clus scale="  163.151">  1  5  2 -1</clus>
<clus scale="   30.881">  2  5  1 -1</clus>
</clustering>
</event>
<event>
 9    1  0.1973774E-005  0.1865444E+03  0.7546771E-02  0.1161667E+00
          1   -1    0    0  502    0  0.00000000000E+00  0.00000000000E+00  0.12743318242E+04  0.12743318242E+04  0.00000000000E+00 0. -1.
         -2   -1    0    0    0  501 -0.00000000000E+00 -0.00000000000E+00 -0.19672823739E+03  0.19672823739E+03  0.00000000000E+00 0.  1.
        -24    2    1    2    0    0  0.15391983685E+03 -0.30519249173E+02 -0.10436640051E+03  0.20960307260E+03  0.91751630750E+02 0.  0.
         23    2    1    2    0    0 -0.23927241448E+03  0.13071728139E+03  0.97132361549E+03  0.10130689818E+04  0.92200324278E+02 0.  0.
         13    1    3    3    0    0  0.20195145752E+02 -0.18369326050E+02  0.13932111564E+02  0.30649303159E+02  0.00000000000E+00 0. -1.
        -14    1    3    3    0    0  0.13372469109E+03 -0.12149923123E+02 -0.11829851207E+03  0.17895376945E+03  0.00000000000E+00 0.  1.
        -11    1    4    4    0    0 -0.18641559705E+03  0.13968606880E+03  0.82399234375E+03  0.85628637452E+03  0.00000000000E+00 0. -1.
         11    1    4    4    0    0 -0.52856817430E+02 -0.89687874108E+01  0.14733127174E+03  0.15678260723E+03  0.00000000000E+00 0.  1.
         21    1    1    2  502  501  0.85352577633E+02 -0.10019803222E+03  0.21064637181E+03  0.24838800721E+03  0.00000000000E+00 0.  1.
<scales pt_clust_5="13000.00000" pt_clust_6="13000.00000" pt_clust_7="13000.00000" pt_clust_8="13000.00000" pt_clust_9="131.62336"></scales>
<clustering>
<clus scale="   91.752">  5  6 -1 -1</clus>
<clus scale="   92.200">  7  8 -1 -1</clus>
<clus scale="  131.623">  1  9  2 -1</clus>
<clus scale="  186.323">  2  5  1 -1</clus>
<clus scale="  131.623">  1  5  2 -1</clus>
</clustering>
</event>
<event>
 9    1  0.1973774E-005  0.9397359E+02  0.7546771E-02  0.1298160E+00
         -2   -1    0    0    0  501 -0.00000000000E+00  0.00000000000E+00  0.10453270244E+03  0.10453270244E+03  0.00000000000E+00 0.  1.
          1   -1    0    0  502    0  0.00000000000E+00 -0.00000000000E+00 -0.12016328451E+03  0.12016328451E+03  0.00000000000E+00 0. -1.
         23    2    1    2    0    0 -0.24812072352E+02  0.10379690585E+02  0.33486923078E+02  0.10112175073E+03  0.91547023668E+02 0.  0.
        -24    2    1    2    0    0  0.37527835006E+01 -0.22196149490E+02 -0.48981580121E+02  0.99425927307E+02  0.83543805237E+02 0.  0.
         11    1    4    4    0    0  0.12401759852E+02  0.16154142701E+02 -0.55912621868E+02  0.59506144708E+02  0.00000000000E+00 0. -1.
        -12    1    4    4    0    0 -0.86489763513E+01 -0.38350292191E+02  0.69310417473E+01  0.39919782599E+02  0.00000000000E+00 0.  1.
        -11    1    3    3    0    0 -0.56749401074E+02  0.22526075395E+02  0.18389682511E+02  0.63765970688E+02  0.00000000000E+00 0.  1.
         11    1    3    3    0    0  0.31937328722E+02 -0.12146384810E+02  0.15097240566E+02  0.37355780042E+02  0.00000000000E+00 0. -1.
         21    1    1    2  502  501  0.21059288851E+02  0.11816458906E+02 -0.13592503011E+00  0.24148308918E+02  0.00000000000E+00 0.  1.
<scales pt_clust_5="13000.00000" pt_clust_6="13000.00000" pt_clust_7="13000.00000" pt_clust_8="13000.00000" pt_clust_9="24.14793"></scales>
<clustering>
<clus scale="   24.148">  1  9  2 -1</clus>
<clus scale="   83.544">  5  6 -1 -1</clus>
<clus scale="   86.196">  2  5  1 -1</clus>
<clus scale="   91.547">  7  8 -1 -1</clus>
<clus scale="   86.196">  2  5  1 -1</clus>
</clustering>
</event>
<event>
 9    1  0.2394593E-005  0.9397187E+02  0.7546771E-02  0.1297432E+00
          3   -1    0    0  502    0  0.00000000000E+00  0.00000000000E+00  0.37402239346E+03  0.37402239346E+03  0.00000000000E+00 0. -1.
         -4   -1    0    0    0  501 -0.00000000000E+00 -0.00000000000E+00 -0.11325986820E+03  0.11325986820E+03  0.00000000000E+00 0.  1.
         23    2    1    2    0    0  0.17797966927E+02  0.30762873043E+02 -0.72970014393E+02  0.12182467645E+03  0.90848812907E+02 0.  0.
        -24    2    1    2    0    0 -0.24107808733E+02 -0.19903169785E+01  0.32216099508E+03  0.33380991974E+03  0.84001237878E+02 0.  0.
         13    1    4    4    0    0 -0.52354273028E+02  0.14496693861E+02  0.21589439410E+03  0.22262415287E+03  0.00000000000E+00 0. -1.
        -14    1    4    4    0    0  0.28246464295E+02 -0.16487010839E+02  0.10626660097E+03  0.11118576687E+03  0.00000000000E+00 0.  1.
        -11    1    3    3    0    0  0.52769688735E+02  0.32184140980E+02 -0.53648806352E+02  0.81845301654E+02  0.00000000000E+00 0.  1.
         11    1    3    3    0    0 -0.34971721808E+02 -0.14212679372E+01 -0.19321208041E+02  0.39979374794E+02  0.00000000000E+00 0. -1.
         21    1    1    2  502  501  0.63098418066E+01 -0.28772556065E+02  0.11571544574E+02  0.31647665474E+02  0.00000000000E+00 0.  1.
<scales pt_clust_5="13000.00000" pt_clust_6="13000.00000" pt_clust_7="13000.00000" pt_clust_8="13000.00000" pt_clust_9="29.45631"></scales>
<clustering>
<clus scale="   29.456">  2  9  1 -1</clus>
<clus scale="   84.001">  5  6 -1 -1</clus>
<clus scale="   87.369">  1  5  2 -1</clus>
<clus scale="   90.849">  7  8 -1 -1</clus>
<clus scale="   87.369">  1  5  2 -1</clus>
</clustering>
</event>
<event>
 9    1  0.1973774E-005  0.9672506E+02  0.7546771E-02  0.1293906E+00
          1   -1    0    0  502    0  0.00000000000E+00  0.00000000000E+00  0.19894363255E+03  0.19894363255E+03  0.00000000000E+00 0. -1.
         -2   -1    0    0    0  501 -0.00000000000E+00 -0.00000000000E+00 -0.10281726354E+03  0.10281726354E+03  0.00000000000E+00 0.  1.
        -24    2    1    2    0    0  0.24922435016E+02  0.91145240386E+01 -0.54826367152E+02  0.10083448758E+03  0.80358328968E+02 0.  0.
         23    2    1    2    0    0 -0.42761422053E+02 -0.23913590442E+02  0.14163207175E+03  0.17594408256E+03  0.92175253826E+02 0.  0.
         13    1    3    3    0    0 -0.78125511871E+01 -0.29591967902E+02 -0.75629837652E+01  0.31526484799E+02  0.00000000000E+00 0. -1.
        -14    1    3    3    0    0  0.32734986203E+02  0.38706491940E+02 -0.47263383387E+02  0.69308002779E+02  0.00000000000E+00 0.  1.
        -11    1    4    4    0    0 -0.55197550777E+02  0.19944321182E+02  0.83699796332E+02  0.10222622690E+03  0.00000000000E+00 0.  1.
         11    1    4    4    0    0  0.12436128724E+02 -0.43857911623E+02  0.57932275417E+02  0.73717855670E+02  0.00000000000E+00 0. -1.
         21    1    1    2  502  501  0.17838987037E+02  0.14799066403E+02  0.93206644107E+01  0.24982325952E+02  0.00000000000E+00 0. -1.
<scales pt_clust_5="13000.00000" pt_clust_6="13000.00000" pt_clust_7="13000.00000" pt_clust_8="13000.00000" pt_clust_9="23.17848"></scales>
<clustering>
<clus scale="   23.178">  1  9  2 -1</clus>
<clus scale="   80.358">  5  6 -1 -1</clus>
<clus scale="   85.539">  2  5  1 -1</clus>
<clus scale="   92.175">  7  8 -1 -1</clus>
<clus scale="   23.178">  1  5  2 -1</clus>
</clustering>
</event>
<event>
 9    1  0.1973774E-005  0.1131685E+03  0.7546771E-02  0.1259234E+00
          1   -1    0    0  502    0  0.00000000000E+00  0.00000000000E+00  0.72930918279E+03  0.72930918279E+03  0.00000000000E+00 0. -1.
         -2   -1    0    0    0  501 -0.00000000000E+00 -0.00000000000E+00 -0.16552360499E+03  0.16552360499E+03  0.00000000000E+00 0.  1.
         23    2    1    2    0    0  0.54677609436E+02 -0.37298883906E+02 -0.13586928124E+03  0.17641839064E+03  0.91006259448E+02 0.  0.
        -24    2    1    2    0    0 -0.87458728373E+02  0.47495842446E+02  0.58968368149E+03  0.60320919060E+03  0.78927810016E+02 0.  0.
         11    1    4    4    0    0 -0.39855290082E+02  0.58346279520E+02  0.24168788423E+03  0.25180501557E+03  0.00000000000E+00 0. -1.
        -12    1    4    4    0    0 -0.47603438291E+02 -0.10850437074E+02  0.34799579726E+03  0.35140417503E+03  0.00000000000E+00 0.  1.
        -11    1    3    3    0    0  0.49863334841E+02  0.12754298844E+02 -0.30913800895E+02  0.60039048845E+02  0.00000000000E+00 0. -1.
         11    1    3    3    0    0  0.48142745947E+01 -0.50053182750E+02 -0.10495548034E+03  0.11637934180E+03  0.00000000000E+00 0.  1.
         21    1    1    2  502  501  0.32781118938E+02 -0.10196958540E+02  0.10997117755E+03  0.11520520654E+03  0.00000000000E+00 0. -1.
<scales pt_clust_5="13000.00000" pt_clust_6="13000.00000" pt_clust_7="13000.00000" pt_clust_8="13000.00000" pt_clust_9="34.33045"></scales>
<clustering>
<clus scale="   34.330">  1  9  2 -1</clus>
<clus scale="   78.928">  5  6 -1 -1</clus>
<clus scale="   91.006">  7  8 -1 -1</clus>
<clus scale="  103.704">  1  5  2 -1</clus>
<clus scale="   34.330">  1  5  2 -1</clus>
</clustering>
</event>
<event>
 9    1  0.1973774E-005  0.1196766E+03  0.7546771E-02  0.1246877E+00
          3   -1    0    0  502    0  0.00000000000E+00  0.00000000000E+00  0.78382856943E+02  0.78382856943E+02  0.00000000000E+00 0. -1.
         -4   -1    0    0    0  501 -0.00000000000E+00 -0.00000000000E+00 -0.10472080589E+04  0.10472080589E+04  0.00000000000E+00 0.  1.
        -24    2    1    2    0    0 -0.49907603949E+02 -0.37668901460E+02 -0.40056329716E+03  0.41319099254E+03  0.79788007942E+02 0.  0.
         23    2    1    2    0    0  0.97198314135E+02  0.25411343912E+02 -0.62391590029E+03  0.63834571209E+03  0.90116307304E+02 0.  0.
         13    1    3    3    0    0 -0.91465473806E+01 -0.25206919972E+02 -0.30214854690E+02  0.40397841370E+02  0.00000000000E+00 0. -1.
        -14    1    3    3    0    0 -0.40761056568E+02 -0.12461981487E+02 -0.37034844247E+03  0.37279315117E+03  0.00000000000E+00 0.  1.
        -13    1    4    4    0    0  0.60902706645E+02  0.57487977087E+02 -0.45401646799E+03  0.46167625063E+03  0.00000000000E+00 0.  1.
         13    1    4    4    0    0  0.36295607491E+02 -0.32076633174E+02 -0.16989943230E+03  0.17666946146E+03  0.00000000000E+00 0. -1.
         21    1    1    2  502  501 -0.47290710187E+02  0.12257557547E+02  0.55653995483E+02  0.74054211225E+02  0.00000000000E+00 0. -1.
<scales pt_clust_5="13000.00000" pt_clust_6="13000.00000" pt_clust_7="13000.00000" pt_clust_8="13000.00000" pt_clust_9="48.85344"></scales>
<clustering>
<clus scale="   48.853">  1  9  2 -1</clus>
<clus scale="   79.788">  5  6 -1 -1</clus>
<clus scale="   90.116">  7  8 -1 -1</clus>
<clus scale="  112.106">  2  5  1 -1</clus>
<clus scale="   48.853">  1  5  2 -1</clus>
</clustering>
</event>
<event>
 9    1  0.1973774E-005  0.9520860E+02  0.7546771E-02  0.1296489E+00
         -2   -1    0    0    0  501 -0.00000000000E+00  0.00000000000E+00  0.10708187915E+03  0.10708187915E+03  0.00000000000E+00 0.  1.
          1   -1    0    0  502    0  0.00000000000E+00 -0.00000000000E+00 -0.29796214328E+03  0.29796214328E+03  0.00000000000E+00 0. -1.
         23    2    1    2    0    0 -0.23664108594E+02  0.39902838786E+01  0.67477626159E+02  0.11621000908E+03  0.91518434090E+02 0.  0.
        -24    2    1    2    0    0  0.48526167618E+02 -0.77859500997E+01 -0.23864869601E+03  0.25688121378E+03  0.81359375146E+02 0.  0.
         11    1    4    4    0    0  0.30177703093E+02  0.31245947254E+02 -0.17271581236E+03  0.17809479168E+03  0.00000000000E+00 0. -1.
        -12    1    4    4    0    0  0.18348464525E+02 -0.39031897354E+02 -0.65932883653E+02  0.78786422106E+02  0.00000000000E+00 0.  1.
        -11    1    3    3    0    0 -0.51735261144E+02 -0.18337095823E+02  0.56328971405E+02  0.78649471380E+02  0.00000000000E+00 0.  1.
         11    1    3    3    0    0  0.28071152550E+02  0.22327379701E+02  0.11148654753E+02  0.37560537704E+02  0.00000000000E+00 0. -1.
         21    1    1    2  502  501 -0.24862059024E+02  0.37956662210E+01 -0.19709194280E+02  0.31952799567E+02  0.00000000000E+00 0.  1.
<scales pt_clust_5="13000.00000" pt_clust_6="13000.00000" pt_clust_7="13000.00000" pt_clust_8="13000.00000" pt_clust_9="25.15013"></scales>
<clustering>
<clus scale="   25.150">  2  9  1 -1</clus>
<clus scale="   81.359">  5  6 -1 -1</clus>
<clus scale="   85.489">  2  5  1 -1</clus>
<clus scale="   91.518">  7  8 -1 -1</clus>
<clus scale="   25.150">  2  5  1 -1</clus>
</clustering>
</event>
<event>
 9    1  0.1973774E-005  0.1438401E+03  0.7546771E-02  0.1230691E+00
         -2   -1    0    0    0  501 -0.00000000000E+00  0.00000000000E+00  0.61952713374E+02  0.61952713374E+02  0.00000000000E+00 0.  1.
          1   -1    0    0  502    0  0.00000000000E+00 -0.00000000000E+00 -0.85171394532E+03  0.85171394532E+03  0.00000000000E+00 0. -1.
        -24    2    1    2    0    0 -0.35668510639E+02 -0.27589069315E+02 -0.10452651335E+02  0.90364254425E+02  0.77608254464E+02 0.  0.
         23    2    1    2    0    0 -0.82878084398E+02 -0.98937581318E+01 -0.24384318406E+03  0.27359207286E+03  0.91795754798E+02 0.  0.
         13    1    3    3    0    0 -0.10136425298E+02 -0.52839641212E+02 -0.48619617569E+01  0.54022342354E+02  0.00000000000E+00 0. -1.
        -14    1    3    3    0    0 -0.25532085342E+02  0.25250571897E+02 -0.55906895784E+01  0.36341912071E+02  0.00000000000E+00 0.  1.
        -11    1    4    4    0    0 -0.93931005151E+02  0.11376200283E+02 -0.15522316663E+03  0.18178746690E+03  0.00000000000E+00 0.  1.
         11    1    4    4    0    0  0.11052920753E+02 -0.21269958414E+02 -0.88620017427E+02  0.91804605967E+02  0.00000000000E+00 0. -1.
         21    1    1    2  502  501  0.11854659504E+03  0.37482827447E+02 -0.53546539656E+03  0.54971033141E+03  0.00000000000E+00 0. -1.
<scales pt_clust_5="13000.00000" pt_clust_6="13000.00000" pt_clust_7="13000.00000" pt_clust_8="13000.00000" pt_clust_9="110.74076"></scales>
<clustering>
<clus scale="   77.608">  5  6 -1 -1</clus>
<clus scale="   89.758">  1  5  2 -1</clus>
<clus scale="   91.796">  7  8 -1 -1</clus>
<clus scale="  110.741">  2  9  1 -1</clus>
<clus scale="  110.741">  2  5  1 -1</clus>
</clustering>
</event>
<event>
 9    1  0.1973774E-005  0.1245098E+03  0.7546771E-02  0.1237535E+00
          1   -1    0    0  502    0  0.00000000000E+00  0.00000000000E+00  0.55004267338E+03  0.55004267338E+03  0.00000000000E+00 0. -1.
         -2   -1    0    0    0  501 -0.00000000000E+00 -0.00000000000E+00 -0.93150792788E+02  0.93150792788E+02  0.00000000000E+00 0.  1.
        -24    2    1    2    0    0  0.17557614478E+00 -0.84543607249E+02 -0.37011159171E+02  0.12554512632E+03  0.85112281638E+02 0.  0.
         23    2    1    2    0    0  0.21604435952E+02  0.88403241606E+02  0.36897481818E+03  0.39077704186E+03  0.91007665710E+02 0.  0.
         13    1    3    3    0    0 -0.17780318753E+02 -0.50145396966E+02  0.19781251801E+02  0.56762650525E+02  0.00000000000E+00 0. -1.
        -14    1    3    3    0    0  0.17955894898E+02 -0.34398210283E+02 -0.56792410972E+02  0.68782475794E+02  0.00000000000E+00 0.  1.
        -13    1    4    4    0    0  0.34187432978E+02  0.59573646835E+01  0.19230456245E+03  0.19541063304E+03  0.00000000000E+00 0.  1.
         13    1    4    4    0    0 -0.12582997026E+02  0.82445876922E+02  0.17667025573E+03  0.19536640882E+03  0.00000000000E+00 0. -1.
         21    1    1    2  502  501 -0.21780012096E+02 -0.38596343568E+01  0.12492822159E+03  0.12687129799E+03  0.00000000000E+00 0. -1.
<scales pt_clust_5="13000.00000" pt_clust_6="13000.00000" pt_clust_7="13000.00000" pt_clust_8="13000.00000" pt_clust_9="22.11935"></scales>
<clustering>
<clus scale="   22.119">  1  9  2 -1</clus>
<clus scale="   85.112">  5  6 -1 -1</clus>
<clus scale="   91.008">  7  8 -1 -1</clus>
<clus scale="  120.268">  2  5  1 -1</clus>
<clus scale="   22.119">  1  5  2 -1</clus>
</clustering>
</event>
<event>
 9    1  0.1973774E-005  0.1192514E+03  0.7546771E-02  0.1248827E+00
          1   -1    0    0  502    0  0.00000000000E+00  0.00000000000E+00  0.14040282360E+03  0.14040282360E+03  0.00000000000E+00 0. -1.
         -2   -1    0    0    0  501 -0.00000000000E+00 -0.00000000000E+00 -0.80598347189E+03  0.80598347189E+03  0.00000000000E+00 0.  1.
        -24    2    1    2    0    0 -0.29911754908E+02  0.77713489927E+02 -0.67253462232E+03  0.68220880195E+03  0.78561642282E+02 0.  0.
         23    2    1    2    0    0  0.44985052717E+02 -0.60411999953E+02  0.10785356774E+03  0.16070153560E+03  0.92300199157E+02 0.  0.
         13    1    3    3    0    0 -0.22959193749E+02  0.61210523865E+02 -0.22471766666E+03  0.23403393455E+03  0.00000000000E+00 0. -1.
        -14    1    3    3    0    0 -0.69525611586E+01  0.16502966062E+02 -0.44781695566E+03  0.44817486740E+03  0.00000000000E+00 0.  1.
        -13    1    4    4    0    0  0.46571649485E+02 -0.83699433077E+02  0.87435294757E+02  0.12968980069E+03  0.00000000000E+00 0. -1.
         13    1    4    4    0    0 -0.15865967685E+01  0.23287433124E+02  0.20418272980E+02  0.31011734913E+02  0.00000000000E+00 0.  1.
         21    1    1    2  502  501 -0.15073297809E+02 -0.17301489973E+02 -0.10089959370E+03  0.10347595794E+03  0.00000000000E+00 0. -1.
<scales pt_clust_5="13000.00000" pt_clust_6="13000.00000" pt_clust_7="13000.00000" pt_clust_8="13000.00000" pt_clust_9="22.94659"></scales>
<clustering>
<clus scale="   22.947">  2  9  1 -1</clus>
<clus scale="   78.562">  5  6 -1 -1</clus>
<clus scale="   92.300">  7  8 -1 -1</clus>
<clus scale="  108.966">  2  5  1 -1</clus>
<clus scale="  119.251">  1  5  2 -1</clus>
</clustering>
</event>
<event>
 9    1  0.1973774E-005  0.9884395E+02  0.7546771E-02  0.1287039E+00
         -2   -1    0    0    0  501 -0.00000000000E+00  0.00000000000E+00  0.21229735679E+03  0.21229735679E+03  0.00000000000E+00 0.  1.
          1   -1    0    0  502    0  0.00000000000E+00 -0.00000000000E+00 -0.68095029999E+02  0.68095029999E+02  0.00000000000E+00 0. -1.
        -24    2    1    2    0    0 -0.87089464779E-01  0.22379909954E+02  0.63360705661E+02  0.10466353134E+03  0.80243428499E+02 0.  0.
         23    2    1    2    0    0 -0.19235999788E+02 -0.59894345733E+02  0.37335306082E+02  0.11511933376E+03  0.88888579618E+02 0.  0.
         11    1    3    3    0    0  0.33365180359E+01 -0.22384259597E+02 -0.47144220922E+01  0.23117378874E+02  0.00000000000E+00 0. -1.
        -12    1    3    3    0    0 -0.34236075007E+01  0.44764169551E+02  0.68075127753E+02  0.81546152470E+02  0.00000000000E+00 0.  1.
        -13    1    4    4    0    0  0.21622592696E+02 -0.62098768729E+02  0.34105242875E+02  0.74074025029E+02  0.00000000000E+00 0.  1.
         13    1    4    4    0    0 -0.40858592483E+02  0.22044229953E+01  0.32300632075E+01  0.41045308731E+02  0.00000000000E+00 0. -1.
         21    1    1    2  502  501  0.19323089252E+02  0.37514435779E+02  0.43506315047E+02  0.60609521687E+02  0.00000000000E+00 0. -1.
<scales pt_clust_5="13000.00000" pt_clust_6="13000.00000" pt_clust_7="13000.00000" pt_clust_8="13000.00000" pt_clust_9="42.19852"></scales>
<clustering>
<clus scale="   42.199">  1  9  2 -1</clus>
<clus scale="   80.243">  5  6 -1 -1</clus>
<clus scale="   88.889">  7  8 -1 -1</clus>
<clus scale="   91.148">  1  5  2 -1</clus>
<clus scale="   98.844">  2  5  1 -1</clus>
</clustering>
</event>
<event>
 9    1  0.1973774E-005  0.1134229E+03  0.7546771E-02  0.1257810E+00
         -2   -1    0    0    0  501 -0.00000000000E+00  0.00000000000E+00  0.12433745175E+03  0.12433745175E+03  0.00000000000E+00 0.  1.
          1   -1    0    0  502    0  0.00000000000E+00 -0.00000000000E+00 -0.25687033020E+03  0.25687033020E+03  0.00000000000E+00 0. -1.
         23    2    1    2    0    0  0.11841931987E+02  0.91902545046E+02  0.61165480900E+01  0.12993998747E+03  0.90888277816E+02 0.  0.
        -24    2    1    2    0    0  0.63837057593E+02 -0.27974643597E+02 -0.49574988575E+02  0.11804489274E+03  0.81358260815E+02 0.  0.
         13    1    4    4    0    0  0.58915417561E+02  0.24909910422E+01  0.79428162562E+00  0.58973403717E+02  0.00000000000E+00 0. -1.
        -14    1    4    4    0    0  0.49216400319E+01 -0.30465634639E+02 -0.50369270200E+02  0.59071489020E+02  0.00000000000E+00 0.  1.
        -11    1    3    3    0    0  0.54724107677E+01  0.46338383569E+02 -0.42422039743E+02  0.63062052990E+02  0.00000000000E+00 0. -1.
         11    1    3    3    0    0  0.63695212193E+01  0.45564161477E+02  0.48538587832E+02  0.66877934481E+02  0.00000000000E+00 0.  1.
         21    1    1    2  502  501 -0.75678989580E+02 -0.63927901449E+02 -0.89074437968E+02  0.13322290174E+03  0.00000000000E+00 0.  1.
<scales pt_clust_5="13000.00000" pt_clust_6="13000.00000" pt_clust_7="13000.00000" pt_clust_8="13000.00000" pt_clust_9="99.06607"></scales>
<clustering>
<clus scale="   81.358">  5  6 -1 -1</clus>
<clus scale="   90.888">  7  8 -1 -1</clus>
<clus scale="   99.066">  2  9  1 -1</clus>
<clus scale="  105.940">  2  5  1 -1</clus>
<clus scale="   99.066">  2  5  1 -1</clus>
</clustering>
</event>
<event>
 9    1  0.1973774E-005  0.9890550E+02  0.7546771E-02  0.1286896E+00
          1   -1    0    0  502    0  0.00000000000E+00  0.00000000000E+00  0.10576663775E+04  0.10576663775E+04  0.00000000000E+00 0. -1.
         -2   -1    0    0    0  501 -0.00000000000E+00 -0.00000000000E+00 -0.78417616086E+02  0.78417616086E+02  0.00000000000E+00 0.  1.
         23    2    1    2    0    0  0.29544687157E+02  0.18466363330E+02 -0.41817722950E+02  0.10711677575E+03  0.92257176304E+02 0.  0.
        -24    2    1    2    0    0 -0.48485670096E+02 -0.31689659009E+02  0.89572870448E+03  0.90151850090E+03  0.83967855419E+02 0.  0.
         11    1    4    4    0    0 -0.11527777432E+02 -0.39185518133E+02  0.17105099161E+03  0.17586027469E+03  0.00000000000E+00 0. -1.
        -12    1    4    4    0    0 -0.36957892664E+02  0.74958591239E+01  0.72467771286E+03  0.72565822620E+03  0.00000000000E+00 0.  1.
        -11    1    3    3    0    0 -0.23647044013E+02  0.33608091150E+02 -0.67855224482E+01  0.41650087589E+02  0.00000000000E+00 0. -1.
         11    1    3    3    0    0  0.53191731170E+02 -0.15141727820E+02 -0.35032200502E+02  0.65466688157E+02  0.00000000000E+00 0.  1.
         21    1    1    2  502  501  0.18940982939E+02  0.13223295679E+02  0.12533777986E+03  0.12744871692E+03  0.00000000000E+00 0.  1.
<scales pt_clust_5="13000.00000" pt_clust_6="13000.00000" pt_clust_7="13000.00000" pt_clust_8="13000.00000" pt_clust_9="23.10014"></scales>
<clustering>
<clus scale="   23.100">  1  9  2 -1</clus>
<clus scale="   83.968">  5  6 -1 -1</clus>
<clus scale="   91.222">  1  5  2 -1</clus>
<clus scale="   92.257">  7  8 -1 -1</clus>
<clus scale="   23.100">  1  5  2 -1</clus>
</clustering>
</event>
<event>
 9    1  0.1973774E-005  0.1000941E+03  0.7546771E-02  0.1285908E+00
          3   -1    0    0  502    0  0.00000000000E+00  0.00000000000E+00  0.34260160100E+03  0.34260160100E+03  0.00000000000E+00 0. -1.
         -4   -1    0    0    0  501 -0.00000000000E+00 -0.00000000000E+00 -0.23237954180E+03  0.23237954180E+03  0.00000000000E+00 0.  1.
        -24    2    1    2    0    0  0.10119395565E+02  0.35406511042E+02 -0.18789787287E+03  0.20765586895E+03  0.80369932756E+02 0.  0.
         23    2    1    2    0    0 -0.19980329377E+02 -0.66022180625E+02  0.64987384672E+02  0.13198436814E+03  0.91860608374E+02 0.  0.
         11    1    3    3    0    0  0.28665850849E+02 -0.16644363307E+02 -0.70783093924E+02  0.78160170293E+02  0.00000000000E+00 0. -1.
        -12    1    3    3    0    0 -0.18546455283E+02  0.52050874349E+02 -0.11711477895E+03  0.12949569866E+03  0.00000000000E+00 0.  1.
        -13    1    4    4    0    0 -0.52368387183E+02 -0.17308393259E+02  0.21956422586E+02  0.59364239624E+02  0.00000000000E+00 0.  1.
         13    1    4    4    0    0  0.32388057806E+02 -0.48713787366E+02  0.43030962086E+02  0.72620128518E+02  0.00000000000E+00 0. -1.
         21    1    1    2  502  501  0.98609338114E+01  0.30615669583E+02  0.23313254740E+03  0.23534090570E+03  0.00000000000E+00 0. -1.
<scales pt_clust_5="13000.00000" pt_clust_6="13000.00000" pt_clust_7="13000.00000" pt_clust_8="13000.00000" pt_clust_9="32.16453"></scales>
<clustering>
<clus scale="   32.165">  1  9  2 -1</clus>
<clus scale="   80.370">  5  6 -1 -1</clus>
<clus scale="   89.665">  2  5  1 -1</clus>
<clus scale="   91.861">  7  8 -1 -1</clus>
<clus scale="   32.165">  1  5  2 -1</clus>
</clustering>
</event>
<event>
 9    1  0.1973774E-005  0.1180273E+03  0.7546771E-02  0.1248192E+00
         -2   -1    0    0    0  501 -0.00000000000E+00  0.00000000000E+00  0.13021409136E+03  0.13021409136E+03  0.00000000000E+00 0.  1.
          1   -1    0    0  502    0  0.00000000000E+00 -0.00000000000E+00 -0.14148654661E+03  0.14148654661E+03  0.00000000000E+00 0. -1.
        -24    2    1    2    0    0 -0.48763026120E+02 -0.64705057190E+02  0.27545070914E+02  0.12254935497E+03  0.87721356179E+02 0.  0.
         23    2    1    2    0    0  0.49220833283E+02  0.38601646366E+02 -0.13833445199E+02  0.11301540130E+03  0.93103916099E+02 0.  0.
         11    1    3    3    0    0 -0.60076755644E+02 -0.79308073247E+01  0.21692801861E+02  0.64363746987E+02  0.00000000000E+00 0. -1.
        -12    1    3    3    0    0  0.11313729524E+02 -0.56774249866E+02  0.58522690526E+01  0.58185607985E+02  0.00000000000E+00 0.  1.
        -11    1    4    4    0    0  0.68901135750E+01  0.27410715962E+02  0.36590044205E+02  0.46234752618E+02  0.00000000000E+00 0.  1.
         11    1    4    4    0    0  0.42330719708E+02  0.11190930404E+02 -0.50423489404E+02  0.66780648679E+02  0.00000000000E+00 0. -1.
         21    1    1    2  502  501 -0.45780716282E+00  0.26103410824E+02 -0.24984080969E+02  0.36135881695E+02  0.00000000000E+00 0. -1.
<scales pt_clust_5="13000.00000" pt_clust_6="13000.00000" pt_clust_7="13000.00000" pt_clust_8="13000.00000" pt_clust_9="26.10743"></scales>
<clustering>
<clus scale="   26.107">  2  9  1 -1</clus>
<clus scale="   87.721">  5  6 -1 -1</clus>
<clus scale="   93.104">  7  8 -1 -1</clus>
<clus scale="  113.829">  1  5  2 -1</clus>
<clus scale="   26.107">  2  5  1 -1</clus>
</clustering>
</event>
<event>
 9    1  0.1973774E-005  0.1247904E+03  0.7546771E-02  0.1239867E+00
         -2   -1    0    0    0  501 -0.00000000000E+00  0.00000000000E+00  0.78804540902E+02  0.78804540902E+02  0.00000000000E+00 0.  1.
          1   -1    0    0  502    0  0.00000000000E+00 -0.00000000000E+00 -0.45566083397E+03  0.45566083397E+03  0.00000000000E+00 0. -1.
        -24    2    1    2    0    0  0.74629503415E+02  0.38020117146E+02  0.14430058476E+02  0.11628727105E+03  0.79368827207E+02 0.  0.
         23    2    1    2    0    0 -0.50378805888E+02 -0.52314113303E+02 -0.30442505536E+03  0.32686929027E+03  0.94308684975E+02 0.  0.
         13    1    3    3    0    0  0.16483992646E+02  0.40268771338E+02  0.33650683142E+02  0.55006039983E+02  0.00000000000E+00 0. -1.
        -14    1    3    3    0    0  0.58145510769E+02 -0.22486541922E+01 -0.19220624666E+02  0.61281231065E+02  0.00000000000E+00 0.  1.
        -13    1    4    4    0    0 -0.48607130279E+02  0.95301535724E+01 -0.80181972156E+02  0.94247682199E+02  0.00000000000E+00 0.  1.
         13    1    4    4    0    0 -0.17716756088E+01 -0.61844266875E+02 -0.22424308320E+03  0.23262160807E+03  0.00000000000E+00 0. -1.
         21    1    1    2  502  501 -0.24250697527E+02  0.14293996157E+02 -0.86861296183E+02  0.91308813546E+02  0.00000000000E+00 0.  1.
<scales pt_clust_5="13000.00000" pt_clust_6="13000.00000" pt_clust_7="13000.00000" pt_clust_8="13000.00000" pt_clust_9="28.14986"></scales>
<clustering>
<clus scale="   28.150">  2  9  1 -1</clus>
<clus scale="   79.369">  5  6 -1 -1</clus>
<clus scale="   94.309">  7  8 -1 -1</clus>
<clus scale="  113.921">  1  5  2 -1</clus>
<clus scale="   28.150">  2  5  1 -1</clus>
</clustering>
</event>
<event>
 9    1  0.1973774E-005  0.1346246E+03  0.7546771E-02  0.1232251E+00
         -4   -1    0    0    0  501 -0.00000000000E+00  0.00000000000E+00  0.16866391040E+03  0.16866391040E+03  0.00000000000E+00 0.  1.
          3   -1    0    0  502    0  0.00000000000E+00 -0.00000000000E+00 -0.43119351251E+03  0.43119351251E+03  0.00000000000E+00 0. -1.
        -24    2    1    2    0    0 -0.89041310611E+01  0.71792727696E+02  0.12907909145E+03  0.16825951405E+03  0.80102265372E+02 0.  0.
         23    2    1    2    0    0  0.85341790589E+01 -0.39382942013E+02 -0.18011480133E+03  0.21763483373E+03  0.11532445906E+03 0.  0.
         13    1    3    3    0    0  0.25006591053E+02 -0.20046416306E+01  0.43933479015E+02  0.50591489033E+02  0.00000000000E+00 0. -1.
        -14    1    3    3    0    0 -0.33910722115E+02  0.73797369326E+02  0.85145612437E+02  0.11766802502E+03  0.00000000000E+00 0.  1.
        -11    1    4    4    0    0  0.22187192165E+02  0.11012875839E+02  0.50240355326E+01  0.25274411239E+02  0.00000000000E+00 0.  1.
         11    1    4    4    0    0 -0.13653013106E+02 -0.50395817853E+02 -0.18513883687E+03  0.19236042249E+03  0.00000000000E+00 0. -1.
         21    1    1    2  502  501  0.36995200223E+00 -0.32409785682E+02 -0.21149389223E+03  0.21396307514E+03  0.00000000000E+00 0.  1.
<scales pt_clust_5="13000.00000" pt_clust_6="13000.00000" pt_clust_7="13000.00000" pt_clust_8="13000.00000" pt_clust_9="32.41190"></scales>
<clustering>
<clus scale="   32.412">  2  9  1 -1</clus>
<clus scale="   80.102">  5  6 -1 -1</clus>
<clus scale="  106.021">  1  5  2 -1</clus>
<clus scale="  115.324">  7  8 -1 -1</clus>
<clus scale="   32.412">  2  5  1 -1</clus>
</clustering>
</event>
<event>
 9    1  0.1973774E-005  0.1148994E+03  0.7546771E-02  0.1256339E+00
         -2   -1    0    0    0  501 -0.00000000000E+00  0.00000000000E+00  0.47537953056E+03  0.47537953056E+03  0.00000000000E+00 0.  1.
          1   -1    0    0  502    0  0.00000000000E+00 -0.00000000000E+00 -0.41941995232E+02  0.41941995232E+02  0.00000000000E+00 0. -1.
         23    2    1    2    0    0 -0.10928879270E+02  0.64849296003E+02  0.31634199782E+03  0.33571096181E+03  0.91130229363E+02 0.  0.
        -24    2    1    2    0    0  0.32253573188E+02 -0.75653790324E+02  0.10593973309E+03  0.15523004768E+03  0.78162341828E+02 0.  0.
         11    1    4    4    0    0  0.22408221002E+02 -0.85106930569E+02  0.58037850222E+02  0.10542158250E+03  0.00000000000E+00 0. -1.
        -12    1    4    4    0    0  0.98453521862E+01  0.94531402451E+01  0.47901882872E+02  0.49808465173E+02  0.00000000000E+00 0.  1.
        -13    1    3    3    0    0 -0.37385543347E+02  0.70757055741E+02  0.27389157012E+03  0.28534335803E+03  0.00000000000E+00 0.  1.
         13    1    3    3    0    0  0.26456664077E+02 -0.59077597374E+01  0.42450427698E+02  0.50367603784E+02  0.00000000000E+00 0. -1.
         21    1    1    2  502  501 -0.21324693919E+02  0.10804494321E+02  0.11155804419E+02  0.26380516304E+02  0.00000000000E+00 0.  1.
<scales pt_clust_5="13000.00000" pt_clust_6="13000.00000" pt_clust_7="13000.00000" pt_clust_8="13000.00000" pt_clust_9="23.90564"></scales>
<clustering>
<clus scale="   23.906">  2  9  1 -1</clus>
<clus scale="   78.162">  5  6 -1 -1</clus>
<clus scale="   91.130">  7  8 -1 -1</clus>
<clus scale="  104.912">  2  5  1 -1</clus>
<clus scale="   23.906">  2  5  1 -1</clus>
</clustering>
</event>
<event>
 9    1  0.1973774E-005  0.9817187E+02  0.7546771E-02  0.1286281E+00
         -2   -1    0    0    0  501 -0.00000000000E+00  0.00000000000E+00  0.66182166200E+02  0.66182166200E+02  0.00000000000E+00 0.  1.
          1   -1    0    0  502    0  0.00000000000E+00 -0.00000000000E+00 -0.25035153634E+03  0.25035153634E+03  0.00000000000E+00 0. -1.
        -24    2    1    2    0    0  0.12193340140E+02 -0.69203014251E+02 -0.24554302698E+02  0.11031483169E+03  0.81416912152E+02 0.  0.
         23    2    1    2    0    0 -0.21491943533E+02  0.27788184183E+02 -0.81726090452E+02  0.11751517921E+03  0.76789170243E+02 0.  0.
         13    1    3    3    0    0  0.19112043673E+02 -0.58020781863E+02 -0.51779778838E+02  0.80080127609E+02  0.00000000000E+00 0. -1.
        -14    1    3    3    0    0 -0.69187035322E+01 -0.11182232389E+02  0.27225476140E+02  0.30234704080E+02  0.00000000000E+00 0.  1.
        -13    1    4    4    0    0 -0.21429646537E+02 -0.24266428581E+02 -0.30285941671E+02  0.44332015177E+02  0.00000000000E+00 0.  1.
         13    1    4    4    0    0 -0.62296996274E-01  0.52054612764E+02 -0.51440148781E+02  0.73183164030E+02  0.00000000000E+00 0. -1.
         21    1    1    2  502  501  0.92986033928E+01  0.41414830068E+02 -0.77888976990E+02  0.88703691643E+02  0.00000000000E+00 0. -1.
<scales pt_clust_5="13000.00000" pt_clust_6="13000.00000" pt_clust_7="13000.00000" pt_clust_8="13000.00000" pt_clust_9="42.44587"></scales>
<clustering>
<clus scale="   42.446">  2  9  1 -1</clus>
<clus scale="   76.789">  7  8 -1 -1</clus>
<clus scale="   81.417">  5  6 -1 -1</clus>
<clus scale="   94.369">  2  7  1 -1</clus>
<clus scale="   42.446">  2  5  1 -1</clus>
</clustering>
</event>
<event>
 9    1  0.1973774E-005  0.1061496E+03  0.7546771E-02  0.1272780E+00
         -2   -1    0    0    0  501 -0.00000000000E+00  0.00000000000E+00  0.51264337170E+02  0.51264337170E+02  0.00000000000E+00 0.  1.
          1   -1    0    0  502    0  0.00000000000E+00 -0.00000000000E+00 -0.51692992279E+03  0.51692992279E+03  0.00000000000E+00 0. -1.
        -24    2    1    2    0    0  0.28049847407E+02  0.64798661764E+02 -0.36240397976E+02  0.11122390465E+03  0.77921306552E+02 0.  0.
         23    2    1    2    0    0 -0.15746880156E+02 -0.17423354492E+02 -0.17602102066E+03  0.19888228005E+03  0.89550120544E+02 0.  0.
         11    1    3    3    0    0  0.10907565069E+02  0.37767844758E+02 -0.59741076859E+02  0.71514902906E+02  0.00000000000E+00 0. -1.
        -12    1    3    3    0    0  0.17142282338E+02  0.27030817006E+02  0.23500678883E+02  0.39709001747E+02  0.00000000000E+00 0.  1.
        -11    1    4    4    0    0  0.21871696079E+02  0.13416523796E+02 -0.13011136420E+02  0.28769147903E+02  0.00000000000E+00 0. -1.
         11    1    4    4    0    0 -0.37618576235E+02 -0.30839878288E+02 -0.16300988424E+03  0.17011313215E+03  0.00000000000E+00 0.  1.
         21    1    1    2  502  501 -0.12302967251E+02 -0.47375307271E+02 -0.25340416699E+03  0.25808807526E+03  0.00000000000E+00 0. -1.
<scales pt_clust_5="13000.00000" pt_clust_6="13000.00000" pt_clust_7="13000.00000" pt_clust_8="13000.00000" pt_clust_9="48.94673"></scales>
<clustering>
<clus scale="   48.947">  2  9  1 -1</clus>
<clus scale="   77.921">  5  6 -1 -1</clus>
<clus scale="   89.550">  7  8 -1 -1</clus>
<clus scale="   96.541">  1  5  2 -1</clus>
<clus scale="   48.947">  2  5  1 -1</clus>
</clustering>
</event>
<event>
 9    1  0.2109948E-005  0.1243831E+03  0.7546771E-02  0.1236058E+00
          1   -1    0    0  502    0  0.00000000000E+00  0.00000000000E+00  0.19016233232E+03  0.19016233232E+03  0.00000000000E+00 0. -1.
         -2   -1    0    0    0  501 -0.00000000000E+00 -0.00000000000E+00 -0.36093899970E+03  0.36093899970E+03  0.00000000000E+00 0.  1.
        -24    2    1    2    0    0  0.60647981747E+02 -0.18056640435E+02 -0.29909212025E+03  0.31623545881E+03  0.80898387260E+02 0.  0.
         23    2    1    2    0    0 -0.86443458637E+02  0.43663567204E+02  0.14718814492E+03  0.19391102207E+03  0.80982441507E+02 0.  0.
         11    1    3    3    0    0 -0.18362093211E+02 -0.13495378454E+02 -0.51878224588E+02  0.56662526357E+02  0.00000000000E+00 0. -1.
        -12    1    3    3    0    0  0.79010074958E+02 -0.45612619811E+01 -0.24721389566E+03  0.25957293245E+03  0.00000000000E+00 0.  1.
        -13    1    4    4    0    0  0.14274783635E+02  0.15394126408E+02  0.17801959270E+02  0.27525594082E+02  0.00000000000E+00 0.  1.
         13    1    4    4    0    0 -0.10071824227E+03  0.28269440797E+02  0.12938618565E+03  0.16638542799E+03  0.00000000000E+00 0. -1.
         21    1    1    2  502  501  0.25795476890E+02 -0.25606926769E+02 -0.18872692052E+02  0.40954851139E+02  0.00000000000E+00 0.  1.
<scales pt_clust_5="13000.00000" pt_clust_6="13000.00000" pt_clust_7="13000.00000" pt_clust_8="13000.00000" pt_clust_9="36.34723"></scales>
<clustering>
<clus scale="   36.347">  2  9  1 -1</clus>
<clus scale="   80.898">  5  6 -1 -1</clus>
<clus scale="   80.982">  7  8 -1 -1</clus>
<clus scale="  124.328">  2  5  1 -1</clus>
<clus scale="  124.383">  1  5  2 -1</clus>
</clustering>
</event>
<event>
 9    1  0.1973774E-005  0.2435705E+03  0.7546771E-02  0.1118305E+00
          1   -1    0    0  502    0  0.00000000000E+00  0.00000000000E+00  0.35091585045E+03  0.35091585045E+03  0.00000000000E+00 0. -1.
         -2   -1    0    0    0  501 -0.00000000000E+00 -0.00000000000E+00 -0.25358453562E+03  0.25358453562E+03  0.00000000000E+00 0.  1.
        -24    2    1    2    0    0  0.65435166516E+02  0.20340199981E+03 -0.42007471003E+02  0.23052693698E+03  0.75656503402E+02 0.  0.
         23    2    1    2    0    0 -0.29794438253E+02 -0.24825710195E+03  0.54431285593E+02  0.27154530211E+03  0.90855869544E+02 0.  0.
         13    1    3    3    0    0  0.17372219255E+02  0.16260783065E+03 -0.33266724463E+02  0.16688252020E+03  0.00000000000E+00 0. -1.
        -14    1    3    3    0    0  0.48062947260E+02  0.40794169158E+02 -0.87407465402E+01  0.63644416776E+02  0.00000000000E+00 0.  1.
        -11    1    4    4    0    0 -0.47089127116E+02 -0.17009652491E+03  0.70223287663E+02  0.18995137222E+03  0.00000000000E+00 0. -1.
         11    1    4    4    0    0  0.17294688863E+02 -0.78160577041E+02 -0.15792002070E+02  0.81593929895E+02  0.00000000000E+00 0.  1.
         21    1    1    2  502  501 -0.35640728262E+02  0.44855102135E+02  0.84907500238E+02  0.10242814699E+03  0.00000000000E+00 0. -1.
<scales pt_clust_5="13000.00000" pt_clust_6="13000.00000" pt_clust_7="13000.00000" pt_clust_8="13000.00000" pt_clust_9="57.29085"></scales>
<clustering>
<clus scale="   57.291">  1  9  2 -1</clus>
<clus scale="   75.657">  5  6 -1 -1</clus>
<clus scale="   90.856">  7  8 -1 -1</clus>
<clus scale="  238.319">  2  5  1 -1</clus>
<clus scale="   57.291">  1  5  2 -1</clus>
</clustering>
</event>
<event>
 9    1  0.1973774E-005  0.2110466E+03  0.7546771E-02  0.1141074E+00
         -2   -1    0    0    0  501 -0.00000000000E+00  0.00000000000E+00  0.71118320567E+02  0.71118320567E+02  0.00000000000E+00 0.  1.
          1   -1    0    0  502    0  0.00000000000E+00 -0.00000000000E+00 -0.98569398000E+03  0.98569398000E+03  0.00000000000E+00 0. -1.
        -24    2    1    2    0    0  0.46369667155E+02  0.16110440868E+03 -0.13585145849E+03  0.23310054597E+03  0.88178621174E+02 0.  0.
         23    2    1    2    0    0 -0.71893880219E+02 -0.18361819900E+03 -0.74361828024E+03  0.77481613233E+03  0.92127733076E+02 0.  0.
         13    1    3    3    0    0  0.55741244696E+02  0.13072280237E+03 -0.66690260895E+02  0.15698129926E+03  0.00000000000E+00 0. -1.
        -14    1    3    3    0    0 -0.93715775403E+01  0.30381606309E+02 -0.69161197592E+02  0.76119246711E+02  0.00000000000E+00 0.  1.
        -13    1    4    4    0    0 -0.29409110968E+02 -0.72333543485E+02 -0.46929714006E+03  0.47574871833E+03  0.00000000000E+00 0.  1.
         13    1    4    4    0    0 -0.42484769251E+02 -0.11128465552E+03 -0.27432114018E+03  0.29906741401E+03  0.00000000000E+00 0. -1.
         21    1    1    2  502  501  0.25524213063E+02  0.22513790322E+02 -0.35105920702E+02  0.48895622253E+02  0.00000000000E+00 0. -1.
<scales pt_clust_5="13000.00000" pt_clust_6="13000.00000" pt_clust_7="13000.00000" pt_clust_8="13000.00000" pt_clust_9="34.03463"></scales>
<clustering>
<clus scale="   34.035">  1  9  2 -1</clus>
<clus scale="   88.179">  5  6 -1 -1</clus>
<clus scale="   92.128">  7  8 -1 -1</clus>
<clus scale="  209.353">  1  5  2 -1</clus>
<clus scale="  211.047">  2  5  1 -1</clus>
</clustering>
</event>
<event>
 9    1  0.1973774E-005  0.1386950E+03  0.7546771E-02  0.1238147E+00
         -2   -1    0    0    0  501 -0.00000000000E+00  0.00000000000E+00  0.11576724569E+03  0.11576724569E+03  0.00000000000E+00 0.  1.
          1   -1    0    0  502    0  0.00000000000E+00 -0.00000000000E+00 -0.75634174239E+03  0.75634174239E+03  0.00000000000E+00 0. -1.
        -24    2    1    2    0    0 -0.23396659710E+02 -0.46071027943E+02  0.75655798125E+02  0.11449153372E+03  0.68662713337E+02 0.  0.
         23    2    1    2    0    0  0.31231640709E+01 -0.76601559693E+02 -0.30636788462E+03  0.32931058577E+03  0.93309313932E+02 0.  0.
         13    1    3    3    0    0 -0.46177493594E+02 -0.21263133742E+02  0.55391949571E+02  0.75184771386E+02  0.00000000000E+00 0. -1.
        -14    1    3    3    0    0  0.22780833884E+02 -0.24807894200E+02  0.20263848554E+02  0.39306762336E+02  0.00000000000E+00 0.  1.
        -11    1    4    4    0    0 -0.41597725005E+02 -0.59682795682E+02 -0.17544955864E+03  0.18993407923E+03  0.00000000000E+00 0.  1.
         11    1    4    4    0    0  0.44720889075E+02 -0.16918764011E+02 -0.13091832598E+03  0.13937650653E+03  0.00000000000E+00 0. -1.
         21    1    1    2  502  501  0.20273495640E+02  0.12267258764E+03 -0.40986241020E+03  0.42830686858E+03  0.00000000000E+00 0. -1.
<scales pt_clust_5="13000.00000" pt_clust_6="13000.00000" pt_clust_7="13000.00000" pt_clust_8="13000.00000" pt_clust_9="102.61425"></scales>
<clustering>
<clus scale="   68.663">  5  6 -1 -1</clus>
<clus scale="   85.933">  1  5  2 -1</clus>
<clus scale="   93.309">  7  8 -1 -1</clus>
<clus scale="  102.614">  1  9  2 -1</clus>
<clus scale="  138.695">  2  5  1 -1</clus>
</clustering>
</event>
<event>
 9    1  0.1973774E-005  0.9147859E+02  0.7546771E-02  0.1302606E+00
         -2   -1    0    0    0  501 -0.00000000000E+00  0.00000000000E+00  0.23486742430E+03  0.23486742430E+03  0.00000000000E+00 0.  1.
          1   -1    0    0  502    0  0.00000000000E+00 -0.00000000000E+00 -0.36865743510E+03  0.36865743510E+03  0.00000000000E+00 0. -1.
        -24    2    1    2    0    0  0.26332396800E+02 -0.44290568655E+00  0.21352530602E+03  0.23025885380E+03  0.82051765096E+02 0.  0.
         23    2    1    2    0    0 -0.19689394861E+02 -0.30004336316E+02 -0.18353179719E+03  0.20654406546E+03  0.87684650464E+02 0.  0.
         11    1    3    3    0    0 -0.28364889339E+02  0.69464937880E+01  0.97405666188E+02  0.10168915640E+03  0.00000000000E+00 0. -1.
        -12    1    3    3    0    0  0.54697286139E+02 -0.73893994746E+01  0.11611963983E+03  0.12856969740E+03  0.00000000000E+00 0.  1.
        -11    1    4    4    0    0  0.30754775094E+02 -0.22400824832E+02 -0.45064909416E+02  0.58978803014E+02  0.00000000000E+00 0.  1.
         11    1    4    4    0    0 -0.50444169955E+02 -0.76035114833E+01 -0.13846688778E+03  0.14756526244E+03  0.00000000000E+00 0. -1.
         21    1    1    2  502  501 -0.66430019395E+01  0.30447242002E+02 -0.16378351963E+03  0.16672194014E+03  0.00000000000E+00 0. -1.
<scales pt_clust_5="13000.00000" pt_clust_6="13000.00000" pt_clust_7="13000.00000" pt_clust_8="13000.00000" pt_clust_9="31.16350"></scales>
<clustering>
<clus scale="   31.164">  2  9  1 -1</clus>
<clus scale="   82.052">  5  6 -1 -1</clus>
<clus scale="   86.094">  1  5  2 -1</clus>
<clus scale="   87.685">  7  8 -1 -1</clus>
<clus scale="   31.164">  2  5  1 -1</clus>
</clustering>
</event>
<event>
 9    1  0.1973774E-005  0.1709761E+03  0.7546771E-02  0.1200576E+00
          1   -1    0    0  502    0  0.00000000000E+00  0.00000000000E+00  0.63883687556E+03  0.63883687556E+03  0.00000000000E+00 0. -1.
         -2   -1    0    0    0  501 -0.00000000000E+00 -0.00000000000E+00 -0.23559726803E+03  0.23559726803E+03  0.00000000000E+00 0.  1.
        -24    2    1    2    0    0 -0.61065276822E+02  0.77557139748E+01 -0.14944354376E+03  0.18040737715E+03  0.80151917168E+02 0.  0.
         23    2    1    2    0    0 -0.92727619071E+02 -0.54937529155E+01  0.10761767943E+02  0.13070078886E+03  0.91314226162E+02 0.  0.
         11    1    3    3    0    0 -0.69814591781E+02 -0.15644008384E+02 -0.83895037886E+02  0.11025964632E+03  0.00000000000E+00 0. -1.
        -12    1    3    3    0    0  0.87493149587E+01  0.23399722359E+02 -0.65548505873E+02  0.70147730832E+02  0.00000000000E+00 0.  1.
        -11    1    4    4    0    0 -0.80950935943E+02 -0.38937960618E+02 -0.87079064823E+01  0.90249911038E+02  0.00000000000E+00 0.  1.
         11    1    4    4    0    0 -0.11776683129E+02  0.33444207702E+02  0.19469674425E+02  0.40450877822E+02  0.00000000000E+00 0. -1.
         21    1    1    2  502  501  0.15379289589E+03 -0.22619610593E+01  0.54192138334E+03  0.56332597758E+03  0.00000000000E+00 0. -1.
<scales pt_clust_5="13000.00000" pt_clust_6="13000.00000" pt_clust_7="13000.00000" pt_clust_8="13000.00000" pt_clust_9="144.54947"></scales>
<clustering>
<clus scale="   80.152">  5  6 -1 -1</clus>
<clus scale="   91.314">  7  8 -1 -1</clus>
<clus scale="  101.062">  2  5  1 -1</clus>
<clus scale="  144.549">  1  9  2 -1</clus>
<clus scale="  144.549">  1  5  2 -1</clus>
</clustering>
</event>
<event>
 9    1  0.1973774E-005  0.1222242E+03  0.7546771E-02  0.1240264E+00
         -2   -1    0    0    0  501 -0.00000000000E+00  0.00000000000E+00  0.52274136781E+02  0.52274136781E+02  0.00000000000E+00 0.  1.
          1   -1    0    0  502    0  0.00000000000E+00 -0.00000000000E+00 -0.81102654686E+03  0.81102654686E+03  0.00000000000E+00 0. -1.
         23    2    1    2    0    0 -0.69680208889E+02  0.35771754843E+02 -0.63446506336E+02  0.13292237810E+03  0.86648424551E+02 0.  0.
        -24    2    1    2    0    0  0.79526120200E+02 -0.87873289780E+02 -0.32067273235E+03  0.35201138704E+03  0.83874289741E+02 0.  0.
         11    1    4    4    0    0  0.95878920698E+02 -0.71834282966E+02 -0.28965121340E+03  0.31344976801E+03  0.00000000000E+00 0. -1.
        -12    1    4    4    0    0 -0.16352800498E+02 -0.16039006814E+02 -0.31021518948E+02  0.38561619021E+02  0.00000000000E+00 0.  1.
        -11    1    3    3    0    0 -0.58345047645E+02 -0.15662684541E+02 -0.50369337749E+02  0.78654525979E+02  0.00000000000E+00 0.  1.
         11    1    3    3    0    0 -0.11335161245E+02  0.51434439384E+02 -0.13077168587E+02  0.54267852118E+02  0.00000000000E+00 0. -1.
         21    1    1    2  502  501 -0.98459113110E+01  0.52101534937E+02 -0.37463317140E+03  0.37836691851E+03  0.00000000000E+00 0.  1.
<scales pt_clust_5="13000.00000" pt_clust_6="13000.00000" pt_clust_7="13000.00000" pt_clust_8="13000.00000" pt_clust_9="53.02369"></scales>
<clustering>
<clus scale="   53.024">  2  9  1 -1</clus>
<clus scale="   83.874">  5  6 -1 -1</clus>
<clus scale="   86.648">  7  8 -1 -1</clus>
<clus scale="  120.273">  2  5  1 -1</clus>
<clus scale="   53.024">  2  5  1 -1</clus>
</clustering>
</event>
<event>
 9    1  0.1973774E-005  0.1060484E+03  0.7546771E-02  0.1274511E+00
          1   -1    0    0  502    0  0.00000000000E+00  0.00000000000E+00  0.11388964502E+03  0.11388964502E+03  0.00000000000E+00 0. -1.
         -2   -1    0    0    0  501 -0.00000000000E+00 -0.00000000000E+00 -0.25988589068E+03  0.25988589068E+03  0.00000000000E+00 0.  1.
        -24    2    1    2    0    0  0.15646178458E+02 -0.10349338396E+02 -0.18376068859E+03  0.20030233428E+03  0.77466913851E+02 0.  0.
         23    2    1    2    0    0 -0.56155336603E+02  0.15762588510E+02  0.62560413597E+02  0.12567011227E+03  0.92072203970E+02 0.  0.
         11    1    3    3    0    0  0.39496463372E+02 -0.64718172224E+01 -0.48412833001E+02  0.62814468367E+02  0.00000000000E+00 0. -1.
        -12    1    3    3    0    0 -0.23850284914E+02 -0.38775211740E+01 -0.13534785559E+03  0.13748786592E+03  0.00000000000E+00 0.  1.
        -13    1    4    4    0    0 -0.79944367057E+02  0.24553390958E+02  0.47871007997E+02  0.96361840157E+02  0.00000000000E+00 0. -1.
         13    1    4    4    0    0  0.23789030454E+02 -0.87908024475E+01  0.14689405600E+02  0.29308272117E+02  0.00000000000E+00 0.  1.
         21    1    1    2  502  501  0.40509158145E+02 -0.54132501139E+01 -0.24795970666E+02  0.47803089144E+02  0.00000000000E+00 0.  1.
<scales pt_clust_5="13000.00000" pt_clust_6="13000.00000" pt_clust_7="13000.00000" pt_clust_8="13000.00000" pt_clust_9="40.86924"></scales>
<clustering>
<clus scale="   40.869">  2  9  1 -1</clus>
<clus scale="   77.467">  5  6 -1 -1</clus>
<clus scale="   92.072">  7  8 -1 -1</clus>
<clus scale="   93.649">  2  5  1 -1</clus>
<clus scale="  106.048">  1  5  2 -1</clus>
</clustering>
</event>
<event>
 9    1  0.1973774E-005  0.1077235E+03  0.7546771E-02  0.1269411E+00
         -2   -1    0    0    0  501 -0.00000000000E+00  0.00000000000E+00  0.87520474343E+02  0.87520474343E+02  0.00000000000E+00 0.  1.
          1   -1    0    0  502    0  0.00000000000E+00 -0.00000000000E+00 -0.35546473728E+03  0.35546473728E+03  0.00000000000E+00 0. -1.
        -24    2    1    2    0    0 -0.60742118378E+02  0.12151236809E+02  0.38358175331E+02  0.10803049935E+03  0.79762031535E+02 0.  0.
         23    2    1    2    0    0  0.36199041377E+02  0.13210589662E+02 -0.20124738969E+03  0.22412985900E+03  0.90822858151E+02 0.  0.
         13    1    3    3    0    0 -0.10047976261E+02  0.29883141409E+02 -0.12642054748E+02  0.33967418443E+02  0.00000000000E+00 0. -1.
        -14    1    3    3    0    0 -0.50694142117E+02 -0.17731904600E+02  0.51000230079E+02  0.74063080910E+02  0.00000000000E+00 0.  1.
        -11    1    4    4    0    0  0.11304421390E+02 -0.25366083120E+02 -0.13552731201E+02  0.30901531335E+02  0.00000000000E+00 0.  1.
         11    1    4    4    0    0  0.24894619986E+02  0.38576672782E+02 -0.18769465849E+03  0.19322832766E+03  0.00000000000E+00 0. -1.
         21    1    1    2  502  501  0.24543077001E+02 -0.25361826472E+02 -0.10505504858E+03  0.11082485328E+03  0.00000000000E+00 0. -1.
<scales pt_clust_5="13000.00000" pt_clust_6="13000.00000" pt_clust_7="13000.00000" pt_clust_8="13000.00000" pt_clust_9="35.29284"></scales>
<clustering>
<clus scale="   35.293">  2  9  1 -1</clus>
<clus scale="   79.762">  5  6 -1 -1</clus>
<clus scale="   90.823">  7  8 -1 -1</clus>
<clus scale="   98.578">  1  5  2 -1</clus>
<clus scale="   35.293">  2  5  1 -1</clus>
</clustering>
</event>
<event>
 9    1  0.1973774E-005  0.1109143E+03  0.7546771E-02  0.1269936E+00
          1   -1    0    0  502    0  0.00000000000E+00  0.00000000000E+00  0.51848059398E+02  0.51848059398E+02  0.00000000000E+00 0. -1.
         -2   -1    0    0    0  501 -0.00000000000E+00 -0.00000000000E+00 -0.32353885063E+03  0.32353885063E+03  0.00000000000E+00 0.  1.
         23    2    1    2    0    0 -0.51942857592E+02  0.69270256333E+02 -0.11900028644E+03  0.17297448648E+03  0.90899262561E+02 0.  0.
        -24    2    1    2    0    0  0.47463614833E+02 -0.17440833869E+02 -0.97784416645E+02  0.12677492514E+03  0.62873779016E+02 0.  0.
         13    1    4    4    0    0 -0.12238924874E+02 -0.16494390840E+02 -0.31037217430E+02  0.37217805914E+02  0.00000000000E+00 0. -1.
        -14    1    4    4    0    0  0.59702539707E+02 -0.94644302901E+00 -0.66747199215E+02  0.89557119231E+02  0.00000000000E+00 0.  1.
        -13    1    3    3    0    0 -0.68150248250E+02  0.29207829237E+02 -0.10295562220E+03  0.12687558381E+03  0.00000000000E+00 0.  1.
         13    1    3    3    0    0  0.16207390659E+02  0.40062427095E+02 -0.16044664238E+02  0.46098902669E+02  0.00000000000E+00 0. -1.
         21    1    1    2  502  501  0.44792427587E+01 -0.51829422464E+02 -0.54906088148E+02  0.75637498401E+02  0.00000000000E+00 0.  1.
<scales pt_clust_5="13000.00000" pt_clust_6="13000.00000" pt_clust_7="13000.00000" pt_clust_8="13000.00000" pt_clust_9="52.02262"></scales>
<clustering>
<clus scale="   52.023">  2  9  1 -1</clus>
<clus scale="   62.874">  5  6 -1 -1</clus>
<clus scale="   89.400">  1  5  2 -1</clus>
<clus scale="   90.899">  7  8 -1 -1</clus>
<clus scale="   89.400">  1  5  2 -1</clus>
</clustering>
</event>
<event>
 9    1  0.1973774E-005  0.1014297E+03  0.7546771E-02  0.1284387E+00
         -2   -1    0    0    0  501 -0.00000000000E+00  0.00000000000E+00  0.22329810400E+03  0.22329810400E+03  0.00000000000E+00 0.  1.
          1   -1    0    0  502    0  0.00000000000E+00 -0.00000000000E+00 -0.10670346722E+03  0.10670346722E+03  0.00000000000E+00 0. -1.
         23    2    1    2    0    0  0.49680723026E+02  0.16622139253E+02  0.14467267698E+03  0.17931873018E+03  0.92089922224E+02 0.  0.
        -24    2    1    2    0    0 -0.26010208703E+02  0.28820669415E+02  0.90038739975E+01  0.87434042883E+02  0.77823390864E+02 0.  0.
         13    1    4    4    0    0 -0.48996863230E+02  0.35131101981E+02 -0.37367236153E+01  0.60405711950E+02  0.00000000000E+00 0. -1.
        -14    1    4    4    0    0  0.22986654527E+02 -0.63104325654E+01  0.12740597613E+02  0.27028330933E+02  0.00000000000E+00 0.  1.
        -13    1    3    3    0    0  0.67702799686E+02  0.27071923918E+02  0.67424373687E+02  0.99310645537E+02  0.00000000000E+00 0. -1.
         13    1    3    3    0    0 -0.18022076660E+02 -0.10449784665E+02  0.77248303292E+02  0.80008084643E+02  0.00000000000E+00 0.  1.
         21    1    1    2  502  501 -0.23670514323E+02 -0.45442808669E+02 -0.37081914200E+02  0.63248798160E+02  0.00000000000E+00 0. -1.
<scales pt_clust_5="13000.00000" pt_clust_6="13000.00000" pt_clust_7="13000.00000" pt_clust_8="13000.00000" pt_clust_9="51.23809"></scales>
<clustering>
<clus scale="   51.238">  2  9  1 -1</clus>
<clus scale="   77.823">  5  6 -1 -1</clus>
<clus scale="   88.679">  2  5  1 -1</clus>
<clus scale="   92.090">  7  8 -1 -1</clus>
<clus scale="   51.238">  2  5  1 -1</clus>
</clustering>
</event>
<event>
 9    1  0.1973774E-005  0.2290139E+03  0.7546771E-02  0.1182146E+00
         -2   -1    0    0    0  501 -0.00000000000E+00  0.00000000000E+00  0.20176384339E+03  0.20176384339E+03  0.00000000000E+00 0.  1.
          1   -1    0    0  502    0  0.00000000000E+00 -0.00000000000E+00 -0.58047212859E+03  0.58047212859E+03  0.00000000000E+00 0. -1.
        -24    2    1    2    0    0  0.21655635219E+02  0.62992951033E+01  0.10314713454E+03  0.12093369928E+03  0.58965927476E+02 0.  0.
         23    2    1    2    0    0 -0.21634592086E+03  0.26876700735E+02 -0.35487548560E+03  0.42650691990E+03  0.91889215497E+02 0.  0.
         11    1    3    3    0    0  0.67268820675E+01 -0.25786911544E+02  0.55651915162E+02  0.61703739032E+02  0.00000000000E+00 0. -1.
        -12    1    3    3    0    0  0.14928753151E+02  0.32086206647E+02  0.47495219378E+02  0.59229960252E+02  0.00000000000E+00 0.  1.
        -11    1    4    4    0    0 -0.13534753165E+03 -0.19621268163E+02 -0.25760344177E+03  0.29165644464E+03  0.00000000000E+00 0. -1.
         11    1    4    4    0    0 -0.80998389208E+02  0.46497968897E+02 -0.97272043829E+02  0.13485047525E+03  0.00000000000E+00 0.  1.
         21    1    1    2  502  501  0.19469028564E+03 -0.33175995838E+02 -0.12697993414E+03  0.23479535280E+03  0.00000000000E+00 0.  1.
<scales pt_clust_5="13000.00000" pt_clust_6="13000.00000" pt_clust_7="13000.00000" pt_clust_8="13000.00000" pt_clust_9="209.77067"></scales>
<clustering>
<clus scale="   58.966">  5  6 -1 -1</clus>
<clus scale="   63.132">  1  5  2 -1</clus>
<clus scale="   91.889">  7  8 -1 -1</clus>
<clus scale="  209.771">  1  9  2 -1</clus>
<clus scale="  229.014">  2  5  1 -1</clus>
</clustering>
</event>
<event>
 9    1  0.1973774E-005  0.9973480E+02  0.7546771E-02  0.1286929E+00
          1   -1    0    0  502    0  0.00000000000E+00  0.00000000000E+00  0.16320826109E+03  0.16320826109E+03  0.00000000000E+00 0. -1.
         -2   -1    0    0    0  501 -0.00000000000E+00 -0.00000000000E+00 -0.12431417690E+03  0.12431417690E+03  0.00000000000E+00 0.  1.
        -24    2    1    2    0    0 -0.28736972216E+02  0.41582012528E+02 -0.53963130950E+02  0.10908673699E+03  0.80206105417E+02 0.  0.
         23    2    1    2    0    0 -0.12383391946E+02 -0.28257338128E+01  0.74228913357E+02  0.11893824631E+03  0.92059989622E+02 0.  0.
         11    1    3    3    0    0 -0.19437621749E+02  0.26388669081E+02  0.16297483965E+02  0.36603155310E+02  0.00000000000E+00 0. -1.
        -12    1    3    3    0    0 -0.92993504672E+01  0.15193343447E+02 -0.70260614915E+02  0.72483581675E+02  0.00000000000E+00 0.  1.
        -13    1    4    4    0    0 -0.27457210913E+02  0.37440194660E+02  0.54608273893E+02  0.71677961640E+02  0.00000000000E+00 0.  1.
         13    1    4    4    0    0  0.15073818967E+02 -0.40265928473E+02  0.19620639464E+02  0.47260284669E+02  0.00000000000E+00 0. -1.
         21    1    1    2  502  501  0.41120364161E+02 -0.38756278715E+02  0.18628301784E+02  0.59497454701E+02  0.00000000000E+00 0. -1.
<scales pt_clust_5="13000.00000" pt_clust_6="13000.00000" pt_clust_7="13000.00000" pt_clust_8="13000.00000" pt_clust_9="56.50605"></scales>
<clustering>
<clus scale="   56.506">  1  9  2 -1</clus>
<clus scale="   80.206">  5  6 -1 -1</clus>
<clus scale="   88.910">  2  5  1 -1</clus>
<clus scale="   92.060">  7  8 -1 -1</clus>
<clus scale="   56.506">  1  5  2 -1</clus>
</clustering>
</event>
<event>
 9    1  0.1973774E-005  0.1041272E+03  0.7546771E-02  0.1277336E+00
         -2   -1    0    0    0  501 -0.00000000000E+00  0.00000000000E+00  0.45693904849E+03  0.45693904849E+03  0.00000000000E+00 0.  1.
          1   -1    0    0  502    0  0.00000000000E+00 -0.00000000000E+00 -0.15415863963E+03  0.15415863963E+03  0.00000000000E+00 0. -1.
        -24    2    1    2    0    0  0.61755853314E+01 -0.46559983972E+02  0.42476335871E+03  0.43506202192E+03  0.81541903661E+02 0.  0.
         23    2    1    2    0    0 -0.16646408150E+02  0.29364917077E+02 -0.73358396452E+02  0.12340814823E+03  0.93320498604E+02 0.  0.
         11    1    3    3    0    0  0.42308370097E+02 -0.12393288088E+02  0.21661459254E+03  0.22105536291E+03  0.00000000000E+00 0. -1.
        -12    1    3    3    0    0 -0.36132784766E+02 -0.34166695884E+02  0.20814876617E+03  0.21400665901E+03  0.00000000000E+00 0.  1.
        -13    1    4    4    0    0 -0.50536955457E+02 -0.49439356996E+01 -0.33384354851E+02  0.60769577223E+02  0.00000000000E+00 0.  1.
         13    1    4    4    0    0  0.33890547306E+02  0.34308852776E+02 -0.39974041600E+02  0.62638571004E+02  0.00000000000E+00 0. -1.
         21    1    1    2  502  501  0.10470822819E+02  0.17195066895E+02 -0.48624553391E+02  0.52627517978E+02  0.00000000000E+00 0. -1.
<scales pt_clust_5="13000.00000" pt_clust_6="13000.00000" pt_clust_7="13000.00000" pt_clust_8="13000.00000" pt_clust_9="20.13227"></scales>
<clustering>
<clus scale="   20.132">  2  9  1 -1</clus>
<clus scale="   81.542">  5  6 -1 -1</clus>
<clus scale="   93.320">  7  8 -1 -1</clus>
<clus scale="   93.717">  1  5  2 -1</clus>
<clus scale="   20.132">  2  5  1 -1</clus>
</clustering>
</event>
<event>
 9    1  0.1973774E-005  0.1304181E+03  0.7546771E-02  0.1229144E+00
         -4   -1    0    0    0  501 -0.00000000000E+00  0.00000000000E+00  0.13966809241E+03  0.13966809241E+03  0.00000000000E+00 0.  1.
          3   -1    0    0  502    0  0.00000000000E+00 -0.00000000000E+00 -0.77348883613E+03  0.77348883613E+03  0.00000000000E+00 0. -1.
         23    2    1    2    0    0  0.52245696437E+02 -0.75770898653E+02  0.99220042022E+02  0.16499521112E+03  0.94381995506E+02 0.  0.
        -24    2    1    2    0    0 -0.11531840791E+02  0.59455465151E+02 -0.55063495279E+03  0.56055654876E+03  0.85772125041E+02 0.  0.
         11    1    4    4    0    0  0.10678107437E+02  0.75992488776E+02 -0.37745128269E+03  0.38517314435E+03  0.00000000000E+00 0. -1.
        -12    1    4    4    0    0 -0.22209948228E+02 -0.16537023625E+02 -0.17318367010E+03  0.17538340440E+03  0.00000000000E+00 0.  1.
        -13    1    3    3    0    0  0.32500824730E+02  0.61734697855E+01  0.67065002038E+02  0.74780544500E+02  0.00000000000E+00 0. -1.
         13    1    3    3    0    0  0.19744871707E+02 -0.81944368438E+02  0.32155039984E+02  0.90214666623E+02  0.00000000000E+00 0.  1.
         21    1    1    2  502  501 -0.40713855646E+02  0.16315433502E+02 -0.18240583296E+03  0.18760516866E+03  0.00000000000E+00 0. -1.
<scales pt_clust_5="13000.00000" pt_clust_6="13000.00000" pt_clust_7="13000.00000" pt_clust_8="13000.00000" pt_clust_9="43.86127"></scales>
<clustering>
<clus scale="   43.861">  2  9  1 -1</clus>
<clus scale="   85.772">  5  6 -1 -1</clus>
<clus scale="   94.382">  7  8 -1 -1</clus>
<clus scale="  124.329">  2  5  1 -1</clus>
<clus scale="   43.861">  2  5  1 -1</clus>
</clustering>
</event>
<event>
 9    1  0.1973774E-005  0.1071553E+03  0.7546771E-02  0.1271142E+00
         -4   -1    0    0    0  501 -0.00000000000E+00  0.00000000000E+00  0.37200206997E+03  0.37200206997E+03  0.00000000000E+00 0.  1.
          3   -1    0    0  502    0  0.00000000000E+00 -0.00000000000E+00 -0.55871605611E+02  0.55871605611E+02  0.00000000000E+00 0. -1.
        -24    2    1    2    0    0 -0.48592528034E+02  0.23872364026E+02  0.27466341823E+03  0.29115492891E+03  0.80000473553E+02 0.  0.
         23    2    1    2    0    0  0.59174299175E+02 -0.68714099912E+01  0.39227619710E+02  0.11656877523E+03  0.92199019799E+02 0.  0.
         13    1    3    3    0    0  0.34308312975E+01 -0.22842932134E+02  0.38892848491E+02  0.45235205489E+02  0.00000000000E+00 0. -1.
        -14    1    3    3    0    0 -0.52023359332E+02  0.46715296160E+02  0.23577056974E+03  0.24591972342E+03  0.00000000000E+00 0.  1.
        -13    1    4    4    0    0  0.70100333040E+02  0.24249972053E+02  0.38510501786E+02  0.83577368855E+02  0.00000000000E+00 0.  1.
         13    1    4    4    0    0 -0.10926033865E+02 -0.31121382045E+02  0.71711792391E+00  0.32991406373E+02  0.00000000000E+00 0. -1.
         21    1    1    2  502  501 -0.10581771141E+02 -0.17000954035E+02  0.22394264203E+01  0.20149971446E+02  0.00000000000E+00 0. -1.
<scales pt_clust_5="13000.00000" pt_clust_6="13000.00000" pt_clust_7="13000.00000" pt_clust_8="13000.00000" pt_clust_9="20.02514"></scales>
<clustering>
<clus scale="   20.025">  2  9  1 -1</clus>
<clus scale="   80.000">  5  6 -1 -1</clus>
<clus scale="   92.199">  7  8 -1 -1</clus>
<clus scale="   96.859">  1  5  2 -1</clus>
<clus scale="   20.025">  2  5  1 -1</clus>
</clustering>
</event>
<event>
 9    1  0.1973774E-005  0.2410211E+03  0.7546771E-02  0.1119882E+00
         -4   -1    0    0    0  501 -0.00000000000E+00  0.00000000000E+00  0.12022953196E+04  0.12022953196E+04  0.00000000000E+00 0.  1.
          3   -1    0    0  502    0  0.00000000000E+00 -0.00000000000E+00 -0.11641023499E+03  0.11641023499E+03  0.00000000000E+00 0. -1.
         23    2    1    2    0    0  0.22262910617E+03  0.23201372471E+02  0.81369267837E+03  0.84908424818E+03  0.93521457795E+02 0.  0.
        -24    2    1    2    0    0 -0.21961019497E+03  0.34771646021E+01  0.33074746855E+03  0.40520427849E+03  0.80968456460E+02 0.  0.
         13    1    4    4    0    0 -0.61628585849E+02  0.19869498046E+01  0.37673576242E+02  0.72258763552E+02  0.00000000000E+00 0. -1.
        -14    1    4    4    0    0 -0.15798160912E+03  0.14902147975E+01  0.29307389231E+03  0.33294551493E+03  0.00000000000E+00 0.  1.
        -11    1    3    3    0    0  0.16016152190E+03 -0.23246813678E+02  0.60746538529E+03  0.62865437386E+03  0.00000000000E+00 0.  1.
         11    1    3    3    0    0  0.62467584270E+02  0.46448186149E+02  0.20622729308E+03  0.22042987432E+03  0.00000000000E+00 0. -1.
         21    1    1    2  502  501 -0.30189112065E+01 -0.26678537073E+02 -0.58555062314E+02  0.64417027934E+02  0.00000000000E+00 0. -1.
<scales pt_clust_5="13000.00000" pt_clust_6="13000.00000" pt_clust_7="13000.00000" pt_clust_8="13000.00000" pt_clust_9="26.84880"></scales>
<clustering>
<clus scale="   26.849">  2  9  1 -1</clus>
<clus scale="   80.968">  5  6 -1 -1</clus>
<clus scale="   93.521">  7  8 -1 -1</clus>
<clus scale="  236.434">  2  5  1 -1</clus>
<clus scale="   26.849">  2  5  1 -1</clus>
</clustering>
</event>
<event>
 9    1  0.1973774E-005  0.2111672E+03  0.7546771E-02  0.1141444E+00
         -2   -1    0    0    0  501 -0.00000000000E+00  0.00000000000E+00  0.37134058164E+03  0.37134058164E+03  0.00000000000E+00 0.  1.
          1   -1    0    0  502    0  0.00000000000E+00 -0.00000000000E+00 -0.15459024713E+03  0.15459024713E+03  0.00000000000E+00 0. -1.
        -24    2    1    2    0    0 -0.16857880010E+03 -0.75824929528E+02  0.18258271996E+03  0.27221888358E+03  0.81230777218E+02 0.  0.
         23    2    1    2    0    0  0.19289943845E+03  0.63710909285E+02  0.39348705857E+02  0.22605174556E+03  0.91004382858E+02 0.  0.
         11    1    3    3    0    0 -0.37960793216E+02 -0.23723652408E+02  0.40406567363E+01  0.44946194633E+02  0.00000000000E+00 0. -1.
        -12    1    3    3    0    0 -0.13061800689E+03 -0.52101277120E+02  0.17854206323E+03  0.22727268895E+03  0.00000000000E+00 0.  1.
        -13    1    4    4    0    0  0.11973658741E+03  0.84334197254E+02  0.22210369651E+02  0.14812969895E+03  0.00000000000E+00 0. -1.
         13    1    4    4    0    0  0.73162851045E+02 -0.20623287970E+02  0.17138336206E+02  0.77922046608E+02  0.00000000000E+00 0.  1.
         21    1    1    2  502  501 -0.24320638354E+02  0.12114020243E+02 -0.51810913129E+01  0.27660199631E+02  0.00000000000E+00 0. -1.
<scales pt_clust_5="13000.00000" pt_clust_6="13000.00000" pt_clust_7="13000.00000" pt_clust_8="13000.00000" pt_clust_9="27.17063"></scales>
<clustering>
<clus scale="   27.171">  2  9  1 -1</clus>
<clus scale="   81.231">  5  6 -1 -1</clus>
<clus scale="   91.004">  7  8 -1 -1</clus>
<clus scale="  207.143">  1  5  2 -1</clus>
<clus scale="   27.171">  2  5  1 -1</clus>
</clustering>
</event>
<event>
 9    1  0.1973774E-005  0.1231488E+03  0.7546771E-02  0.1240267E+00
          1   -1    0    0  502    0  0.00000000000E+00  0.00000000000E+00  0.22610627918E+03  0.22610627918E+03  0.00000000000E+00 0. -1.
         -2   -1    0    0    0  501 -0.00000000000E+00 -0.00000000000E+00 -0.13331729151E+03  0.13331729151E+03  0.00000000000E+00 0.  1.
         23    2    1    2    0    0 -0.59841382117E+02 -0.60456576392E+02 -0.66239678925E+02  0.14153550587E+03  0.91698504433E+02 0.  0.
        -24    2    1    2    0    0  0.71245583088E+02  0.40890011206E+02  0.15556550031E+03  0.19497737313E+03  0.84069168078E+02 0.  0.
         13    1    4    4    0    0  0.48473160798E+02  0.54746093333E+02  0.15121710525E+03  0.16796843446E+03  0.00000000000E+00 0. -1.
        -14    1    4    4    0    0  0.22772422291E+02 -0.13856082127E+02  0.43483950579E+01  0.27008938677E+02  0.00000000000E+00 0.  1.
        -13    1    3    3    0    0 -0.81809670970E+02 -0.35749064053E+02 -0.60833467621E+02  0.10803484914E+03  0.00000000000E+00 0.  1.
         13    1    3    3    0    0  0.21968288852E+02 -0.24707512339E+02 -0.54062113047E+01  0.33500656736E+02  0.00000000000E+00 0. -1.
         21    1    1    2  502  501 -0.11404200971E+02  0.19566565186E+02  0.34631662887E+01  0.22910691690E+02  0.00000000000E+00 0.  1.
<scales pt_clust_5="13000.00000" pt_clust_6="13000.00000" pt_clust_7="13000.00000" pt_clust_8="13000.00000" pt_clust_9="22.64743"></scales>
<clustering>
<clus scale="   22.647">  2  9  1 -1</clus>
<clus scale="   84.069">  5  6 -1 -1</clus>
<clus scale="   91.699">  7  8 -1 -1</clus>
<clus scale="  117.578">  1  5  2 -1</clus>
<clus scale="  117.578">  1  5  2 -1</clus>
</clustering>
</event>
<event>
 9    1  0.1973774E-005  0.1670031E+03  0.7546771E-02  0.1184755E+00
         -2   -1    0    0    0  501 -0.00000000000E+00  0.00000000000E+00  0.61894882112E+03  0.61894882112E+03  0.00000000000E+00 0.  1.
          1   -1    0    0  502    0  0.00000000000E+00 -0.00000000000E+00 -0.20615712264E+03  0.20615712264E+03  0.00000000000E+00 0. -1.
         23    2    1    2    0    0 -0.81300251511E+01 -0.13622194346E+03  0.56251046755E+03  0.58674607154E+03  0.96075028872E+02 0.  0.
        -24    2    1    2    0    0 -0.19370696377E+02  0.13961017214E+03 -0.12230901060E+03  0.19938469247E+03  0.70203543169E+02 0.  0.
         11    1    4    4    0    0  0.26581146987E+02  0.54691264192E+02 -0.50744799670E+02  0.79200545753E+02  0.00000000000E+00 0. -1.
        -12    1    4    4    0    0 -0.45951843363E+02  0.84918907948E+02 -0.71564210934E+02  0.12018414672E+03  0.00000000000E+00 0.  1.
        -11    1    3    3    0    0  0.31680060410E+02 -0.10883501823E+03  0.32038146757E+03  0.33984256970E+03  0.00000000000E+00 0. -1.
         11    1    3    3    0    0 -0.39810085561E+02 -0.27386925224E+02  0.24212899998E+03  0.24690350183E+03  0.00000000000E+00 0.  1.
         21    1    1    2  502  501  0.27500721528E+02 -0.33882286823E+01 -0.27409758464E+02  0.38975179758E+02  0.00000000000E+00 0. -1.
<scales pt_clust_5="13000.00000" pt_clust_6="13000.00000" pt_clust_7="13000.00000" pt_clust_8="13000.00000" pt_clust_9="27.70866"></scales>
<clustering>
<clus scale="   27.709">  2  9  1 -1</clus>
<clus scale="   70.204">  5  6 -1 -1</clus>
<clus scale="   96.075">  7  8 -1 -1</clus>
<clus scale="  153.584">  2  5  1 -1</clus>
<clus scale="   27.709">  2  5  1 -1</clus>
</clustering>
</event>
<event>
 9    1  0.1973774E-005  0.9894528E+02  0.7546771E-02  0.1287390E+00
          1   -1    0    0  502    0  0.00000000000E+00  0.00000000000E+00  0.32857397360E+03  0.32857397360E+03  0.00000000000E+00 0. -1.
         -2   -1    0    0    0  501 -0.00000000000E+00 -0.00000000000E+00 -0.83106351103E+02  0.83106351103E+02  0.00000000000E+00 0.  1.
         23    2    1    2    0    0 -0.22365040903E+02  0.10053788265E+02 -0.10022432935E+02  0.95127381891E+02  0.91364631616E+02 0.  0.
        -24    2    1    2    0    0  0.75605317932E+02 -0.15021688524E+02  0.94432111632E+02  0.14685064939E+03  0.81889402817E+02 0.  0.
         11    1    4    4    0    0  0.72162931365E+02 -0.41352319457E+02  0.56499750797E+02  0.10054712740E+03  0.00000000000E+00 0. -1.
        -12    1    4    4    0    0  0.34423865668E+01  0.26330630933E+02  0.37932360834E+02  0.46303521994E+02  0.00000000000E+00 0.  1.
        -13    1    3    3    0    0 -0.37792764827E+02  0.38065626055E+02 -0.25737441099E+02  0.59495384986E+02  0.00000000000E+00 0.  1.
         13    1    3    3    0    0  0.15427723924E+02 -0.28011837790E+02  0.15715008164E+02  0.35631996905E+02  0.00000000000E+00 0. -1.
         21    1    1    2  502  501 -0.53240277029E+02  0.49679002583E+01  0.16105794380E+03  0.16970229342E+03  0.00000000000E+00 0.  1.
<scales pt_clust_5="13000.00000" pt_clust_6="13000.00000" pt_clust_7="13000.00000" pt_clust_8="13000.00000" pt_clust_9="53.47155"></scales>
<clustering>
<clus scale="   53.472">  1  9  2 -1</clus>
<clus scale="   81.889">  5  6 -1 -1</clus>
<clus scale="   90.269">  1  5  2 -1</clus>
<clus scale="   91.365">  7  8 -1 -1</clus>
<clus scale="   53.472">  1  5  2 -1</clus>
</clustering>
</event>
<event>
 9    1  0.1973774E-005  0.9725607E+02  0.7546771E-02  0.1292139E+00
         -2   -1    0    0    0  501 -0.00000000000E+00  0.00000000000E+00  0.53058171850E+03  0.53058171850E+03  0.00000000000E+00 0.  1.
          1   -1    0    0  502    0  0.00000000000E+00 -0.00000000000E+00 -0.39592291974E+02  0.39592291974E+02  0.00000000000E+00 0. -1.
         23    2    1    2    0    0 -0.24869038924E+02  0.53607508713E+00  0.39547486283E+03  0.40652435236E+03  0.90790558187E+02 0.  0.
        -24    2    1    2    0    0  0.18448552399E+02 -0.33696166218E+02  0.36556648491E+02  0.95702251570E+02  0.79666503019E+02 0.  0.
         11    1    4    4    0    0  0.19942405269E+02 -0.22374251181E+01 -0.21650925869E+02  0.29520640069E+02  0.00000000000E+00 0. -1.
        -12    1    4    4    0    0 -0.14938528698E+01 -0.31458741100E+02  0.58207574360E+02  0.66181611501E+02  0.00000000000E+00 0.  1.
        -13    1    3    3    0    0 -0.50885886717E+02 -0.22646122487E+02  0.18563053696E+03  0.19380638942E+03  0.00000000000E+00 0.  1.
         13    1    3    3    0    0  0.26016847793E+02  0.23182197574E+02  0.20984432587E+03  0.21271796293E+03  0.00000000000E+00 0. -1.
         21    1    1    2  502  501  0.64204865248E+01  0.33160091131E+02  0.58957915201E+02  0.67947406543E+02  0.00000000000E+00 0. -1.
<scales pt_clust_5="13000.00000" pt_clust_6="13000.00000" pt_clust_7="13000.00000" pt_clust_8="13000.00000" pt_clust_9="33.77594"></scales>
<clustering>
<clus scale="   33.776">  1  9  2 -1</clus>
<clus scale="   79.667">  5  6 -1 -1</clus>
<clus scale="   86.963">  2  5  1 -1</clus>
<clus scale="   90.791">  7  8 -1 -1</clus>
<clus scale="   86.963">  2  5  1 -1</clus>
</clustering>
</event>
<event>
 9    1  0.1973774E-005  0.1147851E+03  0.7546771E-02  0.1255855E+00
          1   -1    0    0  502    0  0.00000000000E+00  0.00000000000E+00  0.16203735225E+03  0.16203735225E+03  0.00000000000E+00 0. -1.
         -2   -1    0    0    0  501 -0.00000000000E+00 -0.00000000000E+00 -0.41744094005E+03  0.41744094005E+03  0.00000000000E+00 0.  1.
        -24    2    1    2    0    0  0.63744006263E+02 -0.21128042773E+02 -0.35455014676E+03  0.36996469229E+03  0.81598863019E+02 0.  0.
         23    2    1    2    0    0 -0.58163611641E+02  0.71930510845E+02  0.54628318646E+02  0.14173524590E+03  0.92453353762E+02 0.  0.
         13    1    3    3    0    0  0.12239258900E+02 -0.40437967707E+02 -0.22942652342E+03  0.23328428652E+03  0.00000000000E+00 0. -1.
        -14    1    3    3    0    0  0.51504747363E+02  0.19309924934E+02 -0.12512362334E+03  0.13668040577E+03  0.00000000000E+00 0.  1.
        -11    1    4    4    0    0 -0.51072693933E+02 -0.67477159553E+01  0.26044940834E+02  0.57725996564E+02  0.00000000000E+00 0. -1.
         11    1    4    4    0    0 -0.70909177074E+01  0.78678226800E+02  0.28583377812E+02  0.84009249333E+02  0.00000000000E+00 0.  1.
         21    1    1    2  502  501 -0.55803946223E+01 -0.50802468071E+02  0.44518240317E+02  0.67778354120E+02  0.00000000000E+00 0. -1.
<scales pt_clust_5="13000.00000" pt_clust_6="13000.00000" pt_clust_7="13000.00000" pt_clust_8="13000.00000" pt_clust_9="51.10804"></scales>
<clustering>
<clus scale="   51.108">  1  9  2 -1</clus>
<clus scale="   81.599">  5  6 -1 -1</clus>
<clus scale="   92.453">  7  8 -1 -1</clus>
<clus scale="  106.237">  2  5  1 -1</clus>
<clus scale="   51.108">  1  5  2 -1</clus>
</clustering>
</event>
<event>
 9    1  0.1973774E-005  0.2839329E+03  0.7546771E-02  0.1093770E+00
         -2   -1    0    0    0  501 -0.00000000000E+00  0.00000000000E+00  0.64348761488E+03  0.64348761488E+03  0.00000000000E+00 0.  1.
          1   -1    0    0  502    0  0.00000000000E+00 -0.00000000000E+00 -0.32570736562E+03  0.32570736562E+03  0.00000000000E+00 0. -1.
        -24    2    1    2    0    0 -0.21509762448E+03 -0.12020008357E+03  0.38005655791E+03  0.46293051793E+03  0.95638010607E+02 0.  0.
         23    2    1    2    0    0  0.31995612843E+03  0.15273149588E+03  0.23765028018E+02  0.36677715042E+03  0.90894815911E+02 0.  0.
         13    1    3    3    0    0 -0.47401861996E+02 -0.59681507128E+02  0.17702049028E+03  0.19273057047E+03  0.00000000000E+00 0. -1.
        -14    1    3    3    0    0 -0.16769576249E+03 -0.60518576441E+02  0.20303606763E+03  0.27019994746E+03  0.00000000000E+00 0.  1.
        -11    1    4    4    0    0  0.15397272483E+03  0.24398831960E+02  0.17520931547E+02  0.15687538377E+03  0.00000000000E+00 0.  1.
         11    1    4    4    0    0  0.16598340360E+03  0.12833266392E+03  0.62440964712E+01  0.20990176665E+03  0.00000000000E+00 0. -1.
         21    1    1    2  502  501 -0.10485850394E+03 -0.32531412311E+02 -0.86041336673E+02  0.13948731216E+03  0.00000000000E+00 0.  1.
<scales pt_clust_5="13000.00000" pt_clust_6="13000.00000" pt_clust_7="13000.00000" pt_clust_8="13000.00000" pt_clust_9="109.78888"></scales>
<clustering>
<clus scale="   90.895">  7  8 -1 -1</clus>
<clus scale="   95.638">  5  6 -1 -1</clus>
<clus scale="  109.789">  2  9  1 -1</clus>
<clus scale="  282.371">  2  7  1 -1</clus>
<clus scale="  109.789">  2  5  1 -1</clus>
</clustering>
</event>
<event>
 9    1  0.1973774E-005  0.9988801E+02  0.7546771E-02  0.1287124E+00
         -2   -1    0    0    0  501 -0.00000000000E+00  0.00000000000E+00  0.43936072870E+03  0.43936072870E+03  0.00000000000E+00 0.  1.
          1   -1    0    0  502    0  0.00000000000E+00 -0.00000000000E+00 -0.30091561180E+03  0.30091561180E+03  0.00000000000E+00 0. -1.
        -24    2    1    2    0    0  0.43591542866E+02 -0.38474079504E+02  0.33498267561E+03  0.34897932476E+03  0.78693702104E+02 0.  0.
         23    2    1    2    0    0  0.22163731709E+02 -0.13962869450E+02  0.65801731308E+02  0.11580601255E+03  0.91624079659E+02 0.  0.
         13    1    3    3    0    0  0.50323523429E+01 -0.35687620658E+02  0.51416870831E+02  0.62790329227E+02  0.00000000000E+00 0. -1.
        -14    1    3    3    0    0  0.38559190523E+02 -0.27864588453E+01  0.28356580477E+03  0.28618899553E+03  0.00000000000E+00 0.  1.
        -11    1    4    4    0    0  0.13951600087E+01 -0.43914297377E+02  0.40790527702E+01  0.44125396962E+02  0.00000000000E+00 0.  1.
         11    1    4    4    0    0  0.20768571701E+02  0.29951427927E+02  0.61722678538E+02  0.71680615589E+02  0.00000000000E+00 0. -1.
         21    1    1    2  502  501 -0.65755274575E+02  0.52436948954E+02 -0.26233929002E+03  0.27549100319E+03  0.00000000000E+00 0. -1.
<scales pt_clust_5="13000.00000" pt_clust_6="13000.00000" pt_clust_7="13000.00000" pt_clust_8="13000.00000" pt_clust_9="84.10345"></scales>
<clustering>
<clus scale="   78.694">  5  6 -1 -1</clus>
<clus scale="   84.103">  2  9  1 -1</clus>
<clus scale="   88.178">  1  5  2 -1</clus>
<clus scale="   91.624">  7  8 -1 -1</clus>
<clus scale="   84.103">  2  5  1 -1</clus>
</clustering>
</event>
<event>
 9    1  0.1973774E-005  0.2084960E+03  0.7546771E-02  0.1143718E+00
          1   -1    0    0  502    0  0.00000000000E+00  0.00000000000E+00  0.83491006801E+03  0.83491006801E+03  0.00000000000E+00 0. -1.
         -2   -1    0    0    0  501 -0.00000000000E+00 -0.00000000000E+00 -0.23316629381E+03  0.23316629381E+03  0.00000000000E+00 0.  1.
        -24    2    1    2    0    0 -0.18482878144E+03 -0.35705723338E+02 -0.16223938108E+03  0.26087687127E+03  0.79363392489E+02 0.  0.
         23    2    1    2    0    0  0.16816994344E+03  0.73887987287E+02  0.71020753430E+03  0.73917582132E+03  0.90805222883E+02 0.  0.
         11    1    3    3    0    0 -0.12993681027E+03  0.12959667568E+02 -0.96456085091E+02  0.16234316739E+03  0.00000000000E+00 0. -1.
        -12    1    3    3    0    0 -0.54891971164E+02 -0.48665390906E+02 -0.65783295985E+02  0.98533703883E+02  0.00000000000E+00 0.  1.
        -11    1    4    4    0    0  0.98867692935E+02  0.81786437349E+02  0.54396533285E+03  0.55889366196E+03  0.00000000000E+00 0. -1.
         11    1    4    4    0    0  0.69302250508E+02 -0.78984500623E+01  0.16624220145E+03  0.18028215936E+03  0.00000000000E+00 0.  1.
         21    1    1    2  502  501  0.16658837994E+02 -0.38182263949E+02  0.53775620976E+02  0.68023669226E+02  0.00000000000E+00 0.  1.
<scales pt_clust_5="13000.00000" pt_clust_6="13000.00000" pt_clust_7="13000.00000" pt_clust_8="13000.00000" pt_clust_9="41.65816"></scales>
<clustering>
<clus scale="   41.658">  1  9  2 -1</clus>
<clus scale="   79.363">  5  6 -1 -1</clus>
<clus scale="   90.805">  7  8 -1 -1</clus>
<clus scale="  203.773">  2  5  1 -1</clus>
<clus scale="   41.658">  1  5  2 -1</clus>
</clustering>
</event>
<event>
 9    1  0.1973774E-005  0.1151102E+03  0.7546771E-02  0.1254288E+00
         -2   -1    0    0    0  501 -0.00000000000E+00  0.00000000000E+00  0.26155040932E+03  0.26155040932E+03  0.00000000000E+00 0.  1.
          1   -1    0    0  502    0  0.00000000000E+00 -0.00000000000E+00 -0.94409560603E+02  0.94409560603E+02  0.00000000000E+00 0. -1.
        -24    2    1    2    0    0  0.44679010098E+02  0.30780488477E+02  0.10410548859E+03  0.14327351217E+03  0.82132174709E+02 0.  0.
         23    2    1    2    0    0 -0.70752975762E+02 -0.32990457811E+02 -0.23916741937E+02  0.12188225243E+03  0.90492646255E+02 0.  0.
         11    1    3    3    0    0 -0.23616719658E+02  0.18740355009E+01  0.32201462556E+02  0.39977439228E+02  0.00000000000E+00 0. -1.
        -12    1    3    3    0    0  0.68295729756E+02  0.28906452977E+02  0.71904026029E+02  0.10329607294E+03  0.00000000000E+00 0.  1.
        -11    1    4    4    0    0  0.24516819792E+01 -0.44820966125E+02 -0.38053096307E+01  0.45048974798E+02  0.00000000000E+00 0.  1.
         11    1    4    4    0    0 -0.73204657741E+02  0.11830508314E+02 -0.20111432307E+02  0.76833277630E+02  0.00000000000E+00 0. -1.
         21    1    1    2  502  501  0.26073965664E+02  0.22099693341E+01  0.86952102072E+02  0.90804205325E+02  0.00000000000E+00 0.  1.
<scales pt_clust_5="13000.00000" pt_clust_6="13000.00000" pt_clust_7="13000.00000" pt_clust_8="13000.00000" pt_clust_9="26.16745"></scales>
<clustering>
<clus scale="   26.167">  1  9  2 -1</clus>
<clus scale="   82.132">  5  6 -1 -1</clus>
<clus scale="   90.493">  7  8 -1 -1</clus>
<clus scale="  108.661">  1  5  2 -1</clus>
<clus scale="  115.110">  2  5  1 -1</clus>
</clustering>
</event>
<event>
 9    1  0.1973774E-005  0.1212179E+03  0.7546771E-02  0.1244715E+00
         -2   -1    0    0    0  501 -0.00000000000E+00  0.00000000000E+00  0.21558425978E+03  0.21558425978E+03  0.00000000000E+00 0.  1.
          1   -1    0    0  502    0  0.00000000000E+00 -0.00000000000E+00 -0.22238532988E+03  0.22238532988E+03  0.00000000000E+00 0. -1.
         23    2    1    2    0    0 -0.42336624141E+02 -0.39905157426E+02  0.12747016146E+03  0.16744277892E+03  0.91671319502E+02 0.  0.
        -24    2    1    2    0    0  0.82421181815E+02 -0.23621786724E+02 -0.15331245434E+03  0.19303479461E+03  0.80040510091E+02 0.  0.
         11    1    4    4    0    0  0.42195830220E+02 -0.45046086621E+02 -0.12492764371E+03  0.13934329611E+03  0.00000000000E+00 0. -1.
        -12    1    4    4    0    0  0.40225351595E+02  0.21424299896E+02 -0.28384810630E+02  0.53691498503E+02  0.00000000000E+00 0.  1.
        -11    1    3    3    0    0 -0.35266939953E+02 -0.58978010770E+02  0.12990085029E+03  0.14695711522E+03  0.00000000000E+00 0.  1.
         11    1    3    3    0    0 -0.70696841873E+01  0.19072853343E+02 -0.24306888334E+01  0.20485663703E+02  0.00000000000E+00 0. -1.
         21    1    1    2  502  501 -0.40084557675E+02  0.63526944151E+02  0.19041222783E+02  0.77492016119E+02  0.00000000000E+00 0. -1.
<scales pt_clust_5="13000.00000" pt_clust_6="13000.00000" pt_clust_7="13000.00000" pt_clust_8="13000.00000" pt_clust_9="75.11621"></scales>
<clustering>
<clus scale="   75.116">  1  9  2 -1</clus>
<clus scale="   80.041">  5  6 -1 -1</clus>
<clus scale="   91.671">  7  8 -1 -1</clus>
<clus scale="  112.679">  2  5  1 -1</clus>
<clus scale="  112.679">  2  5  1 -1</clus>
</clustering>
</event>
<event>
 9    1  0.1973774E-005  0.9947439E+02  0.7546771E-02  0.1281569E+00
         -2   -1    0    0    0  501 -0.00000000000E+00  0.00000000000E+00  0.10115712052E+04  0.10115712052E+04  0.00000000000E+00 0.  1.
          1   -1    0    0  502    0  0.00000000000E+00 -0.00000000000E+00 -0.11737470874E+03  0.11737470874E+03  0.00000000000E+00 0. -1.
        -24    2    1    2    0    0 -0.30902332196E+02 -0.87470300500E+01  0.97014697599E+03  0.97518529460E+03  0.93646885195E+02 0.  0.
         23    2    1    2    0    0  0.53661707684E+02 -0.25730056756E+01 -0.60267276038E+02  0.12389265572E+03  0.93973647105E+02 0.  0.
         13    1    3    3    0    0  0.29121804711E+01 -0.24132195274E+02  0.66973693901E+02  0.71248293443E+02  0.00000000000E+00 0. -1.
        -14    1    3    3    0    0 -0.33814512667E+02  0.15385165224E+02  0.90317328209E+03  0.90393700115E+03  0.00000000000E+00 0.  1.
        -11    1    4    4    0    0  0.48295068264E+02 -0.22775020825E+02  0.66299283481E+01  0.53805865313E+02  0.00000000000E+00 0.  1.
         11    1    4    4    0    0  0.53666394197E+01  0.20202015149E+02 -0.66897204386E+02  0.70086790406E+02  0.00000000000E+00 0. -1.
         21    1    1    2  502  501 -0.22759375488E+02  0.11320035726E+02 -0.15683203471E+02  0.29867963649E+02  0.00000000000E+00 0.  1.
<scales pt_clust_5="13000.00000" pt_clust_6="13000.00000" pt_clust_7="13000.00000" pt_clust_8="13000.00000" pt_clust_9="25.41913"></scales>
<clustering>
<clus scale="   25.419">  2  9  1 -1</clus>
<clus scale="   93.647">  5  6 -1 -1</clus>
<clus scale="   93.974">  7  8 -1 -1</clus>
<clus scale="   99.166">  1  5  2 -1</clus>
<clus scale="   25.419">  2  5  1 -1</clus>
</clustering>
</event>
<event>
 9    1  0.1973774E-005  0.1744174E+03  0.7546771E-02  0.1174815E+00
         -2   -1    0    0    0  501 -0.00000000000E+00  0.00000000000E+00  0.10166223530E+04  0.10166223530E+04  0.00000000000E+00 0.  1.
          1   -1    0    0  502    0  0.00000000000E+00 -0.00000000000E+00 -0.79038058110E+02  0.79038058110E+02  0.00000000000E+00 0. -1.
        -24    2    1    2    0    0 -0.12398499279E+03  0.69529311510E+02  0.75317739243E+03  0.77065448474E+03  0.80159508351E+02 0.  0.
         23    2    1    2    0    0  0.15535108989E+03 -0.11194402509E+03  0.12878811435E+03  0.24834896604E+03  0.91790002998E+02 0.  0.
         11    1    3    3    0    0 -0.41779909517E+02 -0.15527701380E+02  0.22874612175E+03  0.23304818936E+03  0.00000000000E+00 0. -1.
        -12    1    3    3    0    0 -0.82205083269E+02  0.85057012891E+02  0.52443127069E+03  0.53760629538E+03  0.00000000000E+00 0.  1.
        -13    1    4    4    0    0  0.52135751563E+02 -0.52682853395E+02  0.15677253431E+01  0.74135533961E+02  0.00000000000E+00 0. -1.
         13    1    4    4    0    0  0.10321533832E+03 -0.59261171699E+02  0.12722038901E+03  0.17421343208E+03  0.00000000000E+00 0.  1.
         21    1    1    2  502  501 -0.31366097101E+02  0.42414713584E+02  0.55618788065E+02  0.76656960295E+02  0.00000000000E+00 0.  1.
<scales pt_clust_5="13000.00000" pt_clust_6="13000.00000" pt_clust_7="13000.00000" pt_clust_8="13000.00000" pt_clust_9="52.75263"></scales>
<clustering>
<clus scale="   52.753">  2  9  1 -1</clus>
<clus scale="   80.160">  5  6 -1 -1</clus>
<clus scale="   91.790">  7  8 -1 -1</clus>
<clus scale="  168.587">  1  5  2 -1</clus>
<clus scale="   52.753">  2  5  1 -1</clus>
</clustering>
</event>
<event>
 9    1  0.2548747E-005  0.9605471E+02  0.7546771E-02  0.1295523E+00
         -2   -1    0    0    0  501 -0.00000000000E+00  0.00000000000E+00  0.16343099603E+03  0.16343099603E+03  0.00000000000E+00 0.  1.
          1   -1    0    0  502    0  0.00000000000E+00 -0.00000000000E+00 -0.60382904245E+03  0.60382904245E+03  0.00000000000E+00 0. -1.
        -24    2    1    2    0    0  0.54520355494E+01  0.31796305286E+02  0.13883526576E+03  0.16282219410E+03  0.78708996637E+02 0.  0.
         23    2    1    2    0    0  0.33108003157E+02 -0.11914712423E+01 -0.51240117574E+03  0.52143141744E+03  0.90764523471E+02 0.  0.
         13    1    3    3    0    0 -0.25224737209E+02 -0.69888689702E+01  0.16681703525E+02  0.31038860953E+02  0.00000000000E+00 0. -1.
        -14    1    3    3    0    0  0.30676772759E+02  0.38785174256E+02  0.12215356223E+03  0.13178333314E+03  0.00000000000E+00 0.  1.
        -11    1    4    4    0    0 -0.23211933886E+02 -0.26153177135E+02 -0.19364549710E+03  0.19677744052E+03  0.00000000000E+00 0.  1.
         11    1    4    4    0    0  0.56319937043E+02  0.24961705893E+02 -0.31875567864E+03  0.32465397692E+03  0.00000000000E+00 0. -1.
         21    1    1    2  502  501 -0.38560038707E+02 -0.30604834043E+02 -0.66832136436E+02  0.83006426935E+02  0.00000000000E+00 0. -1.
<scales pt_clust_5="13000.00000" pt_clust_6="13000.00000" pt_clust_7="13000.00000" pt_clust_8="13000.00000" pt_clust_9="49.22939"></scales>
<clustering>
<clus scale="   49.229">  2  9  1 -1</clus>
<clus scale="   78.709">  5  6 -1 -1</clus>
<clus scale="   84.755">  1  5  2 -1</clus>
<clus scale="   90.765">  7  8 -1 -1</clus>
<clus scale="   49.229">  2  5  1 -1</clus>
</clustering>
</event>
<event>
 9    1  0.1973774E-005  0.9934429E+02  0.7546771E-02  0.1292075E+00
          1   -1    0    0  502    0  0.00000000000E+00  0.00000000000E+00  0.72292317801E+02  0.72292317801E+02  0.00000000000E+00 0. -1.
         -2   -1    0    0    0  501 -0.00000000000E+00 -0.00000000000E+00 -0.15987214239E+03  0.15987214239E+03  0.00000000000E+00 0.  1.
        -24    2    1    2    0    0 -0.24363982440E+02  0.20393864541E+02 -0.57904984461E+02  0.10196864057E+03  0.77685925906E+02 0.  0.
         23    2    1    2    0    0  0.20824256867E+02  0.56568421907E+01 -0.32635961601E+02  0.10373949299E+03  0.96078753523E+02 0.  0.
         13    1    3    3    0    0  0.14333655394E+01 -0.26160657094E+02 -0.35737480034E+02  0.44312548962E+02  0.00000000000E+00 0. -1.
        -14    1    3    3    0    0 -0.25797347980E+02  0.46554521635E+02 -0.22167504427E+02  0.57656091612E+02  0.00000000000E+00 0.  1.
        -13    1    4    4    0    0 -0.24321671084E+02  0.34787752879E+02 -0.34279658558E+01  0.42585001874E+02  0.00000000000E+00 0.  1.
         13    1    4    4    0    0  0.45145927951E+02 -0.29130910688E+02 -0.29207995745E+02  0.61154491115E+02  0.00000000000E+00 0. -1.
         21    1    1    2  502  501  0.35397255731E+01 -0.26050706731E+02  0.29611214715E+01  0.26456326629E+02  0.00000000000E+00 0. -1.
<scales pt_clust_5="13000.00000" pt_clust_6="13000.00000" pt_clust_7="13000.00000" pt_clust_8="13000.00000" pt_clust_9="26.29009"></scales>
<clustering>
<clus scale="   26.290">  1  9  2 -1</clus>
<clus scale="   77.686">  5  6 -1 -1</clus>
<clus scale="   81.690">  2  5  1 -1</clus>
<clus scale="   96.079">  7  8 -1 -1</clus>
<clus scale="   26.290">  1  5  2 -1</clus>
</clustering>
</event>
<event>
 9    1  0.1973774E-005  0.8650049E+02  0.7546771E-02  0.1312044E+00
          1   -1    0    0  502    0  0.00000000000E+00  0.00000000000E+00  0.22248923620E+03  0.22248923620E+03  0.00000000000E+00 0. -1.
         -2   -1    0    0    0  501 -0.00000000000E+00 -0.00000000000E+00 -0.11537808994E+03  0.11537808994E+03  0.00000000000E+00 0.  1.
         23    2    1    2    0    0 -0.19537340295E+02 -0.26601469634E+02 -0.80975079976E+02  0.11848624552E+03  0.79954242839E+02 0.  0.
        -24    2    1    2    0    0 -0.20539506757E+01  0.22438859550E+02  0.11036103410E+03  0.13860536235E+03  0.80772318854E+02 0.  0.
         11    1    4    4    0    0  0.10541242325E+02  0.50269436276E+02  0.82937008855E+02  0.97553479954E+02  0.00000000000E+00 0. -1.
        -12    1    4    4    0    0 -0.12595193001E+02 -0.27830576725E+02  0.27424025247E+02  0.41051882397E+02  0.00000000000E+00 0.  1.
        -11    1    3    3    0    0 -0.50735295237E+02 -0.12501999395E+02 -0.48051552710E+02  0.70988181337E+02  0.00000000000E+00 0.  1.
         11    1    3    3    0    0  0.31197954942E+02 -0.14099470240E+02 -0.32923527266E+02  0.47498064184E+02  0.00000000000E+00 0. -1.
         21    1    1    2  502  501  0.21591290970E+02  0.41626100838E+01  0.77725192135E+02  0.80775718263E+02  0.00000000000E+00 0. -1.
<scales pt_clust_5="13000.00000" pt_clust_6="13000.00000" pt_clust_7="13000.00000" pt_clust_8="13000.00000" pt_clust_9="21.98889"></scales>
<clustering>
<clus scale="   21.989">  1  9  2 -1</clus>
<clus scale="   79.954">  7  8 -1 -1</clus>
<clus scale="   80.772">  5  6 -1 -1</clus>
<clus scale="   85.737">  2  7  1 -1</clus>
<clus scale="   21.989">  1  5  2 -1</clus>
</clustering>
</event>
<event>
 9    1  0.1973774E-005  0.1117621E+03  0.7546771E-02  0.1268901E+00
         -2   -1    0    0    0  501 -0.00000000000E+00  0.00000000000E+00  0.17835932872E+03  0.17835932872E+03  0.00000000000E+00 0.  1.
          1   -1    0    0  502    0  0.00000000000E+00 -0.00000000000E+00 -0.10975954462E+03  0.10975954462E+03  0.00000000000E+00 0. -1.
         23    2    1    2    0    0 -0.36106852944E+02 -0.41125093396E+01  0.90539566752E+02  0.14274599510E+03  0.10420359115E+03 0.  0.
        -24    2    1    2    0    0  0.46965192989E+02 -0.38245166367E+02 -0.17221860201E+02  0.10139180239E+03  0.79468754999E+02 0.  0.
         11    1    4    4    0    0  0.39878334864E+02 -0.62758376280E+02 -0.14143392755E+02  0.75689701700E+02  0.00000000000E+00 0. -1.
        -12    1    4    4    0    0  0.70868581242E+01  0.24513209912E+02 -0.30784674459E+01  0.25702100694E+02  0.00000000000E+00 0.  1.
        -11    1    3    3    0    0 -0.53718878966E+02 -0.26071337191E+02  0.96962453689E+02  0.11387339464E+03  0.00000000000E+00 0.  1.
         11    1    3    3    0    0  0.17612026022E+02  0.21958827852E+02 -0.64228869369E+01  0.28872600469E+02  0.00000000000E+00 0. -1.
         21    1    1    2  502  501 -0.10858340045E+02  0.42357675707E+02 -0.47179224460E+01  0.43981075840E+02  0.00000000000E+00 0. -1.
<scales pt_clust_5="13000.00000" pt_clust_6="13000.00000" pt_clust_7="13000.00000" pt_clust_8="13000.00000" pt_clust_9="43.72729"></scales>
<clustering>
<clus scale="   43.727">  2  9  1 -1</clus>
<clus scale="   79.469">  5  6 -1 -1</clus>
<clus scale="   89.150">  2  5  1 -1</clus>
<clus scale="  104.204">  7  8 -1 -1</clus>
<clus scale="   43.727">  2  5  1 -1</clus>
</clustering>
</event>
<event>
 9    1  0.1973774E-005  0.1131337E+03  0.7546771E-02  0.1257615E+00
          1   -1    0    0  502    0  0.00000000000E+00  0.00000000000E+00  0.46563016326E+03  0.46563016326E+03  0.00000000000E+00 0. -1.
         -2   -1    0    0    0  501 -0.00000000000E+00 -0.00000000000E+00 -0.54100386849E+02  0.54100386849E+02  0.00000000000E+00 0.  1.
         23    2    1    2    0    0 -0.80131319287E+02  0.12161276328E+01  0.70540955980E+02  0.13789142931E+03  0.87266903868E+02 0.  0.
        -24    2    1    2    0    0  0.45102156375E+02 -0.51514559293E+02  0.25948645418E+03  0.27986064176E+03  0.79377607513E+02 0.  0.
         13    1    4    4    0    0  0.18690133273E+02 -0.44742136929E+02  0.24344158972E+03  0.24822366427E+03  0.00000000000E+00 0. -1.
        -14    1    4    4    0    0  0.26412023102E+02 -0.67724223646E+01  0.16044864457E+02  0.31636977487E+02  0.00000000000E+00 0.  1.
        -11    1    3    3    0    0 -0.31634678888E+02  0.43248546127E+02  0.24567039097E+02  0.58946832489E+02  0.00000000000E+00 0.  1.
         11    1    3    3    0    0 -0.48496640399E+02 -0.42032418494E+02  0.45973916882E+02  0.78944596825E+02  0.00000000000E+00 0. -1.
         21    1    1    2  502  501  0.35029162911E+02  0.50298431660E+02  0.81502366251E+02  0.10197847904E+03  0.00000000000E+00 0.  1.
<scales pt_clust_5="13000.00000" pt_clust_6="13000.00000" pt_clust_7="13000.00000" pt_clust_8="13000.00000" pt_clust_9="61.29416"></scales>
<clustering>
<clus scale="   61.294">  1  9  2 -1</clus>
<clus scale="   79.378">  5  6 -1 -1</clus>
<clus scale="   87.267">  7  8 -1 -1</clus>
<clus scale="  107.166">  1  5  2 -1</clus>
<clus scale="   61.294">  1  5  2 -1</clus>
</clustering>
</event>
<event>
 9    1  0.1973774E-005  0.1184863E+03  0.7546771E-02  0.1250644E+00
          3   -1    0    0  502    0  0.00000000000E+00  0.00000000000E+00  0.99870106258E+02  0.99870106258E+02  0.00000000000E+00 0. -1.
         -4   -1    0    0    0  501 -0.00000000000E+00 -0.00000000000E+00 -0.37979944299E+03  0.37979944299E+03  0.00000000000E+00 0.  1.
         23    2    1    2    0    0  0.56330597664E+02  0.27727768698E+02 -0.26475630664E+03  0.28860895357E+03  0.96214659951E+02 0.  0.
        -24    2    1    2    0    0 -0.10126076401E+03 -0.46397819935E+01 -0.37899041298E+02  0.13566884029E+03  0.81819478057E+02 0.  0.
         11    1    4    4    0    0 -0.81135260575E+02  0.19997372101E+02  0.32863252580E+01  0.83627898056E+02  0.00000000000E+00 0. -1.
        -12    1    4    4    0    0 -0.20125503440E+02 -0.24637154095E+02 -0.41185366557E+02  0.52040942238E+02  0.00000000000E+00 0.  1.
        -13    1    3    3    0    0 -0.24665485946E+02 -0.81763743832E+01 -0.69240299505E+02  0.73955786593E+02  0.00000000000E+00 0. -1.
         13    1    3    3    0    0  0.80996083611E+02  0.35904143082E+02 -0.19551600713E+03  0.21465316698E+03  0.00000000000E+00 0.  1.
         21    1    1    2  502  501  0.44930166350E+02 -0.23087986705E+02  0.22726011206E+02  0.55391755376E+02  0.00000000000E+00 0. -1.
<scales pt_clust_5="13000.00000" pt_clust_6="13000.00000" pt_clust_7="13000.00000" pt_clust_8="13000.00000" pt_clust_9="50.51510"></scales>
<clustering>
<clus scale="   50.515">  1  9  2 -1</clus>
<clus scale="   81.819">  5  6 -1 -1</clus>
<clus scale="   96.215">  7  8 -1 -1</clus>
<clus scale="  107.127">  1  5  2 -1</clus>
<clus scale="   50.515">  1  5  2 -1</clus>
</clustering>
</event>
<event>
 9    1  0.1973774E-005  0.3424221E+03  0.7546771E-02  0.1066037E+00
         -2   -1    0    0    0  501 -0.00000000000E+00  0.00000000000E+00  0.14408278803E+03  0.14408278803E+03  0.00000000000E+00 0.  1.
          1   -1    0    0  502    0  0.00000000000E+00 -0.00000000000E+00 -0.11570237342E+04  0.11570237342E+04  0.00000000000E+00 0. -1.
         23    2    1    2    0    0  0.95442067975E+02 -0.28943239441E+03 -0.36315658840E+03  0.48266718329E+03  0.90579262796E+02 0.  0.
        -24    2    1    2    0    0 -0.10982070986E+02  0.36943509695E+03 -0.45656159723E+03  0.59289786007E+03  0.80476603215E+02 0.  0.
         13    1    4    4    0    0 -0.16059356130E+02  0.32839951892E+03 -0.43773957006E+03  0.54746696534E+03  0.00000000000E+00 0. -1.
        -14    1    4    4    0    0  0.50772851445E+01  0.41035578029E+02 -0.18822027173E+02  0.45430894725E+02  0.00000000000E+00 0.  1.
        -11    1    3    3    0    0  0.76100042761E+02 -0.15180693926E+03 -0.14148058491E+03  0.22102786978E+03  0.00000000000E+00 0.  1.
         11    1    3    3    0    0  0.19342025214E+02 -0.13762545515E+03 -0.22167600349E+03  0.26163931350E+03  0.00000000000E+00 0. -1.
         21    1    1    2  502  501 -0.84459996989E+02 -0.80002702539E+02 -0.19322276051E+03  0.22554147885E+03  0.00000000000E+00 0. -1.
<scales pt_clust_5="13000.00000" pt_clust_6="13000.00000" pt_clust_7="13000.00000" pt_clust_8="13000.00000" pt_clust_9="116.33539"></scales>
<clustering>
<clus scale="   80.477">  5  6 -1 -1</clus>
<clus scale="   90.579">  7  8 -1 -1</clus>
<clus scale="  116.335">  2  9  1 -1</clus>
<clus scale="  339.889">  2  5  1 -1</clus>
<clus scale="  116.335">  2  5  1 -1</clus>
</clustering>
</event>
<event>
 9    1  0.1973774E-005  0.9395066E+02  0.7546771E-02  0.1300736E+00
         -4   -1    0    0    0  501 -0.00000000000E+00  0.00000000000E+00  0.24985779840E+03  0.24985779840E+03  0.00000000000E+00 0.  1.
          3   -1    0    0  502    0  0.00000000000E+00 -0.00000000000E+00 -0.69601647119E+02  0.69601647119E+02  0.00000000000E+00 0. -1.
        -24    2    1    2    0    0 -0.97519678930E+01  0.80817514524E+01  0.18376379713E+03  0.20152489433E+03  0.81747992738E+02 0.  0.
         23    2    1    2    0    0 -0.95572896776E+01  0.20798616506E+01  0.58371527663E+01  0.94197848174E+02  0.93506655580E+02 0.  0.
         13    1    3    3    0    0  0.21886057815E+02  0.34864617300E+02  0.86456336934E+02  0.95756144775E+02  0.00000000000E+00 0. -1.
        -14    1    3    3    0    0 -0.31638025708E+02 -0.26782865847E+02  0.97307460193E+02  0.10576874956E+03  0.00000000000E+00 0.  1.
        -13    1    4    4    0    0 -0.17544147882E+02 -0.38776606932E+02 -0.18017890390E+02  0.46217602103E+02  0.00000000000E+00 0. -1.
         13    1    4    4    0    0  0.79868582041E+01  0.40856468583E+02  0.23855043156E+02  0.47980246071E+02  0.00000000000E+00 0.  1.
         21    1    1    2  502  501  0.19309257571E+02 -0.10161613103E+02 -0.93447986130E+01  0.23736703012E+02  0.00000000000E+00 0. -1.
<scales pt_clust_5="13000.00000" pt_clust_6="13000.00000" pt_clust_7="13000.00000" pt_clust_8="13000.00000" pt_clust_9="21.81985"></scales>
<clustering>
<clus scale="   21.820">  2  9  1 -1</clus>
<clus scale="   81.748">  5  6 -1 -1</clus>
<clus scale="   82.255">  1  5  2 -1</clus>
<clus scale="   93.507">  7  8 -1 -1</clus>
<clus scale="   21.820">  2  5  1 -1</clus>
</clustering>
</event>
<event>
 9    1  0.1973774E-005  0.9264390E+02  0.7546771E-02  0.1303717E+00
          1   -1    0    0  502    0  0.00000000000E+00  0.00000000000E+00  0.27581181549E+02  0.27581181549E+02  0.00000000000E+00 0. -1.
         -2   -1    0    0    0  501 -0.00000000000E+00 -0.00000000000E+00 -0.46231703574E+03  0.46231703574E+03  0.00000000000E+00 0.  1.
        -24    2    1    2    0    0  0.27605998822E+01  0.81381311726E+01 -0.30352663101E+03  0.31406413241E+03  0.80212302334E+02 0.  0.
         23    2    1    2    0    0  0.36060287497E+01 -0.27434842432E+02 -0.11586557896E+03  0.15037186888E+03  0.91767055847E+02 0.  0.
         13    1    3    3    0    0  0.40120209638E+02 -0.16731993189E+01 -0.18835598406E+03  0.19258870047E+03  0.00000000000E+00 0. -1.
        -14    1    3    3    0    0 -0.37359609756E+02  0.98113304915E+01 -0.11517064695E+03  0.12147543194E+03  0.00000000000E+00 0.  1.
        -13    1    4    4    0    0  0.28489198998E+02 -0.47357042084E+02 -0.40422526167E+02  0.68471194792E+02  0.00000000000E+00 0. -1.
         13    1    4    4    0    0 -0.24883170249E+02  0.19922199652E+02 -0.75443052797E+02  0.81900674087E+02  0.00000000000E+00 0.  1.
         21    1    1    2  502  501 -0.63666286320E+01  0.19296711259E+02 -0.15343644218E+02  0.25462215997E+02  0.00000000000E+00 0.  1.
<scales pt_clust_5="13000.00000" pt_clust_6="13000.00000" pt_clust_7="13000.00000" pt_clust_8="13000.00000" pt_clust_9="20.31987"></scales>
<clustering>
<clus scale="   20.320">  1  9  2 -1</clus>
<clus scale="   80.212">  5  6 -1 -1</clus>
<clus scale="   81.214">  2  5  1 -1</clus>
<clus scale="   91.767">  7  8 -1 -1</clus>
<clus scale="   20.320">  1  5  2 -1</clus>
</clustering>
</event>
<event>
 9    1  0.1973774E-005  0.1755354E+03  0.7546771E-02  0.1172342E+00
         -2   -1    0    0    0  501 -0.00000000000E+00  0.00000000000E+00  0.41124564899E+03  0.41124564899E+03  0.00000000000E+00 0.  1.
          1   -1    0    0  502    0  0.00000000000E+00 -0.00000000000E+00 -0.12710470826E+03  0.12710470826E+03  0.00000000000E+00 0. -1.
         23    2    1    2    0    0  0.13653205393E+03  0.50503339642E+02  0.20952356733E+03  0.26897500174E+03  0.85181202310E+02 0.  0.
        -24    2    1    2    0    0 -0.15915361437E+03  0.87148458323E+01  0.14269518984E+02  0.18185169002E+03  0.86374744500E+02 0.  0.
         11    1    4    4    0    0 -0.27682704670E+02 -0.30414802515E+02  0.17374766523E+02  0.44646106903E+02  0.00000000000E+00 0. -1.
        -12    1    4    4    0    0 -0.13147090970E+03  0.39129648348E+02 -0.31052475389E+01  0.13720558312E+03  0.00000000000E+00 0.  1.
        -13    1    3    3    0    0  0.15638978459E+02  0.24865071748E+02  0.98705910179E+02  0.10298400917E+03  0.00000000000E+00 0.  1.
         13    1    3    3    0    0  0.12089307547E+03  0.25638267894E+02  0.11081765715E+03  0.16599099257E+03  0.00000000000E+00 0. -1.
         21    1    1    2  502  501  0.22621560442E+02 -0.59218185475E+02  0.60347854417E+02  0.87523665488E+02  0.00000000000E+00 0.  1.
<scales pt_clust_5="13000.00000" pt_clust_6="13000.00000" pt_clust_7="13000.00000" pt_clust_8="13000.00000" pt_clust_9="63.39186"></scales>
<clustering>
<clus scale="   63.392">  1  9  2 -1</clus>
<clus scale="   85.181">  7  8 -1 -1</clus>
<clus scale="   86.375">  5  6 -1 -1</clus>
<clus scale="  174.951">  1  7  2 -1</clus>
<clus scale="  175.535">  2  5  1 -1</clus>
</clustering>
</event>
<event>
 9    1  0.2135635E-005  0.1352378E+03  0.7546771E-02  0.1221284E+00
         -2   -1    0    0    0  501 -0.00000000000E+00  0.00000000000E+00  0.93692381434E+02  0.93692381434E+02  0.00000000000E+00 0.  1.
          1   -1    0    0  502    0  0.00000000000E+00 -0.00000000000E+00 -0.10342189536E+04  0.10342189536E+04  0.00000000000E+00 0. -1.
        -24    2    1    2    0    0 -0.99333758197E+02  0.15284340009E+02  0.31070203998E+02  0.13329912864E+03  0.81868758097E+02 0.  0.
         23    2    1    2    0    0  0.13737763149E+03 -0.27622104494E+02 -0.86659351039E+03  0.88225010180E+03  0.88007588164E+02 0.  0.
         13    1    3    3    0    0 -0.13634491657E+02  0.33481343963E+02 -0.85476545146E+01  0.37147841848E+02  0.00000000000E+00 0. -1.
        -14    1    3    3    0    0 -0.85699266540E+02 -0.18197003953E+02  0.39617858512E+02  0.96151286791E+02  0.00000000000E+00 0.  1.
        -13    1    4    4    0    0  0.12631577211E+03  0.79832719281E+01 -0.71664310433E+03  0.72773398018E+03  0.00000000000E+00 0. -1.
         13    1    4    4    0    0  0.11061859378E+02 -0.35605376422E+02 -0.14995040606E+03  0.15451612162E+03  0.00000000000E+00 0.  1.
         21    1    1    2  502  501 -0.38043873295E+02  0.12337764485E+02 -0.10500326582E+03  0.11236210465E+03  0.00000000000E+00 0. -1.
<scales pt_clust_5="13000.00000" pt_clust_6="13000.00000" pt_clust_7="13000.00000" pt_clust_8="13000.00000" pt_clust_9="39.99446"></scales>
<clustering>
<clus scale="   39.994">  2  9  1 -1</clus>
<clus scale="   81.869">  5  6 -1 -1</clus>
<clus scale="   88.008">  7  8 -1 -1</clus>
<clus scale="  131.326">  1  5  2 -1</clus>
<clus scale="   39.994">  2  5  1 -1</clus>
</clustering>
</event>
<event>
 9    1  0.1973774E-005  0.1085211E+03  0.7546771E-02  0.1268370E+00
         -2   -1    0    0    0  501 -0.00000000000E+00  0.00000000000E+00  0.43182249927E+03  0.43182249927E+03  0.00000000000E+00 0.  1.
          1   -1    0    0  502    0  0.00000000000E+00 -0.00000000000E+00 -0.15059787776E+03  0.15059787776E+03  0.00000000000E+00 0. -1.
        -24    2    1    2    0    0 -0.58911091340E+01  0.28357739883E+02  0.36663347271E+03  0.37659919590E+03  0.81043102477E+02 0.  0.
         23    2    1    2    0    0  0.32503176028E+02 -0.47388916207E+02 -0.11711584970E+03  0.16026109410E+03  0.93087755375E+02 0.  0.
         13    1    3    3    0    0 -0.60507386098E+01 -0.26517392711E+02  0.73446401472E+02  0.78320862120E+02  0.00000000000E+00 0. -1.
        -14    1    3    3    0    0  0.15962947580E+00  0.54875132594E+02  0.29318707124E+03  0.29827833378E+03  0.00000000000E+00 0.  1.
        -13    1    4    4    0    0  0.14982134274E+02 -0.20160569857E+02  0.11504949502E+02  0.27627464368E+02  0.00000000000E+00 0.  1.
         13    1    4    4    0    0  0.17521041754E+02 -0.27228346350E+02 -0.12862079920E+03  0.13263362973E+03  0.00000000000E+00 0. -1.
         21    1    1    2  502  501 -0.26612066894E+02  0.19031176324E+02  0.31706998495E+02  0.45560087030E+02  0.00000000000E+00 0.  1.
<scales pt_clust_5="13000.00000" pt_clust_6="13000.00000" pt_clust_7="13000.00000" pt_clust_8="13000.00000" pt_clust_9="32.71678"></scales>
<clustering>
<clus scale="   32.717">  1  9  2 -1</clus>
<clus scale="   81.043">  5  6 -1 -1</clus>
<clus scale="   93.088">  7  8 -1 -1</clus>
<clus scale="   98.384">  1  5  2 -1</clus>
<clus scale="  108.521">  2  5  1 -1</clus>
</clustering>
</event>
<event>
 9    1  0.1973774E-005  0.9877046E+02  0.7546771E-02  0.1291087E+00
          1   -1    0    0  502    0  0.00000000000E+00  0.00000000000E+00  0.53838006365E+03  0.53838006365E+03  0.00000000000E+00 0. -1.
         -2   -1    0    0    0  501 -0.00000000000E+00 -0.00000000000E+00 -0.71364212168E+02  0.71364212168E+02  0.00000000000E+00 0.  1.
         23    2    1    2    0    0 -0.27541925864E+02 -0.13778569596E+02 -0.23777273861E+02  0.10127732185E+03  0.93505777937E+02 0.  0.
        -24    2    1    2    0    0  0.48703056504E+02 -0.13564393549E+02  0.28804800568E+03  0.30279484932E+03  0.78467105942E+02 0.  0.
         13    1    4    4    0    0  0.40796541030E+02  0.18868464489E+02  0.24070541938E+03  0.24486624028E+03  0.00000000000E+00 0. -1.
        -14    1    4    4    0    0  0.79065154737E+01 -0.32432858039E+02  0.47342586299E+02  0.57928609037E+02  0.00000000000E+00 0.  1.
        -11    1    3    3    0    0  0.18375063807E+02  0.10685416552E+02 -0.41241447276E+02  0.46396961864E+02  0.00000000000E+00 0.  1.
         11    1    3    3    0    0 -0.45916989671E+02 -0.24463986148E+02  0.17464173415E+02  0.54880359982E+02  0.00000000000E+00 0. -1.
         21    1    1    2  502  501 -0.21161130640E+02  0.27342963146E+02  0.20274511967E+03  0.20567210465E+03  0.00000000000E+00 0. -1.
<scales pt_clust_5="13000.00000" pt_clust_6="13000.00000" pt_clust_7="13000.00000" pt_clust_8="13000.00000" pt_clust_9="34.57501"></scales>
<clustering>
<clus scale="   34.575">  1  9  2 -1</clus>
<clus scale="   78.467">  5  6 -1 -1</clus>
<clus scale="   84.672">  1  5  2 -1</clus>
<clus scale="   93.506">  7  8 -1 -1</clus>
<clus scale="   34.575">  1  5  2 -1</clus>
</clustering>
</event>
<event>
 9    1  0.1973774E-005  0.1055480E+03  0.7546771E-02  0.1275125E+00
         -2   -1    0    0    0  501 -0.00000000000E+00  0.00000000000E+00  0.27390509952E+03  0.27390509952E+03  0.00000000000E+00 0.  1.
          1   -1    0    0  502    0  0.00000000000E+00 -0.00000000000E+00 -0.15475472236E+03  0.15475472236E+03  0.00000000000E+00 0. -1.
         23    2    1    2    0    0 -0.35752227440E+02 -0.37238533689E+02  0.23393829451E+03  0.25732886085E+03  0.93947255578E+02 0.  0.
        -24    2    1    2    0    0  0.34870641470E+00  0.19126156708E+02 -0.97560603238E+02  0.12799220410E+03  0.80610182612E+02 0.  0.
         13    1    4    4    0    0 -0.38518004505E+02  0.20228069063E+02 -0.44763328381E+02  0.62422488070E+02  0.00000000000E+00 0. -1.
        -14    1    4    4    0    0  0.38866710920E+02 -0.11019123552E+01 -0.52797274856E+02  0.65569716034E+02  0.00000000000E+00 0.  1.
        -13    1    3    3    0    0  0.84774276346E+01 -0.46929060700E+02  0.18328879090E+03  0.18939108846E+03  0.00000000000E+00 0.  1.
         13    1    3    3    0    0 -0.44229655075E+02  0.96905270109E+01  0.50649503603E+02  0.67937772387E+02  0.00000000000E+00 0. -1.
         21    1    1    2  502  501  0.35403521025E+02  0.18112376981E+02 -0.17227314103E+02  0.43338756929E+02  0.00000000000E+00 0. -1.
<scales pt_clust_5="13000.00000" pt_clust_6="13000.00000" pt_clust_7="13000.00000" pt_clust_8="13000.00000" pt_clust_9="39.76767"></scales>
<clustering>
<clus scale="   39.768">  2  9  1 -1</clus>
<clus scale="   80.610">  5  6 -1 -1</clus>
<clus scale="   93.874">  2  5  1 -1</clus>
<clus scale="   93.947">  7  8 -1 -1</clus>
<clus scale="   39.768">  2  5  1 -1</clus>
</clustering>
</event>
<event>
 9    1  0.1973774E-005  0.1268346E+03  0.7546771E-02  0.1234659E+00
          1   -1    0    0  502    0  0.00000000000E+00  0.00000000000E+00  0.88309464335E+03  0.88309464335E+03  0.00000000000E+00 0. -1.
         -2   -1    0    0    0  501 -0.00000000000E+00 -0.00000000000E+00 -0.73761852136E+02  0.73761852136E+02  0.00000000000E+00 0.  1.
        -24    2    1    2    0    0  0.66700831796E+02  0.55833317535E+02 -0.29429475144E-01  0.11866752992E+03  0.80719399663E+02 0.  0.
         23    2    1    2    0    0 -0.12253084045E+03 -0.29207579823E+02  0.53217249356E+03  0.55418180967E+03  0.89682917473E+02 0.  0.
         11    1    3    3    0    0  0.48131369163E+02  0.51018547339E+02  0.35258163836E+02  0.78502604971E+02  0.00000000000E+00 0. -1.
        -12    1    3    3    0    0  0.18569462633E+02  0.48147701965E+01 -0.35287593311E+02  0.40164924949E+02  0.00000000000E+00 0.  1.
        -13    1    4    4    0    0 -0.39095767268E+01  0.23619251080E+02  0.63861740064E+02  0.68201727659E+02  0.00000000000E+00 0.  1.
         13    1    4    4    0    0 -0.11862126372E+03 -0.52826830903E+02  0.46831075350E+03  0.48598008201E+03  0.00000000000E+00 0. -1.
         21    1    1    2  502  501  0.55830008653E+02 -0.26625737712E+02  0.27718972713E+03  0.28400715590E+03  0.00000000000E+00 0. -1.
<scales pt_clust_5="13000.00000" pt_clust_6="13000.00000" pt_clust_7="13000.00000" pt_clust_8="13000.00000" pt_clust_9="61.85402"></scales>
<clustering>
<clus scale="   61.854">  1  9  2 -1</clus>
<clus scale="   80.719">  5  6 -1 -1</clus>
<clus scale="   89.683">  7  8 -1 -1</clus>
<clus scale="  120.663">  2  5  1 -1</clus>
<clus scale="   61.854">  1  5  2 -1</clus>
</clustering>
</event>
<event>
 9    1  0.1973774E-005  0.1034284E+03  0.7546771E-02  0.1278794E+00
         -2   -1    0    0    0  501 -0.00000000000E+00  0.00000000000E+00  0.38857643527E+03  0.38857643527E+03  0.00000000000E+00 0.  1.
          1   -1    0    0  502    0  0.00000000000E+00 -0.00000000000E+00 -0.11259354114E+03  0.11259354114E+03  0.00000000000E+00 0. -1.
        -24    2    1    2    0    0 -0.30029390202E+02 -0.26920126898E+02  0.29731646684E+03  0.31102557608E+03  0.81935157387E+02 0.  0.
         23    2    1    2    0    0  0.61214377299E+02  0.30311148613E+02  0.38901885634E+02  0.12223038932E+03  0.93599923345E+02 0.  0.
         11    1    3    3    0    0 -0.37129422617E+02  0.19655553178E+02  0.10669268713E+03  0.11466588107E+03  0.00000000000E+00 0. -1.
        -12    1    3    3    0    0  0.71000324153E+01 -0.46575680076E+02  0.19062377971E+03  0.19635969502E+03  0.00000000000E+00 0.  1.
        -13    1    4    4    0    0  0.31619154563E+02 -0.32866981165E+02  0.98607467764E+01  0.46660944195E+02  0.00000000000E+00 0.  1.
         13    1    4    4    0    0  0.29595222737E+02  0.63178129778E+02  0.29041138857E+02  0.75569445130E+02  0.00000000000E+00 0. -1.
         21    1    1    2  502  501 -0.31184987097E+02 -0.33910217148E+01 -0.60235458346E+02  0.67914011004E+02  0.00000000000E+00 0. -1.
<scales pt_clust_5="13000.00000" pt_clust_6="13000.00000" pt_clust_7="13000.00000" pt_clust_8="13000.00000" pt_clust_9="31.36881"></scales>
<clustering>
<clus scale="   31.369">  2  9  1 -1</clus>
<clus scale="   81.935">  5  6 -1 -1</clus>
<clus scale="   93.005">  1  5  2 -1</clus>
<clus scale="   93.600">  7  8 -1 -1</clus>
<clus scale="   31.369">  2  5  1 -1</clus>
</clustering>
</event>
<event>
 9    1  0.1973774E-005  0.1119830E+03  0.7546771E-02  0.1261778E+00
          1   -1    0    0  502    0  0.00000000000E+00  0.00000000000E+00  0.10140185282E+03  0.10140185282E+03  0.00000000000E+00 0. -1.
         -2   -1    0    0    0  501 -0.00000000000E+00 -0.00000000000E+00 -0.29548336699E+03  0.29548336699E+03  0.00000000000E+00 0.  1.
        -24    2    1    2    0    0  0.71631545653E+02  0.96982797841E+01 -0.21015272896E+03  0.23624138639E+03  0.80129196852E+02 0.  0.
         23    2    1    2    0    0 -0.16957425504E+02  0.12394831769E+02  0.30695258396E+02  0.99888359236E+02  0.92705443683E+02 0.  0.
         13    1    3    3    0    0  0.76798751349E+02  0.16229814737E+02 -0.10674523523E+03  0.13249905788E+03  0.00000000000E+00 0. -1.
        -14    1    3    3    0    0 -0.51672056965E+01 -0.65315349525E+01 -0.10340749374E+03  0.10374232851E+03  0.00000000000E+00 0.  1.
        -13    1    4    4    0    0 -0.45582560290E+02  0.33252114011E+02  0.60631021007E+01  0.56747106498E+02  0.00000000000E+00 0. -1.
         13    1    4    4    0    0  0.28625134786E+02 -0.20857282242E+02  0.24632156296E+02  0.43141252738E+02  0.00000000000E+00 0.  1.
         21    1    1    2  502  501 -0.54674120149E+02 -0.22093111553E+02 -0.14624043600E+02  0.60755474184E+02  0.00000000000E+00 0. -1.
<scales pt_clust_5="13000.00000" pt_clust_6="13000.00000" pt_clust_7="13000.00000" pt_clust_8="13000.00000" pt_clust_9="58.96919"></scales>
<clustering>
<clus scale="   58.969">  1  9  2 -1</clus>
<clus scale="   80.129">  5  6 -1 -1</clus>
<clus scale="   92.705">  7  8 -1 -1</clus>
<clus scale="  101.816">  2  5  1 -1</clus>
<clus scale="   58.969">  1  5  2 -1</clus>
</clustering>
</event>
<event>
 9    1  0.1973774E-005  0.1030601E+03  0.7546771E-02  0.1284649E+00
          1   -1    0    0  502    0  0.00000000000E+00  0.00000000000E+00  0.99899244115E+02  0.99899244115E+02  0.00000000000E+00 0. -1.
         -2   -1    0    0    0  501 -0.00000000000E+00 -0.00000000000E+00 -0.22700677775E+03  0.22700677775E+03  0.00000000000E+00 0.  1.
         23    2    1    2    0    0 -0.15917736597E+02 -0.45261114165E+02 -0.18365995488E+03  0.21114066509E+03  0.92452466901E+02 0.  0.
        -24    2    1    2    0    0 -0.35474388754E+01  0.36350011145E+02  0.44090279627E+02  0.90994289234E+02  0.70725527802E+02 0.  0.
         13    1    4    4    0    0  0.21786848398E+02  0.43648319661E+02  0.13513645153E+02  0.50620758367E+02  0.00000000000E+00 0. -1.
        -14    1    4    4    0    0 -0.25334287274E+02 -0.72983085163E+01  0.30576634474E+02  0.40373530867E+02  0.00000000000E+00 0.  1.
        -11    1    3    3    0    0 -0.22631677645E+02 -0.71161323199E+02 -0.11164444152E+03  0.13431533075E+03  0.00000000000E+00 0. -1.
         11    1    3    3    0    0  0.67139410486E+01  0.25900209034E+02 -0.72015513362E+02  0.76825334344E+02  0.00000000000E+00 0.  1.
         21    1    1    2  502  501  0.19465175472E+02  0.89111030205E+01  0.12462141618E+02  0.24771067537E+02  0.00000000000E+00 0. -1.
<scales pt_clust_5="13000.00000" pt_clust_6="13000.00000" pt_clust_7="13000.00000" pt_clust_8="13000.00000" pt_clust_9="21.40796"></scales>
<clustering>
<clus scale="   21.408">  1  9  2 -1</clus>
<clus scale="   70.726">  5  6 -1 -1</clus>
<clus scale="   84.119">  1  5  2 -1</clus>
<clus scale="   92.452">  7  8 -1 -1</clus>
<clus scale="   21.408">  1  5  2 -1</clus>
</clustering>
</event>
<event>
 9    1  0.1973774E-005  0.1407415E+03  0.7546771E-02  0.1214940E+00
         -2   -1    0    0    0  501 -0.00000000000E+00  0.00000000000E+00  0.63670991384E+02  0.63670991384E+02  0.00000000000E+00 0.  1.
          1   -1    0    0  502    0  0.00000000000E+00 -0.00000000000E+00 -0.61327226332E+03  0.61327226332E+03  0.00000000000E+00 0. -1.
         23    2    1    2    0    0 -0.64068199438E+02  0.10475569637E+03 -0.69301178408E+02  0.16756537766E+03  0.90537353397E+02 0.  0.
        -24    2    1    2    0    0  0.60377993376E+02 -0.44668184400E+02 -0.28192585141E+03  0.30207021522E+03  0.78252670551E+02 0.  0.
         11    1    4    4    0    0  0.33349948336E+02 -0.35852236890E+02 -0.26390774253E+03  0.26841180770E+03  0.00000000000E+00 0. -1.
        -12    1    4    4    0    0  0.27028045040E+02 -0.88159475105E+01 -0.18018108873E+02  0.33658407517E+02  0.00000000000E+00 0.  1.
        -13    1    3    3    0    0 -0.78533825534E+02  0.44573393306E+02 -0.46779501549E+02  0.10169892285E+03  0.00000000000E+00 0.  1.
         13    1    3    3    0    0  0.14465626096E+02  0.60182303065E+02 -0.22521676859E+02  0.65866454809E+02  0.00000000000E+00 0. -1.
         21    1    1    2  502  501  0.36902060618E+01 -0.60087511970E+02 -0.19837424212E+03  0.20730766183E+03  0.00000000000E+00 0. -1.
<scales pt_clust_5="13000.00000" pt_clust_6="13000.00000" pt_clust_7="13000.00000" pt_clust_8="13000.00000" pt_clust_9="60.20072"></scales>
<clustering>
<clus scale="   60.201">  2  9  1 -1</clus>
<clus scale="   78.253">  5  6 -1 -1</clus>
<clus scale="   90.537">  7  8 -1 -1</clus>
<clus scale="  133.171">  2  5  1 -1</clus>
<clus scale="   60.201">  2  5  1 -1</clus>
</clustering>
</event>
<event>
 9    1  0.1973774E-005  0.1382174E+03  0.7546771E-02  0.1233793E+00
         -2   -1    0    0    0  501 -0.00000000000E+00  0.00000000000E+00  0.93448736663E+02  0.93448736663E+02  0.00000000000E+00 0.  1.
          1   -1    0    0  502    0  0.00000000000E+00 -0.00000000000E+00 -0.56315821012E+03  0.56315821012E+03  0.00000000000E+00 0. -1.
         23    2    1    2    0    0 -0.60338211369E+02 -0.40208731342E+02 -0.26884751551E+02  0.98643751030E+02  0.61240165937E+02 0.  0.
        -24    2    1    2    0    0 -0.45432989273E+02  0.91648244174E+02 -0.36457365910E+02  0.13491710088E+03  0.80062022250E+02 0.  0.
         13    1    4    4    0    0 -0.22842776845E+02  0.89635912716E+01 -0.42408065971E+02  0.48995739426E+02  0.00000000000E+00 0. -1.
        -14    1    4    4    0    0 -0.22590212428E+02  0.82684652903E+02  0.59507000612E+01  0.85921361456E+02  0.00000000000E+00 0.  1.
        -13    1    3    3    0    0 -0.68057647921E+02 -0.16653009210E+02 -0.21335566779E+02  0.73241877133E+02  0.00000000000E+00 0.  1.
         13    1    3    3    0    0  0.77194365514E+01 -0.23555722132E+02 -0.55491847717E+01  0.25401873897E+02  0.00000000000E+00 0. -1.
         21    1    1    2  502  501  0.10577120064E+03 -0.51439512832E+02 -0.40636735599E+03  0.42304609487E+03  0.00000000000E+00 0. -1.
<scales pt_clust_5="13000.00000" pt_clust_6="13000.00000" pt_clust_7="13000.00000" pt_clust_8="13000.00000" pt_clust_9="112.66825"></scales>
<clustering>
<clus scale="   61.240">  7  8 -1 -1</clus>
<clus scale="   80.062">  5  6 -1 -1</clus>
<clus scale="   94.909">  1  7  2 -1</clus>
<clus scale="  112.668">  2  9  1 -1</clus>
<clus scale="  112.668">  2  5  1 -1</clus>
</clustering>
</event>
<event>
 9    1  0.1973774E-005  0.9251373E+02  0.7546771E-02  0.1300196E+00
         -4   -1    0    0    0  501 -0.00000000000E+00  0.00000000000E+00  0.29642334792E+02  0.29642334792E+02  0.00000000000E+00 0.  1.
          3   -1    0    0  502    0  0.00000000000E+00 -0.00000000000E+00 -0.51032987564E+03  0.51032987564E+03  0.00000000000E+00 0. -1.
         23    2    1    2    0    0  0.30190018028E+02 -0.28003332558E+02 -0.86633656484E+02  0.12847199739E+03  0.85463675648E+02 0.  0.
        -24    2    1    2    0    0 -0.34143895644E+00  0.29452395611E+02 -0.23875376037E+03  0.25335102408E+03  0.79472153132E+02 0.  0.
         11    1    4    4    0    0 -0.31073076929E+02 -0.78752654933E+00 -0.16514645448E+03  0.16804614764E+03  0.00000000000E+00 0. -1.
        -12    1    4    4    0    0  0.30731637972E+02  0.30239922160E+02 -0.73607305891E+02  0.85304876445E+02  0.00000000000E+00 0.  1.
        -13    1    3    3    0    0 -0.20579583327E+02  0.47217933328E+01 -0.57808645680E+02  0.61543920069E+02  0.00000000000E+00 0. -1.
         13    1    3    3    0    0  0.50769601355E+02 -0.32725125890E+02 -0.28825010804E+02  0.66928077322E+02  0.00000000000E+00 0.  1.
         21    1    1    2  502  501 -0.29848579071E+02 -0.14490630535E+01 -0.15530012399E+03  0.15814918896E+03  0.00000000000E+00 0. -1.
<scales pt_clust_5="13000.00000" pt_clust_6="13000.00000" pt_clust_7="13000.00000" pt_clust_8="13000.00000" pt_clust_9="29.88373"></scales>
<clustering>
<clus scale="   29.884">  2  9  1 -1</clus>
<clus scale="   79.472">  5  6 -1 -1</clus>
<clus scale="   85.464">  7  8 -1 -1</clus>
<clus scale="   87.009">  2  5  1 -1</clus>
<clus scale="   29.884">  2  5  1 -1</clus>
</clustering>
</event>
<event>
 9    1  0.1973774E-005  0.9275418E+02  0.7546771E-02  0.1302805E+00
         -2   -1    0    0    0  501 -0.00000000000E+00  0.00000000000E+00  0.46016878176E+03  0.46016878176E+03  0.00000000000E+00 0.  1.
          1   -1    0    0  502    0  0.00000000000E+00 -0.00000000000E+00 -0.78776775620E+02  0.78776775620E+02  0.00000000000E+00 0. -1.
        -24    2    1    2    0    0  0.21444973075E+02 -0.62973452717E+01  0.41073434802E+03  0.41892139411E+03  0.79327715061E+02 0.  0.
         23    2    1    2    0    0 -0.77660089203E+01  0.24371658219E+02 -0.22771804958E+02  0.96424019107E+02  0.90137382593E+02 0.  0.
         13    1    3    3    0    0 -0.22460187451E+02 -0.18415676404E+02  0.80874387264E+02  0.85931738451E+02  0.00000000000E+00 0. -1.
        -14    1    3    3    0    0  0.43905160527E+02  0.12118331132E+02  0.32985996075E+03  0.33298965566E+03  0.00000000000E+00 0.  1.
        -11    1    4    4    0    0 -0.28126429913E+00 -0.27350723034E+02  0.15692361712E+02  0.31533971779E+02  0.00000000000E+00 0.  1.
         11    1    4    4    0    0 -0.74847446212E+01  0.51722381253E+02 -0.38464166670E+02  0.64890047328E+02  0.00000000000E+00 0. -1.
         21    1    1    2  502  501 -0.13678964155E+02 -0.18074312948E+02 -0.65705369205E+01  0.23600144159E+02  0.00000000000E+00 0. -1.
<scales pt_clust_5="13000.00000" pt_clust_6="13000.00000" pt_clust_7="13000.00000" pt_clust_8="13000.00000" pt_clust_9="22.66704"></scales>
<clustering>
<clus scale="   22.667">  2  9  1 -1</clus>
<clus scale="   79.328">  5  6 -1 -1</clus>
<clus scale="   82.289">  1  5  2 -1</clus>
<clus scale="   90.137">  7  8 -1 -1</clus>
<clus scale="   22.667">  2  5  1 -1</clus>
</clustering>
</event>
<event>
 9    1  0.1973774E-005  0.1075481E+03  0.7546771E-02  0.1270152E+00
          3   -1    0    0  502    0  0.00000000000E+00  0.00000000000E+00  0.17538039650E+03  0.17538039650E+03  0.00000000000E+00 0. -1.
         -4   -1    0    0    0  501 -0.00000000000E+00 -0.00000000000E+00 -0.11437989288E+03  0.11437989288E+03  0.00000000000E+00 0.  1.
        -24    2    1    2    0    0  0.83091476419E+01  0.68716124072E+02 -0.14533291316E+02  0.10610001830E+03  0.79088872067E+02 0.  0.
         23    2    1    2    0    0  0.40988455625E+02 -0.36460108033E+02  0.34027024425E+02  0.11159421627E+03  0.91027675689E+02 0.  0.
         11    1    3    3    0    0 -0.16342040853E+02  0.22275742891E+02  0.27353109761E+02  0.38877546658E+02  0.00000000000E+00 0. -1.
        -12    1    3    3    0    0  0.24651188494E+02  0.46440381181E+02 -0.41886401077E+02  0.67222471642E+02  0.00000000000E+00 0.  1.
        -11    1    4    4    0    0  0.23953083663E+02  0.19946700652E+02  0.41819226072E+02  0.52158113013E+02  0.00000000000E+00 0.  1.
         11    1    4    4    0    0  0.17035371963E+02 -0.56406808685E+02 -0.77922016465E+01  0.59436103257E+02  0.00000000000E+00 0. -1.
         21    1    1    2  502  501 -0.49297603267E+02 -0.32256016040E+02  0.41506770512E+02  0.72066054817E+02  0.00000000000E+00 0. -1.
<scales pt_clust_5="13000.00000" pt_clust_6="13000.00000" pt_clust_7="13000.00000" pt_clust_8="13000.00000" pt_clust_9="58.91268"></scales>
<clustering>
<clus scale="   58.913">  1  9  2 -1</clus>
<clus scale="   79.089">  5  6 -1 -1</clus>
<clus scale="   91.028">  7  8 -1 -1</clus>
<clus scale="   97.650">  2  5  1 -1</clus>
<clus scale="   58.913">  1  5  2 -1</clus>
</clustering>
</event>
<event>
 9    1  0.1973774E-005  0.1082184E+03  0.7546771E-02  0.1268598E+00
          1   -1    0    0  502    0  0.00000000000E+00  0.00000000000E+00  0.45049780282E+03  0.45049780282E+03  0.00000000000E+00 0. -1.
         -2   -1    0    0    0  501 -0.00000000000E+00 -0.00000000000E+00 -0.77770439335E+02  0.77770439335E+02  0.00000000000E+00 0.  1.
         23    2    1    2    0    0  0.32768842749E+02 -0.31880528036E+02  0.17569180864E+02  0.10528473994E+03  0.93198901410E+02 0.  0.
        -24    2    1    2    0    0  0.69687878420E+02  0.23239707376E+02  0.26213499746E+03  0.28432797051E+03  0.82043607477E+02 0.  0.
         11    1    4    4    0    0  0.43662950226E+02 -0.27602808369E+02  0.10245917276E+03  0.11474428237E+03  0.00000000000E+00 0. -1.
        -12    1    4    4    0    0  0.26024928194E+02  0.50842515745E+02  0.15967582469E+03  0.16958368815E+03  0.00000000000E+00 0.  1.
        -13    1    3    3    0    0  0.55778927456E+01  0.32174791708E+02  0.14220166992E+02  0.35616614918E+02  0.00000000000E+00 0.  1.
         13    1    3    3    0    0  0.27190950003E+02 -0.64055319744E+02  0.33490138713E+01  0.69668125017E+02  0.00000000000E+00 0. -1.
         21    1    1    2  502  501 -0.10245672117E+03  0.86408206604E+01  0.93023185166E+02  0.13865553171E+03  0.00000000000E+00 0.  1.
<scales pt_clust_5="13000.00000" pt_clust_6="13000.00000" pt_clust_7="13000.00000" pt_clust_8="13000.00000" pt_clust_9="102.82044"></scales>
<clustering>
<clus scale="   82.044">  5  6 -1 -1</clus>
<clus scale="   93.199">  7  8 -1 -1</clus>
<clus scale="  102.820">  2  9  1 -1</clus>
<clus scale="   98.774">  1  5  2 -1</clus>
<clus scale="   98.774">  1  5  2 -1</clus>
</clustering>
</event>
<event>
 9    1  0.1973774E-005  0.9456706E+02  0.7546771E-02  0.1296230E+00
          1   -1    0    0  502    0  0.00000000000E+00  0.00000000000E+00  0.18313229661E+03  0.18313229661E+03  0.00000000000E+00 0. -1.
         -2   -1    0    0    0  501 -0.00000000000E+00 -0.00000000000E+00 -0.13365594156E+03  0.13365594156E+03  0.00000000000E+00 0.  1.
         23    2    1    2    0    0 -0.20419048615E+01 -0.32602428344E+02 -0.80478889494E+02  0.12302321271E+03  0.87125033723E+02 0.  0.
        -24    2    1    2    0    0 -0.16760890589E+02  0.63310564022E+02  0.11594607892E+03  0.15512836625E+03  0.79574881901E+02 0.  0.
         11    1    4    4    0    0 -0.98304737366E+01  0.76883934182E+02  0.62552045240E+02  0.99601887095E+02  0.00000000000E+00 0. -1.
        -12    1    4    4    0    0 -0.69304168521E+01 -0.13573370160E+02  0.53394033676E+02  0.55526479156E+02  0.00000000000E+00 0.  1.
        -13    1    3    3    0    0 -0.18047760447E+02 -0.57178625889E+02 -0.36607088836E+02  0.70250949237E+02  0.00000000000E+00 0. -1.
         13    1    3    3    0    0  0.16005855586E+02  0.24576197545E+02 -0.43871800658E+02  0.52772263471E+02  0.00000000000E+00 0.  1.
         21    1    1    2  502  501  0.18802795450E+02 -0.30708135678E+02  0.14009165633E+02  0.38636659215E+02  0.00000000000E+00 0.  1.
<scales pt_clust_5="13000.00000" pt_clust_6="13000.00000" pt_clust_7="13000.00000" pt_clust_8="13000.00000" pt_clust_9="36.00743"></scales>
<clustering>
<clus scale="   36.007">  1  9  2 -1</clus>
<clus scale="   79.575">  5  6 -1 -1</clus>
<clus scale="   87.125">  7  8 -1 -1</clus>
<clus scale="   87.660">  1  5  2 -1</clus>
<clus scale="   36.007">  1  5  2 -1</clus>
</clustering>
</event>
<event>
 9    1  0.1973774E-005  0.1136191E+03  0.7546771E-02  0.1257272E+00
         -2   -1    0    0    0  501 -0.00000000000E+00  0.00000000000E+00  0.53174085709E+02  0.53174085709E+02  0.00000000000E+00 0.  1.
          1   -1    0    0  502    0  0.00000000000E+00 -0.00000000000E+00 -0.42391323996E+03  0.42391323996E+03  0.00000000000E+00 0. -1.
        -24    2    1    2    0    0  0.25993936465E+02 -0.59774156159E+02 -0.39458891047E+02  0.11227593920E+03  0.82463615997E+02 0.  0.
         23    2    1    2    0    0 -0.52539900464E+02  0.57025863683E+02 -0.22189434977E+03  0.25221689560E+03  0.91454194528E+02 0.  0.
         11    1    3    3    0    0  0.23310448781E+01 -0.71801385002E+02 -0.45522596209E+02  0.85048100649E+02  0.00000000000E+00 0. -1.
        -12    1    3    3    0    0  0.23662891587E+02  0.12027228843E+02  0.60637051618E+01  0.27227838552E+02  0.00000000000E+00 0.  1.
        -13    1    4    4    0    0 -0.39808363564E+02  0.31820900665E+02 -0.21780070383E+03  0.22368375470E+03  0.00000000000E+00 0. -1.
         13    1    4    4    0    0 -0.12731536900E+02  0.25204963018E+02 -0.40936459435E+01  0.28533140901E+02  0.00000000000E+00 0.  1.
         21    1    1    2  502  501  0.26545963999E+02  0.27482924756E+01 -0.10938591343E+03  0.11259449086E+03  0.00000000000E+00 0. -1.
<scales pt_clust_5="13000.00000" pt_clust_6="13000.00000" pt_clust_7="13000.00000" pt_clust_8="13000.00000" pt_clust_9="26.68785"></scales>
<clustering>
<clus scale="   26.688">  2  9  1 -1</clus>
<clus scale="   82.464">  5  6 -1 -1</clus>
<clus scale="   91.454">  7  8 -1 -1</clus>
<clus scale="  106.516">  1  5  2 -1</clus>
<clus scale="   26.688">  2  5  1 -1</clus>
</clustering>
</event>
<event>
 9    1  0.1973774E-005  0.1828855E+03  0.7546771E-02  0.1165821E+00
          1   -1    0    0  502    0  0.00000000000E+00  0.00000000000E+00  0.12367779719E+04  0.12367779719E+04  0.00000000000E+00 0. -1.
         -2   -1    0    0    0  501 -0.00000000000E+00 -0.00000000000E+00 -0.31961162602E+02  0.31961162602E+02  0.00000000000E+00 0.  1.
         23    2    1    2    0    0 -0.40067578194E+02  0.16291734431E+03  0.45758330096E+03  0.49524279772E+03  0.87951574632E+02 0.  0.
        -24    2    1    2    0    0  0.16817827499E+02 -0.15051121110E+03  0.60766788318E+03  0.63146455592E+03  0.80936797224E+02 0.  0.
         11    1    4    4    0    0 -0.10269636397E+02 -0.90794591887E+02  0.47221802772E+03  0.48097711905E+03  0.00000000000E+00 0. -1.
        -12    1    4    4    0    0  0.27087463896E+02 -0.59716619216E+02  0.13544985546E+03  0.15048743687E+03  0.00000000000E+00 0.  1.
        -13    1    3    3    0    0 -0.56601088372E+02  0.90890714898E+02  0.33909115614E+03  0.35559473763E+03  0.00000000000E+00 0. -1.
         13    1    3    3    0    0  0.16533510178E+02  0.72026629411E+02  0.11849214482E+03  0.13964806009E+03  0.00000000000E+00 0.  1.
         21    1    1    2  502  501  0.23249750695E+02 -0.12406133206E+02  0.13956562517E+03  0.14203178088E+03  0.00000000000E+00 0. -1.
<scales pt_clust_5="13000.00000" pt_clust_6="13000.00000" pt_clust_7="13000.00000" pt_clust_8="13000.00000" pt_clust_9="26.35267"></scales>
<clustering>
<clus scale="   26.353">  1  9  2 -1</clus>
<clus scale="   80.937">  5  6 -1 -1</clus>
<clus scale="   87.952">  7  8 -1 -1</clus>
<clus scale="  179.617">  1  5  2 -1</clus>
<clus scale="   26.353">  1  5  2 -1</clus>
</clustering>
</event>
<event>
 9    1  0.1973774E-005  0.1114527E+03  0.7546771E-02  0.1259689E+00
         -2   -1    0    0    0  501 -0.00000000000E+00  0.00000000000E+00  0.39809284168E+03  0.39809284168E+03  0.00000000000E+00 0.  1.
          1   -1    0    0  502    0  0.00000000000E+00 -0.00000000000E+00 -0.72018627776E+02  0.72018627776E+02  0.00000000000E+00 0. -1.
        -24    2    1    2    0    0 -0.42881910417E+02 -0.53856350780E+02  0.30929515511E+03  0.32826016275E+03  0.85743085526E+02 0.  0.
         23    2    1    2    0    0  0.16609466701E+02  0.49649333757E+02  0.34223877642E+02  0.11003524164E+03  0.90529276348E+02 0.  0.
         11    1    3    3    0    0  0.25945584358E+02 -0.91262352354E+01  0.89837283021E+02  0.93953174177E+02  0.00000000000E+00 0. -1.
        -12    1    3    3    0    0 -0.68827494776E+02 -0.44730115545E+02  0.21945787209E+03  0.23430698857E+03  0.00000000000E+00 0.  1.
        -11    1    4    4    0    0 -0.28192444005E+02  0.82707843440E+01  0.39037833115E+02  0.48858696124E+02  0.00000000000E+00 0.  1.
         11    1    4    4    0    0  0.44801910706E+02  0.41378549413E+02 -0.48139554724E+01  0.61176545520E+02  0.00000000000E+00 0. -1.
         21    1    1    2  502  501  0.26272443717E+02  0.42070170230E+01 -0.17444818849E+02  0.31816065058E+02  0.00000000000E+00 0. -1.
<scales pt_clust_5="13000.00000" pt_clust_6="13000.00000" pt_clust_7="13000.00000" pt_clust_8="13000.00000" pt_clust_9="26.60715"></scales>
<clustering>
<clus scale="   26.607">  2  9  1 -1</clus>
<clus scale="   85.743">  5  6 -1 -1</clus>
<clus scale="   90.529">  7  8 -1 -1</clus>
<clus scale="  107.601">  1  5  2 -1</clus>
<clus scale="   26.607">  2  5  1 -1</clus>
</clustering>
</event>
<event>
 9    1  0.1973774E-005  0.9851619E+02  0.7546771E-02  0.1287193E+00
         -2   -1    0    0    0  501 -0.00000000000E+00  0.00000000000E+00  0.31101961909E+02  0.31101961909E+02  0.00000000000E+00 0.  1.
          1   -1    0    0  502    0  0.00000000000E+00 -0.00000000000E+00 -0.66209785935E+03  0.66209785935E+03  0.00000000000E+00 0. -1.
        -24    2    1    2    0    0  0.30694847863E+02  0.17470646886E+02 -0.90652976497E+02  0.13545879636E+03  0.94253520759E+02 0.  0.
         23    2    1    2    0    0  0.10609664912E+02 -0.29412174635E+02 -0.31530804966E+03  0.32863546810E+03  0.87203576244E+02 0.  0.
         13    1    3    3    0    0  0.20167060760E+02 -0.74953698983E+01 -0.10332911845E+03  0.10554523973E+03  0.00000000000E+00 0. -1.
        -14    1    3    3    0    0  0.10527787103E+02  0.24966016785E+02  0.12676141955E+02  0.29913556630E+02  0.00000000000E+00 0.  1.
        -13    1    4    4    0    0  0.31584678846E+02 -0.46448904599E+02 -0.27081957463E+03  0.27658332321E+03  0.00000000000E+00 0. -1.
         13    1    4    4    0    0 -0.20975013934E+02  0.17036729965E+02 -0.44488475029E+02  0.52052144892E+02  0.00000000000E+00 0.  1.
         21    1    1    2  502  501 -0.41304512775E+02  0.11941527749E+02 -0.22503487128E+03  0.22910555679E+03  0.00000000000E+00 0. -1.
<scales pt_clust_5="13000.00000" pt_clust_6="13000.00000" pt_clust_7="13000.00000" pt_clust_8="13000.00000" pt_clust_9="42.99608"></scales>
<clustering>
<clus scale="   42.996">  2  9  1 -1</clus>
<clus scale="   87.204">  7  8 -1 -1</clus>
<clus scale="   91.794">  2  7  1 -1</clus>
<clus scale="   94.254">  5  6 -1 -1</clus>
<clus scale="   42.996">  2  5  1 -1</clus>
</clustering>
</event>
<event>
 9    1  0.1973774E-005  0.1209961E+03  0.7546771E-02  0.1245293E+00
          1   -1    0    0  502    0  0.00000000000E+00  0.00000000000E+00  0.52888752427E+03  0.52888752427E+03  0.00000000000E+00 0. -1.
         -2   -1    0    0    0  501 -0.00000000000E+00 -0.00000000000E+00 -0.50867180837E+02  0.50867180837E+02  0.00000000000E+00 0.  1.
        -24    2    1    2    0    0  0.62913685144E+02 -0.46301324024E+02  0.72757468490E+02  0.13319769706E+03  0.79661991533E+02 0.  0.
         23    2    1    2    0    0 -0.27426228412E+02  0.89810938853E+02  0.28662307957E+03  0.31530211399E+03  0.91893583044E+02 0.  0.
         13    1    3    3    0    0  0.23012870860E+02 -0.14495149134E+02  0.77323550566E+02  0.81967268137E+02  0.00000000000E+00 0. -1.
        -14    1    3    3    0    0  0.39900814284E+02 -0.31806174890E+02 -0.45660820767E+01  0.51230428918E+02  0.00000000000E+00 0.  1.
        -11    1    4    4    0    0  0.96964202403E+01  0.74675961133E+02  0.24967306426E+03  0.26078182213E+03  0.00000000000E+00 0.  1.
         11    1    4    4    0    0 -0.37122648652E+02  0.15134977720E+02  0.36950015310E+02  0.54520291864E+02  0.00000000000E+00 0. -1.
         21    1    1    2  502  501 -0.35487456731E+02 -0.43509614830E+02  0.11863979537E+03  0.13125489405E+03  0.00000000000E+00 0. -1.
<scales pt_clust_5="13000.00000" pt_clust_6="13000.00000" pt_clust_7="13000.00000" pt_clust_8="13000.00000" pt_clust_9="56.14665"></scales>
<clustering>
<clus scale="   56.147">  1  9  2 -1</clus>
<clus scale="   79.662">  5  6 -1 -1</clus>
<clus scale="   91.894">  7  8 -1 -1</clus>
<clus scale="  111.990">  2  5  1 -1</clus>
<clus scale="   56.147">  1  5  2 -1</clus>
</clustering>
</event>
<event>
 9    1  0.1973774E-005  0.1988049E+03  0.7546771E-02  0.1151590E+00
         -2   -1    0    0    0  501 -0.00000000000E+00  0.00000000000E+00  0.11794903220E+04  0.11794903220E+04  0.00000000000E+00 0.  1.
          1   -1    0    0  502    0  0.00000000000E+00 -0.00000000000E+00 -0.12783820242E+03  0.12783820242E+03  0.00000000000E+00 0. -1.
        -24    2    1    2    0    0 -0.16410564592E+03 -0.58826486385E+01  0.94966806041E+03  0.96732169164E+03  0.82925035889E+02 0.  0.
         23    2    1    2    0    0  0.16715580086E+03 -0.63114913446E+02 -0.17913386789E+02  0.20164005726E+03  0.91723874781E+02 0.  0.
         13    1    3    3    0    0 -0.84192385161E+02 -0.40187476038E+02  0.39432133801E+03  0.40520699470E+03  0.00000000000E+00 0. -1.
        -14    1    3    3    0    0 -0.79913260757E+02  0.34304827399E+02  0.55534672240E+03  0.56211469694E+03  0.00000000000E+00 0.  1.
        -11    1    4    4    0    0  0.10996781259E+03 -0.51768056046E+02 -0.54078690754E+02  0.13303141067E+03  0.00000000000E+00 0. -1.
         11    1    4    4    0    0  0.57187988278E+02 -0.11346857400E+02  0.36165303965E+02  0.68608646591E+02  0.00000000000E+00 0.  1.
         21    1    1    2  502  501 -0.30501549464E+01  0.68997562084E+02  0.11989744594E+03  0.13836677550E+03  0.00000000000E+00 0.  1.
<scales pt_clust_5="13000.00000" pt_clust_6="13000.00000" pt_clust_7="13000.00000" pt_clust_8="13000.00000" pt_clust_9="69.06495"></scales>
<clustering>
<clus scale="   69.065">  1  9  2 -1</clus>
<clus scale="   82.925">  5  6 -1 -1</clus>
<clus scale="   91.724">  7  8 -1 -1</clus>
<clus scale="  194.902">  1  5  2 -1</clus>
<clus scale="  198.805">  2  5  1 -1</clus>
</clustering>
</event>
<event>
 9    1  0.1973774E-005  0.1021342E+03  0.7546771E-02  0.1281037E+00
         -2   -1    0    0    0  501 -0.00000000000E+00  0.00000000000E+00  0.21187579165E+03  0.21187579165E+03  0.00000000000E+00 0.  1.
          1   -1    0    0  502    0  0.00000000000E+00 -0.00000000000E+00 -0.64482265255E+02  0.64482265255E+02  0.00000000000E+00 0. -1.
        -24    2    1    2    0    0  0.29226981235E+02 -0.30808534948E+02  0.92613812735E+02  0.12927544510E+03  0.79570347100E+02 0.  0.
         23    2    1    2    0    0 -0.49044582987E+02  0.27981933500E+02  0.64651143015E+02  0.12476284181E+03  0.90540801195E+02 0.  0.
         11    1    3    3    0    0  0.18676342370E+02  0.24385676627E+02  0.17123614240E+02  0.35166534568E+02  0.00000000000E+00 0. -1.
        -12    1    3    3    0    0  0.10550638865E+02 -0.55194211576E+02  0.75490198495E+02  0.94108910528E+02  0.00000000000E+00 0.  1.
        -13    1    4    4    0    0 -0.32913698231E+02 -0.31176208852E+02  0.29414554281E+02  0.54041498251E+02  0.00000000000E+00 0. -1.
         13    1    4    4    0    0 -0.16130884756E+02  0.59158142352E+02  0.35236588734E+02  0.70721343561E+02  0.00000000000E+00 0.  1.
         21    1    1    2  502  501  0.19817601752E+02  0.28266014482E+01 -0.98714293589E+01  0.22319769993E+02  0.00000000000E+00 0. -1.
<scales pt_clust_5="13000.00000" pt_clust_6="13000.00000" pt_clust_7="13000.00000" pt_clust_8="13000.00000" pt_clust_9="20.01817"></scales>
<clustering>
<clus scale="   20.018">  2  9  1 -1</clus>
<clus scale="   79.570">  5  6 -1 -1</clus>
<clus scale="   90.541">  7  8 -1 -1</clus>
<clus scale="   92.548">  1  5  2 -1</clus>
<clus scale="   20.018">  2  5  1 -1</clus>
</clustering>
</event>
<event>
 9    1  0.1973774E-005  0.1087338E+03  0.7546771E-02  0.1267141E+00
         -2   -1    0    0    0  501 -0.00000000000E+00  0.00000000000E+00  0.86323205095E+02  0.86323205095E+02  0.00000000000E+00 0.  1.
          1   -1    0    0  502    0  0.00000000000E+00 -0.00000000000E+00 -0.48671870782E+03  0.48671870782E+03  0.00000000000E+00 0. -1.
        -24    2    1    2    0    0  0.52020087021E+02 -0.23756407626E+02  0.40405018772E+02  0.10676752916E+03  0.80599524710E+02 0.  0.
         23    2    1    2    0    0 -0.73534890463E+02  0.40718414446E+02 -0.34223696089E+03  0.36397398336E+03  0.91025017282E+02 0.  0.
         11    1    3    3    0    0  0.27065044171E+02  0.29424116012E+02  0.13971296500E+02  0.42349643977E+02  0.00000000000E+00 0. -1.
        -12    1    3    3    0    0  0.24955042850E+02 -0.53180523638E+02  0.26433722272E+02  0.64417885181E+02  0.00000000000E+00 0.  1.
        -11    1    4    4    0    0 -0.22028864157E+02  0.63555010135E+02 -0.17371488274E+03  0.18628303909E+03  0.00000000000E+00 0. -1.
         11    1    4    4    0    0 -0.51506026306E+02 -0.22836595689E+02 -0.16852207816E+03  0.17769094427E+03  0.00000000000E+00 0.  1.
         21    1    1    2  502  501  0.21514803442E+02 -0.16962006820E+02 -0.98563560604E+02  0.10230040040E+03  0.00000000000E+00 0.  1.
<scales pt_clust_5="13000.00000" pt_clust_6="13000.00000" pt_clust_7="13000.00000" pt_clust_8="13000.00000" pt_clust_9="27.39702"></scales>
<clustering>
<clus scale="   27.397">  2  9  1 -1</clus>
<clus scale="   80.600">  5  6 -1 -1</clus>
<clus scale="   91.025">  7  8 -1 -1</clus>
<clus scale="  100.169">  1  5  2 -1</clus>
<clus scale="   27.397">  2  5  1 -1</clus>
</clustering>
</event>
<event>
 9    1  0.2558581E-005  0.1012369E+03  0.7546771E-02  0.1286632E+00
          1   -1    0    0  502    0  0.00000000000E+00  0.00000000000E+00  0.36496699228E+03  0.36496699228E+03  0.00000000000E+00 0. -1.
         -2   -1    0    0    0  501 -0.00000000000E+00 -0.00000000000E+00 -0.22006853161E+03  0.22006853161E+03  0.00000000000E+00 0.  1.
         23    2    1    2    0    0  0.29360108779E+02  0.75200538315E+01 -0.19013099796E+03  0.21567877520E+03  0.97205815102E+02 0.  0.
        -24    2    1    2    0    0  0.21518156074E+02 -0.94945316054E+01  0.28812423598E+03  0.30012816854E+03  0.80673198920E+02 0.  0.
         11    1    4    4    0    0  0.44619054451E+02 -0.29392307093E+02  0.17585924753E+03  0.18379674284E+03  0.00000000000E+00 0. -1.
        -12    1    4    4    0    0 -0.23100898377E+02  0.19897775488E+02  0.11226498845E+03  0.11633142570E+03  0.00000000000E+00 0.  1.
        -11    1    3    3    0    0 -0.33949419784E+01  0.37841633894E+02 -0.15291418873E+03  0.15756352370E+03  0.00000000000E+00 0. -1.
         11    1    3    3    0    0  0.32755050758E+02 -0.30321580063E+02 -0.37216809239E+02  0.58115251506E+02  0.00000000000E+00 0.  1.
         21    1    1    2  502  501 -0.50878264854E+02  0.19744777739E+01  0.46905222657E+02  0.69228580149E+02  0.00000000000E+00 0.  1.
<scales pt_clust_5="13000.00000" pt_clust_6="13000.00000" pt_clust_7="13000.00000" pt_clust_8="13000.00000" pt_clust_9="50.91656"></scales>
<clustering>
<clus scale="   50.917">  1  9  2 -1</clus>
<clus scale="   80.673">  5  6 -1 -1</clus>
<clus scale="   85.487">  1  5  2 -1</clus>
<clus scale="   97.206">  7  8 -1 -1</clus>
<clus scale="   50.917">  1  5  2 -1</clus>
</clustering>
</event>
<event>
 9    1  0.2881881E-005  0.1492345E+03  0.7546771E-02  0.1203258E+00
          1   -1    0    0  502    0  0.00000000000E+00  0.00000000000E+00  0.34358048640E+03  0.34358048640E+03  0.00000000000E+00 0. -1.
         -2   -1    0    0    0  501 -0.00000000000E+00 -0.00000000000E+00 -0.34987834071E+03  0.34987834071E+03  0.00000000000E+00 0.  1.
         23    2    1    2    0    0  0.33910133939E+02  0.11370294148E+03 -0.30768793869E+03  0.34159110504E+03  0.89075020860E+02 0.  0.
        -24    2    1    2    0    0 -0.43721398438E+02 -0.13187687752E+03  0.27812177005E+03  0.32075554898E+03  0.78926115570E+02 0.  0.
         13    1    4    4    0    0 -0.27440282480E+02 -0.13432163849E+03  0.26903152414E+03  0.30194905638E+03  0.00000000000E+00 0. -1.
        -14    1    4    4    0    0 -0.16281115958E+02  0.24447609712E+01  0.90902459096E+01  0.18806492595E+02  0.00000000000E+00 0.  1.
        -11    1    3    3    0    0  0.61872118117E+02  0.92047127152E+02 -0.20648416109E+03  0.23438545475E+03  0.00000000000E+00 0.  1.
         11    1    3    3    0    0 -0.27961984178E+02  0.21655814327E+02 -0.10120377760E+03  0.10720565029E+03  0.00000000000E+00 0. -1.
         21    1    1    2  502  501  0.98112644984E+01  0.18173936043E+02  0.23268314333E+02  0.31112173088E+02  0.00000000000E+00 0.  1.
<scales pt_clust_5="13000.00000" pt_clust_6="13000.00000" pt_clust_7="13000.00000" pt_clust_8="13000.00000" pt_clust_9="20.65316"></scales>
<clustering>
<clus scale="   20.653">  1  9  2 -1</clus>
<clus scale="   78.926">  5  6 -1 -1</clus>
<clus scale="   89.075">  7  8 -1 -1</clus>
<clus scale="  143.408">  1  5  2 -1</clus>
<clus scale="   20.653">  1  5  2 -1</clus>
</clustering>
</event>
<event>
 9    1  0.1973774E-005  0.2113541E+03  0.7546771E-02  0.1141454E+00
          1   -1    0    0  502    0  0.00000000000E+00  0.00000000000E+00  0.11320846143E+04  0.11320846143E+04  0.00000000000E+00 0. -1.
         -2   -1    0    0    0  501 -0.00000000000E+00 -0.00000000000E+00 -0.68162593053E+02  0.68162593053E+02  0.00000000000E+00 0.  1.
        -24    2    1    2    0    0 -0.17343710691E+03  0.20975505418E+02  0.20093182497E+03  0.27736459728E+03  0.77698903863E+02 0.  0.
         23    2    1    2    0    0  0.19325292359E+03  0.66670244607E+02  0.72169660890E+03  0.75543613527E+03  0.89700307602E+02 0.  0.
         13    1    3    3    0    0 -0.90753322950E+02 -0.14120566151E+00  0.49075669293E+02  0.10317270415E+03  0.00000000000E+00 0. -1.
        -14    1    3    3    0    0 -0.82683783956E+02  0.21116711080E+02  0.15185615568E+03  0.17419189313E+03  0.00000000000E+00 0.  1.
        -13    1    4    4    0    0  0.71098858854E+02  0.36911222235E+02  0.43600441757E+03  0.44330276133E+03  0.00000000000E+00 0. -1.
         13    1    4    4    0    0  0.12215406474E+03  0.29759022372E+02  0.28569219133E+03  0.31213337395E+03  0.00000000000E+00 0.  1.
         21    1    1    2  502  501 -0.19815816689E+02 -0.87645750025E+02  0.14129358738E+03  0.16744647480E+03  0.00000000000E+00 0. -1.
<scales pt_clust_5="13000.00000" pt_clust_6="13000.00000" pt_clust_7="13000.00000" pt_clust_8="13000.00000" pt_clust_9="89.85791"></scales>
<clustering>
<clus scale="   77.699">  5  6 -1 -1</clus>
<clus scale="   89.700">  7  8 -1 -1</clus>
<clus scale="   89.858">  2  9  1 -1</clus>
<clus scale="  206.547">  2  5  1 -1</clus>
<clus scale="  211.354">  1  5  2 -1</clus>
</clustering>
</event>
<event>
 9    1  0.1973774E-005  0.9299708E+02  0.7546771E-02  0.1301433E+00
          1   -1    0    0  502    0  0.00000000000E+00  0.00000000000E+00  0.11884100601E+03  0.11884100601E+03  0.00000000000E+00 0. -1.
         -2   -1    0    0    0  501 -0.00000000000E+00 -0.00000000000E+00 -0.24073875289E+03  0.24073875289E+03  0.00000000000E+00 0.  1.
        -24    2    1    2    0    0 -0.17385232738E+02 -0.19569432655E+02 -0.15771356643E+03  0.17987993713E+03  0.82450068126E+02 0.  0.
         23    2    1    2    0    0 -0.29725360115E+02 -0.10932178239E+02 -0.21477041745E+02  0.99498648562E+02  0.91845567059E+02 0.  0.
         11    1    3    3    0    0  0.13085793397E+02  0.25497590975E+02 -0.32335921987E+02  0.43208529078E+02  0.00000000000E+00 0. -1.
        -12    1    3    3    0    0 -0.30471026136E+02 -0.45067023630E+02 -0.12537764445E+03  0.13667140805E+03  0.00000000000E+00 0.  1.
        -13    1    4    4    0    0 -0.61022850311E+01  0.38928599129E+02 -0.20269392952E+02  0.44311646363E+02  0.00000000000E+00 0. -1.
         13    1    4    4    0    0 -0.23623075084E+02 -0.49860777368E+02 -0.12076487931E+01  0.55187002199E+02  0.00000000000E+00 0.  1.
         21    1    1    2  502  501  0.47110592854E+02  0.30501610895E+02  0.57292861300E+02  0.80201173196E+02  0.00000000000E+00 0. -1.
<scales pt_clust_5="13000.00000" pt_clust_6="13000.00000" pt_clust_7="13000.00000" pt_clust_8="13000.00000" pt_clust_9="56.12269"></scales>
<clustering>
<clus scale="   56.123">  1  9  2 -1</clus>
<clus scale="   82.450">  5  6 -1 -1</clus>
<clus scale="   83.731">  2  5  1 -1</clus>
<clus scale="   91.846">  7  8 -1 -1</clus>
<clus scale="   56.123">  1  5  2 -1</clus>
</clustering>
</event>
<event>
 9    1  0.1973774E-005  0.9674540E+02  0.7546771E-02  0.1293081E+00
         -2   -1    0    0    0  501 -0.00000000000E+00  0.00000000000E+00  0.52759450650E+03  0.52759450650E+03  0.00000000000E+00 0.  1.
          1   -1    0    0  502    0  0.00000000000E+00 -0.00000000000E+00 -0.41945270676E+02  0.41945270676E+02  0.00000000000E+00 0. -1.
        -24    2    1    2    0    0 -0.26267409288E+02  0.13934482574E+02  0.35456101300E+03  0.36470261216E+03  0.80064578846E+02 0.  0.
         23    2    1    2    0    0  0.31750770723E+02 -0.35656239245E+02  0.14564570000E+03  0.17811971552E+03  0.90744059247E+02 0.  0.
         13    1    3    3    0    0  0.21520267029E+02 -0.17681626071E+02  0.12957514211E+03  0.13253482276E+03  0.00000000000E+00 0. -1.
        -14    1    3    3    0    0 -0.47787676317E+02  0.31616108644E+02  0.22498587089E+03  0.23216778940E+03  0.00000000000E+00 0.  1.
        -13    1    4    4    0    0 -0.17112026039E+02 -0.16874495294E+02  0.11495058653E+03  0.11743597137E+03  0.00000000000E+00 0.  1.
         13    1    4    4    0    0  0.48862796762E+02 -0.18781743951E+02  0.30695113466E+02  0.60683744149E+02  0.00000000000E+00 0. -1.
         21    1    1    2  502  501 -0.54833614346E+01  0.21721756672E+02 -0.14557477179E+02  0.26717449492E+02  0.00000000000E+00 0. -1.
<scales pt_clust_5="13000.00000" pt_clust_6="13000.00000" pt_clust_7="13000.00000" pt_clust_8="13000.00000" pt_clust_9="22.40317"></scales>
<clustering>
<clus scale="   22.403">  2  9  1 -1</clus>
<clus scale="   80.065">  5  6 -1 -1</clus>
<clus scale="   86.807">  1  5  2 -1</clus>
<clus scale="   90.744">  7  8 -1 -1</clus>
<clus scale="   22.403">  2  5  1 -1</clus>
</clustering>
</event>
<event>
 9    1  0.1973774E-005  0.1614071E+03  0.7546771E-02  0.1189237E+00
          1   -1    0    0  502    0  0.00000000000E+00  0.00000000000E+00  0.36593150804E+03  0.36593150804E+03  0.00000000000E+00 0. -1.
         -2   -1    0    0    0  501 -0.00000000000E+00 -0.00000000000E+00 -0.93931392432E+02  0.93931392432E+02  0.00000000000E+00 0.  1.
        -24    2    1    2    0    0 -0.12126009800E+02  0.13787696201E+03  0.31331916209E+02  0.16295297056E+03  0.80092976440E+02 0.  0.
         23    2    1    2    0    0  0.19419305357E+02 -0.11367869458E+03  0.20926781162E+03  0.25660195725E+03  0.93549946372E+02 0.  0.
         13    1    3    3    0    0 -0.37136565554E+01  0.14703722170E+03  0.31897668817E+02  0.15050314644E+03  0.00000000000E+00 0. -1.
        -14    1    3    3    0    0 -0.84123532441E+01 -0.91602596935E+01 -0.56575260799E+00  0.12449824126E+02  0.00000000000E+00 0.  1.
        -13    1    4    4    0    0 -0.14731807666E+02 -0.95618244773E+02  0.19048455781E+03  0.21364513019E+03  0.00000000000E+00 0.  1.
         13    1    4    4    0    0  0.34151113022E+02 -0.18060449803E+02  0.18783253810E+02  0.42956827065E+02  0.00000000000E+00 0. -1.
         21    1    1    2  502  501 -0.72932955570E+01 -0.24198267434E+02  0.31400387787E+02  0.40307972661E+02  0.00000000000E+00 0.  1.
<scales pt_clust_5="13000.00000" pt_clust_6="13000.00000" pt_clust_7="13000.00000" pt_clust_8="13000.00000" pt_clust_9="25.27347"></scales>
<clustering>
<clus scale="   25.273">  1  9  2 -1</clus>
<clus scale="   80.093">  5  6 -1 -1</clus>
<clus scale="   93.550">  7  8 -1 -1</clus>
<clus scale="  153.999">  2  5  1 -1</clus>
<clus scale="   25.273">  1  5  2 -1</clus>
</clustering>
</event>
<event>
 9    1  0.1973774E-005  0.1622349E+03  0.7546771E-02  0.1187941E+00
         -2   -1    0    0    0  501 -0.00000000000E+00  0.00000000000E+00  0.53022806830E+02  0.53022806830E+02  0.00000000000E+00 0.  1.
          1   -1    0    0  502    0  0.00000000000E+00 -0.00000000000E+00 -0.64096709208E+03  0.64096709208E+03  0.00000000000E+00 0. -1.
         23    2    1    2    0    0  0.98910569353E+02 -0.10950551711E+03 -0.23541780636E+03  0.29286221194E+03  0.92584948153E+02 0.  0.
        -24    2    1    2    0    0 -0.99879577810E+02  0.68594654829E+02 -0.23431663741E+03  0.27603490439E+03  0.81300831113E+02 0.  0.
         13    1    4    4    0    0 -0.86153918853E+02  0.11295916888E+02 -0.13450672242E+03  0.16013167659E+03  0.00000000000E+00 0. -1.
        -14    1    4    4    0    0 -0.13725658956E+02  0.57298737942E+02 -0.99809914990E+02  0.11590322780E+03  0.00000000000E+00 0.  1.
        -13    1    3    3    0    0  0.61506733060E+02 -0.37235771608E+02 -0.18155991125E+03  0.19527821760E+03  0.00000000000E+00 0. -1.
         13    1    3    3    0    0  0.37403836294E+02 -0.72269745507E+02 -0.53857895114E+02  0.97583994339E+02  0.00000000000E+00 0.  1.
         21    1    1    2  502  501  0.96900845638E+00  0.40910862286E+02 -0.11820984147E+03  0.12509278257E+03  0.00000000000E+00 0. -1.
<scales pt_clust_5="13000.00000" pt_clust_6="13000.00000" pt_clust_7="13000.00000" pt_clust_8="13000.00000" pt_clust_9="40.92234"></scales>
<clustering>
<clus scale="   40.922">  2  9  1 -1</clus>
<clus scale="   81.301">  5  6 -1 -1</clus>
<clus scale="   92.585">  7  8 -1 -1</clus>
<clus scale="  156.071">  2  5  1 -1</clus>
<clus scale="   40.922">  2  5  1 -1</clus>
</clustering>
</event>
<event>
 9    1  0.1973774E-005  0.9593363E+02  0.7546771E-02  0.1292920E+00
          3   -1    0    0  502    0  0.00000000000E+00  0.00000000000E+00  0.69265775579E+02  0.69265775579E+02  0.00000000000E+00 0. -1.
         -4   -1    0    0    0  501 -0.00000000000E+00 -0.00000000000E+00 -0.47992454098E+03  0.47992454098E+03  0.00000000000E+00 0.  1.
         23    2    1    2    0    0 -0.39414556390E+02  0.22052531726E+02 -0.31698091403E+03  0.33268992406E+03  0.90365171949E+02 0.  0.
        -24    2    1    2    0    0 -0.48456159797E+02 -0.61483705281E+01 -0.98175480387E+01  0.93998328918E+02  0.79708843345E+02 0.  0.
         13    1    4    4    0    0 -0.42624105965E+02  0.32650283847E+02 -0.60000882023E+00  0.53695581338E+02  0.00000000000E+00 0. -1.
        -14    1    4    4    0    0 -0.58320538325E+01 -0.38798654375E+02 -0.92175392184E+01  0.40302747580E+02  0.00000000000E+00 0.  1.
        -11    1    3    3    0    0 -0.61787599191E+02  0.38819765621E+02 -0.23546418723E+03  0.24651179502E+03  0.00000000000E+00 0.  1.
         11    1    3    3    0    0  0.22373042801E+02 -0.16767233895E+02 -0.81516726803E+02  0.86178129043E+02  0.00000000000E+00 0. -1.
         21    1    1    2  502  501  0.87870716187E+02 -0.15904161198E+02 -0.83860303337E+02  0.12250206358E+03  0.00000000000E+00 0.  1.
<scales pt_clust_5="13000.00000" pt_clust_6="13000.00000" pt_clust_7="13000.00000" pt_clust_8="13000.00000" pt_clust_9="89.29840"></scales>
<clustering>
<clus scale="   79.709">  5  6 -1 -1</clus>
<clus scale="   89.298">  1  9  2 -1</clus>
<clus scale="   89.298">  1  5  2 -1</clus>
<clus scale="   90.365">  7  8 -1 -1</clus>
<clus scale="   89.298">  1  5  2 -1</clus>
</clustering>
</event>
<event>
 9    1  0.1973774E-005  0.4837416E+03  0.7546771E-02  0.1054416E+00
         -4   -1    0    0    0  501 -0.00000000000E+00  0.00000000000E+00  0.14224581853E+04  0.14224581853E+04  0.00000000000E+00 0.  1.
          3   -1    0    0  502    0  0.00000000000E+00 -0.00000000000E+00 -0.43887655377E+03  0.43887655377E+03  0.00000000000E+00 0. -1.
        -24    2    1    2    0    0 -0.48697595817E+03  0.10618418229E+03  0.10622312675E+04  0.11761204465E+04  0.80643503044E+02 0.  0.
         23    2    1    2    0    0  0.10829172223E+03  0.86763193592E+02 -0.18292886041E+03  0.24760191041E+03  0.92675720676E+02 0.  0.
         13    1    3    3    0    0 -0.11832390055E+03  0.32880790431E+01  0.19384896869E+03  0.22713163489E+03  0.00000000000E+00 0. -1.
        -14    1    3    3    0    0 -0.36865205762E+03  0.10289610325E+03  0.86838229878E+03  0.94898881157E+03  0.00000000000E+00 0.  1.
        -13    1    4    4    0    0  0.16077880161E+02 -0.19020544775E+02 -0.16363122754E+02  0.29799851347E+02  0.00000000000E+00 0.  1.
         13    1    4    4    0    0  0.92213842071E+02  0.10578373837E+03 -0.16656573766E+03  0.21780205907E+03  0.00000000000E+00 0. -1.
         21    1    1    2  502  501  0.37868423593E+03 -0.19294737588E+03  0.10427922448E+03  0.43761238221E+03  0.00000000000E+00 0. -1.
<scales pt_clust_5="13000.00000" pt_clust_6="13000.00000" pt_clust_7="13000.00000" pt_clust_8="13000.00000" pt_clust_9="476.97226"></scales>
<clustering>
<clus scale="   80.644">  5  6 -1 -1</clus>
<clus scale="   92.676">  7  8 -1 -1</clus>
<clus scale="  166.864">  2  7  1 -1</clus>
<clus scale="  476.972">  2  9  1 -1</clus>
<clus scale="  166.864">  2  5  1 -1</clus>
</clustering>
</event>
<event>
 9    1  0.1973774E-005  0.9805762E+02  0.7546771E-02  0.1290859E+00
         -4   -1    0    0    0  501 -0.00000000000E+00  0.00000000000E+00  0.31572518455E+03  0.31572518455E+03  0.00000000000E+00 0.  1.
          3   -1    0    0  502    0  0.00000000000E+00 -0.00000000000E+00 -0.10998311668E+03  0.10998311668E+03  0.00000000000E+00 0. -1.
         23    2    1    2    0    0  0.26105790581E+02  0.21213472611E+02  0.26691377590E+03  0.28463528403E+03  0.92966431725E+02 0.  0.
        -24    2    1    2    0    0  0.84737527036E+01 -0.31086698734E+02 -0.26732946521E+02  0.91280912373E+02  0.81113298607E+02 0.  0.
         13    1    4    4    0    0 -0.69831131377E+01 -0.41503165677E+02 -0.47441778866E+02  0.63419232196E+02  0.00000000000E+00 0. -1.
        -14    1    4    4    0    0  0.15456865841E+02  0.10416466943E+02  0.20708832345E+02  0.27861680177E+02  0.00000000000E+00 0.  1.
        -11    1    3    3    0    0  0.47621877794E+02  0.13517606220E+02  0.25318117074E+03  0.25797533630E+03  0.00000000000E+00 0.  1.
         11    1    3    3    0    0 -0.21516087213E+02  0.76958663902E+01  0.13732605162E+02  0.26659947731E+02  0.00000000000E+00 0. -1.
         21    1    1    2  502  501 -0.34579543285E+02  0.98732261236E+01 -0.34438761518E+02  0.49792104824E+02  0.00000000000E+00 0. -1.
<scales pt_clust_5="13000.00000" pt_clust_6="13000.00000" pt_clust_7="13000.00000" pt_clust_8="13000.00000" pt_clust_9="35.96144"></scales>
<clustering>
<clus scale="   35.961">  2  9  1 -1</clus>
<clus scale="   81.113">  5  6 -1 -1</clus>
<clus scale="   86.902">  2  5  1 -1</clus>
<clus scale="   92.966">  7  8 -1 -1</clus>
<clus scale="   35.961">  2  5  1 -1</clus>
</clustering>
</event>
<event>
 9    1  0.1973774E-005  0.1025825E+03  0.7546771E-02  0.1284263E+00
         -2   -1    0    0    0  501 -0.00000000000E+00  0.00000000000E+00  0.20999487997E+03  0.20999487997E+03  0.00000000000E+00 0.  1.
          1   -1    0    0  502    0  0.00000000000E+00 -0.00000000000E+00 -0.22564020927E+03  0.22564020927E+03  0.00000000000E+00 0. -1.
        -24    2    1    2    0    0 -0.17809586310E+02  0.19176890995E+02  0.13327192968E+03  0.15765356346E+03  0.80051885168E+02 0.  0.
         23    2    1    2    0    0  0.42042197781E+02 -0.30325888904E+02  0.15249071841E+02  0.11166224311E+03  0.97717533803E+02 0.  0.
         13    1    3    3    0    0 -0.43949669753E+02  0.32411824812E+02  0.80108661553E+02  0.96951005744E+02  0.00000000000E+00 0. -1.
        -14    1    3    3    0    0  0.26140083443E+02 -0.13234933817E+02  0.53163268124E+02  0.60702557715E+02  0.00000000000E+00 0.  1.
        -11    1    4    4    0    0  0.55175579762E+02  0.15504216228E+02 -0.92611288909E+01  0.58055954314E+02  0.00000000000E+00 0.  1.
         11    1    4    4    0    0 -0.13133381982E+02 -0.45830105132E+02  0.24510200732E+02  0.53606288797E+02  0.00000000000E+00 0. -1.
         21    1    1    2  502  501 -0.24232611471E+02  0.11148997909E+02 -0.16416633082E+03  0.16631928267E+03  0.00000000000E+00 0. -1.
<scales pt_clust_5="13000.00000" pt_clust_6="13000.00000" pt_clust_7="13000.00000" pt_clust_8="13000.00000" pt_clust_9="26.67432"></scales>
<clustering>
<clus scale="   26.674">  2  9  1 -1</clus>
<clus scale="   80.052">  5  6 -1 -1</clus>
<clus scale="   85.923">  1  5  2 -1</clus>
<clus scale="   97.718">  7  8 -1 -1</clus>
<clus scale="   26.674">  2  5  1 -1</clus>
</clustering>
</event>
<event>
 9    1  0.1973774E-005  0.9402222E+02  0.7546771E-02  0.1303112E+00
         -2   -1    0    0    0  501 -0.00000000000E+00  0.00000000000E+00  0.33064776710E+03  0.33064776710E+03  0.00000000000E+00 0.  1.
          1   -1    0    0  502    0  0.00000000000E+00 -0.00000000000E+00 -0.87324007273E+03  0.87324007273E+03  0.00000000000E+00 0. -1.
        -24    2    1    2    0    0 -0.12996124301E+02  0.16023290548E+02  0.31640848771E+03  0.32605217733E+03  0.75960819887E+02 0.  0.
         23    2    1    2    0    0 -0.56044300888E+02  0.71428114008E+01 -0.49232109234E+03  0.50399445061E+03  0.91860572972E+02 0.  0.
         13    1    3    3    0    0  0.29898900325E+02  0.58291808439E+01  0.18377636254E+03  0.18628385603E+03  0.00000000000E+00 0. -1.
        -14    1    3    3    0    0 -0.42895024626E+02  0.10194109704E+02  0.13263212517E+03  0.13976832130E+03  0.00000000000E+00 0.  1.
        -13    1    4    4    0    0  0.18583526467E+02 -0.15307226376E+02 -0.59035021011E+02  0.63755723987E+02  0.00000000000E+00 0.  1.
         13    1    4    4    0    0 -0.74627827355E+02  0.22450037777E+02 -0.43328607133E+03  0.44023872663E+03  0.00000000000E+00 0. -1.
         21    1    1    2  502  501  0.69040425189E+02 -0.23166101949E+02 -0.36667970099E+03  0.37384121189E+03  0.00000000000E+00 0.  1.
<scales pt_clust_5="13000.00000" pt_clust_6="13000.00000" pt_clust_7="13000.00000" pt_clust_8="13000.00000" pt_clust_9="72.82341"></scales>
<clustering>
<clus scale="   72.823">  2  9  1 -1</clus>
<clus scale="   75.961">  5  6 -1 -1</clus>
<clus scale="   78.561">  1  5  2 -1</clus>
<clus scale="   91.861">  7  8 -1 -1</clus>
<clus scale="   72.823">  2  5  1 -1</clus>
</clustering>
</event>
<event>
 9    1  0.1973774E-005  0.1256998E+03  0.7546771E-02  0.1236527E+00
         -2   -1    0    0    0  501 -0.00000000000E+00  0.00000000000E+00  0.11661207368E+03  0.11661207368E+03  0.00000000000E+00 0.  1.
          1   -1    0    0  502    0  0.00000000000E+00 -0.00000000000E+00 -0.17604241969E+03  0.17604241969E+03  0.00000000000E+00 0. -1.
         23    2    1    2    0    0 -0.81957033665E+02  0.13185542941E+01  0.20618916942E+02  0.12423928738E+03  0.91058041051E+02 0.  0.
        -24    2    1    2    0    0  0.95864248674E+02 -0.16599263688E+02 -0.72262253126E+02  0.14633471164E+03  0.82015394130E+02 0.  0.
         13    1    4    4    0    0  0.29376148115E+01  0.23510570788E+02 -0.25603394851E+02  0.34884242108E+02  0.00000000000E+00 0. -1.
        -14    1    4    4    0    0  0.92926633863E+02 -0.40109834476E+02 -0.46658858275E+02  0.11145046953E+03  0.00000000000E+00 0.  1.
        -13    1    3    3    0    0 -0.25828736986E+02 -0.29906843141E+02 -0.23815337943E+02  0.46137980474E+02  0.00000000000E+00 0.  1.
         13    1    3    3    0    0 -0.56128296679E+02  0.31225397435E+02  0.44434254885E+02  0.78101306905E+02  0.00000000000E+00 0. -1.
         21    1    1    2  502  501 -0.13907215010E+02  0.15280709394E+02 -0.77870098199E+01  0.22080494352E+02  0.00000000000E+00 0. -1.
<scales pt_clust_5="13000.00000" pt_clust_6="13000.00000" pt_clust_7="13000.00000" pt_clust_8="13000.00000" pt_clust_9="20.66182"></scales>
<clustering>
<clus scale="   20.662">  2  9  1 -1</clus>
<clus scale="   82.015">  5  6 -1 -1</clus>
<clus scale="   91.058">  7  8 -1 -1</clus>
<clus scale="  119.312">  2  5  1 -1</clus>
<clus scale="   20.662">  2  5  1 -1</clus>
</clustering>
</event>
<event>
 9    1  0.1973774E-005  0.9810363E+02  0.7546771E-02  0.1291189E+00
         -2   -1    0    0    0  501 -0.00000000000E+00  0.00000000000E+00  0.84356210175E+02  0.84356210175E+02  0.00000000000E+00 0.  1.
          1   -1    0    0  502    0  0.00000000000E+00 -0.00000000000E+00 -0.28966119427E+03  0.28966119427E+03  0.00000000000E+00 0. -1.
        -24    2    1    2    0    0 -0.18209047439E+02  0.31331872427E+02 -0.41363559537E+01  0.87867673390E+02  0.79939745734E+02 0.  0.
         23    2    1    2    0    0 -0.63086027283E+02 -0.33673231893E+02 -0.86227665390E+02  0.14534562580E+03  0.92608894153E+02 0.  0.
         11    1    3    3    0    0  0.22079140540E+02  0.30221235616E+02 -0.22400720812E+02  0.43618847096E+02  0.00000000000E+00 0. -1.
        -12    1    3    3    0    0 -0.40288187979E+02  0.11106368107E+01  0.18264364858E+02  0.44248826294E+02  0.00000000000E+00 0.  1.
        -13    1    4    4    0    0 -0.42800218984E+02 -0.64965673091E+02 -0.45509220534E+02  0.90130386546E+02  0.00000000000E+00 0. -1.
         13    1    4    4    0    0 -0.20285808299E+02  0.31292441198E+02 -0.40718444856E+02  0.55215239255E+02  0.00000000000E+00 0.  1.
         21    1    1    2  502  501  0.81295074722E+02  0.23413594667E+01 -0.11494096275E+03  0.14080410525E+03  0.00000000000E+00 0. -1.
<scales pt_clust_5="13000.00000" pt_clust_6="13000.00000" pt_clust_7="13000.00000" pt_clust_8="13000.00000" pt_clust_9="81.32878"></scales>
<clustering>
<clus scale="   79.940">  5  6 -1 -1</clus>
<clus scale="   81.329">  2  9  1 -1</clus>
<clus scale="   86.245">  1  5  2 -1</clus>
<clus scale="   92.609">  7  8 -1 -1</clus>
<clus scale="   81.329">  2  5  1 -1</clus>
</clustering>
</event>
<event>
 9    1  0.1973774E-005  0.1173532E+03  0.7546771E-02  0.1250981E+00
         -2   -1    0    0    0  501 -0.00000000000E+00  0.00000000000E+00  0.91445060678E+03  0.91445060678E+03  0.00000000000E+00 0.  1.
          1   -1    0    0  502    0  0.00000000000E+00 -0.00000000000E+00 -0.10504171028E+03  0.10504171028E+03  0.00000000000E+00 0. -1.
        -24    2    1    2    0    0 -0.41966225842E+02 -0.66357930759E+02  0.79475864025E+03  0.80259217629E+03  0.79676634681E+02 0.  0.
         23    2    1    2    0    0 -0.52788441140E+02  0.54505184017E+02 -0.10087241582E+02  0.11825492639E+03  0.90139006929E+02 0.  0.
         13    1    3    3    0    0 -0.54540600636E+02 -0.14811554792E+02  0.32871718069E+03  0.33354016873E+03  0.00000000000E+00 0. -1.
        -14    1    3    3    0    0  0.12574374795E+02 -0.51546375966E+02  0.46604145956E+03  0.46905200757E+03  0.00000000000E+00 0.  1.
        -11    1    4    4    0    0 -0.52917443394E+02 -0.38800846794E+01  0.14343714597E+02  0.54964106660E+02  0.00000000000E+00 0.  1.
         11    1    4    4    0    0  0.12900225425E+00  0.58385268696E+02 -0.24430956179E+02  0.63290819730E+02  0.00000000000E+00 0. -1.
         21    1    1    2  502  501  0.94754666982E+02  0.11852746742E+02  0.24737497842E+02  0.98645214378E+02  0.00000000000E+00 0. -1.
<scales pt_clust_5="13000.00000" pt_clust_6="13000.00000" pt_clust_7="13000.00000" pt_clust_8="13000.00000" pt_clust_9="95.49311"></scales>
<clustering>
<clus scale="   79.677">  5  6 -1 -1</clus>
<clus scale="   90.139">  7  8 -1 -1</clus>
<clus scale="   95.493">  2  9  1 -1</clus>
<clus scale="  109.522">  1  5  2 -1</clus>
<clus scale="   95.493">  2  5  1 -1</clus>
</clustering>
</event>
<event>
 9    1  0.1973774E-005  0.1182317E+03  0.7546771E-02  0.1250070E+00
          1   -1    0    0  502    0  0.00000000000E+00  0.00000000000E+00  0.37907374258E+03  0.37907374258E+03  0.00000000000E+00 0. -1.
         -2   -1    0    0    0  501 -0.00000000000E+00 -0.00000000000E+00 -0.44995431295E+02  0.44995431295E+02  0.00000000000E+00 0.  1.
        -24    2    1    2    0    0 -0.68505141817E+02  0.50629398066E+02  0.10688263268E+03  0.15737309680E+03  0.78013486171E+02 0.  0.
         23    2    1    2    0    0  0.59803008287E+02 -0.23249989377E+02  0.18439378076E+03  0.21514647371E+03  0.90387924852E+02 0.  0.
         11    1    3    3    0    0 -0.51848878165E+02  0.61007988806E+02  0.11144614056E+03  0.13722435320E+03  0.00000000000E+00 0. -1.
        -12    1    3    3    0    0 -0.16656263652E+02 -0.10378590740E+02 -0.45635078810E+01  0.20148743603E+02  0.00000000000E+00 0.  1.
        -13    1    4    4    0    0  0.18720203414E+02  0.18728978000E+02  0.57545930141E+01  0.27098634163E+02  0.00000000000E+00 0. -1.
         13    1    4    4    0    0  0.41082804873E+02 -0.41978967376E+02  0.17863918775E+03  0.18804783954E+03  0.00000000000E+00 0.  1.
         21    1    1    2  502  501  0.87021335308E+01 -0.27379408689E+02  0.42801897848E+02  0.51549603369E+02  0.00000000000E+00 0.  1.
<scales pt_clust_5="13000.00000" pt_clust_6="13000.00000" pt_clust_7="13000.00000" pt_clust_8="13000.00000" pt_clust_9="28.72906"></scales>
<clustering>
<clus scale="   28.729">  1  9  2 -1</clus>
<clus scale="   78.013">  5  6 -1 -1</clus>
<clus scale="   90.388">  7  8 -1 -1</clus>
<clus scale="  109.064">  2  5  1 -1</clus>
<clus scale="   28.729">  1  5  2 -1</clus>
</clustering>
</event>
<event>
 9    1  0.1973774E-005  0.1221801E+03  0.7546771E-02  0.1243289E+00
         -2   -1    0    0    0  501 -0.00000000000E+00  0.00000000000E+00  0.18614370612E+03  0.18614370612E+03  0.00000000000E+00 0.  1.
          1   -1    0    0  502    0  0.00000000000E+00 -0.00000000000E+00 -0.33257698204E+03  0.33257698204E+03  0.00000000000E+00 0. -1.
        -24    2    1    2    0    0  0.51579469268E+02  0.74062120807E+02  0.10785132021E+03  0.16195849486E+03  0.80330613081E+02 0.  0.
         23    2    1    2    0    0 -0.44045599860E+02 -0.38005169207E+02 -0.10009738131E+02  0.10972561869E+03  0.92493831072E+02 0.  0.
         13    1    3    3    0    0  0.68257462534E+02  0.41489178325E+02  0.52436949747E+02  0.95551383079E+02  0.00000000000E+00 0. -1.
        -14    1    3    3    0    0 -0.16677993266E+02  0.32572942482E+02  0.55414370461E+02  0.66407111779E+02  0.00000000000E+00 0.  1.
        -11    1    4    4    0    0 -0.41790475540E+02  0.84404004540E+01  0.26853220437E+02  0.50386304226E+02  0.00000000000E+00 0.  1.
         11    1    4    4    0    0 -0.22551243199E+01 -0.46445569661E+02 -0.36862958569E+02  0.59339314466E+02  0.00000000000E+00 0. -1.
         21    1    1    2  502  501 -0.75338694072E+01 -0.36056951600E+02 -0.24427485799E+03  0.24703657461E+03  0.00000000000E+00 0. -1.
<scales pt_clust_5="13000.00000" pt_clust_6="13000.00000" pt_clust_7="13000.00000" pt_clust_8="13000.00000" pt_clust_9="36.83562"></scales>
<clustering>
<clus scale="   36.836">  2  9  1 -1</clus>
<clus scale="   80.331">  5  6 -1 -1</clus>
<clus scale="   92.494">  7  8 -1 -1</clus>
<clus scale="  113.251">  1  5  2 -1</clus>
<clus scale="   36.836">  2  5  1 -1</clus>
</clustering>
</event>
<event>
 9    1  0.1973774E-005  0.1061652E+03  0.7546771E-02  0.1274096E+00
         -2   -1    0    0    0  501 -0.00000000000E+00  0.00000000000E+00  0.51243676736E+02  0.51243676736E+02  0.00000000000E+00 0.  1.
          1   -1    0    0  502    0  0.00000000000E+00 -0.00000000000E+00 -0.38046099616E+03  0.38046099616E+03  0.00000000000E+00 0. -1.
         23    2    1    2    0    0 -0.22779747276E+02 -0.55590514708E+02 -0.43138833788E+02  0.11754235338E+03  0.91356574186E+02 0.  0.
        -24    2    1    2    0    0 -0.12306927638E+02  0.42262086851E+02 -0.23166887822E+03  0.24806294641E+03  0.76988387378E+02 0.  0.
         11    1    4    4    0    0  0.27893701319E+02  0.29344509080E+02 -0.15845295466E+03  0.16354356492E+03  0.00000000000E+00 0. -1.
        -12    1    4    4    0    0 -0.40200628957E+02  0.12917577772E+02 -0.73215923566E+02  0.84519381491E+02  0.00000000000E+00 0.  1.
        -11    1    3    3    0    0 -0.27469467093E+02 -0.22917756722E+02  0.23758635282E+02  0.42944940866E+02  0.00000000000E+00 0.  1.
         11    1    3    3    0    0  0.46897198164E+01 -0.32672757986E+02 -0.66897469070E+02  0.74597412518E+02  0.00000000000E+00 0. -1.
         21    1    1    2  502  501  0.35086674915E+02  0.13328427857E+02 -0.54409607410E+02  0.66099373100E+02  0.00000000000E+00 0. -1.
<scales pt_clust_5="13000.00000" pt_clust_6="13000.00000" pt_clust_7="13000.00000" pt_clust_8="13000.00000" pt_clust_9="37.53294"></scales>
<clustering>
<clus scale="   37.533">  2  9  1 -1</clus>
<clus scale="   76.988">  5  6 -1 -1</clus>
<clus scale="   91.357">  7  8 -1 -1</clus>
<clus scale="   94.086">  2  5  1 -1</clus>
<clus scale="   37.533">  2  5  1 -1</clus>
</clustering>
</event>
<event>
 9    1  0.1973774E-005  0.2081504E+03  0.7546771E-02  0.1143204E+00
         -4   -1    0    0    0  501 -0.00000000000E+00  0.00000000000E+00  0.19661202930E+03  0.19661202930E+03  0.00000000000E+00 0.  1.
          3   -1    0    0  502    0  0.00000000000E+00 -0.00000000000E+00 -0.75783442741E+03  0.75783442741E+03  0.00000000000E+00 0. -1.
        -24    2    1    2    0    0  0.11151630555E+03  0.12762745342E+03  0.85262484035E+02  0.20534826098E+03  0.78572029586E+02 0.  0.
         23    2    1    2    0    0 -0.90270531058E+02 -0.17269847937E+03 -0.66367767951E+03  0.69638792543E+03  0.80712742781E+02 0.  0.
         13    1    3    3    0    0 -0.75193301370E+00  0.20940453021E+02  0.38047890815E+02  0.43436274834E+02  0.00000000000E+00 0. -1.
        -14    1    3    3    0    0  0.11226823857E+03  0.10668700040E+03  0.47214593220E+02  0.16191198615E+03  0.00000000000E+00 0.  1.
        -13    1    4    4    0    0 -0.32713497137E+02 -0.45078920003E+01 -0.11325191393E+03  0.11796817365E+03  0.00000000000E+00 0.  1.
         13    1    4    4    0    0 -0.57557033921E+02 -0.16819058737E+03 -0.55042576558E+03  0.57841975178E+03  0.00000000000E+00 0. -1.
         21    1    1    2  502  501 -0.21245774494E+02  0.45071025948E+02  0.17192797361E+02  0.52710270298E+02  0.00000000000E+00 0.  1.
<scales pt_clust_5="13000.00000" pt_clust_6="13000.00000" pt_clust_7="13000.00000" pt_clust_8="13000.00000" pt_clust_9="49.82751"></scales>
<clustering>
<clus scale="   49.828">  1  9  2 -1</clus>
<clus scale="   78.572">  5  6 -1 -1</clus>
<clus scale="   80.713">  7  8 -1 -1</clus>
<clus scale="  207.330">  1  5  2 -1</clus>
<clus scale="  208.150">  2  5  1 -1</clus>
</clustering>
</event>
<event>
 9    1  0.1973774E-005  0.1090622E+03  0.7546771E-02  0.1268805E+00
         -2   -1    0    0    0  501 -0.00000000000E+00  0.00000000000E+00  0.38087910108E+02  0.38087910108E+02  0.00000000000E+00 0.  1.
          1   -1    0    0  502    0  0.00000000000E+00 -0.00000000000E+00 -0.44027274499E+03  0.44027274499E+03  0.00000000000E+00 0. -1.
        -24    2    1    2    0    0  0.53135252633E+02  0.13905577532E+02 -0.82138047629E+02  0.12266008947E+03  0.72678184625E+02 0.  0.
         23    2    1    2    0    0 -0.83977371163E+02 -0.40642660411E+01 -0.24317920570E+03  0.27229365476E+03  0.89101016900E+02 0.  0.
         11    1    3    3    0    0  0.25996757184E+02  0.81372403765E+01 -0.89829471328E+02  0.93868951119E+02  0.00000000000E+00 0. -1.
        -12    1    3    3    0    0  0.27138495449E+02  0.57683371556E+01  0.76914236991E+01  0.28791138347E+02  0.00000000000E+00 0.  1.
        -13    1    4    4    0    0  0.96077468836E+01  0.23094327127E+02 -0.46697043625E+02  0.52974244959E+02  0.00000000000E+00 0.  1.
         13    1    4    4    0    0 -0.93585118046E+02 -0.27158593168E+02 -0.19648216208E+03  0.21931940980E+03  0.00000000000E+00 0. -1.
         21    1    1    2  502  501  0.30842118529E+02 -0.98413114910E+01 -0.76867581548E+02  0.83406910867E+02  0.00000000000E+00 0. -1.
<scales pt_clust_5="13000.00000" pt_clust_6="13000.00000" pt_clust_7="13000.00000" pt_clust_8="13000.00000" pt_clust_9="32.37418"></scales>
<clustering>
<clus scale="   32.374">  2  9  1 -1</clus>
<clus scale="   72.678">  5  6 -1 -1</clus>
<clus scale="   89.101">  7  8 -1 -1</clus>
<clus scale="   96.113">  1  5  2 -1</clus>
<clus scale="   32.374">  2  5  1 -1</clus>
</clustering>
</event>
<event>
 9    1  0.1973774E-005  0.1058290E+03  0.7546771E-02  0.1273179E+00
          3   -1    0    0  502    0  0.00000000000E+00  0.00000000000E+00  0.13303600983E+03  0.13303600983E+03  0.00000000000E+00 0. -1.
         -4   -1    0    0    0  501 -0.00000000000E+00 -0.00000000000E+00 -0.12783343439E+03  0.12783343439E+03  0.00000000000E+00 0.  1.
         23    2    1    2    0    0  0.46834082442E+02 -0.11980723881E+02 -0.43636033546E+02  0.11249555243E+03  0.91728822455E+02 0.  0.
        -24    2    1    2    0    0 -0.62802876308E+02 -0.11652809075E+02  0.15193753544E+02  0.10426581368E+03  0.80997040217E+02 0.  0.
         13    1    4    4    0    0 -0.54152525978E+02  0.26261173551E+01  0.44764200468E+02  0.70308080657E+02  0.00000000000E+00 0. -1.
        -14    1    4    4    0    0 -0.86503503294E+01 -0.14278926430E+02 -0.29570446924E+02  0.33957733023E+02  0.00000000000E+00 0.  1.
        -13    1    3    3    0    0  0.11806799611E+02 -0.28181735277E+02 -0.62477772160E+02  0.69549138991E+02  0.00000000000E+00 0.  1.
         13    1    3    3    0    0  0.35027282832E+02  0.16201011397E+02  0.18841738615E+02  0.42946413434E+02  0.00000000000E+00 0. -1.
         21    1    1    2  502  501  0.15968793865E+02  0.23633532956E+02  0.33644855442E+02  0.44108078117E+02  0.00000000000E+00 0.  1.
<scales pt_clust_5="13000.00000" pt_clust_6="13000.00000" pt_clust_7="13000.00000" pt_clust_8="13000.00000" pt_clust_9="28.52273"></scales>
<clustering>
<clus scale="   28.523">  1  9  2 -1</clus>
<clus scale="   80.997">  5  6 -1 -1</clus>
<clus scale="   91.729">  7  8 -1 -1</clus>
<clus scale="   96.675">  1  5  2 -1</clus>
<clus scale="   28.523">  1  5  2 -1</clus>
</clustering>
</event>
<event>
 9    1  0.1973774E-005  0.1097320E+03  0.7546771E-02  0.1266260E+00
         -4   -1    0    0    0  501 -0.00000000000E+00  0.00000000000E+00  0.30332010345E+03  0.30332010345E+03  0.00000000000E+00 0.  1.
          3   -1    0    0  502    0  0.00000000000E+00 -0.00000000000E+00 -0.61485753953E+02  0.61485753953E+02  0.00000000000E+00 0. -1.
        -24    2    1    2    0    0  0.25365629393E+02 -0.26866071833E+02  0.14340362139E+03  0.16788379207E+03  0.79089620311E+02 0.  0.
         23    2    1    2    0    0 -0.51775102916E+02  0.48169305220E+02  0.28960845474E+02  0.11960872472E+03  0.92013983779E+02 0.  0.
         13    1    3    3    0    0  0.25000499731E+02  0.24839480059E+02  0.50904646665E+02  0.61913712605E+02  0.00000000000E+00 0. -1.
        -14    1    3    3    0    0  0.36512966205E+00 -0.51705551892E+02  0.92498974723E+02  0.10597007946E+03  0.00000000000E+00 0.  1.
        -13    1    4    4    0    0 -0.24514253730E+02  0.73853067126E+02  0.12991852216E+02  0.78892410179E+02  0.00000000000E+00 0. -1.
         13    1    4    4    0    0 -0.27260849186E+02 -0.25683761906E+02  0.15968993258E+02  0.40716314539E+02  0.00000000000E+00 0.  1.
         21    1    1    2  502  501  0.26409473523E+02 -0.21303233388E+02  0.69469882637E+02  0.77313340622E+02  0.00000000000E+00 0.  1.
<scales pt_clust_5="13000.00000" pt_clust_6="13000.00000" pt_clust_7="13000.00000" pt_clust_8="13000.00000" pt_clust_9="33.93064"></scales>
<clustering>
<clus scale="   33.931">  1  9  2 -1</clus>
<clus scale="   79.090">  5  6 -1 -1</clus>
<clus scale="   92.014">  7  8 -1 -1</clus>
<clus scale="   99.145">  1  5  2 -1</clus>
<clus scale="  109.732">  2  5  1 -1</clus>
</clustering>
</event>
<event>
 9    1  0.1973774E-005  0.1028387E+03  0.7546771E-02  0.1279312E+00
          1   -1    0    0  502    0  0.00000000000E+00  0.00000000000E+00  0.36519244152E+03  0.36519244152E+03  0.00000000000E+00 0. -1.
         -2   -1    0    0    0  501 -0.00000000000E+00 -0.00000000000E+00 -0.80467455166E+02  0.80467455166E+02  0.00000000000E+00 0.  1.
         23    2    1    2    0    0 -0.10329807043E+02 -0.39267726474E+02 -0.20091972259E+02  0.10652512183E+03  0.96411902670E+02 0.  0.
        -24    2    1    2    0    0  0.21992253099E+02  0.15538659981E+02  0.11009386174E+03  0.14262481149E+03  0.86579843553E+02 0.  0.
         11    1    4    4    0    0  0.28682439895E+02  0.48724854891E+02  0.63388235889E+02  0.84940345488E+02  0.00000000000E+00 0. -1.
        -12    1    4    4    0    0 -0.66901867962E+01 -0.33186194910E+02  0.46705625854E+02  0.57684466006E+02  0.00000000000E+00 0.  1.
        -11    1    3    3    0    0 -0.10300875556E+02  0.29774308835E+02  0.71431996610E+01  0.32305460920E+02  0.00000000000E+00 0. -1.
         11    1    3    3    0    0 -0.28931486966E-01 -0.69042035310E+02 -0.27235171920E+02  0.74219660914E+02  0.00000000000E+00 0.  1.
         21    1    1    2  502  501 -0.11662446055E+02  0.23729066494E+02  0.19472309687E+03  0.19650996336E+03  0.00000000000E+00 0. -1.
<scales pt_clust_5="13000.00000" pt_clust_6="13000.00000" pt_clust_7="13000.00000" pt_clust_8="13000.00000" pt_clust_9="26.44014"></scales>
<clustering>
<clus scale="   26.440">  1  9  2 -1</clus>
<clus scale="   86.580">  5  6 -1 -1</clus>
<clus scale="   93.684">  1  5  2 -1</clus>
<clus scale="   96.412">  7  8 -1 -1</clus>
<clus scale="   26.440">  1  5  2 -1</clus>
</clustering>
</event>
<event>
 9    1  0.1973774E-005  0.1693183E+03  0.7546771E-02  0.1180149E+00
         -2   -1    0    0    0  501 -0.00000000000E+00  0.00000000000E+00  0.54731415600E+03  0.54731415600E+03  0.00000000000E+00 0.  1.
          1   -1    0    0  502    0  0.00000000000E+00 -0.00000000000E+00 -0.20123355450E+03  0.20123355450E+03  0.00000000000E+00 0. -1.
        -24    2    1    2    0    0  0.27133128570E+02 -0.12724976837E+03  0.35138784680E+03  0.38350473251E+03  0.81693027623E+02 0.  0.
         23    2    1    2    0    0 -0.55094597300E+02  0.17813239687E+03  0.11023488607E+03  0.23573377592E+03  0.93016759421E+02 0.  0.
         11    1    3    3    0    0  0.26707065922E+02 -0.58702474492E+02  0.75817897995E+02  0.99536935547E+02  0.00000000000E+00 0. -1.
        -12    1    3    3    0    0  0.42606264826E+00 -0.68547293878E+02  0.27556994881E+03  0.28396779697E+03  0.00000000000E+00 0.  1.
        -13    1    4    4    0    0 -0.28382570947E+02  0.12748402375E+03  0.12033378481E+03  0.17758931954E+03  0.00000000000E+00 0.  1.
         13    1    4    4    0    0 -0.26712026353E+02  0.50648373120E+02 -0.10098898747E+02  0.58144456378E+02  0.00000000000E+00 0. -1.
         21    1    1    2  502  501  0.27961468730E+02 -0.50882628504E+02 -0.11554213137E+03  0.12930920207E+03  0.00000000000E+00 0.  1.
<scales pt_clust_5="13000.00000" pt_clust_6="13000.00000" pt_clust_7="13000.00000" pt_clust_8="13000.00000" pt_clust_9="58.05933"></scales>
<clustering>
<clus scale="   58.059">  2  9  1 -1</clus>
<clus scale="   81.693">  5  6 -1 -1</clus>
<clus scale="   93.017">  7  8 -1 -1</clus>
<clus scale="  163.372">  1  5  2 -1</clus>
<clus scale="   58.059">  2  5  1 -1</clus>
</clustering>
</event>
<event>
 9    1  0.1973774E-005  0.9572039E+02  0.7546771E-02  0.1290105E+00
         -2   -1    0    0    0  501 -0.00000000000E+00  0.00000000000E+00  0.20897831975E+03  0.20897831975E+03  0.00000000000E+00 0.  1.
          1   -1    0    0  502    0  0.00000000000E+00 -0.00000000000E+00 -0.58593312509E+02  0.58593312509E+02  0.00000000000E+00 0. -1.
        -24    2    1    2    0    0 -0.20957195832E+01  0.42172673795E+02  0.79932393536E+02  0.12237634605E+03  0.82485490120E+02 0.  0.
         23    2    1    2    0    0 -0.14488086442E+02 -0.55442552652E+02  0.73532985622E+02  0.12373366935E+03  0.81358095250E+02 0.  0.
         11    1    3    3    0    0  0.30570481475E+02  0.21500180079E+02  0.74486200257E+02  0.83336703257E+02  0.00000000000E+00 0. -1.
        -12    1    3    3    0    0 -0.32666201059E+02  0.20672493716E+02  0.54461932786E+01  0.39039642791E+02  0.00000000000E+00 0.  1.
        -13    1    4    4    0    0 -0.29523994670E+02 -0.33480810922E+02 -0.93865844459E+00  0.44648763039E+02  0.00000000000E+00 0. -1.
         13    1    4    4    0    0  0.15035908227E+02 -0.21961741730E+02  0.74471644066E+02  0.79084906309E+02  0.00000000000E+00 0.  1.
         21    1    1    2  502  501  0.16583806025E+02  0.13269878856E+02 -0.30803719169E+01  0.21461616861E+02  0.00000000000E+00 0. -1.
<scales pt_clust_5="13000.00000" pt_clust_6="13000.00000" pt_clust_7="13000.00000" pt_clust_8="13000.00000" pt_clust_9="21.23940"></scales>
<clustering>
<clus scale="   21.239">  2  9  1 -1</clus>
<clus scale="   81.358">  7  8 -1 -1</clus>
<clus scale="   82.485">  5  6 -1 -1</clus>
<clus scale="   94.751">  2  7  1 -1</clus>
<clus scale="   21.239">  2  5  1 -1</clus>
</clustering>
</event>
<event>
 9    1  0.1973774E-005  0.9805010E+02  0.7546771E-02  0.1291547E+00
         -2   -1    0    0    0  501 -0.00000000000E+00  0.00000000000E+00  0.23106903075E+02  0.23106903075E+02  0.00000000000E+00 0.  1.
          1   -1    0    0  502    0  0.00000000000E+00 -0.00000000000E+00 -0.98459041323E+03  0.98459041323E+03  0.00000000000E+00 0. -1.
         23    2    1    2    0    0 -0.14297285562E+02  0.27440022700E+02 -0.11025906818E+03  0.14738948604E+03  0.92785943209E+02 0.  0.
        -24    2    1    2    0    0 -0.11555522762E+02 -0.43845705848E+02 -0.70253113494E+03  0.70849474225E+03  0.79742261124E+02 0.  0.
         11    1    4    4    0    0 -0.39194028754E+02 -0.28683253348E+02 -0.23855786601E+03  0.24345175363E+03  0.00000000000E+00 0. -1.
        -12    1    4    4    0    0  0.27638505992E+02 -0.15162452501E+02 -0.46397326893E+03  0.46504298862E+03  0.00000000000E+00 0.  1.
        -13    1    3    3    0    0  0.34364427420E+02  0.18770097507E+01 -0.73798588566E+02  0.81428918154E+02  0.00000000000E+00 0. -1.
         13    1    3    3    0    0 -0.48661712982E+02  0.25563012949E+02 -0.36460479618E+02  0.65960567882E+02  0.00000000000E+00 0.  1.
         21    1    1    2  502  501  0.25852808323E+02  0.16405683149E+02 -0.14869330703E+03  0.15181308802E+03  0.00000000000E+00 0. -1.
<scales pt_clust_5="13000.00000" pt_clust_6="13000.00000" pt_clust_7="13000.00000" pt_clust_8="13000.00000" pt_clust_9="30.61885"></scales>
<clustering>
<clus scale="   30.619">  2  9  1 -1</clus>
<clus scale="   79.742">  5  6 -1 -1</clus>
<clus scale="   85.810">  2  5  1 -1</clus>
<clus scale="   92.786">  7  8 -1 -1</clus>
<clus scale="   30.619">  2  5  1 -1</clus>
</clustering>
</event>
<event>
 9    1  0.1973774E-005  0.1032106E+03  0.7546771E-02  0.1276734E+00
         -2   -1    0    0    0  501 -0.00000000000E+00  0.00000000000E+00  0.32772329975E+03  0.32772329975E+03  0.00000000000E+00 0.  1.
          1   -1    0    0  502    0  0.00000000000E+00 -0.00000000000E+00 -0.13370057279E+03  0.13370057279E+03  0.00000000000E+00 0. -1.
         23    2    1    2    0    0  0.26767237786E+02  0.14678609859E+02  0.28076135144E+03  0.29632556294E+03  0.89721548053E+02 0.  0.
        -24    2    1    2    0    0 -0.49785108310E+02 -0.16617879039E+02 -0.98618938979E+02  0.13912284038E+03  0.82914164515E+02 0.  0.
         13    1    4    4    0    0 -0.63881844027E+02  0.11386928951E+02 -0.53073341571E+02  0.83829181869E+02  0.00000000000E+00 0. -1.
        -14    1    4    4    0    0  0.14096735718E+02 -0.28004807990E+02 -0.45545597408E+02  0.55293658513E+02  0.00000000000E+00 0.  1.
        -11    1    3    3    0    0  0.10039926367E+02  0.48698637629E+02  0.21253924712E+03  0.21827800850E+03  0.00000000000E+00 0.  1.
         11    1    3    3    0    0  0.16727311419E+02 -0.34020027770E+02  0.68222104322E+02  0.78047554445E+02  0.00000000000E+00 0. -1.
         21    1    1    2  502  501  0.23017870524E+02  0.19392691799E+01  0.11880314503E+02  0.25975469218E+02  0.00000000000E+00 0.  1.
<scales pt_clust_5="13000.00000" pt_clust_6="13000.00000" pt_clust_7="13000.00000" pt_clust_8="13000.00000" pt_clust_9="23.09942"></scales>
<clustering>
<clus scale="   23.099">  1  9  2 -1</clus>
<clus scale="   82.914">  5  6 -1 -1</clus>
<clus scale="   89.722">  7  8 -1 -1</clus>
<clus scale="   97.351">  2  5  1 -1</clus>
<clus scale="   97.351">  2  5  1 -1</clus>
</clustering>
</event>
<event>
 9    1  0.1973774E-005  0.1225139E+03  0.7546771E-02  0.1243867E+00
         -2   -1    0    0    0  501 -0.00000000000E+00  0.00000000000E+00  0.39797610937E+02  0.39797610937E+02  0.00000000000E+00 0.  1.
          1   -1    0    0  502    0  0.00000000000E+00 -0.00000000000E+00 -0.73423444129E+03  0.73423444129E+03  0.00000000000E+00 0. -1.
         23    2    1    2    0    0 -0.21735644059E+02 -0.81770289893E+02 -0.84797345170E+02  0.15186249957E+03  0.93342436738E+02 0.  0.
        -24    2    1    2    0    0  0.20213103245E+02  0.55200892875E+02 -0.46254080956E+03  0.47268285975E+03  0.77649064833E+02 0.  0.
         11    1    4    4    0    0 -0.27258136617E+02  0.37609442039E+02 -0.24041610907E+03  0.24486196446E+03  0.00000000000E+00 0. -1.
        -12    1    4    4    0    0  0.47471239862E+02  0.17591450836E+02 -0.22212470050E+03  0.22782089528E+03  0.00000000000E+00 0.  1.
        -11    1    3    3    0    0 -0.44762197224E+01 -0.98499272995E+02 -0.52816011027E+02  0.11185559595E+03  0.00000000000E+00 0.  1.
         11    1    3    3    0    0 -0.17259424336E+02  0.16728983103E+02 -0.31981334143E+02  0.40006903625E+02  0.00000000000E+00 0. -1.
         21    1    1    2  502  501  0.15225408139E+01  0.26569397017E+02 -0.14709867562E+03  0.14948669291E+03  0.00000000000E+00 0. -1.
<scales pt_clust_5="13000.00000" pt_clust_6="13000.00000" pt_clust_7="13000.00000" pt_clust_8="13000.00000" pt_clust_9="26.61299"></scales>
<clustering>
<clus scale="   26.613">  2  9  1 -1</clus>
<clus scale="   77.649">  5  6 -1 -1</clus>
<clus scale="   93.342">  7  8 -1 -1</clus>
<clus scale="  111.023">  2  5  1 -1</clus>
<clus scale="   26.613">  2  5  1 -1</clus>
</clustering>
</event>
<event>
 9    1  0.1973774E-005  0.1181797E+03  0.7546771E-02  0.1250789E+00
         -2   -1    0    0    0  501 -0.00000000000E+00  0.00000000000E+00  0.31592172248E+03  0.31592172248E+03  0.00000000000E+00 0.  1.
          1   -1    0    0  502    0  0.00000000000E+00 -0.00000000000E+00 -0.10030715412E+03  0.10030715412E+03  0.00000000000E+00 0. -1.
        -24    2    1    2    0    0 -0.16344887193E+01  0.63928889146E+02  0.18233767689E+03  0.20888102537E+03  0.79339018938E+02 0.  0.
         23    2    1    2    0    0 -0.68521420576E+01 -0.10065308156E+03  0.70530592699E+02  0.15435230929E+03  0.93123982943E+02 0.  0.
         11    1    3    3    0    0  0.36322478257E+02  0.26106473548E+02  0.56161465505E+02  0.71798193540E+02  0.00000000000E+00 0. -1.
        -12    1    3    3    0    0 -0.37956966977E+02  0.37822415598E+02  0.12617621139E+03  0.13708283183E+03  0.00000000000E+00 0.  1.
        -13    1    4    4    0    0 -0.35734907885E+02 -0.90111212638E+02  0.75929662598E+02  0.12313540493E+03  0.00000000000E+00 0.  1.
         13    1    4    4    0    0  0.28882765828E+02 -0.10541868921E+02 -0.53990698996E+01  0.31216904363E+02  0.00000000000E+00 0. -1.
         21    1    1    2  502  501  0.84866307769E+01  0.36724192413E+02 -0.37253701228E+02  0.52995541940E+02  0.00000000000E+00 0. -1.
<scales pt_clust_5="13000.00000" pt_clust_6="13000.00000" pt_clust_7="13000.00000" pt_clust_8="13000.00000" pt_clust_9="37.69203"></scales>
<clustering>
<clus scale="   37.692">  2  9  1 -1</clus>
<clus scale="   79.339">  5  6 -1 -1</clus>
<clus scale="   93.124">  7  8 -1 -1</clus>
<clus scale="  107.652">  1  5  2 -1</clus>
<clus scale="   37.692">  2  5  1 -1</clus>
</clustering>
</event>
<event>
 9    1  0.1973774E-005  0.1613541E+03  0.7546771E-02  0.1188155E+00
          1   -1    0    0  502    0  0.00000000000E+00  0.00000000000E+00  0.89443539815E+03  0.89443539815E+03  0.00000000000E+00 0. -1.
         -2   -1    0    0    0  501 -0.00000000000E+00 -0.00000000000E+00 -0.36729124472E+02  0.36729124472E+02  0.00000000000E+00 0.  1.
        -24    2    1    2    0    0 -0.11105264075E+03 -0.91161216490E+02  0.27223649349E+03  0.31818490727E+03  0.80534901893E+02 0.  0.
         23    2    1    2    0    0  0.91837282698E+02  0.83586739954E+02  0.42654856385E+03  0.45272183650E+03  0.87135264543E+02 0.  0.
         11    1    3    3    0    0  0.25549712091E+01 -0.39992307232E+02  0.69120061295E+02  0.79896779591E+02  0.00000000000E+00 0. -1.
        -12    1    3    3    0    0 -0.11360761195E+03 -0.51168909258E+02  0.20311643219E+03  0.23828812768E+03  0.00000000000E+00 0.  1.
        -11    1    4    4    0    0  0.11471897312E+00  0.54309094993E+02  0.18096933507E+03  0.18894282520E+03  0.00000000000E+00 0. -1.
         11    1    4    4    0    0  0.91722563725E+02  0.29277644962E+02  0.24557922878E+03  0.26377901130E+03  0.00000000000E+00 0.  1.
         21    1    1    2  502  501  0.19215358048E+02  0.75744765355E+01  0.15892121634E+03  0.16025777885E+03  0.00000000000E+00 0. -1.
<scales pt_clust_5="13000.00000" pt_clust_6="13000.00000" pt_clust_7="13000.00000" pt_clust_8="13000.00000" pt_clust_9="20.65436"></scales>
<clustering>
<clus scale="   20.654">  1  9  2 -1</clus>
<clus scale="   80.535">  5  6 -1 -1</clus>
<clus scale="   87.135">  7  8 -1 -1</clus>
<clus scale="  157.888">  2  5  1 -1</clus>
<clus scale="   20.654">  1  5  2 -1</clus>
</clustering>
</event>
<event>
 9    1  0.1973774E-005  0.1264909E+03  0.7546771E-02  0.1235550E+00
          1   -1    0    0  502    0  0.00000000000E+00  0.00000000000E+00  0.57688645362E+03  0.57688645362E+03  0.00000000000E+00 0. -1.
         -2   -1    0    0    0  501 -0.00000000000E+00 -0.00000000000E+00 -0.12786048312E+03  0.12786048312E+03  0.00000000000E+00 0.  1.
        -24    2    1    2    0    0 -0.92039503240E+02 -0.98766981233E+01 -0.83732264752E+02  0.14910896659E+03  0.81569433214E+02 0.  0.
         23    2    1    2    0    0  0.36487145089E+02  0.15503570708E+02  0.29529823298E+03  0.31170154632E+03  0.91570383380E+02 0.  0.
         13    1    3    3    0    0  0.10182300275E+02 -0.17670963114E+02 -0.18934891756E+02  0.27829342466E+02  0.00000000000E+00 0. -1.
        -14    1    3    3    0    0 -0.10222180352E+03  0.77942649909E+01 -0.64797372996E+02  0.12127962413E+03  0.00000000000E+00 0.  1.
        -13    1    4    4    0    0 -0.17550426488E+02  0.17096362448E+02  0.21436713632E+02  0.32555118956E+02  0.00000000000E+00 0.  1.
         13    1    4    4    0    0  0.54037571578E+02 -0.15927917409E+01  0.27386151935E+03  0.27914642736E+03  0.00000000000E+00 0. -1.
         21    1    1    2  502  501  0.55552358151E+02 -0.56268725842E+01  0.23746000227E+03  0.24393642383E+03  0.00000000000E+00 0. -1.
<scales pt_clust_5="13000.00000" pt_clust_6="13000.00000" pt_clust_7="13000.00000" pt_clust_8="13000.00000" pt_clust_9="55.83660"></scales>
<clustering>
<clus scale="   55.837">  1  9  2 -1</clus>
<clus scale="   81.569">  5  6 -1 -1</clus>
<clus scale="   91.570">  7  8 -1 -1</clus>
<clus scale="  119.450">  2  5  1 -1</clus>
<clus scale="   55.837">  1  5  2 -1</clus>
</clustering>
</event>
<event>
 9    1  0.1973774E-005  0.1721235E+03  0.7546771E-02  0.1190100E+00
         -2   -1    0    0    0  501 -0.00000000000E+00  0.00000000000E+00  0.13127446034E+03  0.13127446034E+03  0.00000000000E+00 0.  1.
          1   -1    0    0  502    0  0.00000000000E+00 -0.00000000000E+00 -0.10002396150E+04  0.10002396150E+04  0.00000000000E+00 0. -1.
        -24    2    1    2    0    0  0.80429522165E+02 -0.54602727206E+02  0.64461178786E+02  0.14027843577E+03  0.77925798789E+02 0.  0.
         23    2    1    2    0    0 -0.84303429269E+02 -0.11197898067E+03 -0.45716707358E+03  0.48666913736E+03  0.90546981127E+02 0.  0.
         13    1    3    3    0    0 -0.10244853018E+02 -0.22088740798E+02  0.28432346367E+02  0.37433511769E+02  0.00000000000E+00 0. -1.
        -14    1    3    3    0    0  0.90674375183E+02 -0.32513986408E+02  0.36028832418E+02  0.10284492400E+03  0.00000000000E+00 0.  1.
        -11    1    4    4    0    0 -0.72686433557E+01 -0.84104539924E+02 -0.21265585923E+03  0.22879886642E+03  0.00000000000E+00 0.  1.
         11    1    4    4    0    0 -0.77034785913E+02 -0.27874440742E+02 -0.24451121435E+03  0.25787027093E+03  0.00000000000E+00 0. -1.
         21    1    1    2  502  501  0.38739071039E+01  0.16658170787E+03 -0.47625925988E+03  0.50456650223E+03  0.00000000000E+00 0. -1.
<scales pt_clust_5="13000.00000" pt_clust_6="13000.00000" pt_clust_7="13000.00000" pt_clust_8="13000.00000" pt_clust_9="146.38213"></scales>
<clustering>
<clus scale="   77.926">  5  6 -1 -1</clus>
<clus scale="   90.547">  7  8 -1 -1</clus>
<clus scale="  124.591">  1  5  2 -1</clus>
<clus scale="  146.382">  1  9  2 -1</clus>
<clus scale="  172.123">  2  5  1 -1</clus>
</clustering>
</event>
<event>
 9    1  0.1973774E-005  0.1167149E+03  0.7546771E-02  0.1252515E+00
          1   -1    0    0  502    0  0.00000000000E+00  0.00000000000E+00  0.51102143692E+03  0.51102143692E+03  0.00000000000E+00 0. -1.
         -2   -1    0    0    0  501 -0.00000000000E+00 -0.00000000000E+00 -0.66481897394E+02  0.66481897394E+02  0.00000000000E+00 0.  1.
        -24    2    1    2    0    0 -0.52189550882E+02 -0.75729585244E+02  0.28205325297E+02  0.12574664341E+03  0.80981224066E+02 0.  0.
         23    2    1    2    0    0  0.25165943450E+02  0.90164350420E+01  0.17184237621E+03  0.19688970868E+03  0.92309990320E+02 0.  0.
         11    1    3    3    0    0 -0.48899788478E+02 -0.15905637359E+02 -0.12989292613E+02  0.53036782855E+02  0.00000000000E+00 0. -1.
        -12    1    3    3    0    0 -0.32897624043E+01 -0.59823947885E+02  0.41194617910E+02  0.72709860556E+02  0.00000000000E+00 0.  1.
        -13    1    4    4    0    0  0.12577176707E+02  0.26893271100E+02  0.17247935369E+03  0.17501588743E+03  0.00000000000E+00 0. -1.
         13    1    4    4    0    0  0.12588766743E+02 -0.17876836058E+02 -0.63697748463E+00  0.21873821245E+02  0.00000000000E+00 0.  1.
         21    1    1    2  502  501  0.27023607432E+02  0.66713150202E+02  0.24449183802E+03  0.25486698222E+03  0.00000000000E+00 0. -1.
<scales pt_clust_5="13000.00000" pt_clust_6="13000.00000" pt_clust_7="13000.00000" pt_clust_8="13000.00000" pt_clust_9="71.97861"></scales>
<clustering>
<clus scale="   71.979">  1  9  2 -1</clus>
<clus scale="   80.981">  5  6 -1 -1</clus>
<clus scale="   92.310">  7  8 -1 -1</clus>
<clus scale="  107.978">  2  5  1 -1</clus>
<clus scale="   71.979">  1  5  2 -1</clus>
</clustering>
</event>
<event>
 9    1  0.1973774E-005  0.2649582E+03  0.7546771E-02  0.1140000E+00
          1   -1    0    0  502    0  0.00000000000E+00  0.00000000000E+00  0.13339114805E+04  0.13339114805E+04  0.00000000000E+00 0. -1.
         -2   -1    0    0    0  501 -0.00000000000E+00 -0.00000000000E+00 -0.15917166042E+03  0.15917166042E+03  0.00000000000E+00 0.  1.
        -24    2    1    2    0    0 -0.24098541140E+03 -0.10035165814E+03 -0.43174118545E+01  0.27326314208E+03  0.80682593999E+02 0.  0.
         23    2    1    2    0    0  0.45773503939E+02  0.41196616457E+02  0.42799836976E+03  0.44155499114E+03  0.89419409580E+02 0.  0.
         11    1    3    3    0    0 -0.27110009724E+02  0.53469968728E+01  0.19035693121E+02  0.33554442558E+02  0.00000000000E+00 0. -1.
        -12    1    3    3    0    0 -0.21387540168E+03 -0.10569865501E+03 -0.23353104976E+02  0.23970869952E+03  0.00000000000E+00 0.  1.
        -13    1    4    4    0    0 -0.10348600803E+01  0.55885899594E+02  0.17061095199E+03  0.17953384541E+03  0.00000000000E+00 0.  1.
         13    1    4    4    0    0  0.46808364020E+02 -0.14689283137E+02  0.25738741777E+03  0.26202114572E+03  0.00000000000E+00 0. -1.
         21    1    1    2  502  501  0.19521190746E+03  0.59155041684E+02  0.75105886216E+03  0.77826500769E+03  0.00000000000E+00 0. -1.
<scales pt_clust_5="13000.00000" pt_clust_6="13000.00000" pt_clust_7="13000.00000" pt_clust_8="13000.00000" pt_clust_9="252.37509"></scales>
<clustering>
<clus scale="   80.683">  5  6 -1 -1</clus>
<clus scale="   89.419">  7  8 -1 -1</clus>
<clus scale="  108.574">  1  7  2 -1</clus>
<clus scale="  252.375">  1  9  2 -1</clus>
<clus scale="  108.574">  1  5  2 -1</clus>
</clustering>
</event>
<event>
 9    1  0.1973774E-005  0.1141993E+03  0.7546771E-02  0.1257344E+00
         -2   -1    0    0    0  501 -0.00000000000E+00  0.00000000000E+00  0.79625932002E+02  0.79625932002E+02  0.00000000000E+00 0.  1.
          1   -1    0    0  502    0  0.00000000000E+00 -0.00000000000E+00 -0.29659469647E+03  0.29659469647E+03  0.00000000000E+00 0. -1.
         23    2    1    2    0    0 -0.15053439211E+02 -0.71256001500E+02 -0.62683820517E+01  0.11815608607E+03  0.92830729177E+02 0.  0.
        -24    2    1    2    0    0  0.41678126994E+02  0.51833488493E+02 -0.19545011953E+03  0.22175092885E+03  0.80925573351E+02 0.  0.
         13    1    4    4    0    0 -0.64857888850E+01  0.50314310009E+02 -0.13643491999E+03  0.14556126765E+03  0.00000000000E+00 0. -1.
        -14    1    4    4    0    0  0.48163915879E+02  0.15191784838E+01 -0.59015199548E+02  0.76189661199E+02  0.00000000000E+00 0.  1.
        -11    1    3    3    0    0 -0.48254119296E+02 -0.44411233094E+02 -0.26719675010E+02  0.70814960895E+02  0.00000000000E+00 0.  1.
         11    1    3    3    0    0  0.33200680086E+02 -0.26844768406E+02  0.20451292958E+02  0.47341125172E+02  0.00000000000E+00 0. -1.
         21    1    1    2  502  501 -0.26624687783E+02  0.19422513007E+02 -0.15250262878E+02  0.36313613548E+02  0.00000000000E+00 0.  1.
<scales pt_clust_5="13000.00000" pt_clust_6="13000.00000" pt_clust_7="13000.00000" pt_clust_8="13000.00000" pt_clust_9="32.95615"></scales>
<clustering>
<clus scale="   32.956">  1  9  2 -1</clus>
<clus scale="   80.926">  5  6 -1 -1</clus>
<clus scale="   92.831">  7  8 -1 -1</clus>
<clus scale="  104.752">  2  5  1 -1</clus>
<clus scale="  104.752">  2  5  1 -1</clus>
</clustering>
</event>
<event>
 9    1  0.1973774E-005  0.9429428E+02  0.7546771E-02  0.1295997E+00
         -2   -1    0    0    0  501 -0.00000000000E+00  0.00000000000E+00  0.39591433512E+03  0.39591433512E+03  0.00000000000E+00 0.  1.
          1   -1    0    0  502    0  0.00000000000E+00 -0.00000000000E+00 -0.37956562783E+02  0.37956562783E+02  0.00000000000E+00 0. -1.
        -24    2    1    2    0    0  0.75592562125E+01 -0.21797828910E+02  0.24197047169E+03  0.25725912113E+03  0.84263031826E+02 0.  0.
         23    2    1    2    0    0  0.12229691083E+02  0.45824841450E+02  0.93718556883E+02  0.13833911401E+03  0.90028112957E+02 0.  0.
         11    1    3    3    0    0 -0.23354142417E+02 -0.40365909127E+02  0.93666354245E+02  0.10463368724E+03  0.00000000000E+00 0. -1.
        -12    1    3    3    0    0  0.30913398629E+02  0.18568080218E+02  0.14830411744E+03  0.15262543389E+03  0.00000000000E+00 0.  1.
        -13    1    4    4    0    0  0.12509736618E+02  0.72516750756E+02  0.78558714254E+02  0.10764127571E+03  0.00000000000E+00 0.  1.
         13    1    4    4    0    0 -0.28004553501E+00 -0.26691909306E+02  0.15159842629E+02  0.30697838302E+02  0.00000000000E+00 0. -1.
         21    1    1    2  502  501 -0.19788947295E+02 -0.24027012541E+02  0.22268743767E+02  0.38272662772E+02  0.00000000000E+00 0. -1.
<scales pt_clust_5="13000.00000" pt_clust_6="13000.00000" pt_clust_7="13000.00000" pt_clust_8="13000.00000" pt_clust_9="31.12715"></scales>
<clustering>
<clus scale="   31.127">  2  9  1 -1</clus>
<clus scale="   84.263">  5  6 -1 -1</clus>
<clus scale="   88.807">  1  5  2 -1</clus>
<clus scale="   90.028">  7  8 -1 -1</clus>
<clus scale="   31.127">  2  5  1 -1</clus>
</clustering>
</event>
<event>
 9    1  0.1973774E-005  0.1320135E+03  0.7546771E-02  0.1227537E+00
         -2   -1    0    0    0  501 -0.00000000000E+00  0.00000000000E+00  0.38993665858E+03  0.38993665858E+03  0.00000000000E+00 0.  1.
          1   -1    0    0  502    0  0.00000000000E+00 -0.00000000000E+00 -0.37718341483E+03  0.37718341483E+03  0.00000000000E+00 0. -1.
        -24    2    1    2    0    0 -0.57111734458E+02  0.81408082669E+02  0.35120403280E+03  0.37347720343E+03  0.79069100769E+02 0.  0.
         23    2    1    2    0    0  0.32159754605E+02 -0.45244411546E+02 -0.85182314150E+02  0.13659164398E+03  0.91213726867E+02 0.  0.
         11    1    3    3    0    0 -0.17080777512E+02 -0.12673653975E+02  0.33090795256E+02  0.39336690204E+02  0.00000000000E+00 0. -1.
        -12    1    3    3    0    0 -0.40030956946E+02  0.94081736645E+02  0.31811323754E+03  0.33414051323E+03  0.00000000000E+00 0.  1.
        -13    1    4    4    0    0 -0.10898112587E+02  0.22478232830E+02 -0.30765212601E+02  0.39630015336E+02  0.00000000000E+00 0.  1.
         13    1    4    4    0    0  0.43057867193E+02 -0.67722644376E+02 -0.54417101549E+02  0.96961628645E+02  0.00000000000E+00 0. -1.
         21    1    1    2  502  501  0.24951979852E+02 -0.36163671123E+02 -0.25326847490E+03  0.25705122599E+03  0.00000000000E+00 0. -1.
<scales pt_clust_5="13000.00000" pt_clust_6="13000.00000" pt_clust_7="13000.00000" pt_clust_8="13000.00000" pt_clust_9="43.93646"></scales>
<clustering>
<clus scale="   43.936">  2  9  1 -1</clus>
<clus scale="   79.069">  5  6 -1 -1</clus>
<clus scale="   91.214">  7  8 -1 -1</clus>
<clus scale="  123.934">  1  5  2 -1</clus>
<clus scale="   43.936">  2  5  1 -1</clus>
</clustering>
</event>
<event>
 9    1  0.1973774E-005  0.1161918E+03  0.7546771E-02  0.1252410E+00
         -2   -1    0    0    0  501 -0.00000000000E+00  0.00000000000E+00  0.45227891940E+02  0.45227891940E+02  0.00000000000E+00 0.  1.
          1   -1    0    0  502    0  0.00000000000E+00 -0.00000000000E+00 -0.63760868059E+03  0.63760868059E+03  0.00000000000E+00 0. -1.
         23    2    1    2    0    0 -0.29944635843E+02  0.70783059513E+02 -0.52071450900E+02  0.12935715030E+03  0.90082815256E+02 0.  0.
        -24    2    1    2    0    0  0.19378470917E+02 -0.53280047280E+02 -0.43248547492E+03  0.44373433271E+03  0.81499591638E+02 0.  0.
         11    1    4    4    0    0  0.44657437044E+02 -0.58298466053E+02 -0.31265774210E+03  0.32116640784E+03  0.00000000000E+00 0. -1.
        -12    1    4    4    0    0 -0.25278966127E+02  0.50184187735E+01 -0.11982773282E+03  0.12256792487E+03  0.00000000000E+00 0.  1.
        -13    1    3    3    0    0 -0.58486295981E+02  0.40318162520E+02 -0.13073872127E+02  0.72229683503E+02  0.00000000000E+00 0.  1.
         13    1    3    3    0    0  0.28541660138E+02  0.30464896993E+02 -0.38997578773E+02  0.57127466795E+02  0.00000000000E+00 0. -1.
         21    1    1    2  502  501  0.10566164927E+02 -0.17503012234E+02 -0.10782386283E+03  0.10974508952E+03  0.00000000000E+00 0. -1.
<scales pt_clust_5="13000.00000" pt_clust_6="13000.00000" pt_clust_7="13000.00000" pt_clust_8="13000.00000" pt_clust_9="20.44503"></scales>
<clustering>
<clus scale="   20.445">  2  9  1 -1</clus>
<clus scale="   81.500">  5  6 -1 -1</clus>
<clus scale="   90.083">  7  8 -1 -1</clus>
<clus scale="  109.671">  2  5  1 -1</clus>
<clus scale="   20.445">  2  5  1 -1</clus>
</clustering>
</event>
<event>
 9    1  0.1973774E-005  0.1689251E+03  0.7546771E-02  0.1180312E+00
          1   -1    0    0  502    0  0.00000000000E+00  0.00000000000E+00  0.43607130691E+03  0.43607130691E+03  0.00000000000E+00 0. -1.
         -2   -1    0    0    0  501 -0.00000000000E+00 -0.00000000000E+00 -0.10419255801E+03  0.10419255801E+03  0.00000000000E+00 0.  1.
        -24    2    1    2    0    0 -0.10244893786E+03  0.10700587373E+03  0.10539120423E+02  0.16866928730E+03  0.79951319810E+02 0.  0.
         23    2    1    2    0    0  0.97243548303E+02 -0.80109209487E+02  0.29731928647E+03  0.33515965676E+03  0.89774407740E+02 0.  0.
         11    1    3    3    0    0 -0.47230546197E+02  0.51553092881E+01  0.21787560801E+02  0.52268532729E+02  0.00000000000E+00 0. -1.
        -12    1    3    3    0    0 -0.55218391658E+02  0.10185056444E+03 -0.11248440378E+02  0.11640075457E+03  0.00000000000E+00 0.  1.
        -11    1    4    4    0    0  0.59340156918E+02 -0.14551770941E+01  0.17562237335E+03  0.18538228013E+03  0.00000000000E+00 0. -1.
         11    1    4    4    0    0  0.37903391385E+02 -0.78654032393E+02  0.12169691312E+03  0.14977737664E+03  0.00000000000E+00 0.  1.
         21    1    1    2  502  501  0.52053895523E+01 -0.26896664240E+02  0.24020342007E+02  0.36434920856E+02  0.00000000000E+00 0.  1.
<scales pt_clust_5="13000.00000" pt_clust_6="13000.00000" pt_clust_7="13000.00000" pt_clust_8="13000.00000" pt_clust_9="27.39574"></scales>
<clustering>
<clus scale="   27.396">  1  9  2 -1</clus>
<clus scale="   79.951">  5  6 -1 -1</clus>
<clus scale="   89.774">  7  8 -1 -1</clus>
<clus scale="  163.916">  2  5  1 -1</clus>
<clus scale="   27.396">  1  5  2 -1</clus>
</clustering>
</event>
<event>
 9    1  0.1973774E-005  0.1427357E+03  0.7546771E-02  0.1211727E+00
          3   -1    0    0  502    0  0.00000000000E+00  0.00000000000E+00  0.25421387575E+03  0.25421387575E+03  0.00000000000E+00 0. -1.
         -4   -1    0    0    0  501 -0.00000000000E+00 -0.00000000000E+00 -0.11921010541E+03  0.11921010541E+03  0.00000000000E+00 0.  1.
         23    2    1    2    0    0  0.96453031569E+02  0.33164870672E+02  0.24004769814E+01  0.13575908529E+03  0.89563781760E+02 0.  0.
        -24    2    1    2    0    0 -0.11232248572E+03 -0.71766057368E+02  0.10945864080E+03  0.18994104301E+03  0.79559399104E+02 0.  0.
         11    1    4    4    0    0 -0.11166531343E+03 -0.48484660335E+02  0.11333834589E+03  0.16632944766E+03  0.00000000000E+00 0. -1.
        -12    1    4    4    0    0 -0.65717228763E+00 -0.23281397033E+02 -0.38797050883E+01  0.23611595346E+02  0.00000000000E+00 0.  1.
        -13    1    3    3    0    0  0.45612405649E+02  0.43528359191E+02 -0.34705664677E+02  0.71970082420E+02  0.00000000000E+00 0.  1.
         13    1    3    3    0    0  0.50840625920E+02 -0.10363488519E+02  0.37106141658E+02  0.63789002868E+02  0.00000000000E+00 0. -1.
         21    1    1    2  502  501  0.15869454152E+02  0.38601186696E+02  0.23144652567E+02  0.47723852861E+02  0.00000000000E+00 0.  1.
<scales pt_clust_5="13000.00000" pt_clust_6="13000.00000" pt_clust_7="13000.00000" pt_clust_8="13000.00000" pt_clust_9="41.73597"></scales>
<clustering>
<clus scale="   41.736">  1  9  2 -1</clus>
<clus scale="   79.559">  5  6 -1 -1</clus>
<clus scale="   89.564">  7  8 -1 -1</clus>
<clus scale="  136.680">  1  5  2 -1</clus>
<clus scale="   41.736">  1  5  2 -1</clus>
</clustering>
</event>
<event>
 9    1  0.1973774E-005  0.1133475E+03  0.7546771E-02  0.1256112E+00
         -2   -1    0    0    0  501 -0.00000000000E+00  0.00000000000E+00  0.13486248550E+03  0.13486248550E+03  0.00000000000E+00 0.  1.
          1   -1    0    0  502    0  0.00000000000E+00 -0.00000000000E+00 -0.28200435315E+03  0.28200435315E+03  0.00000000000E+00 0. -1.
        -24    2    1    2    0    0  0.15676459934E+01  0.60550047801E+02  0.86363647762E+02  0.14238070706E+03  0.95628553709E+02 0.  0.
         23    2    1    2    0    0 -0.31318704019E+02 -0.61106318534E+02 -0.17864371366E+03  0.21207417616E+03  0.91362116748E+02 0.  0.
         13    1    3    3    0    0  0.16675313377E+02  0.42474245196E+02 -0.69345475369E+01  0.46154257992E+02  0.00000000000E+00 0. -1.
        -14    1    3    3    0    0 -0.15107667383E+02  0.18075802604E+02  0.93298195299E+02  0.96226449064E+02  0.00000000000E+00 0.  1.
        -13    1    4    4    0    0  0.20943744776E+02 -0.52469042571E+02 -0.12242241230E+03  0.13482910630E+03  0.00000000000E+00 0.  1.
         13    1    4    4    0    0 -0.52262448795E+02 -0.86372759623E+01 -0.56221301361E+02  0.77245069854E+02  0.00000000000E+00 0. -1.
         21    1    1    2  502  501  0.29751058025E+02  0.55627073301E+00 -0.54861801749E+02  0.62411955440E+02  0.00000000000E+00 0.  1.
<scales pt_clust_5="13000.00000" pt_clust_6="13000.00000" pt_clust_7="13000.00000" pt_clust_8="13000.00000" pt_clust_9="29.75626"></scales>
<clustering>
<clus scale="   29.756">  2  9  1 -1</clus>
<clus scale="   91.362">  7  8 -1 -1</clus>
<clus scale="   95.629">  5  6 -1 -1</clus>
<clus scale="  109.772">  2  7  1 -1</clus>
<clus scale="   29.756">  2  5  1 -1</clus>
</clustering>
</event>
<event>
 9    1  0.1973774E-005  0.1830104E+03  0.7546771E-02  0.1165922E+00
          3   -1    0    0  502    0  0.00000000000E+00  0.00000000000E+00  0.13050388925E+03  0.13050388925E+03  0.00000000000E+00 0. -1.
         -4   -1    0    0    0  501 -0.00000000000E+00 -0.00000000000E+00 -0.42178118455E+03  0.42178118455E+03  0.00000000000E+00 0.  1.
        -24    2    1    2    0    0 -0.21146739024E+03  0.86119975584E+01 -0.13824411476E+03  0.26545520482E+03  0.81008683871E+02 0.  0.
         23    2    1    2    0    0  0.12619269258E+03 -0.89811506574E+01 -0.80145151045E+02  0.17464887603E+03  0.89853925540E+02 0.  0.
         13    1    3    3    0    0 -0.94362764561E+02 -0.95408618657E+01 -0.17821594163E+02  0.96503723240E+02  0.00000000000E+00 0. -1.
        -14    1    3    3    0    0 -0.11710462568E+03  0.18152859424E+02 -0.12042252059E+03  0.16895148158E+03  0.00000000000E+00 0.  1.
        -13    1    4    4    0    0  0.60270454682E+02 -0.34244817136E+02 -0.77533375604E+02  0.10400317082E+03  0.00000000000E+00 0. -1.
         13    1    4    4    0    0  0.65922237900E+02  0.25263666479E+02 -0.26117754407E+01  0.70645705211E+02  0.00000000000E+00 0.  1.
         21    1    1    2  502  501  0.85274697656E+02  0.36915309906E+00 -0.72888029496E+02  0.11218099294E+03  0.00000000000E+00 0. -1.
<scales pt_clust_5="13000.00000" pt_clust_6="13000.00000" pt_clust_7="13000.00000" pt_clust_8="13000.00000" pt_clust_9="85.27550"></scales>
<clustering>
<clus scale="   81.009">  5  6 -1 -1</clus>
<clus scale="   85.275">  2  9  1 -1</clus>
<clus scale="   89.854">  7  8 -1 -1</clus>
<clus scale="  178.834">  2  5  1 -1</clus>
<clus scale="  183.010">  1  5  2 -1</clus>
</clustering>
</event>
<event>
 9    1  0.1973774E-005  0.9607544E+02  0.7546771E-02  0.1297838E+00
         -2   -1    0    0    0  501 -0.00000000000E+00  0.00000000000E+00  0.15002731181E+03  0.15002731181E+03  0.00000000000E+00 0.  1.
          1   -1    0    0  502    0  0.00000000000E+00 -0.00000000000E+00 -0.25669163448E+03  0.25669163448E+03  0.00000000000E+00 0. -1.
        -24    2    1    2    0    0  0.35109716116E+02 -0.52308894015E+01  0.77095483075E+02  0.11593768699E+03  0.78979613721E+02 0.  0.
         23    2    1    2    0    0  0.27851998731E+02 -0.22872444478E+02 -0.71190156279E+01  0.10116073392E+03  0.94254608128E+02 0.  0.
         11    1    3    3    0    0  0.53610460899E+02 -0.24793301967E+02  0.59076832983E+02  0.83539580652E+02  0.00000000000E+00 0. -1.
        -12    1    3    3    0    0 -0.18500744783E+02  0.19562412566E+02  0.18018650091E+02  0.32398106334E+02  0.00000000000E+00 0.  1.
        -13    1    4    4    0    0 -0.33836515766E+01 -0.27728784469E+02 -0.44291502268E+02  0.52364795037E+02  0.00000000000E+00 0. -1.
         13    1    4    4    0    0  0.31235650308E+02  0.48563399904E+01  0.37172486640E+02  0.48795938881E+02  0.00000000000E+00 0.  1.
         21    1    1    2  502  501 -0.62961714848E+02  0.28103333880E+02 -0.17664079012E+03  0.18962052538E+03  0.00000000000E+00 0. -1.
<scales pt_clust_5="13000.00000" pt_clust_6="13000.00000" pt_clust_7="13000.00000" pt_clust_8="13000.00000" pt_clust_9="68.94907"></scales>
<clustering>
<clus scale="   68.949">  2  9  1 -1</clus>
<clus scale="   78.980">  5  6 -1 -1</clus>
<clus scale="   81.144">  1  5  2 -1</clus>
<clus scale="   94.255">  7  8 -1 -1</clus>
<clus scale="   68.949">  2  5  1 -1</clus>
</clustering>
</event>
<event>
 9    1  0.1973774E-005  0.1096966E+03  0.7546771E-02  0.1268268E+00
          3   -1    0    0  502    0  0.00000000000E+00  0.00000000000E+00  0.21822427010E+03  0.21822427010E+03  0.00000000000E+00 0. -1.
         -4   -1    0    0    0  501 -0.00000000000E+00 -0.00000000000E+00 -0.90928261870E+02  0.90928261870E+02  0.00000000000E+00 0.  1.
         23    2    1    2    0    0 -0.51797969029E+02 -0.33019044146E+02 -0.24905005048E+02  0.11487156330E+03  0.93818601069E+02 0.  0.
        -24    2    1    2    0    0  0.30381215000E+02  0.36953853515E+02  0.86616284715E+02  0.12517585527E+03  0.76668171032E+02 0.  0.
         13    1    4    4    0    0  0.26474876256E+02  0.59637959959E+02  0.51214716570E+02  0.82949096042E+02  0.00000000000E+00 0. -1.
        -14    1    4    4    0    0  0.39063387445E+01 -0.22684106443E+02  0.35401568145E+02  0.42226759225E+02  0.00000000000E+00 0.  1.
        -11    1    3    3    0    0 -0.12239149192E+02 -0.58661751494E+02 -0.30773713865E+02  0.67364822618E+02  0.00000000000E+00 0.  1.
         11    1    3    3    0    0 -0.39558819837E+02  0.25642707348E+02  0.58687088168E+01  0.47506740682E+02  0.00000000000E+00 0. -1.
         21    1    1    2  502  501  0.21416754029E+02 -0.39348093694E+01  0.65584728563E+02  0.69105113404E+02  0.00000000000E+00 0. -1.
<scales pt_clust_5="13000.00000" pt_clust_6="13000.00000" pt_clust_7="13000.00000" pt_clust_8="13000.00000" pt_clust_9="21.77522"></scales>
<clustering>
<clus scale="   21.775">  1  9  2 -1</clus>
<clus scale="   76.668">  5  6 -1 -1</clus>
<clus scale="   93.819">  7  8 -1 -1</clus>
<clus scale="   95.443">  1  5  2 -1</clus>
<clus scale="   21.775">  1  5  2 -1</clus>
</clustering>
</event>
<event>
 9    1  0.1973774E-005  0.2045359E+03  0.7546771E-02  0.1146414E+00
         -2   -1    0    0    0  501 -0.00000000000E+00  0.00000000000E+00  0.49080062711E+03  0.49080062711E+03  0.00000000000E+00 0.  1.
          1   -1    0    0  502    0  0.00000000000E+00 -0.00000000000E+00 -0.12202543474E+03  0.12202543474E+03  0.00000000000E+00 0. -1.
         23    2    1    2    0    0  0.17475508428E+03 -0.70362556545E+02  0.27453455919E+03  0.34489567700E+03  0.89964298323E+02 0.  0.
        -24    2    1    2    0    0 -0.15613437034E+03  0.83501459509E+02  0.12263680137E+03  0.23152016477E+03  0.84919763924E+02 0.  0.
         11    1    4    4    0    0 -0.12424668956E+03  0.43844263472E+02  0.46055092725E+02  0.13957303061E+03  0.00000000000E+00 0. -1.
        -12    1    4    4    0    0 -0.31887680779E+02  0.39657196037E+02  0.76581708642E+02  0.91947134167E+02  0.00000000000E+00 0.  1.
        -13    1    3    3    0    0  0.13963440618E+03 -0.54507491641E+02  0.26615338358E+03  0.30546105746E+03  0.00000000000E+00 0.  1.
         13    1    3    3    0    0  0.35120678098E+02 -0.15855064903E+02  0.83811756165E+01  0.39434619535E+02  0.00000000000E+00 0. -1.
         21    1    1    2  502  501 -0.18620713938E+02 -0.13138902964E+02 -0.28396168187E+02  0.36410220082E+02  0.00000000000E+00 0. -1.
<scales pt_clust_5="13000.00000" pt_clust_6="13000.00000" pt_clust_7="13000.00000" pt_clust_8="13000.00000" pt_clust_9="22.78951"></scales>
<clustering>
<clus scale="   22.790">  2  9  1 -1</clus>
<clus scale="   84.920">  5  6 -1 -1</clus>
<clus scale="   89.964">  7  8 -1 -1</clus>
<clus scale="  202.368">  2  5  1 -1</clus>
<clus scale="   22.790">  2  5  1 -1</clus>
</clustering>
</event>
<event>
 9    1  0.1973774E-005  0.9886727E+02  0.7546771E-02  0.1288187E+00
         -2   -1    0    0    0  501 -0.00000000000E+00  0.00000000000E+00  0.50153172679E+03  0.50153172679E+03  0.00000000000E+00 0.  1.
          1   -1    0    0  502    0  0.00000000000E+00 -0.00000000000E+00 -0.39919899123E+02  0.39919899123E+02  0.00000000000E+00 0. -1.
        -24    2    1    2    0    0 -0.33346256158E+02  0.87398481596E+01  0.36782324037E+03  0.37815150607E+03  0.80723402054E+02 0.  0.
         23    2    1    2    0    0  0.57625321769E+02 -0.37889482415E+01  0.68846499071E+02  0.12814201691E+03  0.91353720371E+02 0.  0.
         11    1    3    3    0    0 -0.29693280007E+02 -0.32876863192E+02  0.22609598030E+03  0.23039525020E+03  0.00000000000E+00 0. -1.
        -12    1    3    3    0    0 -0.36529761507E+01  0.41616711351E+02  0.14172726008E+03  0.14775625587E+03  0.00000000000E+00 0.  1.
        -13    1    4    4    0    0  0.35912930510E+02 -0.42709315368E+02  0.14112606601E+02  0.57558577659E+02  0.00000000000E+00 0. -1.
         13    1    4    4    0    0  0.21712391259E+02  0.38920367127E+02  0.54733892471E+02  0.70583439251E+02  0.00000000000E+00 0.  1.
         21    1    1    2  502  501 -0.24279065611E+02 -0.49508999182E+01  0.24942088222E+02  0.35158102933E+02  0.00000000000E+00 0. -1.
<scales pt_clust_5="13000.00000" pt_clust_6="13000.00000" pt_clust_7="13000.00000" pt_clust_8="13000.00000" pt_clust_9="24.77871"></scales>
<clustering>
<clus scale="   24.779">  2  9  1 -1</clus>
<clus scale="   80.723">  5  6 -1 -1</clus>
<clus scale="   89.138">  1  5  2 -1</clus>
<clus scale="   91.354">  7  8 -1 -1</clus>
<clus scale="   24.779">  2  5  1 -1</clus>
</clustering>
</event>
<event>
 9    1  0.4353347E-005  0.2374142E+03  0.7546771E-02  0.1122087E+00
         -2   -1    0    0    0  501 -0.00000000000E+00  0.00000000000E+00  0.91212689493E+03  0.91212689493E+03  0.00000000000E+00 0.  1.
          1   -1    0    0  502    0  0.00000000000E+00 -0.00000000000E+00 -0.58035878383E+03  0.58035878383E+03  0.00000000000E+00 0. -1.
         23    2    1    2    0    0 -0.24182168915E+02  0.21775289501E+03  0.86449267726E+03  0.89646407875E+03  0.91099697427E+02 0.  0.
        -24    2    1    2    0    0  0.20193799210E+01 -0.22477759737E+03 -0.44505950008E+03  0.50532595805E+03  0.82142066575E+02 0.  0.
         11    1    4    4    0    0  0.13182855610E+02 -0.17966603568E+03 -0.40760007076E+03  0.44563605076E+03  0.00000000000E+00 0. -1.
        -12    1    4    4    0    0 -0.11163475689E+02 -0.45111561688E+02 -0.37459429319E+02  0.59689907290E+02  0.00000000000E+00 0.  1.
        -13    1    3    3    0    0 -0.54237411857E+02  0.14484509247E+03  0.64337819675E+03  0.66170786734E+03  0.00000000000E+00 0.  1.
         13    1    3    3    0    0  0.30055242942E+02  0.72907802544E+02  0.22111448051E+03  0.23475621141E+03  0.00000000000E+00 0. -1.
         21    1    1    2  502  501  0.22162788994E+02  0.70247023574E+01 -0.87665066078E+02  0.90695641956E+02  0.00000000000E+00 0. -1.
<scales pt_clust_5="13000.00000" pt_clust_6="13000.00000" pt_clust_7="13000.00000" pt_clust_8="13000.00000" pt_clust_9="23.24942"></scales>
<clustering>
<clus scale="   23.249">  2  9  1 -1</clus>
<clus scale="   82.142">  5  6 -1 -1</clus>
<clus scale="   91.100">  7  8 -1 -1</clus>
<clus scale="  234.123">  2  5  1 -1</clus>
<clus scale="   23.249">  2  5  1 -1</clus>
</clustering>
</event>
<event>
 9    1  0.1973774E-005  0.1112394E+03  0.7546771E-02  0.1268807E+00
          1   -1    0    0  502    0  0.00000000000E+00  0.00000000000E+00  0.34129680919E+02  0.34129680919E+02  0.00000000000E+00 0. -1.
         -2   -1    0    0    0  501 -0.00000000000E+00 -0.00000000000E+00 -0.61475475328E+03  0.61475475328E+03  0.00000000000E+00 0.  1.
        -24    2    1    2    0    0 -0.59576015890E+02 -0.26745907608E+02 -0.43196522846E+03  0.44138485931E+03  0.62944341994E+02 0.  0.
         23    2    1    2    0    0  0.68968773329E+02  0.92927842098E+00 -0.13625670713E+03  0.17735724524E+03  0.90178417309E+02 0.  0.
         13    1    3    3    0    0 -0.65320548095E+02 -0.28594447781E+02 -0.26845759701E+03  0.27776590475E+03  0.00000000000E+00 0. -1.
        -14    1    3    3    0    0  0.57445322050E+01  0.18485401727E+01 -0.16350763145E+03  0.16361895456E+03  0.00000000000E+00 0.  1.
        -13    1    4    4    0    0 -0.15836104068E+02  0.13456896357E+02 -0.56759943250E+02  0.60444697115E+02  0.00000000000E+00 0. -1.
         13    1    4    4    0    0  0.84804877398E+02 -0.12527617936E+02 -0.79496763876E+02  0.11691254812E+03  0.00000000000E+00 0.  1.
         21    1    1    2  502  501 -0.93927574395E+01  0.25816629187E+02 -0.12403136778E+02  0.30142329652E+02  0.00000000000E+00 0. -1.
<scales pt_clust_5="13000.00000" pt_clust_6="13000.00000" pt_clust_7="13000.00000" pt_clust_8="13000.00000" pt_clust_9="27.47221"></scales>
<clustering>
<clus scale="   27.472">  1  9  2 -1</clus>
<clus scale="   62.944">  5  6 -1 -1</clus>
<clus scale="   90.178">  7  8 -1 -1</clus>
<clus scale="   90.576">  2  5  1 -1</clus>
<clus scale="   27.472">  1  5  2 -1</clus>
</clustering>
</event>
<event>
 9    1  0.1973774E-005  0.1120073E+03  0.7546771E-02  0.1260567E+00
         -2   -1    0    0    0  501 -0.00000000000E+00  0.00000000000E+00  0.49215337323E+02  0.49215337323E+02  0.00000000000E+00 0.  1.
          1   -1    0    0  502    0  0.00000000000E+00 -0.00000000000E+00 -0.37254896447E+03  0.37254896447E+03  0.00000000000E+00 0. -1.
         23    2    1    2    0    0 -0.62752299305E+02  0.12240281563E+01 -0.13739625264E+03  0.17681516325E+03  0.91904963968E+02 0.  0.
        -24    2    1    2    0    0  0.56199898052E+02 -0.43787456836E+02 -0.16352115598E+03  0.19639951161E+03  0.82206020392E+02 0.  0.
         11    1    4    4    0    0  0.63443681085E+02 -0.61481465816E+02 -0.14491146162E+03  0.16971859950E+03  0.00000000000E+00 0. -1.
        -12    1    4    4    0    0 -0.72437830335E+01  0.17694008980E+02 -0.18609694360E+02  0.26680912102E+02  0.00000000000E+00 0.  1.
        -13    1    3    3    0    0 -0.33968105485E+02 -0.29631182591E+02 -0.15250212964E+02  0.47585797959E+02  0.00000000000E+00 0.  1.
         13    1    3    3    0    0 -0.28784193820E+02  0.30855210748E+02 -0.12214603968E+03  0.12922936529E+03  0.00000000000E+00 0. -1.
         21    1    1    2  502  501  0.65524012526E+01  0.42563428679E+02 -0.22416218529E+02  0.48549626942E+02  0.00000000000E+00 0.  1.
<scales pt_clust_5="13000.00000" pt_clust_6="13000.00000" pt_clust_7="13000.00000" pt_clust_8="13000.00000" pt_clust_9="43.06483"></scales>
<clustering>
<clus scale="   43.065">  1  9  2 -1</clus>
<clus scale="   82.206">  5  6 -1 -1</clus>
<clus scale="   91.905">  7  8 -1 -1</clus>
<clus scale="  104.197">  2  5  1 -1</clus>
<clus scale="  104.197">  2  5  1 -1</clus>
</clustering>
</event>
<event>
 9    1  0.1973774E-005  0.9118841E+02  0.7546771E-02  0.1304291E+00
         -2   -1    0    0    0  501 -0.00000000000E+00  0.00000000000E+00  0.76500789803E+02  0.76500789803E+02  0.00000000000E+00 0.  1.
          1   -1    0    0  502    0  0.00000000000E+00 -0.00000000000E+00 -0.28038893650E+03  0.28038893650E+03  0.00000000000E+00 0. -1.
        -24    2    1    2    0    0 -0.21195303480E+01  0.22556716765E+02  0.33340711985E+02  0.89866541913E+02  0.80318705167E+02 0.  0.
         23    2    1    2    0    0  0.84248796019E+01 -0.43161897630E+02 -0.16757498783E+03  0.19411233039E+03  0.87545943691E+02 0.  0.
         11    1    3    3    0    0 -0.20198217690E+02  0.10195051036E+02 -0.21254160006E+02  0.31042654220E+02  0.00000000000E+00 0. -1.
        -12    1    3    3    0    0  0.18078687342E+02  0.12361665730E+02  0.54594871991E+02  0.58823887693E+02  0.00000000000E+00 0.  1.
        -11    1    4    4    0    0 -0.38931346877E+02 -0.10213286724E+02 -0.71278163081E+02  0.81856811124E+02  0.00000000000E+00 0.  1.
         11    1    4    4    0    0  0.47356226478E+02 -0.32948610906E+02 -0.96296824754E+02  0.11225551926E+03  0.00000000000E+00 0. -1.
         21    1    1    2  502  501 -0.63053492538E+01  0.20605180865E+02 -0.69653870849E+02  0.72910854006E+02  0.00000000000E+00 0.  1.
<scales pt_clust_5="13000.00000" pt_clust_6="13000.00000" pt_clust_7="13000.00000" pt_clust_8="13000.00000" pt_clust_9="21.54834"></scales>
<clustering>
<clus scale="   21.548">  2  9  1 -1</clus>
<clus scale="   80.319">  5  6 -1 -1</clus>
<clus scale="   84.274">  1  5  2 -1</clus>
<clus scale="   87.546">  7  8 -1 -1</clus>
<clus scale="   21.548">  2  5  1 -1</clus>
</clustering>
</event>
<event>
 9    1  0.1973774E-005  0.1153904E+03  0.7546771E-02  0.1253410E+00
          1   -1    0    0  502    0  0.00000000000E+00  0.00000000000E+00  0.19375274093E+03  0.19375274093E+03  0.00000000000E+00 0. -1.
         -2   -1    0    0    0  501 -0.00000000000E+00 -0.00000000000E+00 -0.29191001951E+03  0.29191001951E+03  0.00000000000E+00 0.  1.
         23    2    1    2    0    0  0.35720700634E+02  0.14821535030E+03 -0.16015755481E+03  0.23769946408E+03  0.87217167712E+02 0.  0.
        -24    2    1    2    0    0 -0.27906952429E+00 -0.67658494224E+02  0.10662206865E+03  0.14928898037E+03  0.79631554150E+02 0.  0.
         11    1    4    4    0    0  0.37188856272E+01 -0.81049981322E+02  0.60814451447E+02  0.10139687908E+03  0.00000000000E+00 0. -1.
        -12    1    4    4    0    0 -0.39979551515E+01  0.13391487098E+02  0.45807617203E+02  0.47892101289E+02  0.00000000000E+00 0.  1.
        -11    1    3    3    0    0 -0.14471546371E+02  0.37992562204E+02 -0.51393618783E+01  0.40978939441E+02  0.00000000000E+00 0. -1.
         11    1    3    3    0    0  0.50192247005E+02  0.11022278809E+03 -0.15501819293E+03  0.19672052464E+03  0.00000000000E+00 0.  1.
         21    1    1    2  502  501 -0.35441631110E+02 -0.80556856074E+02 -0.44621792424E+02  0.98674315987E+02  0.00000000000E+00 0. -1.
<scales pt_clust_5="13000.00000" pt_clust_6="13000.00000" pt_clust_7="13000.00000" pt_clust_8="13000.00000" pt_clust_9="88.00861"></scales>
<clustering>
<clus scale="   79.632">  5  6 -1 -1</clus>
<clus scale="   87.217">  7  8 -1 -1</clus>
<clus scale="   88.009">  2  9  1 -1</clus>
<clus scale="  109.769">  1  5  2 -1</clus>
<clus scale="  109.769">  1  5  2 -1</clus>
</clustering>
</event>
<event>
 9    1  0.1973774E-005  0.9837709E+02  0.7546771E-02  0.1284265E+00
         -2   -1    0    0    0  501 -0.00000000000E+00  0.00000000000E+00  0.10139048895E+03  0.10139048895E+03  0.00000000000E+00 0.  1.
          1   -1    0    0  502    0  0.00000000000E+00 -0.00000000000E+00 -0.23016859645E+03  0.23016859645E+03  0.00000000000E+00 0. -1.
        -24    2    1    2    0    0 -0.46916681894E+01 -0.23645486975E+01  0.35714937256E+02  0.90661823081E+02  0.83164936002E+02 0.  0.
         23    2    1    2    0    0  0.30496875507E+02  0.55612612067E+02 -0.14352524176E+03  0.17812056489E+03  0.84288899506E+02 0.  0.
         11    1    3    3    0    0 -0.28210234825E+02 -0.32245605371E+02  0.29775431507E+02  0.52174445240E+02  0.00000000000E+00 0. -1.
        -12    1    3    3    0    0  0.23518566635E+02  0.29881056674E+02  0.59395057484E+01  0.38487377841E+02  0.00000000000E+00 0.  1.
        -13    1    4    4    0    0  0.20429391348E+02 -0.14758643252E+02 -0.76016063628E+02  0.80085076706E+02  0.00000000000E+00 0. -1.
         13    1    4    4    0    0  0.10067484160E+02  0.70371255319E+02 -0.67509178127E+02  0.98035488186E+02  0.00000000000E+00 0.  1.
         21    1    1    2  502  501 -0.25805207318E+02 -0.53248063369E+02 -0.20967802998E+02  0.62776697427E+02  0.00000000000E+00 0. -1.
<scales pt_clust_5="13000.00000" pt_clust_6="13000.00000" pt_clust_7="13000.00000" pt_clust_8="13000.00000" pt_clust_9="59.17149"></scales>
<clustering>
<clus scale="   59.171">  1  9  2 -1</clus>
<clus scale="   83.165">  5  6 -1 -1</clus>
<clus scale="   84.289">  7  8 -1 -1</clus>
<clus scale="   97.416">  1  5  2 -1</clus>
<clus scale="   98.377">  2  5  1 -1</clus>
</clustering>
</event>
<event>
 9    1  0.1973774E-005  0.1380877E+03  0.7546771E-02  0.1220282E+00
         -4   -1    0    0    0  501 -0.00000000000E+00  0.00000000000E+00  0.14545463406E+03  0.14545463406E+03  0.00000000000E+00 0.  1.
          3   -1    0    0  502    0  0.00000000000E+00 -0.00000000000E+00 -0.14972155101E+03  0.14972155101E+03  0.00000000000E+00 0. -1.
         23    2    1    2    0    0 -0.23403580063E+02  0.99699403459E+02  0.11258730852E+02  0.14403189416E+03  0.10065152213E+03 0.  0.
        -24    2    1    2    0    0  0.42048236703E+02 -0.79988039494E+02 -0.16569571602E+02  0.12399192697E+03  0.83266479315E+02 0.  0.
         13    1    4    4    0    0 -0.96208882168E+01 -0.22801675505E+02 -0.36764978846E+02  0.44318636773E+02  0.00000000000E+00 0. -1.
        -14    1    4    4    0    0  0.51669124920E+02 -0.57186363990E+02  0.20195407244E+02  0.79673290193E+02  0.00000000000E+00 0.  1.
        -13    1    3    3    0    0 -0.31565490921E+01  0.66995370959E+02 -0.41402256257E+02  0.78819352670E+02  0.00000000000E+00 0. -1.
         13    1    3    3    0    0 -0.20247030971E+02  0.32704032500E+02  0.52660987109E+02  0.65212541495E+02  0.00000000000E+00 0.  1.
         21    1    1    2  502  501 -0.18644656640E+02 -0.19711363965E+02  0.10439238054E+01  0.27152363939E+02  0.00000000000E+00 0.  1.
<scales pt_clust_5="13000.00000" pt_clust_6="13000.00000" pt_clust_7="13000.00000" pt_clust_8="13000.00000" pt_clust_9="27.13229"></scales>
<clustering>
<clus scale="   27.132">  1  9  2 -1</clus>
<clus scale="   83.266">  5  6 -1 -1</clus>
<clus scale="  100.652">  7  8 -1 -1</clus>
<clus scale="  125.979">  2  5  1 -1</clus>
<clus scale="  125.979">  2  5  1 -1</clus>
</clustering>
</event>
<event>
 9    1  0.1973774E-005  0.1015680E+03  0.7546771E-02  0.1280629E+00
         -2   -1    0    0    0  501 -0.00000000000E+00  0.00000000000E+00  0.72860910949E+02  0.72860910949E+02  0.00000000000E+00 0.  1.
          1   -1    0    0  502    0  0.00000000000E+00 -0.00000000000E+00 -0.49058859176E+03  0.49058859176E+03  0.00000000000E+00 0. -1.
        -24    2    1    2    0    0 -0.23033843270E+02 -0.26566288471E+02  0.53877344350E+01  0.93303166156E+02  0.86256173770E+02 0.  0.
         23    2    1    2    0    0  0.38732508597E+01  0.88886876130E+02 -0.34510438955E+03  0.36847675370E+03  0.93606621067E+02 0.  0.
         13    1    3    3    0    0 -0.40359954432E+02 -0.12689212010E+02 -0.29764347427E+02  0.51728699974E+02  0.00000000000E+00 0. -1.
        -14    1    3    3    0    0  0.17326111163E+02 -0.13877076461E+02  0.35152081862E+02  0.41574466182E+02  0.00000000000E+00 0.  1.
        -13    1    4    4    0    0  0.26978877391E+02  0.23034659713E+02 -0.32282297470E+02  0.47964592183E+02  0.00000000000E+00 0.  1.
         13    1    4    4    0    0 -0.23105626531E+02  0.65852216416E+02 -0.31282209208E+03  0.32051216152E+03  0.00000000000E+00 0. -1.
         21    1    1    2  502  501  0.19160592410E+02 -0.62320587659E+02 -0.78011025688E+02  0.10166958285E+03  0.00000000000E+00 0. -1.
<scales pt_clust_5="13000.00000" pt_clust_6="13000.00000" pt_clust_7="13000.00000" pt_clust_8="13000.00000" pt_clust_9="65.19957"></scales>
<clustering>
<clus scale="   65.200">  2  9  1 -1</clus>
<clus scale="   86.256">  5  6 -1 -1</clus>
<clus scale="   93.607">  7  8 -1 -1</clus>
<clus scale="   94.837">  1  5  2 -1</clus>
<clus scale="   65.200">  2  5  1 -1</clus>
</clustering>
</event>
<event>
 9    1  0.1973774E-005  0.9311405E+02  0.7546771E-02  0.1303797E+00
         -2   -1    0    0    0  501 -0.00000000000E+00  0.00000000000E+00  0.28926234922E+03  0.28926234922E+03  0.00000000000E+00 0.  1.
          1   -1    0    0  502    0  0.00000000000E+00 -0.00000000000E+00 -0.13774377620E+03  0.13774377620E+03  0.00000000000E+00 0. -1.
         23    2    1    2    0    0 -0.10263068466E+02  0.37805802234E+01  0.21399464971E+03  0.23361258335E+03  0.93067210306E+02 0.  0.
        -24    2    1    2    0    0 -0.35621455868E+02  0.28020668237E+02  0.19863352394E+02  0.93912435533E+02  0.79818211034E+02 0.  0.
         11    1    4    4    0    0 -0.23312090591E+02 -0.21651462648E+02  0.27646473251E+02  0.42149340277E+02  0.00000000000E+00 0. -1.
        -12    1    4    4    0    0 -0.12309365277E+02  0.49672130885E+02 -0.77831208569E+01  0.51763095256E+02  0.00000000000E+00 0.  1.
        -13    1    3    3    0    0 -0.37287028340E+02 -0.30868532510E+02  0.13182488419E+03  0.14043143833E+03  0.00000000000E+00 0. -1.
         13    1    3    3    0    0  0.27023959874E+02  0.34649112733E+02  0.82169765523E+02  0.93181145016E+02  0.00000000000E+00 0.  1.
         21    1    1    2  502  501  0.45884524335E+02 -0.31801248461E+02 -0.82339429083E+02  0.99481106542E+02  0.00000000000E+00 0. -1.
<scales pt_clust_5="13000.00000" pt_clust_6="13000.00000" pt_clust_7="13000.00000" pt_clust_8="13000.00000" pt_clust_9="55.82749"></scales>
<clustering>
<clus scale="   55.827">  2  9  1 -1</clus>
<clus scale="   79.818">  5  6 -1 -1</clus>
<clus scale="   79.873">  2  5  1 -1</clus>
<clus scale="   93.067">  7  8 -1 -1</clus>
<clus scale="   55.827">  2  5  1 -1</clus>
</clustering>
</event>
<event>
 9    1  0.1973774E-005  0.1346648E+03  0.7546771E-02  0.1223899E+00
          1   -1    0    0  502    0  0.00000000000E+00  0.00000000000E+00  0.13593601997E+04  0.13593601997E+04  0.00000000000E+00 0. -1.
         -2   -1    0    0    0  501 -0.00000000000E+00 -0.00000000000E+00 -0.35103096458E+02  0.35103096458E+02  0.00000000000E+00 0.  1.
         23    2    1    2    0    0  0.92350431834E+02  0.30924294018E+01  0.15794964447E+03  0.20555461189E+03  0.93629284413E+02 0.  0.
        -24    2    1    2    0    0 -0.10448249791E+03 -0.74911068990E+02  0.64896138872E+03  0.66646054309E+03  0.80563706634E+02 0.  0.
         11    1    4    4    0    0 -0.10489741567E+03 -0.48517334003E+02  0.59802489025E+03  0.60909044391E+03  0.00000000000E+00 0. -1.
        -12    1    4    4    0    0  0.41491775755E+00 -0.26393734987E+02  0.50936498470E+02  0.57370099178E+02  0.00000000000E+00 0.  1.
        -13    1    3    3    0    0  0.74646562198E+02 -0.20322206888E+02  0.46408557270E+02  0.90215605793E+02  0.00000000000E+00 0.  1.
         13    1    3    3    0    0  0.17703869637E+02  0.23414636289E+02  0.11154108720E+03  0.11533900609E+03  0.00000000000E+00 0. -1.
         21    1    1    2  502  501  0.12132066080E+02  0.71818639588E+02  0.51734607004E+03  0.52244814116E+03  0.00000000000E+00 0. -1.
<scales pt_clust_5="13000.00000" pt_clust_6="13000.00000" pt_clust_7="13000.00000" pt_clust_8="13000.00000" pt_clust_9="72.83615"></scales>
<clustering>
<clus scale="   72.836">  1  9  2 -1</clus>
<clus scale="   80.564">  5  6 -1 -1</clus>
<clus scale="   93.629">  7  8 -1 -1</clus>
<clus scale="  125.931">  1  5  2 -1</clus>
<clus scale="   72.836">  1  5  2 -1</clus>
</clustering>
</event>
<event>
 9    1  0.1973774E-005  0.1922102E+03  0.7546771E-02  0.1157622E+00
         -2   -1    0    0    0  501 -0.00000000000E+00  0.00000000000E+00  0.14302162350E+03  0.14302162350E+03  0.00000000000E+00 0.  1.
          1   -1    0    0  502    0  0.00000000000E+00 -0.00000000000E+00 -0.61831656521E+03  0.61831656521E+03  0.00000000000E+00 0. -1.
         23    2    1    2    0    0  0.14962795557E+03 -0.87505823613E+02  0.49005806211E+02  0.20179510301E+03  0.90960982306E+02 0.  0.
        -24    2    1    2    0    0 -0.12561172751E+03  0.70620136359E+02 -0.46646002707E+03  0.49467819047E+03  0.79724811204E+02 0.  0.
         11    1    4    4    0    0 -0.98042473986E+02  0.44166792109E+02 -0.42459119893E+03  0.43799625391E+03  0.00000000000E+00 0. -1.
        -12    1    4    4    0    0 -0.27569253526E+02  0.26453344250E+02 -0.41868828140E+02  0.56681936557E+02  0.00000000000E+00 0.  1.
        -11    1    3    3    0    0  0.53313166815E+02 -0.19918858864E+02 -0.25671918368E+02  0.62434782669E+02  0.00000000000E+00 0. -1.
         11    1    3    3    0    0  0.96314788754E+02 -0.67586964749E+02  0.74677724580E+02  0.13936032034E+03  0.00000000000E+00 0.  1.
         21    1    1    2  502  501 -0.24016228057E+02  0.16885687254E+02 -0.57840720862E+02  0.64864895236E+02  0.00000000000E+00 0. -1.
<scales pt_clust_5="13000.00000" pt_clust_6="13000.00000" pt_clust_7="13000.00000" pt_clust_8="13000.00000" pt_clust_9="29.35823"></scales>
<clustering>
<clus scale="   29.358">  2  9  1 -1</clus>
<clus scale="   79.725">  5  6 -1 -1</clus>
<clus scale="   90.961">  7  8 -1 -1</clus>
<clus scale="  187.155">  2  5  1 -1</clus>
<clus scale="   29.358">  2  5  1 -1</clus>
</clustering>
</event>
<event>
 9    1  0.1973774E-005  0.1155358E+03  0.7546771E-02  0.1255155E+00
         -2   -1    0    0    0  501 -0.00000000000E+00  0.00000000000E+00  0.60265816954E+03  0.60265816954E+03  0.00000000000E+00 0.  1.
          1   -1    0    0  502    0  0.00000000000E+00 -0.00000000000E+00 -0.54021695655E+02  0.54021695655E+02  0.00000000000E+00 0. -1.
        -24    2    1    2    0    0 -0.80808186676E+02 -0.18223203451E+02  0.39128549439E+03  0.40793746304E+03  0.80290643632E+02 0.  0.
         23    2    1    2    0    0  0.41718917040E+02  0.17749378192E+02  0.17699929595E+03  0.20499023820E+03  0.92934054717E+02 0.  0.
         13    1    3    3    0    0 -0.21683579812E+02  0.16522156076E+02  0.31428257757E+02  0.41604022168E+02  0.00000000000E+00 0. -1.
        -14    1    3    3    0    0 -0.59124606864E+02 -0.34745359527E+02  0.35985723664E+03  0.36633344088E+03  0.00000000000E+00 0.  1.
        -11    1    4    4    0    0  0.31020188191E+02 -0.16337952298E+02  0.13396519864E+02  0.37531953122E+02  0.00000000000E+00 0. -1.
         11    1    4    4    0    0  0.10698728849E+02  0.34087330489E+02  0.16360277608E+03  0.16745828508E+03  0.00000000000E+00 0.  1.
         21    1    1    2  502  501  0.39089269636E+02  0.47382525938E+00 -0.19648316453E+02  0.43752163952E+02  0.00000000000E+00 0. -1.
<scales pt_clust_5="13000.00000" pt_clust_6="13000.00000" pt_clust_7="13000.00000" pt_clust_8="13000.00000" pt_clust_9="39.09214"></scales>
<clustering>
<clus scale="   39.092">  2  9  1 -1</clus>
<clus scale="   80.291">  5  6 -1 -1</clus>
<clus scale="   92.934">  7  8 -1 -1</clus>
<clus scale="  105.633">  1  5  2 -1</clus>
<clus scale="   39.092">  2  5  1 -1</clus>
</clustering>
</event>
<event>
 9    1  0.1973774E-005  0.1026642E+03  0.7546771E-02  0.1283970E+00
         -2   -1    0    0    0  501 -0.00000000000E+00  0.00000000000E+00  0.51814358858E+02  0.51814358858E+02  0.00000000000E+00 0.  1.
          1   -1    0    0  502    0  0.00000000000E+00 -0.00000000000E+00 -0.51037045952E+03  0.51037045952E+03  0.00000000000E+00 0. -1.
        -24    2    1    2    0    0  0.23201409776E+02 -0.35455995636E+02 -0.13835999407E+01  0.87009872181E+02  0.75982698465E+02 0.  0.
         23    2    1    2    0    0 -0.10693004587E+01  0.33596134596E+02 -0.29549381702E+03  0.31197786868E+03  0.94253652382E+02 0.  0.
         11    1    3    3    0    0 -0.10985056035E+02  0.17400539398E+02 -0.10995999521E+02  0.23331571591E+02  0.00000000000E+00 0. -1.
        -12    1    3    3    0    0  0.34186465811E+02 -0.52856535033E+02  0.96123995805E+01  0.63678300590E+02  0.00000000000E+00 0.  1.
        -11    1    4    4    0    0  0.35828803129E+02  0.44938958072E+02 -0.13166051438E+03  0.14365828947E+03  0.00000000000E+00 0. -1.
         11    1    4    4    0    0 -0.36898103588E+02 -0.11342823476E+02 -0.16383330264E+03  0.16831957921E+03  0.00000000000E+00 0.  1.
         21    1    1    2  502  501 -0.22132109317E+02  0.18598610395E+01 -0.16167868370E+03  0.16319707751E+03  0.00000000000E+00 0. -1.
<scales pt_clust_5="13000.00000" pt_clust_6="13000.00000" pt_clust_7="13000.00000" pt_clust_8="13000.00000" pt_clust_9="22.21012"></scales>
<clustering>
<clus scale="   22.210">  2  9  1 -1</clus>
<clus scale="   75.983">  5  6 -1 -1</clus>
<clus scale="   86.195">  1  5  2 -1</clus>
<clus scale="   94.254">  7  8 -1 -1</clus>
<clus scale="   22.210">  2  5  1 -1</clus>
</clustering>
</event>
<event>
 9    1  0.1973774E-005  0.9960775E+02  0.7546771E-02  0.1288072E+00
          1   -1    0    0  502    0  0.00000000000E+00  0.00000000000E+00  0.18497223706E+03  0.18497223706E+03  0.00000000000E+00 0. -1.
         -2   -1    0    0    0  501 -0.00000000000E+00 -0.00000000000E+00 -0.14221243848E+03  0.14221243848E+03  0.00000000000E+00 0.  1.
         23    2    1    2    0    0  0.33203202609E+02  0.14883247649E+02 -0.10296095784E+03  0.14410712482E+03  0.94031595010E+02 0.  0.
        -24    2    1    2    0    0 -0.17034984667E+02  0.67854857183E+01  0.99876495062E+02  0.12985498430E+03  0.80936822051E+02 0.  0.
         11    1    4    4    0    0 -0.26674841744E+02  0.88034500183E+01  0.11128960963E+03  0.11477989861E+03  0.00000000000E+00 0. -1.
        -12    1    4    4    0    0  0.96398570773E+01 -0.20179643001E+01 -0.11413114568E+02  0.15075085689E+02  0.00000000000E+00 0.  1.
        -11    1    3    3    0    0  0.55860406359E+02  0.37759366373E+02 -0.58851993938E+02  0.89496994017E+02  0.00000000000E+00 0.  1.
         11    1    3    3    0    0 -0.22657203750E+02 -0.22876118725E+02 -0.44108963903E+02  0.54610130803E+02  0.00000000000E+00 0. -1.
         21    1    1    2  502  501 -0.16168217942E+02 -0.21668733367E+02  0.45844261353E+02  0.53222566419E+02  0.00000000000E+00 0. -1.
<scales pt_clust_5="13000.00000" pt_clust_6="13000.00000" pt_clust_7="13000.00000" pt_clust_8="13000.00000" pt_clust_9="27.03600"></scales>
<clustering>
<clus scale="   27.036">  1  9  2 -1</clus>
<clus scale="   80.937">  5  6 -1 -1</clus>
<clus scale="   87.353">  1  5  2 -1</clus>
<clus scale="   94.032">  7  8 -1 -1</clus>
<clus scale="   27.036">  1  5  2 -1</clus>
</clustering>
</event>
<event>
 9    1  0.1973774E-005  0.2167804E+03  0.7546771E-02  0.1136882E+00
         -2   -1    0    0    0  501 -0.00000000000E+00  0.00000000000E+00  0.13237406977E+03  0.13237406977E+03  0.00000000000E+00 0.  1.
          1   -1    0    0  502    0  0.00000000000E+00 -0.00000000000E+00 -0.46953700086E+03  0.46953700086E+03  0.00000000000E+00 0. -1.
         23    2    1    2    0    0  0.16375186468E+03  0.10881760396E+03 -0.53482342267E+02  0.22314060492E+03  0.90969360303E+02 0.  0.
        -24    2    1    2    0    0 -0.14412180097E+03 -0.13745881651E+03 -0.25034363863E+03  0.33063512832E+03  0.83556154331E+02 0.  0.
         13    1    4    4    0    0 -0.52155823935E+02 -0.86560633270E+02 -0.17217955057E+03  0.19964661489E+03  0.00000000000E+00 0. -1.
        -14    1    4    4    0    0 -0.91965977034E+02 -0.50898183239E+02 -0.78164088063E+02  0.13098851343E+03  0.00000000000E+00 0.  1.
        -13    1    3    3    0    0  0.13707248858E+03  0.46395136067E+02 -0.56100798791E+02  0.15520526860E+03  0.00000000000E+00 0.  1.
         13    1    3    3    0    0  0.26679376101E+02  0.62422467895E+02  0.26184565245E+01  0.67935336327E+02  0.00000000000E+00 0. -1.
         21    1    1    2  502  501 -0.19630063709E+02  0.28641212547E+02 -0.33336950188E+02  0.48135337385E+02  0.00000000000E+00 0.  1.
<scales pt_clust_5="13000.00000" pt_clust_6="13000.00000" pt_clust_7="13000.00000" pt_clust_8="13000.00000" pt_clust_9="34.72259"></scales>
<clustering>
<clus scale="   34.723">  2  9  1 -1</clus>
<clus scale="   83.556">  5  6 -1 -1</clus>
<clus scale="   90.969">  7  8 -1 -1</clus>
<clus scale="  213.775">  2  5  1 -1</clus>
<clus scale="   34.723">  2  5  1 -1</clus>
</clustering>
</event>
<event>
 9    1  0.1973774E-005  0.9252174E+02  0.7546771E-02  0.1303399E+00
         -2   -1    0    0    0  501 -0.00000000000E+00  0.00000000000E+00  0.28791020140E+03  0.28791020140E+03  0.00000000000E+00 0.  1.
          1   -1    0    0  502    0  0.00000000000E+00 -0.00000000000E+00 -0.85731459281E+02  0.85731459281E+02  0.00000000000E+00 0. -1.
         23    2    1    2    0    0 -0.10223734175E+02 -0.14080175789E+02  0.23631073046E+03  0.25354567567E+03  0.90221240457E+02 0.  0.
        -24    2    1    2    0    0  0.30569261301E+02  0.27205631700E+02 -0.18357297449E+02  0.91198598624E+02  0.79407605987E+02 0.  0.
         13    1    4    4    0    0  0.17051678855E+02  0.32740253760E+02 -0.46571738644E+02  0.59427357406E+02  0.00000000000E+00 0. -1.
        -14    1    4    4    0    0  0.13517582447E+02 -0.55346220601E+01  0.28214441195E+02  0.31771241217E+02  0.00000000000E+00 0.  1.
        -11    1    3    3    0    0 -0.50385523533E+02 -0.10432969218E+02  0.12650585258E+03  0.13656968392E+03  0.00000000000E+00 0.  1.
         11    1    3    3    0    0  0.40161789357E+02 -0.36472065712E+01  0.10980487788E+03  0.11697599176E+03  0.00000000000E+00 0. -1.
         21    1    1    2  502  501 -0.20345527126E+02 -0.13125455911E+02 -0.15774690897E+02  0.28897386383E+02  0.00000000000E+00 0.  1.
<scales pt_clust_5="13000.00000" pt_clust_6="13000.00000" pt_clust_7="13000.00000" pt_clust_8="13000.00000" pt_clust_9="24.21194"></scales>
<clustering>
<clus scale="   24.212">  2  9  1 -1</clus>
<clus scale="   79.408">  5  6 -1 -1</clus>
<clus scale="   82.012">  2  5  1 -1</clus>
<clus scale="   90.221">  7  8 -1 -1</clus>
<clus scale="   24.212">  2  5  1 -1</clus>
</clustering>
</event>
<event>
 9    1  0.1973774E-005  0.1114761E+03  0.7546771E-02  0.1265035E+00
         -2   -1    0    0    0  501 -0.00000000000E+00  0.00000000000E+00  0.11436353620E+03  0.11436353620E+03  0.00000000000E+00 0.  1.
          1   -1    0    0  502    0  0.00000000000E+00 -0.00000000000E+00 -0.14164490190E+03  0.14164490190E+03  0.00000000000E+00 0. -1.
         23    2    1    2    0    0  0.30935655698E+02 -0.57712674318E+01  0.25752977712E+02  0.10575260786E+03  0.97622107569E+02 0.  0.
        -24    2    1    2    0    0 -0.65163806276E+02 -0.23140145598E+01 -0.49755666061E+02  0.11493320574E+03  0.80512975133E+02 0.  0.
         13    1    4    4    0    0 -0.83189595857E+02 -0.15664096603E+01 -0.30688141783E+02  0.88683282213E+02  0.00000000000E+00 0. -1.
        -14    1    4    4    0    0  0.18025789580E+02 -0.74760489949E+00 -0.19067524278E+02  0.26249923527E+02  0.00000000000E+00 0.  1.
        -13    1    3    3    0    0 -0.18766695295E+02 -0.38482849030E+02  0.71244506784E+01  0.43403644078E+02  0.00000000000E+00 0. -1.
         13    1    3    3    0    0  0.49702350992E+02  0.32711581599E+02  0.18628527034E+02  0.62348963779E+02  0.00000000000E+00 0.  1.
         21    1    1    2  502  501  0.34228150579E+02  0.80852819916E+01 -0.32786773491E+01  0.35322624507E+02  0.00000000000E+00 0.  1.
<scales pt_clust_5="13000.00000" pt_clust_6="13000.00000" pt_clust_7="13000.00000" pt_clust_8="13000.00000" pt_clust_9="35.17013"></scales>
<clustering>
<clus scale="   35.170">  1  9  2 -1</clus>
<clus scale="   80.513">  5  6 -1 -1</clus>
<clus scale="   96.846">  2  5  1 -1</clus>
<clus scale="   97.622">  7  8 -1 -1</clus>
<clus scale="   96.846">  2  5  1 -1</clus>
</clustering>
</event>
<event>
 9    1  0.1973774E-005  0.1423033E+03  0.7546771E-02  0.1212492E+00
          1   -1    0    0  502    0  0.00000000000E+00  0.00000000000E+00  0.28624222539E+03  0.28624222539E+03  0.00000000000E+00 0. -1.
         -2   -1    0    0    0  501 -0.00000000000E+00 -0.00000000000E+00 -0.17258521799E+03  0.17258521799E+03  0.00000000000E+00 0.  1.
         23    2    1    2    0    0 -0.25590294644E+02  0.11406101826E+03 -0.11055938448E+03  0.18501099741E+03  0.91328596828E+02 0.  0.
        -24    2    1    2    0    0  0.13644538098E+02 -0.67621736532E+02  0.17785690900E+03  0.20711929730E+03  0.80662572268E+02 0.  0.
         13    1    4    4    0    0  0.44147852422E+02 -0.57332975538E+02  0.13858828620E+03  0.15634198422E+03  0.00000000000E+00 0. -1.
        -14    1    4    4    0    0 -0.30503314323E+02 -0.10288760994E+02  0.39268622798E+02  0.50777313083E+02  0.00000000000E+00 0.  1.
        -13    1    3    3    0    0  0.90765976411E+00  0.77911761819E+02 -0.14840200840E+02  0.79317703175E+02  0.00000000000E+00 0. -1.
         13    1    3    3    0    0 -0.26497954408E+02  0.36149256443E+02 -0.95719183641E+02  0.10569329423E+03  0.00000000000E+00 0.  1.
         21    1    1    2  502  501  0.11945756545E+02 -0.46439281730E+02  0.46359482887E+02  0.66697148669E+02  0.00000000000E+00 0. -1.
<scales pt_clust_5="13000.00000" pt_clust_6="13000.00000" pt_clust_7="13000.00000" pt_clust_8="13000.00000" pt_clust_9="47.95110"></scales>
<clustering>
<clus scale="   47.951">  1  9  2 -1</clus>
<clus scale="   80.663">  5  6 -1 -1</clus>
<clus scale="   91.329">  7  8 -1 -1</clus>
<clus scale="  135.705">  1  5  2 -1</clus>
<clus scale="   47.951">  1  5  2 -1</clus>
</clustering>
</event>
<event>
 9    1  0.3550686E-005  0.1018812E+03  0.7546771E-02  0.1284460E+00
          1   -1    0    0  502    0  0.00000000000E+00  0.00000000000E+00  0.45492324754E+03  0.45492324754E+03  0.00000000000E+00 0. -1.
         -2   -1    0    0    0  501 -0.00000000000E+00 -0.00000000000E+00 -0.42455429133E+03  0.42455429133E+03  0.00000000000E+00 0.  1.
        -24    2    1    2    0    0 -0.10995757756E+02 -0.96311917440E+01 -0.40947168106E+03  0.41867971482E+03  0.86092853783E+02 0.  0.
         23    2    1    2    0    0  0.35944743843E+02  0.20766772671E+02  0.32650948542E+03  0.34421994001E+03  0.10077519323E+03 0.  0.
         11    1    3    3    0    0  0.13650339830E+02  0.34282023871E+02 -0.16501938403E+03  0.16909460678E+03  0.00000000000E+00 0. -1.
        -12    1    3    3    0    0 -0.24646097586E+02 -0.43913215615E+02 -0.24445229703E+03  0.24958510804E+03  0.00000000000E+00 0.  1.
        -13    1    4    4    0    0  0.34221889056E+02 -0.37060161995E+02  0.13288254304E+03  0.14213501871E+03  0.00000000000E+00 0. -1.
         13    1    4    4    0    0  0.17228547869E+01  0.57826934666E+02  0.19362694238E+03  0.20208492130E+03  0.00000000000E+00 0.  1.
         21    1    1    2  502  501 -0.24948986087E+02 -0.11135580927E+02  0.11333115184E+03  0.11657788404E+03  0.00000000000E+00 0.  1.
<scales pt_clust_5="13000.00000" pt_clust_6="13000.00000" pt_clust_7="13000.00000" pt_clust_8="13000.00000" pt_clust_9="27.32129"></scales>
<clustering>
<clus scale="   27.321">  1  9  2 -1</clus>
<clus scale="   86.093">  5  6 -1 -1</clus>
<clus scale="   87.385">  2  5  1 -1</clus>
<clus scale="  100.775">  7  8 -1 -1</clus>
<clus scale="   27.321">  1  5  2 -1</clus>
</clustering>
</event>
<event>
 9    1  0.1973774E-005  0.1069168E+03  0.7546771E-02  0.1270823E+00
          3   -1    0    0  502    0  0.00000000000E+00  0.00000000000E+00  0.57799355807E+02  0.57799355807E+02  0.00000000000E+00 0. -1.
         -4   -1    0    0    0  501 -0.00000000000E+00 -0.00000000000E+00 -0.61467682787E+03  0.61467682787E+03  0.00000000000E+00 0.  1.
         23    2    1    2    0    0  0.14167072644E+02 -0.46349947086E+02 -0.41581438013E+03  0.42848054072E+03  0.91350706098E+02 0.  0.
        -24    2    1    2    0    0 -0.75942680366E+02  0.59149844783E+02 -0.12830299086E+03  0.17963040957E+03  0.80866752990E+02 0.  0.
         13    1    4    4    0    0 -0.56602097205E+02  0.50850571634E+02 -0.34588827189E+02  0.83582085460E+02  0.00000000000E+00 0. -1.
        -14    1    4    4    0    0 -0.19340583161E+02  0.82992731495E+01 -0.93714163667E+02  0.96048324106E+02  0.00000000000E+00 0.  1.
        -13    1    3    3    0    0 -0.37775648968E+02 -0.79708991941E+01 -0.14224570552E+03  0.14739191167E+03  0.00000000000E+00 0. -1.
         13    1    3    3    0    0  0.51942721611E+02 -0.38379047892E+02 -0.27356867462E+03  0.28108862904E+03  0.00000000000E+00 0.  1.
         21    1    1    2  502  501  0.61775607723E+02 -0.12799897698E+02 -0.12760101074E+02  0.64365233395E+02  0.00000000000E+00 0.  1.
<scales pt_clust_5="13000.00000" pt_clust_6="13000.00000" pt_clust_7="13000.00000" pt_clust_8="13000.00000" pt_clust_9="63.08774"></scales>
<clustering>
<clus scale="   63.088">  1  9  2 -1</clus>
<clus scale="   80.867">  5  6 -1 -1</clus>
<clus scale="   91.351">  7  8 -1 -1</clus>
<clus scale="   98.111">  1  5  2 -1</clus>
<clus scale="   63.088">  1  5  2 -1</clus>
</clustering>
</event>
<event>
 9    1  0.1973774E-005  0.1035874E+03  0.7546771E-02  0.1278538E+00
         -4   -1    0    0    0  501 -0.00000000000E+00  0.00000000000E+00  0.14655742955E+03  0.14655742955E+03  0.00000000000E+00 0.  1.
          3   -1    0    0  502    0  0.00000000000E+00 -0.00000000000E+00 -0.93023613092E+02  0.93023613092E+02  0.00000000000E+00 0. -1.
         23    2    1    2    0    0 -0.29475234487E+02 -0.46204500819E+02  0.64296280028E+02  0.12463531483E+03  0.91631352354E+02 0.  0.
        -24    2    1    2    0    0  0.34231731417E+02  0.21412204600E+02 -0.94435085121E+01  0.89666846166E+02  0.79502638363E+02 0.  0.
         13    1    4    4    0    0  0.35220447001E+02  0.37099441796E+02 -0.33342589677E+02  0.61062072966E+02  0.00000000000E+00 0. -1.
        -14    1    4    4    0    0 -0.98871558359E+00 -0.15687237195E+02  0.23899081165E+02  0.28604773201E+02  0.00000000000E+00 0.  1.
        -11    1    3    3    0    0 -0.15706279684E+02  0.13383692629E+02  0.59859348877E+02  0.63316286198E+02  0.00000000000E+00 0.  1.
         11    1    3    3    0    0 -0.13768954803E+02 -0.59588193448E+02  0.44369311515E+01  0.61319028636E+02  0.00000000000E+00 0. -1.
         21    1    1    2  502  501 -0.47564969302E+01  0.24792296218E+02 -0.13189550542E+01  0.25278881646E+02  0.00000000000E+00 0.  1.
<scales pt_clust_5="13000.00000" pt_clust_6="13000.00000" pt_clust_7="13000.00000" pt_clust_8="13000.00000" pt_clust_9="25.24445"></scales>
<clustering>
<clus scale="   25.244">  2  9  1 -1</clus>
<clus scale="   79.503">  5  6 -1 -1</clus>
<clus scale="   91.631">  7  8 -1 -1</clus>
<clus scale="   93.031">  2  5  1 -1</clus>
<clus scale="   25.244">  2  5  1 -1</clus>
</clustering>
</event>
<event>
 9    1  0.1973774E-005  0.9196060E+02  0.7546771E-02  0.1303724E+00
          1   -1    0    0  502    0  0.00000000000E+00  0.00000000000E+00  0.54172034392E+03  0.54172034392E+03  0.00000000000E+00 0. -1.
         -2   -1    0    0    0  501 -0.00000000000E+00 -0.00000000000E+00 -0.19786720564E+03  0.19786720564E+03  0.00000000000E+00 0.  1.
         23    2    1    2    0    0 -0.42733125877E+00  0.19988535328E+02 -0.17645389264E+03  0.19916510500E+03  0.90172272161E+02 0.  0.
        -24    2    1    2    0    0  0.91581287712E+01  0.36112514544E+02  0.30804071724E+03  0.32069410651E+03  0.81040986165E+02 0.  0.
         13    1    4    4    0    0  0.99746731023E+01  0.52458430406E+02  0.11314736574E+03  0.12511477690E+03  0.00000000000E+00 0. -1.
        -14    1    4    4    0    0 -0.81654433120E+00 -0.16345915862E+02  0.19489335150E+03  0.19557932961E+03  0.00000000000E+00 0.  1.
        -13    1    3    3    0    0 -0.10209213533E+02  0.45188107413E+02 -0.43695750294E+02  0.63682899481E+02  0.00000000000E+00 0.  1.
         13    1    3    3    0    0  0.97818822740E+01 -0.25199572085E+02 -0.13275814235E+03  0.13548220552E+03  0.00000000000E+00 0. -1.
         21    1    1    2  502  501 -0.87307975124E+01 -0.56101049872E+02  0.21226631367E+03  0.21972833805E+03  0.00000000000E+00 0. -1.
<scales pt_clust_5="13000.00000" pt_clust_6="13000.00000" pt_clust_7="13000.00000" pt_clust_8="13000.00000" pt_clust_9="56.77636"></scales>
<clustering>
<clus scale="   56.776">  1  9  2 -1</clus>
<clus scale="   81.041">  5  6 -1 -1</clus>
<clus scale="   83.026">  1  5  2 -1</clus>
<clus scale="   90.172">  7  8 -1 -1</clus>
<clus scale="   56.776">  1  5  2 -1</clus>
</clustering>
</event>
<event>
 9    1  0.1973774E-005  0.1164781E+03  0.7546771E-02  0.1253945E+00
          1   -1    0    0  502    0  0.00000000000E+00  0.00000000000E+00  0.43905343518E+03  0.43905343518E+03  0.00000000000E+00 0. -1.
         -2   -1    0    0    0  501 -0.00000000000E+00 -0.00000000000E+00 -0.69833726224E+02  0.69833726224E+02  0.00000000000E+00 0.  1.
        -24    2    1    2    0    0 -0.23014127952E+02  0.41303191403E+01 -0.59035130980E+01  0.84166655463E+02  0.80637862096E+02 0.  0.
         23    2    1    2    0    0  0.76889675930E+02 -0.18984622070E+02  0.33197104425E+03  0.35411359810E+03  0.94441664537E+02 0.  0.
         11    1    3    3    0    0 -0.46673502572E+02  0.12187330279E+02  0.16113497335E+02  0.50858545576E+02  0.00000000000E+00 0. -1.
        -12    1    3    3    0    0  0.23659374620E+02 -0.80570111392E+01 -0.22017010433E+02  0.33308109888E+02  0.00000000000E+00 0.  1.
        -11    1    4    4    0    0  0.98681370543E+02 -0.19871535292E+02  0.25619173008E+03  0.27525823034E+03  0.00000000000E+00 0. -1.
         11    1    4    4    0    0 -0.21791694613E+02  0.88691322210E+00  0.75779314174E+02  0.78855367768E+02  0.00000000000E+00 0.  1.
         21    1    1    2  502  501 -0.53875547977E+02  0.14854302930E+02  0.43152177803E+02  0.70606907838E+02  0.00000000000E+00 0.  1.
<scales pt_clust_5="13000.00000" pt_clust_6="13000.00000" pt_clust_7="13000.00000" pt_clust_8="13000.00000" pt_clust_9="55.88582"></scales>
<clustering>
<clus scale="   55.886">  2  9  1 -1</clus>
<clus scale="   80.638">  5  6 -1 -1</clus>
<clus scale="   94.442">  7  8 -1 -1</clus>
<clus scale="  105.595">  2  5  1 -1</clus>
<clus scale="  116.478">  1  5  2 -1</clus>
</clustering>
</event>
<event>
 9    1  0.1973774E-005  0.1318960E+03  0.7546771E-02  0.1227432E+00
          1   -1    0    0  502    0  0.00000000000E+00  0.00000000000E+00  0.28682906046E+03  0.28682906046E+03  0.00000000000E+00 0. -1.
         -2   -1    0    0    0  501 -0.00000000000E+00 -0.00000000000E+00 -0.18535184995E+03  0.18535184995E+03  0.00000000000E+00 0.  1.
        -24    2    1    2    0    0 -0.75409173240E+02 -0.55620238388E+02 -0.13148993164E+03  0.18035570513E+03  0.80364319972E+02 0.  0.
         23    2    1    2    0    0  0.72254769589E+02  0.79619478921E+02  0.15231479658E+03  0.20761882396E+03  0.91355162152E+02 0.  0.
         11    1    3    3    0    0 -0.69555306108E+02 -0.16045279581E+02 -0.43228934487E+02  0.83451377349E+02  0.00000000000E+00 0. -1.
        -12    1    3    3    0    0 -0.58538671320E+01 -0.39574958807E+02 -0.88260997153E+02  0.96904327785E+02  0.00000000000E+00 0.  1.
        -11    1    4    4    0    0  0.40291768913E+02  0.55871487891E+01  0.10843905893E+03  0.11581740963E+03  0.00000000000E+00 0.  1.
         11    1    4    4    0    0  0.31963000676E+02  0.74032330132E+02  0.43875737658E+02  0.91801414325E+02  0.00000000000E+00 0. -1.
         21    1    1    2  502  501  0.31544036510E+01 -0.23999240533E+02  0.80652345564E+02  0.84206381312E+02  0.00000000000E+00 0.  1.
<scales pt_clust_5="13000.00000" pt_clust_6="13000.00000" pt_clust_7="13000.00000" pt_clust_8="13000.00000" pt_clust_9="24.20566"></scales>
<clustering>
<clus scale="   24.206">  1  9  2 -1</clus>
<clus scale="   80.364">  5  6 -1 -1</clus>
<clus scale="   91.355">  7  8 -1 -1</clus>
<clus scale="  124.536">  2  5  1 -1</clus>
<clus scale="   24.206">  1  5  2 -1</clus>
</clustering>
</event>
<event>
 9    1  0.1973774E-005  0.1156540E+03  0.7546771E-02  0.1252116E+00
         -2   -1    0    0    0  501 -0.00000000000E+00  0.00000000000E+00  0.29183162970E+03  0.29183162970E+03  0.00000000000E+00 0.  1.
          1   -1    0    0  502    0  0.00000000000E+00 -0.00000000000E+00 -0.11233176414E+03  0.11233176414E+03  0.00000000000E+00 0. -1.
         23    2    1    2    0    0  0.33590380282E+02 -0.72155392366E+02  0.21110443975E+03  0.24370870180E+03  0.92163618387E+02 0.  0.
        -24    2    1    2    0    0  0.16920503451E+02  0.44602555123E+02 -0.15749209127E+02  0.10077302972E+03  0.87358311404E+02 0.  0.
         13    1    4    4    0    0  0.67067784240E+01  0.67731581380E+02 -0.26839880350E+02  0.73163701180E+02  0.00000000000E+00 0. -1.
        -14    1    4    4    0    0  0.10213725028E+02 -0.23129026258E+02  0.11090671222E+02  0.27609328545E+02  0.00000000000E+00 0.  1.
        -13    1    3    3    0    0  0.36487272646E+02  0.11010354018E+02  0.56929293887E+02  0.68509075773E+02  0.00000000000E+00 0.  1.
         13    1    3    3    0    0 -0.28968923640E+01 -0.83165746384E+02  0.15417514586E+03  0.17519962602E+03  0.00000000000E+00 0. -1.
         21    1    1    2  502  501 -0.50510883733E+02  0.27552837243E+02 -0.15855365066E+02  0.59681662318E+02  0.00000000000E+00 0. -1.
<scales pt_clust_5="13000.00000" pt_clust_6="13000.00000" pt_clust_7="13000.00000" pt_clust_8="13000.00000" pt_clust_9="57.53702"></scales>
<clustering>
<clus scale="   57.537">  2  9  1 -1</clus>
<clus scale="   87.358">  5  6 -1 -1</clus>
<clus scale="   92.164">  7  8 -1 -1</clus>
<clus scale="  111.862">  2  5  1 -1</clus>
<clus scale="   57.537">  2  5  1 -1</clus>
</clustering>
</event>
<event>
 9    1  0.1973774E-005  0.1261170E+03  0.7546771E-02  0.1242126E+00
          1   -1    0    0  502    0  0.00000000000E+00  0.00000000000E+00  0.13091909458E+04  0.13091909458E+04  0.00000000000E+00 0. -1.
         -2   -1    0    0    0  501 -0.00000000000E+00 -0.00000000000E+00 -0.28602542669E+02  0.28602542669E+02  0.00000000000E+00 0.  1.
         23    2    1    2    0    0 -0.25129375203E+01 -0.61572443525E+02  0.15383108081E+03  0.19679778610E+03  0.10615030163E+03 0.  0.
        -24    2    1    2    0    0 -0.21555727742E+02  0.10153246574E+03  0.89552620346E+03  0.90510603673E+03  0.80475248639E+02 0.  0.
         11    1    4    4    0    0 -0.13212594210E+01  0.98184125577E+02  0.53095638723E+03  0.53995977015E+03  0.00000000000E+00 0. -1.
        -12    1    4    4    0    0 -0.20234468321E+02  0.33483401636E+01  0.36456981623E+03  0.36514626658E+03  0.00000000000E+00 0.  1.
        -13    1    3    3    0    0 -0.14540005096E+02 -0.88262366072E+02  0.91637994702E+02  0.12805927958E+03  0.00000000000E+00 0.  1.
         13    1    3    3    0    0  0.12027067575E+02  0.26689922548E+02  0.62193086104E+02  0.68738506525E+02  0.00000000000E+00 0. -1.
         21    1    1    2  502  501  0.24068665262E+02 -0.39960022216E+02  0.23123111886E+03  0.23588966564E+03  0.00000000000E+00 0.  1.
<scales pt_clust_5="13000.00000" pt_clust_6="13000.00000" pt_clust_7="13000.00000" pt_clust_8="13000.00000" pt_clust_9="46.64873"></scales>
<clustering>
<clus scale="   46.649">  1  9  2 -1</clus>
<clus scale="   80.475">  5  6 -1 -1</clus>
<clus scale="  105.422">  1  5  2 -1</clus>
<clus scale="  106.150">  7  8 -1 -1</clus>
<clus scale="   46.649">  1  5  2 -1</clus>
</clustering>
</event>
<event>
 9    1  0.1973774E-005  0.1381017E+03  0.7546771E-02  0.1243069E+00
         -2   -1    0    0    0  501 -0.00000000000E+00  0.00000000000E+00  0.17909831102E+03  0.17909831102E+03  0.00000000000E+00 0.  1.
          1   -1    0    0  502    0  0.00000000000E+00 -0.00000000000E+00 -0.30892436506E+03  0.30892436506E+03  0.00000000000E+00 0. -1.
         23    2    1    2    0    0 -0.31331109806E+02  0.88877489846E+02  0.11774249606E+03  0.18171016143E+03  0.10136291602E+03 0.  0.
        -24    2    1    2    0    0  0.33148832550E+02  0.75575780276E+01 -0.75815627393E+02  0.10933004616E+03  0.71056931757E+02 0.  0.
         11    1    4    4    0    0  0.11658673400E+02 -0.30712358001E+02 -0.44941588454E+02  0.55667943847E+02  0.00000000000E+00 0. -1.
        -12    1    4    4    0    0  0.21490159150E+02  0.38269936028E+02 -0.30874038939E+02  0.53662102310E+02  0.00000000000E+00 0.  1.
        -11    1    3    3    0    0  0.25603441210E+02  0.44597192197E+02  0.10525501715E+02  0.52490303295E+02  0.00000000000E+00 0. -1.
         11    1    3    3    0    0 -0.56934551017E+02  0.44280297649E+02  0.10721699435E+03  0.12921985813E+03  0.00000000000E+00 0.  1.
         21    1    1    2  502  501 -0.18177227436E+01 -0.96435067874E+02 -0.17175292271E+03  0.19698246849E+03  0.00000000000E+00 0. -1.
<scales pt_clust_5="13000.00000" pt_clust_6="13000.00000" pt_clust_7="13000.00000" pt_clust_8="13000.00000" pt_clust_9="93.79570"></scales>
<clustering>
<clus scale="   71.057">  5  6 -1 -1</clus>
<clus scale="   78.772">  2  5  1 -1</clus>
<clus scale="   93.796">  2  9  1 -1</clus>
<clus scale="  101.363">  7  8 -1 -1</clus>
<clus scale="   78.772">  2  5  1 -1</clus>
</clustering>
</event>
<event>
 9    1  0.1973774E-005  0.1078621E+03  0.7546771E-02  0.1266725E+00
          1   -1    0    0  502    0  0.00000000000E+00  0.00000000000E+00  0.11482826509E+03  0.11482826509E+03  0.00000000000E+00 0. -1.
         -2   -1    0    0    0  501 -0.00000000000E+00 -0.00000000000E+00 -0.23902973080E+03  0.23902973080E+03  0.00000000000E+00 0.  1.
        -24    2    1    2    0    0 -0.45331450119E+02 -0.38327687080E+02 -0.11924542745E+03  0.15621241689E+03  0.81602054247E+02 0.  0.
         23    2    1    2    0    0  0.13540438410E+02  0.86420925875E+02 -0.40480223304E+02  0.12992855185E+03  0.87125542786E+02 0.  0.
         11    1    3    3    0    0 -0.45446897641E+02 -0.62038884482E+02 -0.85892689230E+02  0.11529005922E+03  0.00000000000E+00 0. -1.
        -12    1    3    3    0    0  0.11544752201E+00  0.23711197402E+02 -0.33352738216E+02  0.40922357666E+02  0.00000000000E+00 0.  1.
        -11    1    4    4    0    0 -0.51981459746E+01  0.98447695237E+02 -0.42933138151E+02  0.10752778139E+03  0.00000000000E+00 0.  1.
         11    1    4    4    0    0  0.18738584384E+02 -0.12026769361E+02  0.24529148478E+01  0.22400770461E+02  0.00000000000E+00 0. -1.
         21    1    1    2  502  501  0.31791011710E+02 -0.48093238796E+02  0.35524185045E+02  0.67717027153E+02  0.00000000000E+00 0. -1.
<scales pt_clust_5="13000.00000" pt_clust_6="13000.00000" pt_clust_7="13000.00000" pt_clust_8="13000.00000" pt_clust_9="57.65092"></scales>
<clustering>
<clus scale="   57.651">  1  9  2 -1</clus>
<clus scale="   81.602">  5  6 -1 -1</clus>
<clus scale="   87.126">  7  8 -1 -1</clus>
<clus scale="  103.452">  2  5  1 -1</clus>
<clus scale="   57.651">  1  5  2 -1</clus>
</clustering>
</event>
<event>
 9    1  0.1973774E-005  0.8742712E+02  0.7546771E-02  0.1312952E+00
         -2   -1    0    0    0  501 -0.00000000000E+00  0.00000000000E+00  0.32505871828E+02  0.32505871828E+02  0.00000000000E+00 0.  1.
          1   -1    0    0  502    0  0.00000000000E+00 -0.00000000000E+00 -0.54156434625E+03  0.54156434625E+03  0.00000000000E+00 0. -1.
        -24    2    1    2    0    0 -0.14623257081E+01 -0.18009759281E+02 -0.48136022052E+02  0.95600461073E+02  0.80597032902E+02 0.  0.
         23    2    1    2    0    0 -0.22072356174E+02 -0.68627633466E+01 -0.26802070652E+03  0.28255240916E+03  0.86408786436E+02 0.  0.
         11    1    3    3    0    0 -0.29334871791E+02 -0.31714613356E+02 -0.47948848880E+02  0.64540247227E+02  0.00000000000E+00 0. -1.
        -12    1    3    3    0    0  0.27872546083E+02  0.13704854075E+02 -0.18717317270E+00  0.31060213846E+02  0.00000000000E+00 0.  1.
        -13    1    4    4    0    0 -0.48008496130E+02 -0.77122521150E+01 -0.23779445638E+03  0.24271484919E+03  0.00000000000E+00 0. -1.
         13    1    4    4    0    0  0.25936139956E+02  0.84948876835E+00 -0.30226250139E+02  0.39837559972E+02  0.00000000000E+00 0.  1.
         21    1    1    2  502  501  0.23534681882E+02  0.24872522628E+02 -0.19290174585E+03  0.19591734784E+03  0.00000000000E+00 0.  1.
<scales pt_clust_5="13000.00000" pt_clust_6="13000.00000" pt_clust_7="13000.00000" pt_clust_8="13000.00000" pt_clust_9="34.24213"></scales>
<clustering>
<clus scale="   34.242">  2  9  1 -1</clus>
<clus scale="   80.597">  5  6 -1 -1</clus>
<clus scale="   81.688">  1  5  2 -1</clus>
<clus scale="   86.409">  7  8 -1 -1</clus>
<clus scale="   34.242">  2  5  1 -1</clus>
</clustering>
</event>
<event>
 9    1  0.1973774E-005  0.9580338E+02  0.7546771E-02  0.1297305E+00
          1   -1    0    0  502    0  0.00000000000E+00  0.00000000000E+00  0.29634350461E+03  0.29634350461E+03  0.00000000000E+00 0. -1.
         -2   -1    0    0    0  501 -0.00000000000E+00 -0.00000000000E+00 -0.67632171324E+02  0.67632171324E+02  0.00000000000E+00 0.  1.
        -24    2    1    2    0    0  0.16338378671E+01  0.35306088704E+02 -0.12058044472E+02  0.85724552197E+02  0.77162899681E+02 0.  0.
         23    2    1    2    0    0  0.19604049722E+01 -0.11107010252E+02  0.10155336313E+03  0.13690186584E+03  0.91114359147E+02 0.  0.
         11    1    3    3    0    0  0.27911859639E+02  0.40248608311E+02  0.11247555771E+02  0.50254650435E+02  0.00000000000E+00 0. -1.
        -12    1    3    3    0    0 -0.26278021772E+02 -0.49425196068E+01 -0.23305600243E+02  0.35469901762E+02  0.00000000000E+00 0.  1.
        -13    1    4    4    0    0 -0.15193828265E+02  0.37068968978E+02  0.52503761825E+02  0.66042455166E+02  0.00000000000E+00 0.  1.
         13    1    4    4    0    0  0.17154233238E+02 -0.48175979231E+02  0.49049601304E+02  0.70859410672E+02  0.00000000000E+00 0. -1.
         21    1    1    2  502  501 -0.35942428393E+01 -0.24199078452E+02  0.13921601463E+03  0.14134925790E+03  0.00000000000E+00 0. -1.
<scales pt_clust_5="13000.00000" pt_clust_6="13000.00000" pt_clust_7="13000.00000" pt_clust_8="13000.00000" pt_clust_9="24.46455"></scales>
<clustering>
<clus scale="   24.465">  1  9  2 -1</clus>
<clus scale="   77.163">  5  6 -1 -1</clus>
<clus scale="   82.647">  2  5  1 -1</clus>
<clus scale="   91.114">  7  8 -1 -1</clus>
<clus scale="   24.465">  1  5  2 -1</clus>
</clustering>
</event>
<event>
 9    1  0.1973774E-005  0.1006959E+03  0.7546771E-02  0.1285624E+00
          1   -1    0    0  502    0  0.00000000000E+00  0.00000000000E+00  0.45179690924E+02  0.45179690924E+02  0.00000000000E+00 0. -1.
         -2   -1    0    0    0  501 -0.00000000000E+00 -0.00000000000E+00 -0.34628112202E+03  0.34628112202E+03  0.00000000000E+00 0.  1.
         23    2    1    2    0    0 -0.20060523725E+01  0.28559137875E+02 -0.21954353261E+03  0.24054787720E+03  0.94043978610E+02 0.  0.
        -24    2    1    2    0    0 -0.10136727140E+02 -0.54668472216E+02 -0.64247670235E+02  0.11731548888E+03  0.80893545529E+02 0.  0.
         13    1    4    4    0    0 -0.33245390794E+02 -0.86996169674E+00 -0.43265427671E+01  0.33537021554E+02  0.00000000000E+00 0. -1.
        -14    1    4    4    0    0  0.23108663654E+02 -0.53798510519E+02 -0.59921127468E+02  0.83778467322E+02  0.00000000000E+00 0.  1.
        -13    1    3    3    0    0 -0.44430413099E+01 -0.34703105370E+02 -0.76530883553E+02  0.84148810306E+02  0.00000000000E+00 0. -1.
         13    1    3    3    0    0  0.24369889374E+01  0.63262243246E+02 -0.14301264905E+03  0.15639906689E+03  0.00000000000E+00 0.  1.
         21    1    1    2  502  501  0.12142779512E+02  0.26109334340E+02 -0.17310228254E+02  0.33597446870E+02  0.00000000000E+00 0.  1.
<scales pt_clust_5="13000.00000" pt_clust_6="13000.00000" pt_clust_7="13000.00000" pt_clust_8="13000.00000" pt_clust_9="28.79487"></scales>
<clustering>
<clus scale="   28.795">  1  9  2 -1</clus>
<clus scale="   80.894">  5  6 -1 -1</clus>
<clus scale="   88.539">  1  5  2 -1</clus>
<clus scale="   94.044">  7  8 -1 -1</clus>
<clus scale="   28.795">  1  5  2 -1</clus>
</clustering>
</event>
<event>
 9    1  0.1973774E-005  0.2164298E+03  0.7546771E-02  0.1137482E+00
         -2   -1    0    0    0  501 -0.00000000000E+00  0.00000000000E+00  0.95722469873E+02  0.95722469873E+02  0.00000000000E+00 0.  1.
          1   -1    0    0  502    0  0.00000000000E+00 -0.00000000000E+00 -0.72241992336E+03  0.72241992336E+03  0.00000000000E+00 0. -1.
         23    2    1    2    0    0  0.18488637248E+03  0.57315651532E+02 -0.13312183014E+03  0.25211265331E+03  0.91494883230E+02 0.  0.
        -24    2    1    2    0    0 -0.20146203170E+03 -0.23967908551E+02 -0.31153591901E+03  0.38021994902E+03  0.79694227817E+02 0.  0.
         13    1    4    4    0    0 -0.59710408290E+02  0.13773186367E+01 -0.16182886569E+03  0.17249872938E+03  0.00000000000E+00 0. -1.
        -14    1    4    4    0    0 -0.14175162341E+03 -0.25345227188E+02 -0.14970705332E+03  0.20772121965E+03  0.00000000000E+00 0.  1.
        -13    1    3    3    0    0  0.75420241984E+02  0.95054981644E+01 -0.38684381765E+01  0.76115256094E+02  0.00000000000E+00 0.  1.
         13    1    3    3    0    0  0.10946613050E+03  0.47810153368E+02 -0.12925339197E+03  0.17599739721E+03  0.00000000000E+00 0. -1.
         21    1    1    2  502  501  0.16575659213E+02 -0.33347742981E+02 -0.18203970433E+03  0.18580979090E+03  0.00000000000E+00 0. -1.
<scales pt_clust_5="13000.00000" pt_clust_6="13000.00000" pt_clust_7="13000.00000" pt_clust_8="13000.00000" pt_clust_9="37.24009"></scales>
<clustering>
<clus scale="   37.240">  2  9  1 -1</clus>
<clus scale="   79.694">  5  6 -1 -1</clus>
<clus scale="   91.495">  7  8 -1 -1</clus>
<clus scale="  211.711">  2  5  1 -1</clus>
<clus scale="   37.240">  2  5  1 -1</clus>
</clustering>
</event>
<event>
 9    1  0.1973774E-005  0.1266892E+03  0.7546771E-02  0.1232656E+00
         -2   -1    0    0    0  501 -0.00000000000E+00  0.00000000000E+00  0.36889006827E+03  0.36889006827E+03  0.00000000000E+00 0.  1.
          1   -1    0    0  502    0  0.00000000000E+00 -0.00000000000E+00 -0.80534681510E+02  0.80534681510E+02  0.00000000000E+00 0. -1.
         23    2    1    2    0    0 -0.43594439780E+02  0.81380532279E+02  0.26914814159E+03  0.29932233131E+03  0.92897091918E+02 0.  0.
        -24    2    1    2    0    0  0.37299798156E+02 -0.50918960917E+02 -0.32092469109E+01  0.11176146177E+03  0.92175428115E+02 0.  0.
         11    1    4    4    0    0  0.62304534796E+02 -0.50959442230E+02  0.13600765837E+02  0.81631492941E+02  0.00000000000E+00 0. -1.
        -12    1    4    4    0    0 -0.25004736639E+02  0.40481313605E-01 -0.16810012748E+02  0.30129968830E+02  0.00000000000E+00 0.  1.
        -11    1    3    3    0    0 -0.43177002617E+02  0.58927208985E+01  0.16522756655E+03  0.17087751890E+03  0.00000000000E+00 0.  1.
         11    1    3    3    0    0 -0.41743716288E+00  0.75487811380E+02  0.10392057504E+03  0.12844481242E+03  0.00000000000E+00 0. -1.
         21    1    1    2  502  501  0.62946416232E+01 -0.30461571362E+02  0.22416492074E+02  0.38340956691E+02  0.00000000000E+00 0.  1.
<scales pt_clust_5="13000.00000" pt_clust_6="13000.00000" pt_clust_7="13000.00000" pt_clust_8="13000.00000" pt_clust_9="31.10514"></scales>
<clustering>
<clus scale="   31.105">  2  9  1 -1</clus>
<clus scale="   92.175">  5  6 -1 -1</clus>
<clus scale="   92.897">  7  8 -1 -1</clus>
<clus scale="  126.161">  2  5  1 -1</clus>
<clus scale="   31.105">  2  5  1 -1</clus>
</clustering>
</event>
<event>
 9    1  0.1973774E-005  0.1290056E+03  0.7546771E-02  0.1232728E+00
         -2   -1    0    0    0  501 -0.00000000000E+00  0.00000000000E+00  0.74077714037E+02  0.74077714037E+02  0.00000000000E+00 0.  1.
          1   -1    0    0  502    0  0.00000000000E+00 -0.00000000000E+00 -0.28261506057E+03  0.28261506057E+03  0.00000000000E+00 0. -1.
         23    2    1    2    0    0 -0.57739209516E+02 -0.52654646392E+02 -0.94336321698E+02  0.15306050611E+03  0.91770631669E+02 0.  0.
        -24    2    1    2    0    0  0.94877702405E+02  0.44427030682E+02 -0.84051729014E+02  0.15509422823E+03  0.77549900137E+02 0.  0.
         11    1    4    4    0    0  0.36258077333E+02 -0.60197947632E+01 -0.66206235300E+02  0.75724181696E+02  0.00000000000E+00 0. -1.
        -12    1    4    4    0    0  0.58619625072E+02  0.50446825445E+02 -0.17845493715E+02  0.79370046535E+02  0.00000000000E+00 0.  1.
        -13    1    3    3    0    0 -0.80240576207E+02 -0.36256331593E+02 -0.51607435572E+02  0.10206076159E+03  0.00000000000E+00 0.  1.
         13    1    3    3    0    0  0.22501366691E+02 -0.16398314800E+02 -0.42728886126E+02  0.50999744517E+02  0.00000000000E+00 0. -1.
         21    1    1    2  502  501 -0.37138492890E+02  0.82276157107E+01 -0.30149295818E+02  0.48538040264E+02  0.00000000000E+00 0.  1.
<scales pt_clust_5="13000.00000" pt_clust_6="13000.00000" pt_clust_7="13000.00000" pt_clust_8="13000.00000" pt_clust_9="38.03894"></scales>
<clustering>
<clus scale="   38.039">  2  9  1 -1</clus>
<clus scale="   77.550">  5  6 -1 -1</clus>
<clus scale="   91.771">  7  8 -1 -1</clus>
<clus scale="  119.309">  2  5  1 -1</clus>
<clus scale="   38.039">  2  5  1 -1</clus>
</clustering>
</event>
<event>
 9    1  0.1973774E-005  0.1682281E+03  0.7546771E-02  0.1180671E+00
          3   -1    0    0  502    0  0.00000000000E+00  0.00000000000E+00  0.50321565270E+02  0.50321565270E+02  0.00000000000E+00 0. -1.
         -4   -1    0    0    0  501 -0.00000000000E+00 -0.00000000000E+00 -0.74208814364E+03  0.74208814364E+03  0.00000000000E+00 0.  1.
         23    2    1    2    0    0  0.26859983145E+02  0.14705413489E+03 -0.36168202539E+03  0.40149976462E+03  0.89676062671E+02 0.  0.
        -24    2    1    2    0    0  0.17088108793E+02 -0.13707057457E+03 -0.28391018702E+03  0.32638724802E+03  0.82724213514E+02 0.  0.
         13    1    4    4    0    0  0.25629783334E+02 -0.37144163648E+02 -0.16384273320E+03  0.16994415527E+03  0.00000000000E+00 0. -1.
        -14    1    4    4    0    0 -0.85416745412E+01 -0.99926410923E+02 -0.12006745383E+03  0.15644309276E+03  0.00000000000E+00 0.  1.
        -11    1    3    3    0    0  0.21622997506E+02  0.22187525004E+02 -0.16913590740E+03  0.17194997953E+03  0.00000000000E+00 0.  1.
         11    1    3    3    0    0  0.52369856388E+01  0.12486660989E+03 -0.19254611799E+03  0.22954978510E+03  0.00000000000E+00 0. -1.
         21    1    1    2  502  501 -0.43948091938E+02 -0.99835603230E+01 -0.46174365950E+02  0.64522696260E+02  0.00000000000E+00 0.  1.
<scales pt_clust_5="13000.00000" pt_clust_6="13000.00000" pt_clust_7="13000.00000" pt_clust_8="13000.00000" pt_clust_9="45.06780"></scales>
<clustering>
<clus scale="   45.068">  1  9  2 -1</clus>
<clus scale="   82.724">  5  6 -1 -1</clus>
<clus scale="   89.676">  7  8 -1 -1</clus>
<clus scale="  164.627">  1  5  2 -1</clus>
<clus scale="   45.068">  1  5  2 -1</clus>
</clustering>
</event>
<event>
 9    1  0.1973774E-005  0.9724073E+02  0.7546771E-02  0.1294347E+00
         -2   -1    0    0    0  501 -0.00000000000E+00  0.00000000000E+00  0.15863194632E+03  0.15863194632E+03  0.00000000000E+00 0.  1.
          1   -1    0    0  502    0  0.00000000000E+00 -0.00000000000E+00 -0.75230335847E+02  0.75230335847E+02  0.00000000000E+00 0. -1.
         23    2    1    2    0    0 -0.19517676612E+02 -0.45812104262E+02  0.55247584874E+02  0.11796721341E+03  0.91565709786E+02 0.  0.
        -24    2    1    2    0    0 -0.27400609572E+01  0.24937014686E+02  0.13074514248E+02  0.81857326333E+02  0.76813516493E+02 0.  0.
         13    1    4    4    0    0  0.30452704489E+02 -0.10083891079E+02  0.95823640586E+01  0.33479452966E+02  0.00000000000E+00 0. -1.
        -14    1    4    4    0    0 -0.33192765446E+02  0.35020905765E+02  0.34921501899E+01  0.48377873367E+02  0.00000000000E+00 0.  1.
        -13    1    3    3    0    0 -0.38646391269E+02 -0.67128039385E+01 -0.91126905044E+01  0.40269671256E+02  0.00000000000E+00 0. -1.
         13    1    3    3    0    0  0.19128714657E+02 -0.39099300323E+02  0.64360275379E+02  0.77697542156E+02  0.00000000000E+00 0.  1.
         21    1    1    2  502  501  0.22257737569E+02  0.20875089575E+02  0.15079511347E+02  0.34037742419E+02  0.00000000000E+00 0. -1.
<scales pt_clust_5="13000.00000" pt_clust_6="13000.00000" pt_clust_7="13000.00000" pt_clust_8="13000.00000" pt_clust_9="30.51518"></scales>
<clustering>
<clus scale="   30.515">  1  9  2 -1</clus>
<clus scale="   76.814">  5  6 -1 -1</clus>
<clus scale="   83.497">  2  5  1 -1</clus>
<clus scale="   91.566">  7  8 -1 -1</clus>
<clus scale="   83.497">  2  5  1 -1</clus>
</clustering>
</event>
<event>
 9    1  0.1973774E-005  0.1133581E+03  0.7546771E-02  0.1257044E+00
         -2   -1    0    0    0  501 -0.00000000000E+00  0.00000000000E+00  0.59206997605E+03  0.59206997605E+03  0.00000000000E+00 0.  1.
          1   -1    0    0  502    0  0.00000000000E+00 -0.00000000000E+00 -0.66341103760E+02  0.66341103760E+02  0.00000000000E+00 0. -1.
        -24    2    1    2    0    0 -0.46403005539E+02 -0.55900150147E+02  0.48349246649E+03  0.49545649887E+03  0.80212912960E+02 0.  0.
         23    2    1    2    0    0  0.72040726184E+02  0.24618500771E+02  0.23714103256E+02  0.11846963968E+03  0.87617121747E+02 0.  0.
         13    1    3    3    0    0 -0.47721271898E+02  0.42476919935E+01  0.22739497271E+03  0.23238725501E+03  0.00000000000E+00 0. -1.
        -14    1    3    3    0    0  0.13182663590E+01 -0.60147842140E+02  0.25609749379E+03  0.26306924386E+03  0.00000000000E+00 0.  1.
        -13    1    4    4    0    0  0.18653080657E+02  0.25178368108E+02  0.49962437865E+02  0.58975696995E+02  0.00000000000E+00 0.  1.
         13    1    4    4    0    0  0.53387645527E+02 -0.55986733735E+00 -0.26248334610E+02  0.59493942684E+02  0.00000000000E+00 0. -1.
         21    1    1    2  502  501 -0.25637720645E+02  0.31281649376E+02  0.18522302539E+02  0.44484941260E+02  0.00000000000E+00 0.  1.
<scales pt_clust_5="13000.00000" pt_clust_6="13000.00000" pt_clust_7="13000.00000" pt_clust_8="13000.00000" pt_clust_9="40.44545"></scales>
<clustering>
<clus scale="   40.445">  2  9  1 -1</clus>
<clus scale="   80.213">  5  6 -1 -1</clus>
<clus scale="   87.617">  7  8 -1 -1</clus>
<clus scale="  107.738">  1  5  2 -1</clus>
<clus scale="   40.445">  2  5  1 -1</clus>
</clustering>
</event>
<event>
 9    1  0.1973774E-005  0.9003707E+02  0.7546771E-02  0.1305085E+00
          3   -1    0    0  502    0  0.00000000000E+00  0.00000000000E+00  0.12592095877E+03  0.12592095877E+03  0.00000000000E+00 0. -1.
         -4   -1    0    0    0  501 -0.00000000000E+00 -0.00000000000E+00 -0.16313942363E+03  0.16313942363E+03  0.00000000000E+00 0.  1.
        -24    2    1    2    0    0  0.10849154945E+02  0.13877938926E+02 -0.69104290472E+02  0.11182789475E+03  0.86138108471E+02 0.  0.
         23    2    1    2    0    0  0.45401233023E+02  0.27179863118E+02  0.13326418788E+02  0.10516098956E+03  0.89895624858E+02 0.  0.
         11    1    3    3    0    0  0.29344813880E+02 -0.19605996787E+02 -0.64201747177E+02  0.73262388388E+02  0.00000000000E+00 0. -1.
        -12    1    3    3    0    0 -0.18495658936E+02  0.33483935713E+02 -0.49025432947E+01  0.38565506363E+02  0.00000000000E+00 0.  1.
        -13    1    4    4    0    0  0.59420709687E+02 -0.12333516648E+02  0.17139845546E+02  0.63061166163E+02  0.00000000000E+00 0.  1.
         13    1    4    4    0    0 -0.14019476664E+02  0.39513379766E+02 -0.38134267581E+01  0.42099823397E+02  0.00000000000E+00 0. -1.
         21    1    1    2  502  501 -0.56250387968E+02 -0.41057802044E+02  0.18559406822E+02  0.72071498089E+02  0.00000000000E+00 0. -1.
<scales pt_clust_5="13000.00000" pt_clust_6="13000.00000" pt_clust_7="13000.00000" pt_clust_8="13000.00000" pt_clust_9="69.64086"></scales>
<clustering>
<clus scale="   69.641">  1  9  2 -1</clus>
<clus scale="   86.138">  5  6 -1 -1</clus>
<clus scale="   86.286">  2  5  1 -1</clus>
<clus scale="   89.896">  7  8 -1 -1</clus>
<clus scale="   69.641">  1  5  2 -1</clus>
</clustering>
</event>
<event>
 9    1  0.1973774E-005  0.1523640E+03  0.7546771E-02  0.1199300E+00
         -2   -1    0    0    0  501 -0.00000000000E+00  0.00000000000E+00  0.11181214250E+03  0.11181214250E+03  0.00000000000E+00 0.  1.
          1   -1    0    0  502    0  0.00000000000E+00 -0.00000000000E+00 -0.29528903966E+03  0.29528903966E+03  0.00000000000E+00 0. -1.
         23    2    1    2    0    0  0.59271917018E+02  0.10147465781E+03 -0.24483306272E+02  0.15055729895E+03  0.90872447184E+02 0.  0.
        -24    2    1    2    0    0 -0.28920306506E+02 -0.13234502130E+03 -0.12783034950E+03  0.20320208706E+03  0.81233620762E+02 0.  0.
         11    1    4    4    0    0 -0.95609574225E+00 -0.24981088005E+02 -0.77391120066E+02  0.81328680931E+02  0.00000000000E+00 0. -1.
        -12    1    4    4    0    0 -0.27964210763E+02 -0.10736393329E+03 -0.50439229432E+02  0.12187340613E+03  0.00000000000E+00 0.  1.
        -11    1    3    3    0    0  0.18497203674E+02  0.10037542877E+03  0.17134705728E+01  0.10207991588E+03  0.00000000000E+00 0.  1.
         11    1    3    3    0    0  0.40774713344E+02  0.10992290408E+01 -0.26196776844E+02  0.48477383075E+02  0.00000000000E+00 0. -1.
         21    1    1    2  502  501 -0.30351610512E+02  0.30870363491E+02 -0.31163241383E+02  0.53341796148E+02  0.00000000000E+00 0.  1.
<scales pt_clust_5="13000.00000" pt_clust_6="13000.00000" pt_clust_7="13000.00000" pt_clust_8="13000.00000" pt_clust_9="43.29203"></scales>
<clustering>
<clus scale="   43.292">  2  9  1 -1</clus>
<clus scale="   81.234">  5  6 -1 -1</clus>
<clus scale="   90.872">  7  8 -1 -1</clus>
<clus scale="  146.819">  2  5  1 -1</clus>
<clus scale="   43.292">  2  5  1 -1</clus>
</clustering>
</event>
<event>
 9    1  0.1973774E-005  0.9797975E+02  0.7546771E-02  0.1295803E+00
          1   -1    0    0  502    0  0.00000000000E+00  0.00000000000E+00  0.25278058594E+03  0.25278058594E+03  0.00000000000E+00 0. -1.
         -2   -1    0    0    0  501 -0.00000000000E+00 -0.00000000000E+00 -0.45557988840E+02  0.45557988840E+02  0.00000000000E+00 0.  1.
        -24    2    1    2    0    0  0.12821993577E+02 -0.33776402269E+02  0.58238508860E+02  0.97713618719E+02  0.69648966248E+02 0.  0.
         23    2    1    2    0    0  0.62279229699E+01  0.41490099278E+02  0.15005342518E+03  0.18004477328E+03  0.90221253669E+02 0.  0.
         11    1    3    3    0    0  0.34520444382E+02 -0.98494149017E+01  0.54412403910E+02  0.65187282145E+02  0.00000000000E+00 0. -1.
        -12    1    3    3    0    0 -0.21698450805E+02 -0.23926987368E+02  0.38261049504E+01  0.32526336574E+02  0.00000000000E+00 0.  1.
        -13    1    4    4    0    0  0.11408027864E+02  0.67105588006E+02  0.78682849027E+02  0.10403986626E+03  0.00000000000E+00 0.  1.
         13    1    4    4    0    0 -0.51801048944E+01 -0.25615488728E+02  0.71370576156E+02  0.76004907015E+02  0.00000000000E+00 0. -1.
         21    1    1    2  502  501 -0.19049916547E+02 -0.77136970084E+01 -0.10693369388E+01  0.20580182785E+02  0.00000000000E+00 0.  1.
<scales pt_clust_5="13000.00000" pt_clust_6="13000.00000" pt_clust_7="13000.00000" pt_clust_8="13000.00000" pt_clust_9="20.55238"></scales>
<clustering>
<clus scale="   20.552">  2  9  1 -1</clus>
<clus scale="   69.649">  5  6 -1 -1</clus>
<clus scale="   79.443">  2  5  1 -1</clus>
<clus scale="   90.221">  7  8 -1 -1</clus>
<clus scale="   97.980">  1  5  2 -1</clus>
</clustering>
</event>
<event>
 9    1  0.1973774E-005  0.1288448E+03  0.7546771E-02  0.1231041E+00
         -2   -1    0    0    0  501 -0.00000000000E+00  0.00000000000E+00  0.72381088704E+02  0.72381088704E+02  0.00000000000E+00 0.  1.
          1   -1    0    0  502    0  0.00000000000E+00 -0.00000000000E+00 -0.18132556696E+04  0.18132556696E+04  0.00000000000E+00 0. -1.
         23    2    1    2    0    0 -0.85566225570E+02 -0.11390333838E+02 -0.10464548680E+02  0.12658562462E+03  0.91995080949E+02 0.  0.
        -24    2    1    2    0    0  0.14625063768E+03 -0.86052419971E+02 -0.83442368356E+03  0.85574098477E+03  0.85061632524E+02 0.  0.
         11    1    4    4    0    0  0.16830905843E+01 -0.20380803196E+02 -0.33652657603E+02  0.39379071810E+02  0.00000000000E+00 0. -1.
        -12    1    4    4    0    0  0.14456754710E+03 -0.65671616775E+02 -0.80077102595E+03  0.81636191296E+03  0.00000000000E+00 0.  1.
        -11    1    3    3    0    0 -0.71752063975E+02 -0.46140783038E+02  0.64333250608E+01  0.85549507394E+02  0.00000000000E+00 0.  1.
         11    1    3    3    0    0 -0.13814161595E+02  0.34750449201E+02 -0.16897873741E+02  0.41036117228E+02  0.00000000000E+00 0. -1.
         21    1    1    2  502  501 -0.60684412113E+02  0.97442753809E+02 -0.89598634869E+03  0.90331014895E+03  0.00000000000E+00 0. -1.
<scales pt_clust_5="13000.00000" pt_clust_6="13000.00000" pt_clust_7="13000.00000" pt_clust_8="13000.00000" pt_clust_9="114.79411"></scales>
<clustering>
<clus scale="   85.062">  5  6 -1 -1</clus>
<clus scale="   91.995">  7  8 -1 -1</clus>
<clus scale="  114.794">  2  9  1 -1</clus>
<clus scale="  123.989">  2  5  1 -1</clus>
<clus scale="  114.794">  2  5  1 -1</clus>
</clustering>
</event>
<event>
 9    1  0.1973774E-005  0.1010665E+03  0.7546771E-02  0.1282665E+00
         -4   -1    0    0    0  501 -0.00000000000E+00  0.00000000000E+00  0.11074657701E+03  0.11074657701E+03  0.00000000000E+00 0.  1.
          3   -1    0    0  502    0  0.00000000000E+00 -0.00000000000E+00 -0.33910985660E+03  0.33910985660E+03  0.00000000000E+00 0. -1.
        -24    2    1    2    0    0  0.36950801935E+02  0.24231859116E+02  0.73484738552E+02  0.11830170516E+03  0.81503017632E+02 0.  0.
         23    2    1    2    0    0 -0.17816630925E+02 -0.46848903055E+02 -0.26242468054E+03  0.28224097049E+03  0.91000002272E+02 0.  0.
         11    1    3    3    0    0  0.17737073914E+02  0.12124641689E+02 -0.15482008075E+02  0.26482131733E+02  0.00000000000E+00 0. -1.
        -12    1    3    3    0    0  0.19213728021E+02  0.12107217427E+02  0.88966746627E+02  0.91819573423E+02  0.00000000000E+00 0.  1.
        -13    1    4    4    0    0 -0.11995969781E+02 -0.70624910531E+02 -0.13858260072E+03  0.15600294388E+03  0.00000000000E+00 0. -1.
         13    1    4    4    0    0 -0.58206611445E+01  0.23776007476E+02 -0.12384207982E+03  0.12623802661E+03  0.00000000000E+00 0.  1.
         21    1    1    2  502  501 -0.19134171010E+02  0.22617043939E+02 -0.39423337598E+02  0.49313757960E+02  0.00000000000E+00 0.  1.
<scales pt_clust_5="13000.00000" pt_clust_6="13000.00000" pt_clust_7="13000.00000" pt_clust_8="13000.00000" pt_clust_9="29.62511"></scales>
<clustering>
<clus scale="   29.625">  2  9  1 -1</clus>
<clus scale="   81.503">  5  6 -1 -1</clus>
<clus scale="   91.000">  7  8 -1 -1</clus>
<clus scale="   92.608">  1  5  2 -1</clus>
<clus scale="   29.625">  2  5  1 -1</clus>
</clustering>
</event>
<event>
 9    1  0.1973774E-005  0.9980444E+02  0.7546771E-02  0.1288832E+00
         -4   -1    0    0    0  501 -0.00000000000E+00  0.00000000000E+00  0.17083127762E+03  0.17083127762E+03  0.00000000000E+00 0.  1.
          3   -1    0    0  502    0  0.00000000000E+00 -0.00000000000E+00 -0.21190388807E+03  0.21190388807E+03  0.00000000000E+00 0. -1.
        -24    2    1    2    0    0 -0.19320792265E+02 -0.29194359153E+02  0.11234432080E+03  0.14098739965E+03  0.77656917418E+02 0.  0.
         23    2    1    2    0    0 -0.31628844900E+02  0.69534220123E+02 -0.11356974835E+03  0.16551806124E+03  0.93073891382E+02 0.  0.
         13    1    3    3    0    0  0.15832916761E+02 -0.40136947575E+02  0.84318562811E+02  0.94716819247E+02  0.00000000000E+00 0. -1.
        -14    1    3    3    0    0 -0.35153709026E+02  0.10942588422E+02  0.28025757991E+02  0.46270580400E+02  0.00000000000E+00 0.  1.
        -13    1    4    4    0    0 -0.20165088081E+02  0.87663557619E+02 -0.60848802836E+02  0.10860067642E+03  0.00000000000E+00 0.  1.
         13    1    4    4    0    0 -0.11463756819E+02 -0.18129337497E+02 -0.52720945518E+02  0.56917384821E+02  0.00000000000E+00 0. -1.
         21    1    1    2  502  501  0.50949637165E+02 -0.40339860970E+02 -0.39847182896E+02  0.76229704808E+02  0.00000000000E+00 0.  1.
<scales pt_clust_5="13000.00000" pt_clust_6="13000.00000" pt_clust_7="13000.00000" pt_clust_8="13000.00000" pt_clust_9="64.98592"></scales>
<clustering>
<clus scale="   64.986">  2  9  1 -1</clus>
<clus scale="   77.657">  5  6 -1 -1</clus>
<clus scale="   85.608">  1  5  2 -1</clus>
<clus scale="   93.074">  7  8 -1 -1</clus>
<clus scale="   64.986">  2  5  1 -1</clus>
</clustering>
</event>
<event>
 9    1  0.1973774E-005  0.2022836E+03  0.7546771E-02  0.1148269E+00
          1   -1    0    0  502    0  0.00000000000E+00  0.00000000000E+00  0.73015827089E+02  0.73015827089E+02  0.00000000000E+00 0. -1.
         -2   -1    0    0    0  501 -0.00000000000E+00 -0.00000000000E+00 -0.77780687190E+03  0.77780687190E+03  0.00000000000E+00 0.  1.
        -24    2    1    2    0    0  0.93780890024E+02  0.14149094277E+03 -0.30888269122E+03  0.36209062785E+03  0.82985321711E+02 0.  0.
         23    2    1    2    0    0 -0.14488948625E+03 -0.14184217856E+03 -0.37537498897E+03  0.43365184749E+03  0.77687680107E+02 0.  0.
         13    1    3    3    0    0 -0.61762140618E+01  0.51140363357E+02 -0.60024047279E+02  0.79097210041E+02  0.00000000000E+00 0. -1.
        -14    1    3    3    0    0  0.99957104086E+02  0.90350579413E+02 -0.24885864394E+03  0.28299341781E+03  0.00000000000E+00 0.  1.
        -11    1    4    4    0    0 -0.70199508677E+02 -0.11671801840E+03 -0.20759697238E+03  0.24828928647E+03  0.00000000000E+00 0.  1.
         11    1    4    4    0    0 -0.74689977576E+02 -0.25124160162E+02 -0.16777801660E+03  0.18536256102E+03  0.00000000000E+00 0. -1.
         21    1    1    2  502  501  0.51108596228E+02  0.35123579016E+00 -0.20533364618E+02  0.55080223651E+02  0.00000000000E+00 0.  1.
<scales pt_clust_5="13000.00000" pt_clust_6="13000.00000" pt_clust_7="13000.00000" pt_clust_8="13000.00000" pt_clust_9="51.10980"></scales>
<clustering>
<clus scale="   51.110">  1  9  2 -1</clus>
<clus scale="   77.688">  7  8 -1 -1</clus>
<clus scale="   82.985">  5  6 -1 -1</clus>
<clus scale="  200.169">  1  7  2 -1</clus>
<clus scale="   51.110">  1  5  2 -1</clus>
</clustering>
</event>
<event>
 9    1  0.1973774E-005  0.1082171E+03  0.7546771E-02  0.1267593E+00
         -2   -1    0    0    0  501 -0.00000000000E+00  0.00000000000E+00  0.11282342891E+03  0.11282342891E+03  0.00000000000E+00 0.  1.
          1   -1    0    0  502    0  0.00000000000E+00 -0.00000000000E+00 -0.26793763852E+03  0.26793763852E+03  0.00000000000E+00 0. -1.
         23    2    1    2    0    0  0.36466637341E+02  0.46176309247E+02  0.56053327058E+02  0.12125216579E+03  0.89989138568E+02 0.  0.
        -24    2    1    2    0    0 -0.67035682889E+02 -0.32303833690E+02 -0.19101434394E+03  0.22035454937E+03  0.80822814763E+02 0.  0.
         11    1    4    4    0    0 -0.76851373321E+02 -0.32986291499E+02 -0.19297851443E+03  0.21032103090E+03  0.00000000000E+00 0. -1.
        -12    1    4    4    0    0  0.98156904319E+01  0.68245780924E+00  0.19641704825E+01  0.10033518476E+02  0.00000000000E+00 0.  1.
        -13    1    3    3    0    0 -0.38746237039E+01  0.34531221019E+02  0.69048437000E+02  0.77298800676E+02  0.00000000000E+00 0.  1.
         13    1    3    3    0    0  0.40341261045E+02  0.11645088228E+02 -0.12995109941E+02  0.43953365115E+02  0.00000000000E+00 0. -1.
         21    1    1    2  502  501  0.30569045548E+02 -0.13872475557E+02 -0.20153192728E+02  0.39154352260E+02  0.00000000000E+00 0. -1.
<scales pt_clust_5="13000.00000" pt_clust_6="13000.00000" pt_clust_7="13000.00000" pt_clust_8="13000.00000" pt_clust_9="33.56951"></scales>
<clustering>
<clus scale="   33.570">  2  9  1 -1</clus>
<clus scale="   80.823">  5  6 -1 -1</clus>
<clus scale="   89.989">  7  8 -1 -1</clus>
<clus scale="  100.724">  2  5  1 -1</clus>
<clus scale="   33.570">  2  5  1 -1</clus>
</clustering>
</event>
<event>
 9    1  0.1973774E-005  0.1016272E+03  0.7546771E-02  0.1277633E+00
          3   -1    0    0  502    0  0.00000000000E+00  0.00000000000E+00  0.62636718497E+02  0.62636718497E+02  0.00000000000E+00 0. -1.
         -4   -1    0    0    0  501 -0.00000000000E+00 -0.00000000000E+00 -0.43275449279E+03  0.43275449279E+03  0.00000000000E+00 0.  1.
         23    2    1    2    0    0 -0.67505470349E+02 -0.74824054396E+01 -0.26827560003E+03  0.29147975850E+03  0.91518725557E+02 0.  0.
        -24    2    1    2    0    0  0.32527712375E+02 -0.18757993754E+02 -0.83274284562E+01  0.10067865864E+03  0.93042634525E+02 0.  0.
         13    1    4    4    0    0  0.23191094069E+02 -0.62922811709E+01  0.41785037164E+02  0.48201752845E+02  0.00000000000E+00 0. -1.
        -14    1    4    4    0    0  0.93366183054E+01 -0.12465712583E+02 -0.50112465621E+02  0.52476905798E+02  0.00000000000E+00 0.  1.
        -11    1    3    3    0    0 -0.25256527700E+02  0.29783729201E+02 -0.19594544108E+03  0.19979884533E+03  0.00000000000E+00 0.  1.
         11    1    3    3    0    0 -0.42248942649E+02 -0.37266134641E+02 -0.72330158952E+02  0.91680913172E+02  0.00000000000E+00 0. -1.
         21    1    1    2  502  501  0.34977757974E+02  0.26240399194E+02 -0.93514745805E+02  0.10323279414E+03  0.00000000000E+00 0.  1.
<scales pt_clust_5="13000.00000" pt_clust_6="13000.00000" pt_clust_7="13000.00000" pt_clust_8="13000.00000" pt_clust_9="43.72645"></scales>
<clustering>
<clus scale="   43.726">  2  9  1 -1</clus>
<clus scale="   91.519">  7  8 -1 -1</clus>
<clus scale="   93.043">  5  6 -1 -1</clus>
<clus scale="  100.234">  2  7  1 -1</clus>
<clus scale="  101.627">  1  5  2 -1</clus>
</clustering>
</event>
<event>
 9    1  0.1973774E-005  0.8232394E+02  0.7546771E-02  0.1327521E+00
          1   -1    0    0  502    0  0.00000000000E+00  0.00000000000E+00  0.41422799470E+02  0.41422799470E+02  0.00000000000E+00 0. -1.
         -2   -1    0    0    0  501 -0.00000000000E+00 -0.00000000000E+00 -0.72003929626E+03  0.72003929626E+03  0.00000000000E+00 0.  1.
         23    2    1    2    0    0 -0.17238981148E+02 -0.40985063722E+02 -0.45018881494E+03  0.45810706146E+03  0.72216014489E+02 0.  0.
        -24    2    1    2    0    0  0.17831710676E+02 -0.18737504262E+02 -0.19080472272E+02  0.85654803183E+02  0.79395320483E+02 0.  0.
         13    1    4    4    0    0  0.29496037723E+02 -0.21968739281E+02  0.21981201122E+02  0.42846411165E+02  0.00000000000E+00 0. -1.
        -14    1    4    4    0    0 -0.11664327047E+02  0.32312350185E+01 -0.41061673395E+02  0.42808392018E+02  0.00000000000E+00 0.  1.
        -13    1    3    3    0    0 -0.43800085787E+02 -0.35556687732E+02 -0.33891428893E+03  0.34357767797E+03  0.00000000000E+00 0. -1.
         13    1    3    3    0    0  0.26561104639E+02 -0.54283759900E+01 -0.11127452600E+03  0.11452938349E+03  0.00000000000E+00 0.  1.
         21    1    1    2  502  501 -0.59272952816E+00  0.59722567984E+02 -0.20934720958E+03  0.21770023108E+03  0.00000000000E+00 0.  1.
<scales pt_clust_5="13000.00000" pt_clust_6="13000.00000" pt_clust_7="13000.00000" pt_clust_8="13000.00000" pt_clust_9="59.72551"></scales>
<clustering>
<clus scale="   59.726">  2  9  1 -1</clus>
<clus scale="   72.216">  7  8 -1 -1</clus>
<clus scale="   75.424">  2  7  1 -1</clus>
<clus scale="   79.395">  5  6 -1 -1</clus>
<clus scale="   82.324">  1  5  2 -1</clus>
</clustering>
</event>
<event>
 9    1  0.1973774E-005  0.1340692E+03  0.7546771E-02  0.1223841E+00
          1   -1    0    0  502    0  0.00000000000E+00  0.00000000000E+00  0.37049947423E+03  0.37049947423E+03  0.00000000000E+00 0. -1.
         -2   -1    0    0    0  501 -0.00000000000E+00 -0.00000000000E+00 -0.57812912289E+02  0.57812912289E+02  0.00000000000E+00 0.  1.
         23    2    1    2    0    0 -0.35807817030E+02 -0.95841157231E+02  0.97724276652E+02  0.16678740778E+03  0.88319182336E+02 0.  0.
        -24    2    1    2    0    0  0.14613873698E+02  0.98872255166E+02  0.19096363178E+03  0.22936434816E+03  0.78432183436E+02 0.  0.
         13    1    4    4    0    0 -0.84610119042E+01  0.62985540767E+02  0.17067138277E+03  0.18211943324E+03  0.00000000000E+00 0. -1.
        -14    1    4    4    0    0  0.23074885602E+02  0.35886714399E+02  0.20292249015E+02  0.47244914922E+02  0.00000000000E+00 0.  1.
        -11    1    3    3    0    0 -0.15448913152E+02 -0.34855498467E+02 -0.11692915580E+02  0.39878552704E+02  0.00000000000E+00 0.  1.
         11    1    3    3    0    0 -0.20358903878E+02 -0.60985658763E+02  0.10941719223E+03  0.12690885508E+03  0.00000000000E+00 0. -1.
         21    1    1    2  502  501  0.21193943332E+02 -0.30310979354E+01  0.23998653505E+02  0.32160630571E+02  0.00000000000E+00 0. -1.
<scales pt_clust_5="13000.00000" pt_clust_6="13000.00000" pt_clust_7="13000.00000" pt_clust_8="13000.00000" pt_clust_9="21.40960"></scales>
<clustering>
<clus scale="   21.410">  1  9  2 -1</clus>
<clus scale="   78.432">  5  6 -1 -1</clus>
<clus scale="   88.319">  7  8 -1 -1</clus>
<clus scale="  127.773">  1  5  2 -1</clus>
<clus scale="   21.410">  1  5  2 -1</clus>
</clustering>
</event>
<event>
 9    1  0.1973774E-005  0.1066877E+03  0.7546771E-02  0.1271673E+00
          1   -1    0    0  502    0  0.00000000000E+00  0.00000000000E+00  0.13335754728E+04  0.13335754728E+04  0.00000000000E+00 0. -1.
         -2   -1    0    0    0  501 -0.00000000000E+00 -0.00000000000E+00 -0.40768813463E+02  0.40768813463E+02  0.00000000000E+00 0.  1.
         23    2    1    2    0    0 -0.21805799812E+02  0.47481431484E+02  0.56534408461E+02  0.11918467543E+03  0.90988286476E+02 0.  0.
        -24    2    1    2    0    0  0.88763807673E+02 -0.61915292202E+02  0.10056008564E+04  0.10145333376E+04  0.79575710499E+02 0.  0.
         13    1    4    4    0    0  0.42637114957E+02  0.47482015276E+01  0.18363666103E+03  0.18858126170E+03  0.00000000000E+00 0. -1.
        -14    1    4    4    0    0  0.46126692716E+02 -0.66663493730E+02  0.82196419540E+03  0.82595207591E+03  0.00000000000E+00 0.  1.
        -13    1    3    3    0    0 -0.27927528349E+02  0.26779452566E+02 -0.17208762374E+02  0.42346516054E+02  0.00000000000E+00 0.  1.
         13    1    3    3    0    0  0.61217285376E+01  0.20701978918E+02  0.73743170835E+02  0.76838159375E+02  0.00000000000E+00 0. -1.
         21    1    1    2  502  501 -0.66958007861E+02  0.14433860719E+02  0.23067139444E+03  0.24062627322E+03  0.00000000000E+00 0. -1.
<scales pt_clust_5="13000.00000" pt_clust_6="13000.00000" pt_clust_7="13000.00000" pt_clust_8="13000.00000" pt_clust_9="68.49607"></scales>
<clustering>
<clus scale="   68.496">  1  9  2 -1</clus>
<clus scale="   79.576">  5  6 -1 -1</clus>
<clus scale="   90.988">  7  8 -1 -1</clus>
<clus scale="   97.137">  1  5  2 -1</clus>
<clus scale="   68.496">  1  5  2 -1</clus>
</clustering>
</event>
<event>
 9    1  0.1973774E-005  0.1003922E+03  0.7546771E-02  0.1286735E+00
          1   -1    0    0  502    0  0.00000000000E+00  0.00000000000E+00  0.31997092058E+02  0.31997092058E+02  0.00000000000E+00 0. -1.
         -2   -1    0    0    0  501 -0.00000000000E+00 -0.00000000000E+00 -0.60567386601E+03  0.60567386601E+03  0.00000000000E+00 0.  1.
        -24    2    1    2    0    0  0.41011904337E+02 -0.48687005555E+01 -0.46280764786E+03  0.47140952130E+03  0.79563416909E+02 0.  0.
         23    2    1    2    0    0 -0.14744021166E+02  0.17560348866E+01 -0.99756227190E+02  0.13757020299E+03  0.93561669870E+02 0.  0.
         11    1    3    3    0    0  0.14592814427E+02 -0.35980774372E+02 -0.11868355724E+03  0.12487334830E+03  0.00000000000E+00 0. -1.
        -12    1    3    3    0    0  0.26419089910E+02  0.31112073817E+02 -0.34412409062E+03  0.34653617299E+03  0.00000000000E+00 0.  1.
        -13    1    4    4    0    0  0.21570778741E+01 -0.30233228446E+02  0.11929661105E+01  0.30333549996E+02  0.00000000000E+00 0. -1.
         13    1    4    4    0    0 -0.16901099040E+02  0.31989263333E+02 -0.10094919330E+03  0.10723665299E+03  0.00000000000E+00 0.  1.
         21    1    1    2  502  501 -0.26267883171E+02  0.31126656689E+01 -0.11112898904E+02  0.28691233781E+02  0.00000000000E+00 0.  1.
<scales pt_clust_5="13000.00000" pt_clust_6="13000.00000" pt_clust_7="13000.00000" pt_clust_8="13000.00000" pt_clust_9="26.45166"></scales>
<clustering>
<clus scale="   26.452">  1  9  2 -1</clus>
<clus scale="   79.563">  5  6 -1 -1</clus>
<clus scale="   87.494">  2  5  1 -1</clus>
<clus scale="   93.562">  7  8 -1 -1</clus>
<clus scale="   26.452">  1  5  2 -1</clus>
</clustering>
</event>
<event>
 9    1  0.1973774E-005  0.9378694E+02  0.7546771E-02  0.1296374E+00
         -2   -1    0    0    0  501 -0.00000000000E+00  0.00000000000E+00  0.10816487363E+03  0.10816487363E+03  0.00000000000E+00 0.  1.
          1   -1    0    0  502    0  0.00000000000E+00 -0.00000000000E+00 -0.27286147753E+03  0.27286147753E+03  0.00000000000E+00 0. -1.
         23    2    1    2    0    0  0.41322754649E+02 -0.15559094333E+02  0.32503441900E+02  0.10437313861E+03  0.88812290026E+02 0.  0.
        -24    2    1    2    0    0  0.48079176534E+02  0.21908124951E+02 -0.14889611720E+03  0.17483825782E+03  0.74878498401E+02 0.  0.
         11    1    4    4    0    0  0.49657001379E+02  0.38596459366E+02 -0.14437114822E+03  0.15747549936E+03  0.00000000000E+00 0. -1.
        -12    1    4    4    0    0 -0.15778248453E+01 -0.16688334414E+02 -0.45249689838E+01  0.17362758452E+02  0.00000000000E+00 0.  1.
        -13    1    3    3    0    0  0.41159537862E+02  0.17899548663E+02 -0.14061020988E+02  0.47034175985E+02  0.00000000000E+00 0. -1.
         13    1    3    3    0    0  0.16321678743E+00 -0.33458642996E+02  0.46564462889E+02  0.57338962625E+02  0.00000000000E+00 0.  1.
         21    1    1    2  502  501 -0.89401931183E+02 -0.63490306179E+01 -0.48303928592E+02  0.10181495473E+03  0.00000000000E+00 0.  1.
<scales pt_clust_5="13000.00000" pt_clust_6="13000.00000" pt_clust_7="13000.00000" pt_clust_8="13000.00000" pt_clust_9="89.62709"></scales>
<clustering>
<clus scale="   74.878">  5  6 -1 -1</clus>
<clus scale="   88.812">  7  8 -1 -1</clus>
<clus scale="   89.627">  2  9  1 -1</clus>
<clus scale="   89.627">  2  5  1 -1</clus>
<clus scale="   89.627">  2  5  1 -1</clus>
</clustering>
</event>
<event>
 9    1  0.1973774E-005  0.1762504E+03  0.7546771E-02  0.1172369E+00
         -2   -1    0    0    0  501 -0.00000000000E+00  0.00000000000E+00  0.10756556184E+03  0.10756556184E+03  0.00000000000E+00 0.  1.
          1   -1    0    0  502    0  0.00000000000E+00 -0.00000000000E+00 -0.10346688512E+04  0.10346688512E+04  0.00000000000E+00 0. -1.
        -24    2    1    2    0    0 -0.10092497362E+03  0.86192727861E+02 -0.52503187949E+01  0.15589531027E+03  0.81613389089E+02 0.  0.
         23    2    1    2    0    0  0.19611667326E+02 -0.15786966315E+03 -0.81131215972E+03  0.83152079734E+03  0.88836748311E+02 0.  0.
         11    1    3    3    0    0  0.62205501771E+01  0.27619621307E+02  0.15122208542E+02  0.32097039067E+02  0.00000000000E+00 0. -1.
        -12    1    3    3    0    0 -0.10714552380E+03  0.58573106553E+02 -0.20372527337E+02  0.12379827120E+03  0.00000000000E+00 0.  1.
        -11    1    4    4    0    0  0.26654262731E+02 -0.46509258798E+01 -0.85491452309E+02  0.89670894114E+02  0.00000000000E+00 0.  1.
         11    1    4    4    0    0 -0.70425954041E+01 -0.15321873727E+03 -0.72582070741E+03  0.74184990322E+03  0.00000000000E+00 0. -1.
         21    1    1    2  502  501  0.81313306297E+02  0.71676935294E+02 -0.11054081084E+03  0.15481830543E+03  0.00000000000E+00 0. -1.
<scales pt_clust_5="13000.00000" pt_clust_6="13000.00000" pt_clust_7="13000.00000" pt_clust_8="13000.00000" pt_clust_9="108.39482"></scales>
<clustering>
<clus scale="   81.613">  5  6 -1 -1</clus>
<clus scale="   88.837">  7  8 -1 -1</clus>
<clus scale="  108.395">  1  9  2 -1</clus>
<clus scale="  172.722">  1  5  2 -1</clus>
<clus scale="  176.250">  2  5  1 -1</clus>
</clustering>
</event>
<event>
 9    1  0.1973774E-005  0.1056660E+03  0.7546771E-02  0.1288254E+00
          1   -1    0    0  502    0  0.00000000000E+00  0.00000000000E+00  0.32258483852E+03  0.32258483852E+03  0.00000000000E+00 0. -1.
         -2   -1    0    0    0  501 -0.00000000000E+00 -0.00000000000E+00 -0.81671668768E+02  0.81671668768E+02  0.00000000000E+00 0.  1.
         23    2    1    2    0    0  0.58602548824E+02  0.47661851429E+00 -0.24289323874E+02  0.11130815967E+03  0.91460643240E+02 0.  0.
        -24    2    1    2    0    0 -0.22955334056E+02  0.30230506003E+02  0.21555196912E+03  0.22454640319E+03  0.50175740564E+02 0.  0.
         13    1    4    4    0    0 -0.26732691661E+02 -0.44982121070E+00  0.56350334566E+02  0.62371462611E+02  0.00000000000E+00 0. -1.
        -14    1    4    4    0    0  0.37773576049E+01  0.30680327214E+02  0.15920163455E+03  0.16217494058E+03  0.00000000000E+00 0.  1.
        -13    1    3    3    0    0 -0.19745651648E+02 -0.12657810568E+02 -0.21500116478E+02  0.31817698470E+02  0.00000000000E+00 0.  1.
         13    1    3    3    0    0  0.78348200472E+02  0.13134429082E+02 -0.27892073964E+01  0.79490461204E+02  0.00000000000E+00 0. -1.
         21    1    1    2  502  501 -0.35647214768E+02 -0.30707124517E+02  0.49650524508E+02  0.68401944423E+02  0.00000000000E+00 0. -1.
<scales pt_clust_5="13000.00000" pt_clust_6="13000.00000" pt_clust_7="13000.00000" pt_clust_8="13000.00000" pt_clust_9="47.04946"></scales>
<clustering>
<clus scale="   47.049">  1  9  2 -1</clus>
<clus scale="   50.176">  5  6 -1 -1</clus>
<clus scale="   72.924">  1  5  2 -1</clus>
<clus scale="   91.461">  7  8 -1 -1</clus>
<clus scale="   47.049">  1  5  2 -1</clus>
</clustering>
</event>
<event>
 9    1  0.1973774E-005  0.1269405E+03  0.7546771E-02  0.1238712E+00
         -2   -1    0    0    0  501 -0.00000000000E+00  0.00000000000E+00  0.12217122449E+03  0.12217122449E+03  0.00000000000E+00 0.  1.
          1   -1    0    0  502    0  0.00000000000E+00 -0.00000000000E+00 -0.24030887514E+03  0.24030887514E+03  0.00000000000E+00 0. -1.
        -24    2    1    2    0    0 -0.53103320214E+02  0.50788896811E+02  0.59714616017E+02  0.12634358847E+03  0.83650417363E+02 0.  0.
         23    2    1    2    0    0  0.67061816904E+02 -0.27508566674E+02 -0.15741913256E+03  0.20216113226E+03  0.10408809526E+03 0.  0.
         13    1    3    3    0    0  0.20045774245E+02  0.27445491383E+02  0.24339155219E+02  0.41802901085E+02  0.00000000000E+00 0. -1.
        -14    1    3    3    0    0 -0.73149094459E+02  0.23343405428E+02  0.35375460798E+02  0.84540687387E+02  0.00000000000E+00 0.  1.
        -11    1    4    4    0    0 -0.10925617646E+02  0.18189974840E+02 -0.68472069167E+00  0.21230005842E+02  0.00000000000E+00 0.  1.
         11    1    4    4    0    0  0.77987434549E+02 -0.45698541514E+02 -0.15673441187E+03  0.18093112642E+03  0.00000000000E+00 0. -1.
         21    1    1    2  502  501 -0.13958496690E+02 -0.23280330137E+02 -0.20433134105E+02  0.33975378887E+02  0.00000000000E+00 0.  1.
<scales pt_clust_5="13000.00000" pt_clust_6="13000.00000" pt_clust_7="13000.00000" pt_clust_8="13000.00000" pt_clust_9="27.14431"></scales>
<clustering>
<clus scale="   27.144">  2  9  1 -1</clus>
<clus scale="   83.650">  5  6 -1 -1</clus>
<clus scale="  104.088">  7  8 -1 -1</clus>
<clus scale="  110.801">  1  5  2 -1</clus>
<clus scale="   27.144">  2  5  1 -1</clus>
</clustering>
</event>
<event>
 9    1  0.1973774E-005  0.1101999E+03  0.7546771E-02  0.1262673E+00
          1   -1    0    0  502    0  0.00000000000E+00  0.00000000000E+00  0.14946396516E+03  0.14946396516E+03  0.00000000000E+00 0. -1.
         -2   -1    0    0    0  501 -0.00000000000E+00 -0.00000000000E+00 -0.12704404459E+03  0.12704404459E+03  0.00000000000E+00 0.  1.
        -24    2    1    2    0    0  0.42529245421E+02  0.53744989095E+02 -0.38074171650E+02  0.11551723604E+03  0.84837071532E+02 0.  0.
         23    2    1    2    0    0 -0.53329387944E+01 -0.56063601859E+02  0.26216729433E+02  0.11035601498E+03  0.91211651941E+02 0.  0.
         11    1    3    3    0    0  0.25112753741E+02  0.40849442620E+02  0.21182942571E+02  0.52421793357E+02  0.00000000000E+00 0. -1.
        -12    1    3    3    0    0  0.17416491681E+02  0.12895546475E+02 -0.59257114220E+02  0.63095442681E+02  0.00000000000E+00 0.  1.
        -13    1    4    4    0    0 -0.23502660219E+02  0.18776491612E+02  0.52273366355E+01  0.30532879375E+02  0.00000000000E+00 0. -1.
         13    1    4    4    0    0  0.18169721424E+02 -0.74840093471E+02  0.20989392798E+02  0.79823135602E+02  0.00000000000E+00 0.  1.
         21    1    1    2  502  501 -0.37196306627E+02  0.23186127633E+01  0.34277362785E+02  0.50634758727E+02  0.00000000000E+00 0. -1.
<scales pt_clust_5="13000.00000" pt_clust_6="13000.00000" pt_clust_7="13000.00000" pt_clust_8="13000.00000" pt_clust_9="37.26850"></scales>
<clustering>
<clus scale="   37.269">  1  9  2 -1</clus>
<clus scale="   84.837">  5  6 -1 -1</clus>
<clus scale="   91.212">  7  8 -1 -1</clus>
<clus scale="  104.985">  2  5  1 -1</clus>
<clus scale="   37.269">  1  5  2 -1</clus>
</clustering>
</event>
<event>
 9    1  0.1973774E-005  0.2028930E+03  0.7546771E-02  0.1176265E+00
         -2   -1    0    0    0  501 -0.00000000000E+00  0.00000000000E+00  0.12769809289E+04  0.12769809289E+04  0.00000000000E+00 0.  1.
          1   -1    0    0  502    0  0.00000000000E+00 -0.00000000000E+00 -0.64123434492E+02  0.64123434492E+02  0.00000000000E+00 0. -1.
         23    2    1    2    0    0 -0.34219952039E+02  0.19802863948E+03  0.98947080799E+03  0.10137271530E+04  0.90575459066E+02 0.  0.
        -24    2    1    2    0    0  0.51037048337E+01 -0.65595872969E+02  0.92478834190E+02  0.13890159052E+03  0.80077779197E+02 0.  0.
         13    1    4    4    0    0  0.13864226302E+02 -0.79230152017E+02  0.92651519182E+02  0.12269448955E+03  0.00000000000E+00 0. -1.
        -14    1    4    4    0    0 -0.87605214684E+01  0.13634279048E+02 -0.17268499207E+00  0.16207100964E+02  0.00000000000E+00 0.  1.
        -13    1    3    3    0    0 -0.14520624512E+02  0.15394398615E+03  0.88789511977E+03  0.90125875481E+03  0.00000000000E+00 0.  1.
         13    1    3    3    0    0 -0.19699327527E+02  0.44084653336E+02  0.10157568822E+03  0.11246839824E+03  0.00000000000E+00 0. -1.
         21    1    1    2  502  501  0.29116247205E+02 -0.13243276652E+03  0.13090785225E+03  0.18847561985E+03  0.00000000000E+00 0. -1.
<scales pt_clust_5="13000.00000" pt_clust_6="13000.00000" pt_clust_7="13000.00000" pt_clust_8="13000.00000" pt_clust_9="181.55347"></scales>
<clustering>
<clus scale="   80.078">  5  6 -1 -1</clus>
<clus scale="   90.575">  7  8 -1 -1</clus>
<clus scale="  103.640">  2  5  1 -1</clus>
<clus scale="  181.553">  2  9  1 -1</clus>
<clus scale="  103.640">  2  5  1 -1</clus>
</clustering>
</event>
<event>
 9    1  0.1973774E-005  0.1054073E+03  0.7546771E-02  0.1273807E+00
         -2   -1    0    0    0  501 -0.00000000000E+00  0.00000000000E+00  0.23313311848E+03  0.23313311848E+03  0.00000000000E+00 0.  1.
          1   -1    0    0  502    0  0.00000000000E+00 -0.00000000000E+00 -0.14578396176E+03  0.14578396176E+03  0.00000000000E+00 0. -1.
        -24    2    1    2    0    0  0.52098922225E+02  0.21554603500E+02  0.19153715796E+03  0.21471747388E+03  0.78982352965E+02 0.  0.
         23    2    1    2    0    0 -0.38503234285E+02 -0.36979972199E+02 -0.74478251395E+02  0.12806853987E+03  0.89468003101E+02 0.  0.
         13    1    3    3    0    0  0.42047635151E+02  0.75113623404E+01  0.29848326523E+02  0.52108989457E+02  0.00000000000E+00 0. -1.
        -14    1    3    3    0    0  0.10051287074E+02  0.14043241160E+02  0.16168883144E+03  0.16260848442E+03  0.00000000000E+00 0.  1.
        -11    1    4    4    0    0 -0.43184254969E+02 -0.63349291499E+02 -0.48276995068E+02  0.90601770752E+02  0.00000000000E+00 0. -1.
         11    1    4    4    0    0  0.46810206836E+01  0.26369319299E+02 -0.26201256326E+02  0.37466769116E+02  0.00000000000E+00 0.  1.
         21    1    1    2  502  501 -0.13595687940E+02  0.15425368699E+02 -0.29709749849E+02  0.36131066496E+02  0.00000000000E+00 0.  1.
<scales pt_clust_5="13000.00000" pt_clust_6="13000.00000" pt_clust_7="13000.00000" pt_clust_8="13000.00000" pt_clust_9="20.56173"></scales>
<clustering>
<clus scale="   20.562">  2  9  1 -1</clus>
<clus scale="   78.982">  5  6 -1 -1</clus>
<clus scale="   89.468">  7  8 -1 -1</clus>
<clus scale="   96.666">  1  5  2 -1</clus>
<clus scale="   20.562">  2  5  1 -1</clus>
</clustering>
</event>
<event>
 9    1  0.1973774E-005  0.1138331E+03  0.7546771E-02  0.1263229E+00
          1   -1    0    0  502    0  0.00000000000E+00  0.00000000000E+00  0.54478851348E+03  0.54478851348E+03  0.00000000000E+00 0. -1.
         -2   -1    0    0    0  501 -0.00000000000E+00 -0.00000000000E+00 -0.78103947857E+02  0.78103947857E+02  0.00000000000E+00 0.  1.
         23    2    1    2    0    0  0.74675084325E+02 -0.26920044792E+02  0.31008347660E+02  0.12058808338E+03  0.85316535312E+02 0.  0.
        -24    2    1    2    0    0  0.13485708403E+02 -0.12747881383E+02  0.82267581719E+02  0.13591178263E+03  0.10658182230E+03 0.  0.
         13    1    4    4    0    0  0.57231212381E+01 -0.22442651760E+02  0.10633537612E+03  0.10882848409E+03  0.00000000000E+00 0. -1.
        -14    1    4    4    0    0  0.77625871648E+01  0.96947703769E+01 -0.24067794403E+02  0.27083298536E+02  0.00000000000E+00 0.  1.
        -13    1    3    3    0    0  0.58081060241E+02  0.13114453472E+02  0.45450611663E+02  0.74907653475E+02  0.00000000000E+00 0.  1.
         13    1    3    3    0    0  0.16594024084E+02 -0.40034498264E+02 -0.14442264003E+02  0.45680429903E+02  0.00000000000E+00 0. -1.
         21    1    1    2  502  501 -0.88160792728E+02  0.39667926175E+02  0.35340863624E+03  0.36639259533E+03  0.00000000000E+00 0. -1.
<scales pt_clust_5="13000.00000" pt_clust_6="13000.00000" pt_clust_7="13000.00000" pt_clust_8="13000.00000" pt_clust_9="96.67404"></scales>
<clustering>
<clus scale="   85.317">  7  8 -1 -1</clus>
<clus scale="   96.674">  1  9  2 -1</clus>
<clus scale="   94.219">  2  7  1 -1</clus>
<clus scale="  106.582">  5  6 -1 -1</clus>
<clus scale="   96.674">  1  5  2 -1</clus>
</clustering>
</event>
<event>
 9    1  0.1973774E-005  0.1040251E+03  0.7546771E-02  0.1277041E+00
         -2   -1    0    0    0  501 -0.00000000000E+00  0.00000000000E+00  0.13488351734E+03  0.13488351734E+03  0.00000000000E+00 0.  1.
          1   -1    0    0  502    0  0.00000000000E+00 -0.00000000000E+00 -0.56039951040E+03  0.56039951040E+03  0.00000000000E+00 0. -1.
         23    2    1    2    0    0 -0.11781025463E+02 -0.51103974659E+02  0.10538106810E+03  0.14872265448E+03  0.90900218121E+02 0.  0.
        -24    2    1    2    0    0 -0.22438359068E+02  0.27097701698E+02 -0.32849397560E+03  0.33988604863E+03  0.79852793625E+02 0.  0.
         11    1    4    4    0    0  0.14306056056E+02 -0.20507636439E+02 -0.13379261871E+03  0.13610911510E+03  0.00000000000E+00 0. -1.
        -12    1    4    4    0    0 -0.36744415124E+02  0.47605338137E+02 -0.19470135689E+03  0.20377693353E+03  0.00000000000E+00 0.  1.
        -11    1    3    3    0    0 -0.29081242175E+02 -0.36268785299E+02  0.11495822998E+03  0.12400216963E+03  0.00000000000E+00 0.  1.
         11    1    3    3    0    0  0.17300216712E+02 -0.14835189361E+02 -0.95771618757E+01  0.24720484850E+02  0.00000000000E+00 0. -1.
         21    1    1    2  502  501  0.34219384532E+02  0.24006272962E+02 -0.20240308556E+03  0.20667432464E+03  0.00000000000E+00 0. -1.
<scales pt_clust_5="13000.00000" pt_clust_6="13000.00000" pt_clust_7="13000.00000" pt_clust_8="13000.00000" pt_clust_9="41.80033"></scales>
<clustering>
<clus scale="   41.800">  2  9  1 -1</clus>
<clus scale="   79.853">  5  6 -1 -1</clus>
<clus scale="   90.900">  7  8 -1 -1</clus>
<clus scale="   94.524">  2  5  1 -1</clus>
<clus scale="   41.800">  2  5  1 -1</clus>
</clustering>
</event>
<event>
 9    1  0.1973774E-005  0.1354687E+03  0.7546771E-02  0.1221994E+00
         -4   -1    0    0    0  501 -0.00000000000E+00  0.00000000000E+00  0.40017189115E+03  0.40017189115E+03  0.00000000000E+00 0.  1.
          3   -1    0    0  502    0  0.00000000000E+00 -0.00000000000E+00 -0.12847836293E+03  0.12847836293E+03  0.00000000000E+00 0. -1.
        -24    2    1    2    0    0 -0.61007888953E+02 -0.87313816546E+02  0.31632712630E+03  0.34337691372E+03  0.80617547525E+02 0.  0.
         23    2    1    2    0    0  0.38316937108E+02  0.40748038267E+02 -0.69888994643E+02  0.12764447556E+03  0.90994781585E+02 0.  0.
         13    1    3    3    0    0 -0.54884954487E+02 -0.18090478543E+02  0.93050335797E+02  0.10953533053E+03  0.00000000000E+00 0. -1.
        -14    1    3    3    0    0 -0.61229344662E+01 -0.69223338003E+02  0.22327679050E+03  0.23384158319E+03  0.00000000000E+00 0.  1.
        -11    1    4    4    0    0  0.11587608657E+02  0.49218199232E+02  0.18736175585E+01  0.50598559790E+02  0.00000000000E+00 0.  1.
         11    1    4    4    0    0  0.26729328451E+02 -0.84701609648E+01 -0.71762612201E+02  0.77045915766E+02  0.00000000000E+00 0. -1.
         21    1    1    2  502  501  0.22690951844E+02  0.46565778279E+02  0.25255396561E+02  0.57628864797E+02  0.00000000000E+00 0.  1.
<scales pt_clust_5="13000.00000" pt_clust_6="13000.00000" pt_clust_7="13000.00000" pt_clust_8="13000.00000" pt_clust_9="51.80011"></scales>
<clustering>
<clus scale="   51.800">  2  9  1 -1</clus>
<clus scale="   80.618">  5  6 -1 -1</clus>
<clus scale="   90.995">  7  8 -1 -1</clus>
<clus scale="  128.728">  1  5  2 -1</clus>
<clus scale="   51.800">  2  5  1 -1</clus>
</clustering>
</event>
<event>
 9    1  0.1973774E-005  0.1250106E+03  0.7546771E-02  0.1248904E+00
         -2   -1    0    0    0  501 -0.00000000000E+00  0.00000000000E+00  0.19224789100E+03  0.19224789100E+03  0.00000000000E+00 0.  1.
          1   -1    0    0  502    0  0.00000000000E+00 -0.00000000000E+00 -0.25938940226E+03  0.25938940226E+03  0.00000000000E+00 0. -1.
        -24    2    1    2    0    0 -0.13142115871E+02  0.43652178886E+02  0.11958823930E+03  0.15238378169E+03  0.82711800919E+02 0.  0.
         23    2    1    2    0    0 -0.37914651035E+02  0.58148007030E+02 -0.12726561206E+03  0.17077761863E+03  0.90275952100E+02 0.  0.
         11    1    3    3    0    0 -0.21279030390E+02 -0.10915459830E+02  0.39238910640E+01  0.24235125721E+02  0.00000000000E+00 0. -1.
        -12    1    3    3    0    0  0.81369145187E+01  0.54567638716E+02  0.11566434823E+03  0.12814865596E+03  0.00000000000E+00 0.  1.
        -13    1    4    4    0    0 -0.45186718678E+01  0.67265157444E+02 -0.43741946046E+02  0.80364032037E+02  0.00000000000E+00 0.  1.
         13    1    4    4    0    0 -0.33395979167E+02 -0.91171504143E+01 -0.83523666015E+02  0.90413586594E+02  0.00000000000E+00 0. -1.
         21    1    1    2  502  501  0.51056766905E+02 -0.10180018592E+03 -0.59464138507E+02  0.12847589294E+03  0.00000000000E+00 0. -1.
<scales pt_clust_5="13000.00000" pt_clust_6="13000.00000" pt_clust_7="13000.00000" pt_clust_8="13000.00000" pt_clust_9="86.47485"></scales>
<clustering>
<clus scale="   82.712">  5  6 -1 -1</clus>
<clus scale="   90.276">  7  8 -1 -1</clus>
<clus scale="   94.443">  1  5  2 -1</clus>
<clus scale="   86.475">  1  9  2 -1</clus>
<clus scale="  125.011">  2  5  1 -1</clus>
</clustering>
</event>
<event>
 9    1  0.1973774E-005  0.1434380E+03  0.7546771E-02  0.1211844E+00
         -2   -1    0    0    0  501 -0.00000000000E+00  0.00000000000E+00  0.22160434066E+03  0.22160434066E+03  0.00000000000E+00 0.  1.
          1   -1    0    0  502    0  0.00000000000E+00 -0.00000000000E+00 -0.12713818799E+03  0.12713818799E+03  0.00000000000E+00 0. -1.
        -24    2    1    2    0    0  0.30460288845E+02  0.72878784601E+02  0.47814785101E+02  0.13913157705E+03  0.10407783441E+03 0.  0.
         23    2    1    2    0    0 -0.67216441215E+02 -0.10526219117E+03  0.43035260940E+02  0.16049093547E+03  0.91143446416E+02 0.  0.
         11    1    3    3    0    0  0.39806660803E+02  0.81051720490E+02  0.58917259818E+00  0.90301155934E+02  0.00000000000E+00 0. -1.
        -12    1    3    3    0    0 -0.93463719579E+01 -0.81729358894E+01  0.47225612502E+02  0.48830421113E+02  0.00000000000E+00 0.  1.
        -13    1    4    4    0    0 -0.19529378467E+02 -0.78040138858E+01 -0.24810928835E+02  0.32525089480E+02  0.00000000000E+00 0. -1.
         13    1    4    4    0    0 -0.47687062748E+02 -0.97458177284E+02  0.67846189776E+02  0.12796584599E+03  0.00000000000E+00 0.  1.
         21    1    1    2  502  501  0.36756152370E+02  0.32383406570E+02  0.36161066286E+01  0.49120016136E+02  0.00000000000E+00 0.  1.
<scales pt_clust_5="13000.00000" pt_clust_6="13000.00000" pt_clust_7="13000.00000" pt_clust_8="13000.00000" pt_clust_9="48.98673"></scales>
<clustering>
<clus scale="   48.987">  2  9  1 -1</clus>
<clus scale="   91.143">  7  8 -1 -1</clus>
<clus scale="  104.078">  5  6 -1 -1</clus>
<clus scale="  134.348">  2  7  1 -1</clus>
<clus scale="   48.987">  2  5  1 -1</clus>
</clustering>
</event>
<event>
 9    1  0.1973774E-005  0.2589716E+03  0.7546771E-02  0.1108285E+00
          3   -1    0    0  502    0  0.00000000000E+00  0.00000000000E+00  0.48762448768E+03  0.48762448768E+03  0.00000000000E+00 0. -1.
         -4   -1    0    0    0  501 -0.00000000000E+00 -0.00000000000E+00 -0.40390482498E+03  0.40390482498E+03  0.00000000000E+00 0.  1.
        -24    2    1    2    0    0  0.14577838420E+03 -0.20138416427E+03 -0.31532340442E+03  0.40968242393E+03  0.81264507509E+02 0.  0.
         23    2    1    2    0    0 -0.12161789068E+03  0.15397916091E+03  0.30992404256E+03  0.37805303376E+03  0.91491479693E+02 0.  0.
         13    1    3    3    0    0  0.69311555942E+02 -0.37196291102E+02 -0.74417833637E+02  0.10828513205E+03  0.00000000000E+00 0. -1.
        -14    1    3    3    0    0  0.76466828261E+02 -0.16418787317E+03 -0.24090557078E+03  0.30139729188E+03  0.00000000000E+00 0.  1.
        -11    1    4    4    0    0 -0.22281906910E+02  0.94828719842E+02  0.17574541573E+03  0.20093635965E+03  0.00000000000E+00 0.  1.
         11    1    4    4    0    0 -0.99335983768E+02  0.59150441063E+02  0.13417862683E+03  0.17711667411E+03  0.00000000000E+00 0. -1.
         21    1    1    2  502  501 -0.24160493526E+02  0.47405003363E+02  0.89119024559E+02  0.10379385497E+03  0.00000000000E+00 0. -1.
<scales pt_clust_5="13000.00000" pt_clust_6="13000.00000" pt_clust_7="13000.00000" pt_clust_8="13000.00000" pt_clust_9="53.20680"></scales>
<clustering>
<clus scale="   53.207">  1  9  2 -1</clus>
<clus scale="   81.265">  5  6 -1 -1</clus>
<clus scale="   91.491">  7  8 -1 -1</clus>
<clus scale="  255.538">  2  5  1 -1</clus>
<clus scale="   53.207">  1  5  2 -1</clus>
</clustering>
</event>
<event>
 9    1  0.1973774E-005  0.1855820E+03  0.7546771E-02  0.1162583E+00
         -2   -1    0    0    0  501 -0.00000000000E+00  0.00000000000E+00  0.18608098258E+03  0.18608098258E+03  0.00000000000E+00 0.  1.
          1   -1    0    0  502    0  0.00000000000E+00 -0.00000000000E+00 -0.37411376596E+03  0.37411376596E+03  0.00000000000E+00 0. -1.
         23    2    1    2    0    0  0.12370490687E+03 -0.11165836111E+03  0.96005374852E+02  0.21218739905E+03  0.89643553739E+02 0.  0.
        -24    2    1    2    0    0 -0.11826460000E+03  0.80146065521E+02 -0.23513513038E+03  0.28957681086E+03  0.90312194183E+02 0.  0.
         11    1    4    4    0    0 -0.12269319152E+03  0.66082065025E+02 -0.23677467090E+03  0.27474115699E+03  0.00000000000E+00 0. -1.
        -12    1    4    4    0    0  0.44285915156E+01  0.14064000496E+02  0.16395405209E+01  0.14835653874E+02  0.00000000000E+00 0.  1.
        -13    1    3    3    0    0  0.12533604256E+01 -0.46427919247E+02  0.60549517711E+01  0.46837859034E+02  0.00000000000E+00 0. -1.
         13    1    3    3    0    0  0.12245154644E+03 -0.65230441862E+02  0.89950423081E+02  0.16534954002E+03  0.00000000000E+00 0.  1.
         21    1    1    2  502  501 -0.54403068607E+01  0.31512295588E+02 -0.48903027849E+02  0.58430538632E+02  0.00000000000E+00 0. -1.
<scales pt_clust_5="13000.00000" pt_clust_6="13000.00000" pt_clust_7="13000.00000" pt_clust_8="13000.00000" pt_clust_9="31.97846"></scales>
<clustering>
<clus scale="   31.978">  2  9  1 -1</clus>
<clus scale="   89.644">  7  8 -1 -1</clus>
<clus scale="   90.312">  5  6 -1 -1</clus>
<clus scale="  185.258">  1  7  2 -1</clus>
<clus scale="   31.978">  2  5  1 -1</clus>
</clustering>
</event>
<event>
 9    1  0.1973774E-005  0.1253269E+03  0.7546771E-02  0.1252536E+00
         -2   -1    0    0    0  501 -0.00000000000E+00  0.00000000000E+00  0.15500529515E+03  0.15500529515E+03  0.00000000000E+00 0.  1.
          1   -1    0    0  502    0  0.00000000000E+00 -0.00000000000E+00 -0.50393712158E+03  0.50393712158E+03  0.00000000000E+00 0. -1.
         23    2    1    2    0    0  0.34680307916E+01  0.12291244881E+01 -0.30406898730E+02  0.92327123429E+02  0.87098681079E+02 0.  0.
        -24    2    1    2    0    0  0.83949689123E+02 -0.43637607726E+02  0.86082741153E+02  0.15050508806E+03  0.79307957323E+02 0.  0.
         11    1    4    4    0    0  0.69605600085E+02 -0.11506936285E+02  0.90817632740E+02  0.11500083288E+03  0.00000000000E+00 0. -1.
        -12    1    4    4    0    0  0.14344089038E+02 -0.32130671441E+02 -0.47348915868E+01  0.35504255181E+02  0.00000000000E+00 0.  1.
        -13    1    3    3    0    0 -0.14464607261E+02 -0.35470770146E+02 -0.34137221527E+02  0.51310333186E+02  0.00000000000E+00 0.  1.
         13    1    3    3    0    0  0.17932638053E+02  0.36699894634E+02  0.37303227970E+01  0.41016790244E+02  0.00000000000E+00 0. -1.
         21    1    1    2  502  501 -0.87417719915E+02  0.42408483238E+02 -0.40460766885E+03  0.41611020524E+03  0.00000000000E+00 0. -1.
<scales pt_clust_5="13000.00000" pt_clust_6="13000.00000" pt_clust_7="13000.00000" pt_clust_8="13000.00000" pt_clust_9="97.04168"></scales>
<clustering>
<clus scale="   79.308">  5  6 -1 -1</clus>
<clus scale="   87.099">  7  8 -1 -1</clus>
<clus scale="   87.176">  1  7  2 -1</clus>
<clus scale="   97.042">  2  9  1 -1</clus>
<clus scale="   97.042">  2  5  1 -1</clus>
</clustering>
</event>
<event>
 9    1  0.1973774E-005  0.1219951E+03  0.7546771E-02  0.1242260E+00
         -2   -1    0    0    0  501 -0.00000000000E+00  0.00000000000E+00  0.34162625020E+02  0.34162625020E+02  0.00000000000E+00 0.  1.
          1   -1    0    0  502    0  0.00000000000E+00 -0.00000000000E+00 -0.53856657772E+03  0.53856657772E+03  0.00000000000E+00 0. -1.
        -24    2    1    2    0    0 -0.13870586476E+02  0.92483383407E+02 -0.17070616180E+03  0.21086435777E+03  0.81102492726E+02 0.  0.
         23    2    1    2    0    0  0.29370804580E+01 -0.69058435480E+02 -0.25100297109E+03  0.27522361366E+03  0.89262825787E+02 0.  0.
         11    1    3    3    0    0  0.33667861100E+02  0.48342224420E+02 -0.80378629750E+02  0.99655504883E+02  0.00000000000E+00 0. -1.
        -12    1    3    3    0    0 -0.47538447576E+02  0.44141158987E+02 -0.90327532051E+02  0.11120885289E+03  0.00000000000E+00 0.  1.
        -13    1    4    4    0    0  0.31219356233E+02 -0.41644433386E+02 -0.56690260053E+02  0.76959032092E+02  0.00000000000E+00 0.  1.
         13    1    4    4    0    0 -0.28282275775E+02 -0.27414002094E+02 -0.19431271104E+03  0.19826458157E+03  0.00000000000E+00 0. -1.
         21    1    1    2  502  501  0.10933506018E+02 -0.23424947927E+02 -0.82694819812E+02  0.86641231311E+02  0.00000000000E+00 0. -1.
<scales pt_clust_5="13000.00000" pt_clust_6="13000.00000" pt_clust_7="13000.00000" pt_clust_8="13000.00000" pt_clust_9="25.85091"></scales>
<clustering>
<clus scale="   25.851">  2  9  1 -1</clus>
<clus scale="   81.102">  5  6 -1 -1</clus>
<clus scale="   89.263">  7  8 -1 -1</clus>
<clus scale="  116.157">  1  5  2 -1</clus>
<clus scale="   25.851">  2  5  1 -1</clus>
</clustering>
</event>
<event>
 9    1  0.1973774E-005  0.1077703E+03  0.7546771E-02  0.1266556E+00
          1   -1    0    0  502    0  0.00000000000E+00  0.00000000000E+00  0.29039338495E+03  0.29039338495E+03  0.00000000000E+00 0. -1.
         -2   -1    0    0    0  501 -0.00000000000E+00 -0.00000000000E+00 -0.27090192561E+03  0.27090192561E+03  0.00000000000E+00 0.  1.
        -24    2    1    2    0    0 -0.39016169931E+02 -0.50839254349E+02 -0.24264296535E+03  0.26422410737E+03  0.82655181234E+02 0.  0.
         23    2    1    2    0    0  0.30683149971E+02  0.29300710778E+02  0.25508907318E+03  0.27292611965E+03  0.87282553752E+02 0.  0.
         11    1    3    3    0    0 -0.89185132425E+01 -0.47588428615E+02 -0.51449189919E+02  0.70648549595E+02  0.00000000000E+00 0. -1.
        -12    1    3    3    0    0 -0.30097656689E+02 -0.32508257342E+01 -0.19119377543E+03  0.19357555778E+03  0.00000000000E+00 0.  1.
        -13    1    4    4    0    0  0.25380226071E+02  0.51129572689E+02  0.23786692859E+03  0.24462024608E+03  0.00000000000E+00 0. -1.
         13    1    4    4    0    0  0.53029239005E+01 -0.21828861911E+02  0.17222144593E+02  0.28305873571E+02  0.00000000000E+00 0.  1.
         21    1    1    2  502  501  0.83330199601E+01  0.21538543571E+02  0.70453515062E+01  0.24145083530E+02  0.00000000000E+00 0.  1.
<scales pt_clust_5="13000.00000" pt_clust_6="13000.00000" pt_clust_7="13000.00000" pt_clust_8="13000.00000" pt_clust_9="23.09433"></scales>
<clustering>
<clus scale="   23.094">  1  9  2 -1</clus>
<clus scale="   82.655">  5  6 -1 -1</clus>
<clus scale="   87.283">  7  8 -1 -1</clus>
<clus scale="  104.058">  2  5  1 -1</clus>
<clus scale="   23.094">  1  5  2 -1</clus>
</clustering>
</event>
<event>
 9    1  0.1973774E-005  0.1951554E+03  0.7546771E-02  0.1184373E+00
         -2   -1    0    0    0  501 -0.00000000000E+00  0.00000000000E+00  0.36748942492E+03  0.36748942492E+03  0.00000000000E+00 0.  1.
          1   -1    0    0  502    0  0.00000000000E+00 -0.00000000000E+00 -0.31105540829E+03  0.31105540829E+03  0.00000000000E+00 0. -1.
        -24    2    1    2    0    0  0.13801253714E+03 -0.11159887471E+03  0.26243752058E+03  0.32685021208E+03  0.80348240085E+02 0.  0.
         23    2    1    2    0    0  0.26345000865E+02  0.30448784235E+02 -0.10259697656E+03  0.14123881248E+03  0.88323694551E+02 0.  0.
         11    1    3    3    0    0  0.11214699210E+02 -0.37964842672E+02  0.10246378179E+03  0.10984500596E+03  0.00000000000E+00 0. -1.
        -12    1    3    3    0    0  0.12679783793E+03 -0.73634032034E+02  0.15997373880E+03  0.21700520612E+03  0.00000000000E+00 0.  1.
        -13    1    4    4    0    0  0.17654293110E+02  0.60181657870E+02 -0.84931549809E+02  0.10557875810E+03  0.00000000000E+00 0.  1.
         13    1    4    4    0    0  0.86907077551E+01 -0.29732873635E+02 -0.17665426752E+02  0.35660054378E+02  0.00000000000E+00 0. -1.
         21    1    1    2  502  501 -0.16435753801E+03  0.81150090471E+02 -0.10340652740E+03  0.21045580864E+03  0.00000000000E+00 0. -1.
<scales pt_clust_5="13000.00000" pt_clust_6="13000.00000" pt_clust_7="13000.00000" pt_clust_8="13000.00000" pt_clust_9="177.84767"></scales>
<clustering>
<clus scale="   80.348">  5  6 -1 -1</clus>
<clus scale="   88.324">  7  8 -1 -1</clus>
<clus scale="   97.068">  2  7  1 -1</clus>
<clus scale="  177.848">  2  9  1 -1</clus>
<clus scale="   97.068">  2  5  1 -1</clus>
</clustering>
</event>
<event>
 9    1  0.1973774E-005  0.1473472E+03  0.7546771E-02  0.1222843E+00
          1   -1    0    0  502    0  0.00000000000E+00  0.00000000000E+00  0.30743219075E+03  0.30743219075E+03  0.00000000000E+00 0. -1.
         -2   -1    0    0    0  501 -0.00000000000E+00 -0.00000000000E+00 -0.29188709047E+03  0.29188709047E+03  0.00000000000E+00 0.  1.
        -24    2    1    2    0    0 -0.13994502319E+02 -0.40603338441E+02 -0.21258010308E+03  0.23419765442E+03  0.88395497206E+02 0.  0.
         23    2    1    2    0    0 -0.31947348146E+02 -0.77932002291E+02  0.26966225584E+02  0.12715899325E+03  0.91368496804E+02 0.  0.
         13    1    3    3    0    0  0.31361067215E+02 -0.41920474458E+02 -0.10147088351E+03  0.11418048395E+03  0.00000000000E+00 0. -1.
        -14    1    3    3    0    0 -0.45355569534E+02  0.13171360169E+01 -0.11110921957E+03  0.12001717047E+03  0.00000000000E+00 0.  1.
        -13    1    4    4    0    0  0.16274130752E+02 -0.35422561004E+02 -0.23424938477E+02  0.45478928115E+02  0.00000000000E+00 0.  1.
         13    1    4    4    0    0 -0.48221478897E+02 -0.42509441287E+02  0.50391164062E+02  0.81680065139E+02  0.00000000000E+00 0. -1.
         21    1    1    2  502  501  0.45941850465E+02  0.11853534073E+03  0.20115897777E+03  0.23796263355E+03  0.00000000000E+00 0.  1.
<scales pt_clust_5="13000.00000" pt_clust_6="13000.00000" pt_clust_7="13000.00000" pt_clust_8="13000.00000" pt_clust_9="115.59843"></scales>
<clustering>
<clus scale="   88.395">  5  6 -1 -1</clus>
<clus scale="   91.368">  7  8 -1 -1</clus>
<clus scale="   98.276">  2  5  1 -1</clus>
<clus scale="  115.598">  1  9  2 -1</clus>
<clus scale="  115.598">  1  5  2 -1</clus>
</clustering>
</event>
<event>
 9    1  0.1973774E-005  0.1489262E+03  0.7546771E-02  0.1203758E+00
          1   -1    0    0  502    0  0.00000000000E+00  0.00000000000E+00  0.18035374065E+03  0.18035374065E+03  0.00000000000E+00 0. -1.
         -2   -1    0    0    0  501 -0.00000000000E+00 -0.00000000000E+00 -0.34611748159E+03  0.34611748159E+03  0.00000000000E+00 0.  1.
         23    2    1    2    0    0 -0.10452441303E+03  0.48488600495E+02 -0.23711701225E+03  0.27862388360E+03  0.90168141378E+02 0.  0.
        -24    2    1    2    0    0  0.14380612238E+03  0.60744954247E+00  0.17893590570E+02  0.16531605799E+03  0.79552803952E+02 0.  0.
         11    1    4    4    0    0  0.14980440248E+03  0.20789510177E+01  0.29007677201E+02  0.15260120044E+03  0.00000000000E+00 0. -1.
        -12    1    4    4    0    0 -0.59982801013E+01 -0.14715014753E+01 -0.11114086631E+02  0.12714857546E+02  0.00000000000E+00 0.  1.
        -13    1    3    3    0    0 -0.38998548594E+02  0.58522333365E+02 -0.71763554109E+02  0.10047764922E+03  0.00000000000E+00 0. -1.
         13    1    3    3    0    0 -0.65525864433E+02 -0.10033732870E+02 -0.16535345814E+03  0.17814623438E+03  0.00000000000E+00 0.  1.
         21    1    1    2  502  501 -0.39281709354E+02 -0.49096050038E+02  0.53459680750E+02  0.82531280645E+02  0.00000000000E+00 0. -1.
<scales pt_clust_5="13000.00000" pt_clust_6="13000.00000" pt_clust_7="13000.00000" pt_clust_8="13000.00000" pt_clust_9="62.87666"></scales>
<clustering>
<clus scale="   62.877">  1  9  2 -1</clus>
<clus scale="   79.553">  5  6 -1 -1</clus>
<clus scale="   90.168">  7  8 -1 -1</clus>
<clus scale="  142.749">  1  5  2 -1</clus>
<clus scale="   62.877">  1  5  2 -1</clus>
</clustering>
</event>
<event>
 9    1  0.1973774E-005  0.1069737E+03  0.7546771E-02  0.1270841E+00
         -2   -1    0    0    0  501 -0.00000000000E+00  0.00000000000E+00  0.51008686340E+02  0.51008686340E+02  0.00000000000E+00 0.  1.
          1   -1    0    0  502    0  0.00000000000E+00 -0.00000000000E+00 -0.34692997156E+03  0.34692997156E+03  0.00000000000E+00 0. -1.
         23    2    1    2    0    0 -0.48407071114E+02 -0.34597265156E+02 -0.36117917866E+02  0.11510974609E+03  0.91681701359E+02 0.  0.
        -24    2    1    2    0    0  0.39471982299E+02  0.16587152678E+02 -0.21771055116E+03  0.23618124157E+03  0.80935306028E+02 0.  0.
         13    1    4    4    0    0  0.43975718478E+02  0.13367520063E+02 -0.22349627089E+03  0.22817348118E+03  0.00000000000E+00 0. -1.
        -14    1    4    4    0    0 -0.45037361792E+01  0.32196326146E+01  0.57857197311E+01  0.80077603955E+01  0.00000000000E+00 0.  1.
        -13    1    3    3    0    0 -0.75287288659E+02 -0.17274836563E+02 -0.27467651385E+02  0.81982118078E+02  0.00000000000E+00 0.  1.
         13    1    3    3    0    0  0.26880217545E+02 -0.17322428593E+02 -0.86502664805E+01  0.33127628014E+02  0.00000000000E+00 0. -1.
         21    1    1    2  502  501  0.89350888152E+01  0.18010112478E+02 -0.42092816190E+02  0.46647670235E+02  0.00000000000E+00 0. -1.
<scales pt_clust_5="13000.00000" pt_clust_6="13000.00000" pt_clust_7="13000.00000" pt_clust_8="13000.00000" pt_clust_9="20.10472"></scales>
<clustering>
<clus scale="   20.105">  2  9  1 -1</clus>
<clus scale="   80.935">  5  6 -1 -1</clus>
<clus scale="   91.682">  7  8 -1 -1</clus>
<clus scale="   97.920">  2  5  1 -1</clus>
<clus scale="   20.105">  2  5  1 -1</clus>
</clustering>
</event>
<event>
 9    1  0.1973774E-005  0.1040814E+03  0.7546771E-02  0.1277486E+00
         -2   -1    0    0    0  501 -0.00000000000E+00  0.00000000000E+00  0.22602759790E+03  0.22602759790E+03  0.00000000000E+00 0.  1.
          1   -1    0    0  502    0  0.00000000000E+00 -0.00000000000E+00 -0.14234029124E+03  0.14234029124E+03  0.00000000000E+00 0. -1.
        -24    2    1    2    0    0 -0.23753365223E+02 -0.41208431418E+02  0.16987020637E+03  0.19363795341E+03  0.79858705292E+02 0.  0.
         23    2    1    2    0    0  0.73401323829E+01  0.59620375437E+02 -0.30746541399E+02  0.11405388017E+03  0.91948197715E+02 0.  0.
         11    1    3    3    0    0  0.23651888990E+02  0.22580093865E+01  0.21977694438E+02  0.32365560585E+02  0.00000000000E+00 0. -1.
        -12    1    3    3    0    0 -0.47405254213E+02 -0.43466440805E+02  0.14789251193E+03  0.16127239283E+03  0.00000000000E+00 0.  1.
        -11    1    4    4    0    0  0.43515822315E+02  0.32711268184E+02  0.74703823716E+01  0.54949617567E+02  0.00000000000E+00 0. -1.
         11    1    4    4    0    0 -0.36175689933E+02  0.26909107253E+02 -0.38216923771E+02  0.59104262602E+02  0.00000000000E+00 0.  1.
         21    1    1    2  502  501  0.16413232840E+02 -0.18411944019E+02 -0.55436358315E+02  0.60676055558E+02  0.00000000000E+00 0. -1.
<scales pt_clust_5="13000.00000" pt_clust_6="13000.00000" pt_clust_7="13000.00000" pt_clust_8="13000.00000" pt_clust_9="24.66564"></scales>
<clustering>
<clus scale="   24.666">  2  9  1 -1</clus>
<clus scale="   79.859">  5  6 -1 -1</clus>
<clus scale="   91.948">  7  8 -1 -1</clus>
<clus scale="   93.573">  1  5  2 -1</clus>
<clus scale="   24.666">  2  5  1 -1</clus>
</clustering>
</event>
<event>
 9    1  0.1973774E-005  0.1520317E+03  0.7546771E-02  0.1199728E+00
         -2   -1    0    0    0  501 -0.00000000000E+00  0.00000000000E+00  0.13876568893E+03  0.13876568893E+03  0.00000000000E+00 0.  1.
          1   -1    0    0  502    0  0.00000000000E+00 -0.00000000000E+00 -0.25313790436E+03  0.25313790436E+03  0.00000000000E+00 0. -1.
        -24    2    1    2    0    0  0.74678405318E+02 -0.93919319378E+02  0.44713197977E+01  0.14462040841E+03  0.80606246987E+02 0.  0.
         23    2    1    2    0    0 -0.45068871591E+02  0.12125714246E+03 -0.46596707914E+02  0.16455661651E+03  0.90405359720E+02 0.  0.
         11    1    3    3    0    0  0.75392318074E+02 -0.10196959168E+03 -0.10871489597E+02  0.12727917559E+03  0.00000000000E+00 0. -1.
        -12    1    3    3    0    0 -0.71391275619E+00  0.80502723016E+01  0.15342809395E+02  0.17341232819E+02  0.00000000000E+00 0.  1.
        -13    1    4    4    0    0 -0.68552687768E+02  0.58000802144E+02 -0.33372090162E+02  0.95798019037E+02  0.00000000000E+00 0. -1.
         13    1    4    4    0    0  0.23483816177E+02  0.63256340313E+02 -0.13224617752E+02  0.68758597475E+02  0.00000000000E+00 0.  1.
         21    1    1    2  502  501 -0.29609533726E+02 -0.27337823079E+02 -0.72246827308E+02  0.82726568370E+02  0.00000000000E+00 0. -1.
<scales pt_clust_5="13000.00000" pt_clust_6="13000.00000" pt_clust_7="13000.00000" pt_clust_8="13000.00000" pt_clust_9="40.29989"></scales>
<clustering>
<clus scale="   40.300">  2  9  1 -1</clus>
<clus scale="   80.606">  5  6 -1 -1</clus>
<clus scale="   90.405">  7  8 -1 -1</clus>
<clus scale="  146.417">  1  5  2 -1</clus>
<clus scale="   40.300">  2  5  1 -1</clus>
</clustering>
</event>
<event>
 9    1  0.1973774E-005  0.1125646E+03  0.7546771E-02  0.1257729E+00
         -2   -1    0    0    0  501 -0.00000000000E+00  0.00000000000E+00  0.34259535750E+03  0.34259535750E+03  0.00000000000E+00 0.  1.
          1   -1    0    0  502    0  0.00000000000E+00 -0.00000000000E+00 -0.11018618117E+03  0.11018618117E+03  0.00000000000E+00 0. -1.
         23    2    1    2    0    0 -0.66334246517E+02  0.44283252304E+02  0.16671376469E+03  0.20551029449E+03  0.89887502516E+02 0.  0.
        -24    2    1    2    0    0  0.52121919840E+02  0.69456975421E+02  0.90268248783E+01  0.11940350643E+03  0.81453961343E+02 0.  0.
         11    1    4    4    0    0  0.75702816384E+01  0.72068346198E+02 -0.49614414746E+01  0.72634506877E+02  0.00000000000E+00 0. -1.
        -12    1    4    4    0    0  0.44551638202E+02 -0.26113707775E+01  0.13988266353E+02  0.46768999555E+02  0.00000000000E+00 0.  1.
        -11    1    3    3    0    0 -0.49324726390E+01 -0.19678407571E+02  0.76007202009E+02  0.78668060661E+02  0.00000000000E+00 0. -1.
         11    1    3    3    0    0 -0.61401773878E+02  0.63961659875E+02  0.90706562678E+02  0.12684223383E+03  0.00000000000E+00 0.  1.
         21    1    1    2  502  501  0.14212326676E+02 -0.11374022772E+03  0.56668586765E+02  0.12786773775E+03  0.00000000000E+00 0. -1.
<scales pt_clust_5="13000.00000" pt_clust_6="13000.00000" pt_clust_7="13000.00000" pt_clust_8="13000.00000" pt_clust_9="114.62473"></scales>
<clustering>
<clus scale="   81.454">  5  6 -1 -1</clus>
<clus scale="   89.888">  7  8 -1 -1</clus>
<clus scale="  114.625">  2  9  1 -1</clus>
<clus scale="  114.625">  2  5  1 -1</clus>
<clus scale="  112.565">  2  5  1 -1</clus>
</clustering>
</event>
<event>
 9    1  0.1973774E-005  0.1869362E+03  0.7546771E-02  0.1164641E+00
          1   -1    0    0  502    0  0.00000000000E+00  0.00000000000E+00  0.11970336488E+04  0.11970336488E+04  0.00000000000E+00 0. -1.
         -2   -1    0    0    0  501 -0.00000000000E+00 -0.00000000000E+00 -0.19564230327E+03  0.19564230327E+03  0.00000000000E+00 0.  1.
         23    2    1    2    0    0  0.73649898341E+02  0.12941261052E+03 -0.11176522195E+03  0.21509487059E+03  0.10771447084E+03 0.  0.
        -24    2    1    2    0    0 -0.47431363849E+01 -0.23950058825E+03  0.78289648274E+03  0.82270190731E+03  0.80799111876E+02 0.  0.
         11    1    4    4    0    0  0.37994728249E+02 -0.11700624446E+03  0.37280319507E+03  0.39257646754E+03  0.00000000000E+00 0. -1.
        -12    1    4    4    0    0 -0.42737864634E+02 -0.12249434379E+03  0.41009328768E+03  0.43012543976E+03  0.00000000000E+00 0.  1.
        -11    1    3    3    0    0  0.27123901422E+02 -0.12249620052E+02 -0.17847191703E+01  0.29815171344E+02  0.00000000000E+00 0. -1.
         11    1    3    3    0    0  0.46525996919E+02  0.14166223057E+03 -0.10998050278E+03  0.18527969925E+03  0.00000000000E+00 0.  1.
         21    1    1    2  502  501 -0.68906761956E+02  0.11008797773E+03  0.33026008471E+03  0.35487917414E+03  0.00000000000E+00 0.  1.
<scales pt_clust_5="13000.00000" pt_clust_6="13000.00000" pt_clust_7="13000.00000" pt_clust_8="13000.00000" pt_clust_9="129.87496"></scales>
<clustering>
<clus scale="   80.799">  5  6 -1 -1</clus>
<clus scale="  107.714">  7  8 -1 -1</clus>
<clus scale="  129.875">  1  9  2 -1</clus>
<clus scale="  172.833">  1  5  2 -1</clus>
<clus scale="  129.875">  1  5  2 -1</clus>
</clustering>
</event>
<event>
 9    1  0.1973774E-005  0.1657033E+03  0.7546771E-02  0.1184026E+00
          1   -1    0    0  502    0  0.00000000000E+00  0.00000000000E+00  0.10415409485E+04  0.10415409485E+04  0.00000000000E+00 0. -1.
         -2   -1    0    0    0  501 -0.00000000000E+00 -0.00000000000E+00 -0.70705287171E+02  0.70705287171E+02  0.00000000000E+00 0.  1.
         23    2    1    2    0    0  0.14131833518E+03  0.30301111576E+01  0.48318373050E+02  0.17484892708E+03  0.90870395050E+02 0.  0.
        -24    2    1    2    0    0 -0.11803158895E+03 -0.62638501919E+01  0.81159325702E+03  0.82400916844E+03  0.79604038915E+02 0.  0.
         11    1    4    4    0    0 -0.10960327060E+03 -0.23290607618E+01  0.48303212438E+03  0.49531639851E+03  0.00000000000E+00 0. -1.
        -12    1    4    4    0    0 -0.84283183539E+01 -0.39347894301E+01  0.32856113264E+03  0.32869276992E+03  0.00000000000E+00 0.  1.
        -13    1    3    3    0    0  0.25213761726E+02 -0.10533101043E+02  0.51071752434E+02  0.57922395450E+02  0.00000000000E+00 0. -1.
         13    1    3    3    0    0  0.11610457345E+03  0.13563212201E+02 -0.27533793843E+01  0.11692653163E+03  0.00000000000E+00 0.  1.
         21    1    1    2  502  501 -0.23286746224E+02  0.32337390343E+01  0.11092403129E+03  0.11338814019E+03  0.00000000000E+00 0.  1.
<scales pt_clust_5="13000.00000" pt_clust_6="13000.00000" pt_clust_7="13000.00000" pt_clust_8="13000.00000" pt_clust_9="23.51020"></scales>
<clustering>
<clus scale="   23.510">  1  9  2 -1</clus>
<clus scale="   79.604">  5  6 -1 -1</clus>
<clus scale="   90.870">  7  8 -1 -1</clus>
<clus scale="  159.803">  1  5  2 -1</clus>
<clus scale="   23.510">  1  5  2 -1</clus>
</clustering>
</event>
<event>
 9    1  0.1973774E-005  0.1335703E+03  0.7546771E-02  0.1224909E+00
         -2   -1    0    0    0  501 -0.00000000000E+00  0.00000000000E+00  0.82016457705E+02  0.82016457705E+02  0.00000000000E+00 0.  1.
          1   -1    0    0  502    0  0.00000000000E+00 -0.00000000000E+00 -0.33909318203E+03  0.33909318203E+03  0.00000000000E+00 0. -1.
         23    2    1    2    0    0  0.37575069123E+00  0.73096800935E+02 -0.19061089828E+02  0.11904944645E+03  0.92011749567E+02 0.  0.
        -24    2    1    2    0    0  0.22259343244E+02 -0.10364031951E+03 -0.22544004128E+03  0.26201772147E+03  0.81199014540E+02 0.  0.
         11    1    4    4    0    0  0.32409687012E+02 -0.81744280489E+02 -0.22049397967E+03  0.23738178169E+03  0.00000000000E+00 0. -1.
        -12    1    4    4    0    0 -0.10150343768E+02 -0.21896039023E+02 -0.49460616039E+01  0.24635939781E+02  0.00000000000E+00 0.  1.
        -11    1    3    3    0    0 -0.13732128968E+02  0.88581660060E+02  0.15621419298E+01  0.89653344346E+02  0.00000000000E+00 0.  1.
         11    1    3    3    0    0  0.14107879659E+02 -0.15484859125E+02 -0.20623231758E+02  0.29396102101E+02  0.00000000000E+00 0. -1.
         21    1    1    2  502  501 -0.22635093936E+02  0.30543518577E+02 -0.12575593217E+02  0.40042471818E+02  0.00000000000E+00 0.  1.
<scales pt_clust_5="13000.00000" pt_clust_6="13000.00000" pt_clust_7="13000.00000" pt_clust_8="13000.00000" pt_clust_9="38.01650"></scales>
<clustering>
<clus scale="   38.016">  1  9  2 -1</clus>
<clus scale="   81.199">  5  6 -1 -1</clus>
<clus scale="   92.012">  7  8 -1 -1</clus>
<clus scale="  126.365">  2  5  1 -1</clus>
<clus scale="  126.365">  2  5  1 -1</clus>
</clustering>
</event>
<event>
 9    1  0.1973774E-005  0.1252495E+03  0.7546771E-02  0.1238304E+00
          1   -1    0    0  502    0  0.00000000000E+00  0.00000000000E+00  0.24978955800E+03  0.24978955800E+03  0.00000000000E+00 0. -1.
         -2   -1    0    0    0  501 -0.00000000000E+00 -0.00000000000E+00 -0.25191899904E+03  0.25191899904E+03  0.00000000000E+00 0.  1.
        -24    2    1    2    0    0  0.11319807382E+02 -0.81753636641E+02 -0.18911034012E+03  0.22113358838E+03  0.79533313950E+02 0.  0.
         23    2    1    2    0    0 -0.28210645513E+02  0.96533030839E+02  0.55577161137E+02  0.14726827997E+03  0.92112208109E+02 0.  0.
         13    1    3    3    0    0 -0.29596496054E+02 -0.43468851204E+02 -0.12713695075E+03  0.13758378484E+03  0.00000000000E+00 0. -1.
        -14    1    3    3    0    0  0.40916303437E+02 -0.38284785436E+02 -0.61973389369E+02  0.83549803546E+02  0.00000000000E+00 0.  1.
        -13    1    4    4    0    0  0.33209963011E+02  0.44817929499E+02  0.27642953937E+02  0.62254970485E+02  0.00000000000E+00 0. -1.
         13    1    4    4    0    0 -0.61420608524E+02  0.51715101340E+02  0.27934207200E+02  0.85013309487E+02  0.00000000000E+00 0.  1.
         21    1    1    2  502  501  0.16890838131E+02 -0.14779394198E+02  0.13140373793E+03  0.13330668869E+03  0.00000000000E+00 0. -1.
<scales pt_clust_5="13000.00000" pt_clust_6="13000.00000" pt_clust_7="13000.00000" pt_clust_8="13000.00000" pt_clust_9="22.44395"></scales>
<clustering>
<clus scale="   22.444">  1  9  2 -1</clus>
<clus scale="   79.533">  5  6 -1 -1</clus>
<clus scale="   92.112">  7  8 -1 -1</clus>
<clus scale="  116.311">  2  5  1 -1</clus>
<clus scale="   22.444">  1  5  2 -1</clus>
</clustering>
</event>
<event>
 9    1  0.1973774E-005  0.9251671E+02  0.7546771E-02  0.1306907E+00
          1   -1    0    0  502    0  0.00000000000E+00  0.00000000000E+00  0.48263666203E+03  0.48263666203E+03  0.00000000000E+00 0. -1.
         -2   -1    0    0    0  501 -0.00000000000E+00 -0.00000000000E+00 -0.88456859358E+02  0.88456859358E+02  0.00000000000E+00 0.  1.
        -24    2    1    2    0    0 -0.14548556931E+02 -0.83354637921E+00 -0.61731369411E+02  0.98725174405E+02  0.75654099582E+02 0.  0.
         23    2    1    2    0    0  0.14766547330E+01  0.21654222988E+02  0.29567958019E+03  0.31026178252E+03  0.91459683294E+02 0.  0.
         13    1    3    3    0    0  0.31056065764E+02 -0.40882687619E+01 -0.24999388133E+02  0.40076958084E+02  0.00000000000E+00 0. -1.
        -14    1    3    3    0    0 -0.45604622696E+02  0.32547223827E+01 -0.36731981278E+02  0.58648216321E+02  0.00000000000E+00 0.  1.
        -13    1    4    4    0    0  0.16948741311E+02 -0.22783853234E+02  0.33603451345E+02  0.43994951330E+02  0.00000000000E+00 0.  1.
         13    1    4    4    0    0 -0.15472086578E+02  0.44438076223E+02  0.26207612884E+03  0.26626683119E+03  0.00000000000E+00 0. -1.
         21    1    1    2  502  501  0.13071902198E+02 -0.20820676609E+02  0.16023159190E+03  0.16210656447E+03  0.00000000000E+00 0.  1.
<scales pt_clust_5="13000.00000" pt_clust_6="13000.00000" pt_clust_7="13000.00000" pt_clust_8="13000.00000" pt_clust_9="24.58404"></scales>
<clustering>
<clus scale="   24.584">  1  9  2 -1</clus>
<clus scale="   75.654">  5  6 -1 -1</clus>
<clus scale="   76.929">  2  5  1 -1</clus>
<clus scale="   91.460">  7  8 -1 -1</clus>
<clus scale="   24.584">  1  5  2 -1</clus>
</clustering>
</event>
<event>
 9    1  0.1973774E-005  0.1921551E+03  0.7546771E-02  0.1157452E+00
          1   -1    0    0  502    0  0.00000000000E+00  0.00000000000E+00  0.11530173246E+04  0.11530173246E+04  0.00000000000E+00 0. -1.
         -2   -1    0    0    0  501 -0.00000000000E+00 -0.00000000000E+00 -0.45302866430E+02  0.45302866430E+02  0.00000000000E+00 0.  1.
        -24    2    1    2    0    0  0.61031920970E+02  0.17487839777E+03  0.33880910772E+03  0.39429608459E+03  0.79815045343E+02 0.  0.
         23    2    1    2    0    0 -0.88225204712E+02 -0.12316382103E+03  0.54560252301E+03  0.57320377617E+03  0.89036185537E+02 0.  0.
         11    1    3    3    0    0  0.78323885809E+02  0.12620103657E+03  0.22912194651E+03  0.27305347295E+03  0.00000000000E+00 0. -1.
        -12    1    3    3    0    0 -0.17291964839E+02  0.48677361199E+02  0.10968716122E+03  0.12124261164E+03  0.00000000000E+00 0.  1.
        -13    1    4    4    0    0 -0.98356781092E+02 -0.10357792504E+03  0.52072437767E+03  0.53995955445E+03  0.00000000000E+00 0.  1.
         13    1    4    4    0    0  0.10131576379E+02 -0.19585895995E+02  0.24878145345E+02  0.33244221718E+02  0.00000000000E+00 0. -1.
         21    1    1    2  502  501  0.27193283742E+02 -0.51714576735E+02  0.22330282741E+03  0.23082033025E+03  0.00000000000E+00 0. -1.
<scales pt_clust_5="13000.00000" pt_clust_6="13000.00000" pt_clust_7="13000.00000" pt_clust_8="13000.00000" pt_clust_9="58.42835"></scales>
<clustering>
<clus scale="   58.428">  1  9  2 -1</clus>
<clus scale="   79.815">  5  6 -1 -1</clus>
<clus scale="   89.036">  7  8 -1 -1</clus>
<clus scale="  188.060">  2  5  1 -1</clus>
<clus scale="   58.428">  1  5  2 -1</clus>
</clustering>
</event>
<event>
 9    1  0.1973774E-005  0.1805139E+03  0.7546771E-02  0.1186343E+00
         -2   -1    0    0    0  501 -0.00000000000E+00  0.00000000000E+00  0.79841341462E+03  0.79841341462E+03  0.00000000000E+00 0.  1.
          1   -1    0    0  502    0  0.00000000000E+00 -0.00000000000E+00 -0.15239263143E+03  0.15239263143E+03  0.00000000000E+00 0. -1.
         23    2    1    2    0    0 -0.12196118960E+03  0.96599866613E+02  0.60661330191E+03  0.63289284536E+03  0.91474530087E+02 0.  0.
        -24    2    1    2    0    0 -0.49049033464E+02 -0.65122796546E+02  0.76501795370E+02  0.14011755826E+03  0.84460754927E+02 0.  0.
         11    1    4    4    0    0 -0.38947665044E+02 -0.82816467494E+02  0.43491916659E+02  0.10132637719E+03  0.00000000000E+00 0. -1.
        -12    1    4    4    0    0 -0.10101368420E+02  0.17693670948E+02  0.33009878712E+02  0.38791181061E+02  0.00000000000E+00 0.  1.
        -11    1    3    3    0    0 -0.49330820046E+02 -0.10527394071E+02  0.19444698250E+03  0.20088301281E+03  0.00000000000E+00 0.  1.
         11    1    3    3    0    0 -0.72630369555E+02  0.10712726068E+03  0.41216631941E+03  0.43200983255E+03  0.00000000000E+00 0. -1.
         21    1    1    2  502  501  0.17101022306E+03 -0.31477070067E+02 -0.37094314090E+02  0.17779564244E+03  0.00000000000E+00 0.  1.
<scales pt_clust_5="13000.00000" pt_clust_6="13000.00000" pt_clust_7="13000.00000" pt_clust_8="13000.00000" pt_clust_9="155.62036"></scales>
<clustering>
<clus scale="   84.461">  5  6 -1 -1</clus>
<clus scale="   91.475">  7  8 -1 -1</clus>
<clus scale="  117.390">  2  5  1 -1</clus>
<clus scale="  155.620">  2  9  1 -1</clus>
<clus scale="  117.390">  2  5  1 -1</clus>
</clustering>
</event>
<event>
 9    1  0.2099194E-005  0.2573369E+03  0.7546771E-02  0.1109370E+00
          1   -1    0    0  502    0  0.00000000000E+00  0.00000000000E+00  0.95910344069E+03  0.95910344069E+03  0.00000000000E+00 0. -1.
         -2   -1    0    0    0  501 -0.00000000000E+00 -0.00000000000E+00 -0.28790796058E+03  0.28790796058E+03  0.00000000000E+00 0.  1.
        -24    2    1    2    0    0  0.10491044078E+03  0.21484297324E+03 -0.20140984956E+03  0.32257771381E+03  0.79540871336E+02 0.  0.
         23    2    1    2    0    0 -0.94822666804E+02 -0.24209791569E+03  0.77301209190E+03  0.82068684132E+03  0.91522993674E+02 0.  0.
         13    1    3    3    0    0  0.27700667324E+02  0.34161492347E+02 -0.41831033671E+01  0.44179552775E+02  0.00000000000E+00 0. -1.
        -14    1    3    3    0    0  0.77209773457E+02  0.18068148089E+03 -0.19722674620E+03  0.27839816104E+03  0.00000000000E+00 0.  1.
        -11    1    4    4    0    0 -0.38072501128E+02 -0.87579410963E+02  0.42653514001E+03  0.43709483437E+03  0.00000000000E+00 0.  1.
         11    1    4    4    0    0 -0.56750165676E+02 -0.15451850473E+03  0.34647695188E+03  0.38359200695E+03  0.00000000000E+00 0. -1.
         21    1    1    2  502  501 -0.10087773977E+02  0.27254942450E+02  0.99593237783E+02  0.10374684614E+03  0.00000000000E+00 0. -1.
<scales pt_clust_5="13000.00000" pt_clust_6="13000.00000" pt_clust_7="13000.00000" pt_clust_8="13000.00000" pt_clust_9="29.06192"></scales>
<clustering>
<clus scale="   29.062">  1  9  2 -1</clus>
<clus scale="   79.541">  5  6 -1 -1</clus>
<clus scale="   91.523">  7  8 -1 -1</clus>
<clus scale="  253.323">  2  5  1 -1</clus>
<clus scale="   29.062">  1  5  2 -1</clus>
</clustering>
</event>
<event>
 9    1  0.1973774E-005  0.1702627E+03  0.7546771E-02  0.1179261E+00
         -2   -1    0    0    0  501 -0.00000000000E+00  0.00000000000E+00  0.30551524942E+03  0.30551524942E+03  0.00000000000E+00 0.  1.
          1   -1    0    0  502    0  0.00000000000E+00 -0.00000000000E+00 -0.22400734267E+03  0.22400734267E+03  0.00000000000E+00 0. -1.
        -24    2    1    2    0    0  0.16753131342E+03  0.43201980029E+02  0.15732649490E+03  0.24732167197E+03  0.80518515732E+02 0.  0.
         23    2    1    2    0    0 -0.98452281821E+02 -0.99557277604E+02 -0.92133126255E+02  0.19156981990E+03  0.92768419331E+02 0.  0.
         11    1    3    3    0    0  0.73349373856E+02  0.60284294560E+02  0.83538083763E+02  0.12646318933E+03  0.00000000000E+00 0. -1.
        -12    1    3    3    0    0  0.94181939566E+02 -0.17082314531E+02  0.73788411135E+02  0.12085848265E+03  0.00000000000E+00 0.  1.
        -13    1    4    4    0    0 -0.37528796408E+02 -0.43515783293E+02  0.11838150637E+02  0.58670058513E+02  0.00000000000E+00 0.  1.
         13    1    4    4    0    0 -0.60923485413E+02 -0.56041494311E+02 -0.10397127689E+03  0.13289976139E+03  0.00000000000E+00 0. -1.
         21    1    1    2  502  501 -0.69079031601E+02  0.56355297575E+02  0.16314538112E+02  0.90631100211E+02  0.00000000000E+00 0. -1.
<scales pt_clust_5="13000.00000" pt_clust_6="13000.00000" pt_clust_7="13000.00000" pt_clust_8="13000.00000" pt_clust_9="89.15062"></scales>
<clustering>
<clus scale="   80.519">  5  6 -1 -1</clus>
<clus scale="   89.151">  1  9  2 -1</clus>
<clus scale="   92.768">  7  8 -1 -1</clus>
<clus scale="  163.910">  1  5  2 -1</clus>
<clus scale="  170.263">  2  5  1 -1</clus>
</clustering>
</event>
<event>
 9    1  0.1973774E-005  0.1192121E+03  0.7546771E-02  0.1248770E+00
         -2   -1    0    0    0  501 -0.00000000000E+00  0.00000000000E+00  0.88568046212E+02  0.88568046212E+02  0.00000000000E+00 0.  1.
          1   -1    0    0  502    0  0.00000000000E+00 -0.00000000000E+00 -0.23891599945E+03  0.23891599945E+03  0.00000000000E+00 0. -1.
         23    2    1    2    0    0 -0.52202399664E+02  0.39449394664E+02  0.93106579654E+01  0.11270711054E+03  0.91295449746E+02 0.  0.
        -24    2    1    2    0    0  0.51407202995E+02 -0.61779444947E+02 -0.15628944788E+03  0.19218014896E+03  0.77765145144E+02 0.  0.
         13    1    4    4    0    0  0.42092281827E+02 -0.78993519410E+02 -0.14234439314E+03  0.16814774027E+03  0.00000000000E+00 0. -1.
        -14    1    4    4    0    0  0.93149211680E+01  0.17214074463E+02 -0.13945054732E+02  0.24032408691E+02  0.00000000000E+00 0.  1.
        -13    1    3    3    0    0 -0.14417543393E+01  0.52772727758E+02  0.24317160230E+02  0.58123693381E+02  0.00000000000E+00 0.  1.
         13    1    3    3    0    0 -0.50760645325E+02 -0.13323333093E+02 -0.15006502265E+02  0.54583417159E+02  0.00000000000E+00 0. -1.
         21    1    1    2  502  501  0.79519666947E+00  0.22330050282E+02 -0.33691633269E+01  0.22596786163E+02  0.00000000000E+00 0.  1.
<scales pt_clust_5="13000.00000" pt_clust_6="13000.00000" pt_clust_7="13000.00000" pt_clust_8="13000.00000" pt_clust_9="22.34420"></scales>
<clustering>
<clus scale="   22.344">  1  9  2 -1</clus>
<clus scale="   77.765">  5  6 -1 -1</clus>
<clus scale="   91.295">  7  8 -1 -1</clus>
<clus scale="  109.197">  2  5  1 -1</clus>
<clus scale="  109.197">  2  5  1 -1</clus>
</clustering>
</event>
<event>
 9    1  0.1973774E-005  0.3166743E+03  0.7546771E-02  0.1100960E+00
          1   -1    0    0  502    0  0.00000000000E+00  0.00000000000E+00  0.34355117826E+03  0.34355117826E+03  0.00000000000E+00 0. -1.
         -2   -1    0    0    0  501 -0.00000000000E+00 -0.00000000000E+00 -0.97830151979E+03  0.97830151979E+03  0.00000000000E+00 0.  1.
        -24    2    1    2    0    0 -0.16223539886E+03 -0.28380728620E+03 -0.84113470036E+03  0.90605129276E+03  0.80959623401E+02 0.  0.
         23    2    1    2    0    0  0.89990975175E+02  0.10957170085E+03  0.68275908045E+02  0.18202535832E+03  0.91472937043E+02 0.  0.
         11    1    3    3    0    0  0.30354330806E+01 -0.24200494866E+02 -0.11209188941E+03  0.11471473086E+03  0.00000000000E+00 0. -1.
        -12    1    3    3    0    0 -0.16527083194E+03 -0.25960679134E+03 -0.72904281095E+03  0.79133656190E+03  0.00000000000E+00 0.  1.
        -13    1    4    4    0    0 -0.17181178984E+02  0.24174371077E+02  0.17861803540E+01  0.29711673943E+02  0.00000000000E+00 0.  1.
         13    1    4    4    0    0  0.10717215416E+03  0.85397329771E+02  0.66489727691E+02  0.15231368437E+03  0.00000000000E+00 0. -1.
         21    1    1    2  502  501  0.72244423682E+02  0.17423558536E+03  0.13810845079E+03  0.23377604697E+03  0.00000000000E+00 0. -1.
<scales pt_clust_5="13000.00000" pt_clust_6="13000.00000" pt_clust_7="13000.00000" pt_clust_8="13000.00000" pt_clust_9="306.15053"></scales>
<clustering>
<clus scale="   80.960">  5  6 -1 -1</clus>
<clus scale="   91.473">  7  8 -1 -1</clus>
<clus scale="  168.735">  1  7  2 -1</clus>
<clus scale="  306.151">  1  9  2 -1</clus>
<clus scale="  168.735">  1  5  2 -1</clus>
</clustering>
</event>
<event>
 9    1  0.1973774E-005  0.1053424E+03  0.7546771E-02  0.1270461E+00
         -2   -1    0    0    0  501 -0.00000000000E+00  0.00000000000E+00  0.15351626980E+03  0.15351626980E+03  0.00000000000E+00 0.  1.
          1   -1    0    0  502    0  0.00000000000E+00 -0.00000000000E+00 -0.35776339246E+03  0.35776339246E+03  0.00000000000E+00 0. -1.
         23    2    1    2    0    0 -0.64152797880E+02 -0.10904684607E+02  0.12106328850E+03  0.16086103230E+03  0.83579054006E+02 0.  0.
        -24    2    1    2    0    0  0.49274167050E+02  0.29409603742E+02 -0.20470655371E+03  0.22749956666E+03  0.80984019220E+02 0.  0.
         11    1    4    4    0    0  0.51303843333E+02 -0.12913420141E+02 -0.81079004314E+02  0.96812425344E+02  0.00000000000E+00 0. -1.
        -12    1    4    4    0    0 -0.20296762824E+01  0.42323023883E+02 -0.12362754939E+03  0.13068714131E+03  0.00000000000E+00 0.  1.
        -11    1    3    3    0    0 -0.13218526328E+02 -0.40116288176E+02  0.27505485395E+02  0.50404342493E+02  0.00000000000E+00 0. -1.
         11    1    3    3    0    0 -0.50934271551E+02  0.29211603569E+02  0.93557803108E+02  0.11045668981E+03  0.00000000000E+00 0.  1.
         21    1    1    2  502  501  0.14878630830E+02 -0.18504919135E+02 -0.12060385746E+03  0.12291906330E+03  0.00000000000E+00 0. -1.
<scales pt_clust_5="13000.00000" pt_clust_6="13000.00000" pt_clust_7="13000.00000" pt_clust_8="13000.00000" pt_clust_9="23.74459"></scales>
<clustering>
<clus scale="   23.745">  2  9  1 -1</clus>
<clus scale="   80.984">  5  6 -1 -1</clus>
<clus scale="   83.579">  7  8 -1 -1</clus>
<clus scale="  103.296">  2  5  1 -1</clus>
<clus scale="   23.745">  2  5  1 -1</clus>
</clustering>
</event>
<event>
 9    1  0.1973774E-005  0.9491832E+02  0.7546771E-02  0.1298347E+00
         -2   -1    0    0    0  501 -0.00000000000E+00  0.00000000000E+00  0.11942242622E+03  0.11942242622E+03  0.00000000000E+00 0.  1.
          1   -1    0    0  502    0  0.00000000000E+00 -0.00000000000E+00 -0.15485869852E+03  0.15485869852E+03  0.00000000000E+00 0. -1.
        -24    2    1    2    0    0  0.10198703824E+02 -0.68363593069E+01  0.52077038414E+02  0.97265008111E+02  0.81226316577E+02 0.  0.
         23    2    1    2    0    0 -0.17374661603E+02  0.50795180290E+02 -0.74082437266E+02  0.13049450150E+03  0.93051481477E+02 0.  0.
         13    1    3    3    0    0 -0.16620278101E+02  0.15041157934E+02 -0.11262550042E+02  0.25086153743E+02  0.00000000000E+00 0. -1.
        -14    1    3    3    0    0  0.26818981925E+02 -0.21877517241E+02  0.63339588457E+02  0.72178854369E+02  0.00000000000E+00 0.  1.
        -11    1    4    4    0    0 -0.76185026616E+01  0.75349251935E+02 -0.35272586512E+02  0.83544639022E+02  0.00000000000E+00 0. -1.
         11    1    4    4    0    0 -0.97561589411E+01 -0.24554071645E+02 -0.38809850754E+02  0.46949862483E+02  0.00000000000E+00 0.  1.
         21    1    1    2  502  501  0.71759577788E+01 -0.43958820983E+02 -0.13430873451E+02  0.46521615126E+02  0.00000000000E+00 0. -1.
<scales pt_clust_5="13000.00000" pt_clust_6="13000.00000" pt_clust_7="13000.00000" pt_clust_8="13000.00000" pt_clust_9="44.54068"></scales>
<clustering>
<clus scale="   44.541">  2  9  1 -1</clus>
<clus scale="   81.226">  5  6 -1 -1</clus>
<clus scale="   83.358">  1  5  2 -1</clus>
<clus scale="   93.051">  7  8 -1 -1</clus>
<clus scale="   44.541">  2  5  1 -1</clus>
</clustering>
</event>
<event>
 9    1  0.1973774E-005  0.1118243E+03  0.7546771E-02  0.1262478E+00
          1   -1    0    0  502    0  0.00000000000E+00  0.00000000000E+00  0.13990388587E+03  0.13990388587E+03  0.00000000000E+00 0. -1.
         -2   -1    0    0    0  501 -0.00000000000E+00 -0.00000000000E+00 -0.17276775396E+03  0.17276775396E+03  0.00000000000E+00 0.  1.
        -24    2    1    2    0    0  0.83217499465E+01 -0.33830952365E+02 -0.99805057983E+02  0.14045352592E+03  0.92478962391E+02 0.  0.
         23    2    1    2    0    0 -0.60340534925E+01  0.67087249594E+02  0.61005789025E+02  0.13835893725E+03  0.10432823377E+03 0.  0.
         11    1    3    3    0    0  0.33396605256E+02  0.71032257601E+01 -0.54317033767E+01  0.34573001900E+02  0.00000000000E+00 0. -1.
        -12    1    3    3    0    0 -0.25074855310E+02 -0.40934178125E+02 -0.94373354606E+02  0.10588052402E+03  0.00000000000E+00 0.  1.
        -11    1    4    4    0    0  0.62550533515E+01  0.34859521311E+02  0.87805957745E+02  0.94679449375E+02  0.00000000000E+00 0. -1.
         11    1    4    4    0    0 -0.12289106844E+02  0.32227728283E+02 -0.26800168721E+02  0.43679487872E+02  0.00000000000E+00 0.  1.
         21    1    1    2  502  501 -0.22876964540E+01 -0.33256297229E+02  0.59354008687E+01  0.33859176657E+02  0.00000000000E+00 0. -1.
<scales pt_clust_5="13000.00000" pt_clust_6="13000.00000" pt_clust_7="13000.00000" pt_clust_8="13000.00000" pt_clust_9="33.33489"></scales>
<clustering>
<clus scale="   33.335">  1  9  2 -1</clus>
<clus scale="   92.479">  5  6 -1 -1</clus>
<clus scale="  100.860">  2  5  1 -1</clus>
<clus scale="  104.328">  7  8 -1 -1</clus>
<clus scale="   33.335">  1  5  2 -1</clus>
</clustering>
</event>
<event>
 9    1  0.1973774E-005  0.1026426E+03  0.7546771E-02  0.1278951E+00
          1   -1    0    0  502    0  0.00000000000E+00  0.00000000000E+00  0.28191519965E+03  0.28191519965E+03  0.00000000000E+00 0. -1.
         -2   -1    0    0    0  501 -0.00000000000E+00 -0.00000000000E+00 -0.36768425769E+03  0.36768425769E+03  0.00000000000E+00 0.  1.
         23    2    1    2    0    0 -0.20652862379E+02  0.34572823679E+02 -0.28859936620E+03  0.30535535304E+03  0.91271444588E+02 0.  0.
        -24    2    1    2    0    0  0.32124711278E+02 -0.90927967719E+02 -0.66212153625E+01  0.12704040661E+03  0.82435017025E+02 0.  0.
         13    1    4    4    0    0  0.45675133878E+02 -0.13789325411E+02  0.45510131342E+01  0.47927811035E+02  0.00000000000E+00 0. -1.
        -14    1    4    4    0    0 -0.13550422601E+02 -0.77138642308E+02 -0.11172228497E+02  0.79112595580E+02  0.00000000000E+00 0.  1.
        -11    1    3    3    0    0 -0.53599890146E+02  0.14474838767E+02 -0.21730624447E+03  0.22428658691E+03  0.00000000000E+00 0.  1.
         11    1    3    3    0    0  0.32947027766E+02  0.20097984912E+02 -0.71293121732E+02  0.81068766134E+02  0.00000000000E+00 0. -1.
         21    1    1    2  502  501 -0.11471848898E+02  0.56355144040E+02  0.20945152353E+03  0.21720369768E+03  0.00000000000E+00 0.  1.
<scales pt_clust_5="13000.00000" pt_clust_6="13000.00000" pt_clust_7="13000.00000" pt_clust_8="13000.00000" pt_clust_9="57.51092"></scales>
<clustering>
<clus scale="   57.511">  1  9  2 -1</clus>
<clus scale="   82.435">  5  6 -1 -1</clus>
<clus scale="   91.271">  7  8 -1 -1</clus>
<clus scale="   94.871">  1  5  2 -1</clus>
<clus scale="   57.511">  1  5  2 -1</clus>
</clustering>
</event>
<event>
 9    1  0.1973774E-005  0.1245582E+03  0.7546771E-02  0.1241560E+00
          3   -1    0    0  502    0  0.00000000000E+00  0.00000000000E+00  0.24663758495E+03  0.24663758495E+03  0.00000000000E+00 0. -1.
         -4   -1    0    0    0  501 -0.00000000000E+00 -0.00000000000E+00 -0.21165517243E+03  0.21165517243E+03  0.00000000000E+00 0.  1.
        -24    2    1    2    0    0 -0.44395620216E+02 -0.39032668503E+02 -0.15431669888E+03  0.19685218326E+03  0.10697017432E+03 0.  0.
         23    2    1    2    0    0  0.86232263469E+02  0.53327556199E+02  0.13682445935E+03  0.19282397524E+03  0.90445128341E+02 0.  0.
         11    1    3    3    0    0 -0.42593053330E+02 -0.14830223872E+02 -0.47740916955E+01  0.45353011847E+02  0.00000000000E+00 0. -1.
        -12    1    3    3    0    0 -0.18025668852E+01 -0.24202444630E+02 -0.14954260719E+03  0.15149917141E+03  0.00000000000E+00 0.  1.
        -13    1    4    4    0    0  0.64384370748E+02  0.68415601812E+02  0.13718490112E+03  0.16627007807E+03  0.00000000000E+00 0. -1.
         13    1    4    4    0    0  0.21847892720E+02 -0.15088045613E+02 -0.36044176973E+00  0.26553897172E+02  0.00000000000E+00 0.  1.
         21    1    1    2  502  501 -0.41836643253E+02 -0.14294887696E+02  0.52474652056E+02  0.68616598876E+02  0.00000000000E+00 0. -1.
<scales pt_clust_5="13000.00000" pt_clust_6="13000.00000" pt_clust_7="13000.00000" pt_clust_8="13000.00000" pt_clust_9="44.21141"></scales>
<clustering>
<clus scale="   44.211">  1  9  2 -1</clus>
<clus scale="   90.445">  7  8 -1 -1</clus>
<clus scale="  106.970">  5  6 -1 -1</clus>
<clus scale="  110.691">  1  7  2 -1</clus>
<clus scale="   44.211">  1  5  2 -1</clus>
</clustering>
</event>
<event>
 9    1  0.1973774E-005  0.9290620E+02  0.7546771E-02  0.1302407E+00
          1   -1    0    0  502    0  0.00000000000E+00  0.00000000000E+00  0.24691831027E+03  0.24691831027E+03  0.00000000000E+00 0. -1.
         -2   -1    0    0    0  501 -0.00000000000E+00 -0.00000000000E+00 -0.66797312103E+02  0.66797312103E+02  0.00000000000E+00 0.  1.
         23    2    1    2    0    0  0.99086642881E+01  0.16108594733E+02 -0.29671315992E+01  0.92899204082E+02  0.90905389262E+02 0.  0.
        -24    2    1    2    0    0  0.87209834552E+01 -0.24541945266E+02  0.81846693404E+02  0.11753034172E+03  0.80225540662E+02 0.  0.
         11    1    4    4    0    0 -0.35219134543E+02 -0.12068271251E+02  0.26130770384E+02  0.45484588267E+02  0.00000000000E+00 0. -1.
        -12    1    4    4    0    0  0.43940117998E+02 -0.12473674016E+02  0.55715923020E+02  0.72045753456E+02  0.00000000000E+00 0.  1.
        -11    1    3    3    0    0 -0.39259989108E+02  0.14213958702E+02  0.79340509465E+01  0.42500970944E+02  0.00000000000E+00 0. -1.
         11    1    3    3    0    0  0.49168653396E+02  0.18946360306E+01 -0.10901182546E+02  0.50398233138E+02  0.00000000000E+00 0.  1.
         21    1    1    2  502  501 -0.18629647743E+02  0.84333505335E+01  0.10124143636E+03  0.10328607657E+03  0.00000000000E+00 0. -1.
<scales pt_clust_5="13000.00000" pt_clust_6="13000.00000" pt_clust_7="13000.00000" pt_clust_8="13000.00000" pt_clust_9="20.44958"></scales>
<clustering>
<clus scale="   20.450">  1  9  2 -1</clus>
<clus scale="   80.226">  5  6 -1 -1</clus>
<clus scale="   82.486">  1  5  2 -1</clus>
<clus scale="   90.905">  7  8 -1 -1</clus>
<clus scale="   20.450">  1  5  2 -1</clus>
</clustering>
</event>
<event>
 9    1  0.1973774E-005  0.1203367E+03  0.7546771E-02  0.1246172E+00
          1   -1    0    0  502    0  0.00000000000E+00  0.00000000000E+00  0.39758985680E+03  0.39758985680E+03  0.00000000000E+00 0. -1.
         -2   -1    0    0    0  501 -0.00000000000E+00 -0.00000000000E+00 -0.56937657688E+02  0.56937657688E+02  0.00000000000E+00 0.  1.
        -24    2    1    2    0    0  0.56875816167E+02  0.66461276998E+02  0.53142450284E+02  0.12986057898E+03  0.79923026382E+02 0.  0.
         23    2    1    2    0    0 -0.30231049018E+02 -0.52896820338E+02  0.16267601442E+03  0.19630261279E+03  0.91428880522E+02 0.  0.
         11    1    3    3    0    0  0.38705503849E+02  0.46525232740E+02  0.74119961320E+02  0.95689508180E+02  0.00000000000E+00 0. -1.
        -12    1    3    3    0    0  0.18170312318E+02  0.19936044258E+02 -0.20977511036E+02  0.34171070800E+02  0.00000000000E+00 0.  1.
        -11    1    4    4    0    0  0.22233475486E+02  0.17720530776E+01  0.73551863268E+01  0.23485450181E+02  0.00000000000E+00 0.  1.
         11    1    4    4    0    0 -0.52464524504E+02 -0.54668873415E+02  0.15532082810E+03  0.17281716261E+03  0.00000000000E+00 0. -1.
         21    1    1    2  502  501 -0.26644767149E+02 -0.13564456661E+02  0.12483373440E+03  0.12836432271E+03  0.00000000000E+00 0. -1.
<scales pt_clust_5="13000.00000" pt_clust_6="13000.00000" pt_clust_7="13000.00000" pt_clust_8="13000.00000" pt_clust_9="29.89880"></scales>
<clustering>
<clus scale="   29.899">  1  9  2 -1</clus>
<clus scale="   79.923">  5  6 -1 -1</clus>
<clus scale="   91.429">  7  8 -1 -1</clus>
<clus scale="  111.845">  2  5  1 -1</clus>
<clus scale="   29.899">  1  5  2 -1</clus>
</clustering>
</event>
<event>
 9    1  0.1973774E-005  0.1984943E+03  0.7546771E-02  0.1152075E+00
         -2   -1    0    0    0  501 -0.00000000000E+00  0.00000000000E+00  0.69875559365E+02  0.69875559365E+02  0.00000000000E+00 0.  1.
          1   -1    0    0  502    0  0.00000000000E+00 -0.00000000000E+00 -0.97866049527E+03  0.97866049527E+03  0.00000000000E+00 0. -1.
        -24    2    1    2    0    0 -0.79313646134E+02 -0.14044419239E+03 -0.11923443971E+03  0.21634733456E+03  0.81080774054E+02 0.  0.
         23    2    1    2    0    0  0.44930946924E+02  0.17569991548E+03 -0.71051591423E+03  0.73906728773E+03  0.92186447577E+02 0.  0.
         11    1    3    3    0    0 -0.19699424116E+02  0.64614007836E+01 -0.62057143974E+01  0.21640884959E+02  0.00000000000E+00 0. -1.
        -12    1    3    3    0    0 -0.59614222018E+02 -0.14690559317E+03 -0.11302872531E+03  0.19470644961E+03  0.00000000000E+00 0.  1.
        -13    1    4    4    0    0  0.22849522556E+02  0.11626806146E+03 -0.60059634065E+03  0.61217344536E+03  0.00000000000E+00 0. -1.
         13    1    4    4    0    0  0.22081424367E+02  0.59431854026E+02 -0.10991957358E+03  0.12689384237E+03  0.00000000000E+00 0.  1.
         21    1    1    2  502  501  0.34382699211E+02 -0.35255723090E+02 -0.79034581968E+02  0.93121432348E+02  0.00000000000E+00 0.  1.
<scales pt_clust_5="13000.00000" pt_clust_6="13000.00000" pt_clust_7="13000.00000" pt_clust_8="13000.00000" pt_clust_9="49.24567"></scales>
<clustering>
<clus scale="   49.246">  1  9  2 -1</clus>
<clus scale="   81.081">  5  6 -1 -1</clus>
<clus scale="   92.186">  7  8 -1 -1</clus>
<clus scale="  193.586">  1  5  2 -1</clus>
<clus scale="  198.494">  2  5  1 -1</clus>
</clustering>
</event>
<event>
 9    1  0.1973774E-005  0.9971777E+02  0.7546771E-02  0.1285619E+00
          1   -1    0    0  502    0  0.00000000000E+00  0.00000000000E+00  0.48293376596E+03  0.48293376596E+03  0.00000000000E+00 0. -1.
         -2   -1    0    0    0  501 -0.00000000000E+00 -0.00000000000E+00 -0.13622831966E+03  0.13622831966E+03  0.00000000000E+00 0.  1.
         23    2    1    2    0    0 -0.12053652544E+02  0.40076076370E+02 -0.98725794355E+02  0.13981372823E+03  0.89720196693E+02 0.  0.
        -24    2    1    2    0    0  0.41519830477E+02 -0.68189658258E+02  0.41016614602E+03  0.42547576669E+03  0.80122624040E+02 0.  0.
         11    1    4    4    0    0  0.61140497167E+02 -0.62298246970E+02  0.37258913403E+03  0.38267727235E+03  0.00000000000E+00 0. -1.
        -12    1    4    4    0    0 -0.19620666691E+02 -0.58914112876E+01  0.37577011986E+02  0.42798494345E+02  0.00000000000E+00 0.  1.
        -13    1    3    3    0    0  0.13159766039E+02  0.54695266023E+02 -0.95033006108E+02  0.11043560937E+03  0.00000000000E+00 0.  1.
         13    1    3    3    0    0 -0.25213418583E+02 -0.14619189653E+02 -0.36927882470E+01  0.29378118861E+02  0.00000000000E+00 0. -1.
         21    1    1    2  502  501 -0.29466177933E+02  0.28113581888E+02  0.35265094632E+02  0.53872590693E+02  0.00000000000E+00 0.  1.
<scales pt_clust_5="13000.00000" pt_clust_6="13000.00000" pt_clust_7="13000.00000" pt_clust_8="13000.00000" pt_clust_9="40.72627"></scales>
<clustering>
<clus scale="   40.726">  1  9  2 -1</clus>
<clus scale="   80.123">  5  6 -1 -1</clus>
<clus scale="   89.720">  7  8 -1 -1</clus>
<clus scale="   91.179">  1  5  2 -1</clus>
<clus scale="   40.726">  1  5  2 -1</clus>
</clustering>
</event>
<event>
 9    1  0.1973774E-005  0.1509071E+03  0.7546771E-02  0.1215244E+00
          1   -1    0    0  502    0  0.00000000000E+00  0.00000000000E+00  0.67057787478E+03  0.67057787478E+03  0.00000000000E+00 0. -1.
         -2   -1    0    0    0  501 -0.00000000000E+00 -0.00000000000E+00 -0.24321705496E+03  0.24321705496E+03  0.00000000000E+00 0.  1.
         23    2    1    2    0    0 -0.20324173887E+02  0.35940877932E+02 -0.19107663334E+03  0.21916083774E+03  0.99077617254E+02 0.  0.
        -24    2    1    2    0    0 -0.51354146678E+02 -0.12608374981E+03  0.51953217868E+03  0.54282575129E+03  0.78814663829E+02 0.  0.
         13    1    4    4    0    0 -0.44669562653E+02 -0.78724111475E+02  0.44610385872E+03  0.45519392386E+03  0.00000000000E+00 0. -1.
        -14    1    4    4    0    0 -0.66845840249E+01 -0.47359638330E+02  0.73428319953E+02  0.87631827423E+02  0.00000000000E+00 0.  1.
        -11    1    3    3    0    0  0.12269478928E+02 -0.27560131443E+02 -0.28050358724E+02  0.41193732325E+02  0.00000000000E+00 0. -1.
         11    1    3    3    0    0 -0.32593652815E+02  0.63501009375E+02 -0.16302627462E+03  0.17796710542E+03  0.00000000000E+00 0.  1.
         21    1    1    2  502  501  0.71678320564E+02  0.90142871873E+02  0.98905274483E+02  0.15180834071E+03  0.00000000000E+00 0. -1.
<scales pt_clust_5="13000.00000" pt_clust_6="13000.00000" pt_clust_7="13000.00000" pt_clust_8="13000.00000" pt_clust_9="128.69033"></scales>
<clustering>
<clus scale="   78.815">  5  6 -1 -1</clus>
<clus scale="   99.078">  7  8 -1 -1</clus>
<clus scale="  107.337">  2  7  1 -1</clus>
<clus scale="  128.690">  2  9  1 -1</clus>
<clus scale="  150.907">  1  5  2 -1</clus>
</clustering>
</event>
<event>
 9    1  0.1973774E-005  0.9789977E+02  0.7546771E-02  0.1289626E+00
         -4   -1    0    0    0  501 -0.00000000000E+00  0.00000000000E+00  0.56825361116E+02  0.56825361116E+02  0.00000000000E+00 0.  1.
          3   -1    0    0  502    0  0.00000000000E+00 -0.00000000000E+00 -0.40184988146E+03  0.40184988146E+03  0.00000000000E+00 0. -1.
         23    2    1    2    0    0 -0.25591632744E+02 -0.30679621845E+02 -0.20169929053E+01  0.98778841893E+02  0.90316224911E+02 0.  0.
        -24    2    1    2    0    0  0.46047851664E+01  0.30196648580E+02 -0.25031170494E+03  0.26485327077E+03  0.80983107972E+02 0.  0.
         11    1    4    4    0    0 -0.36827721044E+02  0.10125913949E+02 -0.14444828613E+03  0.14941259162E+03  0.00000000000E+00 0. -1.
        -12    1    4    4    0    0  0.41432506210E+02  0.20070734631E+02 -0.10586341881E+03  0.11544067915E+03  0.00000000000E+00 0.  1.
        -11    1    3    3    0    0  0.64626864859E+01  0.27119689910E+02 -0.14643503608E+02  0.31490889084E+02  0.00000000000E+00 0. -1.
         11    1    3    3    0    0 -0.32054319230E+02 -0.57799311755E+02  0.12626510702E+02  0.67287952809E+02  0.00000000000E+00 0.  1.
         21    1    1    2  502  501  0.20986847578E+02  0.48297326585E+00 -0.92695822493E+02  0.95043129905E+02  0.00000000000E+00 0.  1.
<scales pt_clust_5="13000.00000" pt_clust_6="13000.00000" pt_clust_7="13000.00000" pt_clust_8="13000.00000" pt_clust_9="20.99240"></scales>
<clustering>
<clus scale="   20.992">  2  9  1 -1</clus>
<clus scale="   80.983">  5  6 -1 -1</clus>
<clus scale="   89.362">  2  5  1 -1</clus>
<clus scale="   90.316">  7  8 -1 -1</clus>
<clus scale="   20.992">  2  5  1 -1</clus>
</clustering>
</event>
<event>
 9    1  0.1973774E-005  0.1010971E+03  0.7546771E-02  0.1282870E+00
          1   -1    0    0  502    0  0.00000000000E+00  0.00000000000E+00  0.79702567785E+03  0.79702567785E+03  0.00000000000E+00 0. -1.
         -2   -1    0    0    0  501 -0.00000000000E+00 -0.00000000000E+00 -0.27095702191E+02  0.27095702191E+02  0.00000000000E+00 0.  1.
         23    2    1    2    0    0  0.40734587236E+02  0.85824848642E+01  0.98057516861E+02  0.13968855449E+03  0.90358452837E+02 0.  0.
        -24    2    1    2    0    0 -0.62016503981E+02  0.65182471549E+01  0.46859784391E+03  0.47949009905E+03  0.80238902387E+02 0.  0.
         13    1    4    4    0    0 -0.60877354924E+00 -0.29654777777E+02  0.11357020420E+03  0.11737958823E+03  0.00000000000E+00 0. -1.
        -14    1    4    4    0    0 -0.61407730432E+02  0.36173024932E+02  0.35502763970E+03  0.36211051082E+03  0.00000000000E+00 0.  1.
        -13    1    3    3    0    0 -0.17667801579E+02 -0.22102028255E+02  0.10774232087E+02  0.30277631062E+02  0.00000000000E+00 0. -1.
         13    1    3    3    0    0  0.58402388815E+02  0.30684513119E+02  0.87283284774E+02  0.10941092343E+03  0.00000000000E+00 0.  1.
         21    1    1    2  502  501  0.21281916745E+02 -0.15100732019E+02  0.20327461489E+03  0.20494272651E+03  0.00000000000E+00 0. -1.
<scales pt_clust_5="13000.00000" pt_clust_6="13000.00000" pt_clust_7="13000.00000" pt_clust_8="13000.00000" pt_clust_9="26.09506"></scales>
<clustering>
<clus scale="   26.095">  1  9  2 -1</clus>
<clus scale="   80.239">  5  6 -1 -1</clus>
<clus scale="   90.358">  7  8 -1 -1</clus>
<clus scale="   92.164">  1  5  2 -1</clus>
<clus scale="   26.095">  1  5  2 -1</clus>
</clustering>
</event>
<event>
 9    1  0.1973774E-005  0.1025495E+03  0.7546771E-02  0.1281841E+00
          1   -1    0    0  502    0  0.00000000000E+00  0.00000000000E+00  0.43610489566E+03  0.43610489566E+03  0.00000000000E+00 0. -1.
         -2   -1    0    0    0  501 -0.00000000000E+00 -0.00000000000E+00 -0.76861864590E+02  0.76861864590E+02  0.00000000000E+00 0.  1.
        -24    2    1    2    0    0  0.26115169587E+02  0.37865311327E+02 -0.35354540940E+02  0.96505644087E+02  0.77120761739E+02 0.  0.
         23    2    1    2    0    0 -0.46805526271E+02 -0.30714874733E+02  0.35908690422E+03  0.37474508650E+03  0.91412877980E+02 0.  0.
         11    1    3    3    0    0  0.25414102046E+02 -0.39427208350E+01  0.15993954116E+02  0.30285775517E+02  0.00000000000E+00 0. -1.
        -12    1    3    3    0    0  0.70106754146E+00  0.41808032162E+02 -0.51348495057E+02  0.66219868571E+02  0.00000000000E+00 0.  1.
        -11    1    4    4    0    0 -0.23184083743E+02  0.20493562468E+02  0.39279997983E+02  0.50004060668E+02  0.00000000000E+00 0.  1.
         11    1    4    4    0    0 -0.23621442527E+02 -0.51208437201E+02  0.31980690623E+03  0.32474102584E+03  0.00000000000E+00 0. -1.
         21    1    1    2  502  501  0.20690356684E+02 -0.71504365941E+01  0.35510667795E+02  0.41716029658E+02  0.00000000000E+00 0. -1.
<scales pt_clust_5="13000.00000" pt_clust_6="13000.00000" pt_clust_7="13000.00000" pt_clust_8="13000.00000" pt_clust_9="21.89109"></scales>
<clustering>
<clus scale="   21.891">  1  9  2 -1</clus>
<clus scale="   77.121">  5  6 -1 -1</clus>
<clus scale="   90.043">  2  5  1 -1</clus>
<clus scale="   91.413">  7  8 -1 -1</clus>
<clus scale="   21.891">  1  5  2 -1</clus>
</clustering>
</event>
<event>
 9    1  0.1973774E-005  0.1043453E+03  0.7546771E-02  0.1275997E+00
         -4   -1    0    0    0  501 -0.00000000000E+00  0.00000000000E+00  0.74375064512E+03  0.74375064512E+03  0.00000000000E+00 0.  1.
          3   -1    0    0  502    0  0.00000000000E+00 -0.00000000000E+00 -0.51804368601E+02  0.51804368601E+02  0.00000000000E+00 0. -1.
        -24    2    1    2    0    0  0.36255920199E+02  0.39661816587E+02  0.64111101131E+03  0.64848072160E+03  0.81341047590E+02 0.  0.
         23    2    1    2    0    0 -0.29491713302E+02 -0.16159583479E+01  0.50084033257E+02  0.10842450333E+03  0.91515518142E+02 0.  0.
         13    1    3    3    0    0  0.18664091710E+02  0.63537543786E+02  0.38441750412E+03  0.39007971655E+03  0.00000000000E+00 0. -1.
        -14    1    3    3    0    0  0.17591828489E+02 -0.23875727199E+02  0.25669350719E+03  0.25840100506E+03  0.00000000000E+00 0.  1.
        -11    1    4    4    0    0 -0.62732750122E+02 -0.37161742954E+01  0.33602641534E+02  0.71262510532E+02  0.00000000000E+00 0. -1.
         11    1    4    4    0    0  0.33241036819E+02  0.21002159475E+01  0.16481391723E+02  0.37161992802E+02  0.00000000000E+00 0.  1.
         21    1    1    2  502  501 -0.67642068972E+01 -0.38045858239E+02  0.75123195765E+00  0.38649788790E+02  0.00000000000E+00 0.  1.
<scales pt_clust_5="13000.00000" pt_clust_6="13000.00000" pt_clust_7="13000.00000" pt_clust_8="13000.00000" pt_clust_9="38.64249"></scales>
<clustering>
<clus scale="   38.642">  2  9  1 -1</clus>
<clus scale="   81.341">  5  6 -1 -1</clus>
<clus scale="   91.516">  7  8 -1 -1</clus>
<clus scale="   95.547">  1  5  2 -1</clus>
<clus scale="   38.642">  2  5  1 -1</clus>
</clustering>
</event>
<event>
 9    1  0.1973774E-005  0.9264180E+02  0.7546771E-02  0.1305028E+00
         -2   -1    0    0    0  501 -0.00000000000E+00  0.00000000000E+00  0.50710529128E+03  0.50710529128E+03  0.00000000000E+00 0.  1.
          1   -1    0    0  502    0  0.00000000000E+00 -0.00000000000E+00 -0.32801017513E+02  0.32801017513E+02  0.00000000000E+00 0. -1.
        -24    2    1    2    0    0  0.52694945192E+01 -0.19487822022E+01  0.38006081981E+03  0.38826273338E+03  0.79184329611E+02 0.  0.
         23    2    1    2    0    0  0.34682150356E+01 -0.19644401027E+02  0.82404358030E+02  0.12551356732E+03  0.92548616157E+02 0.  0.
         11    1    3    3    0    0 -0.30030941180E+02 -0.19831400063E+02  0.12240138125E+03  0.12758228713E+03  0.00000000000E+00 0. -1.
        -12    1    3    3    0    0  0.35300435699E+02  0.17882617861E+02  0.25765943855E+03  0.26068044625E+03  0.00000000000E+00 0.  1.
        -11    1    4    4    0    0  0.33280200523E+02  0.23585498768E+02  0.25614465692E+02  0.48165842168E+02  0.00000000000E+00 0.  1.
         11    1    4    4    0    0 -0.29811985488E+02 -0.43229899795E+02  0.56789892337E+02  0.77347725155E+02  0.00000000000E+00 0. -1.
         21    1    1    2  502  501 -0.87377095548E+01  0.21593183229E+02  0.11839095929E+02  0.26130008087E+02  0.00000000000E+00 0. -1.
<scales pt_clust_5="13000.00000" pt_clust_6="13000.00000" pt_clust_7="13000.00000" pt_clust_8="13000.00000" pt_clust_9="23.29406"></scales>
<clustering>
<clus scale="   23.294">  2  9  1 -1</clus>
<clus scale="   79.184">  5  6 -1 -1</clus>
<clus scale="   79.293">  1  5  2 -1</clus>
<clus scale="   92.549">  7  8 -1 -1</clus>
<clus scale="   23.294">  2  5  1 -1</clus>
</clustering>
</event>
<event>
 9    1  0.1973774E-005  0.1030566E+03  0.7546771E-02  0.1278339E+00
         -2   -1    0    0    0  501 -0.00000000000E+00  0.00000000000E+00  0.65155965237E+02  0.65155965237E+02  0.00000000000E+00 0.  1.
          1   -1    0    0  502    0  0.00000000000E+00 -0.00000000000E+00 -0.30439000892E+03  0.30439000892E+03  0.00000000000E+00 0. -1.
        -24    2    1    2    0    0  0.46217692462E+02  0.41493586490E+02 -0.22668128813E+02  0.10387204501E+03  0.80110953402E+02 0.  0.
         23    2    1    2    0    0 -0.15416421019E+02 -0.30559244370E+02 -0.79149024991E+02  0.12442351398E+03  0.89694532834E+02 0.  0.
         13    1    3    3    0    0  0.65600858924E+01  0.57842766650E+02 -0.93720763871E+01  0.58963176614E+02  0.00000000000E+00 0. -1.
        -14    1    3    3    0    0  0.39657606570E+02 -0.16349180160E+02 -0.13296052426E+02  0.44908868399E+02  0.00000000000E+00 0.  1.
        -13    1    4    4    0    0  0.14890743658E+02  0.22840913029E+02 -0.42856726640E+01  0.27600879422E+02  0.00000000000E+00 0.  1.
         13    1    4    4    0    0 -0.30307164677E+02 -0.53400157399E+02 -0.74863352327E+02  0.96822634557E+02  0.00000000000E+00 0. -1.
         21    1    1    2  502  501 -0.30801271443E+02 -0.10934342119E+02 -0.13741688988E+03  0.14125041517E+03  0.00000000000E+00 0. -1.
<scales pt_clust_5="13000.00000" pt_clust_6="13000.00000" pt_clust_7="13000.00000" pt_clust_8="13000.00000" pt_clust_9="32.68452"></scales>
<clustering>
<clus scale="   32.685">  2  9  1 -1</clus>
<clus scale="   80.111">  5  6 -1 -1</clus>
<clus scale="   89.695">  7  8 -1 -1</clus>
<clus scale="   94.833">  1  5  2 -1</clus>
<clus scale="   32.685">  2  5  1 -1</clus>
</clustering>
</event>
<event>
 9    1  0.1973774E-005  0.1094374E+03  0.7546771E-02  0.1265988E+00
          1   -1    0    0  502    0  0.00000000000E+00  0.00000000000E+00  0.89727043204E+02  0.89727043204E+02  0.00000000000E+00 0. -1.
         -2   -1    0    0    0  501 -0.00000000000E+00 -0.00000000000E+00 -0.50058753503E+03  0.50058753503E+03  0.00000000000E+00 0.  1.
        -24    2    1    2    0    0  0.51888491313E+02  0.26575223713E+02 -0.42295629970E+03  0.43444376150E+03  0.80316202631E+02 0.  0.
         23    2    1    2    0    0 -0.66639750101E+02 -0.47108501127E+02 -0.92401188656E+01  0.12278854221E+03  0.91277484247E+02 0.  0.
         13    1    3    3    0    0  0.21168093301E+02 -0.14698782288E+02 -0.37101775537E+02  0.45173931893E+02  0.00000000000E+00 0. -1.
        -14    1    3    3    0    0  0.30720398012E+02  0.41274006001E+02 -0.38585452416E+03  0.38926982961E+03  0.00000000000E+00 0.  1.
        -13    1    4    4    0    0 -0.35770929519E+02 -0.73532193128E+02 -0.47810746823E+01  0.81910936388E+02  0.00000000000E+00 0. -1.
         13    1    4    4    0    0 -0.30868820582E+02  0.26423692001E+02 -0.44590441833E+01  0.40877605826E+02  0.00000000000E+00 0.  1.
         21    1    1    2  502  501  0.14751258788E+02  0.20533277414E+02  0.21335926743E+02  0.33082274516E+02  0.00000000000E+00 0.  1.
<scales pt_clust_5="13000.00000" pt_clust_6="13000.00000" pt_clust_7="13000.00000" pt_clust_8="13000.00000" pt_clust_9="25.28270"></scales>
<clustering>
<clus scale="   25.283">  1  9  2 -1</clus>
<clus scale="   80.316">  5  6 -1 -1</clus>
<clus scale="   91.277">  7  8 -1 -1</clus>
<clus scale="  100.477">  2  5  1 -1</clus>
<clus scale="   25.283">  1  5  2 -1</clus>
</clustering>
</event>
<event>
 9    1  0.1973774E-005  0.9791024E+02  0.7546771E-02  0.1292025E+00
          1   -1    0    0  502    0  0.00000000000E+00  0.00000000000E+00  0.23907722083E+03  0.23907722083E+03  0.00000000000E+00 0. -1.
         -2   -1    0    0    0  501 -0.00000000000E+00 -0.00000000000E+00 -0.56230324686E+02  0.56230324686E+02  0.00000000000E+00 0.  1.
        -24    2    1    2    0    0 -0.30038824077E+01  0.45222027144E+02  0.34013851683E+02  0.97070549436E+02  0.78814303353E+02 0.  0.
         23    2    1    2    0    0  0.60394347762E+01 -0.76953656789E+01  0.11394578330E+03  0.14690877879E+03  0.92210923041E+02 0.  0.
         11    1    3    3    0    0 -0.19316999267E+02  0.35350311847E+02  0.55349026677E+02  0.68456597654E+02  0.00000000000E+00 0. -1.
        -12    1    3    3    0    0  0.16313116859E+02  0.98717152972E+01 -0.21335174994E+02  0.28613951782E+02  0.00000000000E+00 0.  1.
        -11    1    4    4    0    0  0.27830346239E+02  0.26126625887E+02  0.16694351487E+02  0.41663294680E+02  0.00000000000E+00 0.  1.
         11    1    4    4    0    0 -0.21790911462E+02 -0.33821991566E+02  0.97251431808E+02  0.10524548411E+03  0.00000000000E+00 0. -1.
         21    1    1    2  502  501 -0.30355523686E+01 -0.37526661465E+02  0.34887261164E+02  0.51328217292E+02  0.00000000000E+00 0. -1.
<scales pt_clust_5="13000.00000" pt_clust_6="13000.00000" pt_clust_7="13000.00000" pt_clust_8="13000.00000" pt_clust_9="37.64924"></scales>
<clustering>
<clus scale="   37.649">  1  9  2 -1</clus>
<clus scale="   78.814">  5  6 -1 -1</clus>
<clus scale="   85.412">  2  5  1 -1</clus>
<clus scale="   92.211">  7  8 -1 -1</clus>
<clus scale="   37.649">  1  5  2 -1</clus>
</clustering>
</event>
<event>
 9    1  0.1973774E-005  0.1376588E+03  0.7546771E-02  0.1218407E+00
          1   -1    0    0  502    0  0.00000000000E+00  0.00000000000E+00  0.29655243737E+03  0.29655243737E+03  0.00000000000E+00 0. -1.
         -2   -1    0    0    0  501 -0.00000000000E+00 -0.00000000000E+00 -0.12705765142E+03  0.12705765142E+03  0.00000000000E+00 0.  1.
         23    2    1    2    0    0 -0.10596971164E+03  0.23434347194E+02 -0.60595914392E+02  0.15312379070E+03  0.89421932560E+02 0.  0.
        -24    2    1    2    0    0  0.84505150586E+02 -0.16582881885E+02  0.20618798476E+03  0.23763801397E+03  0.80884041529E+02 0.  0.
         13    1    4    4    0    0  0.96976150553E+02 -0.10185360850E+02  0.14412404030E+03  0.17401107535E+03  0.00000000000E+00 0. -1.
        -14    1    4    4    0    0 -0.12470999967E+02 -0.63975210351E+01  0.62063944461E+02  0.63626938616E+02  0.00000000000E+00 0.  1.
        -11    1    3    3    0    0 -0.71973196583E+02  0.47148468565E+02 -0.69646840943E+02  0.11069689051E+03  0.00000000000E+00 0.  1.
         11    1    3    3    0    0 -0.33996515055E+02 -0.23714121371E+02  0.90509265504E+01  0.42426900190E+02  0.00000000000E+00 0. -1.
         21    1    1    2  502  501  0.21464561051E+02 -0.68514653090E+01  0.23902715576E+02  0.32848284124E+02  0.00000000000E+00 0. -1.
<scales pt_clust_5="13000.00000" pt_clust_6="13000.00000" pt_clust_7="13000.00000" pt_clust_8="13000.00000" pt_clust_9="22.53153"></scales>
<clustering>
<clus scale="   22.532">  1  9  2 -1</clus>
<clus scale="   80.884">  5  6 -1 -1</clus>
<clus scale="   89.422">  7  8 -1 -1</clus>
<clus scale="  132.272">  1  5  2 -1</clus>
<clus scale="   22.532">  1  5  2 -1</clus>
</clustering>
</event>
<event>
 9    1  0.1973774E-005  0.1138452E+03  0.7546771E-02  0.1258294E+00
         -2   -1    0    0    0  501 -0.00000000000E+00  0.00000000000E+00  0.21648595941E+03  0.21648595941E+03  0.00000000000E+00 0.  1.
          1   -1    0    0  502    0  0.00000000000E+00 -0.00000000000E+00 -0.20055029177E+03  0.20055029177E+03  0.00000000000E+00 0. -1.
         23    2    1    2    0    0  0.60062689860E+02  0.31107428830E+02  0.11677474102E+03  0.16413318803E+03  0.93424645738E+02 0.  0.
        -24    2    1    2    0    0 -0.56900247904E+02  0.38879705208E+02 -0.13756029205E+03  0.17380408799E+03  0.80844031092E+02 0.  0.
         11    1    4    4    0    0 -0.64309027673E+02  0.75575053506E+01 -0.54186134682E+02  0.84432837920E+02  0.00000000000E+00 0. -1.
        -12    1    4    4    0    0  0.74087797692E+01  0.31322199858E+02 -0.83374157370E+02  0.89371250068E+02  0.00000000000E+00 0.  1.
        -11    1    3    3    0    0  0.84316115098E+02  0.16268650217E+02  0.96720785342E+02  0.12933981043E+03  0.00000000000E+00 0.  1.
         11    1    3    3    0    0 -0.24253425238E+02  0.14838778613E+02  0.20053955679E+02  0.34793377600E+02  0.00000000000E+00 0. -1.
         21    1    1    2  502  501 -0.31624419564E+01 -0.69987134038E+02  0.36721218676E+02  0.79098975158E+02  0.00000000000E+00 0.  1.
<scales pt_clust_5="13000.00000" pt_clust_6="13000.00000" pt_clust_7="13000.00000" pt_clust_8="13000.00000" pt_clust_9="70.05855"></scales>
<clustering>
<clus scale="   70.059">  1  9  2 -1</clus>
<clus scale="   80.844">  5  6 -1 -1</clus>
<clus scale="   93.425">  7  8 -1 -1</clus>
<clus scale="  103.771">  2  5  1 -1</clus>
<clus scale="  103.771">  2  5  1 -1</clus>
</clustering>
</event>
<event>
 9    1  0.1973774E-005  0.1041619E+03  0.7546771E-02  0.1275829E+00
          1   -1    0    0  502    0  0.00000000000E+00  0.00000000000E+00  0.10096696593E+03  0.10096696593E+03  0.00000000000E+00 0. -1.
         -2   -1    0    0    0  501 -0.00000000000E+00 -0.00000000000E+00 -0.68452697624E+03  0.68452697624E+03  0.00000000000E+00 0.  1.
        -24    2    1    2    0    0  0.29206462107E+02  0.49910254668E+02 -0.60953476219E+03  0.61743593036E+03  0.79689715962E+02 0.  0.
         23    2    1    2    0    0  0.37799150508E+01 -0.28586341274E+02 -0.31290868149E+02  0.98616226137E+02  0.88963896963E+02 0.  0.
         11    1    3    3    0    0  0.24224285734E+02  0.78592205659E+01 -0.48272521780E+02  0.54578564714E+02  0.00000000000E+00 0. -1.
        -12    1    3    3    0    0  0.49821763726E+01  0.42051034102E+02 -0.56126224041E+03  0.56285736564E+03  0.00000000000E+00 0.  1.
        -11    1    4    4    0    0  0.39870699671E+01 -0.58504260464E+02 -0.51139427083E+01  0.58862531625E+02  0.00000000000E+00 0. -1.
         11    1    4    4    0    0 -0.20715491631E+00  0.29917919190E+02 -0.26176925441E+02  0.39753694512E+02  0.00000000000E+00 0.  1.
         21    1    1    2  502  501 -0.32986377158E+02 -0.21323913394E+02  0.57265620033E+02  0.69441785678E+02  0.00000000000E+00 0. -1.
<scales pt_clust_5="13000.00000" pt_clust_6="13000.00000" pt_clust_7="13000.00000" pt_clust_8="13000.00000" pt_clust_9="39.27862"></scales>
<clustering>
<clus scale="   39.279">  1  9  2 -1</clus>
<clus scale="   79.690">  5  6 -1 -1</clus>
<clus scale="   88.964">  7  8 -1 -1</clus>
<clus scale="   96.362">  2  5  1 -1</clus>
<clus scale="   39.279">  1  5  2 -1</clus>
</clustering>
</event>
<event>
 9    1  0.1973774E-005  0.1206156E+03  0.7546771E-02  0.1246414E+00
         -4   -1    0    0    0  501 -0.00000000000E+00  0.00000000000E+00  0.53746460718E+03  0.53746460718E+03  0.00000000000E+00 0.  1.
          3   -1    0    0  502    0  0.00000000000E+00 -0.00000000000E+00 -0.10862230946E+03  0.10862230946E+03  0.00000000000E+00 0. -1.
         23    2    1    2    0    0 -0.59221428397E+02  0.51589249417E+02  0.49144609149E+03  0.50644618856E+03  0.93807530769E+02 0.  0.
        -24    2    1    2    0    0  0.38525677335E+02 -0.32439824067E+02 -0.38010633064E+02  0.10222631701E+03  0.80429109549E+02 0.  0.
         11    1    4    4    0    0  0.32236862240E+02 -0.45648270997E+02 -0.55949943249E+02  0.79078290837E+02  0.00000000000E+00 0. -1.
        -12    1    4    4    0    0  0.62888150953E+01  0.13208446930E+02  0.17939310184E+02  0.23148026169E+02  0.00000000000E+00 0.  1.
        -11    1    3    3    0    0 -0.73646360384E+02  0.67830960083E+02  0.38500365317E+03  0.39780980191E+03  0.00000000000E+00 0.  1.
         11    1    3    3    0    0  0.14424931987E+02 -0.16241710666E+02  0.10644243832E+03  0.10863638665E+03  0.00000000000E+00 0. -1.
         21    1    1    2  502  501  0.20695751062E+02 -0.19149425350E+02 -0.24593160703E+02  0.37414411082E+02  0.00000000000E+00 0. -1.
<scales pt_clust_5="13000.00000" pt_clust_6="13000.00000" pt_clust_7="13000.00000" pt_clust_8="13000.00000" pt_clust_9="28.19600"></scales>
<clustering>
<clus scale="   28.196">  2  9  1 -1</clus>
<clus scale="   80.429">  5  6 -1 -1</clus>
<clus scale="   93.808">  7  8 -1 -1</clus>
<clus scale="  110.531">  2  5  1 -1</clus>
<clus scale="   28.196">  2  5  1 -1</clus>
</clustering>
</event>
<event>
 9    1  0.1973774E-005  0.1119132E+03  0.7546771E-02  0.1258382E+00
          1   -1    0    0  502    0  0.00000000000E+00  0.00000000000E+00  0.30314754389E+02  0.30314754389E+02  0.00000000000E+00 0. -1.
         -2   -1    0    0    0  501 -0.00000000000E+00 -0.00000000000E+00 -0.71130694917E+03  0.71130694917E+03  0.00000000000E+00 0.  1.
        -24    2    1    2    0    0 -0.53634643378E+02  0.25564443700E+02 -0.41754863047E+03  0.43070057950E+03  0.87326482947E+02 0.  0.
         23    2    1    2    0    0  0.86323344858E+02 -0.81926721386E+01 -0.17853921644E+03  0.21829781199E+03  0.90878177615E+02 0.  0.
         13    1    3    3    0    0 -0.34621613450E+02  0.41667864366E+02 -0.11493218695E+03  0.12706012213E+03  0.00000000000E+00 0. -1.
        -14    1    3    3    0    0 -0.19013029929E+02 -0.16103420666E+02 -0.30261644352E+03  0.30364045737E+03  0.00000000000E+00 0.  1.
        -13    1    4    4    0    0  0.56044185600E+02  0.39659693569E+01 -0.25290626449E+02  0.61614084743E+02  0.00000000000E+00 0. -1.
         13    1    4    4    0    0  0.30279159258E+02 -0.12158641495E+02 -0.15324858999E+03  0.15668372725E+03  0.00000000000E+00 0.  1.
         21    1    1    2  502  501 -0.32688701480E+02 -0.17371771562E+02 -0.84904347868E+02  0.92623312068E+02  0.00000000000E+00 0.  1.
<scales pt_clust_5="13000.00000" pt_clust_6="13000.00000" pt_clust_7="13000.00000" pt_clust_8="13000.00000" pt_clust_9="37.01796"></scales>
<clustering>
<clus scale="   37.018">  1  9  2 -1</clus>
<clus scale="   87.326">  5  6 -1 -1</clus>
<clus scale="   90.878">  7  8 -1 -1</clus>
<clus scale="  109.049">  2  5  1 -1</clus>
<clus scale="   37.018">  1  5  2 -1</clus>
</clustering>
</event>
<event>
 9    1  0.1973774E-005  0.9055673E+02  0.7546771E-02  0.1302401E+00
         -2   -1    0    0    0  501 -0.00000000000E+00  0.00000000000E+00  0.37628478316E+03  0.37628478316E+03  0.00000000000E+00 0.  1.
          1   -1    0    0  502    0  0.00000000000E+00 -0.00000000000E+00 -0.48199093577E+02  0.48199093577E+02  0.00000000000E+00 0. -1.
        -24    2    1    2    0    0  0.21497682445E+02  0.37531392842E+02  0.27068802217E+03  0.28528413882E+03  0.79020748645E+02 0.  0.
         23    2    1    2    0    0 -0.13802695830E+01 -0.38304170625E+02  0.71673152068E+02  0.11451984838E+03  0.80676144637E+02 0.  0.
         11    1    3    3    0    0  0.83744933128E+01  0.31822789582E+02  0.31126337904E+02  0.45295374889E+02  0.00000000000E+00 0. -1.
        -12    1    3    3    0    0  0.13123189132E+02  0.57086032597E+01  0.23956168427E+03  0.23998876393E+03  0.00000000000E+00 0.  1.
        -13    1    4    4    0    0 -0.29853304834E+02 -0.48578265851E+02  0.34742798938E+02  0.66769227947E+02  0.00000000000E+00 0.  1.
         13    1    4    4    0    0  0.28473035251E+02  0.10274095225E+02  0.36930353130E+02  0.47750620430E+02  0.00000000000E+00 0. -1.
         21    1    1    2  502  501 -0.20117412862E+02  0.77277778335E+00 -0.14275484654E+02  0.24679889543E+02  0.00000000000E+00 0.  1.
<scales pt_clust_5="13000.00000" pt_clust_6="13000.00000" pt_clust_7="13000.00000" pt_clust_8="13000.00000" pt_clust_9="20.13225"></scales>
<clustering>
<clus scale="   20.132">  2  9  1 -1</clus>
<clus scale="   79.021">  5  6 -1 -1</clus>
<clus scale="   80.676">  7  8 -1 -1</clus>
<clus scale="   89.085">  1  5  2 -1</clus>
<clus scale="   20.132">  2  5  1 -1</clus>
</clustering>
</event>
<event>
 9    1  0.1973774E-005  0.1266405E+03  0.7546771E-02  0.1252101E+00
         -2   -1    0    0    0  501 -0.00000000000E+00  0.00000000000E+00  0.14011276033E+03  0.14011276033E+03  0.00000000000E+00 0.  1.
          1   -1    0    0  502    0  0.00000000000E+00 -0.00000000000E+00 -0.65224011994E+03  0.65224011994E+03  0.00000000000E+00 0. -1.
         23    2    1    2    0    0 -0.49292090686E+02 -0.67502693233E+02  0.88003991616E+02  0.15207466411E+03  0.91627927653E+02 0.  0.
        -24    2    1    2    0    0 -0.87310998411E+01 -0.27244013241E+02 -0.42061591283E+03  0.42916350410E+03  0.80281372479E+02 0.  0.
         13    1    4    4    0    0 -0.42095585146E+02 -0.28603619255E+02 -0.28412987436E+03  0.28865202377E+03  0.00000000000E+00 0. -1.
        -14    1    4    4    0    0  0.33364485305E+02  0.13596060133E+01 -0.13648603847E+03  0.14051148033E+03  0.00000000000E+00 0.  1.
        -13    1    3    3    0    0 -0.27986221314E+02 -0.12730412097E+02  0.88093179025E+02  0.93304341626E+02  0.00000000000E+00 0.  1.
         13    1    3    3    0    0 -0.21305869372E+02 -0.54772281136E+02 -0.89187408544E-01  0.58770322484E+02  0.00000000000E+00 0. -1.
         21    1    1    2  502  501  0.58023190527E+02  0.94746706474E+02 -0.17951543840E+03  0.21111471206E+03  0.00000000000E+00 0. -1.
<scales pt_clust_5="13000.00000" pt_clust_6="13000.00000" pt_clust_7="13000.00000" pt_clust_8="13000.00000" pt_clust_9="87.41928"></scales>
<clustering>
<clus scale="   80.281">  5  6 -1 -1</clus>
<clus scale="   85.227">  2  5  1 -1</clus>
<clus scale="   87.419">  2  9  1 -1</clus>
<clus scale="   91.628">  7  8 -1 -1</clus>
<clus scale="   85.227">  2  5  1 -1</clus>
</clustering>
</event>
<event>
 9    1  0.1973774E-005  0.2539313E+03  0.7546771E-02  0.1132015E+00
         -2   -1    0    0    0  501 -0.00000000000E+00  0.00000000000E+00  0.59109196127E+03  0.59109196127E+03  0.00000000000E+00 0.  1.
          1   -1    0    0  502    0  0.00000000000E+00 -0.00000000000E+00 -0.27244311453E+03  0.27244311453E+03  0.00000000000E+00 0. -1.
         23    2    1    2    0    0  0.31571248847E+02  0.11428992454E+03  0.23981990764E+03  0.28273231430E+03  0.91460608159E+02 0.  0.
        -24    2    1    2    0    0 -0.21767203897E+03  0.87759591829E+02 -0.83029463242E+02  0.26196792407E+03  0.81550223589E+02 0.  0.
         11    1    4    4    0    0 -0.63021385281E+02  0.23532471294E+02  0.13597595537E+02  0.68632112107E+02  0.00000000000E+00 0. -1.
        -12    1    4    4    0    0 -0.15465065368E+03  0.64227120535E+02 -0.96627058779E+02  0.19333581196E+03  0.00000000000E+00 0.  1.
        -11    1    3    3    0    0 -0.15153232947E+02  0.89195260913E+02  0.10954969962E+03  0.14207938529E+03  0.00000000000E+00 0.  1.
         11    1    3    3    0    0  0.46724481794E+02  0.25094663628E+02  0.13027020802E+03  0.14065292901E+03  0.00000000000E+00 0. -1.
         21    1    1    2  502  501  0.18610079012E+03 -0.20204951637E+03  0.16185840234E+03  0.31883483743E+03  0.00000000000E+00 0. -1.
<scales pt_clust_5="13000.00000" pt_clust_6="13000.00000" pt_clust_7="13000.00000" pt_clust_8="13000.00000" pt_clust_9="240.48013"></scales>
<clustering>
<clus scale="   81.550">  5  6 -1 -1</clus>
<clus scale="   91.461">  7  8 -1 -1</clus>
<clus scale="  149.746">  1  7  2 -1</clus>
<clus scale="  240.480">  1  9  2 -1</clus>
<clus scale="  253.931">  2  5  1 -1</clus>
</clustering>
</event>
<event>
 9    1  0.1973774E-005  0.1132200E+03  0.7546771E-02  0.1259006E+00
          1   -1    0    0  502    0  0.00000000000E+00  0.00000000000E+00  0.46821072565E+03  0.46821072565E+03  0.00000000000E+00 0. -1.
         -2   -1    0    0    0  501 -0.00000000000E+00 -0.00000000000E+00 -0.58584210105E+02  0.58584210105E+02  0.00000000000E+00 0.  1.
        -24    2    1    2    0    0 -0.54911963182E+01  0.60172525494E+02  0.30306263522E+02  0.10650619976E+03  0.82305618991E+02 0.  0.
         23    2    1    2    0    0 -0.43574609500E+02 -0.77308324744E+02  0.26988677545E+03  0.29914099680E+03  0.93654368492E+02 0.  0.
         11    1    3    3    0    0  0.17600157363E+02 -0.14232487902E+02 -0.72836469516E+00  0.22646407358E+02  0.00000000000E+00 0. -1.
        -12    1    3    3    0    0 -0.23091353681E+02  0.74405013396E+02  0.31034628217E+02  0.83859792403E+02  0.00000000000E+00 0.  1.
        -11    1    4    4    0    0  0.19478145189E+02 -0.33027706879E+02  0.34910862834E+02  0.51855529170E+02  0.00000000000E+00 0.  1.
         11    1    4    4    0    0 -0.63052754690E+02 -0.44280617864E+02  0.23497591262E+03  0.24728546763E+03  0.00000000000E+00 0. -1.
         21    1    1    2  502  501  0.49065805819E+02  0.17135799249E+02  0.10943347657E+03  0.12114773919E+03  0.00000000000E+00 0. -1.
<scales pt_clust_5="13000.00000" pt_clust_6="13000.00000" pt_clust_7="13000.00000" pt_clust_8="13000.00000" pt_clust_9="51.97200"></scales>
<clustering>
<clus scale="   51.972">  1  9  2 -1</clus>
<clus scale="   82.306">  5  6 -1 -1</clus>
<clus scale="   93.654">  7  8 -1 -1</clus>
<clus scale="  104.028">  2  5  1 -1</clus>
<clus scale="   51.972">  1  5  2 -1</clus>
</clustering>
</event>
<event>
 9    1  0.1973774E-005  0.1230553E+03  0.7546771E-02  0.1242875E+00
          1   -1    0    0  502    0  0.00000000000E+00  0.00000000000E+00  0.68946758181E+03  0.68946758181E+03  0.00000000000E+00 0. -1.
         -2   -1    0    0    0  501 -0.00000000000E+00 -0.00000000000E+00 -0.41485013792E+02  0.41485013792E+02  0.00000000000E+00 0.  1.
        -24    2    1    2    0    0 -0.53786856351E+01 -0.45171272651E+02  0.15235071571E+03  0.17808787290E+03  0.80219547276E+02 0.  0.
         23    2    1    2    0    0 -0.40826622909E+02  0.10594805338E+03  0.42002725828E+03  0.44541798123E+03  0.95302031217E+02 0.  0.
         13    1    3    3    0    0 -0.39161751990E+01 -0.46122896085E+02  0.16189651978E+03  0.16838390983E+03  0.00000000000E+00 0. -1.
        -14    1    3    3    0    0 -0.14625104361E+01  0.95162343420E+00 -0.95458040723E+01  0.97039630731E+01  0.00000000000E+00 0.  1.
        -13    1    4    4    0    0 -0.22383042797E+02  0.60264018858E+02  0.36873766147E+03  0.37429963340E+03  0.00000000000E+00 0. -1.
         13    1    4    4    0    0 -0.18443580112E+02  0.45684034526E+02  0.51289596800E+02  0.71118347829E+02  0.00000000000E+00 0.  1.
         21    1    1    2  502  501  0.46205308544E+02 -0.60776780733E+02  0.75604594030E+02  0.10744674147E+03  0.00000000000E+00 0. -1.
<scales pt_clust_5="13000.00000" pt_clust_6="13000.00000" pt_clust_7="13000.00000" pt_clust_8="13000.00000" pt_clust_9="76.34624"></scales>
<clustering>
<clus scale="   76.346">  2  9  1 -1</clus>
<clus scale="   80.220">  5  6 -1 -1</clus>
<clus scale="   95.302">  7  8 -1 -1</clus>
<clus scale="  111.782">  2  5  1 -1</clus>
<clus scale="  123.055">  1  5  2 -1</clus>
</clustering>
</event>
<event>
 9    1  0.1973774E-005  0.2037637E+03  0.7546771E-02  0.1147280E+00
          1   -1    0    0  502    0  0.00000000000E+00  0.00000000000E+00  0.57754853548E+03  0.57754853548E+03  0.00000000000E+00 0. -1.
         -2   -1    0    0    0  501 -0.00000000000E+00 -0.00000000000E+00 -0.12332540053E+03  0.12332540053E+03  0.00000000000E+00 0.  1.
        -24    2    1    2    0    0  0.18068861435E+03  0.48832987788E+02  0.80974046932E+01  0.20534322976E+03  0.84066866210E+02 0.  0.
         23    2    1    2    0    0 -0.15321189826E+03 -0.56038513585E+02  0.37985252088E+03  0.42342642197E+03  0.91584913792E+02 0.  0.
         13    1    3    3    0    0  0.58153969576E+02  0.33247782601E+02  0.39667024627E+02  0.77850960611E+02  0.00000000000E+00 0. -1.
        -14    1    3    3    0    0  0.12253464477E+03  0.15585205187E+02 -0.31569619934E+02  0.12749226915E+03  0.00000000000E+00 0.  1.
        -13    1    4    4    0    0 -0.24729756925E+02 -0.28570966792E+02  0.25727309722E+02  0.45713843489E+02  0.00000000000E+00 0.  1.
         13    1    4    4    0    0 -0.12848214134E+03 -0.27467546794E+02  0.35412521115E+03  0.37771257848E+03  0.00000000000E+00 0. -1.
         21    1    1    2  502  501 -0.27476716086E+02  0.72055257971E+01  0.66273209389E+02  0.72104284281E+02  0.00000000000E+00 0. -1.
<scales pt_clust_5="13000.00000" pt_clust_6="13000.00000" pt_clust_7="13000.00000" pt_clust_8="13000.00000" pt_clust_9="28.40580"></scales>
<clustering>
<clus scale="   28.406">  1  9  2 -1</clus>
<clus scale="   84.067">  5  6 -1 -1</clus>
<clus scale="   91.585">  7  8 -1 -1</clus>
<clus scale="  200.497">  2  5  1 -1</clus>
<clus scale="   28.406">  1  5  2 -1</clus>
</clustering>
</event>
<event>
 9    1  0.1973774E-005  0.9796574E+02  0.7546771E-02  0.1287273E+00
          1   -1    0    0  502    0  0.00000000000E+00  0.00000000000E+00  0.24013606765E+03  0.24013606765E+03  0.00000000000E+00 0. -1.
         -2   -1    0    0    0  501 -0.00000000000E+00 -0.00000000000E+00 -0.17447414490E+03  0.17447414490E+03  0.00000000000E+00 0.  1.
        -24    2    1    2    0    0  0.14992941071E+02 -0.42997477623E+02 -0.12994856983E+03  0.16147967295E+03  0.84353320095E+02 0.  0.
         23    2    1    2    0    0 -0.71474853304E+01  0.93296352635E+01  0.49568377137E+02  0.10305264560E+03  0.89580662608E+02 0.  0.
         13    1    3    3    0    0  0.40679408563E+02 -0.26859128577E+02 -0.30487555577E+02  0.57495374718E+02  0.00000000000E+00 0. -1.
        -14    1    3    3    0    0 -0.25686467492E+02 -0.16138349046E+02 -0.99461014255E+02  0.10398429823E+03  0.00000000000E+00 0.  1.
        -11    1    4    4    0    0  0.31983040372E+02  0.11744668355E+02 -0.64515874103E+01  0.34676722543E+02  0.00000000000E+00 0.  1.
         11    1    4    4    0    0 -0.39130525703E+02 -0.24150330912E+01  0.56019964547E+02  0.68375923061E+02  0.00000000000E+00 0. -1.
         21    1    1    2  502  501 -0.78454557404E+01  0.33667842359E+02  0.14604211545E+03  0.15007789400E+03  0.00000000000E+00 0. -1.
<scales pt_clust_5="13000.00000" pt_clust_6="13000.00000" pt_clust_7="13000.00000" pt_clust_8="13000.00000" pt_clust_9="34.56985"></scales>
<clustering>
<clus scale="   34.570">  1  9  2 -1</clus>
<clus scale="   84.353">  5  6 -1 -1</clus>
<clus scale="   89.581">  7  8 -1 -1</clus>
<clus scale="   93.210">  2  5  1 -1</clus>
<clus scale="   34.570">  1  5  2 -1</clus>
</clustering>
</event>
<event>
 9    1  0.1973774E-005  0.1103091E+03  0.7546771E-02  0.1271482E+00
         -4   -1    0    0    0  501 -0.00000000000E+00  0.00000000000E+00  0.35776754041E+03  0.35776754041E+03  0.00000000000E+00 0.  1.
          3   -1    0    0  502    0  0.00000000000E+00 -0.00000000000E+00 -0.20000568006E+03  0.20000568006E+03  0.00000000000E+00 0. -1.
        -24    2    1    2    0    0 -0.24959525330E+02 -0.23809525717E+02  0.21541424188E+03  0.23181083090E+03  0.78377894197E+02 0.  0.
         23    2    1    2    0    0  0.34998415511E+02  0.49504023732E+02  0.10629903393E+03  0.15970640269E+03  0.10262121121E+03 0.  0.
         11    1    3    3    0    0 -0.25018419797E+02 -0.24064438079E+02  0.28548219380E+02  0.44944625251E+02  0.00000000000E+00 0. -1.
        -12    1    3    3    0    0  0.58894467791E-01  0.25491236227E+00  0.18686602250E+03  0.18686620565E+03  0.00000000000E+00 0.  1.
        -13    1    4    4    0    0  0.36411198081E+02  0.79697211423E+02  0.67971677147E+02  0.11089440810E+03  0.00000000000E+00 0. -1.
         13    1    4    4    0    0 -0.14127825699E+01 -0.30193187691E+02  0.38327356780E+02  0.48811994584E+02  0.00000000000E+00 0.  1.
         21    1    1    2  502  501 -0.10038890182E+02 -0.25694498015E+02 -0.16395141545E+03  0.16625598688E+03  0.00000000000E+00 0. -1.
<scales pt_clust_5="13000.00000" pt_clust_6="13000.00000" pt_clust_7="13000.00000" pt_clust_8="13000.00000" pt_clust_9="27.58598"></scales>
<clustering>
<clus scale="   27.586">  2  9  1 -1</clus>
<clus scale="   78.378">  5  6 -1 -1</clus>
<clus scale="   88.205">  1  5  2 -1</clus>
<clus scale="  102.621">  7  8 -1 -1</clus>
<clus scale="   27.586">  2  5  1 -1</clus>
</clustering>
</event>
<event>
 9    1  0.1973774E-005  0.9356136E+02  0.7546771E-02  0.1298713E+00
          1   -1    0    0  502    0  0.00000000000E+00  0.00000000000E+00  0.33585294039E+03  0.33585294039E+03  0.00000000000E+00 0. -1.
         -2   -1    0    0    0  501 -0.00000000000E+00 -0.00000000000E+00 -0.62638510712E+02  0.62638510712E+02  0.00000000000E+00 0.  1.
        -24    2    1    2    0    0  0.22805555468E+02 -0.20356393567E+02 -0.69849694651E+01  0.88257607126E+02  0.82499329076E+02 0.  0.
         23    2    1    2    0    0 -0.16759093905E+02 -0.18930408823E+02  0.19486694473E+03  0.21609755812E+03  0.89921081330E+02 0.  0.
         13    1    3    3    0    0 -0.30848995476E+02 -0.64342257450E+01 -0.90537037943E+01  0.32787639976E+02  0.00000000000E+00 0. -1.
        -14    1    3    3    0    0  0.53654550944E+02 -0.13922167822E+02  0.20687343292E+01  0.55469967150E+02  0.00000000000E+00 0.  1.
        -11    1    4    4    0    0 -0.42828141108E+02 -0.37468164796E+02  0.15415199505E+03  0.16431965987E+03  0.00000000000E+00 0.  1.
         11    1    4    4    0    0  0.26069047202E+02  0.18537755972E+02  0.40714949684E+02  0.51777898242E+02  0.00000000000E+00 0. -1.
         21    1    1    2  502  501 -0.60464615625E+01  0.39286802390E+02  0.85332454406E+02  0.94136285854E+02  0.00000000000E+00 0. -1.
<scales pt_clust_5="13000.00000" pt_clust_6="13000.00000" pt_clust_7="13000.00000" pt_clust_8="13000.00000" pt_clust_9="39.74937"></scales>
<clustering>
<clus scale="   39.749">  1  9  2 -1</clus>
<clus scale="   82.499">  5  6 -1 -1</clus>
<clus scale="   86.453">  2  5  1 -1</clus>
<clus scale="   89.921">  7  8 -1 -1</clus>
<clus scale="   39.749">  1  5  2 -1</clus>
</clustering>
</event>
<event>
 9    1  0.1973774E-005  0.1149718E+03  0.7546771E-02  0.1255765E+00
          1   -1    0    0  502    0  0.00000000000E+00  0.00000000000E+00  0.29649467524E+03  0.29649467524E+03  0.00000000000E+00 0. -1.
         -2   -1    0    0    0  501 -0.00000000000E+00 -0.00000000000E+00 -0.11636353802E+03  0.11636353802E+03  0.00000000000E+00 0.  1.
        -24    2    1    2    0    0 -0.85819786186E+02 -0.80176779161E+01 -0.40213875267E+02  0.12465367000E+03  0.80573338142E+02 0.  0.
         23    2    1    2    0    0  0.35531510904E+02 -0.40652118091E+01  0.51201404773E+02  0.11133038776E+03  0.92162124396E+02 0.  0.
         13    1    3    3    0    0 -0.29192025774E+02  0.30882110883E+02  0.44223220720E+01  0.42725122281E+02  0.00000000000E+00 0. -1.
        -14    1    3    3    0    0 -0.56627760412E+02 -0.38899788799E+02 -0.44636197339E+02  0.81928547716E+02  0.00000000000E+00 0.  1.
        -13    1    4    4    0    0 -0.24997660192E+02 -0.17705873524E+02 -0.39138474058E+00  0.30635504800E+02  0.00000000000E+00 0.  1.
         13    1    4    4    0    0  0.60529171097E+02  0.13640661715E+02  0.51592789513E+02  0.80694882957E+02  0.00000000000E+00 0. -1.
         21    1    1    2  502  501  0.50288275282E+02  0.12082889725E+02  0.16914360771E+03  0.17687415550E+03  0.00000000000E+00 0. -1.
<scales pt_clust_5="13000.00000" pt_clust_6="13000.00000" pt_clust_7="13000.00000" pt_clust_8="13000.00000" pt_clust_9="51.71950"></scales>
<clustering>
<clus scale="   51.720">  1  9  2 -1</clus>
<clus scale="   80.573">  5  6 -1 -1</clus>
<clus scale="   92.162">  7  8 -1 -1</clus>
<clus scale="  105.909">  2  5  1 -1</clus>
<clus scale="   51.720">  1  5  2 -1</clus>
</clustering>
</event>
<event>
 9    1  0.1973774E-005  0.1013353E+03  0.7546771E-02  0.1278322E+00
         -2   -1    0    0    0  501 -0.00000000000E+00  0.00000000000E+00  0.34905298797E+03  0.34905298797E+03  0.00000000000E+00 0.  1.
          1   -1    0    0  502    0  0.00000000000E+00 -0.00000000000E+00 -0.64208712729E+02  0.64208712729E+02  0.00000000000E+00 0. -1.
         23    2    1    2    0    0  0.46103325491E+02 -0.16942399531E+02  0.17934606220E+03  0.20354977521E+03  0.82794561661E+02 0.  0.
        -24    2    1    2    0    0 -0.71702921825E+02  0.17427094281E+02  0.13291200166E+03  0.17220072625E+03  0.80885581679E+02 0.  0.
         11    1    4    4    0    0 -0.61707876734E+02  0.23138759514E+02  0.36958672767E+02  0.75559299464E+02  0.00000000000E+00 0. -1.
        -12    1    4    4    0    0 -0.99950450911E+01 -0.57116652328E+01  0.95953328894E+02  0.96641426789E+02  0.00000000000E+00 0.  1.
        -11    1    3    3    0    0  0.12239751120E+02 -0.46456804301E+02  0.66054901664E+02  0.81678003202E+02  0.00000000000E+00 0. -1.
         11    1    3    3    0    0  0.33863574371E+02  0.29514404770E+02  0.11329116053E+03  0.12187177201E+03  0.00000000000E+00 0.  1.
         21    1    1    2  502  501  0.25599596334E+02 -0.48469475054E+00 -0.27413788617E+02  0.37511199232E+02  0.00000000000E+00 0. -1.
<scales pt_clust_5="13000.00000" pt_clust_6="13000.00000" pt_clust_7="13000.00000" pt_clust_8="13000.00000" pt_clust_9="25.60418"></scales>
<clustering>
<clus scale="   25.604">  2  9  1 -1</clus>
<clus scale="   80.886">  5  6 -1 -1</clus>
<clus scale="   82.795">  7  8 -1 -1</clus>
<clus scale="   99.782">  2  5  1 -1</clus>
<clus scale="   25.604">  2  5  1 -1</clus>
</clustering>
</event>
<event>
 9    1  0.1973774E-005  0.1078148E+03  0.7546771E-02  0.1269456E+00
         -2   -1    0    0    0  501 -0.00000000000E+00  0.00000000000E+00  0.43515221009E+02  0.43515221009E+02  0.00000000000E+00 0.  1.
          1   -1    0    0  502    0  0.00000000000E+00 -0.00000000000E+00 -0.72310362175E+03  0.72310362175E+03  0.00000000000E+00 0. -1.
        -24    2    1    2    0    0  0.12891948167E+02 -0.56386050801E+02 -0.41868934149E+02  0.10678015131E+03  0.79393979710E+02 0.  0.
         23    2    1    2    0    0 -0.53832606156E+02  0.44272461442E+02 -0.33358729514E+03  0.35272429219E+03  0.90972207250E+02 0.  0.
         13    1    3    3    0    0 -0.11543851061E+01 -0.59551385384E+02 -0.59382941613E+02  0.84107275908E+02  0.00000000000E+00 0. -1.
        -14    1    3    3    0    0  0.14046333273E+02  0.31653345824E+01  0.17514007464E+02  0.22672875400E+02  0.00000000000E+00 0.  1.
        -11    1    4    4    0    0  0.66574209460E+01  0.50499061094E+02 -0.11378839169E+03  0.12466865888E+03  0.00000000000E+00 0.  1.
         11    1    4    4    0    0 -0.60490027102E+02 -0.62265996524E+01 -0.21979890345E+03  0.22805563330E+03  0.00000000000E+00 0. -1.
         21    1    1    2  502  501  0.40940657989E+02  0.12113589359E+02 -0.30413217145E+03  0.30711439926E+03  0.00000000000E+00 0.  1.
<scales pt_clust_5="13000.00000" pt_clust_6="13000.00000" pt_clust_7="13000.00000" pt_clust_8="13000.00000" pt_clust_9="42.69516"></scales>
<clustering>
<clus scale="   42.695">  2  9  1 -1</clus>
<clus scale="   79.394">  5  6 -1 -1</clus>
<clus scale="   90.972">  7  8 -1 -1</clus>
<clus scale="   98.242">  1  5  2 -1</clus>
<clus scale="   42.695">  2  5  1 -1</clus>
</clustering>
</event>
<event>
 9    1  0.1973774E-005  0.1608240E+03  0.7546771E-02  0.1189359E+00
         -2   -1    0    0    0  501 -0.00000000000E+00  0.00000000000E+00  0.93641643219E+03  0.93641643219E+03  0.00000000000E+00 0.  1.
          1   -1    0    0  502    0  0.00000000000E+00 -0.00000000000E+00 -0.39625605907E+02  0.39625605907E+02  0.00000000000E+00 0. -1.
        -24    2    1    2    0    0  0.29639693119E+02  0.13789180426E+03  0.63630545646E+03  0.65671194855E+03  0.80580942876E+02 0.  0.
         23    2    1    2    0    0 -0.29657258255E+01 -0.11647765357E+03  0.23080827006E+03  0.27404436740E+03  0.90840621209E+02 0.  0.
         13    1    3    3    0    0 -0.21647174985E+02  0.77084719665E+02  0.25819876775E+03  0.27032805600E+03  0.00000000000E+00 0. -1.
        -14    1    3    3    0    0  0.51286868104E+02  0.60807084591E+02  0.37810668871E+03  0.38638389255E+03  0.00000000000E+00 0.  1.
        -13    1    4    4    0    0 -0.33717771159E+02 -0.10870393456E+03  0.19820047427E+03  0.22855384810E+03  0.00000000000E+00 0. -1.
         13    1    4    4    0    0  0.30752045334E+02 -0.77737190137E+01  0.32607795792E+02  0.45490519297E+02  0.00000000000E+00 0.  1.
         21    1    1    2  502  501 -0.26673967293E+02 -0.21414150685E+02  0.29677099762E+02  0.45285722154E+02  0.00000000000E+00 0.  1.
<scales pt_clust_5="13000.00000" pt_clust_6="13000.00000" pt_clust_7="13000.00000" pt_clust_8="13000.00000" pt_clust_9="34.20623"></scales>
<clustering>
<clus scale="   34.206">  2  9  1 -1</clus>
<clus scale="   80.581">  5  6 -1 -1</clus>
<clus scale="   90.841">  7  8 -1 -1</clus>
<clus scale="  155.260">  1  5  2 -1</clus>
<clus scale="   34.206">  2  5  1 -1</clus>
</clustering>
</event>
<event>
 9    1  0.1973774E-005  0.1391000E+03  0.7546771E-02  0.1216651E+00
         -2   -1    0    0    0  501 -0.00000000000E+00  0.00000000000E+00  0.67779934001E+02  0.67779934001E+02  0.00000000000E+00 0.  1.
          1   -1    0    0  502    0  0.00000000000E+00 -0.00000000000E+00 -0.39282845848E+03  0.39282845848E+03  0.00000000000E+00 0. -1.
        -24    2    1    2    0    0  0.43138666389E+01  0.10286377229E+03 -0.54001562100E+02  0.14143516214E+03  0.80549185498E+02 0.  0.
         23    2    1    2    0    0 -0.24346854756E+02 -0.11231581155E+03 -0.24134098696E+03  0.28211777684E+03  0.90207301042E+02 0.  0.
         13    1    3    3    0    0 -0.25849161335E+02  0.48927623471E+02 -0.57159822075E+02  0.79557128781E+02  0.00000000000E+00 0. -1.
        -14    1    3    3    0    0  0.30163027973E+02  0.53936148817E+02  0.31582599758E+01  0.61878033355E+02  0.00000000000E+00 0.  1.
        -11    1    4    4    0    0  0.19188172612E+02 -0.59177472143E+02 -0.53296906455E+02  0.81918980799E+02  0.00000000000E+00 0.  1.
         11    1    4    4    0    0 -0.43535027368E+02 -0.53138339402E+02 -0.18804408051E+03  0.20019879604E+03  0.00000000000E+00 0. -1.
         21    1    1    2  502  501  0.20032988117E+02  0.94520392576E+01 -0.29705975418E+02  0.37055453506E+02  0.00000000000E+00 0. -1.
<scales pt_clust_5="13000.00000" pt_clust_6="13000.00000" pt_clust_7="13000.00000" pt_clust_8="13000.00000" pt_clust_9="22.15088"></scales>
<clustering>
<clus scale="   22.151">  2  9  1 -1</clus>
<clus scale="   80.549">  5  6 -1 -1</clus>
<clus scale="   90.207">  7  8 -1 -1</clus>
<clus scale="  133.040">  1  5  2 -1</clus>
<clus scale="   22.151">  2  5  1 -1</clus>
</clustering>
</event>
<event>
 9    1  0.1973774E-005  0.6616592E+03  0.7546771E-02  0.9787130E-01
         -2   -1    0    0    0  501 -0.00000000000E+00  0.00000000000E+00  0.95117392302E+03  0.95117392302E+03  0.00000000000E+00 0.  1.
          1   -1    0    0  502    0  0.00000000000E+00 -0.00000000000E+00 -0.64834814602E+03  0.64834814602E+03  0.00000000000E+00 0. -1.
        -24    2    1    2    0    0  0.12279549542E+03 -0.63113615283E+03  0.50511586306E+03  0.82145734040E+03  0.78984491283E+02 0.  0.
         23    2    1    2    0    0 -0.11952283412E+03  0.66728562224E+03 -0.13237796272E+03  0.69929164035E+03  0.10922025326E+03 0.  0.
         13    1    3    3    0    0  0.52016341345E+02 -0.36428943473E+03  0.24452494825E+03  0.44182003388E+03  0.00000000000E+00 0. -1.
        -14    1    3    3    0    0  0.70779154078E+02 -0.26684671811E+03  0.26059091481E+03  0.37963730652E+03  0.00000000000E+00 0.  1.
        -11    1    4    4    0    0 -0.69595556283E+02  0.56063823669E+03 -0.80626410441E+02  0.57066574451E+03  0.00000000000E+00 0.  1.
         11    1    4    4    0    0 -0.49927277841E+02  0.10664738554E+03 -0.51751552284E+02  0.12862589584E+03  0.00000000000E+00 0. -1.
         21    1    1    2  502  501 -0.32726612988E+01 -0.36149469401E+02 -0.69912123336E+02  0.78773088294E+02  0.00000000000E+00 0. -1.
<scales pt_clust_5="13000.00000" pt_clust_6="13000.00000" pt_clust_7="13000.00000" pt_clust_8="13000.00000" pt_clust_9="36.29731"></scales>
<clustering>
<clus scale="   36.297">  2  9  1 -1</clus>
<clus scale="   78.984">  5  6 -1 -1</clus>
<clus scale="  109.220">  7  8 -1 -1</clus>
<clus scale="  657.345">  1  5  2 -1</clus>
<clus scale="   36.297">  2  5  1 -1</clus>
</clustering>
</event>
<event>
 9    1  0.1973774E-005  0.2196060E+03  0.7546771E-02  0.1134877E+00
         -2   -1    0    0    0  501 -0.00000000000E+00  0.00000000000E+00  0.98067327523E+02  0.98067327523E+02  0.00000000000E+00 0.  1.
          1   -1    0    0  502    0  0.00000000000E+00 -0.00000000000E+00 -0.60700568093E+03  0.60700568093E+03  0.00000000000E+00 0. -1.
         23    2    1    2    0    0  0.86500406189E+02 -0.18536039295E+03 -0.16290475794E+03  0.27660999987E+03  0.90190555618E+02 0.  0.
        -24    2    1    2    0    0 -0.10603631599E+03  0.16443461159E+03 -0.24653818607E+03  0.32493100103E+03  0.80725686372E+02 0.  0.
         13    1    4    4    0    0 -0.38464938164E+02  0.11039611728E+03 -0.18467698435E+03  0.21856907998E+03  0.00000000000E+00 0. -1.
        -14    1    4    4    0    0 -0.67571377829E+02  0.54038494316E+02 -0.61861201720E+02  0.10636192104E+03  0.00000000000E+00 0.  1.
        -13    1    3    3    0    0  0.93971367613E+02 -0.11941045930E+03 -0.13937354455E+03  0.20619035051E+03  0.00000000000E+00 0.  1.
         13    1    3    3    0    0 -0.74709614231E+01 -0.65949933648E+02 -0.23531213391E+02  0.70419649363E+02  0.00000000000E+00 0. -1.
         21    1    1    2  502  501  0.19535909804E+02  0.20925781356E+02 -0.99495409399E+02  0.10353200756E+03  0.00000000000E+00 0.  1.
<scales pt_clust_5="13000.00000" pt_clust_6="13000.00000" pt_clust_7="13000.00000" pt_clust_8="13000.00000" pt_clust_9="28.62761"></scales>
<clustering>
<clus scale="   28.628">  2  9  1 -1</clus>
<clus scale="   80.726">  5  6 -1 -1</clus>
<clus scale="   90.191">  7  8 -1 -1</clus>
<clus scale="  215.891">  2  5  1 -1</clus>
<clus scale="   28.628">  2  5  1 -1</clus>
</clustering>
</event>
<event>
 9    1  0.1973774E-005  0.1180501E+03  0.7546771E-02  0.1249791E+00
          1   -1    0    0  502    0  0.00000000000E+00  0.00000000000E+00  0.36046934065E+03  0.36046934065E+03  0.00000000000E+00 0. -1.
         -2   -1    0    0    0  501 -0.00000000000E+00 -0.00000000000E+00 -0.85194990820E+02  0.85194990820E+02  0.00000000000E+00 0.  1.
        -24    2    1    2    0    0  0.85671499552E+01 -0.77683936897E+02 -0.99671029812E+01  0.11274171013E+03  0.80642172282E+02 0.  0.
         23    2    1    2    0    0 -0.34805111783E+02  0.61405298415E+02  0.12616301836E+03  0.17087518070E+03  0.91100020296E+02 0.  0.
         13    1    3    3    0    0  0.14183900207E+02  0.14233715672E+02 -0.37649762782E+01  0.20443990151E+02  0.00000000000E+00 0. -1.
        -14    1    3    3    0    0 -0.56167502513E+01 -0.91917652569E+02 -0.62021267030E+01  0.92297719977E+02  0.00000000000E+00 0.  1.
        -11    1    4    4    0    0 -0.23983104097E+02 -0.18012035540E+02  0.14213553068E+02  0.33191080085E+02  0.00000000000E+00 0.  1.
         11    1    4    4    0    0 -0.10822007686E+02  0.79417333955E+02  0.11194946530E+03  0.13768410062E+03  0.00000000000E+00 0. -1.
         21    1    1    2  502  501  0.26237961828E+02  0.16278638482E+02  0.15907843444E+03  0.16204744064E+03  0.00000000000E+00 0. -1.
<scales pt_clust_5="13000.00000" pt_clust_6="13000.00000" pt_clust_7="13000.00000" pt_clust_8="13000.00000" pt_clust_9="30.87758"></scales>
<clustering>
<clus scale="   30.878">  1  9  2 -1</clus>
<clus scale="   80.642">  5  6 -1 -1</clus>
<clus scale="   91.100">  7  8 -1 -1</clus>
<clus scale="  110.181">  2  5  1 -1</clus>
<clus scale="   30.878">  1  5  2 -1</clus>
</clustering>
</event>
<event>
 9    1  0.1973774E-005  0.9834230E+02  0.7546771E-02  0.1287470E+00
         -2   -1    0    0    0  501 -0.00000000000E+00  0.00000000000E+00  0.25805528657E+03  0.25805528657E+03  0.00000000000E+00 0.  1.
          1   -1    0    0  502    0  0.00000000000E+00 -0.00000000000E+00 -0.11062666850E+03  0.11062666850E+03  0.00000000000E+00 0. -1.
        -24    2    1    2    0    0  0.92217700461E+00  0.41373959406E+02  0.20625908769E+03  0.22537631263E+03  0.80864183150E+02 0.  0.
         23    2    1    2    0    0  0.64393852767E+01 -0.62289822451E+02 -0.52470583501E+02  0.12023804444E+03  0.88218691521E+02 0.  0.
         11    1    3    3    0    0 -0.27369041141E+02 -0.10861219847E+02  0.47722811661E+02  0.56075817091E+02  0.00000000000E+00 0. -1.
        -12    1    3    3    0    0  0.28291218145E+02  0.52235179253E+02  0.15853627602E+03  0.16930049554E+03  0.00000000000E+00 0.  1.
        -13    1    4    4    0    0 -0.23093887173E+02  0.10567513944E+02 -0.28224044775E+02  0.37968364189E+02  0.00000000000E+00 0.  1.
         13    1    4    4    0    0  0.29533272450E+02 -0.72857336395E+02 -0.24246538726E+02  0.82269680249E+02  0.00000000000E+00 0. -1.
         21    1    1    2  502  501 -0.73615622813E+01  0.20915863045E+02 -0.63598861119E+01  0.23067598000E+02  0.00000000000E+00 0.  1.
<scales pt_clust_5="13000.00000" pt_clust_6="13000.00000" pt_clust_7="13000.00000" pt_clust_8="13000.00000" pt_clust_9="22.17354"></scales>
<clustering>
<clus scale="   22.174">  2  9  1 -1</clus>
<clus scale="   80.864">  5  6 -1 -1</clus>
<clus scale="   88.219">  7  8 -1 -1</clus>
<clus scale="   91.802">  1  5  2 -1</clus>
<clus scale="   22.174">  2  5  1 -1</clus>
</clustering>
</event>
<event>
 9    1  0.1973774E-005  0.2014738E+03  0.7546771E-02  0.1149422E+00
         -2   -1    0    0    0  501 -0.00000000000E+00  0.00000000000E+00  0.48778529157E+03  0.48778529157E+03  0.00000000000E+00 0.  1.
          1   -1    0    0  502    0  0.00000000000E+00 -0.00000000000E+00 -0.18558271661E+04  0.18558271661E+04  0.00000000000E+00 0. -1.
        -24    2    1    2    0    0  0.27233156422E+02 -0.18275472034E+03  0.43986761681E+03  0.48377032238E+03  0.80057928268E+02 0.  0.
         23    2    1    2    0    0  0.13612566063E+03  0.10057362544E+03 -0.44305489935E+03  0.48279170313E+03  0.90249294498E+02 0.  0.
         13    1    3    3    0    0  0.55001922005E+02 -0.10504028675E+03  0.24681346690E+03  0.27381665528E+03  0.00000000000E+00 0. -1.
        -14    1    3    3    0    0 -0.27768765583E+02 -0.77714433584E+02  0.19305414991E+03  0.20995366709E+03  0.00000000000E+00 0.  1.
        -11    1    4    4    0    0  0.31064370726E+02 -0.65609289707E+01 -0.31453203865E+02  0.44691665341E+02  0.00000000000E+00 0.  1.
         11    1    4    4    0    0  0.10506128991E+03  0.10713455441E+03 -0.41160169549E+03  0.43810003779E+03  0.00000000000E+00 0. -1.
         21    1    1    2  502  501 -0.16335881706E+03  0.82181094899E+02 -0.13648545920E+04  0.13770504321E+04  0.00000000000E+00 0. -1.
<scales pt_clust_5="13000.00000" pt_clust_6="13000.00000" pt_clust_7="13000.00000" pt_clust_8="13000.00000" pt_clust_9="182.86562"></scales>
<clustering>
<clus scale="   80.058">  5  6 -1 -1</clus>
<clus scale="   90.249">  7  8 -1 -1</clus>
<clus scale="  182.866">  2  9  1 -1</clus>
<clus scale="  197.119">  1  5  2 -1</clus>
<clus scale="  182.866">  2  5  1 -1</clus>
</clustering>
</event>
<event>
 9    1  0.1973774E-005  0.1470373E+03  0.7546771E-02  0.1206687E+00
          1   -1    0    0  502    0  0.00000000000E+00  0.00000000000E+00  0.29206939064E+03  0.29206939064E+03  0.00000000000E+00 0. -1.
         -2   -1    0    0    0  501 -0.00000000000E+00 -0.00000000000E+00 -0.16026660429E+03  0.16026660429E+03  0.00000000000E+00 0.  1.
        -24    2    1    2    0    0 -0.11535355015E+03 -0.23006313721E+02 -0.10037368550E+03  0.17358997761E+03  0.78885179739E+02 0.  0.
         23    2    1    2    0    0  0.96023411812E+02  0.17281252387E+02  0.19956283538E+03  0.24040439686E+03  0.91922856038E+02 0.  0.
         11    1    3    3    0    0 -0.68103052404E+02 -0.43882437815E+02 -0.30219394174E+02  0.86469103613E+02  0.00000000000E+00 0. -1.
        -12    1    3    3    0    0 -0.47250497743E+02  0.20876124094E+02 -0.70154291329E+02  0.87120873997E+02  0.00000000000E+00 0.  1.
        -11    1    4    4    0    0 -0.42681530938E+01  0.27479902758E+02  0.19240631116E+02  0.33816624198E+02  0.00000000000E+00 0.  1.
         11    1    4    4    0    0  0.10029156491E+03 -0.10198650371E+02  0.18032220427E+03  0.20658777266E+03  0.00000000000E+00 0. -1.
         21    1    1    2  502  501  0.19330138335E+02  0.57250613343E+01  0.32613636475E+02  0.38341620460E+02  0.00000000000E+00 0. -1.
<scales pt_clust_5="13000.00000" pt_clust_6="13000.00000" pt_clust_7="13000.00000" pt_clust_8="13000.00000" pt_clust_9="20.16012"></scales>
<clustering>
<clus scale="   20.160">  1  9  2 -1</clus>
<clus scale="   78.885">  5  6 -1 -1</clus>
<clus scale="   91.923">  7  8 -1 -1</clus>
<clus scale="  139.259">  2  5  1 -1</clus>
<clus scale="   20.160">  1  5  2 -1</clus>
</clustering>
</event>
<event>
 9    1  0.1973774E-005  0.9974277E+02  0.7546771E-02  0.1288101E+00
          1   -1    0    0  502    0  0.00000000000E+00  0.00000000000E+00  0.27847289109E+03  0.27847289109E+03  0.00000000000E+00 0. -1.
         -2   -1    0    0    0  501 -0.00000000000E+00 -0.00000000000E+00 -0.56898310954E+02  0.56898310954E+02  0.00000000000E+00 0.  1.
         23    2    1    2    0    0  0.22599303144E+02  0.37574867021E+02  0.21559116079E+02  0.10553227469E+03  0.93539651385E+02 0.  0.
        -24    2    1    2    0    0 -0.44209708601E+01 -0.10761291116E+02  0.14907204135E+03  0.16946797461E+03  0.79759454221E+02 0.  0.
         13    1    4    4    0    0  0.31833810495E+02 -0.25079468608E+02  0.62013469335E+02  0.74081317586E+02  0.00000000000E+00 0. -1.
        -14    1    4    4    0    0 -0.36254781355E+02  0.14318177492E+02  0.87058572014E+02  0.95386657028E+02  0.00000000000E+00 0.  1.
        -13    1    3    3    0    0  0.17042576174E+02  0.17377556889E+02  0.58334800245E+02  0.63209000987E+02  0.00000000000E+00 0. -1.
         13    1    3    3    0    0  0.55567269701E+01  0.20197310132E+02 -0.36775684167E+02  0.42323273705E+02  0.00000000000E+00 0.  1.
         21    1    1    2  502  501 -0.18178332284E+02 -0.26813575905E+02  0.50943422708E+02  0.60370952740E+02  0.00000000000E+00 0. -1.
<scales pt_clust_5="13000.00000" pt_clust_6="13000.00000" pt_clust_7="13000.00000" pt_clust_8="13000.00000" pt_clust_9="32.39475"></scales>
<clustering>
<clus scale="   32.395">  1  9  2 -1</clus>
<clus scale="   79.759">  5  6 -1 -1</clus>
<clus scale="   86.951">  1  5  2 -1</clus>
<clus scale="   93.540">  7  8 -1 -1</clus>
<clus scale="   32.395">  1  5  2 -1</clus>
</clustering>
</event>
<event>
 9    1  0.1973774E-005  0.1038420E+03  0.7546771E-02  0.1283264E+00
         -2   -1    0    0    0  501 -0.00000000000E+00  0.00000000000E+00  0.43406757169E+02  0.43406757169E+02  0.00000000000E+00 0.  1.
          1   -1    0    0  502    0  0.00000000000E+00 -0.00000000000E+00 -0.40750418147E+03  0.40750418147E+03  0.00000000000E+00 0. -1.
         23    2    1    2    0    0 -0.18132415031E+02 -0.36904233354E+01 -0.46201277603E+02  0.11275221310E+03  0.10117361221E+03 0.  0.
        -24    2    1    2    0    0  0.39515818605E+02 -0.76474849261E+01 -0.23653711459E+03  0.25327592270E+03  0.81110433948E+02 0.  0.
         13    1    4    4    0    0  0.46634251348E+02 -0.31811675093E+02 -0.20648345029E+03  0.21406109248E+03  0.00000000000E+00 0. -1.
        -14    1    4    4    0    0 -0.71184327428E+01  0.24164190167E+02 -0.30053664297E+02  0.39214830215E+02  0.00000000000E+00 0.  1.
        -13    1    3    3    0    0 -0.15619195925E+02 -0.42035706751E+02 -0.57292847366E+02  0.72755963898E+02  0.00000000000E+00 0. -1.
         13    1    3    3    0    0 -0.25132191061E+01  0.38345283416E+02  0.11091569763E+02  0.39996249203E+02  0.00000000000E+00 0.  1.
         21    1    1    2  502  501 -0.21383403574E+02  0.11337908261E+02 -0.81359032103E+02  0.84882802834E+02  0.00000000000E+00 0.  1.
<scales pt_clust_5="13000.00000" pt_clust_6="13000.00000" pt_clust_7="13000.00000" pt_clust_8="13000.00000" pt_clust_9="24.20327"></scales>
<clustering>
<clus scale="   24.203">  2  9  1 -1</clus>
<clus scale="   81.110">  5  6 -1 -1</clus>
<clus scale="   84.415">  2  5  1 -1</clus>
<clus scale="  101.174">  7  8 -1 -1</clus>
<clus scale="   24.203">  2  5  1 -1</clus>
</clustering>
</event>
<event>
 9    1  0.1973774E-005  0.1241757E+03  0.7546771E-02  0.1240350E+00
          3   -1    0    0  502    0  0.00000000000E+00  0.00000000000E+00  0.61813249911E+03  0.61813249911E+03  0.00000000000E+00 0. -1.
         -4   -1    0    0    0  501 -0.00000000000E+00 -0.00000000000E+00 -0.74515413763E+02  0.74515413763E+02  0.00000000000E+00 0.  1.
        -24    2    1    2    0    0  0.72508974426E+02 -0.44166441697E+02 -0.19191332526E+01  0.11722715070E+03  0.80810245913E+02 0.  0.
         23    2    1    2    0    0 -0.74022439589E+02 -0.17810529281E+02  0.36666864306E+03  0.38611401352E+03  0.94029788429E+02 0.  0.
         11    1    3    3    0    0  0.38105592559E+02  0.56072230461E+01  0.29997147371E+02  0.48819114955E+02  0.00000000000E+00 0. -1.
        -12    1    3    3    0    0  0.34403381867E+02 -0.49773664743E+02 -0.31916280623E+02  0.68408035746E+02  0.00000000000E+00 0.  1.
        -13    1    4    4    0    0 -0.82322619667E+02  0.98722943566E+01  0.19298176039E+03  0.21003912909E+03  0.00000000000E+00 0. -1.
         13    1    4    4    0    0  0.83001800775E+01 -0.27682823637E+02  0.17368688267E+03  0.17607488443E+03  0.00000000000E+00 0.  1.
         21    1    1    2  502  501  0.15134651626E+01  0.61976970978E+02  0.17886757554E+03  0.18930674866E+03  0.00000000000E+00 0. -1.
<scales pt_clust_5="13000.00000" pt_clust_6="13000.00000" pt_clust_7="13000.00000" pt_clust_8="13000.00000" pt_clust_9="61.99545"></scales>
<clustering>
<clus scale="   61.995">  1  9  2 -1</clus>
<clus scale="   80.810">  5  6 -1 -1</clus>
<clus scale="   94.030">  7  8 -1 -1</clus>
<clus scale="  114.491">  2  5  1 -1</clus>
<clus scale="   61.995">  1  5  2 -1</clus>
</clustering>
</event>
<event>
 9    1  0.1973774E-005  0.8701609E+02  0.7546771E-02  0.1312602E+00
          1   -1    0    0  502    0  0.00000000000E+00  0.00000000000E+00  0.64840568505E+02  0.64840568505E+02  0.00000000000E+00 0. -1.
         -2   -1    0    0    0  501 -0.00000000000E+00 -0.00000000000E+00 -0.45386882507E+03  0.45386882507E+03  0.00000000000E+00 0.  1.
         23    2    1    2    0    0  0.68364688502E+01 -0.19597913099E+02 -0.39020379785E+03  0.39986874715E+03  0.84883423529E+02 0.  0.
        -24    2    1    2    0    0 -0.24774225456E+02 -0.68912020413E+01  0.98498327867E+01  0.85694309277E+02  0.81149519555E+02 0.  0.
         13    1    4    4    0    0 -0.47526391649E+02 -0.23852819226E+02 -0.54484530656E+01  0.53454658627E+02  0.00000000000E+00 0. -1.
        -14    1    4    4    0    0  0.22752166193E+02  0.16961617184E+02  0.15298285852E+02  0.32239650649E+02  0.00000000000E+00 0.  1.
        -11    1    3    3    0    0 -0.16031555078E+02  0.27188288544E+02 -0.94975805719E+02  0.10008305283E+03  0.00000000000E+00 0. -1.
         11    1    3    3    0    0  0.22868023929E+02 -0.46786201643E+02 -0.29522799213E+03  0.29978569432E+03  0.00000000000E+00 0.  1.
         21    1    1    2  502  501  0.17937756606E+02  0.26489115140E+02 -0.86742915015E+01  0.33146337143E+02  0.00000000000E+00 0.  1.
<scales pt_clust_5="13000.00000" pt_clust_6="13000.00000" pt_clust_7="13000.00000" pt_clust_8="13000.00000" pt_clust_9="31.99119"></scales>
<clustering>
<clus scale="   31.991">  1  9  2 -1</clus>
<clus scale="   81.150">  5  6 -1 -1</clus>
<clus scale="   83.378">  1  5  2 -1</clus>
<clus scale="   84.883">  7  8 -1 -1</clus>
<clus scale="   31.991">  1  5  2 -1</clus>
</clustering>
</event>
<event>
 9    1  0.1973774E-005  0.1005114E+03  0.7546771E-02  0.1284798E+00
         -2   -1    0    0    0  501 -0.00000000000E+00  0.00000000000E+00  0.88672333414E+02  0.88672333414E+02  0.00000000000E+00 0.  1.
          1   -1    0    0  502    0  0.00000000000E+00 -0.00000000000E+00 -0.35133583952E+03  0.35133583952E+03  0.00000000000E+00 0. -1.
         23    2    1    2    0    0  0.48335900834E+02  0.56565167934E+01  0.35712280376E+02  0.11002122832E+03  0.91983412746E+02 0.  0.
        -24    2    1    2    0    0 -0.91037812475E+01  0.24506869105E+02 -0.13713003792E+03  0.16131809602E+03  0.80841915714E+02 0.  0.
         11    1    4    4    0    0 -0.21099428691E+02  0.26114889627E+02 -0.14368417429E+03  0.14755444857E+03  0.00000000000E+00 0. -1.
        -12    1    4    4    0    0  0.11995647444E+02 -0.16080205219E+01  0.65541363677E+01  0.13763647450E+02  0.00000000000E+00 0.  1.
        -13    1    3    3    0    0  0.57200146025E+02  0.38679182927E+02  0.30292216929E+02  0.75402614700E+02  0.00000000000E+00 0.  1.
         13    1    3    3    0    0 -0.88642451909E+01 -0.33022666134E+02  0.54200634475E+01  0.34618613623E+02  0.00000000000E+00 0. -1.
         21    1    1    2  502  501 -0.39232119587E+02 -0.30163385899E+02 -0.16124574856E+03  0.16866884859E+03  0.00000000000E+00 0. -1.
<scales pt_clust_5="13000.00000" pt_clust_6="13000.00000" pt_clust_7="13000.00000" pt_clust_8="13000.00000" pt_clust_9="49.48726"></scales>
<clustering>
<clus scale="   49.487">  2  9  1 -1</clus>
<clus scale="   80.842">  5  6 -1 -1</clus>
<clus scale="   90.427">  2  5  1 -1</clus>
<clus scale="   91.983">  7  8 -1 -1</clus>
<clus scale="   49.487">  2  5  1 -1</clus>
</clustering>
</event>
<event>
 9    1  0.1973774E-005  0.1284060E+03  0.7546771E-02  0.1238279E+00
         -2   -1    0    0    0  501 -0.00000000000E+00  0.00000000000E+00  0.14472242590E+03  0.14472242590E+03  0.00000000000E+00 0.  1.
          1   -1    0    0  502    0  0.00000000000E+00 -0.00000000000E+00 -0.69939466040E+03  0.69939466040E+03  0.00000000000E+00 0. -1.
        -24    2    1    2    0    0  0.54035039775E+02  0.78922357203E+02  0.86179221131E+02  0.15180844162E+03  0.80438925914E+02 0.  0.
         23    2    1    2    0    0  0.31514747372E+02  0.48983794451E+02 -0.25829824650E+03  0.27996690834E+03  0.90944456677E+02 0.  0.
         13    1    3    3    0    0  0.71935680664E+01  0.77447100384E+02  0.48374660888E+02  0.91596444230E+02  0.00000000000E+00 0. -1.
        -14    1    3    3    0    0  0.46841471709E+02  0.14752568189E+01  0.37804560243E+02  0.60211997390E+02  0.00000000000E+00 0.  1.
        -13    1    4    4    0    0  0.51096272271E+02  0.18997942263E+01 -0.83773850905E+02  0.98145281871E+02  0.00000000000E+00 0.  1.
         13    1    4    4    0    0 -0.19581524899E+02  0.47084000224E+02 -0.17452439559E+03  0.18182162647E+03  0.00000000000E+00 0. -1.
         21    1    1    2  502  501 -0.85549787147E+02 -0.12790615165E+03 -0.38255320913E+03  0.41234173634E+03  0.00000000000E+00 0.  1.
<scales pt_clust_5="13000.00000" pt_clust_6="13000.00000" pt_clust_7="13000.00000" pt_clust_8="13000.00000" pt_clust_9="100.08839"></scales>
<clustering>
<clus scale="   80.439">  5  6 -1 -1</clus>
<clus scale="   90.944">  7  8 -1 -1</clus>
<clus scale="  107.998">  2  7  1 -1</clus>
<clus scale="  100.088">  2  9  1 -1</clus>
<clus scale="  107.998">  2  5  1 -1</clus>
</clustering>
</event>
<event>
 9    1  0.1973774E-005  0.1062376E+03  0.7546771E-02  0.1272992E+00
         -2   -1    0    0    0  501 -0.00000000000E+00  0.00000000000E+00  0.23480843036E+03  0.23480843036E+03  0.00000000000E+00 0.  1.
          1   -1    0    0  502    0  0.00000000000E+00 -0.00000000000E+00 -0.80776021013E+02  0.80776021013E+02  0.00000000000E+00 0. -1.
         23    2    1    2    0    0 -0.18787500785E+02  0.73762262845E+02  0.12508841022E+03  0.17446084938E+03  0.94845326666E+02 0.  0.
        -24    2    1    2    0    0  0.17382558361E+02 -0.35637703415E+02 -0.18370450710E+01  0.92103926586E+02  0.83111727921E+02 0.  0.
         11    1    4    4    0    0 -0.30875807293E+01 -0.35121005513E+02 -0.37192120238E+02  0.51247165686E+02  0.00000000000E+00 0. -1.
        -12    1    4    4    0    0  0.20470139090E+02 -0.51669790169E+00  0.35355075167E+02  0.40856760900E+02  0.00000000000E+00 0.  1.
        -13    1    3    3    0    0 -0.46558325773E+02  0.16960886017E+02  0.23590130745E+02  0.54880266233E+02  0.00000000000E+00 0. -1.
         13    1    3    3    0    0  0.27770824988E+02  0.56801376828E+02  0.10149827948E+03  0.11958058315E+03  0.00000000000E+00 0.  1.
         21    1    1    2  502  501  0.14049424239E+01 -0.38124559430E+02  0.30781044197E+02  0.49019675405E+02  0.00000000000E+00 0. -1.
<scales pt_clust_5="13000.00000" pt_clust_6="13000.00000" pt_clust_7="13000.00000" pt_clust_8="13000.00000" pt_clust_9="38.15044"></scales>
<clustering>
<clus scale="   38.150">  1  9  2 -1</clus>
<clus scale="   83.112">  5  6 -1 -1</clus>
<clus scale="   94.845">  7  8 -1 -1</clus>
<clus scale="   95.908">  2  5  1 -1</clus>
<clus scale="   95.908">  2  5  1 -1</clus>
</clustering>
</event>
<event>
 9    1  0.1973774E-005  0.1552795E+03  0.7546771E-02  0.1196030E+00
          1   -1    0    0  502    0  0.00000000000E+00  0.00000000000E+00  0.29903289649E+03  0.29903289649E+03  0.00000000000E+00 0. -1.
         -2   -1    0    0    0  501 -0.00000000000E+00 -0.00000000000E+00 -0.11557959144E+03  0.11557959144E+03  0.00000000000E+00 0.  1.
         23    2    1    2    0    0 -0.61711383438E+02  0.10157732708E+03  0.65473333110E+02  0.16270821454E+03  0.89782835264E+02 0.  0.
        -24    2    1    2    0    0  0.11628489163E+03 -0.79872324111E+02  0.69278949593E+02  0.17560771692E+03  0.78337304052E+02 0.  0.
         11    1    4    4    0    0  0.57185291259E+02  0.55702704757E+01  0.25936235754E+02  0.63038668883E+02  0.00000000000E+00 0. -1.
        -12    1    4    4    0    0  0.59099600372E+02 -0.85442594587E+02  0.43342713839E+02  0.11256904804E+03  0.00000000000E+00 0.  1.
        -13    1    3    3    0    0 -0.67259484163E+02  0.24407417918E+02  0.29734054956E+02  0.77483380691E+02  0.00000000000E+00 0.  1.
         13    1    3    3    0    0  0.55481007253E+01  0.77169909160E+02  0.35739278154E+02  0.85224833848E+02  0.00000000000E+00 0. -1.
         21    1    1    2  502  501 -0.54573508193E+02 -0.21705002966E+02  0.48701022345E+02  0.76296556460E+02  0.00000000000E+00 0.  1.
<scales pt_clust_5="13000.00000" pt_clust_6="13000.00000" pt_clust_7="13000.00000" pt_clust_8="13000.00000" pt_clust_9="58.73138"></scales>
<clustering>
<clus scale="   58.731">  1  9  2 -1</clus>
<clus scale="   78.337">  5  6 -1 -1</clus>
<clus scale="   89.783">  7  8 -1 -1</clus>
<clus scale="  148.955">  1  5  2 -1</clus>
<clus scale="   58.731">  1  5  2 -1</clus>
</clustering>
</event>
<event>
 9    1  0.1973774E-005  0.2264495E+03  0.7546771E-02  0.1129994E+00
         -2   -1    0    0    0  501 -0.00000000000E+00  0.00000000000E+00  0.70382470864E+03  0.70382470864E+03  0.00000000000E+00 0.  1.
          1   -1    0    0  502    0  0.00000000000E+00 -0.00000000000E+00 -0.24095248365E+03  0.24095248365E+03  0.00000000000E+00 0. -1.
         23    2    1    2    0    0 -0.31766160694E+01  0.20844878682E+03  0.60431728822E+03  0.64576894923E+03  0.91417522024E+02 0.  0.
        -24    2    1    2    0    0 -0.42769416903E+02 -0.19588160531E+03 -0.11970886267E+03  0.24664953402E+03  0.79416336548E+02 0.  0.
         11    1    4    4    0    0  0.58411379600E+01 -0.39972585740E+02 -0.60883532301E+02  0.73066620347E+02  0.00000000000E+00 0. -1.
        -12    1    4    4    0    0 -0.48610554863E+02 -0.15590901957E+03 -0.58825330369E+02  0.17358291367E+03  0.00000000000E+00 0.  1.
        -13    1    3    3    0    0  0.26781000271E+02  0.18663782175E+03  0.53356812432E+03  0.56590267871E+03  0.00000000000E+00 0.  1.
         13    1    3    3    0    0 -0.29957616341E+02  0.21810965068E+02  0.70749163908E+02  0.79866270526E+02  0.00000000000E+00 0. -1.
         21    1    1    2  502  501  0.45946032973E+02 -0.12567181512E+02 -0.21736200558E+02  0.52358709035E+02  0.00000000000E+00 0.  1.
<scales pt_clust_5="13000.00000" pt_clust_6="13000.00000" pt_clust_7="13000.00000" pt_clust_8="13000.00000" pt_clust_9="47.63373"></scales>
<clustering>
<clus scale="   47.634">  2  9  1 -1</clus>
<clus scale="   79.416">  5  6 -1 -1</clus>
<clus scale="   91.418">  7  8 -1 -1</clus>
<clus scale="  221.876">  2  5  1 -1</clus>
<clus scale="   47.634">  2  5  1 -1</clus>
</clustering>
</event>
<event>
 9    1  0.1973774E-005  0.9395701E+02  0.7546771E-02  0.1301620E+00
          1   -1    0    0  502    0  0.00000000000E+00  0.00000000000E+00  0.89667166299E+03  0.89667166299E+03  0.00000000000E+00 0. -1.
         -2   -1    0    0    0  501 -0.00000000000E+00 -0.00000000000E+00 -0.50617016532E+02  0.50617016532E+02  0.00000000000E+00 0.  1.
        -24    2    1    2    0    0 -0.34151360065E+01 -0.77603524950E-02 -0.35019449011E+00  0.80617014500E+02  0.80543883545E+02 0.  0.
         23    2    1    2    0    0  0.42302834300E+02  0.55398562373E+02  0.47368468118E+03  0.48785678738E+03  0.93640468305E+02 0.  0.
         11    1    3    3    0    0 -0.14211607464E+02  0.36011189419E+02 -0.13164806547E+02  0.40891168747E+02  0.00000000000E+00 0. -1.
        -12    1    3    3    0    0  0.10796471457E+02 -0.36018949772E+02  0.12814612057E+02  0.39725845753E+02  0.00000000000E+00 0.  1.
        -13    1    4    4    0    0  0.33546649280E+02 -0.20423796048E+02  0.13023588635E+03  0.13602902343E+03  0.00000000000E+00 0.  1.
         13    1    4    4    0    0  0.87561850197E+01  0.75822358420E+02  0.34344879484E+03  0.35182776395E+03  0.00000000000E+00 0. -1.
         21    1    1    2  502  501 -0.38887698293E+02 -0.55390802020E+02  0.37272015977E+03  0.37881487764E+03  0.00000000000E+00 0.  1.
<scales pt_clust_5="13000.00000" pt_clust_6="13000.00000" pt_clust_7="13000.00000" pt_clust_8="13000.00000" pt_clust_9="67.67861"></scales>
<clustering>
<clus scale="   67.679">  1  9  2 -1</clus>
<clus scale="   80.544">  5  6 -1 -1</clus>
<clus scale="   80.912">  2  5  1 -1</clus>
<clus scale="   93.640">  7  8 -1 -1</clus>
<clus scale="   67.679">  1  5  2 -1</clus>
</clustering>
</event>
<event>
 9    1  0.1973774E-005  0.9116363E+02  0.7546771E-02  0.1309151E+00
          1   -1    0    0  502    0  0.00000000000E+00  0.00000000000E+00  0.31992916651E+03  0.31992916651E+03  0.00000000000E+00 0. -1.
         -2   -1    0    0    0  501 -0.00000000000E+00 -0.00000000000E+00 -0.96074133366E+02  0.96074133366E+02  0.00000000000E+00 0.  1.
        -24    2    1    2    0    0 -0.81429518161E+01 -0.47124669818E+01 -0.54282663629E+02  0.94108967447E+02  0.76297936891E+02 0.  0.
         23    2    1    2    0    0 -0.10215694073E+02  0.50817153885E+02  0.13597595572E+03  0.17131995661E+03  0.90411965277E+02 0.  0.
         13    1    3    3    0    0 -0.22299910344E+02 -0.29194974900E+02 -0.54620765348E+02  0.65825987026E+02  0.00000000000E+00 0. -1.
        -14    1    3    3    0    0  0.14156958528E+02  0.24482507918E+02  0.33810171834E+00  0.28282980421E+02  0.00000000000E+00 0.  1.
        -11    1    4    4    0    0 -0.26758479310E+02 -0.18125640530E+02  0.32078834113E+02  0.45536871408E+02  0.00000000000E+00 0. -1.
         11    1    4    4    0    0  0.16542785237E+02  0.68942794415E+02  0.10389712160E+03  0.12578308520E+03  0.00000000000E+00 0.  1.
         21    1    1    2  502  501  0.18358645889E+02 -0.46104686903E+02  0.14216174106E+03  0.15057437582E+03  0.00000000000E+00 0. -1.
<scales pt_clust_5="13000.00000" pt_clust_6="13000.00000" pt_clust_7="13000.00000" pt_clust_8="13000.00000" pt_clust_9="49.62542"></scales>
<clustering>
<clus scale="   49.625">  1  9  2 -1</clus>
<clus scale="   76.298">  5  6 -1 -1</clus>
<clus scale="   77.187">  2  5  1 -1</clus>
<clus scale="   90.412">  7  8 -1 -1</clus>
<clus scale="   49.625">  1  5  2 -1</clus>
</clustering>
</event>
<event>
 9    1  0.1973774E-005  0.1789341E+03  0.7546771E-02  0.1171137E+00
         -2   -1    0    0    0  501 -0.00000000000E+00  0.00000000000E+00  0.51164087529E+03  0.51164087529E+03  0.00000000000E+00 0.  1.
          1   -1    0    0  502    0  0.00000000000E+00 -0.00000000000E+00 -0.16276038657E+03  0.16276038657E+03  0.00000000000E+00 0. -1.
        -24    2    1    2    0    0 -0.12701006283E+03 -0.85181028607E+02  0.41475741050E+03  0.44938362388E+03  0.80836675791E+02 0.  0.
         23    2    1    2    0    0  0.11905208704E+03  0.56299264934E+02 -0.14030619717E+02  0.16513838706E+03  0.98644928562E+02 0.  0.
         13    1    3    3    0    0 -0.51800853351E+02 -0.52610634115E+02  0.10106542512E+03  0.12516160508E+03  0.00000000000E+00 0. -1.
        -14    1    3    3    0    0 -0.75209209474E+02 -0.32570394492E+02  0.31369198538E+03  0.32422201881E+03  0.00000000000E+00 0.  1.
        -11    1    4    4    0    0  0.92384228211E+02  0.13370608273E+02 -0.47286482495E+02  0.10464048076E+03  0.00000000000E+00 0. -1.
         11    1    4    4    0    0  0.26667858828E+02  0.42928656661E+02  0.33255862779E+02  0.60497906297E+02  0.00000000000E+00 0.  1.
         21    1    1    2  502  501  0.79579757866E+01  0.28881763674E+02 -0.51846302070E+02  0.59879250913E+02  0.00000000000E+00 0. -1.
<scales pt_clust_5="13000.00000" pt_clust_6="13000.00000" pt_clust_7="13000.00000" pt_clust_8="13000.00000" pt_clust_9="29.95806"></scales>
<clustering>
<clus scale="   29.958">  2  9  1 -1</clus>
<clus scale="   80.837">  5  6 -1 -1</clus>
<clus scale="   98.645">  7  8 -1 -1</clus>
<clus scale="  169.768">  1  5  2 -1</clus>
<clus scale="   29.958">  2  5  1 -1</clus>
</clustering>
</event>
<event>
 9    1  0.1973774E-005  0.1223960E+03  0.7546771E-02  0.1245706E+00
         -2   -1    0    0    0  501 -0.00000000000E+00  0.00000000000E+00  0.58008615515E+02  0.58008615515E+02  0.00000000000E+00 0.  1.
          1   -1    0    0  502    0  0.00000000000E+00 -0.00000000000E+00 -0.29533263391E+03  0.29533263391E+03  0.00000000000E+00 0. -1.
         23    2    1    2    0    0 -0.64642397769E+02 -0.50578876956E+02 -0.97594554767E+02  0.16391439717E+03  0.10298723269E+03 0.  0.
        -24    2    1    2    0    0  0.45584523656E+02  0.34521819587E+02 -0.12091663156E+03  0.15820259394E+03  0.84483868964E+02 0.  0.
         11    1    4    4    0    0  0.50144803245E+02 -0.12308205029E+02 -0.83113120293E+02  0.97845715125E+02  0.00000000000E+00 0. -1.
        -12    1    4    4    0    0 -0.45602795881E+01  0.46830024617E+02 -0.37803511268E+02  0.60356878810E+02  0.00000000000E+00 0.  1.
        -11    1    3    3    0    0 -0.17610840418E+02  0.13520700256E+02 -0.79278569153E+02  0.82328868343E+02  0.00000000000E+00 0. -1.
         11    1    3    3    0    0 -0.47031557351E+02 -0.64099577212E+02 -0.18315985614E+02  0.81585528831E+02  0.00000000000E+00 0.  1.
         21    1    1    2  502  501  0.19057874113E+02  0.16057057369E+02 -0.18812832068E+02  0.31224258317E+02  0.00000000000E+00 0. -1.
<scales pt_clust_5="13000.00000" pt_clust_6="13000.00000" pt_clust_7="13000.00000" pt_clust_8="13000.00000" pt_clust_9="24.92051"></scales>
<clustering>
<clus scale="   24.921">  1  9  2 -1</clus>
<clus scale="   84.484">  5  6 -1 -1</clus>
<clus scale="  102.987">  7  8 -1 -1</clus>
<clus scale="  107.294">  2  5  1 -1</clus>
<clus scale="  107.294">  2  5  1 -1</clus>
</clustering>
</event>
<event>
 9    1  0.1973774E-005  0.1277967E+03  0.7546771E-02  0.1247467E+00
         -4   -1    0    0    0  501 -0.00000000000E+00  0.00000000000E+00  0.30290309090E+02  0.30290309090E+02  0.00000000000E+00 0.  1.
          3   -1    0    0  502    0  0.00000000000E+00 -0.00000000000E+00 -0.84416886362E+03  0.84416886362E+03  0.00000000000E+00 0. -1.
        -24    2    1    2    0    0  0.23993376618E+02 -0.22220619201E+02 -0.15737244915E+03  0.18177926884E+03  0.84900982258E+02 0.  0.
         23    2    1    2    0    0  0.41019017633E+02 -0.55823930937E+02 -0.27402664767E+03  0.29694249247E+03  0.91024003035E+02 0.  0.
         11    1    3    3    0    0 -0.21333857517E+02 -0.21564643744E+02 -0.11767698859E+03  0.12152382886E+03  0.00000000000E+00 0. -1.
        -12    1    3    3    0    0  0.45327234135E+02 -0.65597545750E+00 -0.39695460557E+02  0.60255439978E+02  0.00000000000E+00 0.  1.
        -11    1    4    4    0    0  0.25648429726E+02  0.22770393596E+02 -0.80847621049E+02  0.87821811649E+02  0.00000000000E+00 0.  1.
         11    1    4    4    0    0  0.15370587908E+02 -0.78594324532E+02 -0.19317902662E+03  0.20912068082E+03  0.00000000000E+00 0. -1.
         21    1    1    2  502  501 -0.65012394252E+02  0.78044550138E+02 -0.38247945771E+03  0.39573741140E+03  0.00000000000E+00 0. -1.
<scales pt_clust_5="13000.00000" pt_clust_6="13000.00000" pt_clust_7="13000.00000" pt_clust_8="13000.00000" pt_clust_9="89.70296"></scales>
<clustering>
<clus scale="   84.901">  5  6 -1 -1</clus>
<clus scale="   90.981">  1  5  2 -1</clus>
<clus scale="   89.703">  2  9  1 -1</clus>
<clus scale="   91.024">  7  8 -1 -1</clus>
<clus scale="   89.703">  2  5  1 -1</clus>
</clustering>
</event>
<event>
 9    1  0.1973774E-005  0.9840517E+02  0.7546771E-02  0.1285248E+00
         -2   -1    0    0    0  501 -0.00000000000E+00  0.00000000000E+00  0.22593024573E+03  0.22593024573E+03  0.00000000000E+00 0.  1.
          1   -1    0    0  502    0  0.00000000000E+00 -0.00000000000E+00 -0.61981905517E+03  0.61981905517E+03  0.00000000000E+00 0. -1.
        -24    2    1    2    0    0  0.35248998887E+02 -0.26975226306E+02  0.20157849080E+03  0.22320951751E+03  0.84961438307E+02 0.  0.
         23    2    1    2    0    0  0.13400690429E+02  0.59921040761E+02 -0.24997404970E+03  0.27208607015E+03  0.88168556850E+02 0.  0.
         13    1    3    3    0    0  0.37124044702E+02  0.22391770892E+02  0.66536539638E+02  0.79414716556E+02  0.00000000000E+00 0. -1.
        -14    1    3    3    0    0 -0.18750458150E+01 -0.49366997198E+02  0.13504195116E+03  0.14379480096E+03  0.00000000000E+00 0.  1.
        -11    1    4    4    0    0  0.49353914133E+02  0.37934263698E+02 -0.11609030165E+03  0.13172613765E+03  0.00000000000E+00 0.  1.
         11    1    4    4    0    0 -0.35953223704E+02  0.21986777063E+02 -0.13388374805E+03  0.14035993250E+03  0.00000000000E+00 0. -1.
         21    1    1    2  502  501 -0.48649689315E+02 -0.32945814455E+02 -0.34549325054E+03  0.35045371324E+03  0.00000000000E+00 0. -1.
<scales pt_clust_5="13000.00000" pt_clust_6="13000.00000" pt_clust_7="13000.00000" pt_clust_8="13000.00000" pt_clust_9="58.75559"></scales>
<clustering>
<clus scale="   58.756">  2  9  1 -1</clus>
<clus scale="   84.961">  5  6 -1 -1</clus>
<clus scale="   88.169">  7  8 -1 -1</clus>
<clus scale="   95.542">  1  5  2 -1</clus>
<clus scale="   58.756">  2  5  1 -1</clus>
</clustering>
</event>
<event>
 9    1  0.1973774E-005  0.9448672E+02  0.7546771E-02  0.1298255E+00
         -2   -1    0    0    0  501 -0.00000000000E+00  0.00000000000E+00  0.32772600303E+03  0.32772600303E+03  0.00000000000E+00 0.  1.
          1   -1    0    0  502    0  0.00000000000E+00 -0.00000000000E+00 -0.77670440058E+02  0.77670440058E+02  0.00000000000E+00 0. -1.
         23    2    1    2    0    0  0.75177034065E+01  0.27960906325E+02  0.27158737164E+03  0.28789164077E+03  0.91014110153E+02 0.  0.
        -24    2    1    2    0    0  0.27306869025E+01 -0.10087320289E+02  0.76434869496E+01  0.81787965168E+02  0.80756657138E+02 0.  0.
         13    1    4    4    0    0 -0.32983864822E+02  0.49249595802E+01 -0.15376188573E+02  0.36723531155E+02  0.00000000000E+00 0. -1.
        -14    1    4    4    0    0  0.35714551724E+02 -0.15012279869E+02  0.23019675523E+02  0.45064434013E+02  0.00000000000E+00 0.  1.
        -11    1    3    3    0    0 -0.40808646037E+02  0.71880265234E+01  0.14514886576E+03  0.15094769474E+03  0.00000000000E+00 0. -1.
         11    1    3    3    0    0  0.48326349444E+02  0.20772879802E+02  0.12643850588E+03  0.13694394603E+03  0.00000000000E+00 0.  1.
         21    1    1    2  502  501 -0.10248390309E+02 -0.17873586036E+02 -0.29175295614E+02  0.35716837148E+02  0.00000000000E+00 0. -1.
<scales pt_clust_5="13000.00000" pt_clust_6="13000.00000" pt_clust_7="13000.00000" pt_clust_8="13000.00000" pt_clust_9="20.60327"></scales>
<clustering>
<clus scale="   20.603">  2  9  1 -1</clus>
<clus scale="   80.757">  5  6 -1 -1</clus>
<clus scale="   84.651">  2  5  1 -1</clus>
<clus scale="   91.014">  7  8 -1 -1</clus>
<clus scale="   20.603">  2  5  1 -1</clus>
</clustering>
</event>
<event>
 9    1  0.1973774E-005  0.8919068E+02  0.7546771E-02  0.1309962E+00
          3   -1    0    0  502    0  0.00000000000E+00  0.00000000000E+00  0.46124980821E+03  0.46124980821E+03  0.00000000000E+00 0. -1.
         -4   -1    0    0    0  501 -0.00000000000E+00 -0.00000000000E+00 -0.42169325553E+02  0.42169325553E+02  0.00000000000E+00 0.  1.
         23    2    1    2    0    0  0.94892525572E+01  0.76681679338E+01  0.77184302408E+02  0.11606348033E+03  0.85816479858E+02 0.  0.
        -24    2    1    2    0    0  0.38814767656E+02 -0.35462369700E+02  0.91846730884E+02  0.13117110443E+03  0.77497553572E+02 0.  0.
         13    1    4    4    0    0  0.12730102537E+02  0.23793164262E+02  0.15693029940E+02  0.31216043390E+02  0.00000000000E+00 0. -1.
        -14    1    4    4    0    0  0.26084665119E+02 -0.59255533962E+02  0.76153700944E+02  0.99955061037E+02  0.00000000000E+00 0.  1.
        -11    1    3    3    0    0  0.27907237430E+02  0.24404213080E+02  0.82650510215E+02  0.90584139648E+02  0.00000000000E+00 0. -1.
         11    1    3    3    0    0 -0.18417984873E+02 -0.16736045146E+02 -0.54662078068E+01  0.25479340684E+02  0.00000000000E+00 0.  1.
         21    1    1    2  502  501 -0.48304020213E+02  0.27794201766E+02  0.25004944937E+03  0.25618454901E+03  0.00000000000E+00 0. -1.
<scales pt_clust_5="13000.00000" pt_clust_6="13000.00000" pt_clust_7="13000.00000" pt_clust_8="13000.00000" pt_clust_9="55.72967"></scales>
<clustering>
<clus scale="   55.730">  1  9  2 -1</clus>
<clus scale="   77.498">  5  6 -1 -1</clus>
<clus scale="   81.218">  1  5  2 -1</clus>
<clus scale="   85.816">  7  8 -1 -1</clus>
<clus scale="   55.730">  1  5  2 -1</clus>
</clustering>
</event>
<event>
 9    1  0.1973774E-005  0.1419628E+03  0.7546771E-02  0.1239195E+00
         -2   -1    0    0    0  501 -0.00000000000E+00  0.00000000000E+00  0.86377683972E+02  0.86377683972E+02  0.00000000000E+00 0.  1.
          1   -1    0    0  502    0  0.00000000000E+00 -0.00000000000E+00 -0.96142852789E+03  0.96142852789E+03  0.00000000000E+00 0. -1.
        -24    2    1    2    0    0  0.17210731729E+01  0.58819538703E+01 -0.10527000685E+03  0.13128193235E+03  0.78202378134E+02 0.  0.
         23    2    1    2    0    0  0.64859005936E+02 -0.91935677017E+02 -0.57616732579E+01  0.14479671562E+03  0.90961709610E+02 0.  0.
         11    1    3    3    0    0  0.27969450446E+02 -0.60734131195E+01 -0.97207440879E+02  0.10133342522E+03  0.00000000000E+00 0. -1.
        -12    1    3    3    0    0 -0.26248377273E+02  0.11955366990E+02 -0.80625659730E+01  0.29948507131E+02  0.00000000000E+00 0.  1.
        -11    1    4    4    0    0 -0.20529891173E+02 -0.32206566187E+02 -0.12986353991E+02  0.40340856797E+02  0.00000000000E+00 0. -1.
         11    1    4    4    0    0  0.85388897109E+02 -0.59729110830E+02  0.72246807329E+01  0.10445585882E+03  0.00000000000E+00 0.  1.
         21    1    1    2  502  501 -0.66580079109E+02  0.86053723147E+02 -0.76401916381E+03  0.77172756389E+03  0.00000000000E+00 0. -1.
<scales pt_clust_5="13000.00000" pt_clust_6="13000.00000" pt_clust_7="13000.00000" pt_clust_8="13000.00000" pt_clust_9="108.99263"></scales>
<clustering>
<clus scale="   78.202">  5  6 -1 -1</clus>
<clus scale="   78.442">  1  5  2 -1</clus>
<clus scale="   90.962">  7  8 -1 -1</clus>
<clus scale="  108.993">  2  9  1 -1</clus>
<clus scale="  108.993">  2  5  1 -1</clus>
</clustering>
</event>
<event>
 9    1  0.1973774E-005  0.1691558E+03  0.7546771E-02  0.1188686E+00
         -2   -1    0    0    0  501 -0.00000000000E+00  0.00000000000E+00  0.59245580662E+02  0.59245580662E+02  0.00000000000E+00 0.  1.
          1   -1    0    0  502    0  0.00000000000E+00 -0.00000000000E+00 -0.11189393275E+04  0.11189393275E+04  0.00000000000E+00 0. -1.
        -24    2    1    2    0    0  0.75899993821E+02 -0.65128599591E+02 -0.13402011062E+03  0.19053354941E+03  0.91318671986E+02 0.  0.
         23    2    1    2    0    0  0.43252264737E+02 -0.99352771730E+02 -0.40863787335E+03  0.43215395793E+03  0.89612500066E+02 0.  0.
         13    1    3    3    0    0  0.46383919911E+02 -0.83219748883E+02 -0.71683018293E+02  0.11922856093E+03  0.00000000000E+00 0. -1.
        -14    1    3    3    0    0  0.29516073910E+02  0.18091149293E+02 -0.62337092329E+02  0.71304988478E+02  0.00000000000E+00 0.  1.
        -13    1    4    4    0    0 -0.24114061282E+02 -0.32679157636E+02 -0.18234900696E+03  0.18681695757E+03  0.00000000000E+00 0.  1.
         13    1    4    4    0    0  0.67366326019E+02 -0.66673614094E+02 -0.22628886638E+03  0.24533700036E+03  0.00000000000E+00 0. -1.
         21    1    1    2  502  501 -0.11915225856E+03  0.16448137132E+03 -0.51703576287E+03  0.55549740082E+03  0.00000000000E+00 0.  1.
<scales pt_clust_5="13000.00000" pt_clust_6="13000.00000" pt_clust_7="13000.00000" pt_clust_8="13000.00000" pt_clust_9="143.46880"></scales>
<clustering>
<clus scale="   89.613">  7  8 -1 -1</clus>
<clus scale="   91.319">  5  6 -1 -1</clus>
<clus scale="  135.431">  1  5  2 -1</clus>
<clus scale="  143.469">  1  9  2 -1</clus>
<clus scale="  169.156">  2  5  1 -1</clus>
</clustering>
</event>
<event>
 9    1  0.1973774E-005  0.9372742E+02  0.7546771E-02  0.1300082E+00
         -2   -1    0    0    0  501 -0.00000000000E+00  0.00000000000E+00  0.21999027997E+03  0.21999027997E+03  0.00000000000E+00 0.  1.
          1   -1    0    0  502    0  0.00000000000E+00 -0.00000000000E+00 -0.30594921973E+03  0.30594921973E+03  0.00000000000E+00 0. -1.
         23    2    1    2    0    0  0.10223566802E+02 -0.19975110008E+02  0.19777938732E+03  0.21876206934E+03  0.90755884641E+02 0.  0.
        -24    2    1    2    0    0 -0.99395812880E+01  0.44867561718E+02 -0.21867506900E+03  0.23751436732E+03  0.80513325046E+02 0.  0.
         11    1    4    4    0    0  0.74769043713E+01  0.62866153385E+02 -0.11960021554E+03  0.13532283214E+03  0.00000000000E+00 0. -1.
        -12    1    4    4    0    0 -0.17416485659E+02 -0.17998591667E+02 -0.99074853460E+02  0.10219153518E+03  0.00000000000E+00 0.  1.
        -13    1    3    3    0    0  0.10719521305E+01 -0.55795854331E+02  0.13185248235E+03  0.14317612770E+03  0.00000000000E+00 0.  1.
         13    1    3    3    0    0  0.91516146714E+01  0.35820744323E+02  0.65926904970E+02  0.75585941642E+02  0.00000000000E+00 0. -1.
         21    1    1    2  502  501 -0.28398551394E+00 -0.24892451710E+02 -0.65063258078E+02  0.69663063036E+02  0.00000000000E+00 0. -1.
<scales pt_clust_5="13000.00000" pt_clust_6="13000.00000" pt_clust_7="13000.00000" pt_clust_8="13000.00000" pt_clust_9="24.89407"></scales>
<clustering>
<clus scale="   24.894">  2  9  1 -1</clus>
<clus scale="   80.513">  5  6 -1 -1</clus>
<clus scale="   83.849">  2  5  1 -1</clus>
<clus scale="   90.756">  7  8 -1 -1</clus>
<clus scale="   24.894">  2  5  1 -1</clus>
</clustering>
</event>
<event>
 9    1  0.1973774E-005  0.2553188E+03  0.7546771E-02  0.1110412E+00
          1   -1    0    0  502    0  0.00000000000E+00  0.00000000000E+00  0.15353033952E+04  0.15353033952E+04  0.00000000000E+00 0. -1.
         -2   -1    0    0    0  501 -0.00000000000E+00 -0.00000000000E+00 -0.55689143045E+02  0.55689143045E+02  0.00000000000E+00 0.  1.
         23    2    1    2    0    0  0.29780668876E+02 -0.25920459724E+03  0.52193609938E+03  0.59039288397E+03  0.89847393640E+02 0.  0.
        -24    2    1    2    0    0  0.92891264925E+01  0.21165001814E+03  0.71228394924E+03  0.74760518391E+03  0.81750037397E+02 0.  0.
         13    1    4    4    0    0  0.25921160171E+02  0.13363084827E+03  0.55241330781E+03  0.56893723099E+03  0.00000000000E+00 0. -1.
        -14    1    4    4    0    0 -0.16632033678E+02  0.78019169871E+02  0.15987064143E+03  0.17866795292E+03  0.00000000000E+00 0.  1.
        -13    1    3    3    0    0 -0.27348237914E+01 -0.11961349529E+03  0.32874310830E+03  0.34983838951E+03  0.00000000000E+00 0. -1.
         13    1    3    3    0    0  0.32515492668E+02 -0.13959110195E+03  0.19319299107E+03  0.24055449447E+03  0.00000000000E+00 0.  1.
         21    1    1    2  502  501 -0.39069795369E+02  0.47554579099E+02  0.24539420354E+03  0.25299447036E+03  0.00000000000E+00 0. -1.
<scales pt_clust_5="13000.00000" pt_clust_6="13000.00000" pt_clust_7="13000.00000" pt_clust_8="13000.00000" pt_clust_9="61.54581"></scales>
<clustering>
<clus scale="   61.546">  1  9  2 -1</clus>
<clus scale="   81.750">  5  6 -1 -1</clus>
<clus scale="   89.847">  7  8 -1 -1</clus>
<clus scale="  252.583">  1  5  2 -1</clus>
<clus scale="   61.546">  1  5  2 -1</clus>
</clustering>
</event>
<event>
 9    1  0.1973774E-005  0.1002752E+03  0.7546771E-02  0.1284191E+00
         -4   -1    0    0    0  501 -0.00000000000E+00  0.00000000000E+00  0.17440635432E+03  0.17440635432E+03  0.00000000000E+00 0.  1.
          3   -1    0    0  502    0  0.00000000000E+00 -0.00000000000E+00 -0.44341779510E+03  0.44341779510E+03  0.00000000000E+00 0. -1.
        -24    2    1    2    0    0 -0.38754878735E+02 -0.14364922163E+02  0.15046331197E+03  0.17625900653E+03  0.81974005134E+02 0.  0.
         23    2    1    2    0    0  0.59996163859E+02  0.19861745963E+02 -0.38555246381E+03  0.40116552715E+03  0.91044215598E+02 0.  0.
         13    1    3    3    0    0 -0.43334191623E+02  0.24261005554E+02  0.10680528119E+03  0.11778716672E+03  0.00000000000E+00 0. -1.
        -14    1    3    3    0    0  0.45793128880E+01 -0.38625927717E+02  0.43658030782E+02  0.58471839806E+02  0.00000000000E+00 0.  1.
        -13    1    4    4    0    0  0.62040403114E+02 -0.23517488120E+02 -0.20527183555E+03  0.21572809353E+03  0.00000000000E+00 0.  1.
         13    1    4    4    0    0 -0.20442392559E+01  0.43379234083E+02 -0.18028062826E+03  0.18543743362E+03  0.00000000000E+00 0. -1.
         21    1    1    2  502  501 -0.21241285123E+02 -0.54968237999E+01 -0.33922288938E+02  0.40399615746E+02  0.00000000000E+00 0. -1.
<scales pt_clust_5="13000.00000" pt_clust_6="13000.00000" pt_clust_7="13000.00000" pt_clust_8="13000.00000" pt_clust_9="21.94100"></scales>
<clustering>
<clus scale="   21.941">  2  9  1 -1</clus>
<clus scale="   81.974">  5  6 -1 -1</clus>
<clus scale="   91.044">  7  8 -1 -1</clus>
<clus scale="   92.118">  1  5  2 -1</clus>
<clus scale="   21.941">  2  5  1 -1</clus>
</clustering>
</event>
<event>
 9    1  0.1973774E-005  0.9866731E+02  0.7546771E-02  0.1289108E+00
          1   -1    0    0  502    0  0.00000000000E+00  0.00000000000E+00  0.22197713854E+03  0.22197713854E+03  0.00000000000E+00 0. -1.
         -2   -1    0    0    0  501 -0.00000000000E+00 -0.00000000000E+00 -0.14336120881E+03  0.14336120881E+03  0.00000000000E+00 0.  1.
        -24    2    1    2    0    0 -0.63033583870E+01  0.37889576971E+02 -0.11004138097E+03  0.14142741303E+03  0.80107772790E+02 0.  0.
         23    2    1    2    0    0 -0.98563004017E+01 -0.19910441317E+02  0.16548011162E+03  0.19042113813E+03  0.91558561444E+02 0.  0.
         11    1    3    3    0    0 -0.32514307751E+02  0.35912403042E+01 -0.86012994624E+02  0.92023434296E+02  0.00000000000E+00 0. -1.
        -12    1    3    3    0    0  0.26210949364E+02  0.34298336667E+02 -0.24028386347E+02  0.49403978737E+02  0.00000000000E+00 0.  1.
        -11    1    4    4    0    0 -0.15844198921E+02 -0.54394108025E+02  0.12269843076E+03  0.13514681846E+03  0.00000000000E+00 0. -1.
         11    1    4    4    0    0  0.59878985193E+01  0.34483666707E+02  0.42781680852E+02  0.55274319668E+02  0.00000000000E+00 0.  1.
         21    1    1    2  502  501  0.16159658789E+02 -0.17979135654E+02  0.23177199090E+02  0.33489796188E+02  0.00000000000E+00 0.  1.
<scales pt_clust_5="13000.00000" pt_clust_6="13000.00000" pt_clust_7="13000.00000" pt_clust_8="13000.00000" pt_clust_9="24.17403"></scales>
<clustering>
<clus scale="   24.174">  1  9  2 -1</clus>
<clus scale="   80.108">  5  6 -1 -1</clus>
<clus scale="   88.145">  2  5  1 -1</clus>
<clus scale="   91.559">  7  8 -1 -1</clus>
<clus scale="   24.174">  1  5  2 -1</clus>
</clustering>
</event>
<event>
 9    1  0.1973774E-005  0.1106229E+03  0.7546771E-02  0.1263562E+00
          1   -1    0    0  502    0  0.00000000000E+00  0.00000000000E+00  0.93042870546E+03  0.93042870546E+03  0.00000000000E+00 0. -1.
         -2   -1    0    0    0  501 -0.00000000000E+00 -0.00000000000E+00 -0.30696627055E+02  0.30696627055E+02  0.00000000000E+00 0.  1.
        -24    2    1    2    0    0  0.63193864297E+02 -0.19172393399E+02  0.11002285206E+03  0.15128321042E+03  0.80128251124E+02 0.  0.
         23    2    1    2    0    0 -0.28242172026E+02  0.68358125496E+02  0.46191465862E+03  0.47654025341E+03  0.90857072747E+02 0.  0.
         13    1    3    3    0    0  0.21579440160E+02  0.10674810717E+02  0.94869729150E+02  0.97876909077E+02  0.00000000000E+00 0. -1.
        -14    1    3    3    0    0  0.41614424138E+02 -0.29847204116E+02  0.15153122906E+02  0.53406301348E+02  0.00000000000E+00 0.  1.
        -11    1    4    4    0    0 -0.58527004781E+02  0.50766227443E+02  0.37330449078E+03  0.38125957427E+03  0.00000000000E+00 0. -1.
         11    1    4    4    0    0  0.30284832754E+02  0.17591898053E+02  0.88610167843E+02  0.95280679139E+02  0.00000000000E+00 0.  1.
         21    1    1    2  502  501 -0.34951692271E+02 -0.49185732098E+02  0.32779456773E+03  0.33330186869E+03  0.00000000000E+00 0. -1.
<scales pt_clust_5="13000.00000" pt_clust_6="13000.00000" pt_clust_7="13000.00000" pt_clust_8="13000.00000" pt_clust_9="60.33951"></scales>
<clustering>
<clus scale="   60.340">  1  9  2 -1</clus>
<clus scale="   80.128">  5  6 -1 -1</clus>
<clus scale="   90.857">  7  8 -1 -1</clus>
<clus scale="  101.995">  2  5  1 -1</clus>
<clus scale="   60.340">  1  5  2 -1</clus>
</clustering>
</event>
<event>
 9    1  0.1973774E-005  0.1459992E+03  0.7546771E-02  0.1209877E+00
          1   -1    0    0  502    0  0.00000000000E+00  0.00000000000E+00  0.18488096950E+03  0.18488096950E+03  0.00000000000E+00 0. -1.
         -2   -1    0    0    0  501 -0.00000000000E+00 -0.00000000000E+00 -0.48439745186E+03  0.48439745186E+03  0.00000000000E+00 0.  1.
        -24    2    1    2    0    0  0.75368919310E+02 -0.65981882559E+02 -0.36941143456E+03  0.39143022939E+03  0.81967881960E+02 0.  0.
         23    2    1    2    0    0 -0.14302445988E+03  0.49541224571E+02  0.47939028301E+01  0.18252918006E+03  0.10189990684E+03 0.  0.
         11    1    3    3    0    0  0.72001950096E+02 -0.68177446117E+02 -0.21281455572E+03  0.23478177123E+03  0.00000000000E+00 0. -1.
        -12    1    3    3    0    0  0.33669692134E+01  0.21955635571E+01 -0.15659687884E+03  0.15664845815E+03  0.00000000000E+00 0.  1.
        -13    1    4    4    0    0 -0.86435192399E+02  0.52798305699E+02  0.47196014032E+02  0.11174152008E+03  0.00000000000E+00 0.  1.
         13    1    4    4    0    0 -0.56589267476E+02 -0.32570811281E+01 -0.42402111202E+02  0.70787659979E+02  0.00000000000E+00 0. -1.
         21    1    1    2  502  501  0.67655540565E+02  0.16440657988E+02  0.65101049367E+02  0.95319011917E+02  0.00000000000E+00 0. -1.
<scales pt_clust_5="13000.00000" pt_clust_6="13000.00000" pt_clust_7="13000.00000" pt_clust_8="13000.00000" pt_clust_9="69.62447"></scales>
<clustering>
<clus scale="   69.624">  1  9  2 -1</clus>
<clus scale="   81.968">  5  6 -1 -1</clus>
<clus scale="  101.900">  7  8 -1 -1</clus>
<clus scale="  132.857">  2  5  1 -1</clus>
<clus scale="   69.624">  1  5  2 -1</clus>
</clustering>
</event>
<event>
 9    1  0.1973774E-005  0.3811145E+03  0.7546771E-02  0.1050800E+00
          1   -1    0    0  502    0  0.00000000000E+00  0.00000000000E+00  0.86523932842E+03  0.86523932842E+03  0.00000000000E+00 0. -1.
         -2   -1    0    0    0  501 -0.00000000000E+00 -0.00000000000E+00 -0.58047436873E+03  0.58047436873E+03  0.00000000000E+00 0.  1.
        -24    2    1    2    0    0 -0.14795264488E+01 -0.36362035819E+03 -0.42819726074E+03  0.56706299962E+03  0.77366643622E+02 0.  0.
         23    2    1    2    0    0  0.19493152885E+01  0.42880888099E+03  0.55120732294E+03  0.70425341812E+03  0.90898337834E+02 0.  0.
         13    1    3    3    0    0 -0.19189012997E+02 -0.18162556513E+03 -0.16211376157E+03  0.24420674810E+03  0.00000000000E+00 0. -1.
        -14    1    3    3    0    0  0.17709486548E+02 -0.18199479306E+03 -0.26608349916E+03  0.32285625152E+03  0.00000000000E+00 0.  1.
        -11    1    4    4    0    0  0.19927742941E+02  0.19771313950E+02  0.47010752418E+02  0.54754275056E+02  0.00000000000E+00 0.  1.
         11    1    4    4    0    0 -0.17978427652E+02  0.40903756704E+03  0.50419657052E+03  0.64949914306E+03  0.00000000000E+00 0. -1.
         21    1    1    2  502  501 -0.46978883964E+00 -0.65188522802E+02  0.16175489749E+03  0.17439727942E+03  0.00000000000E+00 0. -1.
<scales pt_clust_5="13000.00000" pt_clust_6="13000.00000" pt_clust_7="13000.00000" pt_clust_8="13000.00000" pt_clust_9="65.19022"></scales>
<clustering>
<clus scale="   65.190">  1  9  2 -1</clus>
<clus scale="   77.367">  5  6 -1 -1</clus>
<clus scale="   90.898">  7  8 -1 -1</clus>
<clus scale="  378.116">  2  5  1 -1</clus>
<clus scale="   65.190">  1  5  2 -1</clus>
</clustering>
</event>
<event>
 9    1  0.2157616E-005  0.1403465E+03  0.7546771E-02  0.1215603E+00
          3   -1    0    0  502    0  0.00000000000E+00  0.00000000000E+00  0.62357891431E+03  0.62357891431E+03  0.00000000000E+00 0. -1.
         -4   -1    0    0    0  501 -0.00000000000E+00 -0.00000000000E+00 -0.92500865930E+02  0.92500865930E+02  0.00000000000E+00 0.  1.
         23    2    1    2    0    0  0.35963727968E+02 -0.98355459795E+02 -0.22050714561E+02  0.14247086626E+03  0.94045348215E+02 0.  0.
        -24    2    1    2    0    0 -0.52911104348E+02  0.86454601738E+02  0.49713888066E+03  0.51391208905E+03  0.81759314329E+02 0.  0.
         11    1    4    4    0    0 -0.74496891660E+02  0.58386954934E+02  0.37305068959E+03  0.38487093989E+03  0.00000000000E+00 0. -1.
        -12    1    4    4    0    0  0.21585787311E+02  0.28067646805E+02  0.12408819107E+03  0.12904114915E+03  0.00000000000E+00 0.  1.
        -13    1    3    3    0    0  0.55340820684E+02 -0.10618790755E+03 -0.16752627946E+02  0.12090958890E+03  0.00000000000E+00 0.  1.
         13    1    3    3    0    0 -0.19377092716E+02  0.78324477558E+01 -0.52980866151E+01  0.21561277369E+02  0.00000000000E+00 0. -1.
         21    1    1    2  502  501  0.16947376380E+02  0.11900858056E+02  0.55989882279E+02  0.59696824926E+02  0.00000000000E+00 0.  1.
<scales pt_clust_5="13000.00000" pt_clust_6="13000.00000" pt_clust_7="13000.00000" pt_clust_8="13000.00000" pt_clust_9="20.70855"></scales>
<clustering>
<clus scale="   20.709">  1  9  2 -1</clus>
<clus scale="   81.759">  5  6 -1 -1</clus>
<clus scale="   94.045">  7  8 -1 -1</clus>
<clus scale="  132.428">  1  5  2 -1</clus>
<clus scale="   20.709">  1  5  2 -1</clus>
</clustering>
</event>
<event>
 9    1  0.1973774E-005  0.1455906E+03  0.7546771E-02  0.1207851E+00
          1   -1    0    0  502    0  0.00000000000E+00  0.00000000000E+00  0.19794940464E+03  0.19794940464E+03  0.00000000000E+00 0. -1.
         -2   -1    0    0    0  501 -0.00000000000E+00 -0.00000000000E+00 -0.20758598754E+03  0.20758598754E+03  0.00000000000E+00 0.  1.
        -24    2    1    2    0    0  0.36014258681E+00 -0.13956653387E+03 -0.96516426593E+02  0.18804479498E+03  0.81033803043E+02 0.  0.
         23    2    1    2    0    0 -0.91526562180E+01  0.77046941509E+02  0.12376555636E+02  0.11983432420E+03  0.90482505580E+02 0.  0.
         13    1    3    3    0    0 -0.29778000663E+02 -0.11484082014E+03 -0.53963378696E+02  0.13033491295E+03  0.00000000000E+00 0. -1.
        -14    1    3    3    0    0  0.30138143249E+02 -0.24725713735E+02 -0.42553047898E+02  0.57709882027E+02  0.00000000000E+00 0.  1.
        -13    1    4    4    0    0  0.27589835378E+02  0.36384564790E+02  0.37934773182E+02  0.59363983926E+02  0.00000000000E+00 0. -1.
         13    1    4    4    0    0 -0.36742491596E+02  0.40662376719E+02 -0.25558217546E+02  0.60470340277E+02  0.00000000000E+00 0.  1.
         21    1    1    2  502  501  0.87925136312E+01  0.62519592365E+02  0.74503288060E+02  0.97656273005E+02  0.00000000000E+00 0. -1.
<scales pt_clust_5="13000.00000" pt_clust_6="13000.00000" pt_clust_7="13000.00000" pt_clust_8="13000.00000" pt_clust_9="63.13484"></scales>
<clustering>
<clus scale="   63.135">  1  9  2 -1</clus>
<clus scale="   81.034">  5  6 -1 -1</clus>
<clus scale="   90.483">  7  8 -1 -1</clus>
<clus scale="  139.914">  2  5  1 -1</clus>
<clus scale="   63.135">  1  5  2 -1</clus>
</clustering>
</event>
<event>
 9    1  0.1973774E-005  0.1187415E+03  0.7546771E-02  0.1250347E+00
         -2   -1    0    0    0  501 -0.00000000000E+00  0.00000000000E+00  0.11393338511E+03  0.11393338511E+03  0.00000000000E+00 0.  1.
          1   -1    0    0  502    0  0.00000000000E+00 -0.00000000000E+00 -0.20295629431E+03  0.20295629431E+03  0.00000000000E+00 0. -1.
        -24    2    1    2    0    0  0.75498127056E+02 -0.38753602031E+01  0.39522629430E+02  0.11568200141E+03  0.78136429451E+02 0.  0.
         23    2    1    2    0    0 -0.64927687217E+02  0.24792341303E+02 -0.64827526343E+02  0.13331629869E+03  0.93489906251E+02 0.  0.
         11    1    3    3    0    0  0.54298239324E+02  0.62001314496E+01 -0.14702876320E+02  0.56594301796E+02  0.00000000000E+00 0. -1.
        -12    1    3    3    0    0  0.21199887733E+02 -0.10075491653E+02  0.54225505750E+02  0.59087699614E+02  0.00000000000E+00 0.  1.
        -13    1    4    4    0    0 -0.85974030048E+02  0.19088018708E+02 -0.68021315095E+02  0.11127796551E+03  0.00000000000E+00 0. -1.
         13    1    4    4    0    0  0.21046342832E+02  0.57043225948E+01  0.31937887525E+01  0.22038333182E+02  0.00000000000E+00 0.  1.
         21    1    1    2  502  501 -0.10570439840E+02 -0.20916981100E+02 -0.63718012287E+02  0.67891379324E+02  0.00000000000E+00 0.  1.
<scales pt_clust_5="13000.00000" pt_clust_6="13000.00000" pt_clust_7="13000.00000" pt_clust_8="13000.00000" pt_clust_9="23.43617"></scales>
<clustering>
<clus scale="   23.436">  2  9  1 -1</clus>
<clus scale="   78.136">  5  6 -1 -1</clus>
<clus scale="   93.490">  7  8 -1 -1</clus>
<clus scale="  107.072">  1  5  2 -1</clus>
<clus scale="   23.436">  2  5  1 -1</clus>
</clustering>
</event>
<event>
 9    1  0.1973774E-005  0.1602430E+03  0.7546771E-02  0.1190338E+00
         -2   -1    0    0    0  501 -0.00000000000E+00  0.00000000000E+00  0.85808573403E+02  0.85808573403E+02  0.00000000000E+00 0.  1.
          1   -1    0    0  502    0  0.00000000000E+00 -0.00000000000E+00 -0.38069150050E+03  0.38069150050E+03  0.00000000000E+00 0. -1.
        -24    2    1    2    0    0  0.10634282555E+03  0.69372953826E+02 -0.75559961724E+02  0.16809631410E+03  0.80160212875E+02 0.  0.
         23    2    1    2    0    0 -0.13151896719E+03 -0.47865222034E+02 -0.16800792478E+03  0.23733286637E+03  0.92260004643E+02 0.  0.
         13    1    3    3    0    0  0.96350675972E+02  0.25173127274E+02 -0.71510505141E+02  0.12260053606E+03  0.00000000000E+00 0. -1.
        -14    1    3    3    0    0  0.99921495801E+01  0.44199826552E+02 -0.40494565835E+01  0.45495778036E+02  0.00000000000E+00 0.  1.
        -13    1    4    4    0    0 -0.99882063743E+02  0.27409869590E+01 -0.67975497019E+02  0.12084952570E+03  0.00000000000E+00 0.  1.
         13    1    4    4    0    0 -0.31636903448E+02 -0.50606208993E+02 -0.10003242776E+03  0.11648334067E+03  0.00000000000E+00 0. -1.
         21    1    1    2  502  501  0.25176141640E+02 -0.21507731792E+02 -0.51315040591E+02  0.61070893440E+02  0.00000000000E+00 0.  1.
<scales pt_clust_5="13000.00000" pt_clust_6="13000.00000" pt_clust_7="13000.00000" pt_clust_8="13000.00000" pt_clust_9="33.11224"></scales>
<clustering>
<clus scale="   33.112">  2  9  1 -1</clus>
<clus scale="   80.160">  5  6 -1 -1</clus>
<clus scale="   92.260">  7  8 -1 -1</clus>
<clus scale="  153.595">  1  5  2 -1</clus>
<clus scale="   33.112">  2  5  1 -1</clus>
</clustering>
</event>
<event>
 9    1  0.1973774E-005  0.1455833E+03  0.7546771E-02  0.1208374E+00
          1   -1    0    0  502    0  0.00000000000E+00  0.00000000000E+00  0.76388261769E+03  0.76388261769E+03  0.00000000000E+00 0. -1.
         -2   -1    0    0    0  501 -0.00000000000E+00 -0.00000000000E+00 -0.46202131801E+02  0.46202131801E+02  0.00000000000E+00 0.  1.
         23    2    1    2    0    0  0.75177066070E+02 -0.70063071991E+02  0.13651825934E+03  0.19399215075E+03  0.91843857169E+02 0.  0.
        -24    2    1    2    0    0 -0.93886854859E+02  0.10125484682E+03  0.38778905692E+03  0.41932835975E+03  0.79928937843E+02 0.  0.
         11    1    4    4    0    0 -0.89436623099E+02  0.48172030472E+02  0.29900250716E+03  0.31578782966E+03  0.00000000000E+00 0. -1.
        -12    1    4    4    0    0 -0.44502317600E+01  0.53082816345E+02  0.88786549760E+02  0.10354053009E+03  0.00000000000E+00 0.  1.
        -11    1    3    3    0    0  0.29310526707E+02 -0.74545192613E+02  0.12148851555E+03  0.14551821923E+03  0.00000000000E+00 0.  1.
         11    1    3    3    0    0  0.45866539363E+02  0.44821206220E+01  0.15029743786E+02  0.48473931516E+02  0.00000000000E+00 0. -1.
         21    1    1    2  502  501  0.18709788789E+02 -0.31191774826E+02  0.19337316963E+03  0.19676423899E+03  0.00000000000E+00 0. -1.
<scales pt_clust_5="13000.00000" pt_clust_6="13000.00000" pt_clust_7="13000.00000" pt_clust_8="13000.00000" pt_clust_9="36.37283"></scales>
<clustering>
<clus scale="   36.373">  1  9  2 -1</clus>
<clus scale="   79.929">  5  6 -1 -1</clus>
<clus scale="   91.844">  7  8 -1 -1</clus>
<clus scale="  138.376">  1  5  2 -1</clus>
<clus scale="   36.373">  1  5  2 -1</clus>
</clustering>
</event>
<event>
 9    1  0.1973774E-005  0.9823734E+02  0.7546771E-02  0.1290989E+00
         -2   -1    0    0    0  501 -0.00000000000E+00  0.00000000000E+00  0.10750833977E+03  0.10750833977E+03  0.00000000000E+00 0.  1.
          1   -1    0    0  502    0  0.00000000000E+00 -0.00000000000E+00 -0.28022045120E+03  0.28022045120E+03  0.00000000000E+00 0. -1.
        -24    2    1    2    0    0 -0.24290431613E+02 -0.12533797034E+02  0.69007905284E+02  0.10975580794E+03  0.80852490684E+02 0.  0.
         23    2    1    2    0    0  0.51188633720E+02  0.20435095150E+02 -0.18067512785E+03  0.21079841757E+03  0.93566028502E+02 0.  0.
         11    1    3    3    0    0 -0.37312810645E+02 -0.36269746395E+02  0.24163449860E+02  0.57372577517E+02  0.00000000000E+00 0. -1.
        -12    1    3    3    0    0  0.13022379032E+02  0.23735949361E+02  0.44844455424E+02  0.52383230427E+02  0.00000000000E+00 0.  1.
        -13    1    4    4    0    0  0.29394732315E+01  0.31011989484E+02 -0.93931913357E+01  0.32536380225E+02  0.00000000000E+00 0.  1.
         13    1    4    4    0    0  0.48249160488E+02 -0.10576894334E+02 -0.17128193652E+03  0.17826203734E+03  0.00000000000E+00 0. -1.
         21    1    1    2  502  501 -0.26898202106E+02 -0.79012981163E+01 -0.61044888861E+02  0.67174565458E+02  0.00000000000E+00 0.  1.
<scales pt_clust_5="13000.00000" pt_clust_6="13000.00000" pt_clust_7="13000.00000" pt_clust_8="13000.00000" pt_clust_9="28.03469"></scales>
<clustering>
<clus scale="   28.035">  2  9  1 -1</clus>
<clus scale="   80.852">  5  6 -1 -1</clus>
<clus scale="   86.215">  1  5  2 -1</clus>
<clus scale="   93.566">  7  8 -1 -1</clus>
<clus scale="   28.035">  2  5  1 -1</clus>
</clustering>
</event>
<event>
 9    1  0.1973774E-005  0.1655642E+03  0.7546771E-02  0.1183971E+00
         -2   -1    0    0    0  501 -0.00000000000E+00  0.00000000000E+00  0.20282071830E+03  0.20282071830E+03  0.00000000000E+00 0.  1.
          1   -1    0    0  502    0  0.00000000000E+00 -0.00000000000E+00 -0.71589976033E+03  0.71589976033E+03  0.00000000000E+00 0. -1.
        -24    2    1    2    0    0  0.11128252204E+03 -0.77444621272E+02  0.14380738370E+03  0.21376330594E+03  0.81441502229E+02 0.  0.
         23    2    1    2    0    0 -0.16119220925E+03  0.85068527866E+02 -0.55526944200E+03  0.59148862106E+03  0.91186911676E+02 0.  0.
         11    1    3    3    0    0  0.33371702959E+02 -0.59781588139E+02  0.30081148942E+02  0.74782246292E+02  0.00000000000E+00 0. -1.
        -12    1    3    3    0    0  0.77910819077E+02 -0.17663033133E+02  0.11372623476E+03  0.13898105965E+03  0.00000000000E+00 0.  1.
        -13    1    4    4    0    0 -0.22941248087E+02  0.34504227221E+02 -0.23992830387E+03  0.24347984220E+03  0.00000000000E+00 0. -1.
         13    1    4    4    0    0 -0.13825096116E+03  0.50564300644E+02 -0.31534113813E+03  0.34800877885E+03  0.00000000000E+00 0.  1.
         21    1    1    2  502  501  0.49909687209E+02 -0.76239065935E+01 -0.10161698372E+03  0.11346855163E+03  0.00000000000E+00 0.  1.
<scales pt_clust_5="13000.00000" pt_clust_6="13000.00000" pt_clust_7="13000.00000" pt_clust_8="13000.00000" pt_clust_9="50.48862"></scales>
<clustering>
<clus scale="   50.489">  2  9  1 -1</clus>
<clus scale="   81.442">  5  6 -1 -1</clus>
<clus scale="   91.187">  7  8 -1 -1</clus>
<clus scale="  160.403">  1  5  2 -1</clus>
<clus scale="   50.489">  2  5  1 -1</clus>
</clustering>
</event>
<event>
 9    1  0.1973774E-005  0.1865196E+03  0.7546771E-02  0.1174925E+00
         -2   -1    0    0    0  501 -0.00000000000E+00  0.00000000000E+00  0.27352211324E+03  0.27352211324E+03  0.00000000000E+00 0.  1.
          1   -1    0    0  502    0  0.00000000000E+00 -0.00000000000E+00 -0.27840710130E+03  0.27840710130E+03  0.00000000000E+00 0. -1.
         23    2    1    2    0    0 -0.88313990098E+02 -0.11850390918E+03  0.82707901946E+02  0.19400040682E+03  0.94620417796E+02 0.  0.
        -24    2    1    2    0    0  0.67790964152E+02 -0.87945675506E+02 -0.54130139975E+02  0.14778033341E+03  0.81110407640E+02 0.  0.
         11    1    4    4    0    0  0.34618699141E+02 -0.92688134118E+02 -0.56934286925E+02  0.11415365769E+03  0.00000000000E+00 0. -1.
        -12    1    4    4    0    0  0.33172265011E+02  0.47424586125E+01  0.28041469500E+01  0.33626675717E+02  0.00000000000E+00 0.  1.
        -13    1    3    3    0    0 -0.66306528732E+02 -0.17657072711E+02  0.14077035104E+02  0.70046348131E+02  0.00000000000E+00 0.  1.
         13    1    3    3    0    0 -0.22007461366E+02 -0.10084683647E+03  0.68630866842E+02  0.12395405869E+03  0.00000000000E+00 0. -1.
         21    1    1    2  502  501  0.20523025947E+02  0.20644958469E+03 -0.33462750031E+02  0.21014847430E+03  0.00000000000E+00 0.  1.
<scales pt_clust_5="13000.00000" pt_clust_6="13000.00000" pt_clust_7="13000.00000" pt_clust_8="13000.00000" pt_clust_9="160.73746"></scales>
<clustering>
<clus scale="   81.110">  5  6 -1 -1</clus>
<clus scale="   94.620">  7  8 -1 -1</clus>
<clus scale="  137.510">  2  5  1 -1</clus>
<clus scale="  160.737">  2  9  1 -1</clus>
<clus scale="  137.510">  2  5  1 -1</clus>
</clustering>
</event>
<event>
 9    1  0.1973774E-005  0.9184176E+02  0.7546771E-02  0.1307005E+00
          1   -1    0    0  502    0  0.00000000000E+00  0.00000000000E+00  0.68699003063E+03  0.68699003063E+03  0.00000000000E+00 0. -1.
         -2   -1    0    0    0  501 -0.00000000000E+00 -0.00000000000E+00 -0.24471087158E+02  0.24471087158E+02  0.00000000000E+00 0.  1.
         23    2    1    2    0    0  0.15347209099E+02  0.14546528337E+02  0.10102734102E+03  0.13721264989E+03  0.90408237130E+02 0.  0.
        -24    2    1    2    0    0  0.21166115937E+02 -0.16645417020E+02  0.33030781431E+03  0.34018956049E+03  0.76815431410E+02 0.  0.
         13    1    4    4    0    0  0.17253209079E+02 -0.47289948016E+02  0.21507103315E+03  0.22088359311E+03  0.00000000000E+00 0. -1.
        -14    1    4    4    0    0  0.39129068580E+01  0.30644530997E+02  0.11523678116E+03  0.11930596738E+03  0.00000000000E+00 0.  1.
        -11    1    3    3    0    0 -0.13253595940E+02 -0.32059369946E+02  0.58203212772E+02  0.67757471793E+02  0.00000000000E+00 0. -1.
         11    1    3    3    0    0  0.28600805039E+02  0.46605898283E+02  0.42824128252E+02  0.69455178095E+02  0.00000000000E+00 0.  1.
         21    1    1    2  502  501 -0.36513325036E+02  0.20988886827E+01  0.23118378814E+03  0.23405890741E+03  0.00000000000E+00 0. -1.
<scales pt_clust_5="13000.00000" pt_clust_6="13000.00000" pt_clust_7="13000.00000" pt_clust_8="13000.00000" pt_clust_9="36.57360"></scales>
<clustering>
<clus scale="   36.574">  1  9  2 -1</clus>
<clus scale="   76.815">  5  6 -1 -1</clus>
<clus scale="   78.498">  1  5  2 -1</clus>
<clus scale="   90.408">  7  8 -1 -1</clus>
<clus scale="   36.574">  1  5  2 -1</clus>
</clustering>
</event>
<event>
 9    1  0.1973774E-005  0.8405085E+02  0.7546771E-02  0.1318907E+00
          1   -1    0    0  502    0  0.00000000000E+00  0.00000000000E+00  0.22580118617E+03  0.22580118617E+03  0.00000000000E+00 0. -1.
         -2   -1    0    0    0  501 -0.00000000000E+00 -0.00000000000E+00 -0.13257954884E+03  0.13257954884E+03  0.00000000000E+00 0.  1.
        -24    2    1    2    0    0 -0.50348247267E+01  0.17611714255E+02 -0.10016016539E+03  0.12963160799E+03  0.80229502793E+02 0.  0.
         23    2    1    2    0    0 -0.15688224243E+02 -0.39034016610E+02  0.15423901505E+03  0.17955037071E+03  0.81724457930E+02 0.  0.
         11    1    3    3    0    0 -0.18686452435E+02 -0.22123649285E+02 -0.75618463521E+02  0.80974016743E+02  0.00000000000E+00 0. -1.
        -12    1    3    3    0    0  0.13651627708E+02  0.39735363540E+02 -0.24541701872E+02  0.48657591243E+02  0.00000000000E+00 0.  1.
        -11    1    4    4    0    0 -0.23995430789E+02  0.13506441529E+02  0.99431798926E+02  0.10317406311E+03  0.00000000000E+00 0. -1.
         11    1    4    4    0    0  0.83072065457E+01 -0.52540458140E+02  0.54807216125E+02  0.76376307593E+02  0.00000000000E+00 0.  1.
         21    1    1    2  502  501  0.20723048970E+02  0.21422302355E+02  0.39142787668E+02  0.49198756318E+02  0.00000000000E+00 0.  1.
<scales pt_clust_5="13000.00000" pt_clust_6="13000.00000" pt_clust_7="13000.00000" pt_clust_8="13000.00000" pt_clust_9="29.80537"></scales>
<clustering>
<clus scale="   29.805">  1  9  2 -1</clus>
<clus scale="   80.230">  5  6 -1 -1</clus>
<clus scale="   81.724">  7  8 -1 -1</clus>
<clus scale="   82.598">  2  5  1 -1</clus>
<clus scale="   29.805">  1  5  2 -1</clus>
</clustering>
</event>
<event>
 9    1  0.1973774E-005  0.1120455E+03  0.7546771E-02  0.1261605E+00
         -2   -1    0    0    0  501 -0.00000000000E+00  0.00000000000E+00  0.65270802796E+03  0.65270802796E+03  0.00000000000E+00 0.  1.
          1   -1    0    0  502    0  0.00000000000E+00 -0.00000000000E+00 -0.28948166598E+02  0.28948166598E+02  0.00000000000E+00 0. -1.
         23    2    1    2    0    0 -0.68862202120E+01  0.70030402331E+02  0.44763934005E+03  0.46273231401E+03  0.93747204724E+02 0.  0.
        -24    2    1    2    0    0 -0.93999079458E+01 -0.46658652710E+02  0.16116149049E+03  0.18674859105E+03  0.81465465693E+02 0.  0.
         11    1    4    4    0    0 -0.19253258609E+02 -0.59074659499E+02  0.67450232432E+02  0.91706255060E+02  0.00000000000E+00 0. -1.
        -12    1    4    4    0    0  0.98533506632E+01  0.12416006789E+02  0.93711258059E+02  0.95042335992E+02  0.00000000000E+00 0.  1.
        -13    1    3    3    0    0 -0.44152894738E+02  0.42823840557E+02  0.34153462833E+03  0.34702919443E+03  0.00000000000E+00 0.  1.
         13    1    3    3    0    0  0.37266674526E+02  0.27206561774E+02  0.10610471171E+03  0.11570311958E+03  0.00000000000E+00 0. -1.
         21    1    1    2  502  501  0.16286128158E+02 -0.23371749621E+02  0.14959030819E+02  0.32175289490E+02  0.00000000000E+00 0.  1.
<scales pt_clust_5="13000.00000" pt_clust_6="13000.00000" pt_clust_7="13000.00000" pt_clust_8="13000.00000" pt_clust_9="28.48643"></scales>
<clustering>
<clus scale="   28.486">  2  9  1 -1</clus>
<clus scale="   81.465">  5  6 -1 -1</clus>
<clus scale="   93.747">  7  8 -1 -1</clus>
<clus scale="  101.992">  2  5  1 -1</clus>
<clus scale="   28.486">  2  5  1 -1</clus>
</clustering>
</event>
<event>
 9    1  0.1973774E-005  0.1401224E+03  0.7546771E-02  0.1215382E+00
         -2   -1    0    0    0  501 -0.00000000000E+00  0.00000000000E+00  0.24331396378E+03  0.24331396378E+03  0.00000000000E+00 0.  1.
          1   -1    0    0  502    0  0.00000000000E+00 -0.00000000000E+00 -0.27970547123E+03  0.27970547123E+03  0.00000000000E+00 0. -1.
        -24    2    1    2    0    0 -0.27802572465E+01 -0.10873639339E+03  0.19739724824E+03  0.23867143740E+03  0.78530556743E+02 0.  0.
         23    2    1    2    0    0  0.26066981389E+02  0.10106304249E+03 -0.20247395060E+03  0.24457653984E+03  0.89043568499E+02 0.  0.
         13    1    3    3    0    0  0.24435691186E+02 -0.28608874630E+02  0.21149906333E+02  0.43161200739E+02  0.00000000000E+00 0. -1.
        -14    1    3    3    0    0 -0.27215948433E+02 -0.80127518757E+02  0.17624734190E+03  0.19551023666E+03  0.00000000000E+00 0.  1.
        -13    1    4    4    0    0  0.30549060670E+02  0.46239743771E+02 -0.28914896539E+02  0.62509441317E+02  0.00000000000E+00 0.  1.
         13    1    4    4    0    0 -0.44820792808E+01  0.54823298718E+02 -0.17355905406E+03  0.18206709852E+03  0.00000000000E+00 0. -1.
         21    1    1    2  502  501 -0.23286724143E+02  0.76733508971E+01 -0.31314805093E+02  0.39771457772E+02  0.00000000000E+00 0. -1.
<scales pt_clust_5="13000.00000" pt_clust_6="13000.00000" pt_clust_7="13000.00000" pt_clust_8="13000.00000" pt_clust_9="24.51840"></scales>
<clustering>
<clus scale="   24.518">  2  9  1 -1</clus>
<clus scale="   78.531">  5  6 -1 -1</clus>
<clus scale="   89.044">  7  8 -1 -1</clus>
<clus scale="  133.688">  1  5  2 -1</clus>
<clus scale="   24.518">  2  5  1 -1</clus>
</clustering>
</event>
<event>
 9    1  0.1973774E-005  0.1061020E+03  0.7546771E-02  0.1273973E+00
          1   -1    0    0  502    0  0.00000000000E+00  0.00000000000E+00  0.90568920060E+02  0.90568920060E+02  0.00000000000E+00 0. -1.
         -2   -1    0    0    0  501 -0.00000000000E+00 -0.00000000000E+00 -0.22999827139E+03  0.22999827139E+03  0.00000000000E+00 0.  1.
        -24    2    1    2    0    0 -0.40237121948E+02 -0.39115688825E+02 -0.15087346326E+03  0.17970175040E+03  0.79880248410E+02 0.  0.
         23    2    1    2    0    0  0.14795346799E+01  0.35597920975E+02  0.17651278477E+02  0.10145663267E+03  0.93340664664E+02 0.  0.
         13    1    3    3    0    0  0.13001644441E+02 -0.40371215541E+02 -0.85006619573E+02  0.95000016704E+02  0.00000000000E+00 0. -1.
        -14    1    3    3    0    0 -0.53238766389E+02  0.12555267165E+01 -0.65866843684E+02  0.84701733694E+02  0.00000000000E+00 0.  1.
        -11    1    4    4    0    0  0.35936378180E+02 -0.13943718578E+02 -0.12460745842E+00  0.38546933620E+02  0.00000000000E+00 0. -1.
         11    1    4    4    0    0 -0.34456843500E+02  0.49541639553E+02  0.17775885935E+02  0.62909699048E+02  0.00000000000E+00 0.  1.
         21    1    1    2  502  501  0.38757587268E+02  0.35177678497E+01 -0.62071665466E+01  0.39408808381E+02  0.00000000000E+00 0. -1.
<scales pt_clust_5="13000.00000" pt_clust_6="13000.00000" pt_clust_7="13000.00000" pt_clust_8="13000.00000" pt_clust_9="38.91690"></scales>
<clustering>
<clus scale="   38.917">  1  9  2 -1</clus>
<clus scale="   79.880">  5  6 -1 -1</clus>
<clus scale="   93.341">  7  8 -1 -1</clus>
<clus scale="   94.478">  2  5  1 -1</clus>
<clus scale="   38.917">  1  5  2 -1</clus>
</clustering>
</event>
<event>
 9    1  0.1973774E-005  0.1299000E+03  0.7546771E-02  0.1243880E+00
         -2   -1    0    0    0  501 -0.00000000000E+00  0.00000000000E+00  0.95637844209E+03  0.95637844209E+03  0.00000000000E+00 0.  1.
          1   -1    0    0  502    0  0.00000000000E+00 -0.00000000000E+00 -0.41410720900E+02  0.41410720900E+02  0.00000000000E+00 0. -1.
        -24    2    1    2    0    0 -0.46346198080E+02 -0.88509379574E+01  0.47520034073E+03  0.48423766829E+03  0.80277309271E+02 0.  0.
         23    2    1    2    0    0  0.32678089134E+02 -0.87214734192E+02  0.11366134816E+03  0.17331543713E+03  0.91897069116E+02 0.  0.
         11    1    3    3    0    0  0.18614258929E+02 -0.19760642122E+02  0.14907223545E+03  0.15152394199E+03  0.00000000000E+00 0. -1.
        -12    1    3    3    0    0 -0.64960457009E+02  0.10909704165E+02  0.32612810528E+03  0.33271372631E+03  0.00000000000E+00 0.  1.
        -11    1    4    4    0    0 -0.27515593619E+02 -0.28796971248E+02  0.65311014228E+02  0.76497725618E+02  0.00000000000E+00 0.  1.
         11    1    4    4    0    0  0.60193682753E+02 -0.58417762944E+02  0.48350333930E+02  0.96817711510E+02  0.00000000000E+00 0. -1.
         21    1    1    2  502  501  0.13668108946E+02  0.96065672149E+02  0.32610603230E+03  0.34023605757E+03  0.00000000000E+00 0.  1.
<scales pt_clust_5="13000.00000" pt_clust_6="13000.00000" pt_clust_7="13000.00000" pt_clust_8="13000.00000" pt_clust_9="91.80926"></scales>
<clustering>
<clus scale="   80.277">  5  6 -1 -1</clus>
<clus scale="   91.897">  7  8 -1 -1</clus>
<clus scale="   93.117">  1  5  2 -1</clus>
<clus scale="   91.809">  1  9  2 -1</clus>
<clus scale="  129.900">  2  5  1 -1</clus>
</clustering>
</event>
<event>
 9    1  0.1973774E-005  0.9211114E+02  0.7546771E-02  0.1302839E+00
          1   -1    0    0  502    0  0.00000000000E+00  0.00000000000E+00  0.75289746342E+02  0.75289746342E+02  0.00000000000E+00 0. -1.
         -2   -1    0    0    0  501 -0.00000000000E+00 -0.00000000000E+00 -0.29343721280E+03  0.29343721280E+03  0.00000000000E+00 0.  1.
         23    2    1    2    0    0  0.27790219364E+02  0.66498238350E+01 -0.21042340244E+03  0.23043827050E+03  0.89483360290E+02 0.  0.
        -24    2    1    2    0    0 -0.43162832234E+01 -0.63033662585E+01 -0.45890995542E+02  0.93479533639E+02  0.81080682104E+02 0.  0.
         11    1    4    4    0    0 -0.31769444056E+02 -0.33700726964E+01 -0.55673120623E+02  0.64188404915E+02  0.00000000000E+00 0. -1.
        -12    1    4    4    0    0  0.27453160833E+02 -0.29332935621E+01  0.97821250806E+01  0.29291128724E+02  0.00000000000E+00 0.  1.
        -11    1    3    3    0    0  0.30390208013E+02  0.38228262057E+02 -0.18001632417E+03  0.18652303271E+03  0.00000000000E+00 0.  1.
         11    1    3    3    0    0 -0.25999886492E+01 -0.31578438222E+02 -0.30407078264E+02  0.43915237789E+02  0.00000000000E+00 0. -1.
         21    1    1    2  502  501 -0.23473936140E+02 -0.34645757652E+00  0.38166931518E+02  0.44809155005E+02  0.00000000000E+00 0. -1.
<scales pt_clust_5="13000.00000" pt_clust_6="13000.00000" pt_clust_7="13000.00000" pt_clust_8="13000.00000" pt_clust_9="23.47649"></scales>
<clustering>
<clus scale="   23.476">  1  9  2 -1</clus>
<clus scale="   81.081">  5  6 -1 -1</clus>
<clus scale="   83.972">  1  5  2 -1</clus>
<clus scale="   89.483">  7  8 -1 -1</clus>
<clus scale="   23.476">  1  5  2 -1</clus>
</clustering>
</event>
<event>
 9    1  0.1973774E-005  0.1736807E+03  0.7546771E-02  0.1188988E+00
          1   -1    0    0  502    0  0.00000000000E+00  0.00000000000E+00  0.66948247264E+03  0.66948247264E+03  0.00000000000E+00 0. -1.
         -2   -1    0    0    0  501 -0.00000000000E+00 -0.00000000000E+00 -0.15103619927E+03  0.15103619927E+03  0.00000000000E+00 0.  1.
        -24    2    1    2    0    0 -0.25818153983E+02  0.90960269132E+02 -0.68936688395E+02  0.14212544902E+03  0.80666155333E+02 0.  0.
         23    2    1    2    0    0  0.16308680656E+03 -0.18493156540E+02  0.32324631041E+03  0.37202361608E+03  0.83511019726E+02 0.  0.
         13    1    3    3    0    0 -0.29241909918E+02  0.95901450895E+02 -0.32795938130E+02  0.10548815638E+03  0.00000000000E+00 0. -1.
        -14    1    3    3    0    0  0.34237559352E+01 -0.49411817626E+01 -0.36140750265E+02  0.36637292635E+02  0.00000000000E+00 0.  1.
        -13    1    4    4    0    0  0.38468493536E+02  0.28721781941E+02  0.11704301769E+03  0.12650625970E+03  0.00000000000E+00 0.  1.
         13    1    4    4    0    0  0.12461831302E+03 -0.47214938481E+02  0.20620329271E+03  0.24551735638E+03  0.00000000000E+00 0. -1.
         21    1    1    2  502  501 -0.13726865258E+03 -0.72467112592E+02  0.26413665136E+03  0.30636960681E+03  0.00000000000E+00 0. -1.
<scales pt_clust_5="13000.00000" pt_clust_6="13000.00000" pt_clust_7="13000.00000" pt_clust_8="13000.00000" pt_clust_9="152.28562"></scales>
<clustering>
<clus scale="   80.666">  5  6 -1 -1</clus>
<clus scale="   83.511">  7  8 -1 -1</clus>
<clus scale="  124.287">  2  5  1 -1</clus>
<clus scale="  152.286">  1  9  2 -1</clus>
<clus scale="  152.286">  1  5  2 -1</clus>
</clustering>
</event>
<event>
 9    1  0.1973774E-005  0.1069455E+03  0.7546771E-02  0.1271139E+00
          1   -1    0    0  502    0  0.00000000000E+00  0.00000000000E+00  0.12084668070E+03  0.12084668070E+03  0.00000000000E+00 0. -1.
         -2   -1    0    0    0  501 -0.00000000000E+00 -0.00000000000E+00 -0.14797070960E+03  0.14797070960E+03  0.00000000000E+00 0.  1.
        -24    2    1    2    0    0  0.54786498890E+02  0.10257646591E+02 -0.63602223123E+02  0.11702527255E+03  0.80888144089E+02 0.  0.
         23    2    1    2    0    0 -0.51549496365E+02  0.23825239239E+02  0.43858820298E+02  0.11676934041E+03  0.92122147948E+02 0.  0.
         11    1    3    3    0    0  0.70620967934E+02 -0.11214398799E+02 -0.44683186654E+02  0.84318865161E+02  0.00000000000E+00 0. -1.
        -12    1    3    3    0    0 -0.15834469045E+02  0.21472045390E+02 -0.18919036469E+02  0.32706407386E+02  0.00000000000E+00 0.  1.
        -13    1    4    4    0    0 -0.62180740534E+02 -0.11175750868E+02  0.48836832830E+02  0.79852226905E+02  0.00000000000E+00 0.  1.
         13    1    4    4    0    0  0.10631244169E+02  0.35000990107E+02 -0.49780125326E+01  0.36917113509E+02  0.00000000000E+00 0. -1.
         21    1    1    2  502  501 -0.32370025242E+01 -0.34082885829E+02 -0.73806260759E+01  0.35022777347E+02  0.00000000000E+00 0. -1.
<scales pt_clust_5="13000.00000" pt_clust_6="13000.00000" pt_clust_7="13000.00000" pt_clust_8="13000.00000" pt_clust_9="34.23626"></scales>
<clustering>
<clus scale="   34.236">  2  9  1 -1</clus>
<clus scale="   80.888">  5  6 -1 -1</clus>
<clus scale="   92.122">  7  8 -1 -1</clus>
<clus scale="   97.436">  2  5  1 -1</clus>
<clus scale="  106.946">  1  5  2 -1</clus>
</clustering>
</event>
<event>
 9    1  0.1973774E-005  0.1581397E+03  0.7546771E-02  0.1192624E+00
         -2   -1    0    0    0  501 -0.00000000000E+00  0.00000000000E+00  0.15675103984E+03  0.15675103984E+03  0.00000000000E+00 0.  1.
          1   -1    0    0  502    0  0.00000000000E+00 -0.00000000000E+00 -0.21677032454E+03  0.21677032454E+03  0.00000000000E+00 0. -1.
        -24    2    1    2    0    0  0.33496609552E+02  0.13194158250E+03  0.53420303003E+02  0.16651638351E+03  0.79645295916E+02 0.  0.
         23    2    1    2    0    0 -0.41882227428E+02 -0.10588891368E+03 -0.97895100301E+02  0.17552973300E+03  0.90888137237E+02 0.  0.
         13    1    3    3    0    0  0.41971465328E+02  0.22549213952E+02  0.21312764812E+02  0.52194874227E+02  0.00000000000E+00 0. -1.
        -14    1    3    3    0    0 -0.84748557764E+01  0.10939236855E+03  0.32107538191E+02  0.11432150929E+03  0.00000000000E+00 0.  1.
        -11    1    4    4    0    0 -0.34152125620E+02  0.18623167057E+01 -0.41137804246E+02  0.53499110703E+02  0.00000000000E+00 0.  1.
         11    1    4    4    0    0 -0.77301018080E+01 -0.10775123038E+03 -0.56757296055E+02  0.12203062230E+03  0.00000000000E+00 0. -1.
         21    1    1    2  502  501  0.83856178760E+01 -0.26052668822E+02 -0.15544487396E+02  0.31475247868E+02  0.00000000000E+00 0. -1.
<scales pt_clust_5="13000.00000" pt_clust_6="13000.00000" pt_clust_7="13000.00000" pt_clust_8="13000.00000" pt_clust_9="27.36896"></scales>
<clustering>
<clus scale="   27.369">  2  9  1 -1</clus>
<clus scale="   79.645">  5  6 -1 -1</clus>
<clus scale="   90.888">  7  8 -1 -1</clus>
<clus scale="  151.957">  1  5  2 -1</clus>
<clus scale="   27.369">  2  5  1 -1</clus>
</clustering>
</event>
<event>
 9    1  0.1973774E-005  0.1024209E+03  0.7546771E-02  0.1281316E+00
         -2   -1    0    0    0  501 -0.00000000000E+00  0.00000000000E+00  0.15701709808E+03  0.15701709808E+03  0.00000000000E+00 0.  1.
          1   -1    0    0  502    0  0.00000000000E+00 -0.00000000000E+00 -0.13011384822E+03  0.13011384822E+03  0.00000000000E+00 0. -1.
         23    2    1    2    0    0  0.27530703460E+02 -0.53574486180E+02  0.93663275136E+02  0.14500854581E+03  0.92878975265E+02 0.  0.
        -24    2    1    2    0    0 -0.12517717163E+02  0.38318218230E+02 -0.76974267213E+02  0.11840586180E+03  0.80435882560E+02 0.  0.
         11    1    4    4    0    0  0.20248854136E+02  0.37915219958E+02 -0.10430126098E+02  0.44230843635E+02  0.00000000000E+00 0. -1.
        -12    1    4    4    0    0 -0.32766571299E+02  0.40299827254E+00 -0.66544141115E+02  0.74175018160E+02  0.00000000000E+00 0.  1.
        -13    1    3    3    0    0 -0.12986958922E+02 -0.42458507130E+02  0.23142125372E+01  0.44460561281E+02  0.00000000000E+00 0. -1.
         13    1    3    3    0    0  0.40517662382E+02 -0.11115979050E+02  0.91349062599E+02  0.10054798453E+03  0.00000000000E+00 0.  1.
         21    1    1    2  502  501 -0.15012986297E+02  0.15256267950E+02  0.10214241932E+02  0.23716538692E+02  0.00000000000E+00 0. -1.
<scales pt_clust_5="13000.00000" pt_clust_6="13000.00000" pt_clust_7="13000.00000" pt_clust_8="13000.00000" pt_clust_9="21.40429"></scales>
<clustering>
<clus scale="   21.404">  1  9  2 -1</clus>
<clus scale="   80.436">  5  6 -1 -1</clus>
<clus scale="   91.288">  2  5  1 -1</clus>
<clus scale="   92.879">  7  8 -1 -1</clus>
<clus scale="   91.288">  2  5  1 -1</clus>
</clustering>
</event>
<event>
 9    1  0.1973774E-005  0.1192040E+03  0.7546771E-02  0.1247557E+00
         -2   -1    0    0    0  501 -0.00000000000E+00  0.00000000000E+00  0.20297312886E+03  0.20297312886E+03  0.00000000000E+00 0.  1.
          1   -1    0    0  502    0  0.00000000000E+00 -0.00000000000E+00 -0.58622263890E+03  0.58622263890E+03  0.00000000000E+00 0. -1.
        -24    2    1    2    0    0 -0.49954839097E+02  0.58005430482E+02  0.17279039385E+03  0.20564449383E+03  0.81074174197E+02 0.  0.
         23    2    1    2    0    0  0.81151893218E+02 -0.47601162558E+02 -0.32749318509E+03  0.35265062939E+03  0.90880029039E+02 0.  0.
         13    1    3    3    0    0 -0.50329072628E+02  0.45932128449E+02  0.55906273145E+02  0.88137888291E+02  0.00000000000E+00 0. -1.
        -14    1    3    3    0    0  0.37423353023E+00  0.12073302032E+02  0.11688412070E+03  0.11750660554E+03  0.00000000000E+00 0.  1.
        -13    1    4    4    0    0  0.73367952742E+02  0.82861087326E+01 -0.20140700340E+03  0.21451409535E+03  0.00000000000E+00 0.  1.
         13    1    4    4    0    0  0.77839404765E+01 -0.55887271291E+02 -0.12608618169E+03  0.13813653404E+03  0.00000000000E+00 0. -1.
         21    1    1    2  502  501 -0.31197054121E+02 -0.10404267923E+02 -0.22854671880E+03  0.23090064454E+03  0.00000000000E+00 0.  1.
<scales pt_clust_5="13000.00000" pt_clust_6="13000.00000" pt_clust_7="13000.00000" pt_clust_8="13000.00000" pt_clust_9="32.88624"></scales>
<clustering>
<clus scale="   32.886">  2  9  1 -1</clus>
<clus scale="   81.074">  5  6 -1 -1</clus>
<clus scale="   90.880">  7  8 -1 -1</clus>
<clus scale="  111.908">  1  5  2 -1</clus>
<clus scale="   32.886">  2  5  1 -1</clus>
</clustering>
</event>
<event>
 9    1  0.1973774E-005  0.9086805E+02  0.7546771E-02  0.1304759E+00
          1   -1    0    0  502    0  0.00000000000E+00  0.00000000000E+00  0.28343767689E+03  0.28343767689E+03  0.00000000000E+00 0. -1.
         -2   -1    0    0    0  501 -0.00000000000E+00 -0.00000000000E+00 -0.95452983574E+02  0.95452983574E+02  0.00000000000E+00 0.  1.
        -24    2    1    2    0    0 -0.18276603370E+02 -0.80881790906E+01 -0.58319211337E+02  0.10311680560E+03  0.82658891318E+02 0.  0.
         23    2    1    2    0    0 -0.13055697984E+02  0.70937673382E+01  0.20373823867E+03  0.22291046599E+03  0.89213413605E+02 0.  0.
         11    1    3    3    0    0 -0.49265259708E+02 -0.80397363802E+01 -0.19850774929E+02  0.53719237155E+02  0.00000000000E+00 0. -1.
        -12    1    3    3    0    0  0.30988656339E+02 -0.48442710375E-01 -0.38468436407E+02  0.49397568442E+02  0.00000000000E+00 0.  1.
        -13    1    4    4    0    0  0.14779022522E+02 -0.33449848093E+02  0.53309205531E+02  0.64646602683E+02  0.00000000000E+00 0.  1.
         13    1    4    4    0    0 -0.27834720507E+02  0.40543615431E+02  0.15042903314E+03  0.15826386331E+03  0.00000000000E+00 0. -1.
         21    1    1    2  502  501  0.31332301354E+02  0.99441175240E+00  0.42565665985E+02  0.52863388878E+02  0.00000000000E+00 0. -1.
<scales pt_clust_5="13000.00000" pt_clust_6="13000.00000" pt_clust_7="13000.00000" pt_clust_8="13000.00000" pt_clust_9="31.34808"></scales>
<clustering>
<clus scale="   31.348">  1  9  2 -1</clus>
<clus scale="   82.659">  5  6 -1 -1</clus>
<clus scale="   84.442">  2  5  1 -1</clus>
<clus scale="   89.213">  7  8 -1 -1</clus>
<clus scale="   31.348">  1  5  2 -1</clus>
</clustering>
</event>
<event>
 9    1  0.1973774E-005  0.1189507E+03  0.7546771E-02  0.1247361E+00
         -4   -1    0    0    0  501 -0.00000000000E+00  0.00000000000E+00  0.32884588787E+02  0.32884588787E+02  0.00000000000E+00 0.  1.
          3   -1    0    0  502    0  0.00000000000E+00 -0.00000000000E+00 -0.84215118130E+03  0.84215118130E+03  0.00000000000E+00 0. -1.
         23    2    1    2    0    0 -0.22875421283E+02 -0.70178519407E+02 -0.10874659427E+03  0.15943902920E+03  0.90258920792E+02 0.  0.
        -24    2    1    2    0    0  0.35555352238E+02  0.86305387824E+02 -0.56637005768E+03  0.57988726043E+03  0.82349192627E+02 0.  0.
         13    1    4    4    0    0 -0.13033159347E+02  0.72803248690E+02 -0.32613920550E+03  0.33442033076E+03  0.00000000000E+00 0. -1.
        -14    1    4    4    0    0  0.48588511585E+02  0.13502139134E+02 -0.24023085219E+03  0.24546692967E+03  0.00000000000E+00 0.  1.
        -13    1    3    3    0    0 -0.49126414353E+02 -0.72079798432E+02 -0.66591386812E+02  0.10974203719E+03  0.00000000000E+00 0.  1.
         13    1    3    3    0    0  0.26250993070E+02  0.19012790246E+01 -0.42155207462E+02  0.49696992014E+02  0.00000000000E+00 0. -1.
         21    1    1    2  502  501 -0.12679930954E+02 -0.16126868417E+02 -0.13414994055E+03  0.13570948045E+03  0.00000000000E+00 0. -1.
<scales pt_clust_5="13000.00000" pt_clust_6="13000.00000" pt_clust_7="13000.00000" pt_clust_8="13000.00000" pt_clust_9="20.51479"></scales>
<clustering>
<clus scale="   20.515">  2  9  1 -1</clus>
<clus scale="   82.349">  5  6 -1 -1</clus>
<clus scale="   90.259">  7  8 -1 -1</clus>
<clus scale="  113.066">  2  5  1 -1</clus>
<clus scale="   20.515">  2  5  1 -1</clus>
</clustering>
</event>
<event>
 9    1  0.1973774E-005  0.1033056E+03  0.7546771E-02  0.1279126E+00
          1   -1    0    0  502    0  0.00000000000E+00  0.00000000000E+00  0.21151547876E+03  0.21151547876E+03  0.00000000000E+00 0. -1.
         -2   -1    0    0    0  501 -0.00000000000E+00 -0.00000000000E+00 -0.91865169033E+02  0.91865169033E+02  0.00000000000E+00 0.  1.
        -24    2    1    2    0    0 -0.33547412889E+02  0.30827186138E+02 -0.31923059265E+02  0.96746175751E+02  0.79151730827E+02 0.  0.
         23    2    1    2    0    0  0.58162735139E+02 -0.27509601786E+02  0.14037993045E+03  0.17939087607E+03  0.91295561744E+02 0.  0.
         13    1    3    3    0    0  0.33061253863E+01  0.42465038931E+02  0.55025275602E+01  0.42947500579E+02  0.00000000000E+00 0. -1.
        -14    1    3    3    0    0 -0.36853538276E+02 -0.11637852793E+02 -0.37425586825E+02  0.53798675172E+02  0.00000000000E+00 0.  1.
        -13    1    4    4    0    0  0.70040960301E+00 -0.40149556332E+02  0.10073701853E+03  0.10844549023E+03  0.00000000000E+00 0.  1.
         13    1    4    4    0    0  0.57462325536E+02  0.12639954546E+02  0.39642911911E+02  0.70945385839E+02  0.00000000000E+00 0. -1.
         21    1    1    2  502  501 -0.24615322250E+02 -0.33175843517E+01  0.11193438551E+02  0.27243595981E+02  0.00000000000E+00 0.  1.
<scales pt_clust_5="13000.00000" pt_clust_6="13000.00000" pt_clust_7="13000.00000" pt_clust_8="13000.00000" pt_clust_9="24.83788"></scales>
<clustering>
<clus scale="   24.838">  1  9  2 -1</clus>
<clus scale="   79.152">  5  6 -1 -1</clus>
<clus scale="   91.296">  7  8 -1 -1</clus>
<clus scale="   92.748">  2  5  1 -1</clus>
<clus scale="   24.838">  1  5  2 -1</clus>
</clustering>
</event>
<event>
 9    1  0.1973774E-005  0.1374399E+03  0.7546771E-02  0.1218828E+00
         -2   -1    0    0    0  501 -0.00000000000E+00  0.00000000000E+00  0.31352773740E+03  0.31352773740E+03  0.00000000000E+00 0.  1.
          1   -1    0    0  502    0  0.00000000000E+00 -0.00000000000E+00 -0.16013342963E+03  0.16013342963E+03  0.00000000000E+00 0. -1.
        -24    2    1    2    0    0 -0.21855123923E+02 -0.10651665080E+03  0.23988728309E+03  0.27530627386E+03  0.80151060505E+02 0.  0.
         23    2    1    2    0    0  0.45264708667E+02  0.67240882252E+02 -0.92897484231E+02  0.15218550518E+03  0.89220262905E+02 0.  0.
         11    1    3    3    0    0 -0.28126141295E+02 -0.10891653343E+02  0.22173295322E+02  0.37434782784E+02  0.00000000000E+00 0. -1.
        -12    1    3    3    0    0  0.62710173717E+01 -0.95624997458E+02  0.21771398777E+03  0.23787149108E+03  0.00000000000E+00 0.  1.
        -11    1    4    4    0    0  0.34914150301E+02  0.43546694824E+02 -0.60410104834E-01  0.55815017430E+02  0.00000000000E+00 0.  1.
         11    1    4    4    0    0  0.10350558366E+02  0.23694187428E+02 -0.92837074126E+02  0.96370487747E+02  0.00000000000E+00 0. -1.
         21    1    1    2  502  501 -0.23409584744E+02  0.39275768549E+02  0.64045089089E+01  0.46169387989E+02  0.00000000000E+00 0. -1.
<scales pt_clust_5="13000.00000" pt_clust_6="13000.00000" pt_clust_7="13000.00000" pt_clust_8="13000.00000" pt_clust_9="45.72302"></scales>
<clustering>
<clus scale="   45.723">  2  9  1 -1</clus>
<clus scale="   80.151">  5  6 -1 -1</clus>
<clus scale="   89.220">  7  8 -1 -1</clus>
<clus scale="  131.733">  1  5  2 -1</clus>
<clus scale="   45.723">  2  5  1 -1</clus>
</clustering>
</event>
<event>
 9    1  0.1973774E-005  0.1547819E+03  0.7546771E-02  0.1197477E+00
         -2   -1    0    0    0  501 -0.00000000000E+00  0.00000000000E+00  0.53281366770E+03  0.53281366770E+03  0.00000000000E+00 0.  1.
          1   -1    0    0  502    0  0.00000000000E+00 -0.00000000000E+00 -0.67148675559E+02  0.67148675559E+02  0.00000000000E+00 0. -1.
        -24    2    1    2    0    0  0.69544187488E+02 -0.79563632772E+02  0.21053128368E+03  0.24751900159E+03  0.75996506917E+02 0.  0.
         23    2    1    2    0    0 -0.92451539762E+02  0.12449890438E+03  0.23908722714E+03  0.29951494678E+03  0.92191305268E+02 0.  0.
         13    1    3    3    0    0  0.21362570924E+01 -0.59896165012E+02  0.95451782129E+02  0.11270828226E+03  0.00000000000E+00 0. -1.
        -14    1    3    3    0    0  0.67407930396E+02 -0.19667467760E+02  0.11507950155E+03  0.13481071933E+03  0.00000000000E+00 0.  1.
        -11    1    4    4    0    0 -0.21431946975E+02  0.86417106139E+02  0.17575751556E+03  0.19702271154E+03  0.00000000000E+00 0.  1.
         11    1    4    4    0    0 -0.71019592787E+02  0.38081798242E+02  0.63329711582E+02  0.10249223525E+03  0.00000000000E+00 0. -1.
         21    1    1    2  502  501  0.22907352273E+02 -0.44935271608E+02  0.16046481309E+02  0.52928394885E+02  0.00000000000E+00 0.  1.
<scales pt_clust_5="13000.00000" pt_clust_6="13000.00000" pt_clust_7="13000.00000" pt_clust_8="13000.00000" pt_clust_9="50.43734"></scales>
<clustering>
<clus scale="   50.437">  2  9  1 -1</clus>
<clus scale="   75.997">  5  6 -1 -1</clus>
<clus scale="   92.191">  7  8 -1 -1</clus>
<clus scale="  145.718">  1  5  2 -1</clus>
<clus scale="   50.437">  2  5  1 -1</clus>
</clustering>
</event>
<event>
 9    1  0.1973774E-005  0.2198004E+03  0.7546771E-02  0.1177554E+00
          1   -1    0    0  502    0  0.00000000000E+00  0.00000000000E+00  0.13931536295E+04  0.13931536295E+04  0.00000000000E+00 0. -1.
         -2   -1    0    0    0  501 -0.00000000000E+00 -0.00000000000E+00 -0.68155974817E+03  0.68155974817E+03  0.00000000000E+00 0.  1.
        -24    2    1    2    0    0 -0.30871116607E+02  0.43207250403E+01 -0.51677273200E+03  0.52280270651E+03  0.72779934666E+02 0.  0.
         23    2    1    2    0    0  0.16608576459E+03  0.14166493018E+03 -0.63277990785E+02  0.24502865817E+03  0.91550562888E+02 0.  0.
         11    1    3    3    0    0 -0.41296868428E+02 -0.14800705227E+02 -0.17783562774E+03  0.18316659824E+03  0.00000000000E+00 0. -1.
        -12    1    3    3    0    0  0.10425751821E+02  0.19121430267E+02 -0.33893710426E+03  0.33963610827E+03  0.00000000000E+00 0.  1.
        -11    1    4    4    0    0  0.54779538554E+02  0.10687099951E+03 -0.31176323421E+02  0.12407325063E+03  0.00000000000E+00 0.  1.
         11    1    4    4    0    0  0.11130622603E+03  0.34793930671E+02 -0.32101667364E+02  0.12095540754E+03  0.00000000000E+00 0. -1.
         21    1    1    2  502  501 -0.13521464798E+03 -0.14598565522E+03  0.12916446041E+04  0.13068820130E+04  0.00000000000E+00 0. -1.
<scales pt_clust_5="13000.00000" pt_clust_6="13000.00000" pt_clust_7="13000.00000" pt_clust_8="13000.00000" pt_clust_9="199.82675"></scales>
<clustering>
<clus scale="   72.780">  5  6 -1 -1</clus>
<clus scale="   79.175">  2  5  1 -1</clus>
<clus scale="   91.551">  7  8 -1 -1</clus>
<clus scale="  199.827">  1  9  2 -1</clus>
<clus scale="  199.827">  1  5  2 -1</clus>
</clustering>
</event>
<event>
 9    1  0.1973774E-005  0.1156804E+03  0.7546771E-02  0.1267426E+00
          1   -1    0    0  502    0  0.00000000000E+00  0.00000000000E+00  0.15899507967E+03  0.15899507967E+03  0.00000000000E+00 0. -1.
         -2   -1    0    0    0  501 -0.00000000000E+00 -0.00000000000E+00 -0.22044210643E+03  0.22044210643E+03  0.00000000000E+00 0.  1.
         23    2    1    2    0    0 -0.35212594344E+02 -0.54334932254E+02 -0.13732475944E+03  0.17716685013E+03  0.91311508398E+02 0.  0.
        -24    2    1    2    0    0 -0.18146153516E+02 -0.93881043541E+01  0.85056618621E+02  0.11865195692E+03  0.80163826750E+02 0.  0.
         13    1    4    4    0    0 -0.27729707082E+01  0.26920164528E+02  0.72319124723E+02  0.77216840297E+02  0.00000000000E+00 0. -1.
        -14    1    4    4    0    0 -0.15373182807E+02 -0.36308268882E+02  0.12737493898E+02  0.41435116624E+02  0.00000000000E+00 0.  1.
        -11    1    3    3    0    0 -0.82715571347E+01  0.25945910849E+02 -0.35012954780E+02  0.44356690021E+02  0.00000000000E+00 0. -1.
         11    1    3    3    0    0 -0.26941037210E+02 -0.80280843102E+02 -0.10231180466E+03  0.13281016011E+03  0.00000000000E+00 0.  1.
         21    1    1    2  502  501  0.53358747860E+02  0.63723036608E+02 -0.91788859379E+01  0.83618379049E+02  0.00000000000E+00 0. -1.
<scales pt_clust_5="13000.00000" pt_clust_6="13000.00000" pt_clust_7="13000.00000" pt_clust_8="13000.00000" pt_clust_9="71.02220"></scales>
<clustering>
<clus scale="   80.164">  5  6 -1 -1</clus>
<clus scale="   82.726">  1  5  2 -1</clus>
<clus scale="   71.022">  1  9  2 -1</clus>
<clus scale="   91.312">  7  8 -1 -1</clus>
<clus scale="   82.726">  1  5  2 -1</clus>
</clustering>
</event>
<event>
 9    1  0.1973774E-005  0.9087927E+02  0.7546771E-02  0.1301026E+00
          1   -1    0    0  502    0  0.00000000000E+00  0.00000000000E+00  0.57702672273E+02  0.57702672273E+02  0.00000000000E+00 0. -1.
         -2   -1    0    0    0  501 -0.00000000000E+00 -0.00000000000E+00 -0.34747640400E+03  0.34747640400E+03  0.00000000000E+00 0.  1.
         23    2    1    2    0    0  0.41288447174E+02 -0.83368740174E+01 -0.26223399569E+03  0.27785817912E+03  0.81634918194E+02 0.  0.
        -24    2    1    2    0    0 -0.33712434447E+02 -0.23172118530E+02 -0.27543098278E+02  0.94913913469E+02  0.81095951772E+02 0.  0.
         13    1    4    4    0    0 -0.21042295060E+02  0.29733761837E+02 -0.10779181751E+02  0.37987702399E+02  0.00000000000E+00 0. -1.
        -14    1    4    4    0    0 -0.12670139387E+02 -0.52905880367E+02 -0.16763916527E+02  0.56926211070E+02  0.00000000000E+00 0.  1.
        -11    1    3    3    0    0  0.66130348101E+02 -0.88750754455E+01 -0.20052206759E+03  0.21133170490E+03  0.00000000000E+00 0.  1.
         11    1    3    3    0    0 -0.24841900927E+02  0.53820142807E+00 -0.61711928102E+02  0.66526474222E+02  0.00000000000E+00 0. -1.
         21    1    1    2  502  501 -0.75760127278E+01  0.31508992548E+02  0.33622418591E-02  0.32406983684E+02  0.00000000000E+00 0.  1.
<scales pt_clust_5="13000.00000" pt_clust_6="13000.00000" pt_clust_7="13000.00000" pt_clust_8="13000.00000" pt_clust_9="32.40698"></scales>
<clustering>
<clus scale="   32.407">  1  9  2 -1</clus>
<clus scale="   81.096">  5  6 -1 -1</clus>
<clus scale="   81.635">  7  8 -1 -1</clus>
<clus scale="   90.395">  1  5  2 -1</clus>
<clus scale="   32.407">  1  5  2 -1</clus>
</clustering>
</event>
<event>
 9    1  0.1973774E-005  0.1160115E+03  0.7546771E-02  0.1254679E+00
         -2   -1    0    0    0  501 -0.00000000000E+00  0.00000000000E+00  0.48492839026E+03  0.48492839026E+03  0.00000000000E+00 0.  1.
          1   -1    0    0  502    0  0.00000000000E+00 -0.00000000000E+00 -0.51398672268E+03  0.51398672268E+03  0.00000000000E+00 0. -1.
        -24    2    1    2    0    0  0.22586654290E+02  0.68036826986E+02  0.46341102591E+03  0.47553965757E+03  0.79050744498E+02 0.  0.
         23    2    1    2    0    0  0.82034698204E+01  0.73984359588E+01 -0.22123950114E+03  0.24017209017E+03  0.92809925423E+02 0.  0.
         11    1    3    3    0    0 -0.11460826771E+02  0.19988025132E+02  0.28447621514E+02  0.36607907189E+02  0.00000000000E+00 0. -1.
        -12    1    3    3    0    0  0.34047481060E+02  0.48048801854E+02  0.43496340440E+03  0.43893175038E+03  0.00000000000E+00 0.  1.
        -11    1    4    4    0    0  0.29185511967E+02  0.40575882443E+02 -0.15821285631E+03  0.16592017432E+03  0.00000000000E+00 0.  1.
         11    1    4    4    0    0 -0.20982042147E+02 -0.33177446485E+02 -0.63026644837E+02  0.74251915849E+02  0.00000000000E+00 0. -1.
         21    1    1    2  502  501 -0.30790124110E+02 -0.75435262945E+02 -0.27122985718E+03  0.28320336521E+03  0.00000000000E+00 0. -1.
<scales pt_clust_5="13000.00000" pt_clust_6="13000.00000" pt_clust_7="13000.00000" pt_clust_8="13000.00000" pt_clust_9="81.47706"></scales>
<clustering>
<clus scale="   79.051">  5  6 -1 -1</clus>
<clus scale="   81.477">  2  9  1 -1</clus>
<clus scale="   92.810">  7  8 -1 -1</clus>
<clus scale="  105.328">  1  5  2 -1</clus>
<clus scale="   81.477">  2  5  1 -1</clus>
</clustering>
</event>
<event>
 9    1  0.1973774E-005  0.1478528E+03  0.7546771E-02  0.1224360E+00
         -2   -1    0    0    0  501 -0.00000000000E+00  0.00000000000E+00  0.26819686881E+03  0.26819686881E+03  0.00000000000E+00 0.  1.
          1   -1    0    0  502    0  0.00000000000E+00 -0.00000000000E+00 -0.15705923341E+03  0.15705923341E+03  0.00000000000E+00 0. -1.
         23    2    1    2    0    0  0.77671141875E+02 -0.10644784010E+03  0.16185959587E+03  0.22718070647E+03  0.89713965890E+02 0.  0.
        -24    2    1    2    0    0  0.62715411397E+01  0.57718063722E+02 -0.29151785912E+02  0.98645834906E+02  0.74232519924E+02 0.  0.
         11    1    4    4    0    0 -0.19133735120E+02 -0.10188833691E+02 -0.81879427023E+01  0.23172279933E+02  0.00000000000E+00 0. -1.
        -12    1    4    4    0    0  0.25405276259E+02  0.67906897413E+02 -0.20963843210E+02  0.75473554973E+02  0.00000000000E+00 0.  1.
        -13    1    3    3    0    0 -0.12428086894E+02 -0.50436971497E+02  0.39664861492E+02  0.65357835603E+02  0.00000000000E+00 0.  1.
         13    1    3    3    0    0  0.90099228769E+02 -0.56010868606E+02  0.12219473438E+03  0.16182287087E+03  0.00000000000E+00 0. -1.
         21    1    1    2  502  501 -0.83942683014E+02  0.48729776380E+02 -0.21570174565E+02  0.99429560838E+02  0.00000000000E+00 0.  1.
<scales pt_clust_5="13000.00000" pt_clust_6="13000.00000" pt_clust_7="13000.00000" pt_clust_8="13000.00000" pt_clust_9="117.52379"></scales>
<clustering>
<clus scale="   74.233">  5  6 -1 -1</clus>
<clus scale="   89.714">  7  8 -1 -1</clus>
<clus scale="   94.240">  2  5  1 -1</clus>
<clus scale="  117.524">  2  9  1 -1</clus>
<clus scale="   94.240">  2  5  1 -1</clus>
</clustering>
</event>
<event>
 9    1  0.1973774E-005  0.1000374E+03  0.7546771E-02  0.1285650E+00
          1   -1    0    0  502    0  0.00000000000E+00  0.00000000000E+00  0.20127318424E+03  0.20127318424E+03  0.00000000000E+00 0. -1.
         -2   -1    0    0    0  501 -0.00000000000E+00 -0.00000000000E+00 -0.11241855225E+03  0.11241855225E+03  0.00000000000E+00 0.  1.
         23    2    1    2    0    0 -0.34649999805E+02  0.26661731350E+02 -0.62301400101E+02  0.11865777202E+03  0.91031489064E+02 0.  0.
        -24    2    1    2    0    0  0.41477885949E+02  0.42392670940E+01  0.99035154133E+02  0.13405792284E+03  0.80157211247E+02 0.  0.
         11    1    4    4    0    0  0.20569878251E+02 -0.11526959556E+01  0.10853164983E+03  0.11046975882E+03  0.00000000000E+00 0. -1.
        -12    1    4    4    0    0  0.20908007698E+02  0.53919630497E+01 -0.94964956972E+01  0.23588164023E+02  0.00000000000E+00 0.  1.
        -11    1    3    3    0    0 -0.23929911704E+02  0.52076988303E+02 -0.69565886844E+02  0.90133600822E+02  0.00000000000E+00 0.  1.
         11    1    3    3    0    0 -0.10720088100E+02 -0.25415256953E+02  0.72644867432E+01  0.28524171197E+02  0.00000000000E+00 0. -1.
         21    1    1    2  502  501 -0.68278861440E+01 -0.30900998444E+02  0.52120877950E+02  0.60976041625E+02  0.00000000000E+00 0. -1.
<scales pt_clust_5="13000.00000" pt_clust_6="13000.00000" pt_clust_7="13000.00000" pt_clust_8="13000.00000" pt_clust_9="31.64635"></scales>
<clustering>
<clus scale="   31.646">  1  9  2 -1</clus>
<clus scale="   80.157">  5  6 -1 -1</clus>
<clus scale="   90.255">  1  5  2 -1</clus>
<clus scale="   91.031">  7  8 -1 -1</clus>
<clus scale="   31.646">  1  5  2 -1</clus>
</clustering>
</event>
<event>
 9    1  0.1973774E-005  0.2039662E+03  0.7546771E-02  0.1147215E+00
          3   -1    0    0  502    0  0.00000000000E+00  0.00000000000E+00  0.42934713774E+03  0.42934713774E+03  0.00000000000E+00 0. -1.
         -4   -1    0    0    0  501 -0.00000000000E+00 -0.00000000000E+00 -0.17820652014E+03  0.17820652014E+03  0.00000000000E+00 0.  1.
         23    2    1    2    0    0 -0.11223299703E+03  0.15330083837E+03 -0.71357052966E+02  0.22153184437E+03  0.88809551259E+02 0.  0.
        -24    2    1    2    0    0  0.10210283186E+03 -0.12291942662E+03  0.25526228948E+03  0.31154868482E+03  0.79809603846E+02 0.  0.
         11    1    4    4    0    0  0.96109920150E+02 -0.95938184992E+02  0.24835897013E+03  0.28306082409E+03  0.00000000000E+00 0. -1.
        -12    1    4    4    0    0  0.59929117062E+01 -0.26981241633E+02  0.69033193506E+01  0.28487860728E+02  0.00000000000E+00 0.  1.
        -13    1    3    3    0    0 -0.44782670097E+02  0.43688461434E+02  0.17702729759E+02  0.65019657369E+02  0.00000000000E+00 0. -1.
         13    1    3    3    0    0 -0.67450326935E+02  0.10961237693E+03 -0.89059782725E+02  0.15651218700E+03  0.00000000000E+00 0.  1.
         21    1    1    2  502  501  0.10130165177E+02 -0.30381411743E+02  0.67235381097E+02  0.74473128693E+02  0.00000000000E+00 0.  1.
<scales pt_clust_5="13000.00000" pt_clust_6="13000.00000" pt_clust_7="13000.00000" pt_clust_8="13000.00000" pt_clust_9="32.02578"></scales>
<clustering>
<clus scale="   32.026">  1  9  2 -1</clus>
<clus scale="   79.810">  5  6 -1 -1</clus>
<clus scale="   88.810">  7  8 -1 -1</clus>
<clus scale="  200.211">  1  5  2 -1</clus>
<clus scale="   32.026">  1  5  2 -1</clus>
</clustering>
</event>
<event>
 9    1  0.1973774E-005  0.1281457E+03  0.7546771E-02  0.1231927E+00
         -2   -1    0    0    0  501 -0.00000000000E+00  0.00000000000E+00  0.13032260538E+03  0.13032260538E+03  0.00000000000E+00 0.  1.
          1   -1    0    0  502    0  0.00000000000E+00 -0.00000000000E+00 -0.30364719156E+03  0.30364719156E+03  0.00000000000E+00 0. -1.
        -24    2    1    2    0    0 -0.75088408018E+02 -0.44534625071E+02  0.45051070114E+02  0.13258257532E+03  0.89033356173E+02 0.  0.
         23    2    1    2    0    0  0.88146303000E+02 -0.17411220666E+02 -0.19308789230E+03  0.23321635223E+03  0.95047416881E+02 0.  0.
         11    1    3    3    0    0 -0.30347867517E+02  0.12916201217E+01 -0.23770758866E+02  0.38570848091E+02  0.00000000000E+00 0. -1.
        -12    1    3    3    0    0 -0.44740540501E+02 -0.45826245192E+02  0.68821828979E+02  0.94011727230E+02  0.00000000000E+00 0.  1.
        -13    1    4    4    0    0 -0.12367863689E+02  0.16874265135E+02 -0.14561870485E+02  0.25490252021E+02  0.00000000000E+00 0.  1.
         13    1    4    4    0    0  0.10051416669E+03 -0.34285485801E+02 -0.17852602182E+03  0.20772610021E+03  0.00000000000E+00 0. -1.
         21    1    1    2  502  501 -0.13057894982E+02  0.61945845737E+02 -0.25287763996E+02  0.68170869390E+02  0.00000000000E+00 0.  1.
<scales pt_clust_5="13000.00000" pt_clust_6="13000.00000" pt_clust_7="13000.00000" pt_clust_8="13000.00000" pt_clust_9="63.30716"></scales>
<clustering>
<clus scale="   63.307">  1  9  2 -1</clus>
<clus scale="   89.033">  5  6 -1 -1</clus>
<clus scale="   95.047">  7  8 -1 -1</clus>
<clus scale="  123.751">  1  5  2 -1</clus>
<clus scale="  128.146">  2  5  1 -1</clus>
</clustering>
</event>
<event>
 9    1  0.1973774E-005  0.1330100E+03  0.7546771E-02  0.1225189E+00
         -2   -1    0    0    0  501 -0.00000000000E+00  0.00000000000E+00  0.32348878541E+02  0.32348878541E+02  0.00000000000E+00 0.  1.
          1   -1    0    0  502    0  0.00000000000E+00 -0.00000000000E+00 -0.73671146399E+03  0.73671146399E+03  0.00000000000E+00 0. -1.
         23    2    1    2    0    0 -0.84619429203E+02  0.53682538180E+01 -0.16819085588E+03  0.20853284433E+03  0.89490319116E+02 0.  0.
        -24    2    1    2    0    0  0.10478822411E+03 -0.39238229660E+01 -0.47050424719E+03  0.49181734676E+03  0.97540184809E+02 0.  0.
         13    1    4    4    0    0  0.91183599649E+02 -0.29618306041E+02 -0.43728681988E+03  0.44767338065E+03  0.00000000000E+00 0. -1.
        -14    1    4    4    0    0  0.13604624465E+02  0.25694483075E+02 -0.33217427305E+02  0.44143966111E+02  0.00000000000E+00 0.  1.
        -13    1    3    3    0    0 -0.47104088632E+02  0.32451910990E+01 -0.16407408560E+03  0.17073263307E+03  0.00000000000E+00 0. -1.
         13    1    3    3    0    0 -0.37515340571E+02  0.21230627190E+01 -0.41167702791E+01  0.37800211256E+02  0.00000000000E+00 0.  1.
         21    1    1    2  502  501 -0.20168794910E+02 -0.14444308520E+01 -0.65667482388E+02  0.68710151447E+02  0.00000000000E+00 0. -1.
<scales pt_clust_5="13000.00000" pt_clust_6="13000.00000" pt_clust_7="13000.00000" pt_clust_8="13000.00000" pt_clust_9="20.22045"></scales>
<clustering>
<clus scale="   20.220">  2  9  1 -1</clus>
<clus scale="   89.490">  7  8 -1 -1</clus>
<clus scale="   97.540">  5  6 -1 -1</clus>
<clus scale="  127.225">  1  7  2 -1</clus>
<clus scale="   20.220">  2  5  1 -1</clus>
</clustering>
</event>
<event>
 9    1  0.1973774E-005  0.1271094E+03  0.7546771E-02  0.1234053E+00
         -2   -1    0    0    0  501 -0.00000000000E+00  0.00000000000E+00  0.72887878876E+03  0.72887878876E+03  0.00000000000E+00 0.  1.
          1   -1    0    0  502    0  0.00000000000E+00 -0.00000000000E+00 -0.29504204432E+02  0.29504204432E+02  0.00000000000E+00 0. -1.
        -24    2    1    2    0    0 -0.95416721480E+02  0.80772942687E+01  0.38551304156E+03  0.40540477609E+03  0.81013170784E+02 0.  0.
         23    2    1    2    0    0  0.81540547026E+02 -0.23753779590E+02  0.30718855649E+03  0.33100484332E+03  0.89366068574E+02 0.  0.
         11    1    3    3    0    0 -0.53644742064E+02  0.31210578757E+02  0.11470194978E+03  0.13041624078E+03  0.00000000000E+00 0. -1.
        -12    1    3    3    0    0 -0.41771979416E+02 -0.23133284489E+02  0.27081109178E+03  0.27498853530E+03  0.00000000000E+00 0.  1.
        -11    1    4    4    0    0  0.92445816604E+02 -0.41130335388E+02  0.23277491316E+03  0.25381507775E+03  0.00000000000E+00 0.  1.
         11    1    4    4    0    0 -0.10905269578E+02  0.17376555797E+02  0.74413643324E+02  0.77189765570E+02  0.00000000000E+00 0. -1.
         21    1    1    2  502  501  0.13876174454E+02  0.15676485322E+02  0.66729862835E+01  0.21973373784E+02  0.00000000000E+00 0. -1.
<scales pt_clust_5="13000.00000" pt_clust_6="13000.00000" pt_clust_7="13000.00000" pt_clust_8="13000.00000" pt_clust_9="20.93563"></scales>
<clustering>
<clus scale="   20.936">  2  9  1 -1</clus>
<clus scale="   81.013">  5  6 -1 -1</clus>
<clus scale="   89.366">  7  8 -1 -1</clus>
<clus scale="  121.382">  1  5  2 -1</clus>
<clus scale="   20.936">  2  5  1 -1</clus>
</clustering>
</event>
<event>
 9    1  0.1973774E-005  0.9263286E+02  0.7546771E-02  0.1300833E+00
          1   -1    0    0  502    0  0.00000000000E+00  0.00000000000E+00  0.59010588287E+03  0.59010588287E+03  0.00000000000E+00 0. -1.
         -2   -1    0    0    0  501 -0.00000000000E+00 -0.00000000000E+00 -0.32172114643E+02  0.32172114643E+02  0.00000000000E+00 0.  1.
        -24    2    1    2    0    0 -0.26614870814E+01 -0.13562675265E+02  0.85358961661E+02  0.11804251000E+03  0.80354540363E+02 0.  0.
         23    2    1    2    0    0 -0.40293786533E+02 -0.52371968763E+01  0.43053218397E+03  0.44125792930E+03  0.87747257920E+02 0.  0.
         13    1    3    3    0    0 -0.40300199206E+02 -0.46713465111E+01  0.57529506263E+02  0.70395821077E+02  0.00000000000E+00 0. -1.
        -14    1    3    3    0    0  0.37638712124E+02 -0.88913287539E+01  0.27829455398E+02  0.47646688921E+02  0.00000000000E+00 0.  1.
        -13    1    4    4    0    0  0.26963541525E+02  0.50152329632E+01  0.94082522016E+02  0.97998500408E+02  0.00000000000E+00 0.  1.
         13    1    4    4    0    0 -0.67257328058E+02 -0.10252429839E+02  0.33644966195E+03  0.34325942889E+03  0.00000000000E+00 0. -1.
         21    1    1    2  502  501  0.42955273614E+02  0.18799872141E+02  0.42042622596E+02  0.62977558214E+02  0.00000000000E+00 0.  1.
<scales pt_clust_5="13000.00000" pt_clust_6="13000.00000" pt_clust_7="13000.00000" pt_clust_8="13000.00000" pt_clust_9="46.88913"></scales>
<clustering>
<clus scale="   46.889">  2  9  1 -1</clus>
<clus scale="   80.355">  5  6 -1 -1</clus>
<clus scale="   85.663">  2  5  1 -1</clus>
<clus scale="   87.747">  7  8 -1 -1</clus>
<clus scale="   92.633">  1  5  2 -1</clus>
</clustering>
</event>
<event>
 9    1  0.1973774E-005  0.1115089E+03  0.7546771E-02  0.1259613E+00
          3   -1    0    0  502    0  0.00000000000E+00  0.00000000000E+00  0.10984650341E+03  0.10984650341E+03  0.00000000000E+00 0. -1.
         -4   -1    0    0    0  501 -0.00000000000E+00 -0.00000000000E+00 -0.32837506139E+03  0.32837506139E+03  0.00000000000E+00 0.  1.
        -24    2    1    2    0    0 -0.57857532644E+01 -0.75234368973E+02 -0.25534721185E+03  0.27820000373E+03  0.80618597492E+02 0.  0.
         23    2    1    2    0    0  0.87668081603E+01  0.54680126400E+02 -0.15933887360E+02  0.10332769736E+03  0.85766841654E+02 0.  0.
         13    1    3    3    0    0  0.33920645687E+01 -0.24519837449E+02 -0.87185761374E+01  0.26243896441E+02  0.00000000000E+00 0. -1.
        -14    1    3    3    0    0 -0.91778178331E+01 -0.50714531524E+02 -0.24662863571E+03  0.25195610729E+03  0.00000000000E+00 0.  1.
        -11    1    4    4    0    0 -0.22999373365E+02  0.62516965271E+02  0.71405310655E+00  0.66617204938E+02  0.00000000000E+00 0. -1.
         11    1    4    4    0    0  0.31766181526E+02 -0.78368388713E+01 -0.16647940467E+02  0.36710492424E+02  0.00000000000E+00 0.  1.
         21    1    1    2  502  501 -0.29810548959E+01  0.20554242573E+02  0.52752541225E+02  0.56693863705E+02  0.00000000000E+00 0. -1.
<scales pt_clust_5="13000.00000" pt_clust_6="13000.00000" pt_clust_7="13000.00000" pt_clust_8="13000.00000" pt_clust_9="20.76929"></scales>
<clustering>
<clus scale="   20.769">  1  9  2 -1</clus>
<clus scale="   80.619">  5  6 -1 -1</clus>
<clus scale="   85.767">  7  8 -1 -1</clus>
<clus scale="  107.599">  2  5  1 -1</clus>
<clus scale="   20.769">  1  5  2 -1</clus>
</clustering>
</event>
<event>
 9    1  0.1973774E-005  0.1594667E+03  0.7546771E-02  0.1190970E+00
          1   -1    0    0  502    0  0.00000000000E+00  0.00000000000E+00  0.57762787147E+03  0.57762787147E+03  0.00000000000E+00 0. -1.
         -2   -1    0    0    0  501 -0.00000000000E+00 -0.00000000000E+00 -0.67009446194E+02  0.67009446194E+02  0.00000000000E+00 0.  1.
         23    2    1    2    0    0 -0.45186706723E+02 -0.13606427964E+03  0.11198497723E+03  0.20323629072E+03  0.90603686909E+02 0.  0.
        -24    2    1    2    0    0  0.70073360276E+01  0.11319542888E+03  0.24646126251E+03  0.28285443211E+03  0.80007299476E+02 0.  0.
         11    1    4    4    0    0 -0.25647029746E+02  0.98104520087E+02  0.19851650532E+03  0.22291493867E+03  0.00000000000E+00 0. -1.
        -12    1    4    4    0    0  0.32654365774E+02  0.15090908789E+02  0.47944757187E+02  0.59939493440E+02  0.00000000000E+00 0.  1.
        -13    1    3    3    0    0  0.70912563529E+01 -0.51720619107E+02  0.86090519018E+02  0.10068210279E+03  0.00000000000E+00 0. -1.
         13    1    3    3    0    0 -0.52277963076E+02 -0.84343660538E+02  0.25894458212E+02  0.10255418793E+03  0.00000000000E+00 0.  1.
         21    1    1    2  502  501  0.38179370695E+02  0.22868850768E+02  0.15217218554E+03  0.15854659484E+03  0.00000000000E+00 0. -1.
<scales pt_clust_5="13000.00000" pt_clust_6="13000.00000" pt_clust_7="13000.00000" pt_clust_8="13000.00000" pt_clust_9="44.50448"></scales>
<clustering>
<clus scale="   44.504">  1  9  2 -1</clus>
<clus scale="   80.007">  5  6 -1 -1</clus>
<clus scale="   90.604">  7  8 -1 -1</clus>
<clus scale="  153.694">  1  5  2 -1</clus>
<clus scale="   44.504">  1  5  2 -1</clus>
</clustering>
</event>
<event>
 9    1  0.1973774E-005  0.1025310E+03  0.7546771E-02  0.1280074E+00
         -2   -1    0    0    0  501 -0.00000000000E+00  0.00000000000E+00  0.23142026082E+02  0.23142026082E+02  0.00000000000E+00 0.  1.
          1   -1    0    0  502    0  0.00000000000E+00 -0.00000000000E+00 -0.11656448151E+04  0.11656448151E+04  0.00000000000E+00 0. -1.
         23    2    1    2    0    0  0.86565933771E+01  0.42503234457E+02 -0.14735356361E+03  0.17859584637E+03  0.91114993736E+02 0.  0.
        -24    2    1    2    0    0  0.45972412479E+02 -0.61167100051E+02 -0.53215367665E+03  0.54361029833E+03  0.80434719135E+02 0.  0.
         11    1    4    4    0    0  0.66058639565E+02 -0.26961423506E+02 -0.34256945153E+03  0.34992069293E+03  0.00000000000E+00 0. -1.
        -12    1    4    4    0    0 -0.20086227086E+02 -0.34205676546E+02 -0.18958422512E+03  0.19368960541E+03  0.00000000000E+00 0.  1.
        -11    1    3    3    0    0 -0.14665025799E+02  0.56970764884E+02 -0.13729245832E+03  0.14936515706E+03  0.00000000000E+00 0. -1.
         11    1    3    3    0    0  0.23321619176E+02 -0.14467530427E+02 -0.10061105291E+02  0.29230689306E+02  0.00000000000E+00 0.  1.
         21    1    1    2  502  501 -0.54629005856E+02  0.18663865594E+02 -0.46299554877E+03  0.46658069650E+03  0.00000000000E+00 0. -1.
<scales pt_clust_5="13000.00000" pt_clust_6="13000.00000" pt_clust_7="13000.00000" pt_clust_8="13000.00000" pt_clust_9="57.72927"></scales>
<clustering>
<clus scale="   57.729">  2  9  1 -1</clus>
<clus scale="   80.435">  5  6 -1 -1</clus>
<clus scale="   91.115">  7  8 -1 -1</clus>
<clus scale="   93.169">  2  5  1 -1</clus>
<clus scale="   57.729">  2  5  1 -1</clus>
</clustering>
</event>
<event>
 9    1  0.1973774E-005  0.9535594E+02  0.7546771E-02  0.1295241E+00
          1   -1    0    0  502    0  0.00000000000E+00  0.00000000000E+00  0.49651489285E+03  0.49651489285E+03  0.00000000000E+00 0. -1.
         -2   -1    0    0    0  501 -0.00000000000E+00 -0.00000000000E+00 -0.69939709549E+02  0.69939709549E+02  0.00000000000E+00 0.  1.
         23    2    1    2    0    0 -0.40234388203E+02  0.30964647847E+00 -0.14005917746E+02  0.99873436992E+02  0.90330702476E+02 0.  0.
        -24    2    1    2    0    0 -0.26031928755E+01  0.71121773098E+01  0.13485276674E+03  0.15777709125E+03  0.81553553846E+02 0.  0.
         13    1    4    4    0    0  0.30561164270E+02 -0.22011690776E+02  0.58132183413E+02  0.69266514570E+02  0.00000000000E+00 0. -1.
        -14    1    4    4    0    0 -0.33164357145E+02  0.29123868086E+02  0.76720583330E+02  0.88510576677E+02  0.00000000000E+00 0.  1.
        -11    1    3    3    0    0  0.11134651374E+02  0.34536768114E+02 -0.11610687853E+02  0.38099565423E+02  0.00000000000E+00 0.  1.
         11    1    3    3    0    0 -0.51369039577E+02 -0.34227121635E+02 -0.23952298926E+01  0.61773871570E+02  0.00000000000E+00 0. -1.
         21    1    1    2  502  501  0.42837581078E+02 -0.74218237883E+01  0.30572833430E+03  0.30880407416E+03  0.00000000000E+00 0. -1.
<scales pt_clust_5="13000.00000" pt_clust_6="13000.00000" pt_clust_7="13000.00000" pt_clust_8="13000.00000" pt_clust_9="43.47576"></scales>
<clustering>
<clus scale="   43.476">  1  9  2 -1</clus>
<clus scale="   81.554">  5  6 -1 -1</clus>
<clus scale="   87.087">  1  5  2 -1</clus>
<clus scale="   90.331">  7  8 -1 -1</clus>
<clus scale="   43.476">  1  5  2 -1</clus>
</clustering>
</event>
<event>
 9    1  0.1973774E-005  0.8838066E+02  0.7546771E-02  0.1311588E+00
         -2   -1    0    0    0  501 -0.00000000000E+00  0.00000000000E+00  0.69769542166E+02  0.69769542166E+02  0.00000000000E+00 0.  1.
          1   -1    0    0  502    0  0.00000000000E+00 -0.00000000000E+00 -0.23002756910E+03  0.23002756910E+03  0.00000000000E+00 0. -1.
         23    2    1    2    0    0  0.20126146501E+02  0.44815311054E+02 -0.26823895819E+02  0.10430672618E+03  0.88016463580E+02 0.  0.
        -24    2    1    2    0    0  0.15649310233E+01  0.64884555783E+01 -0.10611133908E+03  0.13344915461E+03  0.80650551885E+02 0.  0.
         13    1    4    4    0    0 -0.28064216248E+02 -0.19473835618E+01 -0.60796351850E+01  0.28781148349E+02  0.00000000000E+00 0. -1.
        -14    1    4    4    0    0  0.29629147271E+02  0.84358391400E+01 -0.10003170390E+03  0.10466800626E+03  0.00000000000E+00 0.  1.
        -13    1    3    3    0    0  0.40640521518E+02  0.61445413269E+02 -0.14156016259E+02  0.75017222006E+02  0.00000000000E+00 0.  1.
         13    1    3    3    0    0 -0.20514375017E+02 -0.16630102216E+02 -0.12667879560E+02  0.29289504171E+02  0.00000000000E+00 0. -1.
         21    1    1    2  502  501 -0.21691077524E+02 -0.51303766632E+02 -0.27322792031E+02  0.62041230477E+02  0.00000000000E+00 0. -1.
<scales pt_clust_5="13000.00000" pt_clust_6="13000.00000" pt_clust_7="13000.00000" pt_clust_8="13000.00000" pt_clust_9="55.70080"></scales>
<clustering>
<clus scale="   55.701">  1  9  2 -1</clus>
<clus scale="   80.651">  5  6 -1 -1</clus>
<clus scale="   81.048">  2  5  1 -1</clus>
<clus scale="   88.016">  7  8 -1 -1</clus>
<clus scale="   81.048">  2  5  1 -1</clus>
</clustering>
</event>
<event>
 9    1  0.1973774E-005  0.1265032E+03  0.7546771E-02  0.1235189E+00
         -2   -1    0    0    0  501 -0.00000000000E+00  0.00000000000E+00  0.18915726114E+03  0.18915726114E+03  0.00000000000E+00 0.  1.
          1   -1    0    0  502    0  0.00000000000E+00 -0.00000000000E+00 -0.18659841925E+03  0.18659841925E+03  0.00000000000E+00 0. -1.
         23    2    1    2    0    0 -0.57539620707E+02  0.70985876040E+02  0.13165781235E+03  0.18373213480E+03  0.89854967898E+02 0.  0.
        -24    2    1    2    0    0  0.61223285153E+02 -0.47745102606E+02 -0.12538072590E+03  0.16820069362E+03  0.80890428593E+02 0.  0.
         11    1    4    4    0    0  0.54830645586E+02  0.81737339561E+01 -0.69329725291E+02  0.88768352643E+02  0.00000000000E+00 0. -1.
        -12    1    4    4    0    0  0.63926395673E+01 -0.55918836562E+02 -0.56051000611E+02  0.79432340974E+02  0.00000000000E+00 0.  1.
        -11    1    3    3    0    0 -0.25740112190E+02  0.26488125012E+02  0.12291626065E+03  0.12834555416E+03  0.00000000000E+00 0.  1.
         11    1    3    3    0    0 -0.31799508517E+02  0.44497751028E+02  0.87415517093E+01  0.55386580638E+02  0.00000000000E+00 0. -1.
         21    1    1    2  502  501 -0.36836644465E+01 -0.23240773434E+02 -0.37182445544E+01  0.23822851973E+02  0.00000000000E+00 0. -1.
<scales pt_clust_5="13000.00000" pt_clust_6="13000.00000" pt_clust_7="13000.00000" pt_clust_8="13000.00000" pt_clust_9="23.53089"></scales>
<clustering>
<clus scale="   23.531">  2  9  1 -1</clus>
<clus scale="   80.890">  5  6 -1 -1</clus>
<clus scale="   89.855">  7  8 -1 -1</clus>
<clus scale="  120.301">  2  5  1 -1</clus>
<clus scale="   23.531">  2  5  1 -1</clus>
</clustering>
</event>
<event>
 9    1  0.1973774E-005  0.9991134E+02  0.7546771E-02  0.1294744E+00
         -2   -1    0    0    0  501 -0.00000000000E+00  0.00000000000E+00  0.60722230636E+02  0.60722230636E+02  0.00000000000E+00 0.  1.
          1   -1    0    0  502    0  0.00000000000E+00 -0.00000000000E+00 -0.46220388065E+03  0.46220388065E+03  0.00000000000E+00 0. -1.
        -24    2    1    2    0    0 -0.12348108811E+02 -0.10870622576E+02  0.22217761976E+02  0.79964564930E+02  0.75033702234E+02 0.  0.
         23    2    1    2    0    0 -0.11104434655E+01 -0.58125123271E+01 -0.26649935005E+03  0.28430682978E+03  0.98860768231E+02 0.  0.
         13    1    3    3    0    0 -0.19828195419E+02 -0.20868298432E+02 -0.20577682171E+02  0.35384802056E+02  0.00000000000E+00 0. -1.
        -14    1    3    3    0    0  0.74800866082E+01  0.99976758554E+01  0.42795444147E+02  0.44579762874E+02  0.00000000000E+00 0.  1.
        -11    1    4    4    0    0  0.32146879635E+01  0.46090760462E+02 -0.14284956404E+03  0.15013557328E+03  0.00000000000E+00 0.  1.
         11    1    4    4    0    0 -0.43251314290E+01 -0.51903272790E+02 -0.12364978602E+03  0.13417125650E+03  0.00000000000E+00 0. -1.
         21    1    1    2  502  501  0.13458552277E+02  0.16683134904E+02 -0.15720006194E+03  0.15865471658E+03  0.00000000000E+00 0.  1.
<scales pt_clust_5="13000.00000" pt_clust_6="13000.00000" pt_clust_7="13000.00000" pt_clust_8="13000.00000" pt_clust_9="21.43501"></scales>
<clustering>
<clus scale="   21.435">  2  9  1 -1</clus>
<clus scale="   75.034">  5  6 -1 -1</clus>
<clus scale="   76.413">  1  5  2 -1</clus>
<clus scale="   98.861">  7  8 -1 -1</clus>
<clus scale="   21.435">  2  5  1 -1</clus>
</clustering>
</event>
<event>
 9    1  0.1973774E-005  0.1355424E+03  0.7546771E-02  0.1227098E+00
          1   -1    0    0  502    0  0.00000000000E+00  0.00000000000E+00  0.32085392633E+03  0.32085392633E+03  0.00000000000E+00 0. -1.
         -2   -1    0    0    0  501 -0.00000000000E+00 -0.00000000000E+00 -0.14676451101E+03  0.14676451101E+03  0.00000000000E+00 0.  1.
         23    2    1    2    0    0  0.50376129256E+02  0.67051535087E+02 -0.95803729116E+02  0.16682880848E+03  0.10779533417E+03 0.  0.
        -24    2    1    2    0    0 -0.56654087893E+02 -0.45059480153E+02  0.23631129083E+03  0.26015953980E+03  0.81239876611E+02 0.  0.
         13    1    4    4    0    0 -0.33738769889E+02 -0.35157898745E+02  0.22903010099E+03  0.23415629310E+03  0.00000000000E+00 0. -1.
        -14    1    4    4    0    0 -0.22915318004E+02 -0.99015814081E+01  0.72811898315E+01  0.26003246700E+02  0.00000000000E+00 0.  1.
        -13    1    3    3    0    0  0.27294347295E+02  0.46753977858E+02  0.11383325861E+02  0.55321749316E+02  0.00000000000E+00 0. -1.
         13    1    3    3    0    0  0.23081781962E+02  0.20297557229E+02 -0.10718705498E+03  0.11150705916E+03  0.00000000000E+00 0.  1.
         21    1    1    2  502  501  0.62779586362E+01 -0.21992054934E+02  0.33581853610E+02  0.40630089056E+02  0.00000000000E+00 0. -1.
<scales pt_clust_5="13000.00000" pt_clust_6="13000.00000" pt_clust_7="13000.00000" pt_clust_8="13000.00000" pt_clust_9="22.87058"></scales>
<clustering>
<clus scale="   22.871">  1  9  2 -1</clus>
<clus scale="   81.240">  5  6 -1 -1</clus>
<clus scale="  107.795">  7  8 -1 -1</clus>
<clus scale="  115.550">  1  5  2 -1</clus>
<clus scale="   22.871">  1  5  2 -1</clus>
</clustering>
</event>
<event>
 9    1  0.1973774E-005  0.1436433E+03  0.7546771E-02  0.1211090E+00
         -4   -1    0    0    0  501 -0.00000000000E+00  0.00000000000E+00  0.90514749944E+03  0.90514749944E+03  0.00000000000E+00 0.  1.
          3   -1    0    0  502    0  0.00000000000E+00 -0.00000000000E+00 -0.10014551238E+03  0.10014551238E+03  0.00000000000E+00 0. -1.
         23    2    1    2    0    0  0.93977747574E+02  0.56688007793E+02  0.64592936834E+03  0.66180111491E+03  0.93330699939E+02 0.  0.
        -24    2    1    2    0    0 -0.13523514590E+03  0.35232421883E+02  0.17866705969E+03  0.24084940849E+03  0.80973150581E+02 0.  0.
         13    1    4    4    0    0 -0.10899677461E+03  0.24199936135E+02  0.77903620140E+02  0.13614296830E+03  0.00000000000E+00 0. -1.
        -14    1    4    4    0    0 -0.26238371289E+02  0.11032485748E+02  0.10076343955E+03  0.10470644020E+03  0.00000000000E+00 0.  1.
        -11    1    3    3    0    0  0.38369995779E+02 -0.24600154751E+02  0.20599048600E+03  0.21097275775E+03  0.00000000000E+00 0. -1.
         11    1    3    3    0    0  0.55607751795E+02  0.81288162544E+02  0.43993888234E+03  0.45082835716E+03  0.00000000000E+00 0.  1.
         21    1    1    2  502  501  0.41257398330E+02 -0.91920429676E+02 -0.19594440968E+02  0.10264248840E+03  0.00000000000E+00 0. -1.
<scales pt_clust_5="13000.00000" pt_clust_6="13000.00000" pt_clust_7="13000.00000" pt_clust_8="13000.00000" pt_clust_9="100.75484"></scales>
<clustering>
<clus scale="   80.973">  5  6 -1 -1</clus>
<clus scale="   93.331">  7  8 -1 -1</clus>
<clus scale="  100.755">  2  9  1 -1</clus>
<clus scale="  135.939">  2  5  1 -1</clus>
<clus scale="  100.755">  2  5  1 -1</clus>
</clustering>
</event>
<event>
 9    1  0.1973774E-005  0.1100031E+03  0.7546771E-02  0.1265071E+00
         -2   -1    0    0    0  501 -0.00000000000E+00  0.00000000000E+00  0.21655261167E+03  0.21655261167E+03  0.00000000000E+00 0.  1.
          1   -1    0    0  502    0  0.00000000000E+00 -0.00000000000E+00 -0.12915412621E+03  0.12915412621E+03  0.00000000000E+00 0. -1.
         23    2    1    2    0    0 -0.55822416378E+02 -0.47272273376E+02  0.12996504268E+03  0.17561664180E+03  0.92733395051E+02 0.  0.
        -24    2    1    2    0    0 -0.15010716427E+02  0.40920813432E+02 -0.33894099653E+02  0.98445938832E+02  0.81504345293E+02 0.  0.
         11    1    4    4    0    0 -0.40352683783E+02 -0.42346290466E+01 -0.12960721865E+02  0.42594031072E+02  0.00000000000E+00 0. -1.
        -12    1    4    4    0    0  0.25341967355E+02  0.45155442479E+02 -0.20933377788E+02  0.55851907760E+02  0.00000000000E+00 0.  1.
        -13    1    3    3    0    0  0.20668601210E+02 -0.28317190437E+02  0.63459671205E+02  0.72499546341E+02  0.00000000000E+00 0.  1.
         13    1    3    3    0    0 -0.76491017587E+02 -0.18955082939E+02  0.66505371477E+02  0.10311709546E+03  0.00000000000E+00 0. -1.
         21    1    1    2  502  501  0.70833132805E+02  0.63514599438E+01 -0.86724575692E+01  0.71644157240E+02  0.00000000000E+00 0.  1.
<scales pt_clust_5="13000.00000" pt_clust_6="13000.00000" pt_clust_7="13000.00000" pt_clust_8="13000.00000" pt_clust_9="71.11732"></scales>
<clustering>
<clus scale="   71.117">  2  9  1 -1</clus>
<clus scale="   81.504">  5  6 -1 -1</clus>
<clus scale="   92.733">  7  8 -1 -1</clus>
<clus scale="  100.718">  2  5  1 -1</clus>
<clus scale="   71.117">  2  5  1 -1</clus>
</clustering>
</event>
<event>
 9    1  0.1973774E-005  0.1717156E+03  0.7546771E-02  0.1190785E+00
          3   -1    0    0  502    0  0.00000000000E+00  0.00000000000E+00  0.17617848430E+03  0.17617848430E+03  0.00000000000E+00 0. -1.
         -4   -1    0    0    0  501 -0.00000000000E+00 -0.00000000000E+00 -0.43142045580E+03  0.43142045580E+03  0.00000000000E+00 0.  1.
        -24    2    1    2    0    0  0.69481613124E+02  0.65089081291E+02 -0.25005355299E+03  0.27893123911E+03  0.78813537705E+02 0.  0.
         23    2    1    2    0    0 -0.12349215531E+03  0.78859660996E+02 -0.58639958446E+01  0.17491843927E+03  0.95356779494E+02 0.  0.
         11    1    3    3    0    0 -0.86447840672E+01  0.35293389340E+02 -0.47553249780E+02  0.59847031566E+02  0.00000000000E+00 0. -1.
        -12    1    3    3    0    0  0.78126397191E+02  0.29795691950E+02 -0.20250030321E+03  0.21908420755E+03  0.00000000000E+00 0.  1.
        -13    1    4    4    0    0 -0.79334320186E+02  0.20886956850E+02 -0.43544923689E+02  0.92878198222E+02  0.00000000000E+00 0. -1.
         13    1    4    4    0    0 -0.44157835123E+02  0.57972704146E+02  0.37680927844E+02  0.82040241052E+02  0.00000000000E+00 0.  1.
         21    1    1    2  502  501  0.54010542186E+02 -0.14394874229E+03  0.67557732546E+00  0.15374926171E+03  0.00000000000E+00 0. -1.
<scales pt_clust_5="13000.00000" pt_clust_6="13000.00000" pt_clust_7="13000.00000" pt_clust_8="13000.00000" pt_clust_9="142.80520"></scales>
<clustering>
<clus scale="   78.814">  5  6 -1 -1</clus>
<clus scale="   95.357">  7  8 -1 -1</clus>
<clus scale="  123.596">  2  5  1 -1</clus>
<clus scale="  142.805">  2  9  1 -1</clus>
<clus scale="  171.716">  1  5  2 -1</clus>
</clustering>
</event>
<event>
 9    1  0.1973774E-005  0.1061268E+03  0.7546771E-02  0.1272229E+00
          1   -1    0    0  502    0  0.00000000000E+00  0.00000000000E+00  0.61494435794E+03  0.61494435794E+03  0.00000000000E+00 0. -1.
         -2   -1    0    0    0  501 -0.00000000000E+00 -0.00000000000E+00 -0.30849659117E+02  0.30849659117E+02  0.00000000000E+00 0.  1.
        -24    2    1    2    0    0  0.37429907786E+02  0.16351333239E+02  0.10422497139E+03  0.13851486177E+03  0.81579152811E+02 0.  0.
         23    2    1    2    0    0 -0.59819391831E+02  0.12980960607E+02  0.43722264199E+03  0.45088370907E+03  0.91573006149E+02 0.  0.
         11    1    3    3    0    0  0.14006177797E+02  0.43825632359E+02  0.87209538279E+02  0.98602041739E+02  0.00000000000E+00 0. -1.
        -12    1    3    3    0    0  0.23423729988E+02 -0.27474299120E+02  0.17015433115E+02  0.39912820031E+02  0.00000000000E+00 0.  1.
        -13    1    4    4    0    0 -0.13859937556E+02  0.49277741371E+02  0.18502262444E+03  0.19197334507E+03  0.00000000000E+00 0.  1.
         13    1    4    4    0    0 -0.45959454275E+02 -0.36296780764E+02  0.25220001755E+03  0.25891036399E+03  0.00000000000E+00 0. -1.
         21    1    1    2  502  501  0.22389484045E+02 -0.29332293846E+02  0.42647085437E+02  0.56395446220E+02  0.00000000000E+00 0.  1.
<scales pt_clust_5="13000.00000" pt_clust_6="13000.00000" pt_clust_7="13000.00000" pt_clust_8="13000.00000" pt_clust_9="36.90085"></scales>
<clustering>
<clus scale="   36.901">  2  9  1 -1</clus>
<clus scale="   81.579">  5  6 -1 -1</clus>
<clus scale="   91.573">  7  8 -1 -1</clus>
<clus scale="   97.634">  2  5  1 -1</clus>
<clus scale="  106.127">  1  5  2 -1</clus>
</clustering>
</event>
<event>
 9    1  0.1973774E-005  0.1358638E+03  0.7546771E-02  0.1219507E+00
         -2   -1    0    0    0  501 -0.00000000000E+00  0.00000000000E+00  0.14086539296E+03  0.14086539296E+03  0.00000000000E+00 0.  1.
          1   -1    0    0  502    0  0.00000000000E+00 -0.00000000000E+00 -0.22047540708E+03  0.22047540708E+03  0.00000000000E+00 0. -1.
        -24    2    1    2    0    0 -0.97291735507E+02 -0.67026899497E+02  0.47623424877E+02  0.15379323811E+03  0.86174720404E+02 0.  0.
         23    2    1    2    0    0  0.61133398304E+02  0.31306311107E+02 -0.98848157072E+02  0.14933149874E+03  0.88383034894E+02 0.  0.
         11    1    3    3    0    0 -0.98574446407E+02 -0.21760343536E+02  0.32548127351E+02  0.10606514333E+03  0.00000000000E+00 0. -1.
        -12    1    3    3    0    0  0.12827108999E+01 -0.45266555961E+02  0.15075297526E+02  0.47728094780E+02  0.00000000000E+00 0.  1.
        -11    1    4    4    0    0  0.43180110193E+02  0.59455527387E-01  0.98684881870E+00  0.43191426486E+02  0.00000000000E+00 0.  1.
         11    1    4    4    0    0  0.17953288110E+02  0.31246855580E+02 -0.99835005890E+02  0.10614007226E+03  0.00000000000E+00 0. -1.
         21    1    1    2  502  501  0.36158337203E+02  0.35720588390E+02 -0.28385281923E+02  0.58216063197E+02  0.00000000000E+00 0. -1.
<scales pt_clust_5="13000.00000" pt_clust_6="13000.00000" pt_clust_7="13000.00000" pt_clust_8="13000.00000" pt_clust_9="50.82702"></scales>
<clustering>
<clus scale="   50.827">  2  9  1 -1</clus>
<clus scale="   86.175">  5  6 -1 -1</clus>
<clus scale="   88.383">  7  8 -1 -1</clus>
<clus scale="  134.438">  1  5  2 -1</clus>
<clus scale="   50.827">  2  5  1 -1</clus>
</clustering>
</event>
<event>
 9    1  0.1973774E-005  0.1061769E+03  0.7546771E-02  0.1272114E+00
         -2   -1    0    0    0  501 -0.00000000000E+00  0.00000000000E+00  0.32050328524E+03  0.32050328524E+03  0.00000000000E+00 0.  1.
          1   -1    0    0  502    0  0.00000000000E+00 -0.00000000000E+00 -0.97614811140E+02  0.97614811140E+02  0.00000000000E+00 0. -1.
         23    2    1    2    0    0 -0.80170248438E+01  0.78485385522E+01  0.17735135323E+03  0.19969235750E+03  0.91091508418E+02 0.  0.
        -24    2    1    2    0    0 -0.67164099543E+02  0.10786620190E+02 -0.30244684347E+02  0.11006360247E+03  0.81067183343E+02 0.  0.
         11    1    4    4    0    0 -0.23190596672E+02  0.26167879088E+02 -0.48702654703E+02  0.59954234589E+02  0.00000000000E+00 0. -1.
        -12    1    4    4    0    0 -0.43973502870E+02 -0.15381258898E+02  0.18457970356E+02  0.50109367883E+02  0.00000000000E+00 0.  1.
        -13    1    3    3    0    0 -0.32405137174E+02 -0.26214256404E+02  0.12975531306E+03  0.13628544098E+03  0.00000000000E+00 0. -1.
         13    1    3    3    0    0  0.24388112330E+02  0.34062794956E+02  0.47596040168E+02  0.63406916523E+02  0.00000000000E+00 0.  1.
         21    1    1    2  502  501  0.75181124386E+02 -0.18635158743E+02  0.75781805218E+02  0.10836213641E+03  0.00000000000E+00 0.  1.
<scales pt_clust_5="13000.00000" pt_clust_6="13000.00000" pt_clust_7="13000.00000" pt_clust_8="13000.00000" pt_clust_9="77.45625"></scales>
<clustering>
<clus scale="   77.456">  1  9  2 -1</clus>
<clus scale="   81.067">  5  6 -1 -1</clus>
<clus scale="   91.092">  7  8 -1 -1</clus>
<clus scale="   97.713">  2  5  1 -1</clus>
<clus scale="   97.713">  2  5  1 -1</clus>
</clustering>
</event>
<event>
 9    1  0.1973774E-005  0.1472817E+03  0.7546771E-02  0.1206486E+00
          1   -1    0    0  502    0  0.00000000000E+00  0.00000000000E+00  0.11098794728E+03  0.11098794728E+03  0.00000000000E+00 0. -1.
         -2   -1    0    0    0  501 -0.00000000000E+00 -0.00000000000E+00 -0.36397144077E+03  0.36397144077E+03  0.00000000000E+00 0.  1.
        -24    2    1    2    0    0  0.10546828656E+02 -0.79213585144E+02 -0.12105887764E+03  0.16612302177E+03  0.80966529130E+02 0.  0.
         23    2    1    2    0    0  0.56856791508E+02  0.12973118492E+03 -0.23815057811E+02  0.17178545443E+03  0.94234867718E+02 0.  0.
         13    1    3    3    0    0  0.22133572752E+02 -0.29925292427E+02 -0.26173148481E+01  0.37313114406E+02  0.00000000000E+00 0. -1.
        -14    1    3    3    0    0 -0.11586744097E+02 -0.49288292717E+02 -0.11844156279E+03  0.12880990736E+03  0.00000000000E+00 0.  1.
        -11    1    4    4    0    0 -0.24897707559E+02  0.15998357674E+02 -0.90191997939E+01  0.30938475316E+02  0.00000000000E+00 0.  1.
         11    1    4    4    0    0  0.81754499067E+02  0.11373282725E+03 -0.14795858017E+02  0.14084697911E+03  0.00000000000E+00 0. -1.
         21    1    1    2  502  501 -0.67403620163E+02 -0.50517599777E+02 -0.10810955805E+03  0.13705091185E+03  0.00000000000E+00 0.  1.
<scales pt_clust_5="13000.00000" pt_clust_6="13000.00000" pt_clust_7="13000.00000" pt_clust_8="13000.00000" pt_clust_9="84.23346"></scales>
<clustering>
<clus scale="   80.967">  5  6 -1 -1</clus>
<clus scale="   84.233">  2  9  1 -1</clus>
<clus scale="   94.235">  7  8 -1 -1</clus>
<clus scale="  139.166">  2  5  1 -1</clus>
<clus scale="  147.282">  1  5  2 -1</clus>
</clustering>
</event>
<event>
 9    1  0.1973774E-005  0.1036776E+03  0.7546771E-02  0.1279069E+00
          1   -1    0    0  502    0  0.00000000000E+00  0.00000000000E+00  0.26765004150E+03  0.26765004150E+03  0.00000000000E+00 0. -1.
         -2   -1    0    0    0  501 -0.00000000000E+00 -0.00000000000E+00 -0.17583510840E+03  0.17583510840E+03  0.00000000000E+00 0.  1.
        -24    2    1    2    0    0 -0.19820025872E+02 -0.45574064303E+02 -0.14726662988E+03  0.17401994746E+03  0.78266551433E+02 0.  0.
         23    2    1    2    0    0  0.21803232199E+02  0.17482950618E+02  0.17959848678E+03  0.20365274063E+03  0.91857432001E+02 0.  0.
         11    1    3    3    0    0 -0.39983168045E+02  0.28615499307E+01 -0.58730494470E+02  0.71106351162E+02  0.00000000000E+00 0. -1.
        -12    1    3    3    0    0  0.20163142173E+02 -0.48435614233E+02 -0.88536135412E+02  0.10291359629E+03  0.00000000000E+00 0.  1.
        -11    1    4    4    0    0 -0.88686445892E+01 -0.19483243005E+02  0.42245593249E+01  0.21819636027E+02  0.00000000000E+00 0.  1.
         11    1    4    4    0    0  0.30671876789E+02  0.36966193624E+02  0.17537392746E+03  0.18183310460E+03  0.00000000000E+00 0. -1.
         21    1    1    2  502  501 -0.19832063274E+01  0.28091113684E+02  0.59483076202E+02  0.65812461812E+02  0.00000000000E+00 0.  1.
<scales pt_clust_5="13000.00000" pt_clust_6="13000.00000" pt_clust_7="13000.00000" pt_clust_8="13000.00000" pt_clust_9="28.16103"></scales>
<clustering>
<clus scale="   28.161">  1  9  2 -1</clus>
<clus scale="   78.267">  5  6 -1 -1</clus>
<clus scale="   91.853">  2  5  1 -1</clus>
<clus scale="   91.857">  7  8 -1 -1</clus>
<clus scale="   28.161">  1  5  2 -1</clus>
</clustering>
</event>
<event>
 9    1  0.1973774E-005  0.9389597E+02  0.7546771E-02  0.1299424E+00
          1   -1    0    0  502    0  0.00000000000E+00  0.00000000000E+00  0.37121687734E+02  0.37121687734E+02  0.00000000000E+00 0. -1.
         -2   -1    0    0    0  501 -0.00000000000E+00 -0.00000000000E+00 -0.65374568647E+03  0.65374568647E+03  0.00000000000E+00 0.  1.
        -24    2    1    2    0    0 -0.20638041576E+02  0.40492144095E+01 -0.47002472248E+03  0.47730832112E+03  0.80359621518E+02 0.  0.
         23    2    1    2    0    0  0.40344504783E+02 -0.36834630242E+02 -0.13908318322E+03  0.17457546887E+03  0.90266236359E+02 0.  0.
         13    1    3    3    0    0 -0.18352658387E+02  0.24501518421E+02 -0.65936556383E+02  0.72696450687E+02  0.00000000000E+00 0. -1.
        -14    1    3    3    0    0 -0.22853831890E+01 -0.20452304012E+02 -0.40408816610E+03  0.40461187044E+03  0.00000000000E+00 0.  1.
        -11    1    4    4    0    0 -0.23060864404E+02  0.96633704051E+01 -0.48952253476E+02  0.54968239148E+02  0.00000000000E+00 0.  1.
         11    1    4    4    0    0  0.63405369187E+02 -0.46498000647E+02 -0.90130929741E+02  0.11960722972E+03  0.00000000000E+00 0. -1.
         21    1    1    2  502  501 -0.19706463207E+02  0.32785415833E+02 -0.75160930383E+01  0.38983584212E+02  0.00000000000E+00 0. -1.
<scales pt_clust_5="13000.00000" pt_clust_6="13000.00000" pt_clust_7="13000.00000" pt_clust_8="13000.00000" pt_clust_9="38.25217"></scales>
<clustering>
<clus scale="   38.252">  1  9  2 -1</clus>
<clus scale="   80.360">  5  6 -1 -1</clus>
<clus scale="   84.416">  2  5  1 -1</clus>
<clus scale="   90.266">  7  8 -1 -1</clus>
<clus scale="   38.252">  1  5  2 -1</clus>
</clustering>
</event>
<event>
 9    1  0.1973774E-005  0.1799112E+03  0.7546771E-02  0.1168924E+00
          1   -1    0    0  502    0  0.00000000000E+00  0.00000000000E+00  0.17606974198E+03  0.17606974198E+03  0.00000000000E+00 0. -1.
         -2   -1    0    0    0  501 -0.00000000000E+00 -0.00000000000E+00 -0.54319317563E+03  0.54319317563E+03  0.00000000000E+00 0.  1.
         23    2    1    2    0    0  0.59640356771E+02  0.14480581752E+03 -0.46763757550E+03  0.50204833396E+03  0.94031540796E+02 0.  0.
        -24    2    1    2    0    0 -0.58523959098E+02 -0.11251550882E+03  0.10350279709E+03  0.18476705000E+03  0.85681037844E+02 0.  0.
         13    1    4    4    0    0 -0.55295095238E+02 -0.12515240785E+03  0.10376703636E+03  0.17172149132E+03  0.00000000000E+00 0. -1.
        -14    1    4    4    0    0 -0.32288638605E+01  0.12636899026E+02 -0.26423926546E+00  0.13045558678E+02  0.00000000000E+00 0.  1.
        -13    1    3    3    0    0  0.72189614053E+02  0.53503796267E+02 -0.25207129141E+03  0.26760779612E+03  0.00000000000E+00 0. -1.
         13    1    3    3    0    0 -0.12549257282E+02  0.91302021255E+02 -0.21556628409E+03  0.23444053783E+03  0.00000000000E+00 0.  1.
         21    1    1    2  502  501 -0.11163976730E+01 -0.32290308702E+02 -0.29886552460E+01  0.32447533651E+02  0.00000000000E+00 0. -1.
<scales pt_clust_5="13000.00000" pt_clust_6="13000.00000" pt_clust_7="13000.00000" pt_clust_8="13000.00000" pt_clust_9="32.30960"></scales>
<clustering>
<clus scale="   32.310">  1  9  2 -1</clus>
<clus scale="   85.681">  5  6 -1 -1</clus>
<clus scale="   94.032">  7  8 -1 -1</clus>
<clus scale="  175.691">  1  5  2 -1</clus>
<clus scale="   32.310">  1  5  2 -1</clus>
</clustering>
</event>
<event>
 9    1  0.1973774E-005  0.1770378E+03  0.7546771E-02  0.1171922E+00
          1   -1    0    0  502    0  0.00000000000E+00  0.00000000000E+00  0.10565642035E+04  0.10565642035E+04  0.00000000000E+00 0. -1.
         -2   -1    0    0    0  501 -0.00000000000E+00 -0.00000000000E+00 -0.95519079217E+02  0.95519079217E+02  0.00000000000E+00 0.  1.
         23    2    1    2    0    0  0.14577596734E+02  0.15962004301E+03  0.53210812823E+02  0.19208532176E+03  0.91511287698E+02 0.  0.
        -24    2    1    2    0    0 -0.12570144914E+03 -0.88815491339E+02  0.60822776446E+03  0.63269706252E+03  0.81703816579E+02 0.  0.
         11    1    4    4    0    0 -0.13593582994E+03 -0.91020816213E+02  0.57811050753E+03  0.60081203197E+03  0.00000000000E+00 0. -1.
        -12    1    4    4    0    0  0.10234380797E+02  0.22053248741E+01  0.30117256928E+02  0.31885030547E+02  0.00000000000E+00 0.  1.
        -11    1    3    3    0    0  0.40145206775E+02  0.15175038130E+03  0.51799741953E+02  0.16529679101E+03  0.00000000000E+00 0.  1.
         11    1    3    3    0    0 -0.25567610042E+02  0.78696617129E+01  0.14110708698E+01  0.26788530749E+02  0.00000000000E+00 0. -1.
         21    1    1    2  502  501  0.11112385241E+03 -0.70804551674E+02  0.29960654697E+03  0.32730089841E+03  0.00000000000E+00 0. -1.
<scales pt_clust_5="13000.00000" pt_clust_6="13000.00000" pt_clust_7="13000.00000" pt_clust_8="13000.00000" pt_clust_9="131.76416"></scales>
<clustering>
<clus scale="   81.704">  5  6 -1 -1</clus>
<clus scale="   91.511">  7  8 -1 -1</clus>
<clus scale="  131.764">  1  9  2 -1</clus>
<clus scale="  172.173">  1  5  2 -1</clus>
<clus scale="  131.764">  1  5  2 -1</clus>
</clustering>
</event>
<event>
 9    1  0.1973774E-005  0.9943672E+02  0.7546771E-02  0.1286103E+00
         -2   -1    0    0    0  501 -0.00000000000E+00  0.00000000000E+00  0.57670640144E+02  0.57670640144E+02  0.00000000000E+00 0.  1.
          1   -1    0    0  502    0  0.00000000000E+00 -0.00000000000E+00 -0.74200431462E+03  0.74200431462E+03  0.00000000000E+00 0. -1.
        -24    2    1    2    0    0 -0.15154729470E+02  0.28753310096E+02 -0.62329110590E+01  0.88810736039E+02  0.82414070332E+02 0.  0.
         23    2    1    2    0    0 -0.83792957957E+01 -0.86833984747E+02 -0.27194890185E+03  0.29990613112E+03  0.91526656014E+02 0.  0.
         13    1    3    3    0    0  0.27414969709E+02  0.36164177855E+02 -0.29964294374E+01  0.45479741792E+02  0.00000000000E+00 0. -1.
        -14    1    3    3    0    0 -0.42569699179E+02 -0.74108677592E+01 -0.32364816217E+01  0.43330994247E+02  0.00000000000E+00 0.  1.
        -13    1    4    4    0    0 -0.45606054922E+02 -0.72589353523E+02 -0.16873851115E+03  0.18926650954E+03  0.00000000000E+00 0.  1.
         13    1    4    4    0    0  0.37226759127E+02 -0.14244631224E+02 -0.10321039070E+03  0.11063962158E+03  0.00000000000E+00 0. -1.
         21    1    1    2  502  501  0.23534025266E+02  0.58080674651E+02 -0.40615186157E+03  0.41095808760E+03  0.00000000000E+00 0. -1.
<scales pt_clust_5="13000.00000" pt_clust_6="13000.00000" pt_clust_7="13000.00000" pt_clust_8="13000.00000" pt_clust_9="62.66750"></scales>
<clustering>
<clus scale="   62.667">  2  9  1 -1</clus>
<clus scale="   82.414">  5  6 -1 -1</clus>
<clus scale="   91.119">  1  5  2 -1</clus>
<clus scale="   91.527">  7  8 -1 -1</clus>
<clus scale="   62.667">  2  5  1 -1</clus>
</clustering>
</event>
<event>
 9    1  0.1973774E-005  0.1023153E+03  0.7546771E-02  0.1280391E+00
         -2   -1    0    0    0  501 -0.00000000000E+00  0.00000000000E+00  0.63550361749E+03  0.63550361749E+03  0.00000000000E+00 0.  1.
          1   -1    0    0  502    0  0.00000000000E+00 -0.00000000000E+00 -0.27658189035E+02  0.27658189035E+02  0.00000000000E+00 0. -1.
        -24    2    1    2    0    0 -0.38617525347E+02  0.20644543632E+02  0.42257366083E+03  0.43223902609E+03  0.79652786550E+02 0.  0.
         23    2    1    2    0    0  0.55528722995E+02 -0.38171700823E+02  0.14121662941E+03  0.18058348119E+03  0.90153976258E+02 0.  0.
         13    1    3    3    0    0 -0.26640675559E+02 -0.70352108320E+01  0.40544325471E+02  0.49021037460E+02  0.00000000000E+00 0. -1.
        -14    1    3    3    0    0 -0.11976849788E+02  0.27679754464E+02  0.38202933536E+03  0.38321798863E+03  0.00000000000E+00 0.  1.
        -11    1    4    4    0    0 -0.11863769443E+02 -0.40548647059E+02  0.35463861677E+02  0.55160015308E+02  0.00000000000E+00 0. -1.
         11    1    4    4    0    0  0.67392492438E+02  0.23769462368E+01  0.10575276773E+03  0.12542346588E+03  0.00000000000E+00 0.  1.
         21    1    1    2  502  501 -0.16911197648E+02  0.17527157190E+02  0.44055138217E+02  0.50339299244E+02  0.00000000000E+00 0. -1.
<scales pt_clust_5="13000.00000" pt_clust_6="13000.00000" pt_clust_7="13000.00000" pt_clust_8="13000.00000" pt_clust_9="24.35549"></scales>
<clustering>
<clus scale="   24.355">  2  9  1 -1</clus>
<clus scale="   79.653">  5  6 -1 -1</clus>
<clus scale="   90.154">  7  8 -1 -1</clus>
<clus scale="   93.195">  1  5  2 -1</clus>
<clus scale="   24.355">  2  5  1 -1</clus>
</clustering>
</event>
<event>
 9    1  0.1973774E-005  0.9229176E+02  0.7546771E-02  0.1302822E+00
         -2   -1    0    0    0  501 -0.00000000000E+00  0.00000000000E+00  0.72300086385E+02  0.72300086385E+02  0.00000000000E+00 0.  1.
          1   -1    0    0  502    0  0.00000000000E+00 -0.00000000000E+00 -0.23571329567E+03  0.23571329567E+03  0.00000000000E+00 0. -1.
         23    2    1    2    0    0 -0.15585433692E+02 -0.21522023208E+02  0.21832964034E+02  0.95418786662E+02  0.89005411651E+02 0.  0.
        -24    2    1    2    0    0  0.20228288639E+02  0.19301954079E+01 -0.16262246249E+03  0.18230882133E+03  0.79859449753E+02 0.  0.
         13    1    4    4    0    0 -0.29315084864E+00  0.38734608549E+02 -0.95481175907E+02  0.10303936524E+03  0.00000000000E+00 0. -1.
        -14    1    4    4    0    0  0.20521439487E+02 -0.36804413142E+02 -0.67141286579E+02  0.79269456090E+02  0.00000000000E+00 0.  1.
        -13    1    3    3    0    0 -0.12830287971E+02  0.32481669249E+02 -0.46078967738E+01  0.35226521817E+02  0.00000000000E+00 0. -1.
         13    1    3    3    0    0 -0.27551457206E+01 -0.54003692457E+02  0.26440860808E+02  0.60192264846E+02  0.00000000000E+00 0.  1.
         21    1    1    2  502  501 -0.46428549472E+01  0.19591827800E+02 -0.22623710837E+02  0.30285774064E+02  0.00000000000E+00 0. -1.
<scales pt_clust_5="13000.00000" pt_clust_6="13000.00000" pt_clust_7="13000.00000" pt_clust_8="13000.00000" pt_clust_9="20.13444"></scales>
<clustering>
<clus scale="   20.134">  2  9  1 -1</clus>
<clus scale="   79.859">  5  6 -1 -1</clus>
<clus scale="   83.507">  2  5  1 -1</clus>
<clus scale="   89.005">  7  8 -1 -1</clus>
<clus scale="   20.134">  2  5  1 -1</clus>
</clustering>
</event>
<event>
 9    1  0.1973774E-005  0.2023576E+03  0.7546771E-02  0.1148558E+00
          1   -1    0    0  502    0  0.00000000000E+00  0.00000000000E+00  0.21604073539E+03  0.21604073539E+03  0.00000000000E+00 0. -1.
         -2   -1    0    0    0  501 -0.00000000000E+00 -0.00000000000E+00 -0.65040911168E+03  0.65040911168E+03  0.00000000000E+00 0.  1.
        -24    2    1    2    0    0  0.68710558920E+02  0.16337460734E+03 -0.54216305687E+03  0.57675673227E+03  0.85411619509E+02 0.  0.
         23    2    1    2    0    0 -0.61349770630E+02 -0.18545729694E+03  0.43138033546E+02  0.22097406074E+03  0.93863956009E+02 0.  0.
         11    1    3    3    0    0  0.16941830417E+02  0.12415960833E+03 -0.28161194623E+03  0.30823355142E+03  0.00000000000E+00 0. -1.
        -12    1    3    3    0    0  0.51768728503E+02  0.39214999013E+02 -0.26055111064E+03  0.26852318085E+03  0.00000000000E+00 0.  1.
        -13    1    4    4    0    0 -0.83397797996E+02 -0.12418680916E+03  0.43738862208E+02  0.15585456152E+03  0.00000000000E+00 0.  1.
         13    1    4    4    0    0  0.22048027366E+02 -0.61270487781E+02 -0.60082866162E+00  0.65119499220E+02  0.00000000000E+00 0. -1.
         21    1    1    2  502  501 -0.73607882899E+01  0.22082689598E+02  0.64656647044E+02  0.68719054062E+02  0.00000000000E+00 0.  1.
<scales pt_clust_5="13000.00000" pt_clust_6="13000.00000" pt_clust_7="13000.00000" pt_clust_8="13000.00000" pt_clust_9="23.27716"></scales>
<clustering>
<clus scale="   23.277">  1  9  2 -1</clus>
<clus scale="   85.412">  5  6 -1 -1</clus>
<clus scale="   93.864">  7  8 -1 -1</clus>
<clus scale="  198.578">  2  5  1 -1</clus>
<clus scale="   23.277">  1  5  2 -1</clus>
</clustering>
</event>
<event>
 9    1  0.1973774E-005  0.9442038E+02  0.7546771E-02  0.1297117E+00
         -2   -1    0    0    0  501 -0.00000000000E+00  0.00000000000E+00  0.19504547576E+02  0.19504547576E+02  0.00000000000E+00 0.  1.
          1   -1    0    0  502    0  0.00000000000E+00 -0.00000000000E+00 -0.80149571665E+03  0.80149571665E+03  0.00000000000E+00 0. -1.
         23    2    1    2    0    0  0.75957702463E+00  0.30259474159E+02 -0.17759538976E+03  0.20191297825E+03  0.91172998130E+02 0.  0.
        -24    2    1    2    0    0 -0.34869551567E+02 -0.34052643850E+01 -0.38241599525E+03  0.39290226552E+03  0.83082581659E+02 0.  0.
         11    1    4    4    0    0 -0.36952249145E+02 -0.35641144650E+02 -0.30037307311E+03  0.30472896639E+03  0.00000000000E+00 0. -1.
        -12    1    4    4    0    0  0.20826975783E+01  0.32235880265E+02 -0.82042922137E+02  0.88173299124E+02  0.00000000000E+00 0.  1.
        -13    1    3    3    0    0  0.31409627910E+02 -0.87674026459E+01 -0.12670047385E+03  0.13082982133E+03  0.00000000000E+00 0. -1.
         13    1    3    3    0    0 -0.30650050885E+02  0.39026876805E+02 -0.50894915903E+02  0.71083156916E+02  0.00000000000E+00 0.  1.
         21    1    1    2  502  501  0.34109974542E+02 -0.26854209774E+02 -0.22197978408E+03  0.22618502047E+03  0.00000000000E+00 0.  1.
<scales pt_clust_5="13000.00000" pt_clust_6="13000.00000" pt_clust_7="13000.00000" pt_clust_8="13000.00000" pt_clust_9="43.41243"></scales>
<clustering>
<clus scale="   43.412">  2  9  1 -1</clus>
<clus scale="   83.083">  5  6 -1 -1</clus>
<clus scale="   86.634">  2  5  1 -1</clus>
<clus scale="   91.173">  7  8 -1 -1</clus>
<clus scale="   43.412">  2  5  1 -1</clus>
</clustering>
</event>
<event>
 9    1  0.1973774E-005  0.2933607E+03  0.7546771E-02  0.1111045E+00
          3   -1    0    0  502    0  0.00000000000E+00  0.00000000000E+00  0.23502073402E+03  0.23502073402E+03  0.00000000000E+00 0. -1.
         -4   -1    0    0    0  501 -0.00000000000E+00 -0.00000000000E+00 -0.19573790166E+04  0.19573790166E+04  0.00000000000E+00 0.  1.
        -24    2    1    2    0    0  0.29179333955E+03  0.69013007548E+02 -0.18167037717E+04  0.18430599364E+04  0.80939403340E+02 0.  0.
         23    2    1    2    0    0 -0.13106414313E+03 -0.34765565073E+02  0.85367644016E+02  0.18475742265E+03  0.91984870759E+02 0.  0.
         11    1    3    3    0    0  0.84267445490E+02  0.37532949945E+01 -0.33424520202E+03  0.34472444744E+03  0.00000000000E+00 0. -1.
        -12    1    3    3    0    0  0.20752589406E+03  0.65259712553E+02 -0.14824585697E+04  0.14983354890E+04  0.00000000000E+00 0.  1.
        -13    1    4    4    0    0 -0.19793772608E+02  0.29253326027E+02  0.21819839215E+02  0.41516935112E+02  0.00000000000E+00 0.  1.
         13    1    4    4    0    0 -0.11127037053E+03 -0.64018891100E+02  0.63547804800E+02  0.14324048754E+03  0.00000000000E+00 0. -1.
         21    1    1    2  502  501 -0.16072919641E+03 -0.34247442475E+02  0.89778451039E+01  0.16458239152E+03  0.00000000000E+00 0. -1.
<scales pt_clust_5="13000.00000" pt_clust_6="13000.00000" pt_clust_7="13000.00000" pt_clust_8="13000.00000" pt_clust_9="281.97398"></scales>
<clustering>
<clus scale="   80.939">  5  6 -1 -1</clus>
<clus scale="   91.985">  7  8 -1 -1</clus>
<clus scale="  163.853">  1  7  2 -1</clus>
<clus scale="  281.974">  1  9  2 -1</clus>
<clus scale="  163.853">  1  5  2 -1</clus>
</clustering>
</event>
<event>
 9    1  0.1973774E-005  0.2667436E+03  0.7546771E-02  0.1103500E+00
          1   -1    0    0  502    0  0.00000000000E+00  0.00000000000E+00  0.39347800451E+03  0.39347800451E+03  0.00000000000E+00 0. -1.
         -2   -1    0    0    0  501 -0.00000000000E+00 -0.00000000000E+00 -0.28451711648E+03  0.28451711648E+03  0.00000000000E+00 0.  1.
        -24    2    1    2    0    0  0.11078225450E+03  0.23031808881E+03 -0.13933998964E+03  0.30191884459E+03  0.80126313159E+02 0.  0.
         23    2    1    2    0    0 -0.88201608271E+02 -0.22371594739E+03  0.20963433239E+03  0.33081508353E+03  0.87542660229E+02 0.  0.
         11    1    3    3    0    0  0.36535952034E+02  0.14472798039E+02 -0.25513825644E+02  0.46853953655E+02  0.00000000000E+00 0. -1.
        -12    1    3    3    0    0  0.74246302469E+02  0.21584529077E+03 -0.11382616399E+03  0.25506489093E+03  0.00000000000E+00 0.  1.
        -11    1    4    4    0    0 -0.10211444027E+03 -0.15669811204E+03  0.16183453078E+03  0.24732988614E+03  0.00000000000E+00 0. -1.
         11    1    4    4    0    0  0.13912831998E+02 -0.67017835351E+02  0.47799801614E+02  0.83485197392E+02  0.00000000000E+00 0.  1.
         21    1    1    2  502  501 -0.22580646232E+02 -0.66021414209E+01  0.38666545276E+02  0.45261192861E+02  0.00000000000E+00 0.  1.
<scales pt_clust_5="13000.00000" pt_clust_6="13000.00000" pt_clust_7="13000.00000" pt_clust_8="13000.00000" pt_clust_9="23.52603"></scales>
<clustering>
<clus scale="   23.526">  1  9  2 -1</clus>
<clus scale="   80.126">  5  6 -1 -1</clus>
<clus scale="   87.543">  7  8 -1 -1</clus>
<clus scale="  264.402">  2  5  1 -1</clus>
<clus scale="   23.526">  1  5  2 -1</clus>
</clustering>
</event>
<event>
 9    1  0.1973774E-005  0.1601067E+03  0.7546771E-02  0.1190201E+00
          1   -1    0    0  502    0  0.00000000000E+00  0.00000000000E+00  0.44790249896E+03  0.44790249896E+03  0.00000000000E+00 0. -1.
         -2   -1    0    0    0  501 -0.00000000000E+00 -0.00000000000E+00 -0.15187590052E+03  0.15187590052E+03  0.00000000000E+00 0.  1.
         23    2    1    2    0    0  0.22617966342E+02 -0.13081834049E+03 -0.82077218054E+02  0.18130106369E+03  0.92240963568E+02 0.  0.
        -24    2    1    2    0    0 -0.46442025616E+02  0.11083537105E+03  0.33585064936E+03  0.36601558782E+03  0.82039079892E+02 0.  0.
         11    1    4    4    0    0 -0.61111188017E+02  0.57223176340E+02  0.14715050035E+03  0.16929955394E+03  0.00000000000E+00 0. -1.
        -12    1    4    4    0    0  0.14669162401E+02  0.53612194712E+02  0.18870014901E+03  0.19671603388E+03  0.00000000000E+00 0.  1.
        -11    1    3    3    0    0  0.26642752608E+02 -0.37838851599E+01  0.48175135235E+01  0.27337931340E+02  0.00000000000E+00 0. -1.
         11    1    3    3    0    0 -0.40247862656E+01 -0.12703445533E+03 -0.86894731578E+02  0.15396313235E+03  0.00000000000E+00 0.  1.
         21    1    1    2  502  501  0.23824059274E+02  0.19982969443E+02  0.42253167127E+02  0.52461747972E+02  0.00000000000E+00 0.  1.
<scales pt_clust_5="13000.00000" pt_clust_6="13000.00000" pt_clust_7="13000.00000" pt_clust_8="13000.00000" pt_clust_9="31.09509"></scales>
<clustering>
<clus scale="   31.095">  1  9  2 -1</clus>
<clus scale="   82.039">  5  6 -1 -1</clus>
<clus scale="   92.241">  7  8 -1 -1</clus>
<clus scale="  154.454">  1  5  2 -1</clus>
<clus scale="   31.095">  1  5  2 -1</clus>
</clustering>
</event>
<event>
 9    1  0.1973774E-005  0.1137747E+03  0.7546771E-02  0.1260462E+00
         -2   -1    0    0    0  501 -0.00000000000E+00  0.00000000000E+00  0.52280464073E+02  0.52280464073E+02  0.00000000000E+00 0.  1.
          1   -1    0    0  502    0  0.00000000000E+00 -0.00000000000E+00 -0.62832921789E+03  0.62832921789E+03  0.00000000000E+00 0. -1.
        -24    2    1    2    0    0  0.79948628033E+02  0.18297845659E+02 -0.79863098141E+02  0.13934544768E+03  0.79450897183E+02 0.  0.
         23    2    1    2    0    0 -0.11898192942E+02  0.58459472386E+02 -0.25110316881E+03  0.27558026233E+03  0.96605396791E+02 0.  0.
         13    1    3    3    0    0  0.42161770112E+02 -0.44673121833E+01 -0.84946073407E+02  0.94938965258E+02  0.00000000000E+00 0. -1.
        -14    1    3    3    0    0  0.37786857921E+02  0.22765157843E+02  0.50829752656E+01  0.44406482418E+02  0.00000000000E+00 0.  1.
        -13    1    4    4    0    0  0.26286805302E+02 -0.11735372230E+02 -0.10699342201E+03  0.11079849931E+03  0.00000000000E+00 0.  1.
         13    1    4    4    0    0 -0.38184998244E+02  0.70194844615E+02 -0.14410974680E+03  0.16478176302E+03  0.00000000000E+00 0. -1.
         21    1    1    2  502  501 -0.68050435091E+02 -0.76757318045E+02 -0.24508248686E+03  0.26568397196E+03  0.00000000000E+00 0. -1.
<scales pt_clust_5="13000.00000" pt_clust_6="13000.00000" pt_clust_7="13000.00000" pt_clust_8="13000.00000" pt_clust_9="102.57947"></scales>
<clustering>
<clus scale="   79.451">  5  6 -1 -1</clus>
<clus scale="   96.605">  7  8 -1 -1</clus>
<clus scale="  102.579">  2  9  1 -1</clus>
<clus scale="   99.622">  1  5  2 -1</clus>
<clus scale="  102.579">  2  5  1 -1</clus>
</clustering>
</event>
<event>
 9    1  0.1973774E-005  0.1620051E+03  0.7546771E-02  0.1188779E+00
          1   -1    0    0  502    0  0.00000000000E+00  0.00000000000E+00  0.61776534320E+03  0.61776534320E+03  0.00000000000E+00 0. -1.
         -2   -1    0    0    0  501 -0.00000000000E+00 -0.00000000000E+00 -0.48317734568E+02  0.48317734568E+02  0.00000000000E+00 0.  1.
         23    2    1    2    0    0  0.10950548105E+03  0.88062099498E+02  0.21038663964E+03  0.27049130846E+03  0.95690261073E+02 0.  0.
        -24    2    1    2    0    0 -0.92039480472E+02 -0.72690956169E+02  0.31456658006E+03  0.34538137327E+03  0.81122861398E+02 0.  0.
         13    1    4    4    0    0 -0.14448649923E+02 -0.61704639675E+02  0.12194742424E+03  0.13743143862E+03  0.00000000000E+00 0. -1.
        -14    1    4    4    0    0 -0.77590830549E+02 -0.10986316494E+02  0.19261915582E+03  0.20794993465E+03  0.00000000000E+00 0.  1.
        -11    1    3    3    0    0  0.44646391114E+02  0.22493951088E+02  0.15510988675E+03  0.16296734349E+03  0.00000000000E+00 0. -1.
         11    1    3    3    0    0  0.64859089938E+02  0.65568148410E+02  0.55276752890E+02  0.10752396497E+03  0.00000000000E+00 0.  1.
         21    1    1    2  502  501 -0.17466000579E+02 -0.15371143328E+02  0.44494388937E+02  0.50210396038E+02  0.00000000000E+00 0. -1.
<scales pt_clust_5="13000.00000" pt_clust_6="13000.00000" pt_clust_7="13000.00000" pt_clust_8="13000.00000" pt_clust_9="23.26657"></scales>
<clustering>
<clus scale="   23.267">  1  9  2 -1</clus>
<clus scale="   81.123">  5  6 -1 -1</clus>
<clus scale="   95.690">  7  8 -1 -1</clus>
<clus scale="  153.850">  1  5  2 -1</clus>
<clus scale="   23.267">  1  5  2 -1</clus>
</clustering>
</event>
<event>
 9    1  0.1973774E-005  0.1098563E+03  0.7546771E-02  0.1265245E+00
          3   -1    0    0  502    0  0.00000000000E+00  0.00000000000E+00  0.36723204743E+02  0.36723204743E+02  0.00000000000E+00 0. -1.
         -4   -1    0    0    0  501 -0.00000000000E+00 -0.00000000000E+00 -0.37366523022E+03  0.37366523022E+03  0.00000000000E+00 0.  1.
         23    2    1    2    0    0 -0.27745233938E+02  0.59991717427E+02 -0.19266205917E+03  0.22289825677E+03  0.90532644173E+02 0.  0.
        -24    2    1    2    0    0  0.40292199010E+02 -0.43575706794E+02 -0.12120080530E+03  0.15651342222E+03  0.79274917896E+02 0.  0.
         13    1    4    4    0    0  0.42690437268E+02 -0.11966853503E+02 -0.16810101725E+02  0.47415804716E+02  0.00000000000E+00 0. -1.
        -14    1    4    4    0    0 -0.23982382583E+01 -0.31608853290E+02 -0.10439070357E+03  0.10909761751E+03  0.00000000000E+00 0.  1.
        -13    1    3    3    0    0 -0.35106033253E+02 -0.10447447656E+02 -0.37930525503E+02  0.52728621243E+02  0.00000000000E+00 0.  1.
         13    1    3    3    0    0  0.73607993145E+01  0.70439165083E+02 -0.15473153366E+03  0.17016963552E+03  0.00000000000E+00 0. -1.
         21    1    1    2  502  501 -0.12546965071E+02 -0.16416010633E+02 -0.23079161010E+02  0.30976755971E+02  0.00000000000E+00 0.  1.
<scales pt_clust_5="13000.00000" pt_clust_6="13000.00000" pt_clust_7="13000.00000" pt_clust_8="13000.00000" pt_clust_9="20.66184"></scales>
<clustering>
<clus scale="   20.662">  1  9  2 -1</clus>
<clus scale="   79.275">  5  6 -1 -1</clus>
<clus scale="   90.533">  7  8 -1 -1</clus>
<clus scale="  100.781">  1  5  2 -1</clus>
<clus scale="   20.662">  1  5  2 -1</clus>
</clustering>
</event>
<event>
 9    1  0.1973774E-005  0.1047624E+03  0.7546771E-02  0.1274188E+00
          1   -1    0    0  502    0  0.00000000000E+00  0.00000000000E+00  0.13767080360E+03  0.13767080360E+03  0.00000000000E+00 0. -1.
         -2   -1    0    0    0  501 -0.00000000000E+00 -0.00000000000E+00 -0.15633766268E+03  0.15633766268E+03  0.00000000000E+00 0.  1.
         23    2    1    2    0    0 -0.44630409333E+02  0.33472100932E+02 -0.99045118104E+02  0.14388733169E+03  0.88212095670E+02 0.  0.
        -24    2    1    2    0    0  0.32268715754E+02 -0.54095106458E+02  0.56682795567E+02  0.11636324938E+03  0.79749081085E+02 0.  0.
         13    1    4    4    0    0  0.54403483496E+02 -0.41831057692E+02  0.59595231815E+02  0.90890967974E+02  0.00000000000E+00 0. -1.
        -14    1    4    4    0    0 -0.22134767742E+02 -0.12264048766E+02 -0.29124362480E+01  0.25472281406E+02  0.00000000000E+00 0.  1.
        -11    1    3    3    0    0 -0.58153763586E+02 -0.97709253304E+01 -0.59046620716E+02  0.83449593282E+02  0.00000000000E+00 0.  1.
         11    1    3    3    0    0  0.13523354252E+02  0.43243026262E+02 -0.39998497388E+02  0.60437738408E+02  0.00000000000E+00 0. -1.
         21    1    1    2  502  501  0.12361693579E+02  0.20623005526E+02  0.23695463461E+02  0.33757885207E+02  0.00000000000E+00 0.  1.
<scales pt_clust_5="13000.00000" pt_clust_6="13000.00000" pt_clust_7="13000.00000" pt_clust_8="13000.00000" pt_clust_9="24.04412"></scales>
<clustering>
<clus scale="   24.044">  1  9  2 -1</clus>
<clus scale="   79.749">  5  6 -1 -1</clus>
<clus scale="   88.212">  7  8 -1 -1</clus>
<clus scale="   97.743">  1  5  2 -1</clus>
<clus scale="   24.044">  1  5  2 -1</clus>
</clustering>
</event>
<event>
 9    1  0.1973774E-005  0.1318781E+03  0.7546771E-02  0.1226565E+00
         -2   -1    0    0    0  501 -0.00000000000E+00  0.00000000000E+00  0.63137042510E+03  0.63137042510E+03  0.00000000000E+00 0.  1.
          1   -1    0    0  502    0  0.00000000000E+00 -0.00000000000E+00 -0.50148983433E+02  0.50148983433E+02  0.00000000000E+00 0. -1.
         23    2    1    2    0    0 -0.83526139095E+02  0.57831246576E+02  0.51013136062E+03  0.52764297812E+03  0.88611727616E+02 0.  0.
        -24    2    1    2    0    0  0.63563105233E+02 -0.52753264659E+02  0.63437649384E+02  0.13190216521E+03  0.80936212832E+02 0.  0.
         11    1    4    4    0    0  0.23068487627E+02 -0.39290765660E+01 -0.17391013053E+02  0.29155447160E+02  0.00000000000E+00 0. -1.
        -12    1    4    4    0    0  0.40494617606E+02 -0.48824188093E+02  0.80828662437E+02  0.10274671805E+03  0.00000000000E+00 0.  1.
        -13    1    3    3    0    0 -0.61170679856E+02  0.53829310087E+02  0.49166714154E+03  0.49837337888E+03  0.00000000000E+00 0.  1.
         13    1    3    3    0    0 -0.22355459239E+02  0.40019364883E+01  0.18464219080E+02  0.29269599240E+02  0.00000000000E+00 0. -1.
         21    1    1    2  502  501  0.19963033862E+02 -0.50779819168E+01  0.76524316603E+01  0.21974265213E+02  0.00000000000E+00 0. -1.
<scales pt_clust_5="13000.00000" pt_clust_6="13000.00000" pt_clust_7="13000.00000" pt_clust_8="13000.00000" pt_clust_9="20.59875"></scales>
<clustering>
<clus scale="   20.599">  2  9  1 -1</clus>
<clus scale="   80.936">  5  6 -1 -1</clus>
<clus scale="   88.612">  7  8 -1 -1</clus>
<clus scale="  126.848">  2  5  1 -1</clus>
<clus scale="   20.599">  2  5  1 -1</clus>
</clustering>
</event>
<event>
 9    1  0.1973774E-005  0.9202092E+02  0.7546771E-02  0.1304117E+00
         -2   -1    0    0    0  501 -0.00000000000E+00  0.00000000000E+00  0.38164165278E+03  0.38164165278E+03  0.00000000000E+00 0.  1.
          1   -1    0    0  502    0  0.00000000000E+00 -0.00000000000E+00 -0.10499338304E+03  0.10499338304E+03  0.00000000000E+00 0. -1.
        -24    2    1    2    0    0 -0.15380292170E+02  0.11630527494E+01  0.33356758865E+03  0.34366132774E+03  0.81227248543E+02 0.  0.
         23    2    1    2    0    0 -0.21838834389E+02  0.75517229784E+00 -0.44336708152E+02  0.10363841779E+03  0.91091563707E+02 0.  0.
         13    1    3    3    0    0  0.15059230767E+02 -0.32151464850E+02  0.11009765944E+03  0.11568055903E+03  0.00000000000E+00 0. -1.
        -14    1    3    3    0    0 -0.30439522937E+02  0.33314517599E+02  0.22346992922E+03  0.22798076871E+03  0.00000000000E+00 0.  1.
        -11    1    4    4    0    0 -0.47930015274E+02  0.27821421604E+02 -0.32394827480E+02  0.64193011393E+02  0.00000000000E+00 0.  1.
         11    1    4    4    0    0  0.26091180885E+02 -0.27066249306E+02 -0.11941880673E+02  0.39445406393E+02  0.00000000000E+00 0. -1.
         21    1    1    2  502  501  0.37219126559E+02 -0.19182250472E+01 -0.12582610760E+02  0.39335290296E+02  0.00000000000E+00 0. -1.
<scales pt_clust_5="13000.00000" pt_clust_6="13000.00000" pt_clust_7="13000.00000" pt_clust_8="13000.00000" pt_clust_9="37.26853"></scales>
<clustering>
<clus scale="   37.269">  2  9  1 -1</clus>
<clus scale="   81.227">  5  6 -1 -1</clus>
<clus scale="   82.268">  1  5  2 -1</clus>
<clus scale="   91.092">  7  8 -1 -1</clus>
<clus scale="   37.269">  2  5  1 -1</clus>
</clustering>
</event>
<event>
 9    1  0.1973774E-005  0.9839153E+02  0.7546771E-02  0.1289795E+00
         -2   -1    0    0    0  501 -0.00000000000E+00  0.00000000000E+00  0.22050753958E+03  0.22050753958E+03  0.00000000000E+00 0.  1.
          1   -1    0    0  502    0  0.00000000000E+00 -0.00000000000E+00 -0.12476576174E+03  0.12476576174E+03  0.00000000000E+00 0. -1.
        -24    2    1    2    0    0  0.13499353736E+02 -0.38588539198E+02  0.16733944945E+03  0.18966624388E+03  0.79369293929E+02 0.  0.
         23    2    1    2    0    0 -0.32299220021E+02  0.23754497265E+01 -0.42686270407E+02  0.10560013851E+03  0.90996643872E+02 0.  0.
         11    1    3    3    0    0 -0.11441178277E+02  0.21312543141E+02  0.51321918061E+02  0.56736798720E+02  0.00000000000E+00 0. -1.
        -12    1    3    3    0    0  0.24940532013E+02 -0.59901082339E+02  0.11601753139E+03  0.13292944516E+03  0.00000000000E+00 0.  1.
        -13    1    4    4    0    0  0.27748289862E+02 -0.11807745880E+02 -0.30143669330E+02  0.42638377710E+02  0.00000000000E+00 0.  1.
         13    1    4    4    0    0 -0.60047509884E+02  0.14183195606E+02 -0.12542601078E+02  0.62961760797E+02  0.00000000000E+00 0. -1.
         21    1    1    2  502  501  0.18799866285E+02  0.36213089471E+02 -0.28911401203E+02  0.50006918930E+02  0.00000000000E+00 0. -1.
<scales pt_clust_5="13000.00000" pt_clust_6="13000.00000" pt_clust_7="13000.00000" pt_clust_8="13000.00000" pt_clust_9="40.80224"></scales>
<clustering>
<clus scale="   40.802">  2  9  1 -1</clus>
<clus scale="   79.369">  5  6 -1 -1</clus>
<clus scale="   87.750">  1  5  2 -1</clus>
<clus scale="   90.997">  7  8 -1 -1</clus>
<clus scale="   40.802">  2  5  1 -1</clus>
</clustering>
</event>
<event>
 9    1  0.1973774E-005  0.2198560E+03  0.7546771E-02  0.1134706E+00
         -4   -1    0    0    0  501 -0.00000000000E+00  0.00000000000E+00  0.19888624658E+03  0.19888624658E+03  0.00000000000E+00 0.  1.
          3   -1    0    0  502    0  0.00000000000E+00 -0.00000000000E+00 -0.48578214110E+03  0.48578214110E+03  0.00000000000E+00 0. -1.
         23    2    1    2    0    0  0.18758111297E+03 -0.78933492496E+02  0.94409429201E+02  0.24199595946E+03  0.90728903287E+02 0.  0.
        -24    2    1    2    0    0 -0.17338608636E+03  0.64228418486E+02 -0.32321695996E+03  0.38109324354E+03  0.81085340142E+02 0.  0.
         13    1    4    4    0    0 -0.11703632615E+03  0.79846283000E+02 -0.25041125857E+03  0.28771292805E+03  0.00000000000E+00 0. -1.
        -14    1    4    4    0    0 -0.56349760202E+02 -0.15617864514E+02 -0.72805701385E+02  0.93380315490E+02  0.00000000000E+00 0.  1.
        -13    1    3    3    0    0  0.13826293922E+03 -0.70125495646E+02  0.25986095914E+02  0.15719256561E+03  0.00000000000E+00 0. -1.
         13    1    3    3    0    0  0.49318173748E+02 -0.88079968501E+01  0.68423333287E+02  0.84803393850E+02  0.00000000000E+00 0.  1.
         21    1    1    2  502  501 -0.14195026613E+02  0.14705074010E+02 -0.58088363759E+02  0.61579184684E+02  0.00000000000E+00 0.  1.
<scales pt_clust_5="13000.00000" pt_clust_6="13000.00000" pt_clust_7="13000.00000" pt_clust_8="13000.00000" pt_clust_9="20.43864"></scales>
<clustering>
<clus scale="   20.439">  2  9  1 -1</clus>
<clus scale="   81.085">  5  6 -1 -1</clus>
<clus scale="   90.729">  7  8 -1 -1</clus>
<clus scale="  216.055">  2  5  1 -1</clus>
<clus scale="   20.439">  2  5  1 -1</clus>
</clustering>
</event>
<event>
 9    1  0.1973774E-005  0.1747124E+03  0.7546771E-02  0.1173661E+00
         -2   -1    0    0    0  501 -0.00000000000E+00  0.00000000000E+00  0.57163260117E+03  0.57163260117E+03  0.00000000000E+00 0.  1.
          1   -1    0    0  502    0  0.00000000000E+00 -0.00000000000E+00 -0.25385794962E+03  0.25385794962E+03  0.00000000000E+00 0. -1.
        -24    2    1    2    0    0  0.11116871992E+03 -0.11533782374E+03  0.48983732299E+03  0.52146556124E+03  0.79526289323E+02 0.  0.
         23    2    1    2    0    0 -0.10622941433E+03  0.32145892692E+02 -0.17578326621E+03  0.22060354772E+03  0.73811392755E+02 0.  0.
         13    1    3    3    0    0  0.64014371167E+01 -0.48927450817E+02  0.87663318073E+02  0.10059687458E+03  0.00000000000E+00 0. -1.
        -14    1    3    3    0    0  0.10476728280E+03 -0.66410372922E+02  0.40217400492E+03  0.42086868665E+03  0.00000000000E+00 0.  1.
        -11    1    4    4    0    0 -0.21003484096E+02 -0.12032385051E+02 -0.85362931341E+02  0.88728544907E+02  0.00000000000E+00 0. -1.
         11    1    4    4    0    0 -0.85225930235E+02  0.44178277742E+02 -0.90420334869E+02  0.13187500281E+03  0.00000000000E+00 0.  1.
         21    1    1    2  502  501 -0.49393055836E+01  0.83191931047E+02  0.37205947713E+01  0.83421441826E+02  0.00000000000E+00 0. -1.
<scales pt_clust_5="13000.00000" pt_clust_6="13000.00000" pt_clust_7="13000.00000" pt_clust_8="13000.00000" pt_clust_9="83.33843"></scales>
<clustering>
<clus scale="   73.811">  7  8 -1 -1</clus>
<clus scale="   79.526">  5  6 -1 -1</clus>
<clus scale="   83.338">  2  9  1 -1</clus>
<clus scale="  172.186">  2  7  1 -1</clus>
<clus scale="   83.338">  2  5  1 -1</clus>
</clustering>
</event>
<event>
 9    1  0.1973774E-005  0.3659941E+03  0.7546771E-02  0.1056551E+00
         -4   -1    0    0    0  501 -0.00000000000E+00  0.00000000000E+00  0.91744632390E+03  0.91744632390E+03  0.00000000000E+00 0.  1.
          3   -1    0    0  502    0  0.00000000000E+00 -0.00000000000E+00 -0.24906965856E+03  0.24906965856E+03  0.00000000000E+00 0. -1.
         23    2    1    2    0    0 -0.23058750235E+03 -0.27409306947E+03  0.65614131482E+03  0.75314850151E+03  0.91725859719E+02 0.  0.
        -24    2    1    2    0    0  0.19315750555E+03  0.28418605715E+03  0.53947172186E+02  0.35642233955E+03  0.77814199982E+02 0.  0.
         11    1    4    4    0    0  0.17797220577E+03  0.28053372997E+03  0.38487644089E+02  0.33444667501E+03  0.00000000000E+00 0. -1.
        -12    1    4    4    0    0  0.15185299777E+02  0.36523271785E+01  0.15459528097E+02  0.21975664544E+02  0.00000000000E+00 0.  1.
        -11    1    3    3    0    0 -0.95626073738E+02 -0.15569143910E+03  0.25539958524E+03  0.31402725730E+03  0.00000000000E+00 0. -1.
         11    1    3    3    0    0 -0.13496142861E+03 -0.11840163037E+03  0.40074172959E+03  0.43912124421E+03  0.00000000000E+00 0.  1.
         21    1    1    2  502  501  0.37429996807E+02 -0.10092987675E+02 -0.41711821669E+02  0.56945141392E+02  0.00000000000E+00 0. -1.
<scales pt_clust_5="13000.00000" pt_clust_6="13000.00000" pt_clust_7="13000.00000" pt_clust_8="13000.00000" pt_clust_9="38.76691"></scales>
<clustering>
<clus scale="   38.767">  2  9  1 -1</clus>
<clus scale="   77.814">  5  6 -1 -1</clus>
<clus scale="   91.726">  7  8 -1 -1</clus>
<clus scale="  362.758">  2  5  1 -1</clus>
<clus scale="   38.767">  2  5  1 -1</clus>
</clustering>
</event>
<event>
 9    1  0.1973774E-005  0.8131549E+02  0.7546771E-02  0.1326395E+00
         -2   -1    0    0    0  501 -0.00000000000E+00  0.00000000000E+00  0.36074109304E+03  0.36074109304E+03  0.00000000000E+00 0.  1.
          1   -1    0    0  502    0  0.00000000000E+00 -0.00000000000E+00 -0.56165928182E+02  0.56165928182E+02  0.00000000000E+00 0. -1.
         23    2    1    2    0    0  0.59346080473E+01  0.23504224198E+02  0.26930515060E+03  0.28143817056E+03  0.78067352863E+02 0.  0.
        -24    2    1    2    0    0 -0.23467359992E+02 -0.10294097396E+02  0.61353753266E+02  0.10137682400E+03  0.76526413600E+02 0.  0.
         13    1    4    4    0    0 -0.15393634541E+02 -0.34655089935E+02  0.34940702273E+01  0.38080805789E+02  0.00000000000E+00 0. -1.
        -14    1    4    4    0    0 -0.80737254505E+01  0.24360992539E+02  0.57859683039E+02  0.63296018212E+02  0.00000000000E+00 0.  1.
        -11    1    3    3    0    0  0.76643969260E+01  0.49817737514E+02  0.12564948884E+03  0.13538221448E+03  0.00000000000E+00 0.  1.
         11    1    3    3    0    0 -0.17297888787E+01 -0.26313513316E+02  0.14365566176E+03  0.14605595608E+03  0.00000000000E+00 0. -1.
         21    1    1    2  502  501  0.17532751944E+02 -0.13210126802E+02 -0.26083739008E+02  0.34092026656E+02  0.00000000000E+00 0. -1.
<scales pt_clust_5="13000.00000" pt_clust_6="13000.00000" pt_clust_7="13000.00000" pt_clust_8="13000.00000" pt_clust_9="21.95233"></scales>
<clustering>
<clus scale="   21.952">  2  9  1 -1</clus>
<clus scale="   76.526">  5  6 -1 -1</clus>
<clus scale="   78.067">  7  8 -1 -1</clus>
<clus scale="   79.837">  2  5  1 -1</clus>
<clus scale="   21.952">  2  5  1 -1</clus>
</clustering>
</event>
<event>
 9    1  0.1973774E-005  0.1194331E+03  0.7546771E-02  0.1246905E+00
         -2   -1    0    0    0  501 -0.00000000000E+00  0.00000000000E+00  0.11245068505E+04  0.11245068505E+04  0.00000000000E+00 0.  1.
          1   -1    0    0  502    0  0.00000000000E+00 -0.00000000000E+00 -0.19378240934E+03  0.19378240934E+03  0.00000000000E+00 0. -1.
        -24    2    1    2    0    0  0.34532237674E+02 -0.64051380759E+02  0.10428060913E+04  0.10488231038E+04  0.85383278833E+02 0.  0.
         23    2    1    2    0    0 -0.15032320523E+02  0.93665619216E+02  0.17857614013E+02  0.13477591041E+03  0.94055477057E+02 0.  0.
         13    1    3    3    0    0  0.34374938249E+02 -0.77346767908E+01  0.14375959721E+03  0.14801447022E+03  0.00000000000E+00 0. -1.
        -14    1    3    3    0    0  0.15729942539E+00 -0.56316703969E+02  0.89904649407E+03  0.90080863361E+03  0.00000000000E+00 0.  1.
        -11    1    4    4    0    0  0.36481492348E+02  0.20963241120E+02 -0.60826393906E+01  0.42513001119E+02  0.00000000000E+00 0.  1.
         11    1    4    4    0    0 -0.51513812871E+02  0.72702378096E+02  0.23940253403E+02  0.92262909289E+02  0.00000000000E+00 0. -1.
         21    1    1    2  502  501 -0.19499917151E+02 -0.29614238457E+02 -0.12993926415E+03  0.13469024558E+03  0.00000000000E+00 0. -1.
<scales pt_clust_5="13000.00000" pt_clust_6="13000.00000" pt_clust_7="13000.00000" pt_clust_8="13000.00000" pt_clust_9="35.45772"></scales>
<clustering>
<clus scale="   35.458">  2  9  1 -1</clus>
<clus scale="   85.383">  5  6 -1 -1</clus>
<clus scale="   94.055">  7  8 -1 -1</clus>
<clus scale="  112.730">  1  5  2 -1</clus>
<clus scale="   35.458">  2  5  1 -1</clus>
</clustering>
</event>
<event>
 9    1  0.1973774E-005  0.9488196E+02  0.7546771E-02  0.1294102E+00
          1   -1    0    0  502    0  0.00000000000E+00  0.00000000000E+00  0.43624130445E+02  0.43624130445E+02  0.00000000000E+00 0. -1.
         -2   -1    0    0    0  501 -0.00000000000E+00 -0.00000000000E+00 -0.57286971761E+03  0.57286971761E+03  0.00000000000E+00 0.  1.
         23    2    1    2    0    0  0.19144022922E+02  0.21110797238E+02 -0.47813867980E+03  0.48738156235E+03  0.90066813113E+02 0.  0.
        -24    2    1    2    0    0 -0.99411734424E+01 -0.42102738850E+02 -0.43042550916E+02  0.10481438670E+03  0.85216940344E+02 0.  0.
         11    1    4    4    0    0  0.26426088776E+02 -0.37415699046E+02 -0.49653138775E+02  0.67555213665E+02  0.00000000000E+00 0. -1.
        -12    1    4    4    0    0 -0.36367262218E+02 -0.46870398033E+01  0.66105878583E+01  0.37259173034E+02  0.00000000000E+00 0.  1.
        -13    1    3    3    0    0 -0.32643941914E+02 -0.98587036573E+01 -0.16716409604E+03  0.17060672902E+03  0.00000000000E+00 0. -1.
         13    1    3    3    0    0  0.51787964836E+02  0.30969500896E+02 -0.31097458376E+03  0.31677483333E+03  0.00000000000E+00 0.  1.
         21    1    1    2  502  501 -0.92028494792E+01  0.20991941611E+02 -0.80643564472E+01  0.24297899005E+02  0.00000000000E+00 0.  1.
<scales pt_clust_5="13000.00000" pt_clust_6="13000.00000" pt_clust_7="13000.00000" pt_clust_8="13000.00000" pt_clust_9="22.92060"></scales>
<clustering>
<clus scale="   22.921">  1  9  2 -1</clus>
<clus scale="   85.217">  5  6 -1 -1</clus>
<clus scale="   90.067">  7  8 -1 -1</clus>
<clus scale="   90.291">  1  5  2 -1</clus>
<clus scale="   22.921">  1  5  2 -1</clus>
</clustering>
</event>
<event>
 9    1  0.1973774E-005  0.1131145E+03  0.7546771E-02  0.1258647E+00
         -2   -1    0    0    0  501 -0.00000000000E+00  0.00000000000E+00  0.35468316960E+02  0.35468316960E+02  0.00000000000E+00 0.  1.
          1   -1    0    0  502    0  0.00000000000E+00 -0.00000000000E+00 -0.83262270000E+03  0.83262270000E+03  0.00000000000E+00 0. -1.
        -24    2    1    2    0    0 -0.61573050114E+02  0.19378540224E+02 -0.74450567199E+02  0.12706669516E+03  0.80226490275E+02 0.  0.
         23    2    1    2    0    0  0.87381225288E+02  0.11994981550E+01 -0.48564091413E+03  0.50167450054E+03  0.90516792276E+02 0.  0.
         13    1    3    3    0    0 -0.19860774222E+02  0.40814148764E+02 -0.85593206475E+01  0.46189902165E+02  0.00000000000E+00 0. -1.
        -14    1    3    3    0    0 -0.41712275892E+02 -0.21435608540E+02 -0.65891246552E+02  0.80876792999E+02  0.00000000000E+00 0.  1.
        -11    1    4    4    0    0  0.51102920573E+02  0.36137165174E+02 -0.37396214564E+03  0.37916367122E+03  0.00000000000E+00 0. -1.
         11    1    4    4    0    0  0.36278304715E+02 -0.34937667019E+02 -0.11167876849E+03  0.12251082932E+03  0.00000000000E+00 0.  1.
         21    1    1    2  502  501 -0.25808175174E+02 -0.20578038379E+02 -0.23706290171E+03  0.23934982126E+03  0.00000000000E+00 0.  1.
<scales pt_clust_5="13000.00000" pt_clust_6="13000.00000" pt_clust_7="13000.00000" pt_clust_8="13000.00000" pt_clust_9="33.00784"></scales>
<clustering>
<clus scale="   33.008">  2  9  1 -1</clus>
<clus scale="   80.226">  5  6 -1 -1</clus>
<clus scale="   90.517">  7  8 -1 -1</clus>
<clus scale="  105.061">  1  5  2 -1</clus>
<clus scale="   33.008">  2  5  1 -1</clus>
</clustering>
</event>
<event>
 9    1  0.1973774E-005  0.9676458E+02  0.7546771E-02  0.1293011E+00
          1   -1    0    0  502    0  0.00000000000E+00  0.00000000000E+00  0.75947223728E+03  0.75947223728E+03  0.00000000000E+00 0. -1.
         -2   -1    0    0    0  501 -0.00000000000E+00 -0.00000000000E+00 -0.17604827403E+02  0.17604827403E+02  0.00000000000E+00 0.  1.
         23    2    1    2    0    0 -0.30572341700E+02 -0.94217648759E+01  0.17796430691E+03  0.20194226550E+03  0.89921890176E+02 0.  0.
        -24    2    1    2    0    0  0.24819008499E+02  0.28991812111E+02  0.50965381842E+03  0.51717729349E+03  0.79175942814E+02 0.  0.
         11    1    4    4    0    0  0.56760091367E+01  0.55065830718E+02  0.30501309293E+03  0.30999588650E+03  0.00000000000E+00 0. -1.
        -12    1    4    4    0    0  0.19142999362E+02 -0.26074018608E+02  0.20464072549E+03  0.20718140698E+03  0.00000000000E+00 0.  1.
        -13    1    3    3    0    0 -0.71011140144E+01 -0.33465636442E+02  0.18333644276E+02  0.38813620743E+02  0.00000000000E+00 0.  1.
         13    1    3    3    0    0 -0.23471227685E+02  0.24043871566E+02  0.15963066263E+03  0.16312864476E+03  0.00000000000E+00 0. -1.
         21    1    1    2  502  501  0.57533332006E+01 -0.19570047235E+02  0.54249284559E+02  0.57957505699E+02  0.00000000000E+00 0. -1.
<scales pt_clust_5="13000.00000" pt_clust_6="13000.00000" pt_clust_7="13000.00000" pt_clust_8="13000.00000" pt_clust_9="20.39823"></scales>
<clustering>
<clus scale="   20.398">  2  9  1 -1</clus>
<clus scale="   79.176">  5  6 -1 -1</clus>
<clus scale="   86.869">  1  5  2 -1</clus>
<clus scale="   89.922">  7  8 -1 -1</clus>
<clus scale="   86.869">  1  5  2 -1</clus>
</clustering>
</event>
<event>
 9    1  0.1973774E-005  0.9706168E+02  0.7546771E-02  0.1292441E+00
          1   -1    0    0  502    0  0.00000000000E+00  0.00000000000E+00  0.33123099204E+03  0.33123099204E+03  0.00000000000E+00 0. -1.
         -2   -1    0    0    0  501 -0.00000000000E+00 -0.00000000000E+00 -0.92788173743E+02  0.92788173743E+02  0.00000000000E+00 0.  1.
         23    2    1    2    0    0  0.35550325096E+02 -0.70709729824E+01 -0.51752454859E+02  0.11132886753E+03  0.91662292626E+02 0.  0.
        -24    2    1    2    0    0 -0.47429991027E+01 -0.82433350457E+01  0.18935263869E+03  0.20614051509E+03  0.80926148858E+02 0.  0.
         11    1    4    4    0    0  0.44494495234E+01 -0.34132732181E+02  0.16760092000E+03  0.17109912154E+03  0.00000000000E+00 0. -1.
        -12    1    4    4    0    0 -0.91924486261E+01  0.25889397135E+02  0.21751718688E+02  0.35041393546E+02  0.00000000000E+00 0.  1.
        -11    1    3    3    0    0 -0.27145440458E+02  0.16188847495E+02 -0.14391814026E+02  0.34728634178E+02  0.00000000000E+00 0. -1.
         11    1    3    3    0    0  0.62695765554E+02 -0.23259820477E+02 -0.37360640832E+02  0.76600233357E+02  0.00000000000E+00 0.  1.
         21    1    1    2  502  501 -0.30807325993E+02  0.15314308028E+02  0.10084263447E+03  0.10654978316E+03  0.00000000000E+00 0.  1.
<scales pt_clust_5="13000.00000" pt_clust_6="13000.00000" pt_clust_7="13000.00000" pt_clust_8="13000.00000" pt_clust_9="34.40377"></scales>
<clustering>
<clus scale="   34.404">  1  9  2 -1</clus>
<clus scale="   80.926">  5  6 -1 -1</clus>
<clus scale="   86.994">  1  5  2 -1</clus>
<clus scale="   91.662">  7  8 -1 -1</clus>
<clus scale="   34.404">  1  5  2 -1</clus>
</clustering>
</event>
<event>
 9    1  0.1973774E-005  0.2736302E+03  0.7546771E-02  0.1099596E+00
         -2   -1    0    0    0  501 -0.00000000000E+00  0.00000000000E+00  0.57674805172E+03  0.57674805172E+03  0.00000000000E+00 0.  1.
          1   -1    0    0  502    0  0.00000000000E+00 -0.00000000000E+00 -0.61164087734E+03  0.61164087734E+03  0.00000000000E+00 0. -1.
         23    2    1    2    0    0  0.25611471304E+03 -0.11197453863E+02  0.49118665278E+03  0.56131196399E+03  0.89925879705E+02 0.  0.
        -24    2    1    2    0    0 -0.28838966856E+03 -0.13229899508E+02 -0.44841160292E+03  0.53949461965E+03  0.81472988336E+02 0.  0.
         11    1    4    4    0    0 -0.12912719575E+03  0.34118253769E+02 -0.21100400444E+03  0.24972099995E+03  0.00000000000E+00 0. -1.
        -12    1    4    4    0    0 -0.15926247281E+03 -0.47348153277E+02 -0.23740759848E+03  0.28977361971E+03  0.00000000000E+00 0.  1.
        -13    1    3    3    0    0  0.17833585292E+03 -0.86485674586E+01  0.41777767875E+03  0.45433100601E+03  0.00000000000E+00 0.  1.
         13    1    3    3    0    0  0.77778860121E+02 -0.25488864040E+01  0.73408974034E+02  0.10698095799E+03  0.00000000000E+00 0. -1.
         21    1    1    2  502  501  0.32274955518E+02  0.24427353371E+02 -0.77667875486E+02  0.87582345418E+02  0.00000000000E+00 0.  1.
<scales pt_clust_5="13000.00000" pt_clust_6="13000.00000" pt_clust_7="13000.00000" pt_clust_8="13000.00000" pt_clust_9="40.47676"></scales>
<clustering>
<clus scale="   40.477">  2  9  1 -1</clus>
<clus scale="   81.473">  5  6 -1 -1</clus>
<clus scale="   89.926">  7  8 -1 -1</clus>
<clus scale="  270.970">  2  5  1 -1</clus>
<clus scale="   40.477">  2  5  1 -1</clus>
</clustering>
</event>
<event>
 9    1  0.1973774E-005  0.1214409E+03  0.7546771E-02  0.1255131E+00
          3   -1    0    0  502    0  0.00000000000E+00  0.00000000000E+00  0.67745482588E+03  0.67745482588E+03  0.00000000000E+00 0. -1.
         -4   -1    0    0    0  501 -0.00000000000E+00 -0.00000000000E+00 -0.41092334427E+02  0.41092334427E+02  0.00000000000E+00 0.  1.
        -24    2    1    2    0    0 -0.37680947722E+02  0.20544521313E+02  0.82929411560E+02  0.12312226230E+03  0.80248819274E+02 0.  0.
         23    2    1    2    0    0 -0.20156791870E+02  0.62686252236E+02  0.35665951965E+03  0.37408262957E+03  0.91629352886E+02 0.  0.
         13    1    3    3    0    0  0.70393920303E+01  0.34352608389E+02  0.63310454222E+02  0.72373119023E+02  0.00000000000E+00 0. -1.
        -14    1    3    3    0    0 -0.44720339753E+02 -0.13808087076E+02  0.19618957338E+02  0.50749143277E+02  0.00000000000E+00 0.  1.
        -11    1    4    4    0    0  0.22954525976E+02 -0.12135487765E+02  0.98435732656E+02  0.10180262172E+03  0.00000000000E+00 0.  1.
         11    1    4    4    0    0 -0.43111317847E+02  0.74821740001E+02  0.25822378700E+03  0.27228000785E+03  0.00000000000E+00 0. -1.
         21    1    1    2  502  501  0.57837739593E+02 -0.83230773549E+02  0.19677356024E+03  0.22134226844E+03  0.00000000000E+00 0.  1.
<scales pt_clust_5="13000.00000" pt_clust_6="13000.00000" pt_clust_7="13000.00000" pt_clust_8="13000.00000" pt_clust_9="79.69913"></scales>
<clustering>
<clus scale="   80.249">  5  6 -1 -1</clus>
<clus scale="   91.004">  2  5  1 -1</clus>
<clus scale="   79.699">  2  9  1 -1</clus>
<clus scale="   91.629">  7  8 -1 -1</clus>
<clus scale="  121.441">  1  5  2 -1</clus>
</clustering>
</event>
<event>
 9    1  0.1973774E-005  0.1366178E+03  0.7546771E-02  0.1219586E+00
         -2   -1    0    0    0  501 -0.00000000000E+00  0.00000000000E+00  0.11194866232E+03  0.11194866232E+03  0.00000000000E+00 0.  1.
          1   -1    0    0  502    0  0.00000000000E+00 -0.00000000000E+00 -0.42613228866E+03  0.42613228866E+03  0.00000000000E+00 0. -1.
        -24    2    1    2    0    0 -0.10638927903E+03  0.31919892682E+01  0.51354691653E+02  0.14376437874E+03  0.81865894916E+02 0.  0.
         23    2    1    2    0    0  0.84527718201E+02  0.79554515678E+01 -0.29576293471E+03  0.32035173335E+03  0.89113944796E+02 0.  0.
         11    1    3    3    0    0 -0.42366312589E+02 -0.10565604826E+02 -0.19027611572E+02  0.47629680346E+02  0.00000000000E+00 0. -1.
        -12    1    3    3    0    0 -0.64022966445E+02  0.13757594094E+02  0.70382303226E+02  0.96134698393E+02  0.00000000000E+00 0.  1.
        -11    1    4    4    0    0  0.69887889571E+02 -0.30910394905E+02 -0.23194739975E+03  0.24421172345E+03  0.00000000000E+00 0. -1.
         11    1    4    4    0    0  0.14639828630E+02  0.38865846473E+02 -0.63815534956E+02  0.76140009890E+02  0.00000000000E+00 0.  1.
         21    1    1    2  502  501  0.21861560832E+02 -0.11147440836E+02 -0.69775383287E+02  0.73964838891E+02  0.00000000000E+00 0. -1.
<scales pt_clust_5="13000.00000" pt_clust_6="13000.00000" pt_clust_7="13000.00000" pt_clust_8="13000.00000" pt_clust_9="24.53963"></scales>
<clustering>
<clus scale="   24.540">  2  9  1 -1</clus>
<clus scale="   81.866">  5  6 -1 -1</clus>
<clus scale="   89.114">  7  8 -1 -1</clus>
<clus scale="  132.004">  1  5  2 -1</clus>
<clus scale="   24.540">  2  5  1 -1</clus>
</clustering>
</event>
<event>
 9    1  0.1973774E-005  0.1965542E+03  0.7546771E-02  0.1153578E+00
          1   -1    0    0  502    0  0.00000000000E+00  0.00000000000E+00  0.38698894168E+03  0.38698894168E+03  0.00000000000E+00 0. -1.
         -2   -1    0    0    0  501 -0.00000000000E+00 -0.00000000000E+00 -0.15598755165E+03  0.15598755165E+03  0.00000000000E+00 0.  1.
         23    2    1    2    0    0  0.36308825694E+02  0.17877302696E+03  0.86378129393E+01  0.20376021041E+03  0.90363076213E+02 0.  0.
        -24    2    1    2    0    0 -0.92384397669E+02 -0.13899493996E+03  0.17981545084E+03  0.25836389257E+03  0.81017494144E+02 0.  0.
         13    1    4    4    0    0 -0.55503984936E+01 -0.80013038943E+02  0.85731106225E+02  0.11739981218E+03  0.00000000000E+00 0. -1.
        -14    1    4    4    0    0 -0.86833999176E+02 -0.58981901013E+02  0.94084344618E+02  0.14096408040E+03  0.00000000000E+00 0.  1.
        -11    1    3    3    0    0  0.59390038625E+02  0.69411549547E+02  0.10657619272E+02  0.91971325678E+02  0.00000000000E+00 0.  1.
         11    1    3    3    0    0 -0.23081212931E+02  0.10936147741E+03 -0.20198063328E+01  0.11178888473E+03  0.00000000000E+00 0. -1.
         21    1    1    2  502  501  0.56075571975E+02 -0.39778087002E+02  0.42548126248E+02  0.80852390349E+02  0.00000000000E+00 0.  1.
<scales pt_clust_5="13000.00000" pt_clust_6="13000.00000" pt_clust_7="13000.00000" pt_clust_8="13000.00000" pt_clust_9="68.75148"></scales>
<clustering>
<clus scale="   68.751">  1  9  2 -1</clus>
<clus scale="   81.017">  5  6 -1 -1</clus>
<clus scale="   90.363">  7  8 -1 -1</clus>
<clus scale="  192.437">  1  5  2 -1</clus>
<clus scale="   68.751">  1  5  2 -1</clus>
</clustering>
</event>
<event>
 9    1  0.1973774E-005  0.3391119E+03  0.7546771E-02  0.1078464E+00
          1   -1    0    0  502    0  0.00000000000E+00  0.00000000000E+00  0.35717372900E+04  0.35717372900E+04  0.00000000000E+00 0. -1.
         -2   -1    0    0    0  501 -0.00000000000E+00 -0.00000000000E+00 -0.80743482909E+02  0.80743482909E+02  0.00000000000E+00 0.  1.
        -24    2    1    2    0    0  0.10154516822E+03  0.21295680473E+03  0.33827251772E+03  0.42012093501E+03  0.80070480915E+02 0.  0.
         23    2    1    2    0    0 -0.26663592420E+03  0.14626993145E+03  0.14359197652E+04  0.14706259536E+04  0.91572454356E+02 0.  0.
         13    1    3    3    0    0  0.76307938093E+02  0.68666972750E+02  0.14122335615E+03  0.17459121079E+03  0.00000000000E+00 0. -1.
        -14    1    3    3    0    0  0.25237230129E+02  0.14428983198E+03  0.19704916157E+03  0.24552972422E+03  0.00000000000E+00 0.  1.
        -11    1    4    4    0    0 -0.79575751484E+02  0.81779993111E+02  0.66502508127E+03  0.67474337805E+03  0.00000000000E+00 0.  1.
         11    1    4    4    0    0 -0.18706017272E+03  0.64489938337E+02  0.77089468389E+03  0.79588257552E+03  0.00000000000E+00 0. -1.
         21    1    1    2  502  501  0.16509075598E+03 -0.35922673618E+03  0.17168015242E+04  0.17617338843E+04  0.00000000000E+00 0. -1.
<scales pt_clust_5="13000.00000" pt_clust_6="13000.00000" pt_clust_7="13000.00000" pt_clust_8="13000.00000" pt_clust_9="326.51396"></scales>
<clustering>
<clus scale="   80.070">  5  6 -1 -1</clus>
<clus scale="   91.572">  7  8 -1 -1</clus>
<clus scale="  249.145">  2  5  1 -1</clus>
<clus scale="  326.514">  2  9  1 -1</clus>
<clus scale="  339.112">  1  5  2 -1</clus>
</clustering>
</event>
<event>
 9    1  0.1973774E-005  0.9506737E+02  0.7546771E-02  0.1298525E+00
         -2   -1    0    0    0  501 -0.00000000000E+00  0.00000000000E+00  0.11855556513E+03  0.11855556513E+03  0.00000000000E+00 0.  1.
          1   -1    0    0  502    0  0.00000000000E+00 -0.00000000000E+00 -0.12774121520E+03  0.12774121520E+03  0.00000000000E+00 0. -1.
        -24    2    1    2    0    0 -0.23515535754E+02 -0.15732556222E+02  0.61127755044E+02  0.10431879349E+03  0.79657482328E+02 0.  0.
         23    2    1    2    0    0  0.61921384672E+01 -0.79415751426E+01 -0.45326914351E+02  0.10344372533E+03  0.92437351493E+02 0.  0.
         11    1    3    3    0    0 -0.40429054960E+02 -0.10349379544E+02  0.11271825590E+01  0.41747918301E+02  0.00000000000E+00 0. -1.
        -12    1    3    3    0    0  0.16913519206E+02 -0.53831766775E+01  0.60000572485E+02  0.62570875186E+02  0.00000000000E+00 0.  1.
        -11    1    4    4    0    0 -0.19345016061E+02  0.35802677914E+02 -0.29885221656E+02  0.50489482723E+02  0.00000000000E+00 0.  1.
         11    1    4    4    0    0  0.25537154528E+02 -0.43744253056E+02 -0.15441692694E+02  0.52954242607E+02  0.00000000000E+00 0. -1.
         21    1    1    2  502  501  0.17323397287E+02  0.23674131364E+02 -0.24986490765E+02  0.38534261511E+02  0.00000000000E+00 0.  1.
<scales pt_clust_5="13000.00000" pt_clust_6="13000.00000" pt_clust_7="13000.00000" pt_clust_8="13000.00000" pt_clust_9="29.33538"></scales>
<clustering>
<clus scale="   29.335">  2  9  1 -1</clus>
<clus scale="   79.657">  5  6 -1 -1</clus>
<clus scale="   82.695">  1  5  2 -1</clus>
<clus scale="   92.437">  7  8 -1 -1</clus>
<clus scale="   29.335">  2  5  1 -1</clus>
</clustering>
</event>
<event>
 9    1  0.1973774E-005  0.1040162E+03  0.7546771E-02  0.1276203E+00
          1   -1    0    0  502    0  0.00000000000E+00  0.00000000000E+00  0.39103281606E+03  0.39103281606E+03  0.00000000000E+00 0. -1.
         -2   -1    0    0    0  501 -0.00000000000E+00 -0.00000000000E+00 -0.72178396918E+02  0.72178396918E+02  0.00000000000E+00 0.  1.
         23    2    1    2    0    0 -0.14323296513E+01  0.54918088578E+02 -0.87602534012E+01  0.10658403866E+03  0.90914065113E+02 0.  0.
        -24    2    1    2    0    0 -0.19755139845E+02 -0.36037472111E+02  0.14235389790E+03  0.16920534751E+03  0.81712009120E+02 0.  0.
         11    1    4    4    0    0 -0.34344750155E+02 -0.32472279059E+02  0.14624279097E+03  0.15369113404E+03  0.00000000000E+00 0. -1.
        -12    1    4    4    0    0  0.14589610309E+02 -0.35651930519E+01 -0.38888930739E+01  0.15514213477E+02  0.00000000000E+00 0.  1.
        -13    1    3    3    0    0 -0.22681746979E+02  0.26478568689E+02  0.35558475948E+02  0.49799412221E+02  0.00000000000E+00 0. -1.
         13    1    3    3    0    0  0.21249417327E+02  0.28439519888E+02 -0.44318729349E+02  0.56784626435E+02  0.00000000000E+00 0.  1.
         21    1    1    2  502  501  0.21187469497E+02 -0.18880616467E+02  0.18526077464E+03  0.18742182680E+03  0.00000000000E+00 0. -1.
<scales pt_clust_5="13000.00000" pt_clust_6="13000.00000" pt_clust_7="13000.00000" pt_clust_8="13000.00000" pt_clust_9="28.37933"></scales>
<clustering>
<clus scale="   28.379">  1  9  2 -1</clus>
<clus scale="   81.712">  5  6 -1 -1</clus>
<clus scale="   90.914">  7  8 -1 -1</clus>
<clus scale="   96.077">  1  5  2 -1</clus>
<clus scale="   28.379">  1  5  2 -1</clus>
</clustering>
</event>
<event>
 9    1  0.1973774E-005  0.1129468E+03  0.7546771E-02  0.1261965E+00
          1   -1    0    0  502    0  0.00000000000E+00  0.00000000000E+00  0.27482455199E+03  0.27482455199E+03  0.00000000000E+00 0. -1.
         -2   -1    0    0    0  501 -0.00000000000E+00 -0.00000000000E+00 -0.24901654510E+03  0.24901654510E+03  0.00000000000E+00 0.  1.
        -24    2    1    2    0    0 -0.72848615501E+01 -0.63557757105E+02 -0.22123250885E+03  0.24253295118E+03  0.76064129121E+02 0.  0.
         23    2    1    2    0    0 -0.91195216908E+01  0.50679894186E+02  0.16441038689E+03  0.19608677924E+03  0.93635635986E+02 0.  0.
         13    1    3    3    0    0  0.31527247562E+02 -0.10177882396E+02 -0.82441476395E+02  0.88849049849E+02  0.00000000000E+00 0. -1.
        -14    1    3    3    0    0 -0.38812109112E+02 -0.53379874709E+02 -0.13879103246E+03  0.15368390133E+03  0.00000000000E+00 0.  1.
        -11    1    4    4    0    0 -0.41860776898E+02  0.16466309080E+02  0.31293077023E+02  0.54797086116E+02  0.00000000000E+00 0.  1.
         11    1    4    4    0    0  0.32741255207E+02  0.34213585106E+02  0.13311730986E+03  0.14128969313E+03  0.00000000000E+00 0. -1.
         21    1    1    2  502  501  0.16404383241E+02  0.12877862919E+02  0.82630128854E+02  0.85221366671E+02  0.00000000000E+00 0. -1.
<scales pt_clust_5="13000.00000" pt_clust_6="13000.00000" pt_clust_7="13000.00000" pt_clust_8="13000.00000" pt_clust_9="20.85529"></scales>
<clustering>
<clus scale="   20.855">  1  9  2 -1</clus>
<clus scale="   76.064">  5  6 -1 -1</clus>
<clus scale="   93.636">  7  8 -1 -1</clus>
<clus scale="   98.869">  2  5  1 -1</clus>
<clus scale="   20.855">  1  5  2 -1</clus>
</clustering>
</event>
<event>
 9    1  0.1973774E-005  0.1521643E+03  0.7546771E-02  0.1199340E+00
          1   -1    0    0  502    0  0.00000000000E+00  0.00000000000E+00  0.27748331357E+03  0.27748331357E+03  0.00000000000E+00 0. -1.
         -2   -1    0    0    0  501 -0.00000000000E+00 -0.00000000000E+00 -0.25943156263E+03  0.25943156263E+03  0.00000000000E+00 0.  1.
        -24    2    1    2    0    0  0.99167669993E+02  0.62726575323E+02 -0.16788698942E+03  0.21975682973E+03  0.79612643279E+02 0.  0.
         23    2    1    2    0    0 -0.14572995092E+03 -0.98262086680E+02  0.15775561583E+03  0.25215722278E+03  0.88338974418E+02 0.  0.
         11    1    3    3    0    0  0.19150292346E+02  0.25301644014E+02 -0.19745721579E+01  0.31793172568E+02  0.00000000000E+00 0. -1.
        -12    1    3    3    0    0  0.80017377647E+02  0.37424931308E+02 -0.16591241727E+03  0.18796365716E+03  0.00000000000E+00 0.  1.
        -13    1    4    4    0    0 -0.11840189458E+03 -0.98972274315E+02  0.88949730067E+02  0.17811955031E+03  0.00000000000E+00 0. -1.
         13    1    4    4    0    0 -0.27328056342E+02  0.71018763495E+00  0.68805885759E+02  0.74037672472E+02  0.00000000000E+00 0.  1.
         21    1    1    2  502  501  0.46562280930E+02  0.35535511357E+02  0.28183124531E+02  0.65000823696E+02  0.00000000000E+00 0.  1.
<scales pt_clust_5="13000.00000" pt_clust_6="13000.00000" pt_clust_7="13000.00000" pt_clust_8="13000.00000" pt_clust_9="58.57319"></scales>
<clustering>
<clus scale="   58.573">  1  9  2 -1</clus>
<clus scale="   79.613">  5  6 -1 -1</clus>
<clus scale="   88.339">  7  8 -1 -1</clus>
<clus scale="  147.270">  2  5  1 -1</clus>
<clus scale="   58.573">  1  5  2 -1</clus>
</clustering>
</event>
<event>
 9    1  0.1973774E-005  0.1032544E+03  0.7546771E-02  0.1278512E+00
          1   -1    0    0  502    0  0.00000000000E+00  0.00000000000E+00  0.53636634002E+03  0.53636634002E+03  0.00000000000E+00 0. -1.
         -2   -1    0    0    0  501 -0.00000000000E+00 -0.00000000000E+00 -0.11070442907E+03  0.11070442907E+03  0.00000000000E+00 0.  1.
        -24    2    1    2    0    0 -0.49832506893E+02 -0.10478007222E+02 -0.79327962663E+02  0.12383618355E+03  0.80308202062E+02 0.  0.
         23    2    1    2    0    0  0.16921570299E+02 -0.16369470557E+02  0.36800154718E+03  0.37981311439E+03  0.90986614533E+02 0.  0.
         11    1    3    3    0    0 -0.65487609251E+02 -0.19561160207E+02 -0.36816008052E+02  0.77631722916E+02  0.00000000000E+00 0. -1.
        -12    1    3    3    0    0  0.15655102358E+02  0.90831529849E+01 -0.42511954611E+02  0.46204460638E+02  0.00000000000E+00 0.  1.
        -13    1    4    4    0    0  0.34324120526E+00  0.34056401557E+02  0.79799290043E+02  0.86763373568E+02  0.00000000000E+00 0. -1.
         13    1    4    4    0    0  0.16578329093E+02 -0.50425872113E+02  0.28820225714E+03  0.29304974082E+03  0.00000000000E+00 0.  1.
         21    1    1    2  502  501  0.32910936595E+02  0.26847477779E+02  0.13698832642E+03  0.14342147115E+03  0.00000000000E+00 0. -1.
<scales pt_clust_5="13000.00000" pt_clust_6="13000.00000" pt_clust_7="13000.00000" pt_clust_8="13000.00000" pt_clust_9="42.47254"></scales>
<clustering>
<clus scale="   42.473">  1  9  2 -1</clus>
<clus scale="   80.308">  5  6 -1 -1</clus>
<clus scale="   90.987">  7  8 -1 -1</clus>
<clus scale="   93.980">  2  5  1 -1</clus>
<clus scale="   42.473">  1  5  2 -1</clus>
</clustering>
</event>
<event>
 9    1  0.1973774E-005  0.9401358E+02  0.7546771E-02  0.1299036E+00
          1   -1    0    0  502    0  0.00000000000E+00  0.00000000000E+00  0.92507183081E+02  0.92507183081E+02  0.00000000000E+00 0. -1.
         -2   -1    0    0    0  501 -0.00000000000E+00 -0.00000000000E+00 -0.20474040863E+03  0.20474040863E+03  0.00000000000E+00 0.  1.
         23    2    1    2    0    0 -0.18342515874E+02  0.10222297614E+02 -0.14709210863E+03  0.17407688404E+03  0.90695809600E+02 0.  0.
        -24    2    1    2    0    0  0.26696827830E+02 -0.34647029445E+02  0.23796263889E+02  0.95086128339E+02  0.81006002011E+02 0.  0.
         13    1    4    4    0    0  0.50615722026E+02 -0.17010566022E+01  0.73417064838E+01  0.51173680383E+02  0.00000000000E+00 0. -1.
        -14    1    4    4    0    0 -0.23918894196E+02 -0.32945972843E+02  0.16454557406E+02  0.43912447956E+02  0.00000000000E+00 0.  1.
        -13    1    3    3    0    0 -0.25555544021E+02 -0.36037693966E+02 -0.53146031369E+02  0.69110794141E+02  0.00000000000E+00 0.  1.
         13    1    3    3    0    0  0.72130281474E+01  0.46259991579E+02 -0.93946077258E+02  0.10496608990E+03  0.00000000000E+00 0. -1.
         21    1    1    2  502  501 -0.83543119565E+01  0.24424731832E+02  0.11062619185E+02  0.28084579337E+02  0.00000000000E+00 0. -1.
<scales pt_clust_5="13000.00000" pt_clust_6="13000.00000" pt_clust_7="13000.00000" pt_clust_8="13000.00000" pt_clust_9="25.81399"></scales>
<clustering>
<clus scale="   25.814">  1  9  2 -1</clus>
<clus scale="   81.006">  5  6 -1 -1</clus>
<clus scale="   84.704">  1  5  2 -1</clus>
<clus scale="   90.696">  7  8 -1 -1</clus>
<clus scale="   25.814">  1  5  2 -1</clus>
</clustering>
</event>
<event>
 9    1  0.1973774E-005  0.9627545E+02  0.7546771E-02  0.1299758E+00
         -2   -1    0    0    0  501 -0.00000000000E+00  0.00000000000E+00  0.26454162723E+03  0.26454162723E+03  0.00000000000E+00 0.  1.
          1   -1    0    0  502    0  0.00000000000E+00 -0.00000000000E+00 -0.49334026910E+02  0.49334026910E+02  0.00000000000E+00 0. -1.
         23    2    1    2    0    0  0.16222037536E+02  0.15637628056E+02  0.13250316373E+03  0.16207719047E+03  0.90577245259E+02 0.  0.
        -24    2    1    2    0    0 -0.58659787797E+01 -0.50355319123E+02  0.74821840071E+02  0.11472149840E+03  0.70658662404E+02 0.  0.
         11    1    4    4    0    0  0.10601170350E+02 -0.43714840471E+02  0.81352888403E+01  0.45711650754E+02  0.00000000000E+00 0. -1.
        -12    1    4    4    0    0 -0.16467149129E+02 -0.66404786521E+01  0.66686551230E+02  0.69009847646E+02  0.00000000000E+00 0.  1.
        -13    1    3    3    0    0  0.24541343038E+01  0.49872645840E+02  0.10429014563E+03  0.11562758345E+03  0.00000000000E+00 0.  1.
         13    1    3    3    0    0  0.13767903232E+02 -0.34235017784E+02  0.28213018098E+02  0.46449607020E+02  0.00000000000E+00 0. -1.
         21    1    1    2  502  501 -0.10356058756E+02  0.34717691067E+02  0.78825965215E+01  0.37076965274E+02  0.00000000000E+00 0.  1.
<scales pt_clust_5="13000.00000" pt_clust_6="13000.00000" pt_clust_7="13000.00000" pt_clust_8="13000.00000" pt_clust_9="36.22935"></scales>
<clustering>
<clus scale="   36.229">  2  9  1 -1</clus>
<clus scale="   70.659">  5  6 -1 -1</clus>
<clus scale="   77.829">  2  5  1 -1</clus>
<clus scale="   90.577">  7  8 -1 -1</clus>
<clus scale="   36.229">  2  5  1 -1</clus>
</clustering>
</event>
<event>
 9    1  0.1973774E-005  0.1008083E+03  0.7546771E-02  0.1285715E+00
          1   -1    0    0  502    0  0.00000000000E+00  0.00000000000E+00  0.19028571843E+03  0.19028571843E+03  0.00000000000E+00 0. -1.
         -2   -1    0    0    0  501 -0.00000000000E+00 -0.00000000000E+00 -0.13132100803E+03  0.13132100803E+03  0.00000000000E+00 0.  1.
        -24    2    1    2    0    0 -0.42766711736E+01 -0.58439397804E+01 -0.70701596396E+02  0.10701335970E+03  0.80004386578E+02 0.  0.
         23    2    1    2    0    0 -0.35709539196E+02  0.26043174094E+02  0.13415618372E+03  0.16957042726E+03  0.93823398281E+02 0.  0.
         11    1    3    3    0    0  0.34610567334E+02 -0.71415038928E+01 -0.54303539916E+02  0.64790175925E+02  0.00000000000E+00 0. -1.
        -12    1    3    3    0    0 -0.38887238507E+02  0.12975641124E+01 -0.16398056480E+02  0.42223183770E+02  0.00000000000E+00 0.  1.
        -13    1    4    4    0    0 -0.54635988700E+01 -0.24831386340E+02  0.95623672869E+02  0.98946124094E+02  0.00000000000E+00 0. -1.
         13    1    4    4    0    0 -0.30245940326E+02  0.50874560433E+02  0.38532510850E+02  0.70624303168E+02  0.00000000000E+00 0.  1.
         21    1    1    2  502  501  0.39986210369E+02 -0.20199234313E+02 -0.44898769170E+01  0.45022939501E+02  0.00000000000E+00 0.  1.
<scales pt_clust_5="13000.00000" pt_clust_6="13000.00000" pt_clust_7="13000.00000" pt_clust_8="13000.00000" pt_clust_9="44.79851"></scales>
<clustering>
<clus scale="   44.799">  2  9  1 -1</clus>
<clus scale="   80.004">  5  6 -1 -1</clus>
<clus scale="   88.092">  2  5  1 -1</clus>
<clus scale="   93.823">  7  8 -1 -1</clus>
<clus scale="  100.808">  1  5  2 -1</clus>
</clustering>
</event>
<event>
 9    1  0.1973774E-005  0.1153881E+03  0.7546771E-02  0.1254880E+00
         -2   -1    0    0    0  501 -0.00000000000E+00  0.00000000000E+00  0.29611897977E+03  0.29611897977E+03  0.00000000000E+00 0.  1.
          1   -1    0    0  502    0  0.00000000000E+00 -0.00000000000E+00 -0.12128693128E+03  0.12128693128E+03  0.00000000000E+00 0. -1.
         23    2    1    2    0    0  0.42266820191E+02  0.59196637853E+02  0.25069987672E+03  0.27656874008E+03  0.91373485110E+02 0.  0.
        -24    2    1    2    0    0 -0.23036852600E+02 -0.51097759278E+02 -0.60310038229E+02  0.11480971783E+03  0.80014330065E+02 0.  0.
         11    1    4    4    0    0 -0.93043980478E+01 -0.42300572684E+02 -0.78945313492E+02  0.90045948242E+02  0.00000000000E+00 0. -1.
        -12    1    4    4    0    0 -0.13732454552E+02 -0.87971865938E+01  0.18635275263E+02  0.24763769587E+02  0.00000000000E+00 0.  1.
        -11    1    3    3    0    0  0.65975476171E+02  0.59434400610E+02  0.16184628962E+03  0.18460615617E+03  0.00000000000E+00 0.  1.
         11    1    3    3    0    0 -0.23708655980E+02 -0.23776275704E+00  0.88853587096E+02  0.91962583909E+02  0.00000000000E+00 0. -1.
         21    1    1    2  502  501 -0.19229967591E+02 -0.80988785753E+01 -0.15557789999E+02  0.26027453148E+02  0.00000000000E+00 0.  1.
<scales pt_clust_5="13000.00000" pt_clust_6="13000.00000" pt_clust_7="13000.00000" pt_clust_8="13000.00000" pt_clust_9="20.86585"></scales>
<clustering>
<clus scale="   20.866">  2  9  1 -1</clus>
<clus scale="   80.014">  5  6 -1 -1</clus>
<clus scale="   91.373">  7  8 -1 -1</clus>
<clus scale="  106.619">  2  5  1 -1</clus>
<clus scale="   20.866">  2  5  1 -1</clus>
</clustering>
</event>
<event>
 9    1  0.1973774E-005  0.2349178E+03  0.7546771E-02  0.1124045E+00
          1   -1    0    0  502    0  0.00000000000E+00  0.00000000000E+00  0.60356345713E+03  0.60356345713E+03  0.00000000000E+00 0. -1.
         -2   -1    0    0    0  501 -0.00000000000E+00 -0.00000000000E+00 -0.12289454111E+03  0.12289454111E+03  0.00000000000E+00 0.  1.
        -24    2    1    2    0    0  0.13905266222E+03  0.12737496313E+03  0.86291424315E+02  0.22228043165E+03  0.80014725398E+02 0.  0.
         23    2    1    2    0    0 -0.14221514337E+03 -0.18435831533E+03  0.35609446664E+03  0.43545570891E+03  0.92764593532E+02 0.  0.
         13    1    3    3    0    0  0.58210408760E+02  0.54174348608E+02  0.80371097095E+02  0.11306115594E+03  0.00000000000E+00 0. -1.
        -14    1    3    3    0    0  0.80842253461E+02  0.73200614526E+02  0.59203272202E+01  0.10921927571E+03  0.00000000000E+00 0.  1.
        -13    1    4    4    0    0 -0.29587732919E+02 -0.11134790241E+03  0.14336762691E+03  0.18392407606E+03  0.00000000000E+00 0.  1.
         13    1    4    4    0    0 -0.11262741045E+03 -0.73010412925E+02  0.21272683973E+03  0.25153163284E+03  0.00000000000E+00 0. -1.
         21    1    1    2  502  501  0.31624811460E+01  0.56983352199E+02  0.38283025065E+02  0.68721857680E+02  0.00000000000E+00 0.  1.
<scales pt_clust_5="13000.00000" pt_clust_6="13000.00000" pt_clust_7="13000.00000" pt_clust_8="13000.00000" pt_clust_9="57.07104"></scales>
<clustering>
<clus scale="   57.071">  2  9  1 -1</clus>
<clus scale="   80.015">  5  6 -1 -1</clus>
<clus scale="   92.765">  7  8 -1 -1</clus>
<clus scale="  230.181">  2  5  1 -1</clus>
<clus scale="  234.918">  1  5  2 -1</clus>
</clustering>
</event>
<event>
 9    1  0.1973774E-005  0.1541057E+03  0.7546771E-02  0.1221082E+00
          1   -1    0    0  502    0  0.00000000000E+00  0.00000000000E+00  0.20991011465E+03  0.20991011465E+03  0.00000000000E+00 0. -1.
         -2   -1    0    0    0  501 -0.00000000000E+00 -0.00000000000E+00 -0.44303437807E+03  0.44303437807E+03  0.00000000000E+00 0.  1.
         23    2    1    2    0    0 -0.27468409702E+02  0.12409638040E+03 -0.38402197306E+03  0.41534689452E+03  0.94264212896E+02 0.  0.
        -24    2    1    2    0    0  0.22242899738E+02 -0.30830176470E+02  0.85986638152E+02  0.12384638743E+03  0.80616247547E+02 0.  0.
         11    1    4    4    0    0 -0.12623605808E+02 -0.17384621222E+02  0.83693316746E+02  0.86406896406E+02  0.00000000000E+00 0. -1.
        -12    1    4    4    0    0  0.34866505546E+02 -0.13445555248E+02  0.22933214057E+01  0.37439491022E+02  0.00000000000E+00 0.  1.
        -13    1    3    3    0    0  0.23620400084E+02  0.97861557212E+02 -0.25277387721E+03  0.27208351784E+03  0.00000000000E+00 0.  1.
         13    1    3    3    0    0 -0.51088809786E+02  0.26234823184E+02 -0.13124809586E+03  0.14326337668E+03  0.00000000000E+00 0. -1.
         21    1    1    2  502  501  0.52255099634E+01 -0.93266203927E+02  0.64911071488E+02  0.11375121077E+03  0.00000000000E+00 0. -1.
<scales pt_clust_5="13000.00000" pt_clust_6="13000.00000" pt_clust_7="13000.00000" pt_clust_8="13000.00000" pt_clust_9="121.91324"></scales>
<clustering>
<clus scale="   80.616">  5  6 -1 -1</clus>
<clus scale="   89.130">  1  5  2 -1</clus>
<clus scale="   94.264">  7  8 -1 -1</clus>
<clus scale="  121.913">  1  9  2 -1</clus>
<clus scale="   89.130">  1  5  2 -1</clus>
</clustering>
</event>
<event>
 9    1  0.1973774E-005  0.1381967E+03  0.7546771E-02  0.1220981E+00
          3   -1    0    0  502    0  0.00000000000E+00  0.00000000000E+00  0.69471874542E+03  0.69471874542E+03  0.00000000000E+00 0. -1.
         -4   -1    0    0    0  501 -0.00000000000E+00 -0.00000000000E+00 -0.46757667866E+02  0.46757667866E+02  0.00000000000E+00 0.  1.
         23    2    1    2    0    0 -0.24382101274E+01  0.10784074541E+03  0.91489314248E+02  0.16780374353E+03  0.90289703073E+02 0.  0.
        -24    2    1    2    0    0  0.18923364817E+02 -0.92916937666E+02  0.43167223732E+03  0.44690752451E+03  0.66285473156E+02 0.  0.
         13    1    4    4    0    0  0.21864168421E+02 -0.82712921130E+02  0.42668100172E+03  0.43517369682E+03  0.00000000000E+00 0. -1.
        -14    1    4    4    0    0 -0.29408036036E+01 -0.10204016536E+02  0.49912356001E+01  0.11733827684E+02  0.00000000000E+00 0.  1.
        -13    1    3    3    0    0 -0.35573081187E+02  0.93120758976E+02  0.46425408281E+02  0.10996471430E+03  0.00000000000E+00 0.  1.
         13    1    3    3    0    0  0.33134871060E+02  0.14719986435E+02  0.45063905967E+02  0.57839029226E+02  0.00000000000E+00 0. -1.
         21    1    1    2  502  501 -0.16485154690E+02 -0.14923807745E+02  0.12479952599E+03  0.12676514525E+03  0.00000000000E+00 0. -1.
<scales pt_clust_5="13000.00000" pt_clust_6="13000.00000" pt_clust_7="13000.00000" pt_clust_8="13000.00000" pt_clust_9="22.23691"></scales>
<clustering>
<clus scale="   22.237">  1  9  2 -1</clus>
<clus scale="   66.285">  5  6 -1 -1</clus>
<clus scale="   90.290">  7  8 -1 -1</clus>
<clus scale="  123.854">  1  5  2 -1</clus>
<clus scale="   22.237">  1  5  2 -1</clus>
</clustering>
</event>
<event>
 9    1  0.1973774E-005  0.9407301E+02  0.7546771E-02  0.1299788E+00
         -4   -1    0    0    0  501 -0.00000000000E+00  0.00000000000E+00  0.21126536829E+03  0.21126536829E+03  0.00000000000E+00 0.  1.
          3   -1    0    0  502    0  0.00000000000E+00 -0.00000000000E+00 -0.12165891002E+03  0.12165891002E+03  0.00000000000E+00 0. -1.
         23    2    1    2    0    0 -0.37606143510E+01  0.24203131360E+02  0.14097684368E+03  0.16988035159E+03  0.91569261303E+02 0.  0.
        -24    2    1    2    0    0  0.50128705884E+02  0.10970887666E+02 -0.22680702991E+02  0.98157029706E+02  0.80542787776E+02 0.  0.
         11    1    4    4    0    0  0.36071019128E+02 -0.27726322816E+02 -0.32400301822E+02  0.55853799835E+02  0.00000000000E+00 0. -1.
        -12    1    4    4    0    0  0.14057686756E+02  0.38697210483E+02  0.97195988311E+01  0.42303229871E+02  0.00000000000E+00 0.  1.
        -11    1    3    3    0    0 -0.18935324299E+02  0.55877808939E+02  0.97857586535E+02  0.11426715749E+03  0.00000000000E+00 0.  1.
         11    1    3    3    0    0  0.15174709948E+02 -0.31674677579E+02  0.43119257146E+02  0.55613194105E+02  0.00000000000E+00 0. -1.
         21    1    1    2  502  501 -0.46368091533E+02 -0.35174019026E+02 -0.28689682423E+02  0.64886897016E+02  0.00000000000E+00 0. -1.
<scales pt_clust_5="13000.00000" pt_clust_6="13000.00000" pt_clust_7="13000.00000" pt_clust_8="13000.00000" pt_clust_9="58.19976"></scales>
<clustering>
<clus scale="   58.200">  2  9  1 -1</clus>
<clus scale="   80.543">  5  6 -1 -1</clus>
<clus scale="   83.378">  2  5  1 -1</clus>
<clus scale="   91.569">  7  8 -1 -1</clus>
<clus scale="   58.200">  2  5  1 -1</clus>
</clustering>
</event>
<event>
 9    1  0.1973774E-005  0.1357408E+03  0.7546771E-02  0.1221275E+00
         -2   -1    0    0    0  501 -0.00000000000E+00  0.00000000000E+00  0.16893728351E+03  0.16893728351E+03  0.00000000000E+00 0.  1.
          1   -1    0    0  502    0  0.00000000000E+00 -0.00000000000E+00 -0.18742318108E+03  0.18742318108E+03  0.00000000000E+00 0. -1.
        -24    2    1    2    0    0  0.45417766558E+02 -0.94683649134E+02  0.77288431620E+02  0.15365052876E+03  0.81284785741E+02 0.  0.
         23    2    1    2    0    0 -0.72492909765E+02  0.65120186884E+02 -0.50272653120E+02  0.14206783656E+03  0.90333104822E+02 0.  0.
         13    1    3    3    0    0 -0.51019678580E+01 -0.42224634420E+02 -0.60648104491E+01  0.42961980328E+02  0.00000000000E+00 0. -1.
        -14    1    3    3    0    0  0.50519734416E+02 -0.52459014715E+02  0.83353242069E+02  0.11068854843E+03  0.00000000000E+00 0.  1.
        -13    1    4    4    0    0 -0.42896202387E+01  0.32969914896E+02 -0.57396648672E+02  0.66330923473E+02  0.00000000000E+00 0. -1.
         13    1    4    4    0    0 -0.68203289527E+02  0.32150271989E+02  0.71239955520E+01  0.75736913086E+02  0.00000000000E+00 0.  1.
         21    1    1    2  502  501  0.27075143208E+02  0.29563462250E+02 -0.45501676063E+02  0.60642099275E+02  0.00000000000E+00 0. -1.
<scales pt_clust_5="13000.00000" pt_clust_6="13000.00000" pt_clust_7="13000.00000" pt_clust_8="13000.00000" pt_clust_9="40.08817"></scales>
<clustering>
<clus scale="   40.088">  2  9  1 -1</clus>
<clus scale="   81.285">  5  6 -1 -1</clus>
<clus scale="   90.333">  7  8 -1 -1</clus>
<clus scale="  129.895">  1  5  2 -1</clus>
<clus scale="   40.088">  2  5  1 -1</clus>
</clustering>
</event>
<event>
 9    1  0.1973774E-005  0.1114620E+03  0.7546771E-02  0.1267867E+00
          1   -1    0    0  502    0  0.00000000000E+00  0.00000000000E+00  0.91019187107E+03  0.91019187107E+03  0.00000000000E+00 0. -1.
         -2   -1    0    0    0  501 -0.00000000000E+00 -0.00000000000E+00 -0.84043011278E+02  0.84043011278E+02  0.00000000000E+00 0.  1.
        -24    2    1    2    0    0  0.14384219746E+02 -0.73253149411E+02 -0.20445636527E+02  0.11136407733E+03  0.80068745407E+02 0.  0.
         23    2    1    2    0    0 -0.41839769440E+01 -0.49044971152E+02  0.15196740437E+03  0.17748603617E+03  0.77358168194E+02 0.  0.
         11    1    3    3    0    0  0.27997465006E+02 -0.11486132637E+02  0.20013522337E+02  0.36281267426E+02  0.00000000000E+00 0. -1.
        -12    1    3    3    0    0 -0.13613245259E+02 -0.61767016774E+02 -0.40459158864E+02  0.75082809908E+02  0.00000000000E+00 0.  1.
        -13    1    4    4    0    0  0.33852274098E+02 -0.28100087009E+02  0.49659997878E+02  0.66345359602E+02  0.00000000000E+00 0. -1.
         13    1    4    4    0    0 -0.38036251042E+02 -0.20944884143E+02  0.10230740649E+03  0.11114067657E+03  0.00000000000E+00 0.  1.
         21    1    1    2  502  501 -0.10200242802E+02  0.12229812056E+03  0.69462709195E+03  0.70538476884E+03  0.00000000000E+00 0. -1.
<scales pt_clust_5="13000.00000" pt_clust_6="13000.00000" pt_clust_7="13000.00000" pt_clust_8="13000.00000" pt_clust_9="77.54207"></scales>
<clustering>
<clus scale="   77.358">  7  8 -1 -1</clus>
<clus scale="   80.069">  5  6 -1 -1</clus>
<clus scale="   91.691">  1  7  2 -1</clus>
<clus scale="   77.542">  1  9  2 -1</clus>
<clus scale="   91.691">  1  5  2 -1</clus>
</clustering>
</event>
<event>
 9    1  0.1973774E-005  0.3775721E+03  0.7546771E-02  0.1052030E+00
         -2   -1    0    0    0  501 -0.00000000000E+00  0.00000000000E+00  0.22685734631E+03  0.22685734631E+03  0.00000000000E+00 0.  1.
          1   -1    0    0  502    0  0.00000000000E+00 -0.00000000000E+00 -0.74426386759E+03  0.74426386759E+03  0.00000000000E+00 0. -1.
         23    2    1    2    0    0  0.37935400416E+03 -0.79886085276E+01 -0.11166955186E+03  0.40599716922E+03  0.91598767801E+02 0.  0.
        -24    2    1    2    0    0 -0.34477212911E+03 -0.64999516420E+01 -0.35224251692E+03  0.49979808579E+03  0.82542506956E+02 0.  0.
         11    1    4    4    0    0 -0.20810197240E+03 -0.29577391543E+02 -0.25510057413E+03  0.33054130745E+03  0.00000000000E+00 0. -1.
        -12    1    4    4    0    0 -0.13667015670E+03  0.23077439901E+02 -0.97141942787E+02  0.16925677834E+03  0.00000000000E+00 0.  1.
        -11    1    3    3    0    0  0.74002135783E+02  0.19902533927E+02  0.75708589231E+01  0.77004836614E+02  0.00000000000E+00 0.  1.
         11    1    3    3    0    0  0.30535186837E+03 -0.27891142455E+02 -0.11924041078E+03  0.32899233260E+03  0.00000000000E+00 0. -1.
         21    1    1    2  502  501 -0.34581875050E+02  0.14488560170E+02 -0.53494452494E+02  0.65325958893E+02  0.00000000000E+00 0. -1.
<scales pt_clust_5="13000.00000" pt_clust_6="13000.00000" pt_clust_7="13000.00000" pt_clust_8="13000.00000" pt_clust_9="37.49433"></scales>
<clustering>
<clus scale="   37.494">  2  9  1 -1</clus>
<clus scale="   82.543">  5  6 -1 -1</clus>
<clus scale="   91.599">  7  8 -1 -1</clus>
<clus scale="  375.478">  2  5  1 -1</clus>
<clus scale="   37.494">  2  5  1 -1</clus>
</clustering>
</event>
<event>
 9    1  0.1973774E-005  0.2442010E+03  0.7546771E-02  0.1117639E+00
          1   -1    0    0  502    0  0.00000000000E+00  0.00000000000E+00  0.20345804991E+03  0.20345804991E+03  0.00000000000E+00 0. -1.
         -2   -1    0    0    0  501 -0.00000000000E+00 -0.00000000000E+00 -0.79268715730E+03  0.79268715730E+03  0.00000000000E+00 0.  1.
        -24    2    1    2    0    0 -0.22554590091E+03  0.52072719857E+02 -0.58551823740E+03  0.63493519224E+03  0.82027863845E+02 0.  0.
         23    2    1    2    0    0  0.20887175242E+03 -0.27278998582E+02 -0.10699318325E+03  0.25369261140E+03  0.92416703546E+02 0.  0.
         11    1    3    3    0    0 -0.83022652424E+02  0.87637295009E+01 -0.12013536463E+03  0.14629446197E+03  0.00000000000E+00 0. -1.
        -12    1    3    3    0    0 -0.14252324848E+03  0.43308990356E+02 -0.46538287277E+03  0.48864073026E+03  0.00000000000E+00 0.  1.
        -13    1    4    4    0    0  0.11878317355E+03  0.10865911957E+02 -0.16479707214E+02  0.12041217178E+03  0.00000000000E+00 0. -1.
         13    1    4    4    0    0  0.90088578866E+02 -0.38144910539E+02 -0.90513476033E+02  0.13328043962E+03  0.00000000000E+00 0.  1.
         21    1    1    2  502  501  0.16674148490E+02 -0.24793721275E+02  0.10328231325E+03  0.10751740358E+03  0.00000000000E+00 0. -1.
<scales pt_clust_5="13000.00000" pt_clust_6="13000.00000" pt_clust_7="13000.00000" pt_clust_8="13000.00000" pt_clust_9="29.87902"></scales>
<clustering>
<clus scale="   29.879">  1  9  2 -1</clus>
<clus scale="   82.028">  5  6 -1 -1</clus>
<clus scale="   92.417">  7  8 -1 -1</clus>
<clus scale="  240.462">  2  5  1 -1</clus>
<clus scale="   29.879">  1  5  2 -1</clus>
</clustering>
</event>
<event>
 9    1  0.1973774E-005  0.9357895E+02  0.7546771E-02  0.1297433E+00
         -2   -1    0    0    0  501 -0.00000000000E+00  0.00000000000E+00  0.98540979880E+02  0.98540979880E+02  0.00000000000E+00 0.  1.
          1   -1    0    0  502    0  0.00000000000E+00 -0.00000000000E+00 -0.77075582337E+03  0.77075582337E+03  0.00000000000E+00 0. -1.
        -24    2    1    2    0    0 -0.25501114995E+02  0.29630746669E+02  0.61138708638E+02  0.10771405918E+03  0.79599552994E+02 0.  0.
         23    2    1    2    0    0  0.78653129711E+02  0.33722667428E+02 -0.38264543698E+03  0.40125653939E+03  0.85239350375E+02 0.  0.
         13    1    3    3    0    0 -0.42897489452E+02  0.13804959149E+02  0.31922365867E+01  0.45177006018E+02  0.00000000000E+00 0. -1.
        -14    1    3    3    0    0  0.17396374456E+02  0.15825787520E+02  0.57946472052E+02  0.62537053161E+02  0.00000000000E+00 0.  1.
        -11    1    4    4    0    0  0.83727176629E+02  0.53088196643E+02 -0.33976066932E+03  0.35392924313E+03  0.00000000000E+00 0.  1.
         11    1    4    4    0    0 -0.50740469178E+01 -0.19365529215E+02 -0.42884767662E+02  0.47327296261E+02  0.00000000000E+00 0. -1.
         21    1    1    2  502  501 -0.53152014716E+02 -0.63353414098E+02 -0.35070811515E+03  0.36032620468E+03  0.00000000000E+00 0. -1.
<scales pt_clust_5="13000.00000" pt_clust_6="13000.00000" pt_clust_7="13000.00000" pt_clust_8="13000.00000" pt_clust_9="82.69699"></scales>
<clustering>
<clus scale="   79.600">  5  6 -1 -1</clus>
<clus scale="   82.697">  2  9  1 -1</clus>
<clus scale="   85.239">  7  8 -1 -1</clus>
<clus scale="   88.472">  1  5  2 -1</clus>
<clus scale="   82.697">  2  5  1 -1</clus>
</clustering>
</event>
<event>
 9    1  0.1973774E-005  0.1002801E+03  0.7546771E-02  0.1284300E+00
          1   -1    0    0  502    0  0.00000000000E+00  0.00000000000E+00  0.29297464691E+03  0.29297464691E+03  0.00000000000E+00 0. -1.
         -2   -1    0    0    0  501 -0.00000000000E+00 -0.00000000000E+00 -0.26151001959E+03  0.26151001959E+03  0.00000000000E+00 0.  1.
        -24    2    1    2    0    0 -0.34614185600E+02 -0.31619406557E+02 -0.23801553611E+03  0.25535181640E+03  0.79719671309E+02 0.  0.
         23    2    1    2    0    0  0.15920685999E+02  0.20345367760E+02  0.14127836676E+03  0.16908573731E+03  0.89235684659E+02 0.  0.
         11    1    3    3    0    0  0.24745231802E+02 -0.25105973345E+01 -0.46310960588E+02  0.52567429712E+02  0.00000000000E+00 0. -1.
        -12    1    3    3    0    0 -0.59359417402E+02 -0.29108809222E+02 -0.19170457552E+03  0.20278438668E+03  0.00000000000E+00 0.  1.
        -11    1    4    4    0    0  0.52928524168E+02  0.16333674177E+02  0.90887176755E+02  0.10643634944E+03  0.00000000000E+00 0. -1.
         11    1    4    4    0    0 -0.37007838169E+02  0.40116935833E+01  0.50391190002E+02  0.62649387876E+02  0.00000000000E+00 0.  1.
         21    1    1    2  502  501  0.18693499600E+02  0.11274038796E+02  0.12820179666E+03  0.13004711279E+03  0.00000000000E+00 0.  1.
<scales pt_clust_5="13000.00000" pt_clust_6="13000.00000" pt_clust_7="13000.00000" pt_clust_8="13000.00000" pt_clust_9="21.83005"></scales>
<clustering>
<clus scale="   21.830">  1  9  2 -1</clus>
<clus scale="   79.720">  5  6 -1 -1</clus>
<clus scale="   89.236">  7  8 -1 -1</clus>
<clus scale="   91.915">  2  5  1 -1</clus>
<clus scale="   21.830">  1  5  2 -1</clus>
</clustering>
</event>
<event>
 9    1  0.1973774E-005  0.1010569E+03  0.7546771E-02  0.1282703E+00
         -2   -1    0    0    0  501 -0.00000000000E+00  0.00000000000E+00  0.70197277663E+02  0.70197277663E+02  0.00000000000E+00 0.  1.
          1   -1    0    0  502    0  0.00000000000E+00 -0.00000000000E+00 -0.28308968161E+03  0.28308968161E+03  0.00000000000E+00 0. -1.
         23    2    1    2    0    0 -0.30550940013E+02 -0.37956803956E+02  0.76765446342E+01  0.10302320591E+03  0.90447624164E+02 0.  0.
        -24    2    1    2    0    0  0.33103515612E+02  0.15957730807E+02 -0.13291337485E+03  0.15985371815E+03  0.80850195252E+02 0.  0.
         11    1    4    4    0    0  0.35737712820E+02  0.37476449660E+02 -0.12734374598E+03  0.13747035330E+03  0.00000000000E+00 0. -1.
        -12    1    4    4    0    0 -0.26341972080E+01 -0.21518718853E+02 -0.55696288726E+01  0.22383364845E+02  0.00000000000E+00 0.  1.
        -13    1    3    3    0    0 -0.52966974132E+02  0.72371527594E+00 -0.11780873049E+02  0.54266132000E+02  0.00000000000E+00 0. -1.
         13    1    3    3    0    0  0.22416034119E+02 -0.38680519232E+02  0.19457417684E+02  0.48757073913E+02  0.00000000000E+00 0.  1.
         21    1    1    2  502  501 -0.25525755993E+01  0.21999073149E+02 -0.87655573725E+02  0.90410035209E+02  0.00000000000E+00 0. -1.
<scales pt_clust_5="13000.00000" pt_clust_6="13000.00000" pt_clust_7="13000.00000" pt_clust_8="13000.00000" pt_clust_9="22.14667"></scales>
<clustering>
<clus scale="   22.147">  2  9  1 -1</clus>
<clus scale="   80.850">  5  6 -1 -1</clus>
<clus scale="   90.448">  7  8 -1 -1</clus>
<clus scale="   92.566">  2  5  1 -1</clus>
<clus scale="   22.147">  2  5  1 -1</clus>
</clustering>
</event>
<event>
 9    1  0.1973774E-005  0.1224295E+03  0.7546771E-02  0.1242232E+00
          3   -1    0    0  502    0  0.00000000000E+00  0.00000000000E+00  0.45872414306E+03  0.45872414306E+03  0.00000000000E+00 0. -1.
         -4   -1    0    0    0  501 -0.00000000000E+00 -0.00000000000E+00 -0.58563847122E+02  0.58563847122E+02  0.00000000000E+00 0.  1.
        -24    2    1    2    0    0  0.75811375716E+02 -0.38866780120E+02  0.43670128820E+02  0.12609737616E+03  0.82069950883E+02 0.  0.
         23    2    1    2    0    0 -0.49416412901E+02  0.52250409083E+02  0.19792287405E+03  0.22988530718E+03  0.92204681388E+02 0.  0.
         11    1    3    3    0    0  0.13993545507E+02 -0.52291176090E+02  0.27920224850E+02  0.60907514876E+02  0.00000000000E+00 0. -1.
        -12    1    3    3    0    0  0.61817830209E+02  0.13424395970E+02  0.15749903971E+02  0.65189861282E+02  0.00000000000E+00 0.  1.
        -11    1    4    4    0    0 -0.23710932033E+02  0.63434239790E+02  0.64405629568E+02  0.93456921604E+02  0.00000000000E+00 0. -1.
         11    1    4    4    0    0 -0.25705480868E+02 -0.11183830707E+02  0.13351724448E+03  0.13642838557E+03  0.00000000000E+00 0.  1.
         21    1    1    2  502  501 -0.26394962815E+02 -0.13383628963E+02  0.15856729307E+03  0.16130530684E+03  0.00000000000E+00 0. -1.
<scales pt_clust_5="13000.00000" pt_clust_6="13000.00000" pt_clust_7="13000.00000" pt_clust_8="13000.00000" pt_clust_9="29.59418"></scales>
<clustering>
<clus scale="   29.594">  1  9  2 -1</clus>
<clus scale="   82.070">  5  6 -1 -1</clus>
<clus scale="   92.205">  7  8 -1 -1</clus>
<clus scale="  114.990">  2  5  1 -1</clus>
<clus scale="   29.594">  1  5  2 -1</clus>
</clustering>
</event>
<event>
 9    1  0.1973774E-005  0.2251187E+03  0.7546771E-02  0.1130897E+00
         -2   -1    0    0    0  501 -0.00000000000E+00  0.00000000000E+00  0.23166382692E+03  0.23166382692E+03  0.00000000000E+00 0.  1.
          1   -1    0    0  502    0  0.00000000000E+00 -0.00000000000E+00 -0.26038323148E+03  0.26038323148E+03  0.00000000000E+00 0. -1.
         23    2    1    2    0    0 -0.14538259631E+03  0.12782872206E+03  0.30843740169E+02  0.21660691493E+03  0.92146284758E+02 0.  0.
        -24    2    1    2    0    0  0.16714591535E+03 -0.14899897538E+03 -0.48265916440E+02  0.24304494246E+03  0.81257576158E+02 0.  0.
         13    1    4    4    0    0  0.69571643348E+02 -0.41669177613E+02  0.18786872814E+02  0.83243501315E+02  0.00000000000E+00 0. -1.
        -14    1    4    4    0    0  0.97574272005E+02 -0.10732979776E+03 -0.67052789254E+02  0.15980144114E+03  0.00000000000E+00 0.  1.
        -11    1    3    3    0    0 -0.57608241327E+02  0.99249474193E+02 -0.10946840079E+02  0.11527792896E+03  0.00000000000E+00 0. -1.
         11    1    3    3    0    0 -0.87774354986E+02  0.28579247868E+02  0.41790580248E+02  0.10132898598E+03  0.00000000000E+00 0.  1.
         21    1    1    2  502  501 -0.21763319040E+02  0.21170253314E+02 -0.11297228288E+02  0.32395201002E+02  0.00000000000E+00 0.  1.
<scales pt_clust_5="13000.00000" pt_clust_6="13000.00000" pt_clust_7="13000.00000" pt_clust_8="13000.00000" pt_clust_9="30.36152"></scales>
<clustering>
<clus scale="   30.362">  2  9  1 -1</clus>
<clus scale="   81.258">  5  6 -1 -1</clus>
<clus scale="   92.146">  7  8 -1 -1</clus>
<clus scale="  220.885">  2  5  1 -1</clus>
<clus scale="   30.362">  2  5  1 -1</clus>
</clustering>
</event>
<event>
 9    1  0.1973774E-005  0.2237082E+03  0.7546771E-02  0.1132062E+00
          1   -1    0    0  502    0  0.00000000000E+00  0.00000000000E+00  0.78512525872E+02  0.78512525872E+02  0.00000000000E+00 0. -1.
         -2   -1    0    0    0  501 -0.00000000000E+00 -0.00000000000E+00 -0.69663963814E+03  0.69663963814E+03  0.00000000000E+00 0.  1.
         23    2    1    2    0    0  0.19292401358E+03 -0.32346470393E+02 -0.28505150332E+03  0.35791027044E+03  0.92625228609E+02 0.  0.
        -24    2    1    2    0    0 -0.20608664850E+03  0.48478316204E+02 -0.32225970269E+03  0.39377968491E+03  0.79932912124E+02 0.  0.
         13    1    4    4    0    0 -0.13047937677E+03 -0.81968281885E+01 -0.16792745135E+03  0.21281843123E+03  0.00000000000E+00 0. -1.
        -14    1    4    4    0    0 -0.75607271724E+02  0.56675144392E+02 -0.15433225134E+03  0.18096125368E+03  0.00000000000E+00 0.  1.
        -11    1    3    3    0    0  0.29819857174E+02 -0.13437435009E+02 -0.12276708087E+03  0.12704937893E+03  0.00000000000E+00 0.  1.
         11    1    3    3    0    0  0.16310415641E+03 -0.18909035384E+02 -0.16228442246E+03  0.23086089151E+03  0.00000000000E+00 0. -1.
         21    1    1    2  502  501  0.13162634913E+02 -0.16131845811E+02 -0.10815906253E+02  0.23462208659E+02  0.00000000000E+00 0. -1.
<scales pt_clust_5="13000.00000" pt_clust_6="13000.00000" pt_clust_7="13000.00000" pt_clust_8="13000.00000" pt_clust_9="20.82046"></scales>
<clustering>
<clus scale="   20.820">  1  9  2 -1</clus>
<clus scale="   79.933">  5  6 -1 -1</clus>
<clus scale="   92.625">  7  8 -1 -1</clus>
<clus scale="  218.758">  1  5  2 -1</clus>
<clus scale="   20.820">  1  5  2 -1</clus>
</clustering>
</event>
<event>
 9    1  0.1973774E-005  0.9064435E+02  0.7546771E-02  0.1306604E+00
          1   -1    0    0  502    0  0.00000000000E+00  0.00000000000E+00  0.22134039276E+03  0.22134039276E+03  0.00000000000E+00 0. -1.
         -2   -1    0    0    0  501 -0.00000000000E+00 -0.00000000000E+00 -0.58544962882E+02  0.58544962882E+02  0.00000000000E+00 0.  1.
        -24    2    1    2    0    0  0.22271485967E+02 -0.17966004663E+01  0.14023758858E+02  0.84761043421E+02  0.80551361310E+02 0.  0.
         23    2    1    2    0    0 -0.93945673953E+01 -0.15059709551E+02  0.14828447828E+03  0.17390668803E+03  0.89107782460E+02 0.  0.
         13    1    3    3    0    0  0.36526652411E+02 -0.25210618063E+02  0.29490421569E+02  0.53286551435E+02  0.00000000000E+00 0. -1.
        -14    1    3    3    0    0 -0.14255166444E+02  0.23414017597E+02 -0.15466662711E+02  0.31474491987E+02  0.00000000000E+00 0.  1.
        -13    1    4    4    0    0 -0.17902734514E+02 -0.44830037299E+02  0.12823470946E+03  0.13701963676E+03  0.00000000000E+00 0. -1.
         13    1    4    4    0    0  0.85081671182E+01  0.29770327748E+02  0.20049768824E+02  0.36887051276E+02  0.00000000000E+00 0.  1.
         21    1    1    2  502  501 -0.12876918572E+02  0.16856310017E+02  0.48719273390E+00  0.21217624185E+02  0.00000000000E+00 0.  1.
<scales pt_clust_5="13000.00000" pt_clust_6="13000.00000" pt_clust_7="13000.00000" pt_clust_8="13000.00000" pt_clust_9="21.21203"></scales>
<clustering>
<clus scale="   21.212">  2  9  1 -1</clus>
<clus scale="   80.551">  5  6 -1 -1</clus>
<clus scale="   82.248">  2  5  1 -1</clus>
<clus scale="   89.108">  7  8 -1 -1</clus>
<clus scale="   90.644">  1  5  2 -1</clus>
</clustering>
</event>
<event>
 9    1  0.2023443E-005  0.2004453E+03  0.7546771E-02  0.1150655E+00
         -2   -1    0    0    0  501 -0.00000000000E+00  0.00000000000E+00  0.29472517320E+03  0.29472517320E+03  0.00000000000E+00 0.  1.
          1   -1    0    0  502    0  0.00000000000E+00 -0.00000000000E+00 -0.46396982952E+03  0.46396982952E+03  0.00000000000E+00 0. -1.
        -24    2    1    2    0    0 -0.17888554307E+03  0.25750068761E+02  0.22299224861E+03  0.29822500217E+03  0.80929014667E+02 0.  0.
         23    2    1    2    0    0  0.13969530551E+03  0.11729637421E+02 -0.35911712857E+03  0.39692849694E+03  0.94523842900E+02 0.  0.
         13    1    3    3    0    0 -0.15290873457E+02 -0.18942426504E+02  0.10915531486E+02  0.26679114688E+02  0.00000000000E+00 0. -1.
        -14    1    3    3    0    0 -0.16359466961E+03  0.44692495264E+02  0.21207671713E+03  0.27154588748E+03  0.00000000000E+00 0.  1.
        -13    1    4    4    0    0  0.10137723130E+01 -0.25353586607E+02 -0.48196523902E+02  0.54467761147E+02  0.00000000000E+00 0.  1.
         13    1    4    4    0    0  0.13868153320E+03  0.37083224027E+02 -0.31092060467E+03  0.34246073579E+03  0.00000000000E+00 0. -1.
         21    1    1    2  502  501  0.39190237561E+02 -0.37479706181E+02 -0.33119776359E+02  0.63541503615E+02  0.00000000000E+00 0.  1.
<scales pt_clust_5="13000.00000" pt_clust_6="13000.00000" pt_clust_7="13000.00000" pt_clust_8="13000.00000" pt_clust_9="54.22733"></scales>
<clustering>
<clus scale="   54.227">  2  9  1 -1</clus>
<clus scale="   80.929">  5  6 -1 -1</clus>
<clus scale="   94.524">  7  8 -1 -1</clus>
<clus scale="  194.404">  1  5  2 -1</clus>
<clus scale="   54.227">  2  5  1 -1</clus>
</clustering>
</event>
<event>
 9    1  0.1973774E-005  0.1169308E+03  0.7546771E-02  0.1252032E+00
         -2   -1    0    0    0  501 -0.00000000000E+00  0.00000000000E+00  0.32473226149E+02  0.32473226149E+02  0.00000000000E+00 0.  1.
          1   -1    0    0  502    0  0.00000000000E+00 -0.00000000000E+00 -0.70955991933E+03  0.70955991933E+03  0.00000000000E+00 0. -1.
        -24    2    1    2    0    0  0.44919382509E+02 -0.30534357725E+02 -0.91104229771E+02  0.13317093864E+03  0.80525898259E+02 0.  0.
         23    2    1    2    0    0 -0.41949967131E+02  0.68426829085E+02 -0.50368394414E+03  0.51821065921E+03  0.91666466333E+02 0.  0.
         11    1    3    3    0    0 -0.82786619472E+01  0.21249322393E+02 -0.19070314427E+02  0.29727879813E+02  0.00000000000E+00 0. -1.
        -12    1    3    3    0    0  0.53198044456E+02 -0.51783680119E+02 -0.72033915344E+02  0.10344305883E+03  0.00000000000E+00 0.  1.
        -13    1    4    4    0    0 -0.14945933479E+02 -0.22148975176E+02 -0.13380473686E+03  0.13644656696E+03  0.00000000000E+00 0.  1.
         13    1    4    4    0    0 -0.27004033652E+02  0.90575804261E+02 -0.36987920728E+03  0.38176409225E+03  0.00000000000E+00 0. -1.
         21    1    1    2  502  501 -0.29694153783E+01 -0.37892471360E+02 -0.82298519269E+02  0.90651547628E+02  0.00000000000E+00 0.  1.
<scales pt_clust_5="13000.00000" pt_clust_6="13000.00000" pt_clust_7="13000.00000" pt_clust_8="13000.00000" pt_clust_9="38.00864"></scales>
<clustering>
<clus scale="   38.009">  1  9  2 -1</clus>
<clus scale="   80.526">  5  6 -1 -1</clus>
<clus scale="   91.666">  7  8 -1 -1</clus>
<clus scale="  108.418">  1  5  2 -1</clus>
<clus scale="  116.931">  2  5  1 -1</clus>
</clustering>
</event>
<event>
 9    1  0.1973774E-005  0.1594036E+03  0.7546771E-02  0.1191216E+00
         -2   -1    0    0    0  501 -0.00000000000E+00  0.00000000000E+00  0.43168732348E+02  0.43168732348E+02  0.00000000000E+00 0.  1.
          1   -1    0    0  502    0  0.00000000000E+00 -0.00000000000E+00 -0.75413397733E+03  0.75413397733E+03  0.00000000000E+00 0. -1.
         23    2    1    2    0    0 -0.25984558260E+02 -0.13821251100E+03 -0.21429670836E+03  0.27221086265E+03  0.91639396899E+02 0.  0.
        -24    2    1    2    0    0  0.34563608400E+02  0.10781596577E+03 -0.41315059272E+03  0.43580132672E+03  0.80065339610E+02 0.  0.
         11    1    4    4    0    0 -0.13413387810E+01  0.92699354013E+02 -0.34563261884E+03  0.35785035508E+03  0.00000000000E+00 0. -1.
        -12    1    4    4    0    0  0.35904947181E+02  0.15116611762E+02 -0.67517973872E+02  0.77950971636E+02  0.00000000000E+00 0.  1.
        -11    1    3    3    0    0  0.27745882854E+02 -0.16317625710E+02 -0.62131440773E+02  0.69974387148E+02  0.00000000000E+00 0. -1.
         11    1    3    3    0    0 -0.53730441115E+02 -0.12189488529E+03 -0.15216526759E+03  0.20223647550E+03  0.00000000000E+00 0.  1.
         21    1    1    2  502  501 -0.85790501393E+01  0.30396545229E+02 -0.83517943901E+02  0.89290520306E+02  0.00000000000E+00 0. -1.
<scales pt_clust_5="13000.00000" pt_clust_6="13000.00000" pt_clust_7="13000.00000" pt_clust_8="13000.00000" pt_clust_9="31.58402"></scales>
<clustering>
<clus scale="   31.584">  2  9  1 -1</clus>
<clus scale="   80.065">  5  6 -1 -1</clus>
<clus scale="   91.639">  7  8 -1 -1</clus>
<clus scale="  153.043">  2  5  1 -1</clus>
<clus scale="   31.584">  2  5  1 -1</clus>
</clustering>
</event>
<event>
 9    1  0.1973774E-005  0.9218795E+02  0.7546771E-02  0.1305801E+00
         -2   -1    0    0    0  501 -0.00000000000E+00  0.00000000000E+00  0.34706194838E+02  0.34706194838E+02  0.00000000000E+00 0.  1.
          1   -1    0    0  502    0  0.00000000000E+00 -0.00000000000E+00 -0.60724875272E+03  0.60724875272E+03  0.00000000000E+00 0. -1.
         23    2    1    2    0    0 -0.93183105462E+01 -0.13845984398E+02 -0.50416334423E+02  0.10496845538E+03  0.90542960264E+02 0.  0.
        -24    2    1    2    0    0  0.33841948136E+02 -0.70936866421E+01 -0.27529620836E+03  0.28805892243E+03  0.77423140029E+02 0.  0.
         11    1    4    4    0    0  0.15414928591E+02  0.14114928519E+02 -0.13773071872E+02  0.25030955622E+02  0.00000000000E+00 0. -1.
        -12    1    4    4    0    0  0.18427019545E+02 -0.21208615161E+02 -0.26152313648E+03  0.26302796681E+03  0.00000000000E+00 0.  1.
        -11    1    3    3    0    0 -0.28565384262E+02 -0.25827248039E+01 -0.69773473172E+02  0.75438645295E+02  0.00000000000E+00 0. -1.
         11    1    3    3    0    0  0.19247073716E+02 -0.11263259595E+02  0.19357138748E+02  0.29529810088E+02  0.00000000000E+00 0.  1.
         21    1    1    2  502  501 -0.24523637589E+02  0.20939671041E+02 -0.24683001511E+03  0.24892756975E+03  0.00000000000E+00 0. -1.
<scales pt_clust_5="13000.00000" pt_clust_6="13000.00000" pt_clust_7="13000.00000" pt_clust_8="13000.00000" pt_clust_9="32.24715"></scales>
<clustering>
<clus scale="   32.247">  2  9  1 -1</clus>
<clus scale="   77.423">  5  6 -1 -1</clus>
<clus scale="   79.341">  2  5  1 -1</clus>
<clus scale="   90.543">  7  8 -1 -1</clus>
<clus scale="   32.247">  2  5  1 -1</clus>
</clustering>
</event>
<event>
 9    1  0.1973774E-005  0.1396229E+03  0.7546771E-02  0.1215609E+00
         -2   -1    0    0    0  501 -0.00000000000E+00  0.00000000000E+00  0.18212210402E+03  0.18212210402E+03  0.00000000000E+00 0.  1.
          1   -1    0    0  502    0  0.00000000000E+00 -0.00000000000E+00 -0.24867853556E+03  0.24867853556E+03  0.00000000000E+00 0. -1.
        -24    2    1    2    0    0 -0.77814557698E+02  0.73334627956E+02  0.11985891317E+03  0.17949073621E+03  0.80110500387E+02 0.  0.
         23    2    1    2    0    0  0.96284929802E+02 -0.64426464668E+02 -0.14781952091E+03  0.20760466761E+03  0.88473330415E+02 0.  0.
         11    1    3    3    0    0 -0.29434382677E+02  0.46116572245E+02  0.89106229574E+01  0.55430319508E+02  0.00000000000E+00 0. -1.
        -12    1    3    3    0    0 -0.48380175021E+02  0.27218055710E+02  0.11094829021E+03  0.12406041670E+03  0.00000000000E+00 0.  1.
        -13    1    4    4    0    0  0.10227956624E+03 -0.28937012086E+02 -0.12846549114E+03  0.16673884596E+03  0.00000000000E+00 0. -1.
         13    1    4    4    0    0 -0.59946364384E+01 -0.35489452582E+02 -0.19354029768E+02  0.40865821647E+02  0.00000000000E+00 0.  1.
         21    1    1    2  502  501 -0.18470372104E+02 -0.89081632876E+01 -0.38595823795E+02  0.43705235764E+02  0.00000000000E+00 0.  1.
<scales pt_clust_5="13000.00000" pt_clust_6="13000.00000" pt_clust_7="13000.00000" pt_clust_8="13000.00000" pt_clust_9="20.50634"></scales>
<clustering>
<clus scale="   20.506">  2  9  1 -1</clus>
<clus scale="   80.111">  5  6 -1 -1</clus>
<clus scale="   88.473">  7  8 -1 -1</clus>
<clus scale="  134.479">  1  5  2 -1</clus>
<clus scale="   20.506">  2  5  1 -1</clus>
</clustering>
</event>
<event>
 9    1  0.1973774E-005  0.1439939E+03  0.7546771E-02  0.1211499E+00
          1   -1    0    0  502    0  0.00000000000E+00  0.00000000000E+00  0.63715890316E+03  0.63715890316E+03  0.00000000000E+00 0. -1.
         -2   -1    0    0    0  501 -0.00000000000E+00 -0.00000000000E+00 -0.11562547670E+03  0.11562547670E+03  0.00000000000E+00 0.  1.
        -24    2    1    2    0    0  0.84341737827E+02  0.48713245968E+02 -0.12803492154E+02  0.12328382529E+03  0.74488006380E+02 0.  0.
         23    2    1    2    0    0 -0.17013810781E+03 -0.35999731101E+02  0.18626098748E+03  0.27078129888E+03  0.91577289739E+02 0.  0.
         13    1    3    3    0    0  0.67396423252E+02  0.43679162008E+01 -0.28469547701E+02  0.73293053596E+02  0.00000000000E+00 0. -1.
        -14    1    3    3    0    0  0.16945314575E+02  0.44345329767E+02  0.15666055547E+02  0.49990771695E+02  0.00000000000E+00 0.  1.
        -13    1    4    4    0    0 -0.52496887700E+02  0.23090866347E+02  0.24880821221E+02  0.62515330851E+02  0.00000000000E+00 0.  1.
         13    1    4    4    0    0 -0.11764122011E+03 -0.59090597448E+02  0.16138016626E+03  0.20826596803E+03  0.00000000000E+00 0. -1.
         21    1    1    2  502  501  0.85796369986E+02 -0.12713514867E+02  0.34807593114E+03  0.35871925569E+03  0.00000000000E+00 0. -1.
<scales pt_clust_5="13000.00000" pt_clust_6="13000.00000" pt_clust_7="13000.00000" pt_clust_8="13000.00000" pt_clust_9="86.73321"></scales>
<clustering>
<clus scale="   74.488">  5  6 -1 -1</clus>
<clus scale="   86.733">  1  9  2 -1</clus>
<clus scale="   91.577">  7  8 -1 -1</clus>
<clus scale="  133.777">  2  5  1 -1</clus>
<clus scale="   86.733">  1  5  2 -1</clus>
</clustering>
</event>
<event>
 9    1  0.1973774E-005  0.1084165E+03  0.7546771E-02  0.1272051E+00
         -2   -1    0    0    0  501 -0.00000000000E+00  0.00000000000E+00  0.52943310325E+02  0.52943310325E+02  0.00000000000E+00 0.  1.
          1   -1    0    0  502    0  0.00000000000E+00 -0.00000000000E+00 -0.75692910992E+03  0.75692910992E+03  0.00000000000E+00 0. -1.
        -24    2    1    2    0    0 -0.11344271939E+02  0.46629628782E+02  0.13952624590E+01  0.92970406908E+02  0.79614917051E+02 0.  0.
         23    2    1    2    0    0  0.39663478496E+01 -0.19930026703E+02 -0.55213769270E+03  0.56117522449E+03  0.98227608121E+02 0.  0.
         11    1    3    3    0    0 -0.27816089977E+02 -0.60661885230E+01 -0.18873045881E+02  0.34157361808E+02  0.00000000000E+00 0. -1.
        -12    1    3    3    0    0  0.16471818038E+02  0.52695817305E+02  0.20268308340E+02  0.58813045100E+02  0.00000000000E+00 0.  1.
        -11    1    4    4    0    0  0.48337617131E+02  0.62601741519E+01 -0.27653779965E+03  0.28080040891E+03  0.00000000000E+00 0. -1.
         11    1    4    4    0    0 -0.44371269282E+02 -0.26190200855E+02 -0.27559989305E+03  0.28037481557E+03  0.00000000000E+00 0.  1.
         21    1    1    2  502  501  0.73779240894E+01 -0.26699602080E+02 -0.15324336936E+03  0.15572678885E+03  0.00000000000E+00 0. -1.
<scales pt_clust_5="13000.00000" pt_clust_6="13000.00000" pt_clust_7="13000.00000" pt_clust_8="13000.00000" pt_clust_9="27.70023"></scales>
<clustering>
<clus scale="   27.700">  2  9  1 -1</clus>
<clus scale="   79.615">  5  6 -1 -1</clus>
<clus scale="   91.891">  1  5  2 -1</clus>
<clus scale="   98.228">  7  8 -1 -1</clus>
<clus scale="   27.700">  2  5  1 -1</clus>
</clustering>
</event>
<event>
 9    1  0.1973774E-005  0.1830715E+03  0.7546771E-02  0.1166153E+00
          1   -1    0    0  502    0  0.00000000000E+00  0.00000000000E+00  0.42838538150E+03  0.42838538150E+03  0.00000000000E+00 0. -1.
         -2   -1    0    0    0  501 -0.00000000000E+00 -0.00000000000E+00 -0.15087514868E+03  0.15087514868E+03  0.00000000000E+00 0.  1.
         23    2    1    2    0    0 -0.11500548344E+03  0.11506883358E+03 -0.57942184421E+02  0.19587937922E+03  0.92435581795E+02 0.  0.
        -24    2    1    2    0    0  0.98321707023E+02 -0.94870768464E+02  0.29655228813E+03  0.33648200092E+03  0.81297334318E+02 0.  0.
         13    1    4    4    0    0  0.70394212750E+02 -0.93264791149E+02  0.16622064559E+03  0.20318210914E+03  0.00000000000E+00 0. -1.
        -14    1    4    4    0    0  0.27927494272E+02 -0.16059773146E+01  0.13033164255E+03  0.13329989178E+03  0.00000000000E+00 0.  1.
        -13    1    3    3    0    0 -0.70727296790E+02  0.11843021148E+03 -0.62106750309E+02  0.15127892761E+03  0.00000000000E+00 0.  1.
         13    1    3    3    0    0 -0.44278186654E+02 -0.33613779004E+01  0.41645658885E+01  0.44600451610E+02  0.00000000000E+00 0. -1.
         21    1    1    2  502  501  0.16683776421E+02 -0.20198065120E+02  0.38900129111E+02  0.46899150047E+02  0.00000000000E+00 0. -1.
<scales pt_clust_5="13000.00000" pt_clust_6="13000.00000" pt_clust_7="13000.00000" pt_clust_8="13000.00000" pt_clust_9="26.19752"></scales>
<clustering>
<clus scale="   26.198">  1  9  2 -1</clus>
<clus scale="   81.297">  5  6 -1 -1</clus>
<clus scale="   92.436">  7  8 -1 -1</clus>
<clus scale="  177.708">  1  5  2 -1</clus>
<clus scale="   26.198">  1  5  2 -1</clus>
</clustering>
</event>
<event>
 9    1  0.1973774E-005  0.1017214E+03  0.7546771E-02  0.1282264E+00
         -4   -1    0    0    0  501 -0.00000000000E+00  0.00000000000E+00  0.89432917680E+03  0.89432917680E+03  0.00000000000E+00 0.  1.
          3   -1    0    0  502    0  0.00000000000E+00 -0.00000000000E+00 -0.21784493916E+02  0.21784493916E+02  0.00000000000E+00 0. -1.
        -24    2    1    2    0    0  0.37601279262E+02 -0.39744558597E+02  0.65208148649E+03  0.65911562211E+03  0.78928145446E+02 0.  0.
         23    2    1    2    0    0 -0.11813910174E+02  0.16996852667E+02  0.18805307068E+03  0.20974487117E+03  0.90556568584E+02 0.  0.
         13    1    3    3    0    0  0.26407747491E+02 -0.45534172600E+02  0.19854567103E+03  0.20540475527E+03  0.00000000000E+00 0. -1.
        -14    1    3    3    0    0  0.11193531771E+02  0.57896140031E+01  0.45353581546E+03  0.45371086684E+03  0.00000000000E+00 0.  1.
        -13    1    4    4    0    0  0.24012850787E+02  0.32565605680E+02  0.41044919858E+02  0.57635242017E+02  0.00000000000E+00 0. -1.
         13    1    4    4    0    0 -0.35826760961E+02 -0.15568753013E+02  0.14700815082E+03  0.15210962915E+03  0.00000000000E+00 0.  1.
         21    1    1    2  502  501 -0.25787369089E+02  0.22747705930E+02  0.32410125711E+02  0.47253177440E+02  0.00000000000E+00 0. -1.
<scales pt_clust_5="13000.00000" pt_clust_6="13000.00000" pt_clust_7="13000.00000" pt_clust_8="13000.00000" pt_clust_9="34.38672"></scales>
<clustering>
<clus scale="   34.387">  2  9  1 -1</clus>
<clus scale="   78.928">  5  6 -1 -1</clus>
<clus scale="   90.557">  7  8 -1 -1</clus>
<clus scale="   91.523">  1  5  2 -1</clus>
<clus scale="   34.387">  2  5  1 -1</clus>
</clustering>
</event>
<event>
 9    1  0.1973774E-005  0.9301063E+02  0.7546771E-02  0.1298442E+00
         -2   -1    0    0    0  501 -0.00000000000E+00  0.00000000000E+00  0.96679478321E+02  0.96679478321E+02  0.00000000000E+00 0.  1.
          1   -1    0    0  502    0  0.00000000000E+00 -0.00000000000E+00 -0.34153597570E+03  0.34153597570E+03  0.00000000000E+00 0. -1.
         23    2    1    2    0    0 -0.27695343308E+02  0.24838767172E+02  0.59278590717E+02  0.10952955234E+03  0.84254229103E+02 0.  0.
        -24    2    1    2    0    0  0.48687801465E+02 -0.34587588144E+02 -0.21807599200E+03  0.23956861475E+03  0.79178151161E+02 0.  0.
         13    1    4    4    0    0  0.55903082221E+02  0.75601220056E+01 -0.12507257276E+03  0.13720589821E+03  0.00000000000E+00 0. -1.
        -14    1    4    4    0    0 -0.72152807561E+01 -0.42147710150E+02 -0.93003419235E+02  0.10236271654E+03  0.00000000000E+00 0.  1.
        -13    1    3    3    0    0 -0.45904628861E+02 -0.25154966585E+01  0.61279691496E+02  0.76607853802E+02  0.00000000000E+00 0.  1.
         13    1    3    3    0    0  0.18209285552E+02  0.27354263831E+02 -0.20011007785E+01  0.32921698534E+02  0.00000000000E+00 0. -1.
         21    1    1    2  502  501 -0.20992458157E+02  0.97488209724E+01 -0.86059096098E+02  0.89117286937E+02  0.00000000000E+00 0. -1.
<scales pt_clust_5="13000.00000" pt_clust_6="13000.00000" pt_clust_7="13000.00000" pt_clust_8="13000.00000" pt_clust_9="23.14569"></scales>
<clustering>
<clus scale="   23.146">  2  9  1 -1</clus>
<clus scale="   79.178">  5  6 -1 -1</clus>
<clus scale="   84.254">  7  8 -1 -1</clus>
<clus scale="   88.439">  2  5  1 -1</clus>
<clus scale="   23.146">  2  5  1 -1</clus>
</clustering>
</event>
<event>
 9    1  0.1973774E-005  0.1065059E+03  0.7546771E-02  0.1272278E+00
         -2   -1    0    0    0  501 -0.00000000000E+00  0.00000000000E+00  0.19024073061E+03  0.19024073061E+03  0.00000000000E+00 0.  1.
          1   -1    0    0  502    0  0.00000000000E+00 -0.00000000000E+00 -0.40363734031E+03  0.40363734031E+03  0.00000000000E+00 0. -1.
         23    2    1    2    0    0 -0.22946394032E+02 -0.44785768545E+02  0.13213918320E+03  0.16920462852E+03  0.92936217452E+02 0.  0.
        -24    2    1    2    0    0 -0.35413677632E+02  0.78971430972E+02 -0.63508565735E+02  0.13464945315E+03  0.81280513278E+02 0.  0.
         11    1    4    4    0    0  0.55843310622E+01  0.77383753900E+02 -0.38670738188E+02  0.86688269755E+02  0.00000000000E+00 0. -1.
        -12    1    4    4    0    0 -0.40998008694E+02  0.15876770711E+01 -0.24837827547E+02  0.47961183394E+02  0.00000000000E+00 0.  1.
        -13    1    3    3    0    0 -0.27752183573E+02 -0.67594685262E+02  0.63813744073E+02  0.97012468793E+02  0.00000000000E+00 0. -1.
         13    1    3    3    0    0  0.48057895413E+01  0.22808916717E+02  0.68325439126E+02  0.72192159732E+02  0.00000000000E+00 0.  1.
         21    1    1    2  502  501  0.58360071663E+02 -0.34185662427E+02 -0.28202722716E+03  0.29002398925E+03  0.00000000000E+00 0. -1.
<scales pt_clust_5="13000.00000" pt_clust_6="13000.00000" pt_clust_7="13000.00000" pt_clust_8="13000.00000" pt_clust_9="67.63548"></scales>
<clustering>
<clus scale="   67.635">  2  9  1 -1</clus>
<clus scale="   81.281">  5  6 -1 -1</clus>
<clus scale="   92.936">  7  8 -1 -1</clus>
<clus scale="   96.503">  2  5  1 -1</clus>
<clus scale="   67.635">  2  5  1 -1</clus>
</clustering>
</event>
<event>
 9    1  0.1973774E-005  0.1734166E+03  0.7546771E-02  0.1175553E+00
          3   -1    0    0  502    0  0.00000000000E+00  0.00000000000E+00  0.46403129141E+03  0.46403129141E+03  0.00000000000E+00 0. -1.
         -4   -1    0    0    0  501 -0.00000000000E+00 -0.00000000000E+00 -0.66038845238E+03  0.66038845238E+03  0.00000000000E+00 0.  1.
        -24    2    1    2    0    0  0.11826521100E+03 -0.94452678865E+02 -0.61043858464E+03  0.63404228635E+03  0.80413845768E+02 0.  0.
         23    2    1    2    0    0 -0.49723301228E+01  0.95542122468E+02  0.30945863896E+03  0.33616205346E+03  0.89929170618E+02 0.  0.
         13    1    3    3    0    0  0.13857497095E+02 -0.46244593171E+02 -0.10323846159E+03  0.11396829635E+03  0.00000000000E+00 0. -1.
        -14    1    3    3    0    0  0.10440771390E+03 -0.48208085694E+02 -0.50720012305E+03  0.52007399000E+03  0.00000000000E+00 0.  1.
        -11    1    4    4    0    0 -0.25825501875E+02 -0.25088100018E+01  0.32294189855E+02  0.41426626379E+02  0.00000000000E+00 0.  1.
         11    1    4    4    0    0  0.20853171752E+02  0.98050932470E+02  0.27716444911E+03  0.29473542708E+03  0.00000000000E+00 0. -1.
         21    1    1    2  502  501 -0.11329288087E+03 -0.10894436038E+01  0.10462278471E+03  0.15421540398E+03  0.00000000000E+00 0. -1.
<scales pt_clust_5="13000.00000" pt_clust_6="13000.00000" pt_clust_7="13000.00000" pt_clust_8="13000.00000" pt_clust_9="113.29812"></scales>
<clustering>
<clus scale="   80.414">  5  6 -1 -1</clus>
<clus scale="   89.929">  7  8 -1 -1</clus>
<clus scale="  113.298">  1  9  2 -1</clus>
<clus scale="  168.679">  2  5  1 -1</clus>
<clus scale="  113.298">  1  5  2 -1</clus>
</clustering>
</event>
<event>
 9    1  0.1973774E-005  0.1710034E+03  0.7546771E-02  0.1179041E+00
          1   -1    0    0  502    0  0.00000000000E+00  0.00000000000E+00  0.53015415316E+03  0.53015415316E+03  0.00000000000E+00 0. -1.
         -2   -1    0    0    0  501 -0.00000000000E+00 -0.00000000000E+00 -0.41384743843E+03  0.41384743843E+03  0.00000000000E+00 0.  1.
         23    2    1    2    0    0  0.69855597311E+02 -0.12073961927E+03 -0.35406556909E+03  0.39269974141E+03  0.96916456547E+02 0.  0.
        -24    2    1    2    0    0 -0.13756456245E+02  0.17704219733E+03  0.25113508134E+03  0.31810226854E+03  0.81160608932E+02 0.  0.
         11    1    4    4    0    0 -0.35187360593E+02  0.28851717704E+02  0.59783337073E+02  0.75130681825E+02  0.00000000000E+00 0. -1.
        -12    1    4    4    0    0  0.21430904348E+02  0.14819047963E+03  0.19135174427E+03  0.24297158671E+03  0.00000000000E+00 0.  1.
        -11    1    3    3    0    0  0.88419850086E+02 -0.65564988529E+02 -0.20527209471E+03  0.23292374391E+03  0.00000000000E+00 0.  1.
         11    1    3    3    0    0 -0.18564252775E+02 -0.55174630741E+02 -0.14879347438E+03  0.15977599750E+03  0.00000000000E+00 0. -1.
         21    1    1    2  502  501 -0.56099141066E+02 -0.56302578065E+02  0.21923720248E+03  0.23319958164E+03  0.00000000000E+00 0. -1.
<scales pt_clust_5="13000.00000" pt_clust_6="13000.00000" pt_clust_7="13000.00000" pt_clust_8="13000.00000" pt_clust_9="79.48015"></scales>
<clustering>
<clus scale="   79.480">  1  9  2 -1</clus>
<clus scale="   81.161">  5  6 -1 -1</clus>
<clus scale="   96.916">  7  8 -1 -1</clus>
<clus scale="  162.593">  1  5  2 -1</clus>
<clus scale="   79.480">  1  5  2 -1</clus>
</clustering>
</event>
<event>
 9    1  0.1973774E-005  0.1270372E+03  0.7546771E-02  0.1234607E+00
          1   -1    0    0  502    0  0.00000000000E+00  0.00000000000E+00  0.16435992622E+02  0.16435992622E+02  0.00000000000E+00 0. -1.
         -2   -1    0    0    0  501 -0.00000000000E+00 -0.00000000000E+00 -0.19151802566E+04  0.19151802566E+04  0.00000000000E+00 0.  1.
        -24    2    1    2    0    0  0.86221757308E+02  0.45459667639E+00 -0.14694595312E+04  0.14742709161E+04  0.82030616478E+02 0.  0.
         23    2    1    2    0    0 -0.96388031065E+02 -0.18309095903E+02 -0.33658857372E+03  0.36239948454E+03  0.91736813288E+02 0.  0.
         13    1    3    3    0    0  0.31209800823E+02 -0.20337471694E+01 -0.13110475756E+03  0.13478369801E+03  0.00000000000E+00 0. -1.
        -14    1    3    3    0    0  0.55011956486E+02  0.24883438458E+01 -0.13383547736E+04  0.13394872181E+04  0.00000000000E+00 0.  1.
        -11    1    4    4    0    0 -0.46547294096E+02 -0.15209999321E+02 -0.28999714199E+03  0.29410259609E+03  0.00000000000E+00 0.  1.
         11    1    4    4    0    0 -0.49840736969E+02 -0.30990965825E+01 -0.46591431736E+02  0.68296888454E+02  0.00000000000E+00 0. -1.
         21    1    1    2  502  501  0.10166273757E+02  0.17854499227E+02 -0.92696159092E+02  0.94945848647E+02  0.00000000000E+00 0. -1.
<scales pt_clust_5="13000.00000" pt_clust_6="13000.00000" pt_clust_7="13000.00000" pt_clust_8="13000.00000" pt_clust_9="20.54595"></scales>
<clustering>
<clus scale="   20.546">  1  9  2 -1</clus>
<clus scale="   82.031">  5  6 -1 -1</clus>
<clus scale="   91.737">  7  8 -1 -1</clus>
<clus scale="  120.216">  2  5  1 -1</clus>
<clus scale="   20.546">  1  5  2 -1</clus>
</clustering>
</event>
<event>
 9    1  0.1973774E-005  0.1363224E+03  0.7546771E-02  0.1220304E+00
          1   -1    0    0  502    0  0.00000000000E+00  0.00000000000E+00  0.74328072556E+03  0.74328072556E+03  0.00000000000E+00 0. -1.
         -2   -1    0    0    0  501 -0.00000000000E+00 -0.00000000000E+00 -0.56846201924E+02  0.56846201924E+02  0.00000000000E+00 0.  1.
        -24    2    1    2    0    0 -0.69418129633E+02 -0.83936191234E+02  0.57881588894E+02  0.14754714467E+03  0.80967404841E+02 0.  0.
         23    2    1    2    0    0  0.75094742185E+02  0.41205402965E+02  0.36317081106E+03  0.38371956678E+03  0.89501745164E+02 0.  0.
         11    1    3    3    0    0 -0.69484496583E+02 -0.37263273508E+02  0.62546684414E+02  0.10064161440E+03  0.00000000000E+00 0. -1.
        -12    1    3    3    0    0  0.66366950382E-01 -0.46672917726E+02 -0.46650955198E+01  0.46905530269E+02  0.00000000000E+00 0.  1.
        -11    1    4    4    0    0  0.55138848597E+02 -0.13903081660E+02  0.24868031549E+03  0.25509897612E+03  0.00000000000E+00 0.  1.
         11    1    4    4    0    0  0.19955893588E+02  0.55108484625E+02  0.11449049557E+03  0.12862059066E+03  0.00000000000E+00 0. -1.
         21    1    1    2  502  501 -0.56766125517E+01  0.42730788269E+02  0.26538212368E+03  0.26886021603E+03  0.00000000000E+00 0. -1.
<scales pt_clust_5="13000.00000" pt_clust_6="13000.00000" pt_clust_7="13000.00000" pt_clust_8="13000.00000" pt_clust_9="43.10620"></scales>
<clustering>
<clus scale="   43.106">  1  9  2 -1</clus>
<clus scale="   80.967">  5  6 -1 -1</clus>
<clus scale="   89.502">  7  8 -1 -1</clus>
<clus scale="  130.878">  2  5  1 -1</clus>
<clus scale="   43.106">  1  5  2 -1</clus>
</clustering>
</event>
<event>
 9    1  0.1973774E-005  0.1118028E+03  0.7546771E-02  0.1263169E+00
          1   -1    0    0  502    0  0.00000000000E+00  0.00000000000E+00  0.55344265241E+03  0.55344265241E+03  0.00000000000E+00 0. -1.
         -2   -1    0    0    0  501 -0.00000000000E+00 -0.00000000000E+00 -0.94027251850E+02  0.94027251850E+02  0.00000000000E+00 0.  1.
         23    2    1    2    0    0 -0.12825976464E+02 -0.55338902093E+02 -0.44381152126E+02  0.11918187077E+03  0.94909071746E+02 0.  0.
        -24    2    1    2    0    0 -0.12825172854E+02  0.83279781300E+02  0.31635625591E+03  0.33704855261E+03  0.80127642727E+02 0.  0.
         13    1    4    4    0    0 -0.42426897395E+02  0.22468337846E+02  0.14896214934E+03  0.15650747510E+03  0.00000000000E+00 0. -1.
        -14    1    4    4    0    0  0.29601724542E+02  0.60811443454E+02  0.16739410657E+03  0.18054107750E+03  0.00000000000E+00 0.  1.
        -11    1    3    3    0    0 -0.35108355278E+02  0.10161890805E+02 -0.32646459853E+02  0.49006652365E+02  0.00000000000E+00 0.  1.
         11    1    3    3    0    0  0.22282378814E+02 -0.65500792898E+02 -0.11734692273E+02  0.70175218408E+02  0.00000000000E+00 0. -1.
         21    1    1    2  502  501  0.25651149318E+02 -0.27940879207E+02  0.18744029677E+03  0.19123948088E+03  0.00000000000E+00 0.  1.
<scales pt_clust_5="13000.00000" pt_clust_6="13000.00000" pt_clust_7="13000.00000" pt_clust_8="13000.00000" pt_clust_9="37.92986"></scales>
<clustering>
<clus scale="   37.930">  1  9  2 -1</clus>
<clus scale="   80.128">  5  6 -1 -1</clus>
<clus scale="   94.909">  7  8 -1 -1</clus>
<clus scale="   99.562">  1  5  2 -1</clus>
<clus scale="   37.930">  1  5  2 -1</clus>
</clustering>
</event>
<event>
 9    1  0.1973774E-005  0.2116088E+03  0.7546771E-02  0.1177881E+00
         -2   -1    0    0    0  501 -0.00000000000E+00  0.00000000000E+00  0.13424581605E+03  0.13424581605E+03  0.00000000000E+00 0.  1.
          1   -1    0    0  502    0  0.00000000000E+00 -0.00000000000E+00 -0.52846565880E+03  0.52846565880E+03  0.00000000000E+00 0. -1.
         23    2    1    2    0    0  0.24523572951E+02 -0.91547366520E+01 -0.61973780090E+02  0.10769708763E+03  0.84099336686E+02 0.  0.
        -24    2    1    2    0    0  0.42456191910E+01 -0.18769200294E+03 -0.51415777134E+02  0.21086041794E+03  0.81069232555E+02 0.  0.
         11    1    4    4    0    0  0.45182752957E+01 -0.51080728652E+02 -0.53670082761E+02  0.74230273036E+02  0.00000000000E+00 0. -1.
        -12    1    4    4    0    0 -0.27265610473E+00 -0.13661127428E+03  0.22543056274E+01  0.13663014490E+03  0.00000000000E+00 0.  1.
        -11    1    3    3    0    0  0.46607614622E+02 -0.20620248006E+02 -0.12741534859E+02  0.52533904092E+02  0.00000000000E+00 0. -1.
         11    1    3    3    0    0 -0.22084041671E+02  0.11465511355E+02 -0.49232245231E+02  0.55163183534E+02  0.00000000000E+00 0.  1.
         21    1    1    2  502  501 -0.28769192141E+02  0.19684673959E+03 -0.28083028553E+03  0.34415396928E+03  0.00000000000E+00 0. -1.
<scales pt_clust_5="13000.00000" pt_clust_6="13000.00000" pt_clust_7="13000.00000" pt_clust_8="13000.00000" pt_clust_9="195.46370"></scales>
<clustering>
<clus scale="   81.069">  5  6 -1 -1</clus>
<clus scale="   84.099">  7  8 -1 -1</clus>
<clus scale="   88.079">  1  7  2 -1</clus>
<clus scale="  195.464">  2  9  1 -1</clus>
<clus scale="  195.464">  2  5  1 -1</clus>
</clustering>
</event>
<event>
 9    1  0.1973774E-005  0.1495034E+03  0.7546771E-02  0.1220142E+00
         -2   -1    0    0    0  501 -0.00000000000E+00  0.00000000000E+00  0.27899340474E+03  0.27899340474E+03  0.00000000000E+00 0.  1.
          1   -1    0    0  502    0  0.00000000000E+00 -0.00000000000E+00 -0.68101699634E+03  0.68101699634E+03  0.00000000000E+00 0. -1.
        -24    2    1    2    0    0 -0.23862229330E+02 -0.51307339187E+02  0.14832785107E+03  0.17864416614E+03  0.81919092107E+02 0.  0.
         23    2    1    2    0    0  0.58965447208E+02 -0.65779982802E+02  0.73676607741E+02  0.14547891429E+03  0.89061449976E+02 0.  0.
         11    1    3    3    0    0 -0.22544849299E+02 -0.74074057134E+01 -0.22834257516E+00  0.23731667233E+02  0.00000000000E+00 0. -1.
        -12    1    3    3    0    0 -0.13173800316E+01 -0.43899933474E+02  0.14855619364E+03  0.15491249891E+03  0.00000000000E+00 0.  1.
        -11    1    4    4    0    0  0.26390092842E+02 -0.80983140518E+02  0.33390304719E+02  0.91485619075E+02  0.00000000000E+00 0.  1.
         11    1    4    4    0    0  0.32575354366E+02  0.15203157716E+02  0.40286303022E+02  0.53993295211E+02  0.00000000000E+00 0. -1.
         21    1    1    2  502  501 -0.35103217877E+02  0.11708732199E+03 -0.62402805040E+03  0.63588732065E+03  0.00000000000E+00 0. -1.
<scales pt_clust_5="13000.00000" pt_clust_6="13000.00000" pt_clust_7="13000.00000" pt_clust_8="13000.00000" pt_clust_9="120.08050"></scales>
<clustering>
<clus scale="   81.919">  5  6 -1 -1</clus>
<clus scale="   89.061">  7  8 -1 -1</clus>
<clus scale="   99.562">  1  5  2 -1</clus>
<clus scale="  120.080">  2  9  1 -1</clus>
<clus scale="  120.080">  2  5  1 -1</clus>
</clustering>
</event>
<event>
 9    1  0.1973774E-005  0.9047206E+02  0.7546771E-02  0.1312280E+00
          1   -1    0    0  502    0  0.00000000000E+00  0.00000000000E+00  0.94670100227E+02  0.94670100227E+02  0.00000000000E+00 0. -1.
         -2   -1    0    0    0  501 -0.00000000000E+00 -0.00000000000E+00 -0.18386011243E+03  0.18386011243E+03  0.00000000000E+00 0.  1.
         23    2    1    2    0    0  0.62449634721E+01 -0.13876221057E+02 -0.10539949163E+03  0.13942612603E+03  0.89994681535E+02 0.  0.
        -24    2    1    2    0    0 -0.16806261317E+02 -0.32946682111E+02  0.31764414759E+02  0.88647359752E+02  0.74036761575E+02 0.  0.
         11    1    4    4    0    0 -0.43504064930E+02 -0.12733415748E+02  0.31429070055E+02  0.55159133301E+02  0.00000000000E+00 0. -1.
        -12    1    4    4    0    0  0.26697803612E+02 -0.20213266363E+02  0.33534470357E+00  0.33488226451E+02  0.00000000000E+00 0.  1.
        -11    1    3    3    0    0  0.93963431637E+01  0.37723197906E+02 -0.53890598467E+02  0.66449435875E+02  0.00000000000E+00 0.  1.
         11    1    3    3    0    0 -0.31513796916E+01 -0.51599418962E+02 -0.51508893167E+02  0.72976690159E+02  0.00000000000E+00 0. -1.
         21    1    1    2  502  501  0.10561297845E+02  0.46822903168E+02 -0.15554935324E+02  0.50456726867E+02  0.00000000000E+00 0.  1.
<scales pt_clust_5="13000.00000" pt_clust_6="13000.00000" pt_clust_7="13000.00000" pt_clust_8="13000.00000" pt_clust_9="47.99922"></scales>
<clustering>
<clus scale="   47.999">  1  9  2 -1</clus>
<clus scale="   74.037">  5  6 -1 -1</clus>
<clus scale="   74.616">  1  5  2 -1</clus>
<clus scale="   89.995">  7  8 -1 -1</clus>
<clus scale="   47.999">  1  5  2 -1</clus>
</clustering>
</event>
<event>
 9    1  0.1973774E-005  0.1361666E+03  0.7546771E-02  0.1224125E+00
         -2   -1    0    0    0  501 -0.00000000000E+00  0.00000000000E+00  0.22309221853E+03  0.22309221853E+03  0.00000000000E+00 0.  1.
          1   -1    0    0  502    0  0.00000000000E+00 -0.00000000000E+00 -0.13228116891E+03  0.13228116891E+03  0.00000000000E+00 0. -1.
        -24    2    1    2    0    0 -0.49699596200E+02 -0.95585230417E+02  0.14535486556E+03  0.19293893051E+03  0.67013489899E+02 0.  0.
         23    2    1    2    0    0  0.26763669549E+02  0.74223442595E+02 -0.35555709965E+02  0.12578843560E+03  0.91285861893E+02 0.  0.
         11    1    3    3    0    0 -0.87466989565E+01 -0.28431980819E+02  0.24876653752E+01  0.29850808279E+02  0.00000000000E+00 0. -1.
        -12    1    3    3    0    0 -0.40952897244E+02 -0.67153249598E+02  0.14286720019E+03  0.16308812223E+03  0.00000000000E+00 0.  1.
        -11    1    4    4    0    0  0.59555579667E+01  0.35349547358E+02  0.30026726889E+02  0.46761773884E+02  0.00000000000E+00 0.  1.
         11    1    4    4    0    0  0.20808111582E+02  0.38873895238E+02 -0.65582436854E+02  0.79026661718E+02  0.00000000000E+00 0. -1.
         21    1    1    2  502  501  0.22935926651E+02  0.21361787821E+02 -0.18988105975E+02  0.36646021323E+02  0.00000000000E+00 0.  1.
<scales pt_clust_5="13000.00000" pt_clust_6="13000.00000" pt_clust_7="13000.00000" pt_clust_8="13000.00000" pt_clust_9="31.34299"></scales>
<clustering>
<clus scale="   31.343">  2  9  1 -1</clus>
<clus scale="   67.013">  5  6 -1 -1</clus>
<clus scale="   91.286">  7  8 -1 -1</clus>
<clus scale="  121.240">  1  5  2 -1</clus>
<clus scale="   31.343">  2  5  1 -1</clus>
</clustering>
</event>
<event>
 9    1  0.1973774E-005  0.1948939E+03  0.7546771E-02  0.1155222E+00
         -2   -1    0    0    0  501 -0.00000000000E+00  0.00000000000E+00  0.17873918798E+03  0.17873918798E+03  0.00000000000E+00 0.  1.
          1   -1    0    0  502    0  0.00000000000E+00 -0.00000000000E+00 -0.55910343836E+03  0.55910343836E+03  0.00000000000E+00 0. -1.
         23    2    1    2    0    0 -0.34641552493E+02  0.17290300470E+03  0.70344637771E+01  0.19825413500E+03  0.90331235844E+02 0.  0.
        -24    2    1    2    0    0  0.11021837282E+03 -0.14080995030E+03 -0.63658340484E+02  0.20559799828E+03  0.79010257403E+02 0.  0.
         11    1    4    4    0    0  0.11599995364E+03 -0.14375750597E+03 -0.69004562576E+02  0.19718985629E+03  0.00000000000E+00 0. -1.
        -12    1    4    4    0    0 -0.57815808139E+01  0.29475556738E+01  0.53462220927E+01  0.84081419959E+01  0.00000000000E+00 0.  1.
        -11    1    3    3    0    0  0.17161894354E+02  0.77874516452E+02 -0.27965028303E+02  0.84504519042E+02  0.00000000000E+00 0.  1.
         11    1    3    3    0    0 -0.51803446847E+02  0.95028488248E+02  0.34999492080E+02  0.11374961595E+03  0.00000000000E+00 0. -1.
         21    1    1    2  502  501 -0.75576820328E+02 -0.32093054404E+02 -0.32374037367E+03  0.33399049306E+03  0.00000000000E+00 0. -1.
<scales pt_clust_5="13000.00000" pt_clust_6="13000.00000" pt_clust_7="13000.00000" pt_clust_8="13000.00000" pt_clust_9="82.10859"></scales>
<clustering>
<clus scale="   79.010">  5  6 -1 -1</clus>
<clus scale="   82.109">  2  9  1 -1</clus>
<clus scale="   90.331">  7  8 -1 -1</clus>
<clus scale="  189.912">  2  5  1 -1</clus>
<clus scale="   82.109">  2  5  1 -1</clus>
</clustering>
</event>
<event>
 9    1  0.1973774E-005  0.1319067E+03  0.7546771E-02  0.1244157E+00
         -4   -1    0    0    0  501 -0.00000000000E+00  0.00000000000E+00  0.10119354398E+04  0.10119354398E+04  0.00000000000E+00 0.  1.
          3   -1    0    0  502    0  0.00000000000E+00 -0.00000000000E+00 -0.92444494943E+02  0.92444494943E+02  0.00000000000E+00 0. -1.
        -24    2    1    2    0    0  0.36132541297E+02 -0.44486793066E+01  0.15952369612E+03  0.18239776432E+03  0.80596423719E+02 0.  0.
         23    2    1    2    0    0  0.75712527923E+02 -0.50685957342E+02 -0.20176311144E+02  0.13193589223E+03  0.93265979707E+02 0.  0.
         11    1    3    3    0    0 -0.25867341152E+02 -0.29151704281E+01  0.39659034867E+02  0.47438977682E+02  0.00000000000E+00 0. -1.
        -12    1    3    3    0    0  0.61999882449E+02 -0.15335088785E+01  0.11986466125E+03  0.13495878664E+03  0.00000000000E+00 0.  1.
        -11    1    4    4    0    0  0.27847551580E+02 -0.11992439134E+02  0.37062893187E+02  0.47884890903E+02  0.00000000000E+00 0.  1.
         11    1    4    4    0    0  0.47864976343E+02 -0.38693518207E+02 -0.57239204331E+02  0.84051001326E+02  0.00000000000E+00 0. -1.
         21    1    1    2  502  501 -0.11184506922E+03  0.55134636649E+02  0.78014355990E+03  0.79004627822E+03  0.00000000000E+00 0.  1.
<scales pt_clust_5="13000.00000" pt_clust_6="13000.00000" pt_clust_7="13000.00000" pt_clust_8="13000.00000" pt_clust_9="93.27820"></scales>
<clustering>
<clus scale="   80.596">  5  6 -1 -1</clus>
<clus scale="   88.437">  1  5  2 -1</clus>
<clus scale="   93.266">  7  8 -1 -1</clus>
<clus scale="   93.278">  1  9  2 -1</clus>
<clus scale="  131.907">  2  5  1 -1</clus>
</clustering>
</event>
<event>
 9    1  0.1973774E-005  0.8987609E+02  0.7546771E-02  0.1307910E+00
         -2   -1    0    0    0  501 -0.00000000000E+00  0.00000000000E+00  0.33304371373E+03  0.33304371373E+03  0.00000000000E+00 0.  1.
          1   -1    0    0  502    0  0.00000000000E+00 -0.00000000000E+00 -0.50689968808E+02  0.50689968808E+02  0.00000000000E+00 0. -1.
        -24    2    1    2    0    0 -0.50200776730E+02  0.15385518221E+02  0.20577748732E+03  0.22758477511E+03  0.81814567273E+02 0.  0.
         23    2    1    2    0    0  0.94858643963E+01 -0.19948254219E+02  0.84778925586E+02  0.11436605917E+03  0.73513364750E+02 0.  0.
         13    1    3    3    0    0 -0.10326149529E+02  0.29642034953E+02  0.20408665620E+02  0.37440529279E+02  0.00000000000E+00 0. -1.
        -14    1    3    3    0    0 -0.39874627201E+02 -0.14256516732E+02  0.18536882170E+03  0.19014424583E+03  0.00000000000E+00 0.  1.
        -13    1    4    4    0    0  0.13244728629E+02  0.21055342322E+02  0.63113446409E+02  0.67838465449E+02  0.00000000000E+00 0. -1.
         13    1    4    4    0    0 -0.37588642328E+01 -0.41003596541E+02  0.21665479176E+02  0.46527593721E+02  0.00000000000E+00 0.  1.
         21    1    1    2  502  501  0.40714912334E+02  0.45627359974E+01 -0.82026679888E+01  0.41782848255E+02  0.00000000000E+00 0. -1.
<scales pt_clust_5="13000.00000" pt_clust_6="13000.00000" pt_clust_7="13000.00000" pt_clust_8="13000.00000" pt_clust_9="40.96978"></scales>
<clustering>
<clus scale="   40.970">  2  9  1 -1</clus>
<clus scale="   73.513">  7  8 -1 -1</clus>
<clus scale="   81.815">  5  6 -1 -1</clus>
<clus scale="   82.391">  2  7  1 -1</clus>
<clus scale="   40.970">  2  5  1 -1</clus>
</clustering>
</event>
<event>
 9    1  0.1973774E-005  0.1086190E+03  0.7546771E-02  0.1266547E+00
         -2   -1    0    0    0  501 -0.00000000000E+00  0.00000000000E+00  0.29775789829E+02  0.29775789829E+02  0.00000000000E+00 0.  1.
          1   -1    0    0  502    0  0.00000000000E+00 -0.00000000000E+00 -0.58355734122E+03  0.58355734122E+03  0.00000000000E+00 0. -1.
        -24    2    1    2    0    0  0.65985697791E+02  0.93611551547E+01 -0.12514609726E+03  0.16475422999E+03  0.83908683102E+02 0.  0.
         23    2    1    2    0    0 -0.39000729965E+02 -0.83788607297E+00 -0.28232422497E+03  0.29955604918E+03  0.92223096923E+02 0.  0.
         11    1    3    3    0    0  0.80038395398E+02  0.11578790052E+02 -0.12683905127E+03  0.15042725167E+03  0.00000000000E+00 0. -1.
        -12    1    3    3    0    0 -0.14052697607E+02 -0.22176348973E+01  0.16929540066E+01  0.14326978322E+02  0.00000000000E+00 0.  1.
        -11    1    4    4    0    0 -0.35724000647E+02 -0.41169516086E+02 -0.20693727612E+03  0.21399572314E+03  0.00000000000E+00 0.  1.
         11    1    4    4    0    0 -0.32767293179E+01  0.40331630013E+02 -0.75386948856E+02  0.85560326042E+02  0.00000000000E+00 0. -1.
         21    1    1    2  502  501 -0.26984967826E+02 -0.85232690817E+01 -0.14631122915E+03  0.14902285187E+03  0.00000000000E+00 0. -1.
<scales pt_clust_5="13000.00000" pt_clust_6="13000.00000" pt_clust_7="13000.00000" pt_clust_8="13000.00000" pt_clust_9="28.29902"></scales>
<clustering>
<clus scale="   28.299">  2  9  1 -1</clus>
<clus scale="   83.909">  5  6 -1 -1</clus>
<clus scale="   92.223">  7  8 -1 -1</clus>
<clus scale="  101.655">  1  5  2 -1</clus>
<clus scale="   28.299">  2  5  1 -1</clus>
</clustering>
</event>
<event>
 9    1  0.1973774E-005  0.1981476E+03  0.7546771E-02  0.1152196E+00
          1   -1    0    0  502    0  0.00000000000E+00  0.00000000000E+00  0.87744979296E+03  0.87744979296E+03  0.00000000000E+00 0. -1.
         -2   -1    0    0    0  501 -0.00000000000E+00 -0.00000000000E+00 -0.59115075182E+02  0.59115075182E+02  0.00000000000E+00 0.  1.
         23    2    1    2    0    0 -0.93560244389E+02 -0.12496775723E+03  0.18774786981E+03  0.26050279312E+03  0.90785367380E+02 0.  0.
        -24    2    1    2    0    0  0.10189820086E+03  0.15491584093E+03  0.59642224591E+03  0.62987085000E+03  0.81459383466E+02 0.  0.
         13    1    4    4    0    0  0.72748239063E+02  0.14670284279E+03  0.55436906375E+03  0.57804765306E+03  0.00000000000E+00 0. -1.
        -14    1    4    4    0    0  0.29149961792E+02  0.82129981356E+01  0.42053182164E+02  0.51823196939E+02  0.00000000000E+00 0.  1.
        -13    1    3    3    0    0  0.26313772901E+01 -0.57133614701E+02  0.93975791344E+02  0.11001192405E+03  0.00000000000E+00 0. -1.
         13    1    3    3    0    0 -0.96191621679E+02 -0.67834142532E+02  0.93772078463E+02  0.15049086907E+03  0.00000000000E+00 0.  1.
         21    1    1    2  502  501 -0.83379564665E+01 -0.29948083693E+02  0.34164602064E+02  0.46191225023E+02  0.00000000000E+00 0. -1.
<scales pt_clust_5="13000.00000" pt_clust_6="13000.00000" pt_clust_7="13000.00000" pt_clust_8="13000.00000" pt_clust_9="31.08712"></scales>
<clustering>
<clus scale="   31.087">  2  9  1 -1</clus>
<clus scale="   81.459">  5  6 -1 -1</clus>
<clus scale="   90.785">  7  8 -1 -1</clus>
<clus scale="  194.052">  1  5  2 -1</clus>
<clus scale="  194.052">  1  5  2 -1</clus>
</clustering>
</event>
<event>
 9    1  0.1973774E-005  0.9149728E+02  0.7546771E-02  0.1300223E+00
         -2   -1    0    0    0  501 -0.00000000000E+00  0.00000000000E+00  0.26640810760E+03  0.26640810760E+03  0.00000000000E+00 0.  1.
          1   -1    0    0  502    0  0.00000000000E+00 -0.00000000000E+00 -0.48646694591E+02  0.48646694591E+02  0.00000000000E+00 0. -1.
        -24    2    1    2    0    0  0.11289412531E+02  0.61162593017E+01  0.15777792039E+03  0.18194995415E+03  0.89705374368E+02 0.  0.
         23    2    1    2    0    0  0.65246659022E+01  0.12947040211E+02  0.50474827542E+02  0.10533498145E+03  0.91310201982E+02 0.  0.
         13    1    3    3    0    0  0.46269382310E+02  0.10942954629E+02  0.52124695984E+02  0.70552022839E+02  0.00000000000E+00 0. -1.
        -14    1    3    3    0    0 -0.34979969779E+02 -0.48266953271E+01  0.10565322440E+03  0.11139793131E+03  0.00000000000E+00 0.  1.
        -11    1    4    4    0    0 -0.38421266468E+02  0.13851724756E+01  0.44074495946E+02  0.58486525052E+02  0.00000000000E+00 0.  1.
         11    1    4    4    0    0  0.44945932371E+02  0.11561867735E+02  0.64003315960E+01  0.46848456396E+02  0.00000000000E+00 0. -1.
         21    1    1    2  502  501 -0.17814078433E+02 -0.19063299512E+02  0.95086650753E+01  0.27769866587E+02  0.00000000000E+00 0.  1.
<scales pt_clust_5="13000.00000" pt_clust_6="13000.00000" pt_clust_7="13000.00000" pt_clust_8="13000.00000" pt_clust_9="26.09120"></scales>
<clustering>
<clus scale="   26.091">  2  9  1 -1</clus>
<clus scale="   89.705">  5  6 -1 -1</clus>
<clus scale="   89.896">  1  5  2 -1</clus>
<clus scale="   91.310">  7  8 -1 -1</clus>
<clus scale="   26.091">  2  5  1 -1</clus>
</clustering>
</event>
<event>
 9    1  0.1973774E-005  0.9928787E+02  0.7546771E-02  0.1285428E+00
          1   -1    0    0  502    0  0.00000000000E+00  0.00000000000E+00  0.41231417493E+03  0.41231417493E+03  0.00000000000E+00 0. -1.
         -2   -1    0    0    0  501 -0.00000000000E+00 -0.00000000000E+00 -0.31367027820E+02  0.31367027820E+02  0.00000000000E+00 0.  1.
         23    2    1    2    0    0  0.26981326939E+02  0.15176495246E+02  0.11569818027E+03  0.15004277257E+03  0.90379459338E+02 0.  0.
        -24    2    1    2    0    0 -0.48480480067E+02  0.37654352552E+00  0.23160364735E+03  0.25078848125E+03  0.83090999083E+02 0.  0.
         11    1    4    4    0    0 -0.39098650886E+01 -0.36374945441E+02  0.11464977201E+03  0.12034531118E+03  0.00000000000E+00 0. -1.
        -12    1    4    4    0    0 -0.44570614978E+02  0.36751488966E+02  0.11695387534E+03  0.13044317007E+03  0.00000000000E+00 0.  1.
        -13    1    3    3    0    0  0.22888760189E+02  0.49889386914E+02  0.44256201454E+02  0.70508564279E+02  0.00000000000E+00 0.  1.
         13    1    3    3    0    0  0.40925667503E+01 -0.34712891668E+02  0.71441978821E+02  0.79534208291E+02  0.00000000000E+00 0. -1.
         21    1    1    2  502  501  0.21499153128E+02 -0.15553038771E+02  0.33645319489E+02  0.42849948935E+02  0.00000000000E+00 0. -1.
<scales pt_clust_5="13000.00000" pt_clust_6="13000.00000" pt_clust_7="13000.00000" pt_clust_8="13000.00000" pt_clust_9="26.53508"></scales>
<clustering>
<clus scale="   26.535">  2  9  1 -1</clus>
<clus scale="   83.091">  5  6 -1 -1</clus>
<clus scale="   90.379">  7  8 -1 -1</clus>
<clus scale="   92.702">  1  5  2 -1</clus>
<clus scale="   92.702">  1  5  2 -1</clus>
</clustering>
</event>
<event>
 9    1  0.1973774E-005  0.9877984E+02  0.7546771E-02  0.1287359E+00
         -2   -1    0    0    0  501 -0.00000000000E+00  0.00000000000E+00  0.53920449190E+02  0.53920449190E+02  0.00000000000E+00 0.  1.
          1   -1    0    0  502    0  0.00000000000E+00 -0.00000000000E+00 -0.47425682160E+03  0.47425682160E+03  0.00000000000E+00 0. -1.
        -24    2    1    2    0    0 -0.42851579780E+02  0.21171125770E+02 -0.87050588470E+01  0.93653842162E+02  0.80067406890E+02 0.  0.
         23    2    1    2    0    0  0.21344489787E+02  0.17965961170E+02 -0.30394613183E+03  0.31794570838E+03  0.89038527709E+02 0.  0.
         11    1    3    3    0    0  0.20941902493E+02 -0.77108609624E+01 -0.77390773428E+01  0.23620202686E+02  0.00000000000E+00 0. -1.
        -12    1    3    3    0    0 -0.63793482272E+02  0.28881986732E+02 -0.96598150426E+00  0.70033639476E+02  0.00000000000E+00 0.  1.
        -11    1    4    4    0    0 -0.24771460543E+02  0.25274345694E+02 -0.60736161143E+02  0.70294374441E+02  0.00000000000E+00 0.  1.
         11    1    4    4    0    0  0.46115950329E+02 -0.73083845247E+01 -0.24320997069E+03  0.24765133394E+03  0.00000000000E+00 0. -1.
         21    1    1    2  502  501  0.21507089993E+02 -0.39137086939E+02 -0.10768518173E+03  0.11657772025E+03  0.00000000000E+00 0. -1.
<scales pt_clust_5="13000.00000" pt_clust_6="13000.00000" pt_clust_7="13000.00000" pt_clust_8="13000.00000" pt_clust_9="44.65721"></scales>
<clustering>
<clus scale="   44.657">  2  9  1 -1</clus>
<clus scale="   80.067">  5  6 -1 -1</clus>
<clus scale="   89.039">  7  8 -1 -1</clus>
<clus scale="   90.777">  1  5  2 -1</clus>
<clus scale="   44.657">  2  5  1 -1</clus>
</clustering>
</event>
<event>
 9    1  0.1973774E-005  0.1527406E+03  0.7546771E-02  0.1199201E+00
          1   -1    0    0  502    0  0.00000000000E+00  0.00000000000E+00  0.70240111804E+03  0.70240111804E+03  0.00000000000E+00 0. -1.
         -2   -1    0    0    0  501 -0.00000000000E+00 -0.00000000000E+00 -0.79990771250E+02  0.79990771250E+02  0.00000000000E+00 0.  1.
        -24    2    1    2    0    0 -0.11596131804E+02  0.12579286391E+03  0.15146038285E+02  0.15043517273E+03  0.80268448565E+02 0.  0.
         23    2    1    2    0    0 -0.15906264364E+02 -0.97545750443E+02  0.49003794716E+03  0.50827850098E+03  0.91878518850E+02 0.  0.
         11    1    3    3    0    0 -0.91437606303E+01  0.11644200513E+03  0.40244504674E+02  0.12353934221E+03  0.00000000000E+00 0. -1.
        -12    1    3    3    0    0 -0.24523711739E+01  0.93508587815E+01 -0.25098466389E+02  0.26895830521E+02  0.00000000000E+00 0.  1.
        -11    1    4    4    0    0 -0.42653366782E+02 -0.95156271931E+02  0.43075129740E+03  0.44319375672E+03  0.00000000000E+00 0. -1.
         11    1    4    4    0    0  0.26747102418E+02 -0.23894785112E+01  0.59286649758E+02  0.65084744255E+02  0.00000000000E+00 0.  1.
         21    1    1    2  502  501  0.27502396168E+02 -0.28247113470E+02  0.11722636135E+03  0.12367821558E+03  0.00000000000E+00 0. -1.
<scales pt_clust_5="13000.00000" pt_clust_6="13000.00000" pt_clust_7="13000.00000" pt_clust_8="13000.00000" pt_clust_9="39.42437"></scales>
<clustering>
<clus scale="   39.424">  1  9  2 -1</clus>
<clus scale="   80.268">  5  6 -1 -1</clus>
<clus scale="   91.879">  7  8 -1 -1</clus>
<clus scale="  146.052">  2  5  1 -1</clus>
<clus scale="   39.424">  1  5  2 -1</clus>
</clustering>
</event>
<event>
 9    1  0.1973774E-005  0.9038453E+02  0.7546771E-02  0.1308948E+00
          1   -1    0    0  502    0  0.00000000000E+00  0.00000000000E+00  0.48640082419E+03  0.48640082419E+03  0.00000000000E+00 0. -1.
         -2   -1    0    0    0  501 -0.00000000000E+00 -0.00000000000E+00 -0.60882376409E+02  0.60882376409E+02  0.00000000000E+00 0.  1.
         23    2    1    2    0    0 -0.69158849284E+01 -0.52616615754E+01 -0.12705591927E+02  0.91485225674E+02  0.90180928713E+02 0.  0.
        -24    2    1    2    0    0 -0.28088206265E+02  0.83817348317E+01  0.23905622528E+03  0.25355347052E+03  0.79260852619E+02 0.  0.
         11    1    4    4    0    0 -0.51570906411E+02 -0.11146509491E+02  0.17108193582E+03  0.17903304674E+03  0.00000000000E+00 0. -1.
        -12    1    4    4    0    0  0.23482700147E+02  0.19528244322E+02  0.67974289456E+02  0.74520423775E+02  0.00000000000E+00 0.  1.
        -11    1    3    3    0    0  0.64061306066E+01 -0.26790357516E+02 -0.43581442290E+02  0.51556802434E+02  0.00000000000E+00 0.  1.
         11    1    3    3    0    0 -0.13322015535E+02  0.21528695941E+02  0.30875850362E+02  0.39928423240E+02  0.00000000000E+00 0. -1.
         21    1    1    2  502  501  0.35004091193E+02 -0.31200732564E+01  0.19916781443E+03  0.20224450441E+03  0.00000000000E+00 0.  1.
<scales pt_clust_5="13000.00000" pt_clust_6="13000.00000" pt_clust_7="13000.00000" pt_clust_8="13000.00000" pt_clust_9="35.14287"></scales>
<clustering>
<clus scale="   35.143">  1  9  2 -1</clus>
<clus scale="   79.261">  5  6 -1 -1</clus>
<clus scale="   79.492">  1  5  2 -1</clus>
<clus scale="   90.181">  7  8 -1 -1</clus>
<clus scale="   35.143">  1  5  2 -1</clus>
</clustering>
</event>
<event>
 9    1  0.1973774E-005  0.1767898E+03  0.7546771E-02  0.1172342E+00
          1   -1    0    0  502    0  0.00000000000E+00  0.00000000000E+00  0.26244115010E+03  0.26244115010E+03  0.00000000000E+00 0. -1.
         -2   -1    0    0    0  501 -0.00000000000E+00 -0.00000000000E+00 -0.18454225318E+03  0.18454225318E+03  0.00000000000E+00 0.  1.
         23    2    1    2    0    0  0.12421892624E+03  0.82233958559E+02 -0.47904714487E+02  0.18089088818E+03  0.90740763618E+02 0.  0.
        -24    2    1    2    0    0 -0.14846354874E+03 -0.57027645910E+02  0.53281261245E+02  0.18557760224E+03  0.79413953140E+02 0.  0.
         13    1    4    4    0    0 -0.80071422826E+02 -0.17996231869E+02  0.66626247856E+02  0.10570881713E+03  0.00000000000E+00 0. -1.
        -14    1    4    4    0    0 -0.68392125911E+02 -0.39031414041E+02 -0.13344986611E+02  0.79868785118E+02  0.00000000000E+00 0.  1.
        -13    1    3    3    0    0  0.91158558884E+02  0.42525759130E+02  0.12543672641E+02  0.10136896355E+03  0.00000000000E+00 0.  1.
         13    1    3    3    0    0  0.33060367352E+02  0.39708199429E+02 -0.60448387128E+02  0.79521924635E+02  0.00000000000E+00 0. -1.
         21    1    1    2  502  501  0.24244622501E+02 -0.25206312649E+02  0.72522350169E+02  0.80514912852E+02  0.00000000000E+00 0. -1.
<scales pt_clust_5="13000.00000" pt_clust_6="13000.00000" pt_clust_7="13000.00000" pt_clust_8="13000.00000" pt_clust_9="34.97370"></scales>
<clustering>
<clus scale="   34.974">  1  9  2 -1</clus>
<clus scale="   79.414">  5  6 -1 -1</clus>
<clus scale="   90.741">  7  8 -1 -1</clus>
<clus scale="  171.252">  1  5  2 -1</clus>
<clus scale="   34.974">  1  5  2 -1</clus>
</clustering>
</event>
<event>
 9    1  0.1973774E-005  0.1713946E+03  0.7546771E-02  0.1202407E+00
         -2   -1    0    0    0  501 -0.00000000000E+00  0.00000000000E+00  0.47892359296E+02  0.47892359296E+02  0.00000000000E+00 0.  1.
          1   -1    0    0  502    0  0.00000000000E+00 -0.00000000000E+00 -0.16555687942E+04  0.16555687942E+04  0.00000000000E+00 0. -1.
        -24    2    1    2    0    0 -0.13795115535E+03 -0.71235560756E+02 -0.16364844315E+03  0.23897428792E+03  0.78885175815E+02 0.  0.
         23    2    1    2    0    0  0.29103350959E+02 -0.13882266930E+02 -0.40547060417E+03  0.41677777598E+03  0.90871234910E+02 0.  0.
         11    1    3    3    0    0 -0.47937089249E+02  0.14244357466E+02 -0.47895423836E+02  0.69244767815E+02  0.00000000000E+00 0. -1.
        -12    1    3    3    0    0 -0.90014066101E+02 -0.85479918222E+02 -0.11575301931E+03  0.16972952011E+03  0.00000000000E+00 0.  1.
        -13    1    4    4    0    0  0.51969857873E+02 -0.29603311097E+02 -0.34625595626E+03  0.35138356450E+03  0.00000000000E+00 0. -1.
         13    1    4    4    0    0 -0.22866506914E+02  0.15721044167E+02 -0.59214647904E+02  0.65394211476E+02  0.00000000000E+00 0.  1.
         21    1    1    2  502  501  0.10884780439E+03  0.85117827686E+02 -0.10385573876E+04  0.10477090896E+04  0.00000000000E+00 0. -1.
<scales pt_clust_5="13000.00000" pt_clust_6="13000.00000" pt_clust_7="13000.00000" pt_clust_8="13000.00000" pt_clust_9="152.16188"></scales>
<clustering>
<clus scale="   78.885">  5  6 -1 -1</clus>
<clus scale="   90.871">  7  8 -1 -1</clus>
<clus scale="   96.423">  2  7  1 -1</clus>
<clus scale="  152.162">  2  9  1 -1</clus>
<clus scale="   96.423">  2  5  1 -1</clus>
</clustering>
</event>
<event>
 9    1  0.1973774E-005  0.9459287E+02  0.7546771E-02  0.1292964E+00
         -2   -1    0    0    0  501 -0.00000000000E+00  0.00000000000E+00  0.32071820058E+03  0.32071820058E+03  0.00000000000E+00 0.  1.
          1   -1    0    0  502    0  0.00000000000E+00 -0.00000000000E+00 -0.18780262289E+03  0.18780262289E+03  0.00000000000E+00 0. -1.
         23    2    1    2    0    0 -0.13769812227E+02  0.34624673743E+02  0.23908893647E+03  0.25683792540E+03  0.86102988447E+02 0.  0.
        -24    2    1    2    0    0 -0.27984208879E+02 -0.36151557356E+02  0.34619376521E+02  0.10482131709E+03  0.87743696299E+02 0.  0.
         11    1    4    4    0    0  0.21022402515E+02 -0.41148436260E+02  0.30548585938E+02  0.55392700936E+02  0.00000000000E+00 0. -1.
        -12    1    4    4    0    0 -0.49006611394E+02  0.49968789036E+01  0.40707905832E+01  0.49428616156E+02  0.00000000000E+00 0.  1.
        -13    1    3    3    0    0  0.30964321751E+02  0.18959553397E+01  0.42717234184E+02  0.52793427285E+02  0.00000000000E+00 0. -1.
         13    1    3    3    0    0 -0.44734133979E+02  0.32728718404E+02  0.19637170229E+03  0.20404449811E+03  0.00000000000E+00 0.  1.
         21    1    1    2  502  501  0.41754021106E+02  0.15268836129E+01 -0.14079273530E+03  0.14686158097E+03  0.00000000000E+00 0. -1.
<scales pt_clust_5="13000.00000" pt_clust_6="13000.00000" pt_clust_7="13000.00000" pt_clust_8="13000.00000" pt_clust_9="41.78193"></scales>
<clustering>
<clus scale="   41.782">  2  9  1 -1</clus>
<clus scale="   86.103">  7  8 -1 -1</clus>
<clus scale="   87.744">  5  6 -1 -1</clus>
<clus scale="   93.073">  1  7  2 -1</clus>
<clus scale="   41.782">  2  5  1 -1</clus>
</clustering>
</event>
<event>
 9    1  0.1973774E-005  0.1003801E+03  0.7546771E-02  0.1284111E+00
          1   -1    0    0  502    0  0.00000000000E+00  0.00000000000E+00  0.62307381980E+02  0.62307381980E+02  0.00000000000E+00 0. -1.
         -2   -1    0    0    0  501 -0.00000000000E+00 -0.00000000000E+00 -0.46836739264E+03  0.46836739264E+03  0.00000000000E+00 0.  1.
        -24    2    1    2    0    0 -0.39728781259E+02 -0.64119691717E+02 -0.65443677509E+02  0.12794554065E+03  0.79984220444E+02 0.  0.
         23    2    1    2    0    0 -0.21306326103E+02  0.27418921478E+02 -0.60034624868E+02  0.11324982902E+03  0.89529943612E+02 0.  0.
         11    1    3    3    0    0 -0.60088895851E+02 -0.36802781718E+02 -0.24320394064E+02  0.74542616765E+02  0.00000000000E+00 0. -1.
        -12    1    3    3    0    0  0.20360114592E+02 -0.27316909999E+02 -0.41123283446E+02  0.53402923885E+02  0.00000000000E+00 0.  1.
        -13    1    4    4    0    0 -0.15995486035E+02 -0.32303011956E+02 -0.21319094658E+02  0.41878920138E+02  0.00000000000E+00 0. -1.
         13    1    4    4    0    0 -0.53108400679E+01  0.59721933434E+02 -0.38715530210E+02  0.71370908882E+02  0.00000000000E+00 0.  1.
         21    1    1    2  502  501  0.61035107362E+02  0.36700770240E+02 -0.28058170829E+03  0.28947940495E+03  0.00000000000E+00 0.  1.
<scales pt_clust_5="13000.00000" pt_clust_6="13000.00000" pt_clust_7="13000.00000" pt_clust_8="13000.00000" pt_clust_9="71.21960"></scales>
<clustering>
<clus scale="   71.220">  2  9  1 -1</clus>
<clus scale="   79.984">  5  6 -1 -1</clus>
<clus scale="   89.530">  7  8 -1 -1</clus>
<clus scale="   91.968">  2  5  1 -1</clus>
<clus scale="  100.380">  1  5  2 -1</clus>
</clustering>
</event>
<event>
 9    1  0.1973774E-005  0.1455321E+03  0.7546771E-02  0.1208447E+00
          1   -1    0    0  502    0  0.00000000000E+00  0.00000000000E+00  0.94954861532E+03  0.94954861532E+03  0.00000000000E+00 0. -1.
         -2   -1    0    0    0  501 -0.00000000000E+00 -0.00000000000E+00 -0.27606334211E+02  0.27606334211E+02  0.00000000000E+00 0.  1.
         23    2    1    2    0    0  0.51395075737E+02 -0.11085878958E+03  0.31452198944E+03  0.34992985472E+03  0.92712978305E+02 0.  0.
        -24    2    1    2    0    0 -0.52252892551E+02  0.83457788763E+02  0.46258352595E+03  0.47981668461E+03  0.80900958327E+02 0.  0.
         11    1    4    4    0    0 -0.51783847702E+02  0.98842639669E+02  0.41860990301E+03  0.43322705963E+03  0.00000000000E+00 0. -1.
        -12    1    4    4    0    0 -0.46904484929E+00 -0.15384850906E+02  0.43973622947E+02  0.46589624978E+02  0.00000000000E+00 0.  1.
        -11    1    3    3    0    0  0.30306512327E+01 -0.50713890832E+02  0.39699158093E+02  0.64475628911E+02  0.00000000000E+00 0.  1.
         11    1    3    3    0    0  0.48364424505E+02 -0.60144898752E+02  0.27482283134E+03  0.28545422581E+03  0.00000000000E+00 0. -1.
         21    1    1    2  502  501  0.85781681382E+00  0.27401000821E+02  0.14483676572E+03  0.14740841020E+03  0.00000000000E+00 0. -1.
<scales pt_clust_5="13000.00000" pt_clust_6="13000.00000" pt_clust_7="13000.00000" pt_clust_8="13000.00000" pt_clust_9="27.41442"></scales>
<clustering>
<clus scale="   27.414">  1  9  2 -1</clus>
<clus scale="   80.901">  5  6 -1 -1</clus>
<clus scale="   92.713">  7  8 -1 -1</clus>
<clus scale="  138.307">  1  5  2 -1</clus>
<clus scale="   27.414">  1  5  2 -1</clus>
</clustering>
</event>
<event>
 9    1  0.1973774E-005  0.1192315E+03  0.7546771E-02  0.1249181E+00
          1   -1    0    0  502    0  0.00000000000E+00  0.00000000000E+00  0.21343079205E+03  0.21343079205E+03  0.00000000000E+00 0. -1.
         -2   -1    0    0    0  501 -0.00000000000E+00 -0.00000000000E+00 -0.20572669554E+03  0.20572669554E+03  0.00000000000E+00 0.  1.
         23    2    1    2    0    0 -0.66740468301E+02 -0.30177413435E+02 -0.16600178720E+03  0.20518162709E+03  0.95801567573E+02 0.  0.
        -24    2    1    2    0    0  0.53550858863E+02  0.78583105454E+01  0.14758193325E+03  0.17717139151E+03  0.81730211169E+02 0.  0.
         13    1    4    4    0    0  0.69993767064E+02 -0.87523364299E+01  0.13007027859E+03  0.14796624004E+03  0.00000000000E+00 0. -1.
        -14    1    4    4    0    0 -0.16442908201E+02  0.16610646975E+02  0.17511654662E+02  0.29205151464E+02  0.00000000000E+00 0.  1.
        -11    1    3    3    0    0 -0.87272213311E+02 -0.36082459139E+02 -0.15407514980E+03  0.18071395867E+03  0.00000000000E+00 0.  1.
         11    1    3    3    0    0  0.20531745011E+02  0.59050457036E+01 -0.11926637406E+02  0.24467668417E+02  0.00000000000E+00 0. -1.
         21    1    1    2  502  501  0.13189609438E+02  0.22319102890E+02  0.26123950461E+02  0.36804469004E+02  0.00000000000E+00 0.  1.
<scales pt_clust_5="13000.00000" pt_clust_6="13000.00000" pt_clust_7="13000.00000" pt_clust_8="13000.00000" pt_clust_9="25.92505"></scales>
<clustering>
<clus scale="   25.925">  1  9  2 -1</clus>
<clus scale="   81.730">  5  6 -1 -1</clus>
<clus scale="   95.802">  7  8 -1 -1</clus>
<clus scale="  108.250">  1  5  2 -1</clus>
<clus scale="   25.925">  1  5  2 -1</clus>
</clustering>
</event>
<event>
 9    1  0.1973774E-005  0.1582071E+03  0.7546771E-02  0.1193536E+00
          1   -1    0    0  502    0  0.00000000000E+00  0.00000000000E+00  0.15401580931E+03  0.15401580931E+03  0.00000000000E+00 0. -1.
         -2   -1    0    0    0  501 -0.00000000000E+00 -0.00000000000E+00 -0.45855591298E+03  0.45855591298E+03  0.00000000000E+00 0.  1.
        -24    2    1    2    0    0 -0.24017081558E+02 -0.14498328519E+03 -0.29432706188E+03  0.33870592583E+03  0.80599700050E+02 0.  0.
         23    2    1    2    0    0 -0.67210622794E+01  0.92938676395E+02 -0.98630352173E+02  0.16676259592E+03  0.96948681164E+02 0.  0.
         11    1    3    3    0    0 -0.50638826199E+02 -0.10116137235E+03 -0.16978363025E+03  0.20402057512E+03  0.00000000000E+00 0. -1.
        -12    1    3    3    0    0  0.26621744641E+02 -0.43821912849E+02 -0.12454343163E+03  0.13468535071E+03  0.00000000000E+00 0.  1.
        -11    1    4    4    0    0  0.19607156480E+02 -0.71243160109E+01 -0.46366293926E+02  0.50843187117E+02  0.00000000000E+00 0.  1.
         11    1    4    4    0    0 -0.26328218759E+02  0.10006299241E+03 -0.52264058248E+02  0.11591940880E+03  0.00000000000E+00 0. -1.
         21    1    1    2  502  501  0.30738143837E+02  0.52044608799E+02  0.88417310381E+02  0.10710320054E+03  0.00000000000E+00 0. -1.
<scales pt_clust_5="13000.00000" pt_clust_6="13000.00000" pt_clust_7="13000.00000" pt_clust_8="13000.00000" pt_clust_9="60.44398"></scales>
<clustering>
<clus scale="   60.444">  1  9  2 -1</clus>
<clus scale="   80.600">  5  6 -1 -1</clus>
<clus scale="   96.949">  7  8 -1 -1</clus>
<clus scale="  148.751">  2  5  1 -1</clus>
<clus scale="   60.444">  1  5  2 -1</clus>
</clustering>
</event>
<event>
 9    1  0.1973774E-005  0.2438024E+03  0.7546771E-02  0.1117885E+00
         -2   -1    0    0    0  501 -0.00000000000E+00  0.00000000000E+00  0.14357112972E+03  0.14357112972E+03  0.00000000000E+00 0.  1.
          1   -1    0    0  502    0  0.00000000000E+00 -0.00000000000E+00 -0.59867704900E+03  0.59867704900E+03  0.00000000000E+00 0. -1.
         23    2    1    2    0    0 -0.53007235094E+02 -0.19748423184E+03 -0.20877864387E+02  0.22449985482E+03  0.90302329956E+02 0.  0.
        -24    2    1    2    0    0  0.58755466853E+02  0.22632442367E+03 -0.41370079584E+03  0.48188515063E+03  0.79937477340E+02 0.  0.
         11    1    4    4    0    0  0.32470499148E+02  0.18784361103E+03 -0.37740520540E+03  0.42281703441E+03  0.00000000000E+00 0. -1.
        -12    1    4    4    0    0  0.26284967705E+02  0.38480812642E+02 -0.36295590434E+02  0.59068116220E+02  0.00000000000E+00 0.  1.
        -13    1    3    3    0    0  0.11544356026E+01 -0.15275585006E+03 -0.71480656483E+01  0.15292735953E+03  0.00000000000E+00 0.  1.
         13    1    3    3    0    0 -0.54161670696E+02 -0.44728381780E+02 -0.13729798739E+02  0.71572495294E+02  0.00000000000E+00 0. -1.
         21    1    1    2  502  501 -0.57482317599E+01 -0.28840191830E+02 -0.20527259058E+02  0.35863173278E+02  0.00000000000E+00 0. -1.
<scales pt_clust_5="13000.00000" pt_clust_6="13000.00000" pt_clust_7="13000.00000" pt_clust_8="13000.00000" pt_clust_9="29.40746"></scales>
<clustering>
<clus scale="   29.407">  1  9  2 -1</clus>
<clus scale="   79.937">  5  6 -1 -1</clus>
<clus scale="   90.302">  7  8 -1 -1</clus>
<clus scale="  240.156">  2  5  1 -1</clus>
<clus scale="  240.156">  2  5  1 -1</clus>
</clustering>
</event>
<event>
 9    1  0.1973774E-005  0.1482301E+03  0.7546771E-02  0.1204522E+00
          1   -1    0    0  502    0  0.00000000000E+00  0.00000000000E+00  0.22488772033E+03  0.22488772033E+03  0.00000000000E+00 0. -1.
         -2   -1    0    0    0  501 -0.00000000000E+00 -0.00000000000E+00 -0.16755326088E+03  0.16755326088E+03  0.00000000000E+00 0.  1.
         23    2    1    2    0    0  0.11025761183E+03 -0.17231445521E+02 -0.77339010075E+02  0.16346319196E+03  0.91023233108E+02 0.  0.
        -24    2    1    2    0    0 -0.13584758968E+03  0.18136941638E+02  0.12025366994E+03  0.19959075964E+03  0.81191193653E+02 0.  0.
         11    1    4    4    0    0 -0.51366753792E+02 -0.76127938249E+01  0.94107960223E+02  0.10748398114E+03  0.00000000000E+00 0. -1.
        -12    1    4    4    0    0 -0.84480835888E+02  0.25749735463E+02  0.26145709713E+02  0.92106778497E+02  0.00000000000E+00 0.  1.
        -11    1    3    3    0    0  0.47774728101E+02  0.29039046666E+02 -0.31499914592E+01  0.55996547416E+02  0.00000000000E+00 0. -1.
         11    1    3    3    0    0  0.62482883730E+02 -0.46270492188E+02 -0.74189018616E+02  0.10746664454E+03  0.00000000000E+00 0.  1.
         21    1    1    2  502  501  0.25589977849E+02 -0.90549611707E+00  0.14419799587E+02  0.29387029616E+02  0.00000000000E+00 0. -1.
<scales pt_clust_5="13000.00000" pt_clust_6="13000.00000" pt_clust_7="13000.00000" pt_clust_8="13000.00000" pt_clust_9="25.60599"></scales>
<clustering>
<clus scale="   25.606">  1  9  2 -1</clus>
<clus scale="   81.191">  5  6 -1 -1</clus>
<clus scale="   91.023">  7  8 -1 -1</clus>
<clus scale="  142.404">  1  5  2 -1</clus>
<clus scale="   25.606">  1  5  2 -1</clus>
</clustering>
</event>
<event>
 9    1  0.1973774E-005  0.1024557E+03  0.7546771E-02  0.1281601E+00
          1   -1    0    0  502    0  0.00000000000E+00  0.00000000000E+00  0.90101450312E+02  0.90101450312E+02  0.00000000000E+00 0. -1.
         -2   -1    0    0    0  501 -0.00000000000E+00 -0.00000000000E+00 -0.44307031370E+03  0.44307031370E+03  0.00000000000E+00 0.  1.
         23    2    1    2    0    0  0.13502809035E+02 -0.47270295736E+02 -0.34206153763E+03  0.35789119312E+03  0.93076333612E+02 0.  0.
        -24    2    1    2    0    0 -0.22938091963E+02 -0.17706608346E+02  0.38258166021E+02  0.93254549346E+02  0.79956511082E+02 0.  0.
         13    1    4    4    0    0 -0.40898448430E+02 -0.30261079224E+02  0.20328628951E+01  0.50917075047E+02  0.00000000000E+00 0. -1.
        -14    1    4    4    0    0  0.17960356467E+02  0.12554470878E+02  0.36225303126E+02  0.42337474299E+02  0.00000000000E+00 0.  1.
        -13    1    3    3    0    0 -0.57398956932E+01 -0.69646876571E+02 -0.17857113191E+03  0.19175839739E+03  0.00000000000E+00 0.  1.
         13    1    3    3    0    0  0.19242704728E+02  0.22376580835E+02 -0.16349040572E+03  0.16613279573E+03  0.00000000000E+00 0. -1.
         21    1    1    2  502  501  0.94352829279E+01  0.64976904082E+02 -0.49165491776E+02  0.82026021540E+02  0.00000000000E+00 0. -1.
<scales pt_clust_5="13000.00000" pt_clust_6="13000.00000" pt_clust_7="13000.00000" pt_clust_8="13000.00000" pt_clust_9="65.65838"></scales>
<clustering>
<clus scale="   65.658">  1  9  2 -1</clus>
<clus scale="   79.957">  5  6 -1 -1</clus>
<clus scale="   90.703">  1  5  2 -1</clus>
<clus scale="   93.076">  7  8 -1 -1</clus>
<clus scale="   65.658">  1  5  2 -1</clus>
</clustering>
</event>
<event>
 9    1  0.1973774E-005  0.9608198E+02  0.7546771E-02  0.1293295E+00
         -2   -1    0    0    0  501 -0.00000000000E+00  0.00000000000E+00  0.56926730663E+02  0.56926730663E+02  0.00000000000E+00 0.  1.
          1   -1    0    0  502    0  0.00000000000E+00 -0.00000000000E+00 -0.51260866925E+03  0.51260866925E+03  0.00000000000E+00 0. -1.
        -24    2    1    2    0    0 -0.57755042865E+02 -0.48198131130E+01 -0.43822394183E+02  0.11035500959E+03  0.83059920144E+02 0.  0.
         23    2    1    2    0    0 -0.83109110212E+01  0.39383718996E+01 -0.82994073288E+02  0.12374338388E+03  0.91322652380E+02 0.  0.
         11    1    3    3    0    0 -0.38200379304E+02 -0.22851789612E+02 -0.63301499502E+02  0.77385742269E+02  0.00000000000E+00 0. -1.
        -12    1    3    3    0    0 -0.19554663561E+02  0.18031976499E+02  0.19479105319E+02  0.32969267318E+02  0.00000000000E+00 0.  1.
        -13    1    4    4    0    0  0.34216540947E+02  0.24280276325E+02 -0.54057081018E+02  0.68428586870E+02  0.00000000000E+00 0. -1.
         13    1    4    4    0    0 -0.42527451968E+02 -0.20341904426E+02 -0.28936992270E+02  0.55314797010E+02  0.00000000000E+00 0.  1.
         21    1    1    2  502  501  0.66065953886E+02  0.88144121344E+00 -0.32886547112E+03  0.33543700645E+03  0.00000000000E+00 0. -1.
<scales pt_clust_5="13000.00000" pt_clust_6="13000.00000" pt_clust_7="13000.00000" pt_clust_8="13000.00000" pt_clust_9="66.07183"></scales>
<clustering>
<clus scale="   66.072">  2  9  1 -1</clus>
<clus scale="   83.060">  5  6 -1 -1</clus>
<clus scale="   88.266">  1  5  2 -1</clus>
<clus scale="   91.323">  7  8 -1 -1</clus>
<clus scale="   66.072">  2  5  1 -1</clus>
</clustering>
</event>
<event>
 9    1  0.1973774E-005  0.9869941E+02  0.7546771E-02  0.1283379E+00
          3   -1    0    0  502    0  0.00000000000E+00  0.00000000000E+00  0.59106252430E+02  0.59106252430E+02  0.00000000000E+00 0. -1.
         -4   -1    0    0    0  501 -0.00000000000E+00 -0.00000000000E+00 -0.52801058325E+03  0.52801058325E+03  0.00000000000E+00 0.  1.
        -24    2    1    2    0    0 -0.42703363696E+02 -0.17701012675E+02 -0.28227788127E+03  0.29711538935E+03  0.80373187128E+02 0.  0.
         23    2    1    2    0    0  0.71230743011E+02  0.19918011394E+02 -0.22010672787E+03  0.24595992625E+03  0.81109603254E+02 0.  0.
         13    1    3    3    0    0  0.83354634080E+01 -0.35022621331E+02 -0.79049400283E+02  0.86861220578E+02  0.00000000000E+00 0. -1.
        -14    1    3    3    0    0 -0.51038827104E+02  0.17321608657E+02 -0.20322848099E+03  0.21025416877E+03  0.00000000000E+00 0.  1.
        -11    1    4    4    0    0  0.44192226530E+02  0.16480705595E+02 -0.21248712612E+03  0.21765878183E+03  0.00000000000E+00 0.  1.
         11    1    4    4    0    0  0.27038516481E+02  0.34373057986E+01 -0.76196017544E+01  0.28301144421E+02  0.00000000000E+00 0. -1.
         21    1    1    2  502  501 -0.28527379315E+02 -0.22169987192E+01  0.33480278328E+02  0.44041520079E+02  0.00000000000E+00 0. -1.
<scales pt_clust_5="13000.00000" pt_clust_6="13000.00000" pt_clust_7="13000.00000" pt_clust_8="13000.00000" pt_clust_9="28.61340"></scales>
<clustering>
<clus scale="   28.613">  1  9  2 -1</clus>
<clus scale="   80.373">  5  6 -1 -1</clus>
<clus scale="   81.110">  7  8 -1 -1</clus>
<clus scale="   98.095">  2  5  1 -1</clus>
<clus scale="   28.613">  1  5  2 -1</clus>
</clustering>
</event>
<event>
 9    1  0.1973774E-005  0.1400138E+03  0.7546771E-02  0.1215968E+00
         -2   -1    0    0    0  501 -0.00000000000E+00  0.00000000000E+00  0.91021384132E+02  0.91021384132E+02  0.00000000000E+00 0.  1.
          1   -1    0    0  502    0  0.00000000000E+00 -0.00000000000E+00 -0.11402632149E+04  0.11402632149E+04  0.00000000000E+00 0. -1.
         23    2    1    2    0    0 -0.21116957803E+02 -0.10311390520E+03  0.22489250712E+02  0.14145214532E+03  0.91785291112E+02 0.  0.
        -24    2    1    2    0    0  0.64448718496E+02  0.10199295707E+03 -0.94265708153E+03  0.95367447389E+03  0.79601684473E+02 0.  0.
         11    1    4    4    0    0  0.14425327306E+02  0.82457280100E+02 -0.41965198927E+03  0.42791948449E+03  0.00000000000E+00 0. -1.
        -12    1    4    4    0    0  0.50023391190E+02  0.19535676974E+02 -0.52300509227E+03  0.52575498940E+03  0.00000000000E+00 0.  1.
        -13    1    3    3    0    0 -0.33781743335E+02 -0.49233019173E+02  0.51598924566E+02  0.78914798207E+02  0.00000000000E+00 0.  1.
         13    1    3    3    0    0  0.12664785532E+02 -0.53880886025E+02 -0.29109673854E+02  0.62537347108E+02  0.00000000000E+00 0. -1.
         21    1    1    2  502  501 -0.43331760693E+02  0.11209481250E+01 -0.12907399997E+03  0.13615797985E+03  0.00000000000E+00 0. -1.
<scales pt_clust_5="13000.00000" pt_clust_6="13000.00000" pt_clust_7="13000.00000" pt_clust_8="13000.00000" pt_clust_9="43.34626"></scales>
<clustering>
<clus scale="   43.346">  2  9  1 -1</clus>
<clus scale="   79.602">  5  6 -1 -1</clus>
<clus scale="   91.785">  7  8 -1 -1</clus>
<clus scale="  132.347">  2  5  1 -1</clus>
<clus scale="   43.346">  2  5  1 -1</clus>
</clustering>
</event>
<event>
 9    1  0.1973774E-005  0.1098171E+03  0.7546771E-02  0.1265113E+00
          1   -1    0    0  502    0  0.00000000000E+00  0.00000000000E+00  0.35528882631E+03  0.35528882631E+03  0.00000000000E+00 0. -1.
         -2   -1    0    0    0  501 -0.00000000000E+00 -0.00000000000E+00 -0.42031085337E+02  0.42031085337E+02  0.00000000000E+00 0.  1.
        -24    2    1    2    0    0 -0.84488376815E+00  0.69814521161E+02  0.87208340627E+02  0.13793419927E+03  0.80905917336E+02 0.  0.
         23    2    1    2    0    0 -0.19511632052E+01 -0.45647365275E+02  0.17203390492E+03  0.20014431597E+03  0.91512806634E+02 0.  0.
         13    1    3    3    0    0  0.25272764253E+02  0.95779187395E+01  0.61948796831E+02  0.67587739784E+02  0.00000000000E+00 0. -1.
        -14    1    3    3    0    0 -0.26117648021E+02  0.60236602422E+02  0.25259543796E+02  0.70346459486E+02  0.00000000000E+00 0.  1.
        -11    1    4    4    0    0 -0.36347205082E+02 -0.12498852056E+02  0.25765606236E+02  0.46273178891E+02  0.00000000000E+00 0.  1.
         11    1    4    4    0    0  0.34396041877E+02 -0.33148513219E+02  0.14626829869E+03  0.15387113708E+03  0.00000000000E+00 0. -1.
         21    1    1    2  502  501  0.27960469733E+01 -0.24167155886E+02  0.54015495424E+02  0.59241396406E+02  0.00000000000E+00 0. -1.
<scales pt_clust_5="13000.00000" pt_clust_6="13000.00000" pt_clust_7="13000.00000" pt_clust_8="13000.00000" pt_clust_9="24.32836"></scales>
<clustering>
<clus scale="   24.328">  1  9  2 -1</clus>
<clus scale="   80.906">  5  6 -1 -1</clus>
<clus scale="   91.513">  7  8 -1 -1</clus>
<clus scale="  101.148">  2  5  1 -1</clus>
<clus scale="   24.328">  1  5  2 -1</clus>
</clustering>
</event>
<event>
 9    1  0.1973774E-005  0.9931793E+02  0.7546771E-02  0.1286675E+00
          1   -1    0    0  502    0  0.00000000000E+00  0.00000000000E+00  0.41294912550E+03  0.41294912550E+03  0.00000000000E+00 0. -1.
         -2   -1    0    0    0  501 -0.00000000000E+00 -0.00000000000E+00 -0.21333181852E+03  0.21333181852E+03  0.00000000000E+00 0.  1.
        -24    2    1    2    0    0  0.19822294846E+01 -0.36203395197E+02 -0.17118632027E+03  0.19323040136E+03  0.81967168466E+02 0.  0.
         23    2    1    2    0    0  0.15071983265E+02  0.10094557385E+03  0.32260188868E+03  0.35055324894E+03  0.91642938642E+02 0.  0.
         11    1    3    3    0    0 -0.31659246966E+02 -0.40074690638E+02 -0.70885203485E+02  0.87367046541E+02  0.00000000000E+00 0. -1.
        -12    1    3    3    0    0  0.33641476451E+02  0.38712954409E+01 -0.10030111678E+03  0.10586335482E+03  0.00000000000E+00 0.  1.
        -13    1    4    4    0    0  0.13444059825E+02  0.15473234555E+02  0.42642254891E+01  0.20936746433E+02  0.00000000000E+00 0.  1.
         13    1    4    4    0    0  0.16279234402E+01  0.85472339293E+02  0.31833766319E+03  0.32961650250E+03  0.00000000000E+00 0. -1.
         21    1    1    2  502  501 -0.17054212750E+02 -0.64742178650E+02  0.48201738572E+02  0.82497293715E+02  0.00000000000E+00 0. -1.
<scales pt_clust_5="13000.00000" pt_clust_6="13000.00000" pt_clust_7="13000.00000" pt_clust_8="13000.00000" pt_clust_9="66.95070"></scales>
<clustering>
<clus scale="   66.951">  1  9  2 -1</clus>
<clus scale="   81.967">  5  6 -1 -1</clus>
<clus scale="   90.467">  2  5  1 -1</clus>
<clus scale="   91.643">  7  8 -1 -1</clus>
<clus scale="   66.951">  1  5  2 -1</clus>
</clustering>
</event>
<event>
 9    1  0.1973774E-005  0.9673057E+02  0.7546771E-02  0.1290926E+00
         -2   -1    0    0    0  501 -0.00000000000E+00  0.00000000000E+00  0.20825095493E+03  0.20825095493E+03  0.00000000000E+00 0.  1.
          1   -1    0    0  502    0  0.00000000000E+00 -0.00000000000E+00 -0.17457624216E+03  0.17457624216E+03  0.00000000000E+00 0. -1.
         23    2    1    2    0    0 -0.29378590484E+01  0.24560626659E+02  0.11526493076E+03  0.14744211817E+03  0.88551219911E+02 0.  0.
        -24    2    1    2    0    0  0.11404485087E+02 -0.10152731279E+03 -0.12047278840E+02  0.13130926561E+03  0.81603485135E+02 0.  0.
         11    1    4    4    0    0 -0.29820782057E+02 -0.77492329836E+02 -0.72058861698E+01  0.83344256079E+02  0.00000000000E+00 0. -1.
        -12    1    4    4    0    0  0.41225267143E+02 -0.24034982950E+02 -0.48413926698E+01  0.47965009532E+02  0.00000000000E+00 0.  1.
        -13    1    3    3    0    0 -0.15482050185E+02 -0.26575210653E+02  0.75304752955E+02  0.81343355702E+02  0.00000000000E+00 0. -1.
         13    1    3    3    0    0  0.12544191137E+02  0.51135837312E+02  0.39960177809E+02  0.66098762465E+02  0.00000000000E+00 0.  1.
         21    1    1    2  502  501 -0.84666260382E+01  0.76966686127E+02 -0.69542939158E+02  0.10407581331E+03  0.00000000000E+00 0.  1.
<scales pt_clust_5="13000.00000" pt_clust_6="13000.00000" pt_clust_7="13000.00000" pt_clust_8="13000.00000" pt_clust_9="77.43097"></scales>
<clustering>
<clus scale="   77.431">  2  9  1 -1</clus>
<clus scale="   81.603">  5  6 -1 -1</clus>
<clus scale="   88.551">  7  8 -1 -1</clus>
<clus scale="   90.414">  2  5  1 -1</clus>
<clus scale="   77.431">  2  5  1 -1</clus>
</clustering>
</event>
<event>
 9    1  0.1973774E-005  0.1459906E+03  0.7546771E-02  0.1217450E+00
         -2   -1    0    0    0  501 -0.00000000000E+00  0.00000000000E+00  0.25285676287E+03  0.25285676287E+03  0.00000000000E+00 0.  1.
          1   -1    0    0  502    0  0.00000000000E+00 -0.00000000000E+00 -0.94264216430E+02  0.94264216430E+02  0.00000000000E+00 0. -1.
         23    2    1    2    0    0  0.69953339017E+02 -0.23509906284E+02  0.14403487902E+03  0.20281612766E+03  0.12223808708E+03 0.  0.
        -24    2    1    2    0    0 -0.81658867614E+02  0.41799263950E+02  0.12083716264E+02  0.12244986507E+03  0.80203516948E+02 0.  0.
         11    1    4    4    0    0 -0.26998427528E+02  0.33805745082E+02 -0.30302644278E+02  0.52820391326E+02  0.00000000000E+00 0. -1.
        -12    1    4    4    0    0 -0.54660440086E+02  0.79935188680E+01  0.42386360542E+02  0.69629473747E+02  0.00000000000E+00 0.  1.
        -11    1    3    3    0    0  0.85429635292E+02  0.39848887916E+01  0.14808438050E+03  0.17100609835E+03  0.00000000000E+00 0.  1.
         11    1    3    3    0    0 -0.15476296275E+02 -0.27494795076E+02 -0.40495014826E+01  0.31810029313E+02  0.00000000000E+00 0. -1.
         21    1    1    2  502  501  0.11705528597E+02 -0.18289357666E+02  0.24739511617E+01  0.21854986568E+02  0.00000000000E+00 0. -1.
<scales pt_clust_5="13000.00000" pt_clust_6="13000.00000" pt_clust_7="13000.00000" pt_clust_8="13000.00000" pt_clust_9="21.71451"></scales>
<clustering>
<clus scale="   21.715">  2  9  1 -1</clus>
<clus scale="   80.204">  5  6 -1 -1</clus>
<clus scale="  113.153">  2  5  1 -1</clus>
<clus scale="  122.238">  7  8 -1 -1</clus>
<clus scale="   21.715">  2  5  1 -1</clus>
</clustering>
</event>
<event>
 9    1  0.1973774E-005  0.9668483E+02  0.7546771E-02  0.1292323E+00
          1   -1    0    0  502    0  0.00000000000E+00  0.00000000000E+00  0.84087814299E+02  0.84087814299E+02  0.00000000000E+00 0. -1.
         -2   -1    0    0    0  501 -0.00000000000E+00 -0.00000000000E+00 -0.25241002441E+03  0.25241002441E+03  0.00000000000E+00 0.  1.
         23    2    1    2    0    0  0.33494677606E+02 -0.73699658022E+00 -0.16007338128E+03  0.18643084837E+03  0.89501604656E+02 0.  0.
        -24    2    1    2    0    0 -0.40295271247E+02  0.24500118075E+02 -0.46855804522E+02  0.10422560523E+03  0.80271699234E+02 0.  0.
         11    1    4    4    0    0 -0.57828927272E+02  0.63737921153E+01 -0.91955303979E+01  0.58901339837E+02  0.00000000000E+00 0. -1.
        -12    1    4    4    0    0  0.17533656025E+02  0.18126325960E+02 -0.37660274124E+02  0.45324265394E+02  0.00000000000E+00 0.  1.
        -11    1    3    3    0    0  0.61639922441E+02  0.40300451573E+01 -0.13490161544E+03  0.14837171951E+03  0.00000000000E+00 0.  1.
         11    1    3    3    0    0 -0.28145244835E+02 -0.47670417375E+01 -0.25171765845E+02  0.38059128859E+02  0.00000000000E+00 0. -1.
         21    1    1    2  502  501  0.68005936410E+01 -0.23763121495E+02  0.38606975691E+02  0.45841385113E+02  0.00000000000E+00 0. -1.
<scales pt_clust_5="13000.00000" pt_clust_6="13000.00000" pt_clust_7="13000.00000" pt_clust_8="13000.00000" pt_clust_9="24.71708"></scales>
<clustering>
<clus scale="   24.717">  1  9  2 -1</clus>
<clus scale="   80.272">  5  6 -1 -1</clus>
<clus scale="   88.210">  1  5  2 -1</clus>
<clus scale="   89.502">  7  8 -1 -1</clus>
<clus scale="   24.717">  1  5  2 -1</clus>
</clustering>
</event>
<event>
 9    1  0.1973774E-005  0.1396549E+03  0.7546771E-02  0.1217540E+00
          1   -1    0    0  502    0  0.00000000000E+00  0.00000000000E+00  0.11281307929E+04  0.11281307929E+04  0.00000000000E+00 0. -1.
         -2   -1    0    0    0  501 -0.00000000000E+00 -0.00000000000E+00 -0.33375032744E+03  0.33375032744E+03  0.00000000000E+00 0.  1.
         23    2    1    2    0    0  0.10138076142E+03  0.41794396075E+01 -0.31136654001E+03  0.34133415540E+03  0.96251529356E+02 0.  0.
        -24    2    1    2    0    0 -0.85081265837E+02 -0.53627983270E+02  0.73354755526E+03  0.74472351867E+03  0.80039496853E+02 0.  0.
         11    1    4    4    0    0 -0.76001544936E+02 -0.40583254608E+01  0.37440566715E+03  0.38206322570E+03  0.00000000000E+00 0. -1.
        -12    1    4    4    0    0 -0.90797209011E+01 -0.49569657809E+02  0.35914188810E+03  0.36266029297E+03  0.00000000000E+00 0.  1.
        -13    1    3    3    0    0  0.16435002276E+02 -0.39882542411E+02 -0.11673998117E+03  0.12445460896E+03  0.00000000000E+00 0. -1.
         13    1    3    3    0    0  0.84945759147E+02  0.44061982019E+02 -0.19462655884E+03  0.21687954644E+03  0.00000000000E+00 0.  1.
         21    1    1    2  502  501 -0.16299495586E+02  0.49448543662E+02  0.37219945020E+03  0.37582344625E+03  0.00000000000E+00 0.  1.
<scales pt_clust_5="13000.00000" pt_clust_6="13000.00000" pt_clust_7="13000.00000" pt_clust_8="13000.00000" pt_clust_9="52.06565"></scales>
<clustering>
<clus scale="   52.066">  1  9  2 -1</clus>
<clus scale="   80.039">  5  6 -1 -1</clus>
<clus scale="   96.252">  7  8 -1 -1</clus>
<clus scale="  129.017">  1  5  2 -1</clus>
<clus scale="   52.066">  1  5  2 -1</clus>
</clustering>
</event>
<event>
 9    1  0.1973774E-005  0.8959856E+02  0.7546771E-02  0.1311158E+00
          1   -1    0    0  502    0  0.00000000000E+00  0.00000000000E+00  0.18800419322E+03  0.18800419322E+03  0.00000000000E+00 0. -1.
         -2   -1    0    0    0  501 -0.00000000000E+00 -0.00000000000E+00 -0.13549127883E+03  0.13549127883E+03  0.00000000000E+00 0.  1.
         23    2    1    2    0    0 -0.78622781131E+01 -0.52372435268E+01 -0.67201307366E+02  0.11173346185E+03  0.88764332079E+02 0.  0.
        -24    2    1    2    0    0 -0.49127718776E+02  0.46006673560E+02  0.86581381927E+02  0.13425206731E+03  0.77441171980E+02 0.  0.
         13    1    4    4    0    0 -0.37078198978E+02  0.66544722173E+01  0.85105493115E+02  0.93069972592E+02  0.00000000000E+00 0. -1.
        -14    1    4    4    0    0 -0.12049519797E+02  0.39352201343E+02  0.14758888112E+01  0.41182094721E+02  0.00000000000E+00 0.  1.
        -11    1    3    3    0    0 -0.45051901466E+02 -0.16172383286E+02 -0.50329275796E+02  0.69456862937E+02  0.00000000000E+00 0. -1.
         11    1    3    3    0    0  0.37189623353E+02  0.10935139760E+02 -0.16872031569E+02  0.42276598917E+02  0.00000000000E+00 0.  1.
         21    1    1    2  502  501  0.56989996889E+02 -0.40769430033E+02  0.33132839823E+02  0.77509942881E+02  0.00000000000E+00 0.  1.
<scales pt_clust_5="13000.00000" pt_clust_6="13000.00000" pt_clust_7="13000.00000" pt_clust_8="13000.00000" pt_clust_9="70.07144"></scales>
<clustering>
<clus scale="   70.071">  1  9  2 -1</clus>
<clus scale="   77.441">  5  6 -1 -1</clus>
<clus scale="   78.396">  1  5  2 -1</clus>
<clus scale="   88.764">  7  8 -1 -1</clus>
<clus scale="   70.071">  1  5  2 -1</clus>
</clustering>
</event>
<event>
 9    1  0.1973774E-005  0.9894578E+02  0.7546771E-02  0.1292621E+00
         -2   -1    0    0    0  501 -0.00000000000E+00  0.00000000000E+00  0.11486342353E+03  0.11486342353E+03  0.00000000000E+00 0.  1.
          1   -1    0    0  502    0  0.00000000000E+00 -0.00000000000E+00 -0.12863798919E+03  0.12863798919E+03  0.00000000000E+00 0. -1.
        -24    2    1    2    0    0 -0.32058034060E+01  0.14716141776E+02  0.38630614244E+02  0.89598476158E+02  0.79427454754E+02 0.  0.
         23    2    1    2    0    0  0.26768501313E+02  0.53831602795E+01 -0.65635145938E+02  0.12022483273E+03  0.96956211491E+02 0.  0.
         13    1    3    3    0    0  0.56990672323E+01  0.42298845185E+02  0.42648139597E+02  0.60336850120E+02  0.00000000000E+00 0. -1.
        -14    1    3    3    0    0 -0.89048706383E+01 -0.27582703408E+02 -0.40175253530E+01  0.29261626038E+02  0.00000000000E+00 0.  1.
        -11    1    4    4    0    0  0.54095625208E+02  0.12638523009E+02 -0.81291725042E+01  0.56144032417E+02  0.00000000000E+00 0.  1.
         11    1    4    4    0    0 -0.27327123895E+02 -0.72553627298E+01 -0.57505973434E+02  0.64080800317E+02  0.00000000000E+00 0. -1.
         21    1    1    2  502  501 -0.23562697907E+02 -0.20099302056E+02  0.13229966033E+02  0.33678103822E+02  0.00000000000E+00 0.  1.
<scales pt_clust_5="13000.00000" pt_clust_6="13000.00000" pt_clust_7="13000.00000" pt_clust_8="13000.00000" pt_clust_9="30.97067"></scales>
<clustering>
<clus scale="   30.971">  1  9  2 -1</clus>
<clus scale="   79.427">  5  6 -1 -1</clus>
<clus scale="   81.844">  1  5  2 -1</clus>
<clus scale="   96.956">  7  8 -1 -1</clus>
<clus scale="   98.946">  2  5  1 -1</clus>
</clustering>
</event>
<event>
 9    1  0.1973774E-005  0.9939423E+02  0.7546771E-02  0.1296874E+00
          1   -1    0    0  502    0  0.00000000000E+00  0.00000000000E+00  0.29413876410E+03  0.29413876410E+03  0.00000000000E+00 0. -1.
         -2   -1    0    0    0  501 -0.00000000000E+00 -0.00000000000E+00 -0.68039307177E+02  0.68039307177E+02  0.00000000000E+00 0.  1.
         23    2    1    2    0    0  0.10487017581E+02  0.46882730029E+02 -0.10323988270E+02  0.97303413419E+02  0.83984532008E+02 0.  0.
        -24    2    1    2    0    0 -0.86782436393E+01 -0.74366815823E+02  0.17057623674E+03  0.19349888118E+03  0.52343378474E+02 0.  0.
         13    1    4    4    0    0  0.12010134067E+02 -0.65811235683E+02  0.14377871031E+03  0.15858019927E+03  0.00000000000E+00 0. -1.
        -14    1    4    4    0    0 -0.20688377707E+02 -0.85555801398E+01  0.26797526431E+02  0.34918681912E+02  0.00000000000E+00 0.  1.
        -11    1    3    3    0    0  0.27708261093E+02  0.11658322672E+02  0.29002215923E+02  0.41770716402E+02  0.00000000000E+00 0. -1.
         11    1    3    3    0    0 -0.17221243512E+02  0.35224407358E+02 -0.39326204193E+02  0.55532697017E+02  0.00000000000E+00 0.  1.
         21    1    1    2  502  501 -0.18087739415E+01  0.27484085793E+02  0.65847208452E+02  0.71375776675E+02  0.00000000000E+00 0.  1.
<scales pt_clust_5="13000.00000" pt_clust_6="13000.00000" pt_clust_7="13000.00000" pt_clust_8="13000.00000" pt_clust_9="27.54354"></scales>
<clustering>
<clus scale="   27.544">  1  9  2 -1</clus>
<clus scale="   52.343">  5  6 -1 -1</clus>
<clus scale="   74.603">  1  5  2 -1</clus>
<clus scale="   83.985">  7  8 -1 -1</clus>
<clus scale="   27.544">  1  5  2 -1</clus>
</clustering>
</event>
<event>
 9    1  0.1973774E-005  0.1958897E+03  0.7546771E-02  0.1154026E+00
         -4   -1    0    0    0  501 -0.00000000000E+00  0.00000000000E+00  0.14556039803E+03  0.14556039803E+03  0.00000000000E+00 0.  1.
          3   -1    0    0  502    0  0.00000000000E+00 -0.00000000000E+00 -0.53770167289E+03  0.53770167289E+03  0.00000000000E+00 0. -1.
        -24    2    1    2    0    0  0.19524724362E+03  0.63380482263E+02 -0.54077921038E+02  0.22705059533E+03  0.80554202990E+02 0.  0.
         23    2    1    2    0    0 -0.76286922622E+02 -0.12223637098E+03 -0.22726210989E+03  0.28331703014E+03  0.88651271983E+02 0.  0.
         13    1    3    3    0    0  0.94315401150E+02 -0.84933055878E+01 -0.38273957985E+02  0.10213925295E+03  0.00000000000E+00 0. -1.
        -14    1    3    3    0    0  0.10093184247E+03  0.71873787851E+02 -0.15803963052E+02  0.12491134237E+03  0.00000000000E+00 0.  1.
        -13    1    4    4    0    0 -0.52466266245E+02 -0.87198062665E+01 -0.70999230679E+02  0.88710962525E+02  0.00000000000E+00 0. -1.
         13    1    4    4    0    0 -0.23820656377E+02 -0.11351656472E+03 -0.15626287921E+03  0.19460606762E+03  0.00000000000E+00 0.  1.
         21    1    1    2  502  501 -0.11896032100E+03  0.58855888721E+02 -0.11080124393E+03  0.17289444545E+03  0.00000000000E+00 0. -1.
<scales pt_clust_5="13000.00000" pt_clust_6="13000.00000" pt_clust_7="13000.00000" pt_clust_8="13000.00000" pt_clust_9="132.72367"></scales>
<clustering>
<clus scale="   80.554">  5  6 -1 -1</clus>
<clus scale="   88.651">  7  8 -1 -1</clus>
<clus scale="  132.724">  2  9  1 -1</clus>
<clus scale="  192.361">  1  5  2 -1</clus>
<clus scale="  132.724">  2  5  1 -1</clus>
</clustering>
</event>
<event>
 9    1  0.1973774E-005  0.9570669E+02  0.7546771E-02  0.1293656E+00
          1   -1    0    0  502    0  0.00000000000E+00  0.00000000000E+00  0.32459765416E+03  0.32459765416E+03  0.00000000000E+00 0. -1.
         -2   -1    0    0    0  501 -0.00000000000E+00 -0.00000000000E+00 -0.11722109947E+03  0.11722109947E+03  0.00000000000E+00 0.  1.
        -24    2    1    2    0    0 -0.29279366295E+02  0.18657256462E+02 -0.85432074785E+02  0.12295372212E+03  0.81324066989E+02 0.  0.
         23    2    1    2    0    0  0.28788761991E+02 -0.39808215752E+02  0.26586297635E+03  0.28460613495E+03  0.88904684925E+02 0.  0.
         13    1    3    3    0    0  0.82089792968E+01  0.42783025978E+02 -0.37329865829E+02  0.57369796372E+02  0.00000000000E+00 0. -1.
        -14    1    3    3    0    0 -0.37488345592E+02 -0.24125769516E+02 -0.48102208957E+02  0.65583925748E+02  0.00000000000E+00 0.  1.
        -13    1    4    4    0    0  0.28842134143E+02  0.13303425540E+01  0.19520789640E+02  0.34852542826E+02  0.00000000000E+00 0.  1.
         13    1    4    4    0    0 -0.53372151962E-01 -0.41138558306E+02  0.24634218671E+03  0.24975359213E+03  0.00000000000E+00 0. -1.
         21    1    1    2  502  501  0.49060430369E+00  0.21150959289E+02  0.26945653120E+02  0.34258896560E+02  0.00000000000E+00 0. -1.
<scales pt_clust_5="13000.00000" pt_clust_6="13000.00000" pt_clust_7="13000.00000" pt_clust_8="13000.00000" pt_clust_9="21.15665"></scales>
<clustering>
<clus scale="   21.157">  1  9  2 -1</clus>
<clus scale="   81.324">  5  6 -1 -1</clus>
<clus scale="   88.709">  2  5  1 -1</clus>
<clus scale="   88.905">  7  8 -1 -1</clus>
<clus scale="   21.157">  1  5  2 -1</clus>
</clustering>
</event>
<event>
 9    1  0.1973774E-005  0.1322252E+03  0.7546771E-02  0.1228444E+00
          1   -1    0    0  502    0  0.00000000000E+00  0.00000000000E+00  0.18352928778E+03  0.18352928778E+03  0.00000000000E+00 0. -1.
         -2   -1    0    0    0  501 -0.00000000000E+00 -0.00000000000E+00 -0.19329238463E+03  0.19329238463E+03  0.00000000000E+00 0.  1.
        -24    2    1    2    0    0 -0.11719355422E+03  0.15456775361E+01 -0.10702217643E+03  0.17818009393E+03  0.80979511955E+02 0.  0.
         23    2    1    2    0    0  0.83939141881E+02  0.56364335020E+01  0.10247630899E+03  0.16422271531E+03  0.96902824506E+02 0.  0.
         11    1    3    3    0    0 -0.60863715032E+02  0.28817692525E+02 -0.18622325411E+02  0.69868749908E+02  0.00000000000E+00 0. -1.
        -12    1    3    3    0    0 -0.56329839187E+02 -0.27272014989E+02 -0.88399851018E+02  0.10831134402E+03  0.00000000000E+00 0.  1.
        -11    1    4    4    0    0  0.95106635907E+02 -0.15263246191E+02  0.10231969166E+03  0.14052600535E+03  0.00000000000E+00 0. -1.
         11    1    4    4    0    0 -0.11167494026E+02  0.20899679693E+02  0.15661733218E+00  0.23696709963E+02  0.00000000000E+00 0.  1.
         21    1    1    2  502  501  0.33254412338E+02 -0.71821110382E+01 -0.52172294039E+01  0.34418863165E+02  0.00000000000E+00 0. -1.
<scales pt_clust_5="13000.00000" pt_clust_6="13000.00000" pt_clust_7="13000.00000" pt_clust_8="13000.00000" pt_clust_9="34.02115"></scales>
<clustering>
<clus scale="   34.021">  2  9  1 -1</clus>
<clus scale="   80.980">  5  6 -1 -1</clus>
<clus scale="   96.903">  7  8 -1 -1</clus>
<clus scale="  121.041">  2  5  1 -1</clus>
<clus scale="  132.225">  1  5  2 -1</clus>
</clustering>
</event>
<event>
 9    1  0.1973774E-005  0.1427447E+03  0.7546771E-02  0.1217186E+00
          1   -1    0    0  502    0  0.00000000000E+00  0.00000000000E+00  0.27959282469E+03  0.27959282469E+03  0.00000000000E+00 0. -1.
         -2   -1    0    0    0  501 -0.00000000000E+00 -0.00000000000E+00 -0.86422003852E+02  0.86422003852E+02  0.00000000000E+00 0.  1.
         23    2    1    2    0    0 -0.70304503259E+02 -0.68678454156E+02  0.25340635758E+02  0.14902068659E+03  0.10911262057E+03 0.  0.
        -24    2    1    2    0    0  0.48573936189E+02  0.64021104628E+02  0.15291074371E+03  0.19022665831E+03  0.79664024963E+02 0.  0.
         11    1    4    4    0    0  0.21639488328E+02  0.72301051069E+02  0.14039443506E+03  0.15939355958E+03  0.00000000000E+00 0. -1.
        -12    1    4    4    0    0  0.26934447861E+02 -0.82799464401E+01  0.12516308652E+02  0.30833098724E+02  0.00000000000E+00 0.  1.
        -11    1    3    3    0    0 -0.85189319553E+02 -0.32043565406E+02  0.48563874127E+02  0.10316229990E+03  0.00000000000E+00 0. -1.
         11    1    3    3    0    0  0.14884816294E+02 -0.36634888750E+02 -0.23223238369E+02  0.45858386694E+02  0.00000000000E+00 0.  1.
         21    1    1    2  502  501  0.21730567070E+02  0.46573495280E+01  0.14919441365E+02  0.26767483641E+02  0.00000000000E+00 0. -1.
<scales pt_clust_5="13000.00000" pt_clust_6="13000.00000" pt_clust_7="13000.00000" pt_clust_8="13000.00000" pt_clust_9="22.22405"></scales>
<clustering>
<clus scale="   22.224">  1  9  2 -1</clus>
<clus scale="   79.664">  5  6 -1 -1</clus>
<clus scale="  109.113">  7  8 -1 -1</clus>
<clus scale="  121.724">  1  5  2 -1</clus>
<clus scale="   22.224">  1  5  2 -1</clus>
</clustering>
</event>
<event>
 9    1  0.1973774E-005  0.1462167E+03  0.7546771E-02  0.1211804E+00
          1   -1    0    0  502    0  0.00000000000E+00  0.00000000000E+00  0.26282485908E+03  0.26282485908E+03  0.00000000000E+00 0. -1.
         -2   -1    0    0    0  501 -0.00000000000E+00 -0.00000000000E+00 -0.11077216255E+03  0.11077216255E+03  0.00000000000E+00 0.  1.
         23    2    1    2    0    0 -0.42414265908E+02  0.86193867447E+02  0.67834266689E+02  0.15986568317E+03  0.10829217969E+03 0.  0.
        -24    2    1    2    0    0 -0.40303988231E+01 -0.10495515843E+03  0.94553119807E+02  0.16258548096E+03  0.80386048291E+02 0.  0.
         13    1    4    4    0    0  0.27504672771E+02 -0.12408098394E+02  0.41610464462E+02  0.51399403525E+02  0.00000000000E+00 0. -1.
        -14    1    4    4    0    0 -0.31535071594E+02 -0.92547060034E+02  0.52942655346E+02  0.11118607744E+03  0.00000000000E+00 0.  1.
        -13    1    3    3    0    0  0.14185017012E+02  0.19530737953E+02 -0.23308180653E+02  0.33554965623E+02  0.00000000000E+00 0.  1.
         13    1    3    3    0    0 -0.56599282920E+02  0.66663129494E+02  0.91142447342E+02  0.12631071755E+03  0.00000000000E+00 0. -1.
         21    1    1    2  502  501  0.46444664731E+02  0.18761290980E+02 -0.10334689965E+02  0.51145857485E+02  0.00000000000E+00 0. -1.
<scales pt_clust_5="13000.00000" pt_clust_6="13000.00000" pt_clust_7="13000.00000" pt_clust_8="13000.00000" pt_clust_9="50.09085"></scales>
<clustering>
<clus scale="   50.091">  2  9  1 -1</clus>
<clus scale="   80.386">  5  6 -1 -1</clus>
<clus scale="  108.292">  7  8 -1 -1</clus>
<clus scale="  126.941">  1  5  2 -1</clus>
<clus scale="  126.941">  1  5  2 -1</clus>
</clustering>
</event>
<event>
 9    1  0.1973774E-005  0.9892920E+02  0.7546771E-02  0.1290369E+00
         -2   -1    0    0    0  501 -0.00000000000E+00  0.00000000000E+00  0.47015739441E+02  0.47015739441E+02  0.00000000000E+00 0.  1.
          1   -1    0    0  502    0  0.00000000000E+00 -0.00000000000E+00 -0.55740235671E+03  0.55740235671E+03  0.00000000000E+00 0. -1.
        -24    2    1    2    0    0 -0.19622582340E+02  0.25920970213E+02 -0.70214793963E+01  0.85839172974E+02  0.79133558049E+02 0.  0.
         23    2    1    2    0    0 -0.40825276276E+00 -0.35624277411E+02 -0.36713496328E+03  0.38054251858E+03  0.93569607084E+02 0.  0.
         11    1    3    3    0    0 -0.22675400049E+02 -0.24485859947E+02  0.54701203523E+01  0.33817943779E+02  0.00000000000E+00 0. -1.
        -12    1    3    3    0    0  0.30528177092E+01  0.50406830160E+02 -0.12491599749E+02  0.52021229196E+02  0.00000000000E+00 0.  1.
        -11    1    4    4    0    0  0.10510851985E+02 -0.66246281186E+02 -0.22812706114E+03  0.23778352299E+03  0.00000000000E+00 0.  1.
         11    1    4    4    0    0 -0.10919104748E+02  0.30622003775E+02 -0.13900790214E+03  0.14275899558E+03  0.00000000000E+00 0. -1.
         21    1    1    2  502  501  0.20030835103E+02  0.97033071980E+01 -0.13623017459E+03  0.13803640460E+03  0.00000000000E+00 0. -1.
<scales pt_clust_5="13000.00000" pt_clust_6="13000.00000" pt_clust_7="13000.00000" pt_clust_8="13000.00000" pt_clust_9="22.25733"></scales>
<clustering>
<clus scale="   22.257">  2  9  1 -1</clus>
<clus scale="   79.134">  5  6 -1 -1</clus>
<clus scale="   85.404">  1  5  2 -1</clus>
<clus scale="   93.570">  7  8 -1 -1</clus>
<clus scale="   22.257">  2  5  1 -1</clus>
</clustering>
</event>
<event>
 9    1  0.1973774E-005  0.1197555E+03  0.7546771E-02  0.1246901E+00
          1   -1    0    0  502    0  0.00000000000E+00  0.00000000000E+00  0.42005425288E+03  0.42005425288E+03  0.00000000000E+00 0. -1.
         -2   -1    0    0    0  501 -0.00000000000E+00 -0.00000000000E+00 -0.73578569469E+02  0.73578569469E+02  0.00000000000E+00 0.  1.
         23    2    1    2    0    0  0.47036983985E+00 -0.71572318678E+02  0.10042605368E+02  0.11604498154E+03  0.90789678764E+02 0.  0.
        -24    2    1    2    0    0 -0.16128974799E+02  0.10576767677E+03  0.25493091240E+03  0.28782639346E+03  0.80045720694E+02 0.  0.
         11    1    4    4    0    0 -0.16792020070E+02  0.11892176400E+03  0.23542638408E+03  0.26429139262E+03  0.00000000000E+00 0. -1.
        -12    1    4    4    0    0  0.66304527113E+00 -0.13154087232E+02  0.19504528317E+02  0.23535000846E+02  0.00000000000E+00 0.  1.
        -11    1    3    3    0    0  0.25373222863E+02  0.50346713573E+01 -0.17137884551E+02  0.31029912037E+02  0.00000000000E+00 0.  1.
         11    1    3    3    0    0 -0.24902853023E+02 -0.76606990036E+02  0.27180489920E+02  0.85015069507E+02  0.00000000000E+00 0. -1.
         21    1    1    2  502  501  0.15658604959E+02 -0.34195358090E+02  0.81502165650E+02  0.89761447347E+02  0.00000000000E+00 0.  1.
<scales pt_clust_5="13000.00000" pt_clust_6="13000.00000" pt_clust_7="13000.00000" pt_clust_8="13000.00000" pt_clust_9="37.61003"></scales>
<clustering>
<clus scale="   37.610">  1  9  2 -1</clus>
<clus scale="   80.046">  5  6 -1 -1</clus>
<clus scale="   90.790">  7  8 -1 -1</clus>
<clus scale="  111.830">  1  5  2 -1</clus>
<clus scale="   37.610">  1  5  2 -1</clus>
</clustering>
</event>
<event>
 9    1  0.1973774E-005  0.1206263E+03  0.7546771E-02  0.1247576E+00
          1   -1    0    0  502    0  0.00000000000E+00  0.00000000000E+00  0.49996873400E+03  0.49996873400E+03  0.00000000000E+00 0. -1.
         -2   -1    0    0    0  501 -0.00000000000E+00 -0.00000000000E+00 -0.43257820689E+02  0.43257820689E+02  0.00000000000E+00 0.  1.
         23    2    1    2    0    0 -0.80817942824E+02  0.17928449369E+02  0.94282193950E+02  0.15628686973E+03  0.93185215432E+02 0.  0.
        -24    2    1    2    0    0  0.53549644160E+02 -0.37522289953E+02  0.29546847764E+03  0.31203205736E+03  0.76071656415E+02 0.  0.
         13    1    4    4    0    0  0.29127533617E+02  0.18973954037E+02  0.67822535935E+02  0.76212338418E+02  0.00000000000E+00 0. -1.
        -14    1    4    4    0    0  0.24422110543E+02 -0.56496243990E+02  0.22764594170E+03  0.23581971894E+03  0.00000000000E+00 0.  1.
        -11    1    3    3    0    0 -0.92245331486E+02 -0.33926318781E+01  0.47947667342E+02  0.10401773856E+03  0.00000000000E+00 0.  1.
         11    1    3    3    0    0  0.11427388661E+02  0.21321081247E+02  0.46334526608E+02  0.52269131169E+02  0.00000000000E+00 0. -1.
         21    1    1    2  502  501  0.27268298664E+02  0.19593840584E+02  0.66960241727E+02  0.74907627602E+02  0.00000000000E+00 0. -1.
<scales pt_clust_5="13000.00000" pt_clust_6="13000.00000" pt_clust_7="13000.00000" pt_clust_8="13000.00000" pt_clust_9="33.57795"></scales>
<clustering>
<clus scale="   33.578">  1  9  2 -1</clus>
<clus scale="   76.072">  5  6 -1 -1</clus>
<clus scale="   93.185">  7  8 -1 -1</clus>
<clus scale="  107.954">  1  5  2 -1</clus>
<clus scale="   33.578">  1  5  2 -1</clus>
</clustering>
</event>
<event>
 9    1  0.1973774E-005  0.9292598E+02  0.7546771E-02  0.1302056E+00
          1   -1    0    0  502    0  0.00000000000E+00  0.00000000000E+00  0.18236691537E+03  0.18236691537E+03  0.00000000000E+00 0. -1.
         -2   -1    0    0    0  501 -0.00000000000E+00 -0.00000000000E+00 -0.12855783924E+03  0.12855783924E+03  0.00000000000E+00 0.  1.
        -24    2    1    2    0    0  0.22780744615E+02 -0.54609449021E+01 -0.82750123268E+02  0.11683840118E+03  0.79087577062E+02 0.  0.
         23    2    1    2    0    0 -0.95163129164E+01  0.24839056852E+02  0.14204292183E+03  0.16997147041E+03  0.89479439850E+02 0.  0.
         11    1    3    3    0    0  0.37204163988E+02  0.10106372745E+02 -0.83174359364E+01  0.39439426069E+02  0.00000000000E+00 0. -1.
        -12    1    3    3    0    0 -0.14423419373E+02 -0.15567317647E+02 -0.74432687332E+02  0.77398975113E+02  0.00000000000E+00 0.  1.
        -13    1    4    4    0    0 -0.15927432767E+02  0.54659992946E+02  0.11840639246E+03  0.13138292020E+03  0.00000000000E+00 0. -1.
         13    1    4    4    0    0  0.64111198507E+01 -0.29820936094E+02  0.23636529362E+02  0.38588550213E+02  0.00000000000E+00 0.  1.
         21    1    1    2  502  501 -0.13264431699E+02 -0.19378111950E+02 -0.54837224312E+01  0.24114883013E+02  0.00000000000E+00 0. -1.
<scales pt_clust_5="13000.00000" pt_clust_6="13000.00000" pt_clust_7="13000.00000" pt_clust_8="13000.00000" pt_clust_9="23.48311"></scales>
<clustering>
<clus scale="   23.483">  2  9  1 -1</clus>
<clus scale="   79.088">  5  6 -1 -1</clus>
<clus scale="   82.967">  2  5  1 -1</clus>
<clus scale="   89.479">  7  8 -1 -1</clus>
<clus scale="   92.926">  1  5  2 -1</clus>
</clustering>
</event>
<event>
 9    1  0.1973774E-005  0.1205368E+03  0.7546771E-02  0.1244703E+00
          3   -1    0    0  502    0  0.00000000000E+00  0.00000000000E+00  0.18373479743E+03  0.18373479743E+03  0.00000000000E+00 0. -1.
         -4   -1    0    0    0  501 -0.00000000000E+00 -0.00000000000E+00 -0.10122166147E+03  0.10122166147E+03  0.00000000000E+00 0.  1.
         23    2    1    2    0    0  0.86666196002E+02 -0.11260773416E+02 -0.14486952542E+02  0.12604148686E+03  0.89659076882E+02 0.  0.
        -24    2    1    2    0    0 -0.67120968286E+02  0.69014451561E+01  0.80819336352E+02  0.13316936252E+03  0.81544219033E+02 0.  0.
         11    1    4    4    0    0  0.90924061041E+00 -0.25262824672E+02  0.39280183260E+01  0.25582540078E+02  0.00000000000E+00 0. -1.
        -12    1    4    4    0    0 -0.68030208897E+02  0.32164269828E+02  0.76891318026E+02  0.10758682245E+03  0.00000000000E+00 0.  1.
        -13    1    3    3    0    0  0.28262771525E+02  0.38950244418E+02 -0.75042721919E+01  0.48705440103E+02  0.00000000000E+00 0.  1.
         13    1    3    3    0    0  0.58403424477E+02 -0.50211017833E+02 -0.69826803501E+01  0.77336046753E+02  0.00000000000E+00 0. -1.
         21    1    1    2  502  501 -0.19545227716E+02  0.43593282597E+01  0.16180752154E+02  0.25745609521E+02  0.00000000000E+00 0.  1.
<scales pt_clust_5="13000.00000" pt_clust_6="13000.00000" pt_clust_7="13000.00000" pt_clust_8="13000.00000" pt_clust_9="20.02548"></scales>
<clustering>
<clus scale="   20.025">  1  9  2 -1</clus>
<clus scale="   81.544">  5  6 -1 -1</clus>
<clus scale="   89.659">  7  8 -1 -1</clus>
<clus scale="  114.629">  1  5  2 -1</clus>
<clus scale="   20.025">  1  5  2 -1</clus>
</clustering>
</event>
<event>
 9    1  0.1973774E-005  0.1401838E+03  0.7546771E-02  0.1218898E+00
          1   -1    0    0  502    0  0.00000000000E+00  0.00000000000E+00  0.32387324154E+03  0.32387324154E+03  0.00000000000E+00 0. -1.
         -2   -1    0    0    0  501 -0.00000000000E+00 -0.00000000000E+00 -0.78925617189E+02  0.78925617189E+02  0.00000000000E+00 0.  1.
        -24    2    1    2    0    0  0.12650886214E+02  0.10780475444E+03  0.42583681788E+02  0.14107326156E+03  0.79412751932E+02 0.  0.
         23    2    1    2    0    0 -0.32501000938E-02 -0.68641850019E+02  0.16435357189E+03  0.20570342245E+03  0.10290820098E+03 0.  0.
         13    1    3    3    0    0  0.91108449368E+01  0.92880021229E+02  0.65129100372E+02  0.11380468160E+03  0.00000000000E+00 0. -1.
        -14    1    3    3    0    0  0.35400412777E+01  0.14924733215E+02 -0.22545418584E+02  0.27268579958E+02  0.00000000000E+00 0.  1.
        -13    1    4    4    0    0  0.23177722189E+02  0.72302783251E+01  0.12294041042E+01  0.24310392119E+02  0.00000000000E+00 0.  1.
         13    1    4    4    0    0 -0.23180972289E+02 -0.75872128344E+02  0.16312416779E+03  0.18139303033E+03  0.00000000000E+00 0. -1.
         21    1    1    2  502  501 -0.12647636114E+02 -0.39162904425E+02  0.38010370678E+02  0.56022174729E+02  0.00000000000E+00 0. -1.
<scales pt_clust_5="13000.00000" pt_clust_6="13000.00000" pt_clust_7="13000.00000" pt_clust_8="13000.00000" pt_clust_9="41.15454"></scales>
<clustering>
<clus scale="   41.155">  1  9  2 -1</clus>
<clus scale="   79.413">  5  6 -1 -1</clus>
<clus scale="  102.908">  7  8 -1 -1</clus>
<clus scale="  123.967">  2  5  1 -1</clus>
<clus scale="   41.155">  1  5  2 -1</clus>
</clustering>
</event>
<event>
 9    1  0.1973774E-005  0.1339992E+03  0.7546771E-02  0.1224459E+00
         -2   -1    0    0    0  501 -0.00000000000E+00  0.00000000000E+00  0.43150693055E+03  0.43150693055E+03  0.00000000000E+00 0.  1.
          1   -1    0    0  502    0  0.00000000000E+00 -0.00000000000E+00 -0.27777759817E+03  0.27777759817E+03  0.00000000000E+00 0. -1.
        -24    2    1    2    0    0 -0.95877112894E+02 -0.13220870944E+02  0.38876462861E+03  0.40848791012E+03  0.79732202057E+02 0.  0.
         23    2    1    2    0    0  0.12355266487E+03  0.27611438344E+02 -0.20272669657E+03  0.25588704034E+03  0.91391527988E+02 0.  0.
         13    1    3    3    0    0 -0.58544000124E+02 -0.22277306623E+02  0.10599221932E+03  0.12311794710E+03  0.00000000000E+00 0. -1.
        -14    1    3    3    0    0 -0.37333112770E+02  0.90564356792E+01  0.28277240929E+03  0.28536996302E+03  0.00000000000E+00 0.  1.
        -13    1    4    4    0    0  0.59880187754E+02 -0.53523085296E+01 -0.16340417853E+03  0.17411263496E+03  0.00000000000E+00 0. -1.
         13    1    4    4    0    0  0.63672477114E+02  0.32963746874E+02 -0.39322518039E+02  0.81774405377E+02  0.00000000000E+00 0.  1.
         21    1    1    2  502  501 -0.27675551974E+02 -0.14390567400E+02 -0.32308599663E+02  0.44909578259E+02  0.00000000000E+00 0. -1.
<scales pt_clust_5="13000.00000" pt_clust_6="13000.00000" pt_clust_7="13000.00000" pt_clust_8="13000.00000" pt_clust_9="31.19334"></scales>
<clustering>
<clus scale="   31.193">  2  9  1 -1</clus>
<clus scale="   79.732">  5  6 -1 -1</clus>
<clus scale="   91.392">  7  8 -1 -1</clus>
<clus scale="  126.335">  1  5  2 -1</clus>
<clus scale="   31.193">  2  5  1 -1</clus>
</clustering>
</event>
<event>
 9    1  0.1973774E-005  0.1008509E+03  0.7546771E-02  0.1284801E+00
          1   -1    0    0  502    0  0.00000000000E+00  0.00000000000E+00  0.16839220825E+03  0.16839220825E+03  0.00000000000E+00 0. -1.
         -2   -1    0    0    0  501 -0.00000000000E+00 -0.00000000000E+00 -0.11173005707E+03  0.11173005707E+03  0.00000000000E+00 0.  1.
        -24    2    1    2    0    0  0.45468785744E+02  0.15886598308E+02 -0.20127084220E+02  0.94517700518E+02  0.78795315275E+02 0.  0.
         23    2    1    2    0    0 -0.37942833890E+02  0.82460833261E+01 -0.54946288858E+01  0.99525179370E+02  0.91473569124E+02 0.  0.
         11    1    3    3    0    0  0.60739315004E+01 -0.23469182462E+02  0.15161035326E+02  0.28592869066E+02  0.00000000000E+00 0. -1.
        -12    1    3    3    0    0  0.39394854244E+02  0.39355780770E+02 -0.35288119546E+02  0.65924831452E+02  0.00000000000E+00 0.  1.
        -11    1    4    4    0    0 -0.76434925549E+01  0.36857376825E+02  0.27296922090E+02  0.46497431762E+02  0.00000000000E+00 0. -1.
         11    1    4    4    0    0 -0.30299341335E+02 -0.28611293499E+02 -0.32791550976E+02  0.53027747608E+02  0.00000000000E+00 0.  1.
         21    1    1    2  502  501 -0.75259518543E+01 -0.24132681634E+02  0.82283864282E+02  0.86079385427E+02  0.00000000000E+00 0.  1.
<scales pt_clust_5="13000.00000" pt_clust_6="13000.00000" pt_clust_7="13000.00000" pt_clust_8="13000.00000" pt_clust_9="25.27897"></scales>
<clustering>
<clus scale="   25.279">  1  9  2 -1</clus>
<clus scale="   78.795">  5  6 -1 -1</clus>
<clus scale="   89.511">  2  5  1 -1</clus>
<clus scale="   91.474">  7  8 -1 -1</clus>
<clus scale="   25.279">  1  5  2 -1</clus>
</clustering>
</event>
<event>
 9    1  0.1973774E-005  0.1202449E+03  0.7546771E-02  0.1243501E+00
         -2   -1    0    0    0  501 -0.00000000000E+00  0.00000000000E+00  0.39234893900E+03  0.39234893900E+03  0.00000000000E+00 0.  1.
          1   -1    0    0  502    0  0.00000000000E+00 -0.00000000000E+00 -0.58393816820E+02  0.58393816820E+02  0.00000000000E+00 0. -1.
        -24    2    1    2    0    0  0.86699828513E+02  0.30368271060E+01  0.25667781618E+03  0.28252691176E+03  0.80074165401E+02 0.  0.
         23    2    1    2    0    0 -0.87830191240E+02  0.20061989674E+02  0.77822682562E+02  0.14508295639E+03  0.82922062142E+02 0.  0.
         13    1    3    3    0    0  0.60634007544E+02 -0.35151699105E+02  0.17752522269E+03  0.19085944963E+03  0.00000000000E+00 0. -1.
        -14    1    3    3    0    0  0.26065820970E+02  0.38188526211E+02  0.79152593485E+02  0.91667462125E+02  0.00000000000E+00 0.  1.
        -11    1    4    4    0    0  0.12445749059E+02  0.17987492064E+02  0.17768709590E+02  0.28181085517E+02  0.00000000000E+00 0.  1.
         11    1    4    4    0    0 -0.10027594030E+03  0.20744976093E+01  0.60053972972E+02  0.11690187087E+03  0.00000000000E+00 0. -1.
         21    1    1    2  502  501  0.11303627269E+01 -0.23098816780E+02 -0.54537656493E+00  0.23132887673E+02  0.00000000000E+00 0.  1.
<scales pt_clust_5="13000.00000" pt_clust_6="13000.00000" pt_clust_7="13000.00000" pt_clust_8="13000.00000" pt_clust_9="23.12646"></scales>
<clustering>
<clus scale="   23.126">  2  9  1 -1</clus>
<clus scale="   80.074">  5  6 -1 -1</clus>
<clus scale="   82.922">  7  8 -1 -1</clus>
<clus scale="  118.299">  1  5  2 -1</clus>
<clus scale="   23.126">  2  5  1 -1</clus>
</clustering>
</event>
<event>
 9    1  0.1973774E-005  0.1507997E+03  0.7546771E-02  0.1201193E+00
         -2   -1    0    0    0  501 -0.00000000000E+00  0.00000000000E+00  0.50318807607E+02  0.50318807607E+02  0.00000000000E+00 0.  1.
          1   -1    0    0  502    0  0.00000000000E+00 -0.00000000000E+00 -0.62857137092E+03  0.62857137092E+03  0.00000000000E+00 0. -1.
         23    2    1    2    0    0 -0.10242886538E+03  0.73575235164E+02 -0.12936545209E+03  0.20209135210E+03  0.90556649166E+02 0.  0.
        -24    2    1    2    0    0  0.96571000049E+02 -0.48968572504E+02 -0.38519291600E+03  0.40826596614E+03  0.81139616883E+02 0.  0.
         11    1    4    4    0    0  0.87532630370E+02 -0.96234465865E+01 -0.31715083592E+03  0.32914924400E+03  0.00000000000E+00 0. -1.
        -12    1    4    4    0    0  0.90383696797E+01 -0.39345125917E+02 -0.68042080079E+02  0.79116722135E+02  0.00000000000E+00 0.  1.
        -13    1    3    3    0    0 -0.67203102029E+02  0.74267151569E+01 -0.21891459460E+02  0.71067918343E+02  0.00000000000E+00 0.  1.
         13    1    3    3    0    0 -0.35225763350E+02  0.66148520007E+02 -0.10747399263E+03  0.13102343376E+03  0.00000000000E+00 0. -1.
         21    1    1    2  502  501  0.58578653293E+01 -0.24606662660E+02 -0.63694195231E+02  0.68532860290E+02  0.00000000000E+00 0.  1.
<scales pt_clust_5="13000.00000" pt_clust_6="13000.00000" pt_clust_7="13000.00000" pt_clust_8="13000.00000" pt_clust_9="25.29432"></scales>
<clustering>
<clus scale="   25.294">  2  9  1 -1</clus>
<clus scale="   81.140">  5  6 -1 -1</clus>
<clus scale="   90.557">  7  8 -1 -1</clus>
<clus scale="  145.340">  2  5  1 -1</clus>
<clus scale="   25.294">  2  5  1 -1</clus>
</clustering>
</event>
<event>
 9    1  0.1973774E-005  0.9522596E+02  0.7546771E-02  0.1297561E+00
         -4   -1    0    0    0  501 -0.00000000000E+00  0.00000000000E+00  0.12429919480E+03  0.12429919480E+03  0.00000000000E+00 0.  1.
          3   -1    0    0  502    0  0.00000000000E+00 -0.00000000000E+00 -0.20824106046E+03  0.20824106046E+03  0.00000000000E+00 0. -1.
        -24    2    1    2    0    0 -0.95714056329E+01  0.26538661873E+02  0.79347502247E+02  0.11614179773E+03  0.79981114567E+02 0.  0.
         23    2    1    2    0    0 -0.17008118494E+02 -0.52684444169E+00 -0.15031307830E+03  0.17700975559E+03  0.91917780687E+02 0.  0.
         11    1    3    3    0    0  0.39311322839E+01 -0.21646700606E+02 -0.38795596780E+00  0.22004180466E+02  0.00000000000E+00 0. -1.
        -12    1    3    3    0    0 -0.13502537917E+02  0.48185362479E+02  0.79735458214E+02  0.94137617263E+02  0.00000000000E+00 0.  1.
        -11    1    4    4    0    0  0.18753481859E+01  0.41769903637E+02 -0.10120838435E+03  0.10950515442E+03  0.00000000000E+00 0.  1.
         11    1    4    4    0    0 -0.18883466680E+02 -0.42296748079E+02 -0.49104693947E+02  0.67504601173E+02  0.00000000000E+00 0. -1.
         21    1    1    2  502  501  0.26579524127E+02 -0.26011817431E+02 -0.12976289605E+02  0.39388701943E+02  0.00000000000E+00 0. -1.
<scales pt_clust_5="13000.00000" pt_clust_6="13000.00000" pt_clust_7="13000.00000" pt_clust_8="13000.00000" pt_clust_9="37.18986"></scales>
<clustering>
<clus scale="   37.190">  2  9  1 -1</clus>
<clus scale="   79.981">  5  6 -1 -1</clus>
<clus scale="   83.762">  1  5  2 -1</clus>
<clus scale="   91.918">  7  8 -1 -1</clus>
<clus scale="   37.190">  2  5  1 -1</clus>
</clustering>
</event>
<event>
 9    1  0.1973774E-005  0.1566456E+03  0.7546771E-02  0.1193903E+00
         -2   -1    0    0    0  501 -0.00000000000E+00  0.00000000000E+00  0.55826303378E+02  0.55826303378E+02  0.00000000000E+00 0.  1.
          1   -1    0    0  502    0  0.00000000000E+00 -0.00000000000E+00 -0.10862899517E+04  0.10862899517E+04  0.00000000000E+00 0. -1.
        -24    2    1    2    0    0  0.68471480235E+02  0.95512376712E+02 -0.12399861873E+03  0.18871612193E+03  0.80169567274E+02 0.  0.
         23    2    1    2    0    0 -0.37264374699E+02 -0.17754192926E+03 -0.53836400993E+03  0.57498093226E+03  0.88642512420E+02 0.  0.
         11    1    3    3    0    0 -0.15100256843E+02  0.36748367648E+02 -0.40946803214E+02  0.57053492224E+02  0.00000000000E+00 0. -1.
        -12    1    3    3    0    0  0.83571737078E+02  0.58764009064E+02 -0.83051815521E+02  0.13166262970E+03  0.00000000000E+00 0.  1.
        -11    1    4    4    0    0  0.23599621810E+02 -0.10276306497E+03 -0.28782373236E+03  0.30652844987E+03  0.00000000000E+00 0.  1.
         11    1    4    4    0    0 -0.60863996508E+02 -0.74778864293E+02 -0.25054027757E+03  0.26845248239E+03  0.00000000000E+00 0. -1.
         21    1    1    2  502  501 -0.31207105537E+02  0.82029552553E+02 -0.36810101969E+03  0.37841920092E+03  0.00000000000E+00 0.  1.
<scales pt_clust_5="13000.00000" pt_clust_6="13000.00000" pt_clust_7="13000.00000" pt_clust_8="13000.00000" pt_clust_9="87.76520"></scales>
<clustering>
<clus scale="   80.170">  5  6 -1 -1</clus>
<clus scale="   87.765">  2  9  1 -1</clus>
<clus scale="   88.643">  7  8 -1 -1</clus>
<clus scale="  152.012">  1  5  2 -1</clus>
<clus scale="   87.765">  2  5  1 -1</clus>
</clustering>
</event>
<event>
 9    1  0.1973774E-005  0.1984287E+03  0.7546771E-02  0.1152001E+00
         -4   -1    0    0    0  501 -0.00000000000E+00  0.00000000000E+00  0.28377074032E+03  0.28377074032E+03  0.00000000000E+00 0.  1.
          3   -1    0    0  502    0  0.00000000000E+00 -0.00000000000E+00 -0.53782879819E+03  0.53782879819E+03  0.00000000000E+00 0. -1.
         23    2    1    2    0    0  0.17148699058E+03 -0.18595712035E+02  0.20554599424E+03  0.28326723997E+03  0.90761142827E+02 0.  0.
        -24    2    1    2    0    0 -0.21185433877E+03  0.17726352823E+02 -0.31730316786E+03  0.39041400947E+03  0.80903114980E+02 0.  0.
         13    1    4    4    0    0 -0.15090830456E+03  0.40132558801E+02 -0.17843271945E+03  0.23711215496E+03  0.00000000000E+00 0. -1.
        -14    1    4    4    0    0 -0.60946034210E+02 -0.22406205978E+02 -0.13887044842E+03  0.15330185451E+03  0.00000000000E+00 0.  1.
        -11    1    3    3    0    0  0.47856001180E+02  0.25280961311E+02  0.10447457663E+03  0.11766163782E+03  0.00000000000E+00 0. -1.
         11    1    3    3    0    0  0.12363098940E+03 -0.43876673346E+02  0.10107141762E+03  0.16560560215E+03  0.00000000000E+00 0.  1.
         21    1    1    2  502  501  0.40367348185E+02  0.86935921188E+00 -0.14230088424E+03  0.14791828907E+03  0.00000000000E+00 0.  1.
<scales pt_clust_5="13000.00000" pt_clust_6="13000.00000" pt_clust_7="13000.00000" pt_clust_8="13000.00000" pt_clust_9="40.37671"></scales>
<clustering>
<clus scale="   40.377">  2  9  1 -1</clus>
<clus scale="   80.903">  5  6 -1 -1</clus>
<clus scale="   90.761">  7  8 -1 -1</clus>
<clus scale="  194.118">  2  5  1 -1</clus>
<clus scale="   40.377">  2  5  1 -1</clus>
</clustering>
</event>
<event>
 9    1  0.1973774E-005  0.9576623E+02  0.7546771E-02  0.1296021E+00
         -2   -1    0    0    0  501 -0.00000000000E+00  0.00000000000E+00  0.97381993057E+02  0.97381993057E+02  0.00000000000E+00 0.  1.
          1   -1    0    0  502    0  0.00000000000E+00 -0.00000000000E+00 -0.15714246517E+03  0.15714246517E+03  0.00000000000E+00 0. -1.
         23    2    1    2    0    0 -0.60866434408E+01 -0.22135455695E+02  0.33933324250E+02  0.10117613434E+03  0.92510075331E+02 0.  0.
        -24    2    1    2    0    0 -0.23702697323E+02  0.31533601523E+02 -0.68093209657E+02  0.11296119713E+03  0.81039255736E+02 0.  0.
         11    1    4    4    0    0  0.25574435260E+02  0.31731114441E+02 -0.28197678468E+02  0.49558293287E+02  0.00000000000E+00 0. -1.
        -12    1    4    4    0    0 -0.49277132583E+02 -0.19751291715E+00 -0.39895531189E+02  0.63402903844E+02  0.00000000000E+00 0.  1.
        -13    1    3    3    0    0 -0.25003163157E+02  0.31658571734E+01  0.56824917382E+02  0.62163108473E+02  0.00000000000E+00 0.  1.
         13    1    3    3    0    0  0.18916519716E+02 -0.25301312868E+02 -0.22891593132E+02  0.39013025865E+02  0.00000000000E+00 0. -1.
         21    1    1    2  502  501  0.29789340763E+02 -0.93981458288E+01 -0.25600586706E+02  0.40387126759E+02  0.00000000000E+00 0. -1.
<scales pt_clust_5="13000.00000" pt_clust_6="13000.00000" pt_clust_7="13000.00000" pt_clust_8="13000.00000" pt_clust_9="31.23668"></scales>
<clustering>
<clus scale="   31.237">  2  9  1 -1</clus>
<clus scale="   81.039">  5  6 -1 -1</clus>
<clus scale="   84.737">  2  5  1 -1</clus>
<clus scale="   92.510">  7  8 -1 -1</clus>
<clus scale="   31.237">  2  5  1 -1</clus>
</clustering>
</event>
<event>
 9    1  0.1973774E-005  0.1899353E+03  0.7546771E-02  0.1159634E+00
          1   -1    0    0  502    0  0.00000000000E+00  0.00000000000E+00  0.20106777536E+03  0.20106777536E+03  0.00000000000E+00 0. -1.
         -2   -1    0    0    0  501 -0.00000000000E+00 -0.00000000000E+00 -0.42042459877E+03  0.42042459877E+03  0.00000000000E+00 0.  1.
        -24    2    1    2    0    0  0.12518938129E+01 -0.16613924450E+03 -0.32963413742E+03  0.37767156551E+03  0.79833145020E+02 0.  0.
         23    2    1    2    0    0  0.19201709909E+02  0.17244042248E+03  0.10332979678E+03  0.22131919212E+03  0.90557898217E+02 0.  0.
         11    1    3    3    0    0  0.11172159637E+02 -0.96976934100E+02 -0.10940548854E+03  0.14662504500E+03  0.00000000000E+00 0. -1.
        -12    1    3    3    0    0 -0.99202658243E+01 -0.69162310396E+02 -0.22022864888E+03  0.23104652051E+03  0.00000000000E+00 0.  1.
        -11    1    4    4    0    0 -0.24029546769E+02  0.29922276644E+02  0.50214750052E+02  0.63200339242E+02  0.00000000000E+00 0.  1.
         11    1    4    4    0    0  0.43231256678E+02  0.14251814584E+03  0.53115046724E+02  0.15811885288E+03  0.00000000000E+00 0. -1.
         21    1    1    2  502  501 -0.20453603721E+02 -0.63011779836E+01  0.69475172356E+01  0.22501616496E+02  0.00000000000E+00 0.  1.
<scales pt_clust_5="13000.00000" pt_clust_6="13000.00000" pt_clust_7="13000.00000" pt_clust_8="13000.00000" pt_clust_9="21.40221"></scales>
<clustering>
<clus scale="   21.402">  1  9  2 -1</clus>
<clus scale="   79.833">  5  6 -1 -1</clus>
<clus scale="   90.558">  7  8 -1 -1</clus>
<clus scale="  185.062">  2  5  1 -1</clus>
<clus scale="   21.402">  1  5  2 -1</clus>
</clustering>
</event>
<event>
 9    1  0.1973774E-005  0.1252340E+03  0.7546771E-02  0.1237664E+00
         -2   -1    0    0    0  501 -0.00000000000E+00  0.00000000000E+00  0.91262548957E+02  0.91262548957E+02  0.00000000000E+00 0.  1.
          1   -1    0    0  502    0  0.00000000000E+00 -0.00000000000E+00 -0.11077063726E+04  0.11077063726E+04  0.00000000000E+00 0. -1.
         23    2    1    2    0    0  0.72701267614E+02 -0.34776144785E+02  0.18076594570E+02  0.12302075332E+03  0.91172846379E+02 0.  0.
        -24    2    1    2    0    0 -0.15366403667E+03  0.75964734533E+02 -0.84219077500E+03  0.86324611945E+03  0.80779231194E+02 0.  0.
         11    1    4    4    0    0 -0.13928046623E+03  0.90844352419E+02 -0.78517808631E+03  0.80259352842E+03  0.00000000000E+00 0. -1.
        -12    1    4    4    0    0 -0.14383570442E+02 -0.14879617886E+02 -0.57012688691E+02  0.60652591031E+02  0.00000000000E+00 0.  1.
        -13    1    3    3    0    0  0.64545850760E+02 -0.99325242548E+01  0.49642321328E+02  0.82031591203E+02  0.00000000000E+00 0.  1.
         13    1    3    3    0    0  0.81554168541E+01 -0.24843620531E+02 -0.31565726758E+02  0.40989162115E+02  0.00000000000E+00 0. -1.
         21    1    1    2  502  501  0.80962769058E+02 -0.41188589748E+02 -0.19232964317E+03  0.21270204875E+03  0.00000000000E+00 0.  1.
<scales pt_clust_5="13000.00000" pt_clust_6="13000.00000" pt_clust_7="13000.00000" pt_clust_8="13000.00000" pt_clust_9="90.83760"></scales>
<clustering>
<clus scale="   80.779">  5  6 -1 -1</clus>
<clus scale="   90.838">  2  9  1 -1</clus>
<clus scale="   91.173">  7  8 -1 -1</clus>
<clus scale="  117.883">  2  5  1 -1</clus>
<clus scale="   90.838">  2  5  1 -1</clus>
</clustering>
</event>
<event>
 9    1  0.1973774E-005  0.9920070E+02  0.7546771E-02  0.1285206E+00
         -4   -1    0    0    0  501 -0.00000000000E+00  0.00000000000E+00  0.59013965675E+03  0.59013965675E+03  0.00000000000E+00 0.  1.
          3   -1    0    0  502    0  0.00000000000E+00 -0.00000000000E+00 -0.34872229242E+02  0.34872229242E+02  0.00000000000E+00 0. -1.
        -24    2    1    2    0    0 -0.34439179851E+02 -0.30161721017E+01  0.44470761495E+03  0.45412265181E+03  0.85248845644E+02 0.  0.
         23    2    1    2    0    0  0.55650875934E+02 -0.39404853862E+01  0.97843717442E+02  0.14519818109E+03  0.91632807073E+02 0.  0.
         13    1    3    3    0    0 -0.22078231916E+02 -0.17601742443E+02  0.39990283248E+02  0.48953982634E+02  0.00000000000E+00 0. -1.
        -14    1    3    3    0    0 -0.12360947936E+02  0.14585570341E+02  0.40471733171E+03  0.40516866917E+03  0.00000000000E+00 0.  1.
        -13    1    4    4    0    0  0.35618009014E+02  0.42176859213E+02  0.64343090805E+02  0.84779498427E+02  0.00000000000E+00 0.  1.
         13    1    4    4    0    0  0.20032866920E+02 -0.46117344599E+02  0.33500626637E+02  0.60418682665E+02  0.00000000000E+00 0. -1.
         21    1    1    2  502  501 -0.21211696083E+02  0.69566574879E+01  0.12716095111E+02  0.25691053092E+02  0.00000000000E+00 0.  1.
<scales pt_clust_5="13000.00000" pt_clust_6="13000.00000" pt_clust_7="13000.00000" pt_clust_8="13000.00000" pt_clust_9="22.32333"></scales>
<clustering>
<clus scale="   22.323">  2  9  1 -1</clus>
<clus scale="   85.249">  5  6 -1 -1</clus>
<clus scale="   91.633">  7  8 -1 -1</clus>
<clus scale="   93.336">  1  5  2 -1</clus>
<clus scale="   22.323">  2  5  1 -1</clus>
</clustering>
</event>
<event>
 9    1  0.1973774E-005  0.1171758E+03  0.7546771E-02  0.1250825E+00
          1   -1    0    0  502    0  0.00000000000E+00  0.00000000000E+00  0.15919274247E+03  0.15919274247E+03  0.00000000000E+00 0. -1.
         -2   -1    0    0    0  501 -0.00000000000E+00 -0.00000000000E+00 -0.20241445000E+03  0.20241445000E+03  0.00000000000E+00 0.  1.
        -24    2    1    2    0    0  0.46526855052E+02 -0.38242456832E+02 -0.89225875920E+02  0.13587722341E+03  0.82910368246E+02 0.  0.
         23    2    1    2    0    0 -0.10104791557E+03  0.74435572761E+02  0.34919798071E+02  0.15935715123E+03  0.91782207533E+02 0.  0.
         11    1    3    3    0    0  0.16937422019E+02 -0.38031479275E+02  0.25224615132E+00  0.41633319693E+02  0.00000000000E+00 0. -1.
        -12    1    3    3    0    0  0.29589433033E+02 -0.21097755670E+00 -0.89478122071E+02  0.94243903718E+02  0.00000000000E+00 0.  1.
        -13    1    4    4    0    0 -0.28432977283E+02  0.24014508618E+02 -0.31519156373E+02  0.48770770342E+02  0.00000000000E+00 0.  1.
         13    1    4    4    0    0 -0.72614938283E+02  0.50421064142E+02  0.66438954443E+02  0.11058638089E+03  0.00000000000E+00 0. -1.
         21    1    1    2  502  501  0.54521060514E+02 -0.36193115929E+02  0.11084370320E+02  0.66372817821E+02  0.00000000000E+00 0. -1.
<scales pt_clust_5="13000.00000" pt_clust_6="13000.00000" pt_clust_7="13000.00000" pt_clust_8="13000.00000" pt_clust_9="65.44072"></scales>
<clustering>
<clus scale="   65.441">  1  9  2 -1</clus>
<clus scale="   82.910">  5  6 -1 -1</clus>
<clus scale="   91.782">  7  8 -1 -1</clus>
<clus scale="  110.364">  2  5  1 -1</clus>
<clus scale="   65.441">  1  5  2 -1</clus>
</clustering>
</event>
<event>
 9    1  0.1973774E-005  0.1451726E+03  0.7546771E-02  0.1209292E+00
         -2   -1    0    0    0  501 -0.00000000000E+00  0.00000000000E+00  0.18324091196E+03  0.18324091196E+03  0.00000000000E+00 0.  1.
          1   -1    0    0  502    0  0.00000000000E+00 -0.00000000000E+00 -0.23858214512E+03  0.23858214512E+03  0.00000000000E+00 0. -1.
         23    2    1    2    0    0  0.72208434919E+01 -0.10828852545E+03  0.35567531166E+02  0.14758361119E+03  0.93473673803E+02 0.  0.
        -24    2    1    2    0    0 -0.33571288658E+02  0.10998147398E+03  0.36018930505E+02  0.14459434667E+03  0.79919995575E+02 0.  0.
         11    1    4    4    0    0  0.17635083059E+02  0.27585388037E+02 -0.13810147327E+02  0.35534067553E+02  0.00000000000E+00 0. -1.
        -12    1    4    4    0    0 -0.51206371717E+02  0.82396085941E+02  0.49829077832E+02  0.10906027911E+03  0.00000000000E+00 0.  1.
        -11    1    3    3    0    0  0.48941215312E+02 -0.65712439261E+02  0.93628965283E+01  0.82468364003E+02  0.00000000000E+00 0. -1.
         11    1    3    3    0    0 -0.41720371820E+02 -0.42576086186E+02  0.26204634638E+02  0.65115247187E+02  0.00000000000E+00 0.  1.
         21    1    1    2  502  501  0.26350445166E+02 -0.16929485305E+01 -0.12692769484E+03  0.12964509922E+03  0.00000000000E+00 0. -1.
<scales pt_clust_5="13000.00000" pt_clust_6="13000.00000" pt_clust_7="13000.00000" pt_clust_8="13000.00000" pt_clust_9="26.40477"></scales>
<clustering>
<clus scale="   26.405">  2  9  1 -1</clus>
<clus scale="   79.920">  5  6 -1 -1</clus>
<clus scale="   93.474">  7  8 -1 -1</clus>
<clus scale="  136.839">  2  5  1 -1</clus>
<clus scale="   26.405">  2  5  1 -1</clus>
</clustering>
</event>
<event>
 9    1  0.1973774E-005  0.1601442E+03  0.7546771E-02  0.1191223E+00
          3   -1    0    0  502    0  0.00000000000E+00  0.00000000000E+00  0.26706773026E+03  0.26706773026E+03  0.00000000000E+00 0. -1.
         -4   -1    0    0    0  501 -0.00000000000E+00 -0.00000000000E+00 -0.29021778485E+03  0.29021778485E+03  0.00000000000E+00 0.  1.
        -24    2    1    2    0    0 -0.13936755091E+03  0.96843026527E+02 -0.13576793413E+03  0.23177128464E+03  0.80517764586E+02 0.  0.
         23    2    1    2    0    0  0.10487238878E+03 -0.60720194463E+02  0.18259035460E+03  0.23954375605E+03  0.96730623508E+02 0.  0.
         11    1    3    3    0    0 -0.69842338013E+02  0.15805586967E+02 -0.20145128030E+02  0.74388137104E+02  0.00000000000E+00 0. -1.
        -12    1    3    3    0    0 -0.69525212895E+02  0.81037439560E+02 -0.11562280610E+03  0.15738314754E+03  0.00000000000E+00 0.  1.
        -13    1    4    4    0    0 -0.31900281594E+00 -0.24120668320E+02 -0.17319064589E+01  0.24184869298E+02  0.00000000000E+00 0.  1.
         13    1    4    4    0    0  0.10519139160E+03 -0.36599526143E+02  0.18432226106E+03  0.21535888675E+03  0.00000000000E+00 0. -1.
         21    1    1    2  502  501  0.34495162124E+02 -0.36122832064E+02 -0.69972475056E+02  0.85970474419E+02  0.00000000000E+00 0. -1.
<scales pt_clust_5="13000.00000" pt_clust_6="13000.00000" pt_clust_7="13000.00000" pt_clust_8="13000.00000" pt_clust_9="49.94772"></scales>
<clustering>
<clus scale="   49.948">  2  9  1 -1</clus>
<clus scale="   80.518">  5  6 -1 -1</clus>
<clus scale="   96.731">  7  8 -1 -1</clus>
<clus scale="  150.906">  2  5  1 -1</clus>
<clus scale="  160.144">  1  5  2 -1</clus>
</clustering>
</event>
<event>
 9    1  0.1973774E-005  0.1285388E+03  0.7546771E-02  0.1231455E+00
          3   -1    0    0  502    0  0.00000000000E+00  0.00000000000E+00  0.26801832879E+03  0.26801832879E+03  0.00000000000E+00 0. -1.
         -4   -1    0    0    0  501 -0.00000000000E+00 -0.00000000000E+00 -0.21221644626E+03  0.21221644626E+03  0.00000000000E+00 0.  1.
        -24    2    1    2    0    0 -0.32449863519E+02  0.89516676766E+02 -0.16296700919E+03  0.20649863550E+03  0.83768796809E+02 0.  0.
         23    2    1    2    0    0  0.28024896213E+01 -0.54553494257E+02  0.19558487902E+03  0.22236601832E+03  0.90604986159E+02 0.  0.
         11    1    3    3    0    0 -0.42341883400E+02  0.52963268019E+02 -0.42044220112E+02  0.79785081901E+02  0.00000000000E+00 0. -1.
        -12    1    3    3    0    0  0.98920198814E+01  0.36553408748E+02 -0.12092278908E+03  0.12671355360E+03  0.00000000000E+00 0.  1.
        -13    1    4    4    0    0  0.40643885134E+02 -0.38036944680E+02  0.65886033799E+02  0.86253718814E+02  0.00000000000E+00 0.  1.
         13    1    4    4    0    0 -0.37841395513E+02 -0.16516549577E+02  0.12969884522E+03  0.13611229950E+03  0.00000000000E+00 0. -1.
         21    1    1    2  502  501  0.29647373897E+02 -0.34963182509E+02  0.23184012701E+02  0.51370121229E+02  0.00000000000E+00 0.  1.
<scales pt_clust_5="13000.00000" pt_clust_6="13000.00000" pt_clust_7="13000.00000" pt_clust_8="13000.00000" pt_clust_9="45.84093"></scales>
<clustering>
<clus scale="   45.841">  1  9  2 -1</clus>
<clus scale="   83.769">  5  6 -1 -1</clus>
<clus scale="   90.605">  7  8 -1 -1</clus>
<clus scale="  123.815">  2  5  1 -1</clus>
<clus scale="   45.841">  1  5  2 -1</clus>
</clustering>
</event>
<event>
 9    1  0.1973774E-005  0.2926659E+03  0.7546771E-02  0.1089483E+00
         -2   -1    0    0    0  501 -0.00000000000E+00  0.00000000000E+00  0.17933596958E+03  0.17933596958E+03  0.00000000000E+00 0.  1.
          1   -1    0    0  502    0  0.00000000000E+00 -0.00000000000E+00 -0.13151145202E+04  0.13151145202E+04  0.00000000000E+00 0. -1.
        -24    2    1    2    0    0  0.50834345867E+02  0.27429208246E+03 -0.16459128365E+03  0.33340522164E+03  0.79047289252E+02 0.  0.
         23    2    1    2    0    0 -0.20551906822E+03 -0.22002285301E+03 -0.20109053368E+03  0.37369433545E+03  0.92530591480E+02 0.  0.
         13    1    3    3    0    0 -0.19237478659E+02  0.49008213443E+02 -0.17988967955E+02  0.55637114753E+02  0.00000000000E+00 0. -1.
        -14    1    3    3    0    0  0.70071824526E+02  0.22528386902E+03 -0.14660231570E+03  0.27776810688E+03  0.00000000000E+00 0.  1.
        -13    1    4    4    0    0  0.47118514477E+01 -0.21353808130E+02 -0.31645807186E+02  0.38466138072E+02  0.00000000000E+00 0. -1.
         13    1    4    4    0    0 -0.21023091967E+03 -0.19866904488E+03 -0.16944472650E+03  0.33522819737E+03  0.00000000000E+00 0.  1.
         21    1    1    2  502  501  0.15468472235E+03 -0.54269229452E+02 -0.77009673326E+03  0.78735093267E+03  0.00000000000E+00 0.  1.
<scales pt_clust_5="13000.00000" pt_clust_6="13000.00000" pt_clust_7="13000.00000" pt_clust_8="13000.00000" pt_clust_9="163.92838"></scales>
<clustering>
<clus scale="   79.047">  5  6 -1 -1</clus>
<clus scale="   92.531">  7  8 -1 -1</clus>
<clus scale="  163.928">  2  9  1 -1</clus>
<clus scale="  288.686">  1  5  2 -1</clus>
<clus scale="  163.928">  2  5  1 -1</clus>
</clustering>
</event>
<event>
 9    1  0.1973774E-005  0.1424821E+03  0.7546771E-02  0.1212826E+00
          1   -1    0    0  502    0  0.00000000000E+00  0.00000000000E+00  0.75024005144E+03  0.75024005144E+03  0.00000000000E+00 0. -1.
         -2   -1    0    0    0  501 -0.00000000000E+00 -0.00000000000E+00 -0.13488539003E+03  0.13488539003E+03  0.00000000000E+00 0.  1.
         23    2    1    2    0    0  0.59294336729E+02 -0.89579600998E+02 -0.77786424791E+02  0.16170570491E+03  0.92507750141E+02 0.  0.
        -24    2    1    2    0    0 -0.10966276561E+03  0.71019466729E+02  0.53669661609E+03  0.55802224735E+03  0.79220477122E+02 0.  0.
         13    1    4    4    0    0 -0.14042997378E+02  0.41662315446E+02  0.26238772883E+03  0.26604562492E+03  0.00000000000E+00 0. -1.
        -14    1    4    4    0    0 -0.95619768232E+02  0.29357151284E+02  0.27430888727E+03  0.29197662242E+03  0.00000000000E+00 0.  1.
        -13    1    3    3    0    0  0.24453999368E+02  0.31385048486E+01  0.12535942672E+02  0.27658600045E+02  0.00000000000E+00 0. -1.
         13    1    3    3    0    0  0.34840337361E+02 -0.92718105847E+02 -0.90322367462E+02  0.13404710487E+03  0.00000000000E+00 0.  1.
         21    1    1    2  502  501  0.50368428881E+02  0.18560134269E+02  0.15644447010E+03  0.16539748921E+03  0.00000000000E+00 0. -1.
<scales pt_clust_5="13000.00000" pt_clust_6="13000.00000" pt_clust_7="13000.00000" pt_clust_8="13000.00000" pt_clust_9="53.67921"></scales>
<clustering>
<clus scale="   53.679">  1  9  2 -1</clus>
<clus scale="   79.220">  5  6 -1 -1</clus>
<clus scale="   92.508">  7  8 -1 -1</clus>
<clus scale="  134.236">  1  5  2 -1</clus>
<clus scale="   53.679">  1  5  2 -1</clus>
</clustering>
</event>
<event>
 9    1  0.1973774E-005  0.9789801E+02  0.7546771E-02  0.1287070E+00
         -2   -1    0    0    0  501 -0.00000000000E+00  0.00000000000E+00  0.42073301524E+03  0.42073301524E+03  0.00000000000E+00 0.  1.
          1   -1    0    0  502    0  0.00000000000E+00 -0.00000000000E+00 -0.49031767283E+02  0.49031767283E+02  0.00000000000E+00 0. -1.
        -24    2    1    2    0    0  0.50909425591E+02  0.93804240513E+01  0.33573533361E+03  0.34891708577E+03  0.79656490847E+02 0.  0.
         23    2    1    2    0    0 -0.33161256259E+02 -0.21779444072E+02  0.25269009584E+02  0.96699053242E+02  0.84487697044E+02 0.  0.
         13    1    3    3    0    0 -0.19378018080E+02 -0.77836152226E+01  0.50481127456E+02  0.54629996155E+02  0.00000000000E+00 0. -1.
        -14    1    3    3    0    0  0.70287443671E+02  0.17164039274E+02  0.28525420616E+03  0.29428708961E+03  0.00000000000E+00 0.  1.
        -11    1    4    4    0    0  0.18886485704E+02 -0.32609440154E+02  0.21540657489E+02  0.43405931097E+02  0.00000000000E+00 0.  1.
         11    1    4    4    0    0 -0.52047741963E+02  0.10829996081E+02  0.37283520954E+01  0.53293122145E+02  0.00000000000E+00 0. -1.
         21    1    1    2  502  501 -0.17748169332E+02  0.12399020021E+02  0.10696904760E+02  0.24148643514E+02  0.00000000000E+00 0. -1.
<scales pt_clust_5="13000.00000" pt_clust_6="13000.00000" pt_clust_7="13000.00000" pt_clust_8="13000.00000" pt_clust_9="21.65025"></scales>
<clustering>
<clus scale="   21.650">  2  9  1 -1</clus>
<clus scale="   79.656">  5  6 -1 -1</clus>
<clus scale="   84.488">  7  8 -1 -1</clus>
<clus scale="   93.760">  1  5  2 -1</clus>
<clus scale="   21.650">  2  5  1 -1</clus>
</clustering>
</event>
<event>
 9    1  0.1973774E-005  0.1405263E+03  0.7546771E-02  0.1214887E+00
         -2   -1    0    0    0  501 -0.00000000000E+00  0.00000000000E+00  0.12818376378E+03  0.12818376378E+03  0.00000000000E+00 0.  1.
          1   -1    0    0  502    0  0.00000000000E+00 -0.00000000000E+00 -0.25047864396E+03  0.25047864396E+03  0.00000000000E+00 0. -1.
         23    2    1    2    0    0 -0.79029169860E+02 -0.82375081176E+02  0.47330533023E+02  0.15377164839E+03  0.91511074769E+02 0.  0.
        -24    2    1    2    0    0  0.63523550174E+02  0.56471064347E+02 -0.13272921587E+03  0.17721716386E+03  0.81022564050E+02 0.  0.
         11    1    4    4    0    0  0.60105392460E+02  0.66425366048E+02 -0.13870189395E+03  0.16511572560E+03  0.00000000000E+00 0. -1.
        -12    1    4    4    0    0  0.34181577143E+01 -0.99543017010E+01  0.59726780730E+01  0.12101438257E+02  0.00000000000E+00 0.  1.
        -13    1    3    3    0    0 -0.46972440685E+02 -0.86756999962E+02  0.27598503771E+01  0.98695511552E+02  0.00000000000E+00 0. -1.
         13    1    3    3    0    0 -0.32056729176E+02  0.43819187867E+01  0.44570682646E+02  0.55076136840E+02  0.00000000000E+00 0.  1.
         21    1    1    2  502  501  0.15505619686E+02  0.25904016828E+02 -0.36896197329E+02  0.47673595491E+02  0.00000000000E+00 0. -1.
<scales pt_clust_5="13000.00000" pt_clust_6="13000.00000" pt_clust_7="13000.00000" pt_clust_8="13000.00000" pt_clust_9="30.19010"></scales>
<clustering>
<clus scale="   30.190">  2  9  1 -1</clus>
<clus scale="   81.023">  5  6 -1 -1</clus>
<clus scale="   91.511">  7  8 -1 -1</clus>
<clus scale="  133.933">  2  5  1 -1</clus>
<clus scale="   30.190">  2  5  1 -1</clus>
</clustering>
</event>
<event>
 9    1  0.1973774E-005  0.1466246E+03  0.7546771E-02  0.1208306E+00
         -2   -1    0    0    0  501 -0.00000000000E+00  0.00000000000E+00  0.10231816470E+03  0.10231816470E+03  0.00000000000E+00 0.  1.
          1   -1    0    0  502    0  0.00000000000E+00 -0.00000000000E+00 -0.41711046293E+03  0.41711046293E+03  0.00000000000E+00 0. -1.
         23    2    1    2    0    0  0.81259136835E+02  0.81040109720E+02  0.17098514703E+02  0.15270813586E+03  0.99281764941E+02 0.  0.
        -24    2    1    2    0    0 -0.70691505141E+02 -0.43321018410E+02 -0.25288661652E+03  0.27853847694E+03  0.82207315880E+02 0.  0.
         13    1    4    4    0    0 -0.86499357962E+02 -0.44144739465E+02 -0.18624947612E+03  0.21004705260E+03  0.00000000000E+00 0. -1.
        -14    1    4    4    0    0  0.15807852821E+02  0.82372105502E+00 -0.66637140406E+02  0.68491424344E+02  0.00000000000E+00 0.  1.
        -11    1    3    3    0    0 -0.29448615264E+01  0.23862154897E+02 -0.31737362957E+02  0.39816263677E+02  0.00000000000E+00 0. -1.
         11    1    3    3    0    0  0.84203998362E+02  0.57177954824E+02  0.48835877660E+02  0.11289187218E+03  0.00000000000E+00 0.  1.
         21    1    1    2  502  501 -0.10567631695E+02 -0.37719091310E+02 -0.79004196413E+02  0.88182014832E+02  0.00000000000E+00 0. -1.
<scales pt_clust_5="13000.00000" pt_clust_6="13000.00000" pt_clust_7="13000.00000" pt_clust_8="13000.00000" pt_clust_9="39.17148"></scales>
<clustering>
<clus scale="   39.171">  2  9  1 -1</clus>
<clus scale="   82.207">  5  6 -1 -1</clus>
<clus scale="   99.282">  7  8 -1 -1</clus>
<clus scale="  135.646">  2  5  1 -1</clus>
<clus scale="   39.171">  2  5  1 -1</clus>
</clustering>
</event>
<event>
 9    1  0.1973774E-005  0.9743956E+02  0.7546771E-02  0.1291223E+00
          1   -1    0    0  502    0  0.00000000000E+00  0.00000000000E+00  0.30942652910E+03  0.30942652910E+03  0.00000000000E+00 0. -1.
         -2   -1    0    0    0  501 -0.00000000000E+00 -0.00000000000E+00 -0.65272151480E+02  0.65272151480E+02  0.00000000000E+00 0.  1.
        -24    2    1    2    0    0 -0.12038938326E+02  0.31416487988E+02 -0.10922517745E+02  0.88785349954E+02  0.81434668410E+02 0.  0.
         23    2    1    2    0    0  0.34367564581E+02 -0.18681620052E+02  0.16984989561E+03  0.19689431076E+03  0.91587390756E+02 0.  0.
         11    1    3    3    0    0 -0.35989849470E+02 -0.11366606882E+02 -0.12415060766E+02  0.39731634131E+02  0.00000000000E+00 0. -1.
        -12    1    3    3    0    0  0.23950911144E+02  0.42783094871E+02  0.14925430205E+01  0.49053715823E+02  0.00000000000E+00 0.  1.
        -11    1    4    4    0    0 -0.14626546725E+02 -0.31301725972E+02  0.22827958978E+02  0.41410742918E+02  0.00000000000E+00 0.  1.
         11    1    4    4    0    0  0.48994111305E+02  0.12620105920E+02  0.14702193664E+03  0.15548356784E+03  0.00000000000E+00 0. -1.
         21    1    1    2  502  501 -0.22328626254E+02 -0.12734867937E+02  0.85226999752E+02  0.89019019869E+02  0.00000000000E+00 0. -1.
<scales pt_clust_5="13000.00000" pt_clust_6="13000.00000" pt_clust_7="13000.00000" pt_clust_8="13000.00000" pt_clust_9="25.70495"></scales>
<clustering>
<clus scale="   25.705">  1  9  2 -1</clus>
<clus scale="   81.435">  5  6 -1 -1</clus>
<clus scale="   87.965">  2  5  1 -1</clus>
<clus scale="   91.587">  7  8 -1 -1</clus>
<clus scale="   25.705">  1  5  2 -1</clus>
</clustering>
</event>
<event>
 9    1  0.1973774E-005  0.1560067E+03  0.7546771E-02  0.1195197E+00
          1   -1    0    0  502    0  0.00000000000E+00  0.00000000000E+00  0.75686979063E+03  0.75686979063E+03  0.00000000000E+00 0. -1.
         -2   -1    0    0    0  501 -0.00000000000E+00 -0.00000000000E+00 -0.11525982937E+03  0.11525982937E+03  0.00000000000E+00 0.  1.
         23    2    1    2    0    0 -0.81423886136E+02 -0.10069553813E+03 -0.46783440613E+02  0.16550421937E+03  0.91834174912E+02 0.  0.
        -24    2    1    2    0    0  0.55677096120E+02  0.77438790211E+02  0.53453034609E+03  0.54889901269E+03  0.80440847705E+02 0.  0.
         11    1    4    4    0    0  0.53343134669E+02  0.66575999428E+01  0.21566095302E+03  0.22225989361E+03  0.00000000000E+00 0. -1.
        -12    1    4    4    0    0  0.23339614511E+01  0.70781190268E+02  0.31886939308E+03  0.32663911908E+03  0.00000000000E+00 0.  1.
        -13    1    3    3    0    0 -0.13549276934E+02 -0.80102062503E+02 -0.48383485078E+02  0.94556252839E+02  0.00000000000E+00 0.  1.
         13    1    3    3    0    0 -0.67874609202E+02 -0.20593475624E+02  0.16000444655E+01  0.70947966531E+02  0.00000000000E+00 0. -1.
         21    1    1    2  502  501  0.25746790016E+02  0.23256747916E+02  0.15386305578E+03  0.15772638794E+03  0.00000000000E+00 0. -1.
<scales pt_clust_5="13000.00000" pt_clust_6="13000.00000" pt_clust_7="13000.00000" pt_clust_8="13000.00000" pt_clust_9="34.69544"></scales>
<clustering>
<clus scale="   34.695">  1  9  2 -1</clus>
<clus scale="   80.441">  5  6 -1 -1</clus>
<clus scale="   91.834">  7  8 -1 -1</clus>
<clus scale="  149.584">  1  5  2 -1</clus>
<clus scale="   34.695">  1  5  2 -1</clus>
</clustering>
</event>
<event>
 9    1  0.1973774E-005  0.1304185E+03  0.7546771E-02  0.1232432E+00
         -2   -1    0    0    0  501 -0.00000000000E+00  0.00000000000E+00  0.72799421476E+02  0.72799421476E+02  0.00000000000E+00 0.  1.
          1   -1    0    0  502    0  0.00000000000E+00 -0.00000000000E+00 -0.79024215569E+03  0.79024215569E+03  0.00000000000E+00 0. -1.
        -24    2    1    2    0    0 -0.15782852480E+01 -0.84666333665E+02  0.13261363833E+02  0.11755579722E+03  0.80452611200E+02 0.  0.
         23    2    1    2    0    0  0.20018107891E+02  0.72503126230E+02 -0.64234007368E+03  0.65440245833E+03  0.99921865750E+02 0.  0.
         13    1    3    3    0    0 -0.35767649837E+02 -0.14756844905E+02  0.50639910786E+00  0.38695551249E+02  0.00000000000E+00 0. -1.
        -14    1    3    3    0    0  0.34189364589E+02 -0.69909488760E+02  0.12754964725E+02  0.78860245972E+02  0.00000000000E+00 0.  1.
        -13    1    4    4    0    0  0.28952551212E+02 -0.17844430408E+02 -0.19479115450E+03  0.19773787647E+03  0.00000000000E+00 0.  1.
         13    1    4    4    0    0 -0.89344433211E+01  0.90347556638E+02 -0.44754891918E+03  0.45666458186E+03  0.00000000000E+00 0. -1.
         21    1    1    2  502  501 -0.18439822643E+02  0.12163207435E+02 -0.88364024370E+02  0.91083321618E+02  0.00000000000E+00 0. -1.
<scales pt_clust_5="13000.00000" pt_clust_6="13000.00000" pt_clust_7="13000.00000" pt_clust_8="13000.00000" pt_clust_9="22.09006"></scales>
<clustering>
<clus scale="   22.090">  2  9  1 -1</clus>
<clus scale="   80.453">  5  6 -1 -1</clus>
<clus scale="   99.922">  7  8 -1 -1</clus>
<clus scale="  116.178">  1  5  2 -1</clus>
<clus scale="   22.090">  2  5  1 -1</clus>
</clustering>
</event>
<event>
 9    1  0.1973774E-005  0.1122714E+03  0.7546771E-02  0.1266706E+00
          1   -1    0    0  502    0  0.00000000000E+00  0.00000000000E+00  0.23440386139E+03  0.23440386139E+03  0.00000000000E+00 0. -1.
         -2   -1    0    0    0  501 -0.00000000000E+00 -0.00000000000E+00 -0.30514118441E+03  0.30514118441E+03  0.00000000000E+00 0.  1.
        -24    2    1    2    0    0  0.41403833604E+02  0.18828152271E+02 -0.26675956097E+03  0.27809692830E+03  0.64097280799E+02 0.  0.
         23    2    1    2    0    0 -0.64801222474E+02 -0.16142878327E+02  0.20674286971E+03  0.23557186492E+03  0.91058763502E+02 0.  0.
         11    1    3    3    0    0  0.21761391290E+02 -0.21231577307E+02 -0.69573731779E+02  0.75926557800E+02  0.00000000000E+00 0. -1.
        -12    1    3    3    0    0  0.19642442313E+02  0.40059729578E+02 -0.19718582920E+03  0.20217037050E+03  0.00000000000E+00 0.  1.
        -11    1    4    4    0    0 -0.54405059814E+02  0.19916742827E+02  0.18104277953E+03  0.19008702007E+03  0.00000000000E+00 0. -1.
         11    1    4    4    0    0 -0.10396162660E+02 -0.36059621154E+02  0.25700090179E+02  0.45484844850E+02  0.00000000000E+00 0.  1.
         21    1    1    2  502  501  0.23397388870E+02 -0.26852739439E+01 -0.10720631756E+02  0.25876252575E+02  0.00000000000E+00 0. -1.
<scales pt_clust_5="13000.00000" pt_clust_6="13000.00000" pt_clust_7="13000.00000" pt_clust_8="13000.00000" pt_clust_9="23.55098"></scales>
<clustering>
<clus scale="   23.551">  2  9  1 -1</clus>
<clus scale="   64.097">  5  6 -1 -1</clus>
<clus scale="   91.059">  7  8 -1 -1</clus>
<clus scale="   91.769">  2  5  1 -1</clus>
<clus scale="  112.271">  1  5  2 -1</clus>
</clustering>
</event>
<event>
 9    1  0.1973774E-005  0.1324300E+03  0.7546771E-02  0.1227112E+00
          1   -1    0    0  502    0  0.00000000000E+00  0.00000000000E+00  0.45780919465E+03  0.45780919465E+03  0.00000000000E+00 0. -1.
         -2   -1    0    0    0  501 -0.00000000000E+00 -0.00000000000E+00 -0.19572849526E+03  0.19572849526E+03  0.00000000000E+00 0.  1.
        -24    2    1    2    0    0  0.85224194379E+02 -0.69804628685E+01 -0.11519144565E+03  0.16426428347E+03  0.80011221121E+02 0.  0.
         23    2    1    2    0    0 -0.18084434638E+03 -0.43376632756E+01  0.18786372888E+03  0.27679549804E+03  0.92733349813E+02 0.  0.
         13    1    3    3    0    0  0.89562223128E+02  0.17868425438E+02 -0.83369591544E+02  0.12365743501E+03  0.00000000000E+00 0. -1.
        -14    1    3    3    0    0 -0.43380287488E+01 -0.24848888306E+02 -0.31821854101E+02  0.40606848461E+02  0.00000000000E+00 0.  1.
        -13    1    4    4    0    0 -0.15041303931E+03  0.11163840370E+02  0.95994871351E+02  0.17878402908E+03  0.00000000000E+00 0.  1.
         13    1    4    4    0    0 -0.30431307066E+02 -0.15501503646E+02  0.91868857530E+02  0.98011468966E+02  0.00000000000E+00 0. -1.
         21    1    1    2  502  501  0.95620151999E+02  0.11318126144E+02  0.18940841616E+03  0.21247790840E+03  0.00000000000E+00 0. -1.
<scales pt_clust_5="13000.00000" pt_clust_6="13000.00000" pt_clust_7="13000.00000" pt_clust_8="13000.00000" pt_clust_9="96.28766"></scales>
<clustering>
<clus scale="   80.011">  5  6 -1 -1</clus>
<clus scale="   92.733">  7  8 -1 -1</clus>
<clus scale="   96.288">  1  9  2 -1</clus>
<clus scale="  123.855">  2  5  1 -1</clus>
<clus scale="   96.288">  1  5  2 -1</clus>
</clustering>
</event>
<event>
 9    1  0.1973774E-005  0.1664510E+03  0.7546771E-02  0.1182905E+00
         -2   -1    0    0    0  501 -0.00000000000E+00  0.00000000000E+00  0.22338344584E+03  0.22338344584E+03  0.00000000000E+00 0.  1.
          1   -1    0    0  502    0  0.00000000000E+00 -0.00000000000E+00 -0.20578337506E+03  0.20578337506E+03  0.00000000000E+00 0. -1.
         23    2    1    2    0    0 -0.15320201220E+03 -0.48752728450E+02  0.10211250530E+03  0.21113082356E+03  0.91112983945E+02 0.  0.
        -24    2    1    2    0    0  0.10650716949E+03  0.92286673313E+01 -0.34708876912E+02  0.13915029463E+03  0.82031414138E+02 0.  0.
         13    1    4    4    0    0  0.11434741761E+03 -0.89196387940E+01 -0.32779162640E+02  0.11928690361E+03  0.00000000000E+00 0. -1.
        -14    1    4    4    0    0 -0.78402481138E+01  0.18148306125E+02 -0.19297142715E+01  0.19863391021E+02  0.00000000000E+00 0.  1.
        -13    1    3    3    0    0 -0.32954719408E+02 -0.49334522296E+02  0.58215994162E+02  0.83120458358E+02  0.00000000000E+00 0.  1.
         13    1    3    3    0    0 -0.12024729279E+03  0.58179384553E+00  0.43896511139E+02  0.12801036520E+03  0.00000000000E+00 0. -1.
         21    1    1    2  502  501  0.46694842708E+02  0.39524061119E+02 -0.49803557606E+02  0.78885702716E+02  0.00000000000E+00 0. -1.
<scales pt_clust_5="13000.00000" pt_clust_6="13000.00000" pt_clust_7="13000.00000" pt_clust_8="13000.00000" pt_clust_9="61.17646"></scales>
<clustering>
<clus scale="   61.176">  2  9  1 -1</clus>
<clus scale="   82.031">  5  6 -1 -1</clus>
<clus scale="   91.113">  7  8 -1 -1</clus>
<clus scale="  161.659">  2  5  1 -1</clus>
<clus scale="   61.176">  2  5  1 -1</clus>
</clustering>
</event>
<event>
 9    1  0.1973774E-005  0.2157741E+03  0.7546771E-02  0.1141771E+00
          1   -1    0    0  502    0  0.00000000000E+00  0.00000000000E+00  0.37324477137E+03  0.37324477137E+03  0.00000000000E+00 0. -1.
         -2   -1    0    0    0  501 -0.00000000000E+00 -0.00000000000E+00 -0.17038850201E+03  0.17038850201E+03  0.00000000000E+00 0.  1.
        -24    2    1    2    0    0 -0.65989240800E+02  0.18313506792E+03 -0.14867051598E+02  0.21114139323E+03  0.80415332567E+02 0.  0.
         23    2    1    2    0    0  0.67221656068E+02 -0.11690948611E+03  0.16820857942E+03  0.24979329393E+03  0.12615856893E+03 0.  0.
         13    1    3    3    0    0 -0.59653482247E+02  0.11095221639E+03  0.25013407835E+02  0.12843131564E+03  0.00000000000E+00 0. -1.
        -14    1    3    3    0    0 -0.63357585538E+01  0.72182851528E+02 -0.39880459432E+02  0.82710077594E+02  0.00000000000E+00 0.  1.
        -11    1    4    4    0    0  0.99796871648E+02 -0.87099484871E+02  0.15460517271E+03  0.20358903527E+03  0.00000000000E+00 0. -1.
         11    1    4    4    0    0 -0.32575215580E+02 -0.29810001236E+02  0.13603406712E+02  0.46204258656E+02  0.00000000000E+00 0.  1.
         21    1    1    2  502  501 -0.12324152678E+01 -0.66225581808E+02  0.49514741534E+02  0.82698586218E+02  0.00000000000E+00 0. -1.
<scales pt_clust_5="13000.00000" pt_clust_6="13000.00000" pt_clust_7="13000.00000" pt_clust_8="13000.00000" pt_clust_9="66.23705"></scales>
<clustering>
<clus scale="   66.237">  1  9  2 -1</clus>
<clus scale="   80.415">  5  6 -1 -1</clus>
<clus scale="  126.159">  7  8 -1 -1</clus>
<clus scale="  192.637">  2  5  1 -1</clus>
<clus scale="   66.237">  1  5  2 -1</clus>
</clustering>
</event>
<event>
 9    1  0.1973774E-005  0.1290523E+03  0.7546771E-02  0.1232010E+00
         -2   -1    0    0    0  501 -0.00000000000E+00  0.00000000000E+00  0.49673958285E+02  0.49673958285E+02  0.00000000000E+00 0.  1.
          1   -1    0    0  502    0  0.00000000000E+00 -0.00000000000E+00 -0.83239924361E+03  0.83239924361E+03  0.00000000000E+00 0. -1.
         23    2    1    2    0    0  0.58068347999E+02  0.65688429082E+02 -0.71559984202E+02  0.14597550399E+03  0.92201484104E+02 0.  0.
        -24    2    1    2    0    0 -0.33540969584E+02 -0.10114587855E+03 -0.39397339206E+03  0.41598907543E+03  0.80476032651E+02 0.  0.
         11    1    4    4    0    0  0.39638338709E+01 -0.47585688525E+02 -0.28446902042E+03  0.28844884003E+03  0.00000000000E+00 0. -1.
        -12    1    4    4    0    0 -0.37504803455E+02 -0.53560190024E+02 -0.10950437164E+03  0.12754023540E+03  0.00000000000E+00 0.  1.
        -13    1    3    3    0    0  0.39181040591E+02  0.46440356846E+02  0.86319297050E+01  0.61370765811E+02  0.00000000000E+00 0.  1.
         13    1    3    3    0    0  0.18887307408E+02  0.19248072235E+02 -0.80191913907E+02  0.84604738177E+02  0.00000000000E+00 0. -1.
         21    1    1    2  502  501 -0.24527378415E+02  0.35457449467E+02 -0.31719190906E+03  0.32010862248E+03  0.00000000000E+00 0. -1.
<scales pt_clust_5="13000.00000" pt_clust_6="13000.00000" pt_clust_7="13000.00000" pt_clust_8="13000.00000" pt_clust_9="43.11407"></scales>
<clustering>
<clus scale="   43.114">  2  9  1 -1</clus>
<clus scale="   80.476">  5  6 -1 -1</clus>
<clus scale="   92.201">  7  8 -1 -1</clus>
<clus scale="  120.954">  2  5  1 -1</clus>
<clus scale="   43.114">  2  5  1 -1</clus>
</clustering>
</event>
<event>
 9    1  0.1973774E-005  0.1000829E+03  0.7546771E-02  0.1285583E+00
         -2   -1    0    0    0  501 -0.00000000000E+00  0.00000000000E+00  0.18422150127E+03  0.18422150127E+03  0.00000000000E+00 0.  1.
          1   -1    0    0  502    0  0.00000000000E+00 -0.00000000000E+00 -0.10442215296E+03  0.10442215296E+03  0.00000000000E+00 0. -1.
        -24    2    1    2    0    0 -0.36941266562E+02  0.53259389441E+00  0.89142596304E+02  0.12451275438E+03  0.78689787752E+02 0.  0.
         23    2    1    2    0    0  0.63789531976E+02 -0.38529641812E+02 -0.95538428445E-01  0.11669541588E+03  0.89800742046E+02 0.  0.
         11    1    3    3    0    0 -0.55739372054E+02  0.20861055088E+01  0.89716058031E+02  0.10564185014E+03  0.00000000000E+00 0. -1.
        -12    1    3    3    0    0  0.18798105492E+02 -0.15535116143E+01 -0.57346172661E+00  0.18870904238E+02  0.00000000000E+00 0.  1.
        -11    1    4    4    0    0  0.41166575703E+02  0.21425819491E+02  0.18515750527E+02  0.49965845470E+02  0.00000000000E+00 0.  1.
         11    1    4    4    0    0  0.22622956273E+02 -0.59955461303E+02 -0.18611288956E+02  0.66729570411E+02  0.00000000000E+00 0. -1.
         21    1    1    2  502  501 -0.26848265414E+02  0.37997047918E+02 -0.92477095667E+01  0.47435483959E+02  0.00000000000E+00 0. -1.
<scales pt_clust_5="13000.00000" pt_clust_6="13000.00000" pt_clust_7="13000.00000" pt_clust_8="13000.00000" pt_clust_9="46.52532"></scales>
<clustering>
<clus scale="   46.525">  2  9  1 -1</clus>
<clus scale="   78.690">  5  6 -1 -1</clus>
<clus scale="   89.801">  7  8 -1 -1</clus>
<clus scale="   90.247">  1  5  2 -1</clus>
<clus scale="   46.525">  2  5  1 -1</clus>
</clustering>
</event>
<event>
 9    1  0.1973774E-005  0.9928674E+02  0.7546771E-02  0.1289048E+00
         -2   -1    0    0    0  501 -0.00000000000E+00  0.00000000000E+00  0.42279509504E+02  0.42279509504E+02  0.00000000000E+00 0.  1.
          1   -1    0    0  502    0  0.00000000000E+00 -0.00000000000E+00 -0.37504145517E+03  0.37504145517E+03  0.00000000000E+00 0. -1.
        -24    2    1    2    0    0  0.79618782847E+01  0.27578629822E+02 -0.39497897485E+02  0.93384640068E+02  0.79602982143E+02 0.  0.
         23    2    1    2    0    0 -0.30446158854E+02 -0.46138009959E+02 -0.22803046451E+03  0.25248414548E+03  0.93245195161E+02 0.  0.
         11    1    3    3    0    0 -0.15976695174E+02  0.48126244433E+02 -0.34770243863E+02  0.61484632635E+02  0.00000000000E+00 0. -1.
        -12    1    3    3    0    0  0.23938573459E+02 -0.20547614611E+02 -0.47276536220E+01  0.31900007433E+02  0.00000000000E+00 0.  1.
        -11    1    4    4    0    0 -0.41227909170E+02 -0.46135307865E+01 -0.19208699820E+03  0.19651575010E+03  0.00000000000E+00 0.  1.
         11    1    4    4    0    0  0.10781750316E+02 -0.41524479172E+02 -0.35943466310E+02  0.55968395375E+02  0.00000000000E+00 0. -1.
         21    1    1    2  502  501  0.22484280569E+02  0.18559380137E+02 -0.65233583670E+02  0.71452179129E+02  0.00000000000E+00 0. -1.
<scales pt_clust_5="13000.00000" pt_clust_6="13000.00000" pt_clust_7="13000.00000" pt_clust_8="13000.00000" pt_clust_9="29.15465"></scales>
<clustering>
<clus scale="   29.155">  2  9  1 -1</clus>
<clus scale="   79.603">  5  6 -1 -1</clus>
<clus scale="   86.602">  1  5  2 -1</clus>
<clus scale="   93.245">  7  8 -1 -1</clus>
<clus scale="   29.155">  2  5  1 -1</clus>
</clustering>
</event>
<event>
 9    1  0.1973774E-005  0.9014277E+02  0.7546771E-02  0.1308201E+00
         -2   -1    0    0    0  501 -0.00000000000E+00  0.00000000000E+00  0.99703773250E+02  0.99703773250E+02  0.00000000000E+00 0.  1.
          1   -1    0    0  502    0  0.00000000000E+00 -0.00000000000E+00 -0.22871071694E+03  0.22871071694E+03  0.00000000000E+00 0. -1.
        -24    2    1    2    0    0 -0.76358496260E+01  0.55619773403E+01  0.48255415845E+02  0.93732183859E+02  0.79799093612E+02 0.  0.
         23    2    1    2    0    0  0.35115441780E+02 -0.13328026565E+02 -0.59129415145E+02  0.11314699436E+03  0.88855073316E+02 0.  0.
         11    1    3    3    0    0  0.32168585844E+02 -0.80399822423E+01  0.52428809008E+01  0.33570031722E+02  0.00000000000E+00 0. -1.
        -12    1    3    3    0    0 -0.39804435470E+02  0.13601959583E+02  0.43012534944E+02  0.60162152138E+02  0.00000000000E+00 0.  1.
        -13    1    4    4    0    0 -0.25020659889E+02 -0.24785239199E+02 -0.22982405387E+02  0.42053923252E+02  0.00000000000E+00 0. -1.
         13    1    4    4    0    0  0.60136101669E+02  0.11457212634E+02 -0.36147009758E+02  0.71093071109E+02  0.00000000000E+00 0.  1.
         21    1    1    2  502  501 -0.27479592154E+02  0.77660492250E+01 -0.11813294439E+03  0.12153531197E+03  0.00000000000E+00 0.  1.
<scales pt_clust_5="13000.00000" pt_clust_6="13000.00000" pt_clust_7="13000.00000" pt_clust_8="13000.00000" pt_clust_9="28.55590"></scales>
<clustering>
<clus scale="   28.556">  2  9  1 -1</clus>
<clus scale="   79.799">  5  6 -1 -1</clus>
<clus scale="   81.230">  1  5  2 -1</clus>
<clus scale="   88.855">  7  8 -1 -1</clus>
<clus scale="   28.556">  2  5  1 -1</clus>
</clustering>
</event>
<event>
 9    1  0.1973774E-005  0.9856171E+02  0.7546771E-02  0.1291177E+00
         -2   -1    0    0    0  501 -0.00000000000E+00  0.00000000000E+00  0.78243939227E+02  0.78243939227E+02  0.00000000000E+00 0.  1.
          1   -1    0    0  502    0  0.00000000000E+00 -0.00000000000E+00 -0.28899258201E+03  0.28899258201E+03  0.00000000000E+00 0. -1.
         23    2    1    2    0    0  0.71801792533E+01  0.38266412789E+02  0.23597369512E+02  0.10258789344E+03  0.91932402937E+02 0.  0.
        -24    2    1    2    0    0  0.26559214594E+02 -0.24612876781E+02 -0.14631569881E+03  0.16939054764E+03  0.77289639214E+02 0.  0.
         13    1    4    4    0    0 -0.13442730234E+02 -0.15128804510E+02 -0.11739361826E+03  0.11912535133E+03  0.00000000000E+00 0. -1.
        -14    1    4    4    0    0  0.40001944828E+02 -0.94840722710E+01 -0.28922080549E+02  0.50265196311E+02  0.00000000000E+00 0.  1.
        -11    1    3    3    0    0 -0.76517446003E+01 -0.24287542422E+02 -0.13022902110E+02  0.28601221856E+02  0.00000000000E+00 0. -1.
         11    1    3    3    0    0  0.14831923854E+02  0.62553955210E+02  0.36620271622E+02  0.73986671579E+02  0.00000000000E+00 0.  1.
         21    1    1    2  502  501 -0.33739393847E+02 -0.13653536008E+02 -0.88030313482E+02  0.95258080153E+02  0.00000000000E+00 0. -1.
<scales pt_clust_5="13000.00000" pt_clust_6="13000.00000" pt_clust_7="13000.00000" pt_clust_8="13000.00000" pt_clust_9="36.39733"></scales>
<clustering>
<clus scale="   36.397">  2  9  1 -1</clus>
<clus scale="   77.290">  5  6 -1 -1</clus>
<clus scale="   85.068">  2  5  1 -1</clus>
<clus scale="   91.932">  7  8 -1 -1</clus>
<clus scale="   36.397">  2  5  1 -1</clus>
</clustering>
</event>
<event>
 9    1  0.1973774E-005  0.1335705E+03  0.7546771E-02  0.1223296E+00
          3   -1    0    0  502    0  0.00000000000E+00  0.00000000000E+00  0.33355018543E+03  0.33355018543E+03  0.00000000000E+00 0. -1.
         -4   -1    0    0    0  501 -0.00000000000E+00 -0.00000000000E+00 -0.11624152035E+03  0.11624152035E+03  0.00000000000E+00 0.  1.
         23    2    1    2    0    0 -0.10092924378E+03 -0.97922525272E+01 -0.46272611281E+02  0.14248862925E+03  0.88765164626E+02 0.  0.
        -24    2    1    2    0    0  0.87983522699E+02  0.33948219279E+02  0.23926994014E+03  0.27066779991E+03  0.84364517368E+02 0.  0.
         13    1    4    4    0    0  0.57201338445E+02  0.28708528132E+02  0.22903355147E+03  0.23780778037E+03  0.00000000000E+00 0. -1.
        -14    1    4    4    0    0  0.30782184253E+02  0.52396911467E+01  0.10236388678E+02  0.32860019536E+02  0.00000000000E+00 0.  1.
        -13    1    3    3    0    0 -0.35998260695E+02  0.11483284445E+02 -0.61783953571E+02  0.72422355068E+02  0.00000000000E+00 0.  1.
         13    1    3    3    0    0 -0.64930983089E+02 -0.21275536973E+02  0.15511342291E+02  0.70066274184E+02  0.00000000000E+00 0. -1.
         21    1    1    2  502  501  0.12945721085E+02 -0.24155966752E+02  0.24311336219E+02  0.36635276618E+02  0.00000000000E+00 0. -1.
<scales pt_clust_5="13000.00000" pt_clust_6="13000.00000" pt_clust_7="13000.00000" pt_clust_8="13000.00000" pt_clust_9="27.40625"></scales>
<clustering>
<clus scale="   27.406">  1  9  2 -1</clus>
<clus scale="   84.365">  5  6 -1 -1</clus>
<clus scale="   88.765">  7  8 -1 -1</clus>
<clus scale="  130.687">  1  5  2 -1</clus>
<clus scale="   27.406">  1  5  2 -1</clus>
</clustering>
</event>
<event>
 9    1  0.1973774E-005  0.2459649E+03  0.7546771E-02  0.1116758E+00
          1   -1    0    0  502    0  0.00000000000E+00  0.00000000000E+00  0.19046391254E+03  0.19046391254E+03  0.00000000000E+00 0. -1.
         -2   -1    0    0    0  501 -0.00000000000E+00 -0.00000000000E+00 -0.46648029769E+03  0.46648029769E+03  0.00000000000E+00 0.  1.
        -24    2    1    2    0    0 -0.26190000430E+03 -0.56749456527E+01 -0.24689509879E+03  0.36865227907E+03  0.79520411179E+02 0.  0.
         23    2    1    2    0    0  0.21352508807E+03 -0.44518930849E+01 -0.57617333240E+01  0.23362609081E+03  0.94526028953E+02 0.  0.
         13    1    3    3    0    0 -0.57529863640E+02  0.25762061083E+02 -0.86142961247E+02  0.10674258182E+03  0.00000000000E+00 0. -1.
        -14    1    3    3    0    0 -0.20437014066E+03 -0.31437006736E+02 -0.16075213754E+03  0.26190969725E+03  0.00000000000E+00 0.  1.
        -13    1    4    4    0    0  0.46067130808E+02 -0.19986141393E+02 -0.37254133318E+02  0.62525969308E+02  0.00000000000E+00 0.  1.
         13    1    4    4    0    0  0.16745795727E+03  0.15534248309E+02  0.31492399994E+02  0.17110012151E+03  0.00000000000E+00 0. -1.
         21    1    1    2  502  501  0.48374916231E+02  0.10126838738E+02 -0.23359553032E+02  0.54665840348E+02  0.00000000000E+00 0. -1.
<scales pt_clust_5="13000.00000" pt_clust_6="13000.00000" pt_clust_7="13000.00000" pt_clust_8="13000.00000" pt_clust_9="49.42353"></scales>
<clustering>
<clus scale="   49.424">  2  9  1 -1</clus>
<clus scale="   79.520">  5  6 -1 -1</clus>
<clus scale="   94.526">  7  8 -1 -1</clus>
<clus scale="  240.597">  2  5  1 -1</clus>
<clus scale="  245.965">  1  5  2 -1</clus>
</clustering>
</event>
<event>
 9    1  0.1973774E-005  0.1296930E+03  0.7546771E-02  0.1231200E+00
          1   -1    0    0  502    0  0.00000000000E+00  0.00000000000E+00  0.52950426370E+03  0.52950426370E+03  0.00000000000E+00 0. -1.
         -2   -1    0    0    0  501 -0.00000000000E+00 -0.00000000000E+00 -0.13738356396E+03  0.13738356396E+03  0.00000000000E+00 0.  1.
         23    2    1    2    0    0 -0.55868178736E+02  0.69606635552E+02 -0.83162215783E+02  0.15310026646E+03  0.92506217886E+02 0.  0.
        -24    2    1    2    0    0  0.91381093787E+02 -0.70442530608E+02  0.44647421123E+03  0.46805128130E+03  0.80125690103E+02 0.  0.
         13    1    4    4    0    0  0.87366503438E+02 -0.72918019254E+02  0.44864997829E+03  0.46285715558E+03  0.00000000000E+00 0. -1.
        -14    1    4    4    0    0  0.40145903489E+01  0.24754886458E+01 -0.21757670583E+01  0.51941257202E+01  0.00000000000E+00 0.  1.
        -13    1    3    3    0    0 -0.52590900233E+02  0.30534503116E+02 -0.94418063589E+02  0.11230729896E+03  0.00000000000E+00 0.  1.
         13    1    3    3    0    0 -0.32772785024E+01  0.39072132436E+02  0.11255847806E+02  0.40792967498E+02  0.00000000000E+00 0. -1.
         21    1    1    2  502  501 -0.35512915051E+02  0.83589505622E+00  0.28808704290E+02  0.45736279897E+02  0.00000000000E+00 0.  1.
<scales pt_clust_5="13000.00000" pt_clust_6="13000.00000" pt_clust_7="13000.00000" pt_clust_8="13000.00000" pt_clust_9="35.52275"></scales>
<clustering>
<clus scale="   35.523">  1  9  2 -1</clus>
<clus scale="   80.126">  5  6 -1 -1</clus>
<clus scale="   92.506">  7  8 -1 -1</clus>
<clus scale="  121.173">  1  5  2 -1</clus>
<clus scale="   35.523">  1  5  2 -1</clus>
</clustering>
</event>
<event>
 9    1  0.1973774E-005  0.2332207E+03  0.7546771E-02  0.1125128E+00
         -4   -1    0    0    0  501 -0.00000000000E+00  0.00000000000E+00  0.78897654018E+03  0.78897654018E+03  0.00000000000E+00 0.  1.
          3   -1    0    0  502    0  0.00000000000E+00 -0.00000000000E+00 -0.38261059098E+03  0.38261059098E+03  0.00000000000E+00 0. -1.
         23    2    1    2    0    0 -0.19427890512E+03 -0.11128818581E+03  0.72449962123E+03  0.76356218046E+03  0.89432371072E+02 0.  0.
        -24    2    1    2    0    0  0.10757812217E+03  0.40150909945E+02 -0.21380750813E+03  0.25485352302E+03  0.77791514460E+02 0.  0.
         11    1    4    4    0    0  0.84266243000E+02  0.62403120419E+02 -0.17873769708E+03  0.20722478979E+03  0.00000000000E+00 0. -1.
        -12    1    4    4    0    0  0.23311879167E+02 -0.22252210474E+02 -0.35069811055E+02  0.47628733226E+02  0.00000000000E+00 0.  1.
        -11    1    3    3    0    0 -0.38505278629E+02  0.73570869580E+01  0.19767231828E+03  0.20152203012E+03  0.00000000000E+00 0. -1.
         11    1    3    3    0    0 -0.15577362649E+03 -0.11864527277E+03  0.52682730295E+03  0.56204015035E+03  0.00000000000E+00 0.  1.
         21    1    1    2  502  501  0.86700782955E+02  0.71137275869E+02 -0.10432616389E+03  0.15317142767E+03  0.00000000000E+00 0. -1.
<scales pt_clust_5="13000.00000" pt_clust_6="13000.00000" pt_clust_7="13000.00000" pt_clust_8="13000.00000" pt_clust_9="112.14962"></scales>
<clustering>
<clus scale="   77.792">  5  6 -1 -1</clus>
<clus scale="   89.432">  7  8 -1 -1</clus>
<clus scale="  112.150">  2  9  1 -1</clus>
<clus scale="  229.009">  2  5  1 -1</clus>
<clus scale="  112.150">  2  5  1 -1</clus>
</clustering>
</event>
<event>
 9    1  0.1973774E-005  0.1417455E+03  0.7546771E-02  0.1214481E+00
          1   -1    0    0  502    0  0.00000000000E+00  0.00000000000E+00  0.73779880294E+03  0.73779880294E+03  0.00000000000E+00 0. -1.
         -2   -1    0    0    0  501 -0.00000000000E+00 -0.00000000000E+00 -0.34721658915E+02  0.34721658915E+02  0.00000000000E+00 0.  1.
        -24    2    1    2    0    0 -0.97602984149E+02 -0.96055552034E+01  0.18515112755E+03  0.22375650025E+03  0.78532936823E+02 0.  0.
         23    2    1    2    0    0  0.12162954587E+03  0.19432735678E+01  0.41140208848E+03  0.43929554852E+03  0.94505967010E+02 0.  0.
         11    1    3    3    0    0 -0.74200239317E+02  0.28724877285E+02  0.13249154967E+03  0.15454709581E+03  0.00000000000E+00 0. -1.
        -12    1    3    3    0    0 -0.23402744832E+02 -0.38330432488E+02  0.52659577880E+02  0.69209404440E+02  0.00000000000E+00 0.  1.
        -13    1    4    4    0    0  0.11547701036E+03 -0.27357000253E+02  0.27276853862E+03  0.29746599982E+03  0.00000000000E+00 0.  1.
         13    1    4    4    0    0  0.61525355172E+01  0.29300273821E+02  0.13863354986E+03  0.14182954870E+03  0.00000000000E+00 0. -1.
         21    1    1    2  502  501 -0.24026561725E+02  0.76622816355E+01  0.10652392799E+03  0.10946841308E+03  0.00000000000E+00 0. -1.
<scales pt_clust_5="13000.00000" pt_clust_6="13000.00000" pt_clust_7="13000.00000" pt_clust_8="13000.00000" pt_clust_9="25.21877"></scales>
<clustering>
<clus scale="   25.219">  1  9  2 -1</clus>
<clus scale="   78.533">  5  6 -1 -1</clus>
<clus scale="   94.506">  7  8 -1 -1</clus>
<clus scale="  131.635">  2  5  1 -1</clus>
<clus scale="   25.219">  1  5  2 -1</clus>
</clustering>
</event>
<event>
 9    1  0.1973774E-005  0.1185121E+03  0.7546771E-02  0.1246296E+00
         -2   -1    0    0    0  501 -0.00000000000E+00  0.00000000000E+00  0.37699903746E+03  0.37699903746E+03  0.00000000000E+00 0.  1.
          1   -1    0    0  502    0  0.00000000000E+00 -0.00000000000E+00 -0.10918702631E+03  0.10918702631E+03  0.00000000000E+00 0. -1.
         23    2    1    2    0    0 -0.27860605413E+02  0.72763366980E+02  0.27997450314E+03  0.30285292949E+03  0.85225897376E+02 0.  0.
        -24    2    1    2    0    0  0.30986295475E+02 -0.11082429575E+03 -0.22999348618E+02  0.14363626162E+03  0.82826508915E+02 0.  0.
         11    1    4    4    0    0  0.32449480069E+02 -0.11550798761E+03  0.14290086764E+00  0.11997951650E+03  0.00000000000E+00 0. -1.
        -12    1    4    4    0    0 -0.14631845938E+01  0.46836918558E+01 -0.23142249486E+02  0.23656745123E+02  0.00000000000E+00 0.  1.
        -13    1    3    3    0    0  0.27177382193E+02  0.41343210981E+02  0.91664059653E+02  0.10416415424E+03  0.00000000000E+00 0. -1.
         13    1    3    3    0    0 -0.55037987606E+02  0.31420155999E+02  0.18831044349E+03  0.19868877525E+03  0.00000000000E+00 0.  1.
         21    1    1    2  502  501 -0.31256900628E+01  0.38060928775E+02  0.10836856621E+02  0.39696872661E+02  0.00000000000E+00 0.  1.
<scales pt_clust_5="13000.00000" pt_clust_6="13000.00000" pt_clust_7="13000.00000" pt_clust_8="13000.00000" pt_clust_9="38.18906"></scales>
<clustering>
<clus scale="   38.189">  2  9  1 -1</clus>
<clus scale="   82.827">  5  6 -1 -1</clus>
<clus scale="   85.226">  7  8 -1 -1</clus>
<clus scale="  116.799">  2  5  1 -1</clus>
<clus scale="   38.189">  2  5  1 -1</clus>
</clustering>
</event>
<event>
 9    1  0.1973774E-005  0.1283118E+03  0.7546771E-02  0.1233715E+00
         -2   -1    0    0    0  501 -0.00000000000E+00  0.00000000000E+00  0.10174755983E+03  0.10174755983E+03  0.00000000000E+00 0.  1.
          1   -1    0    0  502    0  0.00000000000E+00 -0.00000000000E+00 -0.33319930065E+03  0.33319930065E+03  0.00000000000E+00 0. -1.
         23    2    1    2    0    0 -0.14579414053E+01 -0.10020420161E+03 -0.54114494701E+01  0.13669752230E+03  0.92811212712E+02 0.  0.
        -24    2    1    2    0    0  0.35260942119E+02  0.69891490518E+02 -0.60747898084E+02  0.12683440713E+03  0.79173892317E+02 0.  0.
         13    1    4    4    0    0  0.33345641583E+02  0.75175494742E+02 -0.75131730874E+02  0.11139148893E+03  0.00000000000E+00 0. -1.
        -14    1    4    4    0    0  0.19153005361E+01 -0.52840042238E+01  0.14383832790E+02  0.15442918199E+02  0.00000000000E+00 0.  1.
        -13    1    3    3    0    0 -0.15005672538E+02 -0.11500350437E+03 -0.89532021291E+01  0.11632341146E+03  0.00000000000E+00 0.  1.
         13    1    3    3    0    0  0.13547731132E+02  0.14799302755E+02  0.35417526589E+01  0.20374110846E+02  0.00000000000E+00 0. -1.
         21    1    1    2  502  501 -0.33803000714E+02  0.30312711092E+02 -0.16529239327E+03  0.17141493104E+03  0.00000000000E+00 0. -1.
<scales pt_clust_5="13000.00000" pt_clust_6="13000.00000" pt_clust_7="13000.00000" pt_clust_8="13000.00000" pt_clust_9="45.40378"></scales>
<clustering>
<clus scale="   45.404">  2  9  1 -1</clus>
<clus scale="   79.174">  5  6 -1 -1</clus>
<clus scale="   92.811">  7  8 -1 -1</clus>
<clus scale="  118.821">  2  5  1 -1</clus>
<clus scale="   45.404">  2  5  1 -1</clus>
</clustering>
</event>
<event>
 9    1  0.1973774E-005  0.1663421E+03  0.7546771E-02  0.1214757E+00
         -2   -1    0    0    0  501 -0.00000000000E+00  0.00000000000E+00  0.45179845366E+02  0.45179845366E+02  0.00000000000E+00 0.  1.
          1   -1    0    0  502    0  0.00000000000E+00 -0.00000000000E+00 -0.12543948519E+04  0.12543948519E+04  0.00000000000E+00 0. -1.
        -24    2    1    2    0    0 -0.75232745844E+01  0.95772118261E+01 -0.46735418471E+02  0.93494199115E+02  0.80054002284E+02 0.  0.
         23    2    1    2    0    0 -0.13530983045E+03 -0.63637564296E+00 -0.42399444465E+03  0.45385610245E+03  0.88909602671E+02 0.  0.
         11    1    3    3    0    0  0.33492268089E+02 -0.36928200355E-03 -0.37678851472E+02  0.50412576507E+02  0.00000000000E+00 0. -1.
        -12    1    3    3    0    0 -0.41015542674E+02  0.95775811081E+01 -0.90565669995E+01  0.43081622608E+02  0.00000000000E+00 0.  1.
        -13    1    4    4    0    0 -0.92191228693E+02  0.27137758276E+02 -0.35565806419E+03  0.36841327228E+03  0.00000000000E+00 0.  1.
         13    1    4    4    0    0 -0.43118601758E+02 -0.27774133919E+02 -0.68336380465E+02  0.85442830171E+02  0.00000000000E+00 0. -1.
         21    1    1    2  502  501  0.14283310504E+03 -0.89408361831E+01 -0.73848514341E+03  0.75222439570E+03  0.00000000000E+00 0. -1.
<scales pt_clust_5="13000.00000" pt_clust_6="13000.00000" pt_clust_7="13000.00000" pt_clust_8="13000.00000" pt_clust_9="140.58724"></scales>
<clustering>
<clus scale="   80.054">  5  6 -1 -1</clus>
<clus scale="   80.975">  1  5  2 -1</clus>
<clus scale="   88.910">  7  8 -1 -1</clus>
<clus scale="  140.587">  2  9  1 -1</clus>
<clus scale="  140.587">  2  5  1 -1</clus>
</clustering>
</event>
<event>
 9    1  0.1973774E-005  0.9193042E+02  0.7546771E-02  0.1306472E+00
          1   -1    0    0  502    0  0.00000000000E+00  0.00000000000E+00  0.30659244374E+03  0.30659244374E+03  0.00000000000E+00 0. -1.
         -2   -1    0    0    0  501 -0.00000000000E+00 -0.00000000000E+00 -0.99600822201E+02  0.99600822201E+02  0.00000000000E+00 0.  1.
         23    2    1    2    0    0 -0.10748286824E+02  0.33800471660E+01 -0.59983324550E+02  0.10975732234E+03  0.91223462960E+02 0.  0.
        -24    2    1    2    0    0  0.14360238132E+02  0.18344121097E+02  0.10506695708E+03  0.13303709849E+03  0.78211769485E+02 0.  0.
         11    1    4    4    0    0  0.19775563120E+02  0.47666442124E+02  0.70824923931E+02  0.87631800457E+02  0.00000000000E+00 0. -1.
        -12    1    4    4    0    0 -0.54153249871E+01 -0.29322321027E+02  0.34242033146E+02  0.45405298029E+02  0.00000000000E+00 0.  1.
        -13    1    3    3    0    0 -0.44153114934E+02 -0.22026976157E+02 -0.38648081581E+02  0.62676626001E+02  0.00000000000E+00 0.  1.
         13    1    3    3    0    0  0.33404828109E+02  0.25407023323E+02 -0.21335242970E+02  0.47080696339E+02  0.00000000000E+00 0. -1.
         21    1    1    2  502  501 -0.36119513080E+01 -0.21724168263E+02  0.16190798901E+03  0.16339884511E+03  0.00000000000E+00 0.  1.
<scales pt_clust_5="13000.00000" pt_clust_6="13000.00000" pt_clust_7="13000.00000" pt_clust_8="13000.00000" pt_clust_9="22.02239"></scales>
<clustering>
<clus scale="   22.022">  1  9  2 -1</clus>
<clus scale="   78.212">  5  6 -1 -1</clus>
<clus scale="   79.035">  1  5  2 -1</clus>
<clus scale="   91.223">  7  8 -1 -1</clus>
<clus scale="   22.022">  1  5  2 -1</clus>
</clustering>
</event>
<event>
 9    1  0.1973774E-005  0.1152455E+03  0.7546771E-02  0.1254410E+00
         -2   -1    0    0    0  501 -0.00000000000E+00  0.00000000000E+00  0.44981474748E+03  0.44981474748E+03  0.00000000000E+00 0.  1.
          1   -1    0    0  502    0  0.00000000000E+00 -0.00000000000E+00 -0.67629634457E+02  0.67629634457E+02  0.00000000000E+00 0. -1.
        -24    2    1    2    0    0 -0.67601277156E+02  0.37683144422E+02  0.33461220655E+03  0.35349821890E+03  0.83700119162E+02 0.  0.
         23    2    1    2    0    0  0.44357217879E+02  0.14453360124E+01  0.56755040098E+02  0.11751733739E+03  0.92841468304E+02 0.  0.
         13    1    3    3    0    0 -0.78290406002E+02  0.47869234527E+02  0.22651108121E+03  0.24439337388E+03  0.00000000000E+00 0. -1.
        -14    1    3    3    0    0  0.10689128846E+02 -0.10186090104E+02  0.10810112534E+03  0.10910484502E+03  0.00000000000E+00 0.  1.
        -13    1    4    4    0    0 -0.17363439838E+02 -0.13909798660E+02  0.48528765573E+02  0.53385509549E+02  0.00000000000E+00 0.  1.
         13    1    4    4    0    0  0.61720657717E+02  0.15355134673E+02  0.82262745246E+01  0.64131827842E+02  0.00000000000E+00 0. -1.
         21    1    1    2  502  501  0.23244059277E+02 -0.39128480435E+02 -0.91821336249E+01  0.46428825644E+02  0.00000000000E+00 0. -1.
<scales pt_clust_5="13000.00000" pt_clust_6="13000.00000" pt_clust_7="13000.00000" pt_clust_8="13000.00000" pt_clust_9="45.51180"></scales>
<clustering>
<clus scale="   45.512">  2  9  1 -1</clus>
<clus scale="   83.700">  5  6 -1 -1</clus>
<clus scale="   92.841">  7  8 -1 -1</clus>
<clus scale="  108.017">  1  5  2 -1</clus>
<clus scale="   45.512">  2  5  1 -1</clus>
</clustering>
</event>
<event>
 9    1  0.1973774E-005  0.9733770E+02  0.7546771E-02  0.1292626E+00
          1   -1    0    0  502    0  0.00000000000E+00  0.00000000000E+00  0.33115653357E+03  0.33115653357E+03  0.00000000000E+00 0. -1.
         -2   -1    0    0    0  501 -0.00000000000E+00 -0.00000000000E+00 -0.45852681343E+02  0.45852681343E+02  0.00000000000E+00 0.  1.
        -24    2    1    2    0    0 -0.30174482722E+02 -0.10846292481E+02  0.29584283480E+02  0.91097594506E+02  0.79971247506E+02 0.  0.
         23    2    1    2    0    0  0.18878407877E+02  0.30155903680E+02  0.16330430026E+03  0.19082721453E+03  0.92092119702E+02 0.  0.
         11    1    3    3    0    0  0.19241732624E+02  0.19202553673E+02  0.16503534358E+02  0.31801713605E+02  0.00000000000E+00 0. -1.
        -12    1    3    3    0    0 -0.49416215346E+02 -0.30048846153E+02  0.13080749122E+02  0.59295880901E+02  0.00000000000E+00 0.  1.
        -13    1    4    4    0    0 -0.13083587891E+02 -0.23965291126E+02  0.18532225453E+02  0.32999376223E+02  0.00000000000E+00 0.  1.
         13    1    4    4    0    0  0.31961995768E+02  0.54121194807E+02  0.14477207481E+03  0.15782783831E+03  0.00000000000E+00 0. -1.
         21    1    1    2  502  501  0.11296074845E+02 -0.19309611200E+02  0.92415268482E+02  0.95084405873E+02  0.00000000000E+00 0. -1.
<scales pt_clust_5="13000.00000" pt_clust_6="13000.00000" pt_clust_7="13000.00000" pt_clust_8="13000.00000" pt_clust_9="22.37102"></scales>
<clustering>
<clus scale="   22.371">  1  9  2 -1</clus>
<clus scale="   79.971">  5  6 -1 -1</clus>
<clus scale="   85.960">  2  5  1 -1</clus>
<clus scale="   92.092">  7  8 -1 -1</clus>
<clus scale="   22.371">  1  5  2 -1</clus>
</clustering>
</event>
<event>
 9    1  0.1973774E-005  0.9861009E+02  0.7546771E-02  0.1292299E+00
         -4   -1    0    0    0  501 -0.00000000000E+00  0.00000000000E+00  0.28691938984E+03  0.28691938984E+03  0.00000000000E+00 0.  1.
          3   -1    0    0  502    0  0.00000000000E+00 -0.00000000000E+00 -0.79233763867E+02  0.79233763867E+02  0.00000000000E+00 0. -1.
        -24    2    1    2    0    0  0.17023401040E+02  0.33653781736E+02  0.18644413515E+03  0.20368562495E+03  0.72828875244E+02 0.  0.
         23    2    1    2    0    0 -0.53529951239E+02 -0.25788149760E+02  0.46397726681E+02  0.11744050825E+03  0.90050205937E+02 0.  0.
         13    1    3    3    0    0  0.19896408813E+02 -0.91233324683E+01  0.13979132199E+02  0.25971492372E+02  0.00000000000E+00 0. -1.
        -14    1    3    3    0    0 -0.28730077731E+01  0.42777114204E+02  0.17246500295E+03  0.17771413258E+03  0.00000000000E+00 0.  1.
        -11    1    4    4    0    0 -0.84794047683E+01  0.25816386657E+02 -0.97481091008E+01  0.28868871753E+02  0.00000000000E+00 0.  1.
         11    1    4    4    0    0 -0.45050546471E+02 -0.51604536417E+02  0.56145835782E+02  0.88571636497E+02  0.00000000000E+00 0. -1.
         21    1    1    2  502  501  0.36506550199E+02 -0.78656319759E+01 -0.25156235856E+02  0.45027020513E+02  0.00000000000E+00 0. -1.
<scales pt_clust_5="13000.00000" pt_clust_6="13000.00000" pt_clust_7="13000.00000" pt_clust_8="13000.00000" pt_clust_9="37.34430"></scales>
<clustering>
<clus scale="   37.344">  2  9  1 -1</clus>
<clus scale="   72.829">  5  6 -1 -1</clus>
<clus scale="   83.180">  1  5  2 -1</clus>
<clus scale="   90.050">  7  8 -1 -1</clus>
<clus scale="   37.344">  2  5  1 -1</clus>
</clustering>
</event>
<event>
 9    1  0.1973774E-005  0.1170966E+03  0.7546771E-02  0.1252628E+00
         -2   -1    0    0    0  501 -0.00000000000E+00  0.00000000000E+00  0.14420424852E+03  0.14420424852E+03  0.00000000000E+00 0.  1.
          1   -1    0    0  502    0  0.00000000000E+00 -0.00000000000E+00 -0.13592442232E+03  0.13592442232E+03  0.00000000000E+00 0. -1.
         23    2    1    2    0    0  0.51693780052E+02 -0.30220099610E+02  0.30631143669E+02  0.11576500954E+03  0.94221914404E+02 0.  0.
        -24    2    1    2    0    0 -0.63613703496E+02  0.49685692014E+02  0.20209964126E+02  0.11606814853E+03  0.80919720650E+02 0.  0.
         13    1    4    4    0    0 -0.82863548002E+01  0.18293243558E+02 -0.29256353662E+02  0.35485781172E+02  0.00000000000E+00 0. -1.
        -14    1    4    4    0    0 -0.55327348696E+02  0.31392448456E+02  0.49466317788E+02  0.80582367360E+02  0.00000000000E+00 0.  1.
        -11    1    3    3    0    0 -0.12472584527E+02 -0.37861709421E+02 -0.77453702295E+01  0.40608683370E+02  0.00000000000E+00 0.  1.
         11    1    3    3    0    0  0.64166364579E+02  0.76416098111E+01  0.38376513899E+02  0.75156326166E+02  0.00000000000E+00 0. -1.
         21    1    1    2  502  501  0.11919923444E+02 -0.19465592404E+02 -0.42561281598E+02  0.48295512771E+02  0.00000000000E+00 0.  1.
<scales pt_clust_5="13000.00000" pt_clust_6="13000.00000" pt_clust_7="13000.00000" pt_clust_8="13000.00000" pt_clust_9="22.82529"></scales>
<clustering>
<clus scale="   22.825">  2  9  1 -1</clus>
<clus scale="   80.920">  5  6 -1 -1</clus>
<clus scale="   94.222">  7  8 -1 -1</clus>
<clus scale="  106.686">  2  5  1 -1</clus>
<clus scale="   22.825">  2  5  1 -1</clus>
</clustering>
</event>
<event>
 9    1  0.1973774E-005  0.1120829E+03  0.7546771E-02  0.1260435E+00
         -4   -1    0    0    0  501 -0.00000000000E+00  0.00000000000E+00  0.27236724706E+03  0.27236724706E+03  0.00000000000E+00 0.  1.
          3   -1    0    0  502    0  0.00000000000E+00 -0.00000000000E+00 -0.84351360558E+02  0.84351360558E+02  0.00000000000E+00 0. -1.
        -24    2    1    2    0    0 -0.31586750701E+02 -0.61019495410E+02  0.18699525435E+03  0.21507369826E+03  0.81045474229E+02 0.  0.
         23    2    1    2    0    0  0.49387747396E+02  0.33256558358E+02  0.34611901284E+00  0.10865837991E+03  0.90892108902E+02 0.  0.
         13    1    3    3    0    0 -0.23272007143E+02  0.12299947700E+02  0.21910720797E+02  0.34248426471E+02  0.00000000000E+00 0. -1.
        -14    1    3    3    0    0 -0.83147435575E+01 -0.73319443110E+02  0.16508453355E+03  0.18082527179E+03  0.00000000000E+00 0.  1.
        -13    1    4    4    0    0  0.50023394230E+02 -0.12894920528E+02  0.23808905771E+02  0.56881305714E+02  0.00000000000E+00 0.  1.
         13    1    4    4    0    0 -0.63564683423E+00  0.46151478886E+02 -0.23462786759E+02  0.51777074201E+02  0.00000000000E+00 0. -1.
         21    1    1    2  502  501 -0.17800996695E+02  0.27762937052E+02  0.67451314351E+00  0.32986529448E+02  0.00000000000E+00 0. -1.
<scales pt_clust_5="13000.00000" pt_clust_6="13000.00000" pt_clust_7="13000.00000" pt_clust_8="13000.00000" pt_clust_9="32.97963"></scales>
<clustering>
<clus scale="   32.980">  2  9  1 -1</clus>
<clus scale="   81.045">  5  6 -1 -1</clus>
<clus scale="   90.892">  7  8 -1 -1</clus>
<clus scale="  104.257">  1  5  2 -1</clus>
<clus scale="   32.980">  2  5  1 -1</clus>
</clustering>
</event>
<event>
 9    1  0.1973774E-005  0.9317011E+02  0.7546771E-02  0.1301145E+00
         -4   -1    0    0    0  501 -0.00000000000E+00  0.00000000000E+00  0.49603573346E+02  0.49603573346E+02  0.00000000000E+00 0.  1.
          3   -1    0    0  502    0  0.00000000000E+00 -0.00000000000E+00 -0.31478668529E+03  0.31478668529E+03  0.00000000000E+00 0. -1.
        -24    2    1    2    0    0  0.23874662346E+01 -0.15573723765E+02 -0.19367830075E+02  0.85760964963E+02  0.82046263794E+02 0.  0.
         23    2    1    2    0    0 -0.34352987935E+02  0.74806600083E+01 -0.18600075277E+03  0.21032797488E+03  0.91681453568E+02 0.  0.
         11    1    3    3    0    0  0.53936817164E+01  0.24049833507E+02 -0.35212188684E+02  0.42981211315E+02  0.00000000000E+00 0. -1.
        -12    1    3    3    0    0 -0.30062154818E+01 -0.39623557272E+02  0.15844358609E+02  0.42779753648E+02  0.00000000000E+00 0.  1.
        -13    1    4    4    0    0  0.27517541060E+02 -0.11193380086E+02 -0.88503663374E+02  0.93356334837E+02  0.00000000000E+00 0. -1.
         13    1    4    4    0    0 -0.61870528995E+02  0.18674040095E+02 -0.97497089401E+02  0.11697164004E+03  0.00000000000E+00 0.  1.
         21    1    1    2  502  501  0.31965521701E+02  0.80930637564E+01 -0.59814529093E+02  0.68301318795E+02  0.00000000000E+00 0. -1.
<scales pt_clust_5="13000.00000" pt_clust_6="13000.00000" pt_clust_7="13000.00000" pt_clust_8="13000.00000" pt_clust_9="32.97411"></scales>
<clustering>
<clus scale="   32.974">  2  9  1 -1</clus>
<clus scale="   82.046">  5  6 -1 -1</clus>
<clus scale="   83.706">  1  5  2 -1</clus>
<clus scale="   91.681">  7  8 -1 -1</clus>
<clus scale="   32.974">  2  5  1 -1</clus>
</clustering>
</event>
<event>
 9    1  0.1973774E-005  0.1093122E+03  0.7546771E-02  0.1268391E+00
         -2   -1    0    0    0  501 -0.00000000000E+00  0.00000000000E+00  0.14410711340E+03  0.14410711340E+03  0.00000000000E+00 0.  1.
          1   -1    0    0  502    0  0.00000000000E+00 -0.00000000000E+00 -0.12638157989E+03  0.12638157989E+03  0.00000000000E+00 0. -1.
        -24    2    1    2    0    0 -0.18386267475E+02  0.22017631863E+02  0.42854880919E+02  0.11800123340E+03  0.10613632423E+03 0.  0.
         23    2    1    2    0    0 -0.28092931134E+02 -0.33075621388E+02 -0.22026403176E+02  0.10461029102E+03  0.92600977540E+02 0.  0.
         13    1    3    3    0    0  0.97931533971E+01  0.54866975636E+02  0.49094755626E+02  0.74273722802E+02  0.00000000000E+00 0. -1.
        -14    1    3    3    0    0 -0.28179420872E+02 -0.32849343773E+02 -0.62398747060E+01  0.43727510601E+02  0.00000000000E+00 0.  1.
        -11    1    4    4    0    0 -0.51183943514E+02 -0.33817197480E+02  0.12944326906E+02  0.62697324649E+02  0.00000000000E+00 0.  1.
         11    1    4    4    0    0  0.23091012381E+02  0.74157609169E+00 -0.34970730082E+02  0.41912966375E+02  0.00000000000E+00 0. -1.
         21    1    1    2  502  501  0.46479198609E+02  0.11057989525E+02 -0.31029442411E+01  0.47877168866E+02  0.00000000000E+00 0. -1.
<scales pt_clust_5="13000.00000" pt_clust_6="13000.00000" pt_clust_7="13000.00000" pt_clust_8="13000.00000" pt_clust_9="47.77651"></scales>
<clustering>
<clus scale="   47.777">  2  9  1 -1</clus>
<clus scale="   92.601">  7  8 -1 -1</clus>
<clus scale="   96.225">  2  7  1 -1</clus>
<clus scale="  106.136">  5  6 -1 -1</clus>
<clus scale="   47.777">  2  5  1 -1</clus>
</clustering>
</event>
<event>
 9    1  0.1973774E-005  0.1291150E+03  0.7546771E-02  0.1230716E+00
         -2   -1    0    0    0  501 -0.00000000000E+00  0.00000000000E+00  0.72519174254E+02  0.72519174254E+02  0.00000000000E+00 0.  1.
          1   -1    0    0  502    0  0.00000000000E+00 -0.00000000000E+00 -0.41715819583E+03  0.41715819583E+03  0.00000000000E+00 0. -1.
        -24    2    1    2    0    0  0.70944025655E+02 -0.81748729893E+02 -0.28726596549E+02  0.13750890515E+03  0.79797067803E+02 0.  0.
         23    2    1    2    0    0 -0.35915967043E+02  0.45233150357E+02 -0.22145366740E+03  0.24501059388E+03  0.87478395762E+02 0.  0.
         13    1    3    3    0    0  0.77073491156E+02 -0.48754585266E+02 -0.43258771390E+02  0.10093886232E+03  0.00000000000E+00 0. -1.
        -14    1    3    3    0    0 -0.61294655018E+01 -0.32994144627E+02  0.14532174841E+02  0.36570042830E+02  0.00000000000E+00 0.  1.
        -11    1    4    4    0    0 -0.36895829660E+02 -0.75238907163E+01 -0.15828802024E+03  0.16270528120E+03  0.00000000000E+00 0.  1.
         11    1    4    4    0    0  0.97986261699E+00  0.52757041073E+02 -0.63165647163E+02  0.82305312678E+02  0.00000000000E+00 0. -1.
         21    1    1    2  502  501 -0.35028058611E+02  0.36515579536E+02 -0.94458757624E+02  0.10715787106E+03  0.00000000000E+00 0.  1.
<scales pt_clust_5="13000.00000" pt_clust_6="13000.00000" pt_clust_7="13000.00000" pt_clust_8="13000.00000" pt_clust_9="50.59993"></scales>
<clustering>
<clus scale="   50.600">  2  9  1 -1</clus>
<clus scale="   79.797">  5  6 -1 -1</clus>
<clus scale="   87.478">  7  8 -1 -1</clus>
<clus scale="  124.039">  1  5  2 -1</clus>
<clus scale="   50.600">  2  5  1 -1</clus>
</clustering>
</event>
<event>
 9    1  0.1973774E-005  0.1134446E+03  0.7546771E-02  0.1256555E+00
          1   -1    0    0  502    0  0.00000000000E+00  0.00000000000E+00  0.32618959153E+03  0.32618959153E+03  0.00000000000E+00 0. -1.
         -2   -1    0    0    0  501 -0.00000000000E+00 -0.00000000000E+00 -0.11169584116E+03  0.11169584116E+03  0.00000000000E+00 0.  1.
         23    2    1    2    0    0  0.31808851174E+02 -0.63028535184E+02 -0.64284444569E+02  0.13221770868E+03  0.91458369847E+02 0.  0.
        -24    2    1    2    0    0 -0.29911276947E+02  0.34635016768E+02  0.20993446385E+03  0.23117442239E+03  0.85292822559E+02 0.  0.
         13    1    4    4    0    0 -0.20608061570E+02  0.60646200146E+02  0.17674126741E+03  0.18798970557E+03  0.00000000000E+00 0. -1.
        -14    1    4    4    0    0 -0.93032153771E+01 -0.26011183378E+02  0.33193196437E+02  0.43184716820E+02  0.00000000000E+00 0.  1.
        -11    1    3    3    0    0  0.46117647189E+02  0.30380046397E+01 -0.37457986560E+02  0.59490903603E+02  0.00000000000E+00 0.  1.
         11    1    3    3    0    0 -0.14308796015E+02 -0.66066539823E+02 -0.26826458009E+02  0.72726805078E+02  0.00000000000E+00 0. -1.
         21    1    1    2  502  501 -0.18975742264E+01  0.28393518415E+02  0.68843731087E+02  0.74493301618E+02  0.00000000000E+00 0. -1.
<scales pt_clust_5="13000.00000" pt_clust_6="13000.00000" pt_clust_7="13000.00000" pt_clust_8="13000.00000" pt_clust_9="28.45686"></scales>
<clustering>
<clus scale="   28.457">  1  9  2 -1</clus>
<clus scale="   85.293">  5  6 -1 -1</clus>
<clus scale="   91.458">  7  8 -1 -1</clus>
<clus scale="  108.535">  1  5  2 -1</clus>
<clus scale="   28.457">  1  5  2 -1</clus>
</clustering>
</event>
<event>
 9    1  0.1973774E-005  0.1876425E+03  0.7546771E-02  0.1161780E+00
          1   -1    0    0  502    0  0.00000000000E+00  0.00000000000E+00  0.23157239407E+03  0.23157239407E+03  0.00000000000E+00 0. -1.
         -2   -1    0    0    0  501 -0.00000000000E+00 -0.00000000000E+00 -0.20198223892E+03  0.20198223892E+03  0.00000000000E+00 0.  1.
        -24    2    1    2    0    0  0.84032306742E+01  0.16200361177E+03 -0.61866475793E+02  0.19167007445E+03  0.81204507876E+02 0.  0.
         23    2    1    2    0    0 -0.29805055532E+02 -0.16428716002E+03  0.53093266662E+02  0.19789591889E+03  0.92006996832E+02 0.  0.
         11    1    3    3    0    0 -0.26830955903E+02  0.47340952330E+02  0.44634745717E+01  0.54598430082E+02  0.00000000000E+00 0. -1.
        -12    1    3    3    0    0  0.35234186577E+02  0.11466265944E+03 -0.66329950365E+02  0.13707164437E+03  0.00000000000E+00 0.  1.
        -11    1    4    4    0    0  0.22443962438E+02 -0.86353078194E+02  0.53565962370E+02  0.10406679532E+03  0.00000000000E+00 0.  1.
         11    1    4    4    0    0 -0.52249017970E+02 -0.77934081823E+02 -0.47269570861E+00  0.93829123568E+02  0.00000000000E+00 0. -1.
         21    1    1    2  502  501  0.21401824858E+02  0.22835482455E+01  0.38363364280E+02  0.43988639655E+02  0.00000000000E+00 0. -1.
<scales pt_clust_5="13000.00000" pt_clust_6="13000.00000" pt_clust_7="13000.00000" pt_clust_8="13000.00000" pt_clust_9="21.52331"></scales>
<clustering>
<clus scale="   21.523">  1  9  2 -1</clus>
<clus scale="   81.205">  5  6 -1 -1</clus>
<clus scale="   92.007">  7  8 -1 -1</clus>
<clus scale="  182.589">  2  5  1 -1</clus>
<clus scale="   21.523">  1  5  2 -1</clus>
</clustering>
</event>
<event>
 9    1  0.1973774E-005  0.1069645E+03  0.7546771E-02  0.1271476E+00
          1   -1    0    0  502    0  0.00000000000E+00  0.00000000000E+00  0.38863912544E+03  0.38863912544E+03  0.00000000000E+00 0. -1.
         -2   -1    0    0    0  501 -0.00000000000E+00 -0.00000000000E+00 -0.66794110253E+02  0.66794110253E+02  0.00000000000E+00 0.  1.
        -24    2    1    2    0    0  0.10022037965E+02 -0.54926806223E+02 -0.11881574508E+02  0.98963320536E+02  0.80840408905E+02 0.  0.
         23    2    1    2    0    0 -0.16770939065E+02  0.32138955854E+02  0.29085122573E+03  0.30744817890E+03  0.92821173881E+02 0.  0.
         11    1    3    3    0    0  0.55461221134E+01 -0.61408569636E+02  0.21011467886E+02  0.65140261574E+02  0.00000000000E+00 0. -1.
        -12    1    3    3    0    0  0.44759158516E+01  0.64817634130E+01 -0.32893042393E+02  0.33823058962E+02  0.00000000000E+00 0.  1.
        -13    1    4    4    0    0 -0.11808405275E+02  0.65120908184E+02  0.18637012845E+03  0.19777258631E+03  0.00000000000E+00 0. -1.
         13    1    4    4    0    0 -0.49625337909E+01 -0.32981952330E+02  0.10448109728E+03  0.10967559259E+03  0.00000000000E+00 0.  1.
         21    1    1    2  502  501  0.67489011004E+01  0.22787850369E+02  0.42875363969E+02  0.49021736260E+02  0.00000000000E+00 0. -1.
<scales pt_clust_5="13000.00000" pt_clust_6="13000.00000" pt_clust_7="13000.00000" pt_clust_8="13000.00000" pt_clust_9="23.76623"></scales>
<clustering>
<clus scale="   23.766">  1  9  2 -1</clus>
<clus scale="   80.840">  5  6 -1 -1</clus>
<clus scale="   92.821">  7  8 -1 -1</clus>
<clus scale="   96.751">  2  5  1 -1</clus>
<clus scale="   23.766">  1  5  2 -1</clus>
</clustering>
</event>
<event>
 9    1  0.1973774E-005  0.1309142E+03  0.7546771E-02  0.1228446E+00
          1   -1    0    0  502    0  0.00000000000E+00  0.00000000000E+00  0.42916148607E+03  0.42916148607E+03  0.00000000000E+00 0. -1.
         -2   -1    0    0    0  501 -0.00000000000E+00 -0.00000000000E+00 -0.59627193156E+02  0.59627193156E+02  0.00000000000E+00 0.  1.
         23    2    1    2    0    0  0.65857980443E+02  0.67695878186E+02  0.10227852522E+03  0.16619502413E+03  0.90773805767E+02 0.  0.
        -24    2    1    2    0    0 -0.94730376872E+02 -0.32755002859E+02  0.15675124711E+03  0.20315442739E+03  0.81572258668E+02 0.  0.
         13    1    4    4    0    0 -0.80810769200E+02 -0.53258743477E+02  0.14807265165E+03  0.17689653570E+03  0.00000000000E+00 0. -1.
        -14    1    4    4    0    0 -0.13919607672E+02  0.20503740618E+02  0.86785954597E+01  0.26257891694E+02  0.00000000000E+00 0.  1.
        -13    1    3    3    0    0 -0.20345867069E+02 -0.11816434398E+01  0.12186440577E+02  0.23745734816E+02  0.00000000000E+00 0. -1.
         13    1    3    3    0    0  0.86203847512E+02  0.68877521626E+02  0.90092084641E+02  0.14244928931E+03  0.00000000000E+00 0.  1.
         21    1    1    2  502  501  0.28872396429E+02 -0.34940875327E+02  0.11050452058E+03  0.11943922770E+03  0.00000000000E+00 0. -1.
<scales pt_clust_5="13000.00000" pt_clust_6="13000.00000" pt_clust_7="13000.00000" pt_clust_8="13000.00000" pt_clust_9="45.32637"></scales>
<clustering>
<clus scale="   45.326">  1  9  2 -1</clus>
<clus scale="   81.572">  5  6 -1 -1</clus>
<clus scale="   90.774">  7  8 -1 -1</clus>
<clus scale="  124.710">  1  5  2 -1</clus>
<clus scale="   45.326">  1  5  2 -1</clus>
</clustering>
</event>
<event>
 9    1  0.2382921E-005  0.1523101E+03  0.7546771E-02  0.1199878E+00
          3   -1    0    0  502    0  0.00000000000E+00  0.00000000000E+00  0.57118456211E+03  0.57118456211E+03  0.00000000000E+00 0. -1.
         -4   -1    0    0    0  501 -0.00000000000E+00 -0.00000000000E+00 -0.19646279593E+03  0.19646279593E+03  0.00000000000E+00 0.  1.
        -24    2    1    2    0    0  0.10654724492E+03 -0.45010340304E+02 -0.14409697943E+03  0.20083737551E+03  0.78698575487E+02 0.  0.
         23    2    1    2    0    0 -0.12242894965E+03  0.88803265558E+01  0.50040657110E+03  0.52325984351E+03  0.91249216513E+02 0.  0.
         13    1    3    3    0    0  0.17305308175E+02  0.15459266472E+02 -0.31883997275E+01  0.23422820149E+02  0.00000000000E+00 0. -1.
        -14    1    3    3    0    0  0.89241936748E+02 -0.60469606776E+02 -0.14090857971E+03  0.17741455536E+03  0.00000000000E+00 0.  1.
        -11    1    4    4    0    0 -0.68716497240E+02 -0.19563918801E+02  0.39647377420E+03  0.40285997262E+03  0.00000000000E+00 0. -1.
         11    1    4    4    0    0 -0.53712452410E+02  0.28444245357E+02  0.10393279690E+03  0.12039987089E+03  0.00000000000E+00 0.  1.
         21    1    1    2  502  501  0.15881704727E+02  0.36130013748E+02  0.18412174517E+02  0.43550139023E+02  0.00000000000E+00 0. -1.
<scales pt_clust_5="13000.00000" pt_clust_6="13000.00000" pt_clust_7="13000.00000" pt_clust_8="13000.00000" pt_clust_9="39.46652"></scales>
<clustering>
<clus scale="   39.467">  2  9  1 -1</clus>
<clus scale="   78.699">  5  6 -1 -1</clus>
<clus scale="   91.249">  7  8 -1 -1</clus>
<clus scale="  145.139">  2  5  1 -1</clus>
<clus scale="  152.310">  1  5  2 -1</clus>
</clustering>
</event>
<event>
 9    1  0.1973774E-005  0.2019241E+03  0.7546771E-02  0.1149188E+00
          1   -1    0    0  502    0  0.00000000000E+00  0.00000000000E+00  0.26909161350E+03  0.26909161350E+03  0.00000000000E+00 0. -1.
         -2   -1    0    0    0  501 -0.00000000000E+00 -0.00000000000E+00 -0.38144384713E+03  0.38144384713E+03  0.00000000000E+00 0.  1.
        -24    2    1    2    0    0  0.18056580900E+03 -0.48156983351E+02 -0.28742282910E+03  0.35216739807E+03  0.80541213979E+02 0.  0.
         23    2    1    2    0    0 -0.14110884115E+03  0.51619015573E+02  0.76524435739E+02  0.19215985395E+03  0.92158517700E+02 0.  0.
         13    1    3    3    0    0  0.98063314165E+02 -0.67405882024E+01 -0.86031977141E+02  0.13062675915E+03  0.00000000000E+00 0. -1.
        -14    1    3    3    0    0  0.82502494834E+02 -0.41416395149E+02 -0.20139085196E+03  0.22154063892E+03  0.00000000000E+00 0.  1.
        -13    1    4    4    0    0 -0.35997515564E+01  0.32330523356E+02 -0.20852638972E+01  0.32597074673E+02  0.00000000000E+00 0.  1.
         13    1    4    4    0    0 -0.13750908960E+03  0.19288492217E+02  0.78609699636E+02  0.15956277928E+03  0.00000000000E+00 0. -1.
         21    1    1    2  502  501 -0.39456967847E+02 -0.34620322211E+01  0.98546159733E+02  0.10620820861E+03  0.00000000000E+00 0. -1.
<scales pt_clust_5="13000.00000" pt_clust_6="13000.00000" pt_clust_7="13000.00000" pt_clust_8="13000.00000" pt_clust_9="39.60856"></scales>
<clustering>
<clus scale="   39.609">  1  9  2 -1</clus>
<clus scale="   80.541">  5  6 -1 -1</clus>
<clus scale="   92.159">  7  8 -1 -1</clus>
<clus scale="  196.893">  2  5  1 -1</clus>
<clus scale="   39.609">  1  5  2 -1</clus>
</clustering>
</event>
<event>
 9    1  0.1973774E-005  0.1116250E+03  0.7546771E-02  0.1261272E+00
          1   -1    0    0  502    0  0.00000000000E+00  0.00000000000E+00  0.39679276218E+02  0.39679276218E+02  0.00000000000E+00 0. -1.
         -2   -1    0    0    0  501 -0.00000000000E+00 -0.00000000000E+00 -0.75568860286E+03  0.75568860286E+03  0.00000000000E+00 0.  1.
        -24    2    1    2    0    0  0.12977615269E+02  0.87540446845E+02 -0.52361037340E+03  0.53707511824E+03  0.80312584152E+02 0.  0.
         23    2    1    2    0    0  0.79812701797E+01 -0.23030275199E+02 -0.15464426268E+03  0.18066381144E+03  0.90169121845E+02 0.  0.
         11    1    3    3    0    0 -0.26615515632E+02  0.29709657046E+02 -0.99238799889E+02  0.10695507841E+03  0.00000000000E+00 0. -1.
        -12    1    3    3    0    0  0.39593130901E+02  0.57830789798E+02 -0.42437157351E+03  0.43012003983E+03  0.00000000000E+00 0.  1.
        -13    1    4    4    0    0  0.41788888715E+02 -0.58419203549E+01 -0.12673688483E+03  0.13357648457E+03  0.00000000000E+00 0.  1.
         13    1    4    4    0    0 -0.33807618535E+02 -0.17188354844E+02 -0.27907377850E+02  0.47087326870E+02  0.00000000000E+00 0. -1.
         21    1    1    2  502  501 -0.20958885449E+02 -0.64510171645E+02 -0.37754690565E+02  0.77628949398E+02  0.00000000000E+00 0. -1.
<scales pt_clust_5="13000.00000" pt_clust_6="13000.00000" pt_clust_7="13000.00000" pt_clust_8="13000.00000" pt_clust_9="67.82947"></scales>
<clustering>
<clus scale="   67.829">  1  9  2 -1</clus>
<clus scale="   80.313">  5  6 -1 -1</clus>
<clus scale="   90.169">  7  8 -1 -1</clus>
<clus scale="  103.826">  2  5  1 -1</clus>
<clus scale="   67.829">  1  5  2 -1</clus>
</clustering>
</event>
<event>
 9    1  0.1973774E-005  0.9957073E+02  0.7546771E-02  0.1287422E+00
         -2   -1    0    0    0  501 -0.00000000000E+00  0.00000000000E+00  0.30160032068E+03  0.30160032068E+03  0.00000000000E+00 0.  1.
          1   -1    0    0  502    0  0.00000000000E+00 -0.00000000000E+00 -0.84487414953E+02  0.84487414953E+02  0.00000000000E+00 0. -1.
         23    2    1    2    0    0  0.34316856712E+02 -0.31004381556E+00  0.24470796683E+03  0.26404243567E+03  0.93052007066E+02 0.  0.
        -24    2    1    2    0    0 -0.42031133501E+02  0.21357307790E+02 -0.32122680854E+02  0.99176178257E+02  0.81125192937E+02 0.  0.
         13    1    4    4    0    0 -0.50038979202E+02  0.45688389482E+02 -0.18879826135E+02  0.70340430820E+02  0.00000000000E+00 0. -1.
        -14    1    4    4    0    0  0.80078457015E+01 -0.24331081693E+02 -0.13242854720E+02  0.28835747437E+02  0.00000000000E+00 0.  1.
        -11    1    3    3    0    0 -0.29251861858E+02 -0.16425146205E+02  0.78838287125E+02  0.85679241166E+02  0.00000000000E+00 0. -1.
         11    1    3    3    0    0  0.63568718570E+02  0.16115102389E+02  0.16586967971E+03  0.17836319450E+03  0.00000000000E+00 0.  1.
         21    1    1    2  502  501  0.77142767893E+01 -0.21047263974E+02  0.45276197485E+01  0.22869121709E+02  0.00000000000E+00 0. -1.
<scales pt_clust_5="13000.00000" pt_clust_6="13000.00000" pt_clust_7="13000.00000" pt_clust_8="13000.00000" pt_clust_9="22.41645"></scales>
<clustering>
<clus scale="   22.416">  2  9  1 -1</clus>
<clus scale="   81.125">  5  6 -1 -1</clus>
<clus scale="   88.527">  2  5  1 -1</clus>
<clus scale="   93.052">  7  8 -1 -1</clus>
<clus scale="   22.416">  2  5  1 -1</clus>
</clustering>
</event>
<event>
 9    1  0.1973774E-005  0.9661899E+02  0.7546771E-02  0.1292110E+00
         -2   -1    0    0    0  501 -0.00000000000E+00  0.00000000000E+00  0.27619664081E+03  0.27619664081E+03  0.00000000000E+00 0.  1.
          1   -1    0    0  502    0  0.00000000000E+00 -0.00000000000E+00 -0.11055249866E+03  0.11055249866E+03  0.00000000000E+00 0. -1.
        -24    2    1    2    0    0 -0.90752876312E+01 -0.37497720786E+02  0.22544349428E+03  0.24258417871E+03  0.80832386663E+02 0.  0.
         23    2    1    2    0    0 -0.88909393797E+01  0.26462220776E+02 -0.15279002137E+02  0.94904133150E+02  0.89409443859E+02 0.  0.
         11    1    3    3    0    0  0.20048562831E+01  0.21350778029E+02  0.22897472122E+02  0.31371474316E+02  0.00000000000E+00 0. -1.
        -12    1    3    3    0    0 -0.11080143914E+02 -0.58848498815E+02  0.20254602216E+03  0.21121270439E+03  0.00000000000E+00 0.  1.
        -13    1    4    4    0    0 -0.36861259693E+02  0.40081400428E+02 -0.28074837417E+02  0.61265550045E+02  0.00000000000E+00 0.  1.
         13    1    4    4    0    0  0.27970320313E+02 -0.13619179652E+02  0.12795835280E+02  0.33638583105E+02  0.00000000000E+00 0. -1.
         21    1    1    2  502  501  0.17966227011E+02  0.11035500010E+02 -0.44520350000E+02  0.49260827618E+02  0.00000000000E+00 0. -1.
<scales pt_clust_5="13000.00000" pt_clust_6="13000.00000" pt_clust_7="13000.00000" pt_clust_8="13000.00000" pt_clust_9="21.08477"></scales>
<clustering>
<clus scale="   21.085">  2  9  1 -1</clus>
<clus scale="   80.832">  5  6 -1 -1</clus>
<clus scale="   88.742">  1  5  2 -1</clus>
<clus scale="   89.409">  7  8 -1 -1</clus>
<clus scale="   21.085">  2  5  1 -1</clus>
</clustering>
</event>
<event>
 9    1  0.1973774E-005  0.1038108E+03  0.7546771E-02  0.1282436E+00
         -2   -1    0    0    0  501 -0.00000000000E+00  0.00000000000E+00  0.57441485050E+03  0.57441485050E+03  0.00000000000E+00 0.  1.
          1   -1    0    0  502    0  0.00000000000E+00 -0.00000000000E+00 -0.29742196255E+02  0.29742196255E+02  0.00000000000E+00 0. -1.
         23    2    1    2    0    0 -0.20791501356E+02 -0.39762920202E+02  0.41840113114E+03  0.43189702083E+03  0.97273602331E+02 0.  0.
        -24    2    1    2    0    0 -0.99215042951E+00  0.35417775490E+02  0.65911360903E+02  0.10794240043E+03  0.77793644550E+02 0.  0.
         13    1    4    4    0    0  0.33567856615E+02  0.11909865146E+02  0.79704461185E+01  0.36498957476E+02  0.00000000000E+00 0. -1.
        -14    1    4    4    0    0 -0.34560007045E+02  0.23507910344E+02  0.57940914784E+02  0.71443442958E+02  0.00000000000E+00 0.  1.
        -13    1    3    3    0    0 -0.39832951918E+02 -0.51616135151E+02  0.39140925082E+03  0.39680233252E+03  0.00000000000E+00 0.  1.
         13    1    3    3    0    0  0.19041450563E+02  0.11853214949E+02  0.26991880314E+02  0.35094688302E+02  0.00000000000E+00 0. -1.
         21    1    1    2  502  501  0.21783651785E+02  0.43451447116E+01  0.60360162206E+02  0.64317625494E+02  0.00000000000E+00 0.  1.
<scales pt_clust_5="13000.00000" pt_clust_6="13000.00000" pt_clust_7="13000.00000" pt_clust_8="13000.00000" pt_clust_9="22.21278"></scales>
<clustering>
<clus scale="   22.213">  1  9  2 -1</clus>
<clus scale="   77.794">  5  6 -1 -1</clus>
<clus scale="   85.828">  2  5  1 -1</clus>
<clus scale="   97.274">  7  8 -1 -1</clus>
<clus scale="   85.828">  2  5  1 -1</clus>
</clustering>
</event>
<event>
 9    1  0.1973774E-005  0.1385411E+03  0.7546771E-02  0.1215377E+00
          3   -1    0    0  502    0  0.00000000000E+00  0.00000000000E+00  0.48200003211E+03  0.48200003211E+03  0.00000000000E+00 0. -1.
         -4   -1    0    0    0  501 -0.00000000000E+00 -0.00000000000E+00 -0.19398627088E+03  0.19398627088E+03  0.00000000000E+00 0.  1.
        -24    2    1    2    0    0  0.92129606569E+02 -0.65468679947E+01 -0.81713136810E+02  0.15206288484E+03  0.88968299595E+02 0.  0.
         23    2    1    2    0    0 -0.14809704591E+03 -0.43838342765E+02  0.36250393729E+02  0.18204975339E+03  0.89294380333E+02 0.  0.
         13    1    3    3    0    0  0.50893813099E+02  0.40588623263E+02 -0.34812912634E+02  0.73821104274E+02  0.00000000000E+00 0. -1.
        -14    1    3    3    0    0  0.41235793470E+02 -0.47135491257E+02 -0.46900224176E+02  0.78241780571E+02  0.00000000000E+00 0.  1.
        -13    1    4    4    0    0 -0.82258553838E+02 -0.65453563372E+02  0.29392466840E+01  0.10516310098E+03  0.00000000000E+00 0.  1.
         13    1    4    4    0    0 -0.65838492070E+02  0.21615220607E+02  0.33311147045E+02  0.76886652401E+02  0.00000000000E+00 0. -1.
         21    1    1    2  502  501  0.55967439339E+02  0.50385210760E+02  0.33347650431E+03  0.34187366476E+03  0.00000000000E+00 0. -1.
<scales pt_clust_5="13000.00000" pt_clust_6="13000.00000" pt_clust_7="13000.00000" pt_clust_8="13000.00000" pt_clust_9="75.30620"></scales>
<clustering>
<clus scale="   75.306">  1  9  2 -1</clus>
<clus scale="   88.968">  5  6 -1 -1</clus>
<clus scale="   89.294">  7  8 -1 -1</clus>
<clus scale="  138.331">  2  5  1 -1</clus>
<clus scale="   75.306">  1  5  2 -1</clus>
</clustering>
</event>
<event>
 9    1  0.1973774E-005  0.9856807E+02  0.7546771E-02  0.1293863E+00
          1   -1    0    0  502    0  0.00000000000E+00  0.00000000000E+00  0.24608761900E+03  0.24608761900E+03  0.00000000000E+00 0. -1.
         -2   -1    0    0    0  501 -0.00000000000E+00 -0.00000000000E+00 -0.10663463453E+03  0.10663463453E+03  0.00000000000E+00 0.  1.
         23    2    1    2    0    0  0.85155163904E+01 -0.29056303562E+02 -0.68982224032E+02  0.12104521560E+03  0.94744995605E+02 0.  0.
        -24    2    1    2    0    0  0.50921150776E+01  0.89797895577E+01  0.15834527630E+03  0.17602422707E+03  0.76188816322E+02 0.  0.
         13    1    4    4    0    0 -0.27379868838E+02  0.26914630387E+02  0.97177317317E+02  0.10448677212E+03  0.00000000000E+00 0. -1.
        -14    1    4    4    0    0  0.32471983916E+02 -0.17934840829E+02  0.61167958980E+02  0.71537454950E+02  0.00000000000E+00 0.  1.
        -11    1    3    3    0    0  0.39394583888E+02  0.28405780556E+01 -0.65534398901E+02  0.76516400612E+02  0.00000000000E+00 0.  1.
         11    1    3    3    0    0 -0.30879067497E+02 -0.31896881618E+02 -0.34478251316E+01  0.44528814992E+02  0.00000000000E+00 0. -1.
         21    1    1    2  502  501 -0.13607631468E+02  0.20076514004E+02  0.50089932200E+02  0.55652810860E+02  0.00000000000E+00 0.  1.
<scales pt_clust_5="13000.00000" pt_clust_6="13000.00000" pt_clust_7="13000.00000" pt_clust_8="13000.00000" pt_clust_9="24.25354"></scales>
<clustering>
<clus scale="   24.254">  1  9  2 -1</clus>
<clus scale="   76.189">  5  6 -1 -1</clus>
<clus scale="   80.894">  1  5  2 -1</clus>
<clus scale="   94.745">  7  8 -1 -1</clus>
<clus scale="   24.254">  1  5  2 -1</clus>
</clustering>
</event>
<event>
 9    1  0.1973774E-005  0.3041141E+03  0.7546771E-02  0.1083605E+00
          1   -1    0    0  502    0  0.00000000000E+00  0.00000000000E+00  0.30402603252E+03  0.30402603252E+03  0.00000000000E+00 0. -1.
         -2   -1    0    0    0  501 -0.00000000000E+00 -0.00000000000E+00 -0.39905342177E+03  0.39905342177E+03  0.00000000000E+00 0.  1.
        -24    2    1    2    0    0  0.29794229556E+03 -0.13978552741E+02 -0.15187191303E+03  0.34386673800E+03  0.78830477057E+02 0.  0.
         23    2    1    2    0    0 -0.27869008529E+03 -0.58023318929E+01 -0.32384149330E+01  0.29309244314E+03  0.90503382251E+02 0.  0.
         13    1    3    3    0    0  0.11867784056E+02  0.16921618718E+02 -0.79836496499E+01  0.22156807987E+02  0.00000000000E+00 0. -1.
        -14    1    3    3    0    0  0.28607451150E+03 -0.30900171459E+02 -0.14388826338E+03  0.32170993001E+03  0.00000000000E+00 0.  1.
        -13    1    4    4    0    0 -0.54955305649E+02  0.20755389286E+02  0.28965414775E+02  0.65497076702E+02  0.00000000000E+00 0.  1.
         13    1    4    4    0    0 -0.22373477964E+03 -0.26557721179E+02 -0.32203829708E+02  0.22759536644E+03  0.00000000000E+00 0. -1.
         21    1    1    2  502  501 -0.19252210266E+02  0.19780884634E+02  0.60082938710E+02  0.66120273147E+02  0.00000000000E+00 0.  1.
<scales pt_clust_5="13000.00000" pt_clust_6="13000.00000" pt_clust_7="13000.00000" pt_clust_8="13000.00000" pt_clust_9="27.60310"></scales>
<clustering>
<clus scale="   27.603">  1  9  2 -1</clus>
<clus scale="   78.830">  5  6 -1 -1</clus>
<clus scale="   90.503">  7  8 -1 -1</clus>
<clus scale="  300.847">  2  5  1 -1</clus>
<clus scale="   27.603">  1  5  2 -1</clus>
</clustering>
</event>
<event>
 9    1  0.1973774E-005  0.1882903E+03  0.7546771E-02  0.1161280E+00
          1   -1    0    0  502    0  0.00000000000E+00  0.00000000000E+00  0.28110494081E+03  0.28110494081E+03  0.00000000000E+00 0. -1.
         -2   -1    0    0    0  501 -0.00000000000E+00 -0.00000000000E+00 -0.17333964858E+03  0.17333964858E+03  0.00000000000E+00 0.  1.
        -24    2    1    2    0    0 -0.16139623925E+03  0.35688825819E+02 -0.16171636155E+02  0.18344269413E+03  0.77892630467E+02 0.  0.
         23    2    1    2    0    0  0.15368721250E+03 -0.66279951814E+02  0.59276953372E+02  0.19905637107E+03  0.89982722588E+02 0.  0.
         11    1    3    3    0    0 -0.21477345131E+02  0.22898079312E+02 -0.28499341270E+02  0.42400599558E+02  0.00000000000E+00 0. -1.
        -12    1    3    3    0    0 -0.13991889412E+03  0.12790746507E+02  0.12327705115E+02  0.14104209457E+03  0.00000000000E+00 0.  1.
        -13    1    4    4    0    0  0.14003452578E+03 -0.39438326227E+02  0.76495262031E+02  0.16436719593E+03  0.00000000000E+00 0. -1.
         13    1    4    4    0    0  0.13652686727E+02 -0.26841625587E+02 -0.17218308658E+02  0.34689175143E+02  0.00000000000E+00 0.  1.
         21    1    1    2  502  501  0.77090267460E+01  0.30591125995E+02  0.64659975009E+02  0.71945524192E+02  0.00000000000E+00 0. -1.
<scales pt_clust_5="13000.00000" pt_clust_6="13000.00000" pt_clust_7="13000.00000" pt_clust_8="13000.00000" pt_clust_9="31.54752"></scales>
<clustering>
<clus scale="   31.548">  1  9  2 -1</clus>
<clus scale="   77.893">  5  6 -1 -1</clus>
<clus scale="   89.983">  7  8 -1 -1</clus>
<clus scale="  182.821">  2  5  1 -1</clus>
<clus scale="   31.548">  1  5  2 -1</clus>
</clustering>
</event>
<event>
 9    1  0.1973774E-005  0.1232181E+03  0.7546771E-02  0.1242675E+00
         -2   -1    0    0    0  501 -0.00000000000E+00  0.00000000000E+00  0.78373529434E+03  0.78373529434E+03  0.00000000000E+00 0.  1.
          1   -1    0    0  502    0  0.00000000000E+00 -0.00000000000E+00 -0.52368086155E+02  0.52368086155E+02  0.00000000000E+00 0. -1.
         23    2    1    2    0    0  0.98996314495E+01  0.75374210406E+02  0.63455570155E+03  0.64623107317E+03  0.95783021776E+02 0.  0.
        -24    2    1    2    0    0  0.22595840033E+02 -0.87367648362E+02  0.97283069321E+02  0.15523099395E+03  0.80554254640E+02 0.  0.
         11    1    4    4    0    0  0.14803100619E+02 -0.14190245641E+02 -0.11789950735E+02  0.23653705790E+02  0.00000000000E+00 0. -1.
        -12    1    4    4    0    0  0.77927394137E+01 -0.73177402721E+02  0.10907302006E+03  0.13157728816E+03  0.00000000000E+00 0.  1.
        -13    1    3    3    0    0 -0.27998123888E+02  0.78924406369E+02  0.46181151611E+03  0.46934298043E+03  0.00000000000E+00 0.  1.
         13    1    3    3    0    0  0.37897755337E+02 -0.35501959623E+01  0.17274418544E+03  0.17688809274E+03  0.00000000000E+00 0. -1.
         21    1    1    2  502  501 -0.32495471482E+02  0.11993437956E+02 -0.47156268634E+00  0.34641313373E+02  0.00000000000E+00 0.  1.
<scales pt_clust_5="13000.00000" pt_clust_6="13000.00000" pt_clust_7="13000.00000" pt_clust_8="13000.00000" pt_clust_9="34.63810"></scales>
<clustering>
<clus scale="   34.638">  2  9  1 -1</clus>
<clus scale="   80.554">  5  6 -1 -1</clus>
<clus scale="   95.783">  7  8 -1 -1</clus>
<clus scale="  111.791">  2  5  1 -1</clus>
<clus scale="   34.638">  2  5  1 -1</clus>
</clustering>
</event>
<event>
 9    1  0.1973774E-005  0.1344679E+03  0.7546771E-02  0.1223937E+00
          1   -1    0    0  502    0  0.00000000000E+00  0.00000000000E+00  0.29133127951E+03  0.29133127951E+03  0.00000000000E+00 0. -1.
         -2   -1    0    0    0  501 -0.00000000000E+00 -0.00000000000E+00 -0.28971697554E+03  0.28971697554E+03  0.00000000000E+00 0.  1.
        -24    2    1    2    0    0 -0.96667886046E+02 -0.32555343777E+02 -0.24332485605E+03  0.27465328100E+03  0.76307985103E+02 0.  0.
         23    2    1    2    0    0  0.92595929889E+02  0.43352782268E+01  0.11218583998E+03  0.17061427989E+03  0.89054864779E+02 0.  0.
         13    1    3    3    0    0 -0.52102143482E+01  0.20612381340E+02 -0.48617644285E+02  0.53063093897E+02  0.00000000000E+00 0. -1.
        -14    1    3    3    0    0 -0.91457671697E+02 -0.53167725118E+02 -0.19470721177E+03  0.22159018710E+03  0.00000000000E+00 0.  1.
        -11    1    4    4    0    0  0.34668587412E+02 -0.33732228642E+02  0.13870914161E+02  0.50320735905E+02  0.00000000000E+00 0.  1.
         11    1    4    4    0    0  0.57927342477E+02  0.38067506869E+02  0.98314925818E+02  0.12029354398E+03  0.00000000000E+00 0. -1.
         21    1    1    2  502  501  0.40719561563E+01  0.28220065551E+02  0.13275332004E+03  0.13578069416E+03  0.00000000000E+00 0. -1.
<scales pt_clust_5="13000.00000" pt_clust_6="13000.00000" pt_clust_7="13000.00000" pt_clust_8="13000.00000" pt_clust_9="28.51233"></scales>
<clustering>
<clus scale="   28.512">  1  9  2 -1</clus>
<clus scale="   76.308">  5  6 -1 -1</clus>
<clus scale="   89.055">  7  8 -1 -1</clus>
<clus scale="  126.387">  2  5  1 -1</clus>
<clus scale="   28.512">  1  5  2 -1</clus>
</clustering>
</event>
<event>
 9    1  0.1973774E-005  0.2165518E+03  0.7546771E-02  0.1173221E+00
          1   -1    0    0  502    0  0.00000000000E+00  0.00000000000E+00  0.51387252640E+03  0.51387252640E+03  0.00000000000E+00 0. -1.
         -2   -1    0    0    0  501 -0.00000000000E+00 -0.00000000000E+00 -0.13188999972E+03  0.13188999972E+03  0.00000000000E+00 0.  1.
         23    2    1    2    0    0 -0.39292771747E+02 -0.16486814687E+03  0.21985770560E+03  0.29214633906E+03  0.91031010911E+02 0.  0.
        -24    2    1    2    0    0 -0.99548950971E+00 -0.43149540518E+02  0.93964723707E+02  0.13103968081E+03  0.80493197215E+02 0.  0.
         13    1    4    4    0    0  0.34004673105E+02 -0.35563462294E+02  0.77079737877E+02  0.91445960187E+02  0.00000000000E+00 0. -1.
        -14    1    4    4    0    0 -0.35000162615E+02 -0.75860782238E+01  0.16884985829E+02  0.39593720618E+02  0.00000000000E+00 0.  1.
        -13    1    3    3    0    0 -0.62224652146E+02 -0.14300657813E+03  0.20380001187E+03  0.25662664234E+03  0.00000000000E+00 0.  1.
         13    1    3    3    0    0  0.22931880399E+02 -0.21861568746E+02  0.16057693730E+02  0.35519696714E+02  0.00000000000E+00 0. -1.
         21    1    1    2  502  501  0.40288261257E+02  0.20801768739E+03  0.68160097375E+02  0.22257650626E+03  0.00000000000E+00 0. -1.
<scales pt_clust_5="13000.00000" pt_clust_6="13000.00000" pt_clust_7="13000.00000" pt_clust_8="13000.00000" pt_clust_9="196.48932"></scales>
<clustering>
<clus scale="   80.493">  5  6 -1 -1</clus>
<clus scale="   91.031">  7  8 -1 -1</clus>
<clus scale="   91.335">  1  5  2 -1</clus>
<clus scale="  196.489">  2  9  1 -1</clus>
<clus scale="   91.335">  1  5  2 -1</clus>
</clustering>
</event>
<event>
 9    1  0.1973774E-005  0.9658347E+02  0.7546771E-02  0.1293510E+00
          1   -1    0    0  502    0  0.00000000000E+00  0.00000000000E+00  0.39793092709E+03  0.39793092709E+03  0.00000000000E+00 0. -1.
         -2   -1    0    0    0  501 -0.00000000000E+00 -0.00000000000E+00 -0.67678123521E+02  0.67678123521E+02  0.00000000000E+00 0.  1.
        -24    2    1    2    0    0  0.33485222235E+02 -0.77681457776E+01 -0.18843478495E+02  0.90495423823E+02  0.81564335675E+02 0.  0.
         23    2    1    2    0    0  0.10375432484E+02  0.17703336110E+01  0.24678954978E+03  0.26363987089E+03  0.92141825260E+02 0.  0.
         11    1    3    3    0    0 -0.24917237520E+02 -0.15859409913E+02 -0.54967028632E+01  0.30043357849E+02  0.00000000000E+00 0. -1.
        -12    1    3    3    0    0  0.58402459755E+02  0.80912641358E+01 -0.13346775632E+02  0.60452065974E+02  0.00000000000E+00 0.  1.
        -13    1    4    4    0    0 -0.26683023683E+02 -0.19358007752E+02  0.18876530768E+03  0.19162217408E+03  0.00000000000E+00 0.  1.
         13    1    4    4    0    0  0.37058456166E+02  0.21128341363E+02  0.58024242103E+02  0.72017696810E+02  0.00000000000E+00 0. -1.
         21    1    1    2  502  501 -0.43860654718E+02  0.59978121666E+01  0.10230673228E+03  0.11147375590E+03  0.00000000000E+00 0. -1.
<scales pt_clust_5="13000.00000" pt_clust_6="13000.00000" pt_clust_7="13000.00000" pt_clust_8="13000.00000" pt_clust_9="44.26885"></scales>
<clustering>
<clus scale="   44.269">  1  9  2 -1</clus>
<clus scale="   81.564">  5  6 -1 -1</clus>
<clus scale="   86.551">  2  5  1 -1</clus>
<clus scale="   92.142">  7  8 -1 -1</clus>
<clus scale="   44.269">  1  5  2 -1</clus>
</clustering>
</event>
<event>
 9    1  0.1973774E-005  0.1076219E+03  0.7546771E-02  0.1269255E+00
          3   -1    0    0  502    0  0.00000000000E+00  0.00000000000E+00  0.77742691716E+02  0.77742691716E+02  0.00000000000E+00 0. -1.
         -4   -1    0    0    0  501 -0.00000000000E+00 -0.00000000000E+00 -0.21720576121E+03  0.21720576121E+03  0.00000000000E+00 0.  1.
         23    2    1    2    0    0  0.38430512053E+02  0.30692463815E+02 -0.11398770566E+03  0.15426674928E+03  0.91575658890E+02 0.  0.
        -24    2    1    2    0    0 -0.45775693008E+02 -0.57794031237E+02 -0.24599955170E+02  0.11258876894E+03  0.81458633547E+02 0.  0.
         11    1    4    4    0    0 -0.14610498260E+02 -0.36350476382E+02 -0.52555231871E+02  0.65550562084E+02  0.00000000000E+00 0. -1.
        -12    1    4    4    0    0 -0.31165194748E+02 -0.21443554856E+02  0.27955276701E+02  0.47038206853E+02  0.00000000000E+00 0.  1.
        -11    1    3    3    0    0  0.38773859606E+02 -0.18026199940E+02 -0.90686090412E+02  0.10026127402E+03  0.00000000000E+00 0.  1.
         11    1    3    3    0    0 -0.34334755290E+00  0.48718663755E+02 -0.23301615244E+02  0.54005475265E+02  0.00000000000E+00 0. -1.
         21    1    1    2  502  501  0.73451809548E+01  0.27101567423E+02 -0.87540866393E+00  0.28092934705E+02  0.00000000000E+00 0. -1.
<scales pt_clust_5="13000.00000" pt_clust_6="13000.00000" pt_clust_7="13000.00000" pt_clust_8="13000.00000" pt_clust_9="28.07929"></scales>
<clustering>
<clus scale="   28.079">  1  9  2 -1</clus>
<clus scale="   81.459">  5  6 -1 -1</clus>
<clus scale="   91.576">  7  8 -1 -1</clus>
<clus scale="   99.156">  1  5  2 -1</clus>
<clus scale="   28.079">  1  5  2 -1</clus>
</clustering>
</event>
<event>
 9    1  0.1973774E-005  0.1018807E+03  0.7546771E-02  0.1281579E+00
          1   -1    0    0  502    0  0.00000000000E+00  0.00000000000E+00  0.30691686334E+03  0.30691686334E+03  0.00000000000E+00 0. -1.
         -2   -1    0    0    0  501 -0.00000000000E+00 -0.00000000000E+00 -0.20294202458E+03  0.20294202458E+03  0.00000000000E+00 0.  1.
        -24    2    1    2    0    0  0.78817313987E+02 -0.11046404618E+02 -0.14135330526E+03  0.18077315011E+03  0.79774575242E+02 0.  0.
         23    2    1    2    0    0 -0.31104757744E+02  0.33020999744E+02  0.25611244305E+03  0.27546044564E+03  0.90702708056E+02 0.  0.
         13    1    3    3    0    0  0.25217609411E+01 -0.20884300832E+02 -0.78989618606E+02  0.81742725346E+02  0.00000000000E+00 0. -1.
        -14    1    3    3    0    0  0.76295553046E+02  0.98378962135E+01 -0.62363686650E+02  0.99030424765E+02  0.00000000000E+00 0.  1.
        -13    1    4    4    0    0  0.48860300426E+01  0.47537118918E+02  0.20914138781E+03  0.21453151530E+03  0.00000000000E+00 0. -1.
         13    1    4    4    0    0 -0.35990787787E+02 -0.14516119175E+02  0.46971055249E+02  0.60928930342E+02  0.00000000000E+00 0.  1.
         21    1    1    2  502  501 -0.47712556243E+02 -0.21974595126E+02 -0.10784299042E+02  0.53625292167E+02  0.00000000000E+00 0.  1.
<scales pt_clust_5="13000.00000" pt_clust_6="13000.00000" pt_clust_7="13000.00000" pt_clust_8="13000.00000" pt_clust_9="52.52971"></scales>
<clustering>
<clus scale="   52.530">  2  9  1 -1</clus>
<clus scale="   79.775">  5  6 -1 -1</clus>
<clus scale="   90.703">  7  8 -1 -1</clus>
<clus scale="   92.286">  2  5  1 -1</clus>
<clus scale="  101.881">  1  5  2 -1</clus>
</clustering>
</event>
<event>
 9    1  0.1973774E-005  0.2464774E+03  0.7546771E-02  0.1115982E+00
          1   -1    0    0  502    0  0.00000000000E+00  0.00000000000E+00  0.11784981645E+04  0.11784981645E+04  0.00000000000E+00 0. -1.
         -2   -1    0    0    0  501 -0.00000000000E+00 -0.00000000000E+00 -0.22869067652E+03  0.22869067652E+03  0.00000000000E+00 0.  1.
        -24    2    1    2    0    0  0.21022866502E+03  0.11461409104E+03 -0.88545236956E+02  0.26854913556E+03  0.83342052759E+02 0.  0.
         23    2    1    2    0    0 -0.18643445175E+03  0.73777457032E+02  0.82113055946E+03  0.85012105935E+03  0.90826768665E+02 0.  0.
         13    1    3    3    0    0  0.20787374568E+02  0.34279135156E+02 -0.41028707275E+02  0.57363131619E+02  0.00000000000E+00 0. -1.
        -14    1    3    3    0    0  0.18944129045E+03  0.80334955888E+02 -0.47516529681E+02  0.21118600394E+03  0.00000000000E+00 0.  1.
        -11    1    4    4    0    0 -0.30532599813E+02  0.21705079665E+02  0.54927710480E+02  0.66486115191E+02  0.00000000000E+00 0.  1.
         11    1    4    4    0    0 -0.15590185193E+03  0.52072377367E+02  0.76620284898E+03  0.78363494416E+03  0.00000000000E+00 0. -1.
         21    1    1    2  502  501 -0.23794213275E+02 -0.18839154808E+03  0.21722216545E+03  0.28851864607E+03  0.00000000000E+00 0. -1.
<scales pt_clust_5="13000.00000" pt_clust_6="13000.00000" pt_clust_7="13000.00000" pt_clust_8="13000.00000" pt_clust_9="189.88823"></scales>
<clustering>
<clus scale="   83.342">  5  6 -1 -1</clus>
<clus scale="   90.827">  7  8 -1 -1</clus>
<clus scale="  189.888">  1  9  2 -1</clus>
<clus scale="  243.819">  2  5  1 -1</clus>
<clus scale="  189.888">  1  5  2 -1</clus>
</clustering>
</event>
<event>
 9    1  0.1973774E-005  0.1634781E+03  0.7546771E-02  0.1187968E+00
          1   -1    0    0  502    0  0.00000000000E+00  0.00000000000E+00  0.41445602005E+03  0.41445602005E+03  0.00000000000E+00 0. -1.
         -2   -1    0    0    0  501 -0.00000000000E+00 -0.00000000000E+00 -0.33248161084E+03  0.33248161084E+03  0.00000000000E+00 0.  1.
        -24    2    1    2    0    0  0.85026655532E+02 -0.82006897189E+02 -0.20382503293E+03  0.24867523071E+03  0.79624512441E+02 0.  0.
         23    2    1    2    0    0 -0.14604894765E+03  0.19775584140E+03  0.13133447854E+03  0.29582484634E+03  0.99125811694E+02 0.  0.
         11    1    3    3    0    0  0.12504529475E+02 -0.63857573492E+02 -0.71381054732E+02  0.96588860249E+02  0.00000000000E+00 0. -1.
        -12    1    3    3    0    0  0.72522126057E+02 -0.18149323698E+02 -0.13244397820E+03  0.15208637046E+03  0.00000000000E+00 0.  1.
        -13    1    4    4    0    0 -0.12574785808E+03  0.20525186775E+03  0.10747434367E+03  0.26361257097E+03  0.00000000000E+00 0.  1.
         13    1    4    4    0    0 -0.20301089573E+02 -0.74960263493E+01  0.23860134870E+02  0.32212275376E+02  0.00000000000E+00 0. -1.
         21    1    1    2  502  501  0.61022292121E+02 -0.11574894421E+03  0.15446496360E+03  0.20243755383E+03  0.00000000000E+00 0. -1.
<scales pt_clust_5="13000.00000" pt_clust_6="13000.00000" pt_clust_7="13000.00000" pt_clust_8="13000.00000" pt_clust_9="130.84930"></scales>
<clustering>
<clus scale="   79.625">  5  6 -1 -1</clus>
<clus scale="   99.126">  7  8 -1 -1</clus>
<clus scale="  130.849">  1  9  2 -1</clus>
<clus scale="  152.444">  2  5  1 -1</clus>
<clus scale="  130.849">  1  5  2 -1</clus>
</clustering>
</event>
<event>
 9    1  0.1973774E-005  0.2312060E+03  0.7546771E-02  0.1126582E+00
         -2   -1    0    0    0  501 -0.00000000000E+00  0.00000000000E+00  0.97226900055E+03  0.97226900055E+03  0.00000000000E+00 0.  1.
          1   -1    0    0  502    0  0.00000000000E+00 -0.00000000000E+00 -0.20607348248E+03  0.20607348248E+03  0.00000000000E+00 0. -1.
         23    2    1    2    0    0 -0.20590308827E+03  0.19597638366E+02  0.75153680461E+03  0.78492786903E+03  0.92325736991E+02 0.  0.
        -24    2    1    2    0    0  0.23837824090E+03  0.14066868170E+02  0.11928929809E+03  0.27880443215E+03  0.80497902060E+02 0.  0.
         13    1    4    4    0    0  0.10460997694E+03 -0.14757550225E+02  0.14893812049E+02  0.10669047849E+03  0.00000000000E+00 0. -1.
        -14    1    4    4    0    0  0.13376826396E+03  0.28824418395E+02  0.10439548605E+03  0.17211395366E+03  0.00000000000E+00 0.  1.
        -11    1    3    3    0    0 -0.81918123101E+02  0.51641336737E+01  0.15416275358E+03  0.17465223090E+03  0.00000000000E+00 0. -1.
         11    1    3    3    0    0 -0.12398496517E+03  0.14433504693E+02  0.59737405104E+03  0.61027563813E+03  0.00000000000E+00 0.  1.
         21    1    1    2  502  501 -0.32475152630E+02 -0.33664506536E+02 -0.10463058464E+03  0.11461018184E+03  0.00000000000E+00 0. -1.
<scales pt_clust_5="13000.00000" pt_clust_6="13000.00000" pt_clust_7="13000.00000" pt_clust_8="13000.00000" pt_clust_9="46.77536"></scales>
<clustering>
<clus scale="   46.775">  2  9  1 -1</clus>
<clus scale="   80.498">  5  6 -1 -1</clus>
<clus scale="   92.326">  7  8 -1 -1</clus>
<clus scale="  226.742">  2  5  1 -1</clus>
<clus scale="   46.775">  2  5  1 -1</clus>
</clustering>
</event>
<event>
 9    1  0.1973774E-005  0.9259584E+02  0.7546771E-02  0.1302954E+00
          3   -1    0    0  502    0  0.00000000000E+00  0.00000000000E+00  0.20537753508E+03  0.20537753508E+03  0.00000000000E+00 0. -1.
         -4   -1    0    0    0  501 -0.00000000000E+00 -0.00000000000E+00 -0.20727884761E+03  0.20727884761E+03  0.00000000000E+00 0.  1.
        -24    2    1    2    0    0 -0.15506045648E+02  0.31617748136E+01 -0.16533792479E+03  0.18444618888E+03  0.80208060372E+02 0.  0.
         23    2    1    2    0    0  0.54336446500E+02 -0.23203277905E+02  0.81724970848E+02  0.13554815078E+03  0.90573112984E+02 0.  0.
         11    1    3    3    0    0  0.20635210535E+01  0.32789222412E+02 -0.13369568168E+03  0.13767326002E+03  0.00000000000E+00 0. -1.
        -12    1    3    3    0    0 -0.17569566702E+02 -0.29627447599E+02 -0.31642243110E+02  0.46772928862E+02  0.00000000000E+00 0.  1.
        -13    1    4    4    0    0  0.10293181197E+02  0.26422529581E+02 -0.23395387840E+01  0.28452997915E+02  0.00000000000E+00 0.  1.
         13    1    4    4    0    0  0.44043265303E+02 -0.49625807486E+02  0.84064509632E+02  0.10709515286E+03  0.00000000000E+00 0. -1.
         21    1    1    2  502  501 -0.38830400852E+02  0.20041503092E+02  0.81711641413E+02  0.92662043032E+02  0.00000000000E+00 0.  1.
<scales pt_clust_5="13000.00000" pt_clust_6="13000.00000" pt_clust_7="13000.00000" pt_clust_8="13000.00000" pt_clust_9="43.69739"></scales>
<clustering>
<clus scale="   43.697">  1  9  2 -1</clus>
<clus scale="   80.208">  5  6 -1 -1</clus>
<clus scale="   82.485">  2  5  1 -1</clus>
<clus scale="   90.573">  7  8 -1 -1</clus>
<clus scale="   43.697">  1  5  2 -1</clus>
</clustering>
</event>
<event>
 9    1  0.1973774E-005  0.1531017E+03  0.7546771E-02  0.1198761E+00
          1   -1    0    0  502    0  0.00000000000E+00  0.00000000000E+00  0.13668870754E+03  0.13668870754E+03  0.00000000000E+00 0. -1.
         -2   -1    0    0    0  501 -0.00000000000E+00 -0.00000000000E+00 -0.37592870912E+03  0.37592870912E+03  0.00000000000E+00 0.  1.
         23    2    1    2    0    0  0.32797771204E+02  0.14740971611E+03 -0.25174592314E+03  0.30783866838E+03  0.92646196540E+02 0.  0.
        -24    2    1    2    0    0 -0.22735344906E+02 -0.75256786128E+02 -0.34454952502E+02  0.11810336873E+03  0.81122020359E+02 0.  0.
         13    1    4    4    0    0  0.21820365052E+02 -0.53710138896E+02 -0.36608381143E+02  0.68564428978E+02  0.00000000000E+00 0. -1.
        -14    1    4    4    0    0 -0.44555709957E+02 -0.21546647232E+02  0.21534286416E+01  0.49538939751E+02  0.00000000000E+00 0.  1.
        -11    1    3    3    0    0  0.31490992589E+02  0.91692498920E+02 -0.75173558628E+02  0.12267950476E+03  0.00000000000E+00 0.  1.
         11    1    3    3    0    0  0.13067786152E+01  0.55717217187E+02 -0.17657236451E+03  0.18515916361E+03  0.00000000000E+00 0. -1.
         21    1    1    2  502  501 -0.10062426298E+02 -0.72152929979E+02  0.46960874065E+02  0.86675379552E+02  0.00000000000E+00 0. -1.
<scales pt_clust_5="13000.00000" pt_clust_6="13000.00000" pt_clust_7="13000.00000" pt_clust_8="13000.00000" pt_clust_9="72.85120"></scales>
<clustering>
<clus scale="   72.851">  1  9  2 -1</clus>
<clus scale="   81.122">  5  6 -1 -1</clus>
<clus scale="   92.646">  7  8 -1 -1</clus>
<clus scale="  146.416">  1  5  2 -1</clus>
<clus scale="   72.851">  1  5  2 -1</clus>
</clustering>
</event>
<event>
 9    1  0.1973774E-005  0.1042922E+03  0.7546771E-02  0.1275246E+00
          1   -1    0    0  502    0  0.00000000000E+00  0.00000000000E+00  0.15599818792E+03  0.15599818792E+03  0.00000000000E+00 0. -1.
         -2   -1    0    0    0  501 -0.00000000000E+00 -0.00000000000E+00 -0.15257547634E+03  0.15257547634E+03  0.00000000000E+00 0.  1.
        -24    2    1    2    0    0  0.42200549010E+02 -0.30010081932E+02 -0.18474786380E+02  0.98115128467E+02  0.81263579469E+02 0.  0.
         23    2    1    2    0    0 -0.67177263437E+02 -0.44572132238E+02 -0.18468987217E+02  0.12205154478E+03  0.89755314047E+02 0.  0.
         11    1    3    3    0    0  0.53812733201E+02  0.80988830336E+01 -0.53013965321E+00  0.54421348835E+02  0.00000000000E+00 0. -1.
        -12    1    3    3    0    0 -0.11612184191E+02 -0.38108964965E+02 -0.17944646727E+02  0.43693779632E+02  0.00000000000E+00 0.  1.
        -11    1    4    4    0    0 -0.65502135124E+02 -0.43708607739E+01 -0.39536113316E+02  0.76633794020E+02  0.00000000000E+00 0. -1.
         11    1    4    4    0    0 -0.16751283126E+01 -0.40201271464E+02  0.21067126099E+02  0.45417750762E+02  0.00000000000E+00 0.  1.
         21    1    1    2  502  501  0.24976714426E+02  0.74582214169E+02  0.40366485177E+02  0.88406991010E+02  0.00000000000E+00 0. -1.
<scales pt_clust_5="13000.00000" pt_clust_6="13000.00000" pt_clust_7="13000.00000" pt_clust_8="13000.00000" pt_clust_9="78.65331"></scales>
<clustering>
<clus scale="   78.653">  1  9  2 -1</clus>
<clus scale="   81.264">  5  6 -1 -1</clus>
<clus scale="   89.755">  7  8 -1 -1</clus>
<clus scale="   97.080">  2  5  1 -1</clus>
<clus scale="   78.653">  1  5  2 -1</clus>
</clustering>
</event>
<event>
 9    1  0.1973774E-005  0.9867890E+02  0.7546771E-02  0.1287299E+00
         -2   -1    0    0    0  501 -0.00000000000E+00  0.00000000000E+00  0.93844035399E+02  0.93844035399E+02  0.00000000000E+00 0.  1.
          1   -1    0    0  502    0  0.00000000000E+00 -0.00000000000E+00 -0.35740022856E+03  0.35740022856E+03  0.00000000000E+00 0. -1.
        -24    2    1    2    0    0  0.26724732379E+02 -0.38711237661E+02  0.57653485100E+02  0.10841874219E+03  0.78853839931E+02 0.  0.
         23    2    1    2    0    0 -0.29285923005E+01  0.35594139551E+02 -0.27478006273E+03  0.29056002855E+03  0.87438709351E+02 0.  0.
         13    1    3    3    0    0  0.17265047100E+02 -0.54873905880E+02  0.11573454566E+02  0.58678550156E+02  0.00000000000E+00 0. -1.
        -14    1    3    3    0    0  0.94596852794E+01  0.16162668219E+02  0.46080030534E+02  0.49740192034E+02  0.00000000000E+00 0.  1.
        -13    1    4    4    0    0  0.18571795603E+02  0.47228866697E+02 -0.25228481542E+03  0.25733850379E+03  0.00000000000E+00 0. -1.
         13    1    4    4    0    0 -0.21500387904E+02 -0.11634727146E+02 -0.22495247312E+02  0.33221524760E+02  0.00000000000E+00 0.  1.
         21    1    1    2  502  501 -0.23796140079E+02  0.31170981106E+01 -0.46429615529E+02  0.52265493219E+02  0.00000000000E+00 0. -1.
<scales pt_clust_5="13000.00000" pt_clust_6="13000.00000" pt_clust_7="13000.00000" pt_clust_8="13000.00000" pt_clust_9="23.99943"></scales>
<clustering>
<clus scale="   23.999">  2  9  1 -1</clus>
<clus scale="   78.854">  5  6 -1 -1</clus>
<clus scale="   87.439">  7  8 -1 -1</clus>
<clus scale="   91.159">  1  5  2 -1</clus>
<clus scale="   23.999">  2  5  1 -1</clus>
</clustering>
</event>
<event>
 9    1  0.1973774E-005  0.9447867E+02  0.7546771E-02  0.1301805E+00
         -2   -1    0    0    0  501 -0.00000000000E+00  0.00000000000E+00  0.40196496373E+02  0.40196496373E+02  0.00000000000E+00 0.  1.
          1   -1    0    0  502    0  0.00000000000E+00 -0.00000000000E+00 -0.53230001774E+03  0.53230001774E+03  0.00000000000E+00 0. -1.
        -24    2    1    2    0    0  0.11091284631E+02 -0.10260573082E+02 -0.22310830070E+02  0.82018188558E+02  0.77465567584E+02 0.  0.
         23    2    1    2    0    0  0.19853630922E+02  0.70694743968E+01 -0.42740351103E+03  0.43789873339E+03  0.92937588349E+02 0.  0.
         13    1    3    3    0    0  0.22870148391E+02 -0.37244695654E+02  0.21227012192E+01  0.43757478244E+02  0.00000000000E+00 0. -1.
        -14    1    3    3    0    0 -0.11778863760E+02  0.26984122572E+02 -0.24433531289E+02  0.38260710314E+02  0.00000000000E+00 0.  1.
        -11    1    4    4    0    0 -0.37384539346E+02  0.71012213223E+01 -0.17307424670E+03  0.17720814314E+03  0.00000000000E+00 0.  1.
         11    1    4    4    0    0  0.57238170267E+02 -0.31746925547E-01 -0.25432926434E+03  0.26069059024E+03  0.00000000000E+00 0. -1.
         21    1    1    2  502  501 -0.30944915552E+02  0.31910986855E+01 -0.42389180265E+02  0.52579592171E+02  0.00000000000E+00 0.  1.
<scales pt_clust_5="13000.00000" pt_clust_6="13000.00000" pt_clust_7="13000.00000" pt_clust_8="13000.00000" pt_clust_9="31.10902"></scales>
<clustering>
<clus scale="   31.109">  1  9  2 -1</clus>
<clus scale="   77.466">  5  6 -1 -1</clus>
<clus scale="   79.308">  1  5  2 -1</clus>
<clus scale="   92.938">  7  8 -1 -1</clus>
<clus scale="   94.479">  2  5  1 -1</clus>
</clustering>
</event>
<event>
 9    1  0.1973774E-005  0.1633307E+03  0.7546771E-02  0.1206198E+00
         -2   -1    0    0    0  501 -0.00000000000E+00  0.00000000000E+00  0.22166435940E+03  0.22166435940E+03  0.00000000000E+00 0.  1.
          1   -1    0    0  502    0  0.00000000000E+00 -0.00000000000E+00 -0.33175320971E+03  0.33175320971E+03  0.00000000000E+00 0. -1.
        -24    2    1    2    0    0  0.62524819418E+02 -0.49560979587E+01  0.12123716408E+03  0.15887366724E+03  0.81292534949E+02 0.  0.
         23    2    1    2    0    0  0.37143233602E+02  0.11110432423E+03 -0.40818728093E+02  0.15476443471E+03  0.92531459638E+02 0.  0.
         11    1    3    3    0    0  0.27656828955E+02 -0.41369732897E+02  0.77656623008E+02  0.92232890472E+02  0.00000000000E+00 0. -1.
        -12    1    3    3    0    0  0.34867990462E+02  0.36413634939E+02  0.43580541076E+02  0.66640776772E+02  0.00000000000E+00 0.  1.
        -13    1    4    4    0    0  0.63811421874E+01  0.29812525566E+02 -0.58590957394E+02  0.66048512054E+02  0.00000000000E+00 0. -1.
         13    1    4    4    0    0  0.30762091414E+02  0.81291798665E+02  0.17772229301E+02  0.88715922656E+02  0.00000000000E+00 0.  1.
         21    1    1    2  502  501 -0.99668053020E+02 -0.10614822627E+03 -0.19050728630E+03  0.23977946715E+03  0.00000000000E+00 0. -1.
<scales pt_clust_5="13000.00000" pt_clust_6="13000.00000" pt_clust_7="13000.00000" pt_clust_8="13000.00000" pt_clust_9="134.59135"></scales>
<clustering>
<clus scale="   81.293">  5  6 -1 -1</clus>
<clus scale="   92.531">  7  8 -1 -1</clus>
<clus scale="  102.676">  1  5  2 -1</clus>
<clus scale="  134.591">  2  9  1 -1</clus>
<clus scale="  134.591">  2  5  1 -1</clus>
</clustering>
</event>
<event>
 9    1  0.1973774E-005  0.1010347E+03  0.7546771E-02  0.1284102E+00
         -2   -1    0    0    0  501 -0.00000000000E+00  0.00000000000E+00  0.21653949370E+02  0.21653949370E+02  0.00000000000E+00 0.  1.
          1   -1    0    0  502    0  0.00000000000E+00 -0.00000000000E+00 -0.10975766227E+04  0.10975766227E+04  0.00000000000E+00 0. -1.
         23    2    1    2    0    0 -0.55342486002E+02 -0.41984276382E+02 -0.32777910144E+03  0.34773781320E+03  0.93042878111E+02 0.  0.
        -24    2    1    2    0    0  0.29609474783E+02 -0.35862097835E+02 -0.53516527510E+03  0.54327794614E+03  0.81155677776E+02 0.  0.
         11    1    4    4    0    0  0.56424361656E+02 -0.34910685947E+02 -0.35882324392E+03  0.36490626873E+03  0.00000000000E+00 0. -1.
        -12    1    4    4    0    0 -0.26814886873E+02 -0.95141188819E+00 -0.17634203118E+03  0.17837167741E+03  0.00000000000E+00 0.  1.
        -13    1    3    3    0    0 -0.39411395379E+02 -0.70091677390E+02 -0.19182283565E+03  0.20799543650E+03  0.00000000000E+00 0. -1.
         13    1    3    3    0    0 -0.15931090623E+02  0.28107401008E+02 -0.13595626579E+03  0.13974237670E+03  0.00000000000E+00 0.  1.
         21    1    1    2  502  501  0.25733011219E+02  0.77846374217E+02 -0.21297829679E+03  0.22821481273E+03  0.00000000000E+00 0.  1.
<scales pt_clust_5="13000.00000" pt_clust_6="13000.00000" pt_clust_7="13000.00000" pt_clust_8="13000.00000" pt_clust_9="81.98930"></scales>
<clustering>
<clus scale="   81.156">  5  6 -1 -1</clus>
<clus scale="   81.989">  1  9  2 -1</clus>
<clus scale="   90.207">  2  5  1 -1</clus>
<clus scale="   93.043">  7  8 -1 -1</clus>
<clus scale="   90.207">  2  5  1 -1</clus>
</clustering>
</event>
<event>
 9    1  0.1973774E-005  0.1127267E+03  0.7546771E-02  0.1260028E+00
         -2   -1    0    0    0  501 -0.00000000000E+00  0.00000000000E+00  0.48396566412E+02  0.48396566412E+02  0.00000000000E+00 0.  1.
          1   -1    0    0  502    0  0.00000000000E+00 -0.00000000000E+00 -0.37489081446E+03  0.37489081446E+03  0.00000000000E+00 0. -1.
         23    2    1    2    0    0  0.58187466604E+02 -0.41495108764E+02 -0.71144626992E+02  0.13689741889E+03  0.92583584012E+02 0.  0.
        -24    2    1    2    0    0 -0.26202973019E+02  0.46865384552E+02 -0.19798088454E+03  0.22048837155E+03  0.80843869775E+02 0.  0.
         13    1    4    4    0    0  0.78556107657E+01  0.32589008548E+02 -0.17224248379E+03  0.17547429248E+03  0.00000000000E+00 0. -1.
        -14    1    4    4    0    0 -0.34058583785E+02  0.14276376004E+02 -0.25738400749E+02  0.45014079068E+02  0.00000000000E+00 0.  1.
        -13    1    3    3    0    0 -0.25232208125E+02 -0.10931230861E+02 -0.22996105054E+02  0.35846575605E+02  0.00000000000E+00 0. -1.
         13    1    3    3    0    0  0.83419674728E+02 -0.30563877902E+02 -0.48148521938E+02  0.10105084329E+03  0.00000000000E+00 0.  1.
         21    1    1    2  502  501 -0.31984493585E+02 -0.53702757884E+01 -0.57368736514E+02  0.65901590429E+02  0.00000000000E+00 0. -1.
<scales pt_clust_5="13000.00000" pt_clust_6="13000.00000" pt_clust_7="13000.00000" pt_clust_8="13000.00000" pt_clust_9="32.43220"></scales>
<clustering>
<clus scale="   32.432">  2  9  1 -1</clus>
<clus scale="   80.844">  5  6 -1 -1</clus>
<clus scale="   92.584">  7  8 -1 -1</clus>
<clus scale="  103.302">  2  5  1 -1</clus>
<clus scale="   32.432">  2  5  1 -1</clus>
</clustering>
</event>
<event>
 9    1  0.1973774E-005  0.1231701E+03  0.7546771E-02  0.1241214E+00
         -2   -1    0    0    0  501 -0.00000000000E+00  0.00000000000E+00  0.45325136409E+02  0.45325136409E+02  0.00000000000E+00 0.  1.
          1   -1    0    0  502    0  0.00000000000E+00 -0.00000000000E+00 -0.71367844979E+03  0.71367844979E+03  0.00000000000E+00 0. -1.
        -24    2    1    2    0    0  0.56845893311E+02 -0.40364371652E+01 -0.13276087444E+03  0.16563007413E+03  0.80994587861E+02 0.  0.
         23    2    1    2    0    0 -0.12001249718E+03 -0.19484069997E+02 -0.20198872685E+03  0.25302858289E+03  0.91877034773E+02 0.  0.
         11    1    3    3    0    0  0.69789339034E+02 -0.21937129761E+02 -0.11873797132E+03  0.13946503267E+03  0.00000000000E+00 0. -1.
        -12    1    3    3    0    0 -0.12943445723E+02  0.17900692595E+02 -0.14022903120E+02  0.26165041458E+02  0.00000000000E+00 0.  1.
        -13    1    4    4    0    0 -0.86460208314E+02 -0.49822503831E+02 -0.17169477009E+03  0.19858686660E+03  0.00000000000E+00 0. -1.
         13    1    4    4    0    0 -0.33552288866E+02  0.30338433834E+02 -0.30293956757E+02  0.54441716281E+02  0.00000000000E+00 0.  1.
         21    1    1    2  502  501  0.63166603870E+02  0.23520507162E+02 -0.33360371208E+03  0.34034492918E+03  0.00000000000E+00 0. -1.
<scales pt_clust_5="13000.00000" pt_clust_6="13000.00000" pt_clust_7="13000.00000" pt_clust_8="13000.00000" pt_clust_9="67.40352"></scales>
<clustering>
<clus scale="   67.404">  2  9  1 -1</clus>
<clus scale="   80.995">  5  6 -1 -1</clus>
<clus scale="   91.877">  7  8 -1 -1</clus>
<clus scale="  115.281">  1  5  2 -1</clus>
<clus scale="   67.404">  2  5  1 -1</clus>
</clustering>
</event>
<event>
 9    1  0.1973774E-005  0.1166078E+03  0.7546771E-02  0.1250125E+00
         -2   -1    0    0    0  501 -0.00000000000E+00  0.00000000000E+00  0.85409302498E+03  0.85409302498E+03  0.00000000000E+00 0.  1.
          1   -1    0    0  502    0  0.00000000000E+00 -0.00000000000E+00 -0.19532218564E+02  0.19532218564E+02  0.00000000000E+00 0. -1.
        -24    2    1    2    0    0  0.48084126331E+02 -0.49495567329E+02  0.43400826938E+03  0.44794330374E+03  0.86764803275E+02 0.  0.
         23    2    1    2    0    0 -0.40449625017E+02  0.70444563406E+02  0.33572182489E+03  0.35712417376E+03  0.90718923606E+02 0.  0.
         13    1    3    3    0    0  0.68166616745E+02 -0.46913914265E+02  0.26225146325E+03  0.27499715083E+03  0.00000000000E+00 0. -1.
        -14    1    3    3    0    0 -0.20082490414E+02 -0.25816530635E+01  0.17175680613E+03  0.17294615291E+03  0.00000000000E+00 0.  1.
        -11    1    4    4    0    0 -0.66122208437E+02  0.66915852518E+02  0.23520020285E+03  0.25331603421E+03  0.00000000000E+00 0. -1.
         11    1    4    4    0    0  0.25672583419E+02  0.35287108882E+01  0.10052162203E+03  0.10380813955E+03  0.00000000000E+00 0.  1.
         21    1    1    2  502  501 -0.76345013138E+01 -0.20948996077E+02  0.64830712148E+02  0.68557766041E+02  0.00000000000E+00 0. -1.
<scales pt_clust_5="13000.00000" pt_clust_6="13000.00000" pt_clust_7="13000.00000" pt_clust_8="13000.00000" pt_clust_9="22.29677"></scales>
<clustering>
<clus scale="   22.297">  2  9  1 -1</clus>
<clus scale="   86.765">  5  6 -1 -1</clus>
<clus scale="   90.719">  7  8 -1 -1</clus>
<clus scale="  113.559">  1  5  2 -1</clus>
<clus scale="   22.297">  2  5  1 -1</clus>
</clustering>
</event>
<event>
 9    1  0.1973774E-005  0.1104749E+03  0.7546771E-02  0.1263647E+00
          1   -1    0    0  502    0  0.00000000000E+00  0.00000000000E+00  0.84460987400E+02  0.84460987400E+02  0.00000000000E+00 0. -1.
         -2   -1    0    0    0  501 -0.00000000000E+00 -0.00000000000E+00 -0.18579531948E+03  0.18579531948E+03  0.00000000000E+00 0.  1.
         23    2    1    2    0    0  0.50928575902E+02  0.54241023435E+02 -0.71942797535E+02  0.13806033895E+03  0.91373314525E+02 0.  0.
        -24    2    1    2    0    0 -0.39797282150E+02 -0.31379874015E+02 -0.41122649628E+02  0.10419316602E+03  0.81219599684E+02 0.  0.
         13    1    4    4    0    0 -0.11315750265E+02 -0.25879724993E+02  0.21288915271E+02  0.35369821645E+02  0.00000000000E+00 0. -1.
        -14    1    4    4    0    0 -0.28481531885E+02 -0.55001490224E+01 -0.62411564898E+02  0.68823344374E+02  0.00000000000E+00 0.  1.
        -11    1    3    3    0    0  0.88224449631E+01  0.34814231182E+02 -0.82957871207E+02  0.90398421575E+02  0.00000000000E+00 0.  1.
         11    1    3    3    0    0  0.42106130939E+02  0.19426792254E+02  0.11015073673E+02  0.47661917376E+02  0.00000000000E+00 0. -1.
         21    1    1    2  502  501 -0.11131293753E+02 -0.22861149420E+02  0.11731115087E+02  0.28002801906E+02  0.00000000000E+00 0. -1.
<scales pt_clust_5="13000.00000" pt_clust_6="13000.00000" pt_clust_7="13000.00000" pt_clust_8="13000.00000" pt_clust_9="25.42711"></scales>
<clustering>
<clus scale="   25.427">  1  9  2 -1</clus>
<clus scale="   81.220">  5  6 -1 -1</clus>
<clus scale="   91.373">  7  8 -1 -1</clus>
<clus scale="  102.236">  1  5  2 -1</clus>
<clus scale="   25.427">  1  5  2 -1</clus>
</clustering>
</event>
<event>
 9    1  0.1973774E-005  0.1732937E+03  0.7546771E-02  0.1175268E+00
         -2   -1    0    0    0  501 -0.00000000000E+00  0.00000000000E+00  0.11682041019E+03  0.11682041019E+03  0.00000000000E+00 0.  1.
          1   -1    0    0  502    0  0.00000000000E+00 -0.00000000000E+00 -0.16745938633E+04  0.16745938633E+04  0.00000000000E+00 0. -1.
         23    2    1    2    0    0  0.64331938028E+02  0.13227222599E+03  0.34345391127E+02  0.17561552100E+03  0.89591658677E+02 0.  0.
        -24    2    1    2    0    0 -0.12609514840E+02 -0.18273683274E+03 -0.12541478606E+04  0.12701887536E+04  0.83311844775E+02 0.  0.
         11    1    4    4    0    0  0.30319320137E+02 -0.10621055299E+03 -0.58768585111E+03  0.59797541951E+03  0.00000000000E+00 0. -1.
        -12    1    4    4    0    0 -0.42928834976E+02 -0.76526279759E+02 -0.66646200951E+03  0.67221333406E+03  0.00000000000E+00 0.  1.
        -11    1    3    3    0    0  0.26793157087E+02  0.12074605787E+03  0.49911884304E+02  0.13337421022E+03  0.00000000000E+00 0.  1.
         11    1    3    3    0    0  0.37538780940E+02  0.11526168120E+02 -0.15566493177E+02  0.42241310773E+02  0.00000000000E+00 0. -1.
         21    1    1    2  502  501 -0.51722423188E+02  0.50464606754E+02 -0.33797098356E+03  0.34560999888E+03  0.00000000000E+00 0.  1.
<scales pt_clust_5="13000.00000" pt_clust_6="13000.00000" pt_clust_7="13000.00000" pt_clust_8="13000.00000" pt_clust_9="72.26262"></scales>
<clustering>
<clus scale="   72.263">  2  9  1 -1</clus>
<clus scale="   83.312">  5  6 -1 -1</clus>
<clus scale="   89.592">  7  8 -1 -1</clus>
<clus scale="  170.132">  2  5  1 -1</clus>
<clus scale="   72.263">  2  5  1 -1</clus>
</clustering>
</event>
<event>
 9    1  0.1973774E-005  0.9884733E+02  0.7546771E-02  0.1288818E+00
          1   -1    0    0  502    0  0.00000000000E+00  0.00000000000E+00  0.11049760812E+03  0.11049760812E+03  0.00000000000E+00 0. -1.
         -2   -1    0    0    0  501 -0.00000000000E+00 -0.00000000000E+00 -0.21262697628E+03  0.21262697628E+03  0.00000000000E+00 0.  1.
         23    2    1    2    0    0  0.26360861762E+01 -0.20052340988E+01 -0.54979107997E+02  0.10755127716E+03  0.92377513431E+02 0.  0.
        -24    2    1    2    0    0 -0.21249227575E+02 -0.76019178294E+02 -0.69078446164E+02  0.13241620711E+03  0.80819397664E+02 0.  0.
         13    1    4    4    0    0 -0.35006087175E+02 -0.47417819630E+01 -0.51738909114E+01  0.35702657921E+02  0.00000000000E+00 0. -1.
        -14    1    4    4    0    0  0.13756859600E+02 -0.71277396331E+02 -0.63904555252E+02  0.96713549184E+02  0.00000000000E+00 0.  1.
        -13    1    3    3    0    0  0.38738294308E+02 -0.18991544088E+01  0.33758302940E+01  0.38931458534E+02  0.00000000000E+00 0. -1.
         13    1    3    3    0    0 -0.36102208132E+02 -0.10607968999E+00 -0.58354938291E+02  0.68619818623E+02  0.00000000000E+00 0.  1.
         21    1    1    2  502  501  0.18613141399E+02  0.78024412393E+02  0.21928185996E+02  0.83157100136E+02  0.00000000000E+00 0. -1.
<scales pt_clust_5="13000.00000" pt_clust_6="13000.00000" pt_clust_7="13000.00000" pt_clust_8="13000.00000" pt_clust_9="80.21383"></scales>
<clustering>
<clus scale="   80.214">  1  9  2 -1</clus>
<clus scale="   80.819">  5  6 -1 -1</clus>
<clus scale="   88.142">  1  5  2 -1</clus>
<clus scale="   92.378">  7  8 -1 -1</clus>
<clus scale="   80.214">  1  5  2 -1</clus>
</clustering>
</event>
<event>
 9    1  0.1973774E-005  0.9859000E+02  0.7546771E-02  0.1287131E+00
         -2   -1    0    0    0  501 -0.00000000000E+00  0.00000000000E+00  0.18112506150E+03  0.18112506150E+03  0.00000000000E+00 0.  1.
          1   -1    0    0  502    0  0.00000000000E+00 -0.00000000000E+00 -0.23055028635E+03  0.23055028635E+03  0.00000000000E+00 0. -1.
        -24    2    1    2    0    0  0.14448580701E+02 -0.22775431814E+02  0.72606865723E+02  0.11219923812E+03  0.81175306012E+02 0.  0.
         23    2    1    2    0    0 -0.57828607165E+02  0.49190958019E+02  0.44719799312E+02  0.12516087946E+03  0.88890309598E+02 0.  0.
         13    1    3    3    0    0  0.41417715568E+02 -0.66513147277E+01  0.11514669878E+02  0.43500054861E+02  0.00000000000E+00 0. -1.
        -14    1    3    3    0    0 -0.26969134867E+02 -0.16124117086E+02  0.61092195845E+02  0.68699183260E+02  0.00000000000E+00 0.  1.
        -11    1    4    4    0    0 -0.78255660637E+02  0.43346331074E+02  0.51038981659E+02  0.10299432260E+03  0.00000000000E+00 0.  1.
         11    1    4    4    0    0  0.20427053472E+02  0.58446269448E+01 -0.63191823463E+01  0.22166556864E+02  0.00000000000E+00 0. -1.
         21    1    1    2  502  501  0.43380026464E+02 -0.26415526205E+02 -0.16675188988E+03  0.17431523026E+03  0.00000000000E+00 0. -1.
<scales pt_clust_5="13000.00000" pt_clust_6="13000.00000" pt_clust_7="13000.00000" pt_clust_8="13000.00000" pt_clust_9="50.78983"></scales>
<clustering>
<clus scale="   50.790">  2  9  1 -1</clus>
<clus scale="   81.175">  5  6 -1 -1</clus>
<clus scale="   88.890">  7  8 -1 -1</clus>
<clus scale="   91.695">  1  5  2 -1</clus>
<clus scale="   50.790">  2  5  1 -1</clus>
</clustering>
</event>
<event>
 9    1  0.1973774E-005  0.1779789E+03  0.7546771E-02  0.1171076E+00
          1   -1    0    0  502    0  0.00000000000E+00  0.00000000000E+00  0.10871484650E+04  0.10871484650E+04  0.00000000000E+00 0. -1.
         -2   -1    0    0    0  501 -0.00000000000E+00 -0.00000000000E+00 -0.24695744386E+03  0.24695744386E+03  0.00000000000E+00 0.  1.
         23    2    1    2    0    0  0.82739559407E+02 -0.13382995844E+03 -0.14203900695E+03  0.23009503820E+03  0.89511757009E+02 0.  0.
        -24    2    1    2    0    0 -0.18684313822E+03  0.32923194239E+02  0.13800612053E+03  0.24742827902E+03  0.78617866529E+02 0.  0.
         11    1    4    4    0    0 -0.52729804513E+02  0.93538713028E+01  0.86717506811E+02  0.10192081819E+03  0.00000000000E+00 0. -1.
        -12    1    4    4    0    0 -0.13411333370E+03  0.23569322937E+02  0.51288613716E+02  0.14550746083E+03  0.00000000000E+00 0.  1.
        -13    1    3    3    0    0  0.35860030246E+02  0.33259123873E+01 -0.30680252004E+02  0.47310477967E+02  0.00000000000E+00 0. -1.
         13    1    3    3    0    0  0.46879529161E+02 -0.13715587083E+03 -0.11135875495E+03  0.18278456024E+03  0.00000000000E+00 0.  1.
         21    1    1    2  502  501  0.10410357881E+03  0.10090676420E+03  0.84422390757E+03  0.85658259164E+03  0.00000000000E+00 0. -1.
<scales pt_clust_5="13000.00000" pt_clust_6="13000.00000" pt_clust_7="13000.00000" pt_clust_8="13000.00000" pt_clust_9="144.98183"></scales>
<clustering>
<clus scale="   78.618">  5  6 -1 -1</clus>
<clus scale="   89.512">  7  8 -1 -1</clus>
<clus scale="  144.982">  1  9  2 -1</clus>
<clus scale="  172.757">  1  5  2 -1</clus>
<clus scale="  144.982">  1  5  2 -1</clus>
</clustering>
</event>
<event>
 9    1  0.1973774E-005  0.1031532E+03  0.7546771E-02  0.1278781E+00
         -2   -1    0    0    0  501 -0.00000000000E+00  0.00000000000E+00  0.18228418314E+03  0.18228418314E+03  0.00000000000E+00 0.  1.
          1   -1    0    0  502    0  0.00000000000E+00 -0.00000000000E+00 -0.11417427218E+03  0.11417427218E+03  0.00000000000E+00 0. -1.
        -24    2    1    2    0    0  0.24755395974E+02 -0.45420733507E+02  0.12583542905E+03  0.15837768631E+03  0.81074432802E+02 0.  0.
         23    2    1    2    0    0 -0.12484355020E+02  0.20157416076E+02 -0.55679504517E+02  0.10992051643E+03  0.91761278135E+02 0.  0.
         11    1    3    3    0    0  0.23476817769E+02 -0.85939558288E+01 -0.22458895952E+01  0.25101017299E+02  0.00000000000E+00 0. -1.
        -12    1    3    3    0    0  0.12785782047E+01 -0.36826777678E+02  0.12808131865E+03  0.13327666901E+03  0.00000000000E+00 0.  1.
        -11    1    4    4    0    0 -0.71897760668E+01  0.55433024265E+02 -0.47429786849E+02  0.73308237870E+02  0.00000000000E+00 0. -1.
         11    1    4    4    0    0 -0.52945789529E+01 -0.35275608189E+02 -0.82497176676E+01  0.36612278555E+02  0.00000000000E+00 0.  1.
         21    1    1    2  502  501 -0.12271040954E+02  0.25263317431E+02 -0.20460135734E+01  0.28160252578E+02  0.00000000000E+00 0. -1.
<scales pt_clust_5="13000.00000" pt_clust_6="13000.00000" pt_clust_7="13000.00000" pt_clust_8="13000.00000" pt_clust_9="28.08583"></scales>
<clustering>
<clus scale="   28.086">  2  9  1 -1</clus>
<clus scale="   81.074">  5  6 -1 -1</clus>
<clus scale="   91.761">  7  8 -1 -1</clus>
<clus scale="   93.774">  1  5  2 -1</clus>
<clus scale="   28.086">  2  5  1 -1</clus>
</clustering>
</event>
<event>
 9    1  0.1973774E-005  0.1121743E+03  0.7546771E-02  0.1260556E+00
         -4   -1    0    0    0  501 -0.00000000000E+00  0.00000000000E+00  0.18489510845E+03  0.18489510845E+03  0.00000000000E+00 0.  1.
          3   -1    0    0  502    0  0.00000000000E+00 -0.00000000000E+00 -0.16743964654E+03  0.16743964654E+03  0.00000000000E+00 0. -1.
        -24    2    1    2    0    0  0.63442717781E+02  0.15063605430E+02  0.12912099373E+03  0.16548402473E+03  0.80379355369E+02 0.  0.
         23    2    1    2    0    0 -0.60144319099E+02 -0.36975108413E+02 -0.58331731151E+02  0.12909704908E+03  0.90988787559E+02 0.  0.
         13    1    3    3    0    0 -0.92767026267E+01  0.27847963780E+02  0.42725396302E+02  0.51836529470E+02  0.00000000000E+00 0. -1.
        -14    1    3    3    0    0  0.72719420407E+02 -0.12784358350E+02  0.86395597429E+02  0.11364749526E+03  0.00000000000E+00 0.  1.
        -13    1    4    4    0    0 -0.22603088713E+02  0.24887359657E+01 -0.69821014160E+02  0.73430698243E+02  0.00000000000E+00 0. -1.
         13    1    4    4    0    0 -0.37541230386E+02 -0.39463844379E+02  0.11489283009E+02  0.55666350842E+02  0.00000000000E+00 0.  1.
         21    1    1    2  502  501 -0.32983986819E+01  0.21911502983E+02 -0.53333800665E+02  0.57753681184E+02  0.00000000000E+00 0.  1.
<scales pt_clust_5="13000.00000" pt_clust_6="13000.00000" pt_clust_7="13000.00000" pt_clust_8="13000.00000" pt_clust_9="22.15837"></scales>
<clustering>
<clus scale="   22.158">  2  9  1 -1</clus>
<clus scale="   80.379">  5  6 -1 -1</clus>
<clus scale="   90.989">  7  8 -1 -1</clus>
<clus scale="  103.754">  1  5  2 -1</clus>
<clus scale="   22.158">  2  5  1 -1</clus>
</clustering>
</event>
<event>
 9    1  0.1973774E-005  0.1256304E+03  0.7546771E-02  0.1236468E+00
          1   -1    0    0  502    0  0.00000000000E+00  0.00000000000E+00  0.39715556003E+03  0.39715556003E+03  0.00000000000E+00 0. -1.
         -2   -1    0    0    0  501 -0.00000000000E+00 -0.00000000000E+00 -0.58338781637E+02  0.58338781637E+02  0.00000000000E+00 0.  1.
         23    2    1    2    0    0  0.13358837392E+01  0.90596291920E+02  0.50555802772E+02  0.13766113506E+03  0.90472240036E+02 0.  0.
        -24    2    1    2    0    0 -0.16233648822E+02 -0.77044283493E+02  0.24863834053E+03  0.27338600706E+03  0.81972748502E+02 0.  0.
         13    1    4    4    0    0  0.27329696447E+02 -0.49609006826E+02  0.17179507415E+03  0.18089088802E+03  0.00000000000E+00 0. -1.
        -14    1    4    4    0    0 -0.43563345269E+02 -0.27435276667E+02  0.76843266381E+02  0.92495119033E+02  0.00000000000E+00 0.  1.
        -11    1    3    3    0    0 -0.41820292750E+02  0.66270780546E+02  0.34086979661E+02  0.85455692744E+02  0.00000000000E+00 0. -1.
         11    1    3    3    0    0  0.43156176489E+02  0.24325511373E+02  0.16468823111E+02  0.52205442316E+02  0.00000000000E+00 0.  1.
         21    1    1    2  502  501  0.14897765083E+02 -0.13552008427E+02  0.39622635091E+02  0.44447199557E+02  0.00000000000E+00 0.  1.
<scales pt_clust_5="13000.00000" pt_clust_6="13000.00000" pt_clust_7="13000.00000" pt_clust_8="13000.00000" pt_clust_9="20.13952"></scales>
<clustering>
<clus scale="   20.140">  1  9  2 -1</clus>
<clus scale="   81.973">  5  6 -1 -1</clus>
<clus scale="   90.472">  7  8 -1 -1</clus>
<clus scale="  119.655">  1  5  2 -1</clus>
<clus scale="   20.140">  1  5  2 -1</clus>
</clustering>
</event>
<event>
 9    1  0.1973774E-005  0.1029182E+03  0.7546771E-02  0.1276381E+00
         -2   -1    0    0    0  501 -0.00000000000E+00  0.00000000000E+00  0.10647214632E+03  0.10647214632E+03  0.00000000000E+00 0.  1.
          1   -1    0    0  502    0  0.00000000000E+00 -0.00000000000E+00 -0.20140831136E+03  0.20140831136E+03  0.00000000000E+00 0. -1.
         23    2    1    2    0    0 -0.36736191737E+02  0.35104790276E+02  0.50158821034E+02  0.11436181915E+03  0.89335459187E+02 0.  0.
        -24    2    1    2    0    0  0.19795124950E+02 -0.53500618122E+02 -0.12546712514E+03  0.16172777270E+03  0.84615068747E+02 0.  0.
         11    1    4    4    0    0 -0.14845710060E+02 -0.62643012296E+02 -0.94657284727E+02  0.11447507872E+03  0.00000000000E+00 0. -1.
        -12    1    4    4    0    0  0.34640835010E+02  0.91423941742E+01 -0.30809840414E+02  0.47252693973E+02  0.00000000000E+00 0.  1.
        -11    1    3    3    0    0 -0.65819883065E+02  0.30944933714E+02  0.29705646287E+02  0.78563804329E+02  0.00000000000E+00 0. -1.
         11    1    3    3    0    0  0.29083691328E+02  0.41598565621E+01  0.20453174747E+02  0.35798014821E+02  0.00000000000E+00 0.  1.
         21    1    1    2  502  501  0.16941066786E+02  0.18395827846E+02 -0.19627860926E+02  0.31790865835E+02  0.00000000000E+00 0.  1.
<scales pt_clust_5="13000.00000" pt_clust_6="13000.00000" pt_clust_7="13000.00000" pt_clust_8="13000.00000" pt_clust_9="25.00812"></scales>
<clustering>
<clus scale="   25.008">  2  9  1 -1</clus>
<clus scale="   84.615">  5  6 -1 -1</clus>
<clus scale="   89.335">  7  8 -1 -1</clus>
<clus scale="   98.849">  2  5  1 -1</clus>
<clus scale="   25.008">  2  5  1 -1</clus>
</clustering>
</event>
<event>
 9    1  0.1973774E-005  0.1690752E+03  0.7546771E-02  0.1181186E+00
          1   -1    0    0  502    0  0.00000000000E+00  0.00000000000E+00  0.89104306681E+02  0.89104306681E+02  0.00000000000E+00 0. -1.
         -2   -1    0    0    0  501 -0.00000000000E+00 -0.00000000000E+00 -0.77793528573E+03  0.77793528573E+03  0.00000000000E+00 0.  1.
         23    2    1    2    0    0  0.13835410565E+03  0.24496355907E+02 -0.56972565756E+03  0.59477634960E+03  0.97106390907E+02 0.  0.
        -24    2    1    2    0    0 -0.13586659815E+03  0.13484855828E+02 -0.15363276860E+03  0.22087350899E+03  0.80873392124E+02 0.  0.
         11    1    4    4    0    0 -0.12046126338E+03  0.85973798143E+01 -0.78537931311E+02  0.14405914608E+03  0.00000000000E+00 0. -1.
        -12    1    4    4    0    0 -0.15405334775E+02  0.48874760140E+01 -0.75094837290E+02  0.76814362907E+02  0.00000000000E+00 0.  1.
        -13    1    3    3    0    0  0.59631135347E+02 -0.18710451206E+02 -0.37713765500E+03  0.38228100149E+03  0.00000000000E+00 0.  1.
         13    1    3    3    0    0  0.78722970301E+02  0.43206807113E+02 -0.19258800257E+03  0.21249534811E+03  0.00000000000E+00 0. -1.
         21    1    1    2  502  501 -0.24875074951E+01 -0.37981211735E+02  0.34527447114E+02  0.51389733825E+02  0.00000000000E+00 0. -1.
<scales pt_clust_5="13000.00000" pt_clust_6="13000.00000" pt_clust_7="13000.00000" pt_clust_8="13000.00000" pt_clust_9="38.06258"></scales>
<clustering>
<clus scale="   38.063">  1  9  2 -1</clus>
<clus scale="   80.873">  5  6 -1 -1</clus>
<clus scale="   97.106">  7  8 -1 -1</clus>
<clus scale="  160.304">  1  5  2 -1</clus>
<clus scale="   38.063">  1  5  2 -1</clus>
</clustering>
</event>
<event>
 9    1  0.1973774E-005  0.1357377E+03  0.7546771E-02  0.1222022E+00
         -2   -1    0    0    0  501 -0.00000000000E+00  0.00000000000E+00  0.10350827968E+03  0.10350827968E+03  0.00000000000E+00 0.  1.
          1   -1    0    0  502    0  0.00000000000E+00 -0.00000000000E+00 -0.25568996980E+03  0.25568996980E+03  0.00000000000E+00 0. -1.
         23    2    1    2    0    0  0.23237788300E+02  0.10033194548E+03 -0.26037895462E+02  0.13992242176E+03  0.91070401470E+02 0.  0.
        -24    2    1    2    0    0 -0.14490922761E+01 -0.99319890046E+02 -0.43967328012E+02  0.13425381173E+03  0.78894991004E+02 0.  0.
         13    1    4    4    0    0  0.35139362009E+02 -0.39119024041E+02 -0.35164679666E+02  0.63258418415E+02  0.00000000000E+00 0. -1.
        -14    1    4    4    0    0 -0.36588454285E+02 -0.60200866005E+02 -0.88026483459E+01  0.70995393320E+02  0.00000000000E+00 0.  1.
        -13    1    3    3    0    0  0.12160388802E+02  0.44347295217E+02 -0.58387610279E+02  0.74321401245E+02  0.00000000000E+00 0. -1.
         13    1    3    3    0    0  0.11077399499E+02  0.55984650260E+02  0.32349714817E+02  0.65601020519E+02  0.00000000000E+00 0.  1.
         21    1    1    2  502  501 -0.21788696024E+02 -0.10120554304E+01 -0.82176466651E+02  0.85022015983E+02  0.00000000000E+00 0.  1.
<scales pt_clust_5="13000.00000" pt_clust_6="13000.00000" pt_clust_7="13000.00000" pt_clust_8="13000.00000" pt_clust_9="21.81219"></scales>
<clustering>
<clus scale="   21.812">  2  9  1 -1</clus>
<clus scale="   78.895">  5  6 -1 -1</clus>
<clus scale="   91.070">  7  8 -1 -1</clus>
<clus scale="  127.888">  2  5  1 -1</clus>
<clus scale="   21.812">  2  5  1 -1</clus>
</clustering>
</event>
<event>
 9    1  0.1973774E-005  0.1629876E+03  0.7546771E-02  0.1186386E+00
          1   -1    0    0  502    0  0.00000000000E+00  0.00000000000E+00  0.25987650611E+03  0.25987650611E+03  0.00000000000E+00 0. -1.
         -2   -1    0    0    0  501 -0.00000000000E+00 -0.00000000000E+00 -0.11986504779E+03  0.11986504779E+03  0.00000000000E+00 0.  1.
         23    2    1    2    0    0 -0.12970197025E+03 -0.74665650281E+02  0.73186318641E+02  0.19043390323E+03  0.92256565320E+02 0.  0.
        -24    2    1    2    0    0  0.10356291448E+03  0.62927000914E+02  0.58190919295E+02  0.15938114256E+03  0.85621730984E+02 0.  0.
         11    1    4    4    0    0  0.10440969581E+02  0.49968156189E+02  0.36882643943E+02  0.62977455514E+02  0.00000000000E+00 0. -1.
        -12    1    4    4    0    0  0.93121944896E+02  0.12958844724E+02  0.21308275352E+02  0.96403687047E+02  0.00000000000E+00 0.  1.
        -13    1    3    3    0    0 -0.52820388417E+02 -0.28211310622E+02  0.80477568433E+02  0.10031206558E+03  0.00000000000E+00 0. -1.
         13    1    3    3    0    0 -0.76881581835E+02 -0.46454339659E+02 -0.72912497920E+01  0.90121837654E+02  0.00000000000E+00 0.  1.
         21    1    1    2  502  501  0.26139055776E+02  0.11738649368E+02  0.86342203796E+01  0.29926508105E+02  0.00000000000E+00 0.  1.
<scales pt_clust_5="13000.00000" pt_clust_6="13000.00000" pt_clust_7="13000.00000" pt_clust_8="13000.00000" pt_clust_9="28.65390"></scales>
<clustering>
<clus scale="   28.654">  2  9  1 -1</clus>
<clus scale="   85.622">  5  6 -1 -1</clus>
<clus scale="   92.257">  7  8 -1 -1</clus>
<clus scale="  159.326">  1  5  2 -1</clus>
<clus scale="  159.326">  1  5  2 -1</clus>
</clustering>
</event>
<event>
 9    1  0.1973774E-005  0.1099347E+03  0.7546771E-02  0.1262810E+00
         -2   -1    0    0    0  501 -0.00000000000E+00  0.00000000000E+00  0.47188625772E+02  0.47188625772E+02  0.00000000000E+00 0.  1.
          1   -1    0    0  502    0  0.00000000000E+00 -0.00000000000E+00 -0.31236991666E+03  0.31236991666E+03  0.00000000000E+00 0. -1.
         23    2    1    2    0    0  0.73869226827E+02  0.22019024136E+02 -0.86514128942E+02  0.14449395032E+03  0.86326746004E+02 0.  0.
        -24    2    1    2    0    0 -0.53432703249E+02 -0.14165925813E+02 -0.14959727263E+03  0.17867254471E+03  0.80553131693E+02 0.  0.
         13    1    4    4    0    0 -0.16557287122E+02 -0.33060112234E+02 -0.18820420756E+02  0.41488830005E+02  0.00000000000E+00 0. -1.
        -14    1    4    4    0    0 -0.36875416128E+02  0.18894186422E+02 -0.13077685187E+03  0.13718371471E+03  0.00000000000E+00 0.  1.
        -13    1    3    3    0    0  0.92164139533E+02  0.13693578678E+02 -0.58511744255E+02  0.11002439243E+03  0.00000000000E+00 0.  1.
         13    1    3    3    0    0 -0.18294912707E+02  0.83254454578E+01 -0.28002384687E+02  0.34469557891E+02  0.00000000000E+00 0. -1.
         21    1    1    2  502  501 -0.20436523577E+02 -0.78530983236E+01 -0.29069889315E+02  0.36392047400E+02  0.00000000000E+00 0. -1.
<scales pt_clust_5="13000.00000" pt_clust_6="13000.00000" pt_clust_7="13000.00000" pt_clust_8="13000.00000" pt_clust_9="21.89344"></scales>
<clustering>
<clus scale="   21.893">  2  9  1 -1</clus>
<clus scale="   80.553">  5  6 -1 -1</clus>
<clus scale="   86.327">  7  8 -1 -1</clus>
<clus scale="  105.462">  2  5  1 -1</clus>
<clus scale="   21.893">  2  5  1 -1</clus>
</clustering>
</event>
<event>
 9    1  0.1973774E-005  0.9666945E+02  0.7546771E-02  0.1296548E+00
          3   -1    0    0  502    0  0.00000000000E+00  0.00000000000E+00  0.12652680614E+03  0.12652680614E+03  0.00000000000E+00 0. -1.
         -4   -1    0    0    0  501 -0.00000000000E+00 -0.00000000000E+00 -0.21042460301E+03  0.21042460301E+03  0.00000000000E+00 0.  1.
        -24    2    1    2    0    0  0.33834953695E+01 -0.19758492100E+02 -0.14938178877E+03  0.17058948890E+03  0.79899992846E+02 0.  0.
         23    2    1    2    0    0  0.34912096735E+02 -0.39691750725E+01  0.22281862380E+02  0.10394414587E+03  0.95253846226E+02 0.  0.
         13    1    3    3    0    0 -0.19667217760E+02 -0.60175019201E+01 -0.18649196187E+01  0.20651578849E+02  0.00000000000E+00 0. -1.
        -14    1    3    3    0    0  0.23050713130E+02 -0.13740990180E+02 -0.14751686915E+03  0.14993791005E+03  0.00000000000E+00 0.  1.
        -11    1    4    4    0    0  0.33881575813E+02 -0.46818627788E+02  0.19494978477E+02  0.60991796771E+02  0.00000000000E+00 0.  1.
         11    1    4    4    0    0  0.10305209216E+01  0.42849452716E+02  0.27868839032E+01  0.42952349101E+02  0.00000000000E+00 0. -1.
         21    1    1    2  502  501 -0.38295592105E+02  0.23727667172E+02  0.43202129518E+02  0.62417774383E+02  0.00000000000E+00 0. -1.
<scales pt_clust_5="13000.00000" pt_clust_6="13000.00000" pt_clust_7="13000.00000" pt_clust_8="13000.00000" pt_clust_9="45.05058"></scales>
<clustering>
<clus scale="   45.051">  1  9  2 -1</clus>
<clus scale="   79.900">  5  6 -1 -1</clus>
<clus scale="   81.582">  2  5  1 -1</clus>
<clus scale="   95.254">  7  8 -1 -1</clus>
<clus scale="   45.051">  1  5  2 -1</clus>
</clustering>
</event>
<event>
 9    1  0.1973774E-005  0.1041437E+03  0.7546771E-02  0.1275239E+00
         -2   -1    0    0    0  501 -0.00000000000E+00  0.00000000000E+00  0.21795936390E+03  0.21795936390E+03  0.00000000000E+00 0.  1.
          1   -1    0    0  502    0  0.00000000000E+00 -0.00000000000E+00 -0.13286489362E+03  0.13286489362E+03  0.00000000000E+00 0. -1.
        -24    2    1    2    0    0 -0.53116281560E+02 -0.16976378664E+02  0.16061233052E+03  0.18795639553E+03  0.80135816629E+02 0.  0.
         23    2    1    2    0    0  0.41649627139E+02  0.44391265384E+02 -0.35058481359E+02  0.11266804610E+03  0.88089247996E+02 0.  0.
         11    1    3    3    0    0 -0.40371076373E+02  0.17826562750E+02  0.33096112192E+02  0.55163056381E+02  0.00000000000E+00 0. -1.
        -12    1    3    3    0    0 -0.12745205187E+02 -0.34802941414E+02  0.12751621832E+03  0.13279333915E+03  0.00000000000E+00 0.  1.
        -11    1    4    4    0    0  0.53035860931E+02  0.78424053884E+00 -0.41226115395E+02  0.67178941406E+02  0.00000000000E+00 0. -1.
         11    1    4    4    0    0 -0.11386233792E+02  0.43607024845E+02  0.61676340352E+01  0.45489104689E+02  0.00000000000E+00 0.  1.
         21    1    1    2  502  501  0.11466654421E+02 -0.27414886720E+02 -0.40459378877E+02  0.50199815902E+02  0.00000000000E+00 0. -1.
<scales pt_clust_5="13000.00000" pt_clust_6="13000.00000" pt_clust_7="13000.00000" pt_clust_8="13000.00000" pt_clust_9="29.71633"></scales>
<clustering>
<clus scale="   29.716">  2  9  1 -1</clus>
<clus scale="   80.136">  5  6 -1 -1</clus>
<clus scale="   88.089">  7  8 -1 -1</clus>
<clus scale="   97.509">  1  5  2 -1</clus>
<clus scale="   29.716">  2  5  1 -1</clus>
</clustering>
</event>
<event>
 9    1  0.1973774E-005  0.9841685E+02  0.7546771E-02  0.1288846E+00
         -2   -1    0    0    0  501 -0.00000000000E+00  0.00000000000E+00  0.84126843846E+02  0.84126843846E+02  0.00000000000E+00 0.  1.
          1   -1    0    0  502    0  0.00000000000E+00 -0.00000000000E+00 -0.35032490835E+03  0.35032490835E+03  0.00000000000E+00 0. -1.
        -24    2    1    2    0    0 -0.34808640308E+02 -0.27671829322E+02  0.33012723257E+02  0.98904877764E+02  0.81944880075E+02 0.  0.
         23    2    1    2    0    0 -0.36292904721E+01 -0.13878275426E+02 -0.15652022115E+03  0.18203959927E+03  0.91837126457E+02 0.  0.
         11    1    3    3    0    0  0.72527947423E+01 -0.22644008706E+02 -0.19983231854E+02  0.31059357965E+02  0.00000000000E+00 0. -1.
        -12    1    3    3    0    0 -0.42061435050E+02 -0.50278206165E+01  0.52995955112E+02  0.67845519799E+02  0.00000000000E+00 0.  1.
        -11    1    4    4    0    0 -0.12986082099E+02  0.27648981387E+02 -0.14569195807E+02  0.33843255849E+02  0.00000000000E+00 0.  1.
         11    1    4    4    0    0  0.93567916269E+01 -0.41527256812E+02 -0.14195102534E+03  0.14819634342E+03  0.00000000000E+00 0. -1.
         21    1    1    2  502  501  0.38437930780E+02  0.41550104748E+02 -0.14269056662E+03  0.15350727517E+03  0.00000000000E+00 0. -1.
<scales pt_clust_5="13000.00000" pt_clust_6="13000.00000" pt_clust_7="13000.00000" pt_clust_8="13000.00000" pt_clust_9="56.60288"></scales>
<clustering>
<clus scale="   56.603">  2  9  1 -1</clus>
<clus scale="   81.945">  5  6 -1 -1</clus>
<clus scale="   89.257">  1  5  2 -1</clus>
<clus scale="   91.837">  7  8 -1 -1</clus>
<clus scale="   56.603">  2  5  1 -1</clus>
</clustering>
</event>
<event>
 9    1  0.1973774E-005  0.1019590E+03  0.7546771E-02  0.1279604E+00
         -2   -1    0    0    0  501 -0.00000000000E+00  0.00000000000E+00  0.37493314796E+03  0.37493314796E+03  0.00000000000E+00 0.  1.
          1   -1    0    0  502    0  0.00000000000E+00 -0.00000000000E+00 -0.54550197577E+02  0.54550197577E+02  0.00000000000E+00 0. -1.
        -24    2    1    2    0    0  0.21643561369E+02  0.47613472559E+02  0.27286298352E+03  0.29023423339E+03  0.83941741357E+02 0.  0.
         23    2    1    2    0    0 -0.22782144476E+02 -0.11387424942E+02  0.32962305245E+02  0.10019084273E+03  0.91120754206E+02 0.  0.
         11    1    3    3    0    0 -0.26129998204E+02 -0.61664535380E+01  0.67948731107E+02  0.73060468206E+02  0.00000000000E+00 0. -1.
        -12    1    3    3    0    0  0.47773559573E+02  0.53779926097E+02  0.20491425241E+03  0.21717376519E+03  0.00000000000E+00 0.  1.
        -11    1    4    4    0    0 -0.42421831062E+02 -0.35488791159E+02  0.59699608167E+00  0.55312046183E+02  0.00000000000E+00 0. -1.
         11    1    4    4    0    0  0.19639686586E+02  0.24101366216E+02  0.32365309164E+02  0.44878796552E+02  0.00000000000E+00 0.  1.
         21    1    1    2  502  501  0.11385831063E+01 -0.36226047617E+02  0.14557661624E+02  0.39058269411E+02  0.00000000000E+00 0. -1.
<scales pt_clust_5="13000.00000" pt_clust_6="13000.00000" pt_clust_7="13000.00000" pt_clust_8="13000.00000" pt_clust_9="36.24394"></scales>
<clustering>
<clus scale="   36.244">  2  9  1 -1</clus>
<clus scale="   83.942">  5  6 -1 -1</clus>
<clus scale="   91.121">  7  8 -1 -1</clus>
<clus scale="   95.597">  1  5  2 -1</clus>
<clus scale="   36.244">  2  5  1 -1</clus>
</clustering>
</event>
<event>
 9    1  0.1973774E-005  0.1985042E+03  0.7546771E-02  0.1152018E+00
          1   -1    0    0  502    0  0.00000000000E+00  0.00000000000E+00  0.39129387994E+03  0.39129387994E+03  0.00000000000E+00 0. -1.
         -2   -1    0    0    0  501 -0.00000000000E+00 -0.00000000000E+00 -0.30349169057E+03  0.30349169057E+03  0.00000000000E+00 0.  1.
         23    2    1    2    0    0 -0.11139886014E+03  0.14131019905E+03 -0.19024416967E+03  0.27734179187E+03  0.91363816838E+02 0.  0.
        -24    2    1    2    0    0  0.17625581531E+03 -0.53368144420E+02  0.19614751307E+03  0.28088737793E+03  0.80682097961E+02 0.  0.
         13    1    4    4    0    0  0.16932451211E+03 -0.68464349630E+02  0.18892046453E+03  0.26277195339E+03  0.00000000000E+00 0. -1.
        -14    1    4    4    0    0  0.69313031966E+01  0.15096205210E+02  0.72270485407E+01  0.18115424543E+02  0.00000000000E+00 0.  1.
        -13    1    3    3    0    0 -0.31221087231E+02  0.88655086973E+02 -0.14116304042E+03  0.16959211277E+03  0.00000000000E+00 0.  1.
         13    1    3    3    0    0 -0.80177772910E+02  0.52655112077E+02 -0.49081129247E+02  0.10774967909E+03  0.00000000000E+00 0. -1.
         21    1    1    2  502  501 -0.64856955164E+02 -0.87942054631E+02  0.81898845972E+02  0.13655640072E+03  0.00000000000E+00 0. -1.
<scales pt_clust_5="13000.00000" pt_clust_6="13000.00000" pt_clust_7="13000.00000" pt_clust_8="13000.00000" pt_clust_9="109.27136"></scales>
<clustering>
<clus scale="   80.682">  5  6 -1 -1</clus>
<clus scale="   91.364">  7  8 -1 -1</clus>
<clus scale="  109.271">  1  9  2 -1</clus>
<clus scale="  193.820">  1  5  2 -1</clus>
<clus scale="  109.271">  1  5  2 -1</clus>
</clustering>
</event>
<event>
 9    1  0.1973774E-005  0.1281991E+03  0.7546771E-02  0.1234161E+00
          1   -1    0    0  502    0  0.00000000000E+00  0.00000000000E+00  0.69916853070E+03  0.69916853070E+03  0.00000000000E+00 0. -1.
         -2   -1    0    0    0  501 -0.00000000000E+00 -0.00000000000E+00 -0.36739936700E+02  0.36739936700E+02  0.00000000000E+00 0.  1.
        -24    2    1    2    0    0  0.73735053871E+02  0.55723774407E+02  0.10964418656E+03  0.16440713337E+03  0.80410575496E+02 0.  0.
         23    2    1    2    0    0 -0.53907337494E+02 -0.42684254280E+02  0.39586666951E+03  0.41279927388E+03  0.94683017928E+02 0.  0.
         13    1    3    3    0    0  0.28739108447E+02  0.13393584847E+02  0.96054629437E+02  0.10115244093E+03  0.00000000000E+00 0. -1.
        -14    1    3    3    0    0  0.44995945424E+02  0.42330189560E+02  0.13589557126E+02  0.63254692440E+02  0.00000000000E+00 0.  1.
        -11    1    4    4    0    0 -0.28980691621E+02 -0.69058064165E+02  0.19921787235E+03  0.21283011388E+03  0.00000000000E+00 0.  1.
         11    1    4    4    0    0 -0.24926645873E+02  0.26373809885E+02  0.19664879717E+03  0.19996915999E+03  0.00000000000E+00 0. -1.
         21    1    1    2  502  501 -0.19827716378E+02 -0.13039520127E+02  0.15691773792E+03  0.15870206015E+03  0.00000000000E+00 0. -1.
<scales pt_clust_5="13000.00000" pt_clust_6="13000.00000" pt_clust_7="13000.00000" pt_clust_8="13000.00000" pt_clust_9="23.73115"></scales>
<clustering>
<clus scale="   23.731">  1  9  2 -1</clus>
<clus scale="   80.411">  5  6 -1 -1</clus>
<clus scale="   94.683">  7  8 -1 -1</clus>
<clus scale="  118.051">  2  5  1 -1</clus>
<clus scale="   23.731">  1  5  2 -1</clus>
</clustering>
</event>
<event>
 9    1  0.1973774E-005  0.1327571E+03  0.7546771E-02  0.1229112E+00
          1   -1    0    0  502    0  0.00000000000E+00  0.00000000000E+00  0.10202244884E+04  0.10202244884E+04  0.00000000000E+00 0. -1.
         -2   -1    0    0    0  501 -0.00000000000E+00 -0.00000000000E+00 -0.26018448469E+02  0.26018448469E+02  0.00000000000E+00 0.  1.
        -24    2    1    2    0    0 -0.71527173365E+02  0.34022775720E+02  0.18827306950E+03  0.21972663147E+03  0.80989864076E+02 0.  0.
         23    2    1    2    0    0  0.10537227406E+03 -0.25667609018E+02  0.64923795633E+03  0.66599021064E+03  0.10134542141E+03 0.  0.
         11    1    3    3    0    0  0.40632203192E+01  0.21776540296E+02  0.74734799825E+01  0.23379058358E+02  0.00000000000E+00 0. -1.
        -12    1    3    3    0    0 -0.75590393684E+02  0.12246235424E+02  0.18079958952E+03  0.19634757312E+03  0.00000000000E+00 0.  1.
        -13    1    4    4    0    0 -0.18893279885E+02 -0.13010956870E+02  0.12399963274E+03  0.12610372692E+03  0.00000000000E+00 0.  1.
         13    1    4    4    0    0  0.12426555394E+03 -0.12656652148E+02  0.52523832359E+03  0.53988648373E+03  0.00000000000E+00 0. -1.
         21    1    1    2  502  501 -0.33845100693E+02 -0.83551667020E+01  0.15669501406E+03  0.16052609471E+03  0.00000000000E+00 0.  1.
<scales pt_clust_5="13000.00000" pt_clust_6="13000.00000" pt_clust_7="13000.00000" pt_clust_8="13000.00000" pt_clust_9="34.86115"></scales>
<clustering>
<clus scale="   34.861">  1  9  2 -1</clus>
<clus scale="   80.990">  5  6 -1 -1</clus>
<clus scale="  101.345">  7  8 -1 -1</clus>
<clus scale="  117.953">  2  5  1 -1</clus>
<clus scale="   34.861">  1  5  2 -1</clus>
</clustering>
</event>
<event>
 9    1  0.1973774E-005  0.1008517E+03  0.7546771E-02  0.1281529E+00
         -2   -1    0    0    0  501 -0.00000000000E+00  0.00000000000E+00  0.34904629525E+03  0.34904629525E+03  0.00000000000E+00 0.  1.
          1   -1    0    0  502    0  0.00000000000E+00 -0.00000000000E+00 -0.13437632716E+03  0.13437632716E+03  0.00000000000E+00 0. -1.
        -24    2    1    2    0    0 -0.48617170928E+02 -0.77389803196E+01  0.25302799726E+03  0.26972804480E+03  0.79413661472E+02 0.  0.
         23    2    1    2    0    0  0.89949939990E+02 -0.54133617058E+02 -0.22381578559E+02  0.13759028681E+03  0.86073873889E+02 0.  0.
         11    1    3    3    0    0 -0.21095376624E+02 -0.17406087301E+02  0.17651537262E+02  0.32550937893E+02  0.00000000000E+00 0. -1.
        -12    1    3    3    0    0 -0.27521794305E+02  0.96671069814E+01  0.23537646000E+03  0.23717710690E+03  0.00000000000E+00 0.  1.
        -13    1    4    4    0    0  0.76181323650E+02  0.35594104336E+01 -0.16100263869E+02  0.77945378133E+02  0.00000000000E+00 0.  1.
         13    1    4    4    0    0  0.13768616340E+02 -0.57693027492E+02 -0.62813146897E+01  0.59644908679E+02  0.00000000000E+00 0. -1.
         21    1    1    2  502  501 -0.41332769061E+02  0.61872597378E+02 -0.15976450611E+02  0.76104290803E+02  0.00000000000E+00 0.  1.
<scales pt_clust_5="13000.00000" pt_clust_6="13000.00000" pt_clust_7="13000.00000" pt_clust_8="13000.00000" pt_clust_9="74.40844"></scales>
<clustering>
<clus scale="   74.408">  2  9  1 -1</clus>
<clus scale="   79.414">  5  6 -1 -1</clus>
<clus scale="   86.074">  7  8 -1 -1</clus>
<clus scale="   95.231">  1  5  2 -1</clus>
<clus scale="   74.408">  2  5  1 -1</clus>
</clustering>
</event>
<event>
 9    1  0.1973774E-005  0.1015691E+03  0.7546771E-02  0.1281869E+00
         -2   -1    0    0    0  501 -0.00000000000E+00  0.00000000000E+00  0.43248003432E+02  0.43248003432E+02  0.00000000000E+00 0.  1.
          1   -1    0    0  502    0  0.00000000000E+00 -0.00000000000E+00 -0.43299768168E+03  0.43299768168E+03  0.00000000000E+00 0. -1.
        -24    2    1    2    0    0 -0.29660778155E+02 -0.32068437388E+02 -0.33957952989E+02  0.97160161848E+02  0.79867440437E+02 0.  0.
         23    2    1    2    0    0  0.33450049129E+02  0.52099531216E+02 -0.27944186389E+03  0.30006081430E+03  0.90085903719E+02 0.  0.
         11    1    3    3    0    0  0.27596876496E+02 -0.10972555308E+02 -0.73705695446E+01  0.30599180671E+02  0.00000000000E+00 0. -1.
        -12    1    3    3    0    0 -0.57257654651E+02 -0.21095882080E+02 -0.26587383444E+02  0.66560981177E+02  0.00000000000E+00 0.  1.
        -11    1    4    4    0    0 -0.25737104859E+02  0.28465855277E+02 -0.57346622594E+02  0.69002453624E+02  0.00000000000E+00 0.  1.
         11    1    4    4    0    0  0.59187153988E+02  0.23633675939E+02 -0.22209524129E+03  0.23105836068E+03  0.00000000000E+00 0. -1.
         21    1    1    2  502  501 -0.37892709747E+01 -0.20031093828E+02 -0.76349861376E+02  0.79024708962E+02  0.00000000000E+00 0.  1.
<scales pt_clust_5="13000.00000" pt_clust_6="13000.00000" pt_clust_7="13000.00000" pt_clust_8="13000.00000" pt_clust_9="20.38635"></scales>
<clustering>
<clus scale="   20.386">  2  9  1 -1</clus>
<clus scale="   79.867">  5  6 -1 -1</clus>
<clus scale="   90.086">  7  8 -1 -1</clus>
<clus scale="   92.626">  1  5  2 -1</clus>
<clus scale="   20.386">  2  5  1 -1</clus>
</clustering>
</event>
<event>
 9    1  0.1973774E-005  0.3674136E+03  0.7546771E-02  0.1086174E+00
         -2   -1    0    0    0  501 -0.00000000000E+00  0.00000000000E+00  0.13466525006E+04  0.13466525006E+04  0.00000000000E+00 0.  1.
          1   -1    0    0  502    0  0.00000000000E+00 -0.00000000000E+00 -0.40581416649E+03  0.40581416649E+03  0.00000000000E+00 0. -1.
        -24    2    1    2    0    0 -0.28433432185E+03  0.20525499760E+03  0.44163983454E+03  0.56957001821E+03  0.79928978291E+02 0.  0.
         23    2    1    2    0    0 -0.74836853122E+02 -0.10533817166E+03 -0.27828334739E+03  0.32065229408E+03  0.93164302559E+02 0.  0.
         11    1    3    3    0    0 -0.21454657174E+03  0.16646910280E+03  0.28442223307E+03  0.39324063917E+03  0.00000000000E+00 0. -1.
        -12    1    3    3    0    0 -0.69787750109E+02  0.38785894808E+02  0.15721760146E+03  0.17632937904E+03  0.00000000000E+00 0.  1.
        -11    1    4    4    0    0 -0.68614044311E+02 -0.17429536454E+02 -0.11307003510E+03  0.13340355563E+03  0.00000000000E+00 0. -1.
         11    1    4    4    0    0 -0.62228088113E+01 -0.87908635206E+02 -0.16521331228E+03  0.18724873844E+03  0.00000000000E+00 0.  1.
         21    1    1    2  502  501  0.35917117497E+03 -0.99916825944E+02  0.77748184696E+03  0.86224435480E+03  0.00000000000E+00 0.  1.
<scales pt_clust_5="13000.00000" pt_clust_6="13000.00000" pt_clust_7="13000.00000" pt_clust_8="13000.00000" pt_clust_9="358.61411"></scales>
<clustering>
<clus scale="   79.929">  5  6 -1 -1</clus>
<clus scale="   93.164">  7  8 -1 -1</clus>
<clus scale="  159.299">  2  7  1 -1</clus>
<clus scale="  358.614">  1  9  2 -1</clus>
<clus scale="  159.299">  2  5  1 -1</clus>
</clustering>
</event>
<event>
 9    1  0.1973774E-005  0.1290172E+03  0.7546771E-02  0.1233121E+00
         -2   -1    0    0    0  501 -0.00000000000E+00  0.00000000000E+00  0.19718092363E+03  0.19718092363E+03  0.00000000000E+00 0.  1.
          1   -1    0    0  502    0  0.00000000000E+00 -0.00000000000E+00 -0.20954297352E+03  0.20954297352E+03  0.00000000000E+00 0. -1.
        -24    2    1    2    0    0  0.10164325727E+02 -0.88152184682E+02  0.98437694205E+02  0.15466872605E+03  0.79739036841E+02 0.  0.
         23    2    1    2    0    0  0.36445601192E+02  0.85392899661E+02 -0.10249815715E+01  0.13276310334E+03  0.94893423712E+02 0.  0.
         13    1    3    3    0    0  0.42406719704E+02 -0.45746257240E+02  0.71789186855E+02  0.95103823671E+02  0.00000000000E+00 0. -1.
        -14    1    3    3    0    0 -0.32242393977E+02 -0.42405927442E+02  0.26648507350E+02  0.59564902381E+02  0.00000000000E+00 0.  1.
        -11    1    4    4    0    0  0.29243972688E+02 -0.14718947534E+01  0.28376524634E+02  0.40775036027E+02  0.00000000000E+00 0.  1.
         11    1    4    4    0    0  0.72016285041E+01  0.86864794414E+02 -0.29401506205E+02  0.91988067318E+02  0.00000000000E+00 0. -1.
         21    1    1    2  502  501 -0.46609926919E+02  0.27592850212E+01 -0.10977476253E+03  0.11929206776E+03  0.00000000000E+00 0.  1.
<scales pt_clust_5="13000.00000" pt_clust_6="13000.00000" pt_clust_7="13000.00000" pt_clust_8="13000.00000" pt_clust_9="46.69153"></scales>
<clustering>
<clus scale="   46.692">  2  9  1 -1</clus>
<clus scale="   79.739">  5  6 -1 -1</clus>
<clus scale="   94.893">  7  8 -1 -1</clus>
<clus scale="  118.317">  1  5  2 -1</clus>
<clus scale="   46.692">  2  5  1 -1</clus>
</clustering>
</event>
<event>
 9    1  0.1973774E-005  0.9204054E+02  0.7546771E-02  0.1302173E+00
          1   -1    0    0  502    0  0.00000000000E+00  0.00000000000E+00  0.14813026420E+03  0.14813026420E+03  0.00000000000E+00 0. -1.
         -2   -1    0    0    0  501 -0.00000000000E+00 -0.00000000000E+00 -0.43582930151E+03  0.43582930151E+03  0.00000000000E+00 0.  1.
        -24    2    1    2    0    0 -0.25665035062E+02 -0.13325050704E+02 -0.39994733503E+03  0.40901871166E+03  0.80636125214E+02 0.  0.
         23    2    1    2    0    0  0.85348173559E+00  0.12682685337E+02  0.37795324034E+02  0.96459830205E+02  0.87831847218E+02 0.  0.
         11    1    3    3    0    0 -0.44039683158E+01 -0.36284536355E+02 -0.85062514579E+02  0.92582902859E+02  0.00000000000E+00 0. -1.
        -12    1    3    3    0    0 -0.21261066746E+02  0.22959485652E+02 -0.31488482045E+03  0.31643580880E+03  0.00000000000E+00 0.  1.
        -11    1    4    4    0    0 -0.29037399354E+02  0.24080203898E+02 -0.99270072266E+01  0.39007335893E+02  0.00000000000E+00 0.  1.
         11    1    4    4    0    0  0.29890881089E+02 -0.11397518561E+02  0.47722331261E+02  0.57452494312E+02  0.00000000000E+00 0. -1.
         21    1    1    2  502  501  0.24811553326E+02  0.64236536668E+00  0.74452973686E+02  0.78481023837E+02  0.00000000000E+00 0. -1.
<scales pt_clust_5="13000.00000" pt_clust_6="13000.00000" pt_clust_7="13000.00000" pt_clust_8="13000.00000" pt_clust_9="24.81987"></scales>
<clustering>
<clus scale="   24.820">  1  9  2 -1</clus>
<clus scale="   80.636">  5  6 -1 -1</clus>
<clus scale="   85.201">  2  5  1 -1</clus>
<clus scale="   87.832">  7  8 -1 -1</clus>
<clus scale="   24.820">  1  5  2 -1</clus>
</clustering>
</event>
<event>
 9    1  0.1973774E-005  0.1007723E+03  0.7546771E-02  0.1284549E+00
          1   -1    0    0  502    0  0.00000000000E+00  0.00000000000E+00  0.64259667883E+03  0.64259667883E+03  0.00000000000E+00 0. -1.
         -2   -1    0    0    0  501 -0.00000000000E+00 -0.00000000000E+00 -0.26377218816E+02  0.26377218816E+02  0.00000000000E+00 0.  1.
        -24    2    1    2    0    0 -0.53190144384E+02 -0.12190060418E+02  0.11211211105E+03  0.14767568774E+03  0.79127708631E+02 0.  0.
         23    2    1    2    0    0  0.32092746582E+02  0.25375787610E+02  0.45955308590E+03  0.47026835636E+03  0.91046214931E+02 0.  0.
         13    1    3    3    0    0 -0.26003425493E+02 -0.41196336115E+02  0.89603459247E+02  0.10199066700E+03  0.00000000000E+00 0. -1.
        -14    1    3    3    0    0 -0.27186718891E+02  0.29006275697E+02  0.22508651802E+02  0.45685020738E+02  0.00000000000E+00 0.  1.
        -11    1    4    4    0    0  0.27798190930E+02 -0.31305812422E+02  0.16117157335E+03  0.16652047732E+03  0.00000000000E+00 0. -1.
         11    1    4    4    0    0  0.42945556515E+01  0.56681600031E+02  0.29838151255E+03  0.30374787904E+03  0.00000000000E+00 0.  1.
         21    1    1    2  502  501  0.21097397802E+02 -0.13185727191E+02  0.44554263061E+02  0.51029853542E+02  0.00000000000E+00 0.  1.
<scales pt_clust_5="13000.00000" pt_clust_6="13000.00000" pt_clust_7="13000.00000" pt_clust_8="13000.00000" pt_clust_9="24.87898"></scales>
<clustering>
<clus scale="   24.879">  2  9  1 -1</clus>
<clus scale="   79.128">  5  6 -1 -1</clus>
<clus scale="   90.149">  2  5  1 -1</clus>
<clus scale="   91.046">  7  8 -1 -1</clus>
<clus scale="  100.772">  1  5  2 -1</clus>
</clustering>
</event>
<event>
 9    1  0.1973774E-005  0.1258337E+03  0.7546771E-02  0.1250526E+00
         -2   -1    0    0    0  501 -0.00000000000E+00  0.00000000000E+00  0.17236728913E+03  0.17236728913E+03  0.00000000000E+00 0.  1.
          1   -1    0    0  502    0  0.00000000000E+00 -0.00000000000E+00 -0.32504783029E+03  0.32504783029E+03  0.00000000000E+00 0. -1.
         23    2    1    2    0    0 -0.26560934814E+02 -0.79415731815E+02  0.98285498711E+02  0.15810306889E+03  0.91237050678E+02 0.  0.
        -24    2    1    2    0    0  0.32132516370E+02 -0.18348796698E+02 -0.21845280688E+03  0.23613232444E+03  0.81655795031E+02 0.  0.
         11    1    4    4    0    0  0.55976943761E+02 -0.88269146079E+01 -0.10010961053E+03  0.11503593688E+03  0.00000000000E+00 0. -1.
        -12    1    4    4    0    0 -0.23844427390E+02 -0.95218820904E+01 -0.11834319636E+03  0.12109638756E+03  0.00000000000E+00 0.  1.
        -11    1    3    3    0    0 -0.24341407561E+02 -0.52421851400E+01 -0.99986133066E+01  0.26832012507E+02  0.00000000000E+00 0. -1.
         11    1    3    3    0    0 -0.22195272527E+01 -0.74173546675E+02  0.10828411202E+03  0.13127105638E+03  0.00000000000E+00 0.  1.
         21    1    1    2  502  501 -0.55715815566E+01  0.97764528513E+02 -0.32513232984E+02  0.10317972609E+03  0.00000000000E+00 0. -1.
<scales pt_clust_5="13000.00000" pt_clust_6="13000.00000" pt_clust_7="13000.00000" pt_clust_8="13000.00000" pt_clust_9="86.65984"></scales>
<clustering>
<clus scale="   81.656">  5  6 -1 -1</clus>
<clus scale="   89.648">  2  5  1 -1</clus>
<clus scale="   86.660">  2  9  1 -1</clus>
<clus scale="   91.237">  7  8 -1 -1</clus>
<clus scale="   89.648">  2  5  1 -1</clus>
</clustering>
</event>
<event>
 9    1  0.1973774E-005  0.8563626E+02  0.7546771E-02  0.1321826E+00
         -2   -1    0    0    0  501 -0.00000000000E+00  0.00000000000E+00  0.13464633018E+03  0.13464633018E+03  0.00000000000E+00 0.  1.
          1   -1    0    0  502    0  0.00000000000E+00 -0.00000000000E+00 -0.22504587122E+03  0.22504587122E+03  0.00000000000E+00 0. -1.
         23    2    1    2    0    0  0.20037168819E+02 -0.11773920970E+02  0.99671975803E+02  0.13162073344E+03  0.82761110198E+02 0.  0.
        -24    2    1    2    0    0  0.72936323412E+01  0.24748360985E+02 -0.18166827376E+03  0.19667205268E+03  0.70787401210E+02 0.  0.
         13    1    4    4    0    0  0.29650302259E+02 -0.51923320297E+01 -0.39425604307E+02  0.49603215731E+02  0.00000000000E+00 0. -1.
        -14    1    4    4    0    0 -0.22356669918E+02  0.29940693015E+02 -0.14224266946E+03  0.14706883695E+03  0.00000000000E+00 0.  1.
        -13    1    3    3    0    0  0.12683898649E+02 -0.33278514553E+02  0.10269362819E+03  0.10869370767E+03  0.00000000000E+00 0.  1.
         13    1    3    3    0    0  0.73532701705E+01  0.21504593582E+02 -0.30216523918E+01  0.22927025767E+02  0.00000000000E+00 0. -1.
         21    1    1    2  502  501 -0.27330801161E+02 -0.12974440015E+02 -0.84032430752E+01  0.31399415281E+02  0.00000000000E+00 0. -1.
<scales pt_clust_5="13000.00000" pt_clust_6="13000.00000" pt_clust_7="13000.00000" pt_clust_8="13000.00000" pt_clust_9="30.25407"></scales>
<clustering>
<clus scale="   30.254">  2  9  1 -1</clus>
<clus scale="   70.787">  5  6 -1 -1</clus>
<clus scale="   74.128">  2  5  1 -1</clus>
<clus scale="   82.761">  7  8 -1 -1</clus>
<clus scale="   30.254">  2  5  1 -1</clus>
</clustering>
</event>
<event>
 9    1  0.1973774E-005  0.1011245E+03  0.7546771E-02  0.1281893E+00
          3   -1    0    0  502    0  0.00000000000E+00  0.00000000000E+00  0.46357119594E+02  0.46357119594E+02  0.00000000000E+00 0. -1.
         -4   -1    0    0    0  501 -0.00000000000E+00 -0.00000000000E+00 -0.55251662840E+03  0.55251662840E+03  0.00000000000E+00 0.  1.
        -24    2    1    2    0    0  0.44431301017E+02  0.35109164503E+02 -0.40567378674E+03  0.41753355617E+03  0.80970706650E+02 0.  0.
         23    2    1    2    0    0 -0.27545563537E+02  0.11836285704E+02 -0.90104050766E+02  0.13038155640E+03  0.89340665745E+02 0.  0.
         13    1    3    3    0    0  0.17751731327E+02 -0.24040365325E+02 -0.78688061671E+02  0.84171694647E+02  0.00000000000E+00 0. -1.
        -14    1    3    3    0    0  0.26679569690E+02  0.59149529828E+02 -0.32698572507E+03  0.33336186152E+03  0.00000000000E+00 0.  1.
        -11    1    4    4    0    0 -0.58517029963E+01 -0.38212536541E+02 -0.47016498322E+02  0.60868641280E+02  0.00000000000E+00 0. -1.
         11    1    4    4    0    0 -0.21693860541E+02  0.50048822244E+02 -0.43087552443E+02  0.69512915122E+02  0.00000000000E+00 0.  1.
         21    1    1    2  502  501 -0.16885737480E+02 -0.46945450206E+02 -0.10381671301E+02  0.50958635425E+02  0.00000000000E+00 0. -1.
<scales pt_clust_5="13000.00000" pt_clust_6="13000.00000" pt_clust_7="13000.00000" pt_clust_8="13000.00000" pt_clust_9="49.88991"></scales>
<clustering>
<clus scale="   49.890">  1  9  2 -1</clus>
<clus scale="   80.971">  5  6 -1 -1</clus>
<clus scale="   89.341">  7  8 -1 -1</clus>
<clus scale="   93.812">  2  5  1 -1</clus>
<clus scale="   49.890">  1  5  2 -1</clus>
</clustering>
</event>
<event>
 9    1  0.1973774E-005  0.1114359E+03  0.7546771E-02  0.1263890E+00
          1   -1    0    0  502    0  0.00000000000E+00  0.00000000000E+00  0.47680782887E+02  0.47680782887E+02  0.00000000000E+00 0. -1.
         -2   -1    0    0    0  501 -0.00000000000E+00 -0.00000000000E+00 -0.31173991531E+03  0.31173991531E+03  0.00000000000E+00 0.  1.
        -24    2    1    2    0    0 -0.18340778992E+02  0.63242263060E+02 -0.17311315867E+03  0.20058700945E+03  0.77013081000E+02 0.  0.
         23    2    1    2    0    0  0.32373033676E+02 -0.47655726334E+02 -0.80855544523E+02  0.13556007578E+03  0.92302944169E+02 0.  0.
         11    1    3    3    0    0 -0.25640363533E+01  0.31831914092E+02 -0.96119687057E+01  0.33350187100E+02  0.00000000000E+00 0. -1.
        -12    1    3    3    0    0 -0.15776742639E+02  0.31410348968E+02 -0.16350118997E+03  0.16723682235E+03  0.00000000000E+00 0.  1.
        -13    1    4    4    0    0  0.28971982740E+02  0.79131525007E+01 -0.73505207411E+02  0.79404088578E+02  0.00000000000E+00 0.  1.
         13    1    4    4    0    0  0.34010509353E+01 -0.55568878835E+02 -0.73503371120E+01  0.56155987197E+02  0.00000000000E+00 0. -1.
         21    1    1    2  502  501 -0.14032254683E+02 -0.15586536726E+02 -0.10090429230E+02  0.23273612969E+02  0.00000000000E+00 0.  1.
<scales pt_clust_5="13000.00000" pt_clust_6="13000.00000" pt_clust_7="13000.00000" pt_clust_8="13000.00000" pt_clust_9="20.97247"></scales>
<clustering>
<clus scale="   20.972">  1  9  2 -1</clus>
<clus scale="   77.013">  5  6 -1 -1</clus>
<clus scale="   92.303">  7  8 -1 -1</clus>
<clus scale="   99.142">  2  5  1 -1</clus>
<clus scale="   20.972">  1  5  2 -1</clus>
</clustering>
</event>
<event>
 9    1  0.1973774E-005  0.1224390E+03  0.7546771E-02  0.1242444E+00
         -2   -1    0    0    0  501 -0.00000000000E+00  0.00000000000E+00  0.11193874471E+03  0.11193874471E+03  0.00000000000E+00 0.  1.
          1   -1    0    0  502    0  0.00000000000E+00 -0.00000000000E+00 -0.27587702927E+03  0.27587702927E+03  0.00000000000E+00 0. -1.
        -24    2    1    2    0    0  0.60877540358E+02  0.26689869214E+02 -0.44923858653E+02  0.11381254084E+03  0.80726187434E+02 0.  0.
         23    2    1    2    0    0 -0.32758757181E+02 -0.11330909162E+03 -0.43202766406E+02  0.15550866207E+03  0.91675397669E+02 0.  0.
         13    1    3    3    0    0  0.51673860442E+02 -0.15235057140E+02 -0.46053103580E+02  0.70874418293E+02  0.00000000000E+00 0. -1.
        -14    1    3    3    0    0  0.92036799156E+01  0.41924926354E+02  0.11292449266E+01  0.42938122548E+02  0.00000000000E+00 0.  1.
        -13    1    4    4    0    0 -0.43477983276E+02 -0.15584596667E+02 -0.32801405389E+02  0.56649332551E+02  0.00000000000E+00 0.  1.
         13    1    4    4    0    0  0.10719226095E+02 -0.97724494950E+02 -0.10401361017E+02  0.98859329516E+02  0.00000000000E+00 0. -1.
         21    1    1    2  502  501 -0.28118783177E+02  0.86619222403E+02 -0.75811659501E+02  0.11849457107E+03  0.00000000000E+00 0.  1.
<scales pt_clust_5="13000.00000" pt_clust_6="13000.00000" pt_clust_7="13000.00000" pt_clust_8="13000.00000" pt_clust_9="91.06896"></scales>
<clustering>
<clus scale="   80.726">  5  6 -1 -1</clus>
<clus scale="   91.069">  2  9  1 -1</clus>
<clus scale="   91.675">  7  8 -1 -1</clus>
<clus scale="  114.471">  1  5  2 -1</clus>
<clus scale="   91.069">  2  5  1 -1</clus>
</clustering>
</event>
<event>
 9    1  0.1973774E-005  0.3024304E+03  0.7546771E-02  0.1084434E+00
          1   -1    0    0  502    0  0.00000000000E+00  0.00000000000E+00  0.18722436971E+04  0.18722436971E+04  0.00000000000E+00 0. -1.
         -2   -1    0    0    0  501 -0.00000000000E+00 -0.00000000000E+00 -0.69526040263E+02  0.69526040263E+02  0.00000000000E+00 0.  1.
         23    2    1    2    0    0  0.22884043391E+03 -0.10446598096E+03  0.52090975364E+03  0.58557560609E+03  0.90943573992E+02 0.  0.
        -24    2    1    2    0    0 -0.31232095049E+03  0.60337491840E+02  0.11368710515E+04  0.11832114408E+04  0.79552102403E+02 0.  0.
         13    1    4    4    0    0 -0.30229137919E+03  0.42217963050E+02  0.10908103084E+04  0.11327089490E+04  0.00000000000E+00 0. -1.
        -14    1    4    4    0    0 -0.10029571302E+02  0.18119528790E+02  0.46060743085E+02  0.50502491796E+02  0.00000000000E+00 0.  1.
        -11    1    3    3    0    0  0.15830480343E+03 -0.11501716832E+03  0.36555889704E+03  0.41463558338E+03  0.00000000000E+00 0. -1.
         11    1    3    3    0    0  0.70535630472E+02  0.10551187359E+02  0.15535085660E+03  0.17094002272E+03  0.00000000000E+00 0.  1.
         21    1    1    2  502  501  0.83480516585E+02  0.44128489120E+02  0.14493685169E+03  0.17298269041E+03  0.00000000000E+00 0.  1.
<scales pt_clust_5="13000.00000" pt_clust_6="13000.00000" pt_clust_7="13000.00000" pt_clust_8="13000.00000" pt_clust_9="94.42627"></scales>
<clustering>
<clus scale="   79.552">  5  6 -1 -1</clus>
<clus scale="   90.944">  7  8 -1 -1</clus>
<clus scale="   94.426">  2  9  1 -1</clus>
<clus scale="  299.202">  1  5  2 -1</clus>
<clus scale="  299.202">  1  5  2 -1</clus>
</clustering>
</event>
<event>
 9    1  0.1973774E-005  0.1589477E+03  0.7546771E-02  0.1191931E+00
          3   -1    0    0  502    0  0.00000000000E+00  0.00000000000E+00  0.80948401469E+03  0.80948401469E+03  0.00000000000E+00 0. -1.
         -4   -1    0    0    0  501 -0.00000000000E+00 -0.00000000000E+00 -0.12705190835E+03  0.12705190835E+03  0.00000000000E+00 0.  1.
        -24    2    1    2    0    0  0.12943639597E+03  0.25600409206E+02 -0.62810924608E+02  0.16640136130E+03  0.79592959725E+02 0.  0.
         23    2    1    2    0    0 -0.95933396528E+02 -0.55846539780E+02  0.48556090081E+03  0.50655897846E+03  0.92252683916E+02 0.  0.
         13    1    3    3    0    0  0.68108089989E+02 -0.18971781260E+02 -0.56167479928E+02  0.90296324441E+02  0.00000000000E+00 0. -1.
        -14    1    3    3    0    0  0.61328305985E+02  0.44572190466E+02 -0.66434446804E+01  0.76105036858E+02  0.00000000000E+00 0.  1.
        -13    1    4    4    0    0 -0.42690804420E+02  0.75348975447E+01  0.66369527878E+02  0.79272906429E+02  0.00000000000E+00 0.  1.
         13    1    4    4    0    0 -0.53242592108E+02 -0.63381437325E+02  0.41919137294E+03  0.42728607204E+03  0.00000000000E+00 0. -1.
         21    1    1    2  502  501 -0.33502999446E+02  0.30246130574E+02  0.25968213013E+03  0.26357558327E+03  0.00000000000E+00 0. -1.
<scales pt_clust_5="13000.00000" pt_clust_6="13000.00000" pt_clust_7="13000.00000" pt_clust_8="13000.00000" pt_clust_9="45.13623"></scales>
<clustering>
<clus scale="   45.136">  1  9  2 -1</clus>
<clus scale="   79.593">  5  6 -1 -1</clus>
<clus scale="   92.253">  7  8 -1 -1</clus>
<clus scale="  151.950">  2  5  1 -1</clus>
<clus scale="   45.136">  1  5  2 -1</clus>
</clustering>
</event>
<event>
 9    1  0.1973774E-005  0.1393713E+03  0.7546771E-02  0.1223271E+00
          1   -1    0    0  502    0  0.00000000000E+00  0.00000000000E+00  0.49161669720E+03  0.49161669720E+03  0.00000000000E+00 0. -1.
         -2   -1    0    0    0  501 -0.00000000000E+00 -0.00000000000E+00 -0.11081554601E+03  0.11081554601E+03  0.00000000000E+00 0.  1.
        -24    2    1    2    0    0 -0.74900683777E+02  0.32745449771E+02 -0.28075222613E+02  0.11847475275E+03  0.81028834396E+02 0.  0.
         23    2    1    2    0    0  0.73326859303E+02  0.83059228687E+02  0.23033451508E+03  0.27114208736E+03  0.90489662050E+02 0.  0.
         11    1    3    3    0    0 -0.30292336083E+02  0.17361951645E+02  0.28310058927E+02  0.44950221654E+02  0.00000000000E+00 0. -1.
        -12    1    3    3    0    0 -0.44608347694E+02  0.15383498125E+02 -0.56385281540E+02  0.73524531096E+02  0.00000000000E+00 0.  1.
        -11    1    4    4    0    0  0.69508110392E+02  0.10452026117E+02  0.10944682664E+03  0.13007394098E+03  0.00000000000E+00 0. -1.
         11    1    4    4    0    0  0.38187489109E+01  0.72607202570E+02  0.12088768844E+03  0.14106814638E+03  0.00000000000E+00 0.  1.
         21    1    1    2  502  501  0.15738244744E+01 -0.11580467846E+03  0.17854185873E+03  0.21281540309E+03  0.00000000000E+00 0. -1.
<scales pt_clust_5="13000.00000" pt_clust_6="13000.00000" pt_clust_7="13000.00000" pt_clust_8="13000.00000" pt_clust_9="105.99994"></scales>
<clustering>
<clus scale="   81.029">  5  6 -1 -1</clus>
<clus scale="   90.490">  7  8 -1 -1</clus>
<clus scale="  115.100">  2  5  1 -1</clus>
<clus scale="  106.000">  2  9  1 -1</clus>
<clus scale="  139.371">  1  5  2 -1</clus>
</clustering>
</event>
<event>
 9    1  0.1973774E-005  0.1355059E+03  0.7546771E-02  0.1221632E+00
         -2   -1    0    0    0  501 -0.00000000000E+00  0.00000000000E+00  0.58273050474E+02  0.58273050474E+02  0.00000000000E+00 0.  1.
          1   -1    0    0  502    0  0.00000000000E+00 -0.00000000000E+00 -0.56466534794E+03  0.56466534794E+03  0.00000000000E+00 0. -1.
         23    2    1    2    0    0 -0.99309611303E+02 -0.28188350579E+02 -0.56849688148E+02  0.14794116823E+03  0.89429973773E+02 0.  0.
        -24    2    1    2    0    0  0.85695322068E+02  0.47873557659E+02 -0.40577436894E+03  0.42511221124E+03  0.80199675252E+02 0.  0.
         11    1    4    4    0    0  0.95515162556E+02  0.57198310492E+02 -0.38031380105E+03  0.39627437499E+03  0.00000000000E+00 0. -1.
        -12    1    4    4    0    0 -0.98198404881E+01 -0.93247528328E+01 -0.25460567887E+02  0.28837836253E+02  0.00000000000E+00 0.  1.
        -11    1    3    3    0    0 -0.10874923529E+03 -0.38364056055E+01 -0.54545205724E+02  0.12172219868E+03  0.00000000000E+00 0.  1.
         11    1    3    3    0    0  0.94396239865E+01 -0.24351944974E+02 -0.23044824236E+01  0.26218969550E+02  0.00000000000E+00 0. -1.
         21    1    1    2  502  501  0.13614289235E+02 -0.19685207080E+02 -0.43768240382E+02  0.49885018946E+02  0.00000000000E+00 0. -1.
<scales pt_clust_5="13000.00000" pt_clust_6="13000.00000" pt_clust_7="13000.00000" pt_clust_8="13000.00000" pt_clust_9="23.93442"></scales>
<clustering>
<clus scale="   23.934">  2  9  1 -1</clus>
<clus scale="   80.200">  5  6 -1 -1</clus>
<clus scale="   89.430">  7  8 -1 -1</clus>
<clus scale="  129.600">  2  5  1 -1</clus>
<clus scale="   23.934">  2  5  1 -1</clus>
</clustering>
</event>
<event>
 9    1  0.1973774E-005  0.1389320E+03  0.7546771E-02  0.1218224E+00
         -2   -1    0    0    0  501 -0.00000000000E+00  0.00000000000E+00  0.59054414259E+02  0.59054414259E+02  0.00000000000E+00 0.  1.
          1   -1    0    0  502    0  0.00000000000E+00 -0.00000000000E+00 -0.72467616581E+03  0.72467616581E+03  0.00000000000E+00 0. -1.
        -24    2    1    2    0    0 -0.53554008018E+02 -0.87999055754E+02 -0.45930695477E+02  0.13736670120E+03  0.78409924263E+02 0.  0.
         23    2    1    2    0    0  0.20556603041E+02  0.10426541691E+03 -0.41796358798E+03  0.44130926511E+03  0.93629351707E+02 0.  0.
         13    1    3    3    0    0 -0.13933865503E+02 -0.43720208936E+02 -0.60747112155E+02  0.76130289060E+02  0.00000000000E+00 0. -1.
        -14    1    3    3    0    0 -0.39620142515E+02 -0.44278846818E+02  0.14816416678E+02  0.61236412139E+02  0.00000000000E+00 0.  1.
        -13    1    4    4    0    0  0.49087818233E+02  0.98565081299E+02 -0.35983718796E+03  0.37630770785E+03  0.00000000000E+00 0. -1.
         13    1    4    4    0    0 -0.28531215192E+02  0.57003356151E+01 -0.58126400020E+02  0.65001557256E+02  0.00000000000E+00 0.  1.
         21    1    1    2  502  501  0.32997404978E+02 -0.16266361160E+02 -0.20172746809E+03  0.20505461376E+03  0.00000000000E+00 0. -1.
<scales pt_clust_5="13000.00000" pt_clust_6="13000.00000" pt_clust_7="13000.00000" pt_clust_8="13000.00000" pt_clust_9="36.78890"></scales>
<clustering>
<clus scale="   36.789">  2  9  1 -1</clus>
<clus scale="   78.410">  5  6 -1 -1</clus>
<clus scale="   93.629">  7  8 -1 -1</clus>
<clus scale="  129.166">  1  5  2 -1</clus>
<clus scale="   36.789">  2  5  1 -1</clus>
</clustering>
</event>
<event>
 9    1  0.1973774E-005  0.9465456E+02  0.7546771E-02  0.1300434E+00
         -2   -1    0    0    0  501 -0.00000000000E+00  0.00000000000E+00  0.39708834589E+02  0.39708834589E+02  0.00000000000E+00 0.  1.
          1   -1    0    0  502    0  0.00000000000E+00 -0.00000000000E+00 -0.40180051194E+03  0.40180051194E+03  0.00000000000E+00 0. -1.
        -24    2    1    2    0    0 -0.31776512538E+01  0.12842082714E+02 -0.35024537600E+02  0.88787304057E+02  0.80507456622E+02 0.  0.
         23    2    1    2    0    0  0.38181550696E+01  0.10819990139E+02 -0.17792027867E+03  0.20170849968E+03  0.94334737959E+02 0.  0.
         13    1    3    3    0    0 -0.80392497997E+01 -0.33774195866E+02 -0.14790777518E+02  0.37737156005E+02  0.00000000000E+00 0. -1.
        -14    1    3    3    0    0  0.48615985459E+01  0.46616278581E+02 -0.20233760082E+02  0.51050148052E+02  0.00000000000E+00 0.  1.
        -11    1    4    4    0    0  0.34386496998E+02 -0.27666579398E+02 -0.65134325905E+02  0.78678784958E+02  0.00000000000E+00 0.  1.
         11    1    4    4    0    0 -0.30568341928E+02  0.38486569537E+02 -0.11278595277E+03  0.12302971472E+03  0.00000000000E+00 0. -1.
         21    1    1    2  502  501 -0.64050381579E+00 -0.23662072853E+02 -0.14914686108E+03  0.15101354279E+03  0.00000000000E+00 0.  1.
<scales pt_clust_5="13000.00000" pt_clust_6="13000.00000" pt_clust_7="13000.00000" pt_clust_8="13000.00000" pt_clust_9="23.67074"></scales>
<clustering>
<clus scale="   23.671">  2  9  1 -1</clus>
<clus scale="   80.507">  5  6 -1 -1</clus>
<clus scale="   80.882">  1  5  2 -1</clus>
<clus scale="   94.335">  7  8 -1 -1</clus>
<clus scale="   23.671">  2  5  1 -1</clus>
</clustering>
</event>
<event>
 9    1  0.1973774E-005  0.1138033E+03  0.7546771E-02  0.1257334E+00
          1   -1    0    0  502    0  0.00000000000E+00  0.00000000000E+00  0.13671623907E+03  0.13671623907E+03  0.00000000000E+00 0. -1.
         -2   -1    0    0    0  501 -0.00000000000E+00 -0.00000000000E+00 -0.25889789538E+03  0.25889789538E+03  0.00000000000E+00 0.  1.
        -24    2    1    2    0    0  0.42438898773E+02 -0.68737876155E+02 -0.15144017667E+03  0.18997836360E+03  0.81435224435E+02 0.  0.
         23    2    1    2    0    0 -0.38117010027E+02  0.29424632227E+02 -0.51641798345E+02  0.11558538810E+03  0.91511699633E+02 0.  0.
         11    1    3    3    0    0  0.50437851904E+01 -0.71933831825E+02 -0.70922288595E+02  0.10114290360E+03  0.00000000000E+00 0. -1.
        -12    1    3    3    0    0  0.37395113583E+02  0.31959556695E+01 -0.80517888072E+02  0.88835459992E+02  0.00000000000E+00 0.  1.
        -13    1    4    4    0    0  0.10358624327E+02 -0.27011345078E+02 -0.16531405825E+02  0.33319682462E+02  0.00000000000E+00 0.  1.
         13    1    4    4    0    0 -0.48475634354E+02  0.56435977304E+02 -0.35110392520E+02  0.82265705633E+02  0.00000000000E+00 0. -1.
         21    1    1    2  502  501 -0.43218887455E+01  0.39313243929E+02  0.80900318700E+02  0.90050382766E+02  0.00000000000E+00 0. -1.
<scales pt_clust_5="13000.00000" pt_clust_6="13000.00000" pt_clust_7="13000.00000" pt_clust_8="13000.00000" pt_clust_9="39.55009"></scales>
<clustering>
<clus scale="   39.550">  1  9  2 -1</clus>
<clus scale="   81.435">  5  6 -1 -1</clus>
<clus scale="   91.512">  7  8 -1 -1</clus>
<clus scale="  105.870">  2  5  1 -1</clus>
<clus scale="   39.550">  1  5  2 -1</clus>
</clustering>
</event>
<event>
 9    1  0.1973774E-005  0.8256354E+02  0.7546771E-02  0.1322770E+00
          1   -1    0    0  502    0  0.00000000000E+00  0.00000000000E+00  0.34426750002E+03  0.34426750002E+03  0.00000000000E+00 0. -1.
         -2   -1    0    0    0  501 -0.00000000000E+00 -0.00000000000E+00 -0.59814902982E+02  0.59814902982E+02  0.00000000000E+00 0.  1.
         23    2    1    2    0    0  0.21914191705E+00  0.13258557325E+02 -0.10843501152E+02  0.83816519693E+02  0.82047486803E+02 0.  0.
        -24    2    1    2    0    0 -0.20375499928E+02  0.14581415133E+02  0.16392057251E+03  0.18446871256E+03  0.80814436569E+02 0.  0.
         13    1    4    4    0    0 -0.45985186831E+02 -0.74968269219E+01  0.12210845615E+03  0.13069550446E+03  0.00000000000E+00 0. -1.
        -14    1    4    4    0    0  0.25609686903E+02  0.22078242055E+02  0.41812116357E+02  0.53773208103E+02  0.00000000000E+00 0.  1.
        -11    1    3    3    0    0  0.36288715179E+02  0.22113613279E+02 -0.17724420456E+02  0.46043868453E+02  0.00000000000E+00 0.  1.
         11    1    3    3    0    0 -0.36069573262E+02 -0.88550559540E+01  0.68809193037E+01  0.37772651240E+02  0.00000000000E+00 0. -1.
         21    1    1    2  502  501  0.20156358011E+02 -0.27839972457E+02  0.13137552568E+03  0.13579717075E+03  0.00000000000E+00 0. -1.
<scales pt_clust_5="13000.00000" pt_clust_6="13000.00000" pt_clust_7="13000.00000" pt_clust_8="13000.00000" pt_clust_9="34.37067"></scales>
<clustering>
<clus scale="   34.371">  1  9  2 -1</clus>
<clus scale="   80.814">  5  6 -1 -1</clus>
<clus scale="   81.338">  1  5  2 -1</clus>
<clus scale="   82.047">  7  8 -1 -1</clus>
<clus scale="   34.371">  1  5  2 -1</clus>
</clustering>
</event>
<event>
 9    1  0.1973774E-005  0.9819494E+02  0.7546771E-02  0.1291048E+00
          1   -1    0    0  502    0  0.00000000000E+00  0.00000000000E+00  0.16712863714E+03  0.16712863714E+03  0.00000000000E+00 0. -1.
         -2   -1    0    0    0  501 -0.00000000000E+00 -0.00000000000E+00 -0.18649821849E+03  0.18649821849E+03  0.00000000000E+00 0.  1.
         23    2    1    2    0    0 -0.35330351138E+02  0.16550571583E+02 -0.12163722859E+03  0.15790372810E+03  0.92821424461E+02 0.  0.
        -24    2    1    2    0    0 -0.57461133261E+01 -0.34401239291E+02  0.36401401563E+01  0.87402735057E+02  0.80059505319E+02 0.  0.
         11    1    4    4    0    0 -0.27759344005E+02  0.15091810000E+02  0.93085032388E+01  0.32939218892E+02  0.00000000000E+00 0. -1.
        -12    1    4    4    0    0  0.22013230679E+02 -0.49493049291E+02 -0.56683630825E+01  0.54463516165E+02  0.00000000000E+00 0.  1.
        -11    1    3    3    0    0  0.11852322460E+02  0.30313848348E+02 -0.71671036139E+01  0.33328281137E+02  0.00000000000E+00 0. -1.
         11    1    3    3    0    0 -0.47182673598E+02 -0.13763276765E+02 -0.11447012497E+03  0.12457544697E+03  0.00000000000E+00 0.  1.
         21    1    1    2  502  501  0.41076464464E+02  0.17850667708E+02  0.98627507089E+02  0.10832039247E+03  0.00000000000E+00 0. -1.
<scales pt_clust_5="13000.00000" pt_clust_6="13000.00000" pt_clust_7="13000.00000" pt_clust_8="13000.00000" pt_clust_9="44.78752"></scales>
<clustering>
<clus scale="   44.788">  1  9  2 -1</clus>
<clus scale="   80.060">  5  6 -1 -1</clus>
<clus scale="   86.232">  1  5  2 -1</clus>
<clus scale="   92.821">  7  8 -1 -1</clus>
<clus scale="   44.788">  1  5  2 -1</clus>
</clustering>
</event>
<event>
 9    1  0.1973774E-005  0.1037242E+03  0.7546771E-02  0.1278088E+00
         -2   -1    0    0    0  501 -0.00000000000E+00  0.00000000000E+00  0.94548967964E+03  0.94548967964E+03  0.00000000000E+00 0.  1.
          1   -1    0    0  502    0  0.00000000000E+00 -0.00000000000E+00 -0.55350218602E+02  0.55350218602E+02  0.00000000000E+00 0. -1.
        -24    2    1    2    0    0  0.32958703047E+02 -0.34014347795E+02  0.84066812666E+03  0.84588123374E+03  0.80925338696E+02 0.  0.
         23    2    1    2    0    0 -0.50090205170E+02  0.52975417415E+01  0.58195564186E+02  0.12040066253E+03  0.92587813697E+02 0.  0.
         13    1    3    3    0    0  0.19414327395E+02  0.15332748511E+02  0.86199753514E+02  0.89679466942E+02  0.00000000000E+00 0. -1.
        -14    1    3    3    0    0  0.13544375652E+02 -0.49347096307E+02  0.75446837315E+03  0.75620176679E+03  0.00000000000E+00 0.  1.
        -13    1    4    4    0    0 -0.11105759329E+02  0.22654218391E+02 -0.19412576118E+02  0.31833938065E+02  0.00000000000E+00 0. -1.
         13    1    4    4    0    0 -0.38984445841E+02 -0.17356676649E+02  0.77608140304E+02  0.88566724469E+02  0.00000000000E+00 0.  1.
         21    1    1    2  502  501  0.17131502123E+02  0.28716806054E+02 -0.87242298037E+01  0.34558001976E+02  0.00000000000E+00 0. -1.
<scales pt_clust_5="13000.00000" pt_clust_6="13000.00000" pt_clust_7="13000.00000" pt_clust_8="13000.00000" pt_clust_9="33.43865"></scales>
<clustering>
<clus scale="   33.439">  2  9  1 -1</clus>
<clus scale="   80.925">  5  6 -1 -1</clus>
<clus scale="   92.588">  7  8 -1 -1</clus>
<clus scale="   93.462">  1  5  2 -1</clus>
<clus scale="   33.439">  2  5  1 -1</clus>
</clustering>
</event>
<event>
 9    1  0.1973774E-005  0.2108329E+03  0.7546771E-02  0.1155002E+00
          1   -1    0    0  502    0  0.00000000000E+00  0.00000000000E+00  0.23876173710E+03  0.23876173710E+03  0.00000000000E+00 0. -1.
         -2   -1    0    0    0  501 -0.00000000000E+00 -0.00000000000E+00 -0.48314741142E+03  0.48314741142E+03  0.00000000000E+00 0.  1.
         23    2    1    2    0    0  0.49514579355E+02 -0.11658688425E+03 -0.65096526009E+02  0.16424198915E+03  0.81814901794E+02 0.  0.
        -24    2    1    2    0    0  0.13897371678E+03  0.13298819758E+03  0.84295209087E+02  0.23320829553E+03  0.10139463584E+03 0.  0.
         11    1    4    4    0    0  0.15590180005E+02  0.14018758602E+02 -0.22901318841E+02  0.31049149908E+02  0.00000000000E+00 0. -1.
        -12    1    4    4    0    0  0.12338353677E+03  0.11896943898E+03  0.10719652793E+03  0.20215914562E+03  0.00000000000E+00 0.  1.
        -13    1    3    3    0    0  0.40890352717E+02 -0.62934004769E+02 -0.78152820774E+02  0.10835392608E+03  0.00000000000E+00 0.  1.
         13    1    3    3    0    0  0.86242266378E+01 -0.53652879477E+02  0.13056294765E+02  0.55888063075E+02  0.00000000000E+00 0. -1.
         21    1    1    2  502  501 -0.18848829613E+03 -0.16401313336E+02 -0.26358435740E+03  0.32445886384E+03  0.00000000000E+00 0. -1.
<scales pt_clust_5="13000.00000" pt_clust_6="13000.00000" pt_clust_7="13000.00000" pt_clust_8="13000.00000" pt_clust_9="184.85034"></scales>
<clustering>
<clus scale="   81.815">  7  8 -1 -1</clus>
<clus scale="  101.395">  5  6 -1 -1</clus>
<clus scale="  150.791">  2  7  1 -1</clus>
<clus scale="  184.850">  2  9  1 -1</clus>
<clus scale="  210.833">  1  5  2 -1</clus>
</clustering>
</event>
<event>
 9    1  0.1973774E-005  0.1031962E+03  0.7546771E-02  0.1280234E+00
          1   -1    0    0  502    0  0.00000000000E+00  0.00000000000E+00  0.33129751175E+03  0.33129751175E+03  0.00000000000E+00 0. -1.
         -2   -1    0    0    0  501 -0.00000000000E+00 -0.00000000000E+00 -0.29455692240E+03  0.29455692240E+03  0.00000000000E+00 0.  1.
         23    2    1    2    0    0  0.18022763199E+02 -0.38206111580E+02 -0.25493582559E+03  0.27469796380E+03  0.93178158347E+02 0.  0.
        -24    2    1    2    0    0 -0.56109290889E+02  0.45954358732E+02  0.75467025952E+02  0.13148144034E+03  0.79574126052E+02 0.  0.
         11    1    4    4    0    0  0.19478814173E+01  0.31189440802E+02 -0.44916366159E+01  0.31571351873E+02  0.00000000000E+00 0. -1.
        -12    1    4    4    0    0 -0.58057172306E+02  0.14764917929E+02  0.79958662568E+02  0.99910088466E+02  0.00000000000E+00 0.  1.
        -13    1    3    3    0    0  0.50648018837E+02 -0.40519417803E+02 -0.12645474548E+03  0.14211913202E+03  0.00000000000E+00 0. -1.
         13    1    3    3    0    0 -0.32625255638E+02  0.23133062228E+01 -0.12848108011E+03  0.13257883178E+03  0.00000000000E+00 0.  1.
         21    1    1    2  502  501  0.38086527690E+02 -0.77482471513E+01  0.21620938899E+03  0.21967503001E+03  0.00000000000E+00 0. -1.
<scales pt_clust_5="13000.00000" pt_clust_6="13000.00000" pt_clust_7="13000.00000" pt_clust_8="13000.00000" pt_clust_9="38.86668"></scales>
<clustering>
<clus scale="   38.867">  1  9  2 -1</clus>
<clus scale="   79.574">  5  6 -1 -1</clus>
<clus scale="   91.101">  1  5  2 -1</clus>
<clus scale="   93.178">  7  8 -1 -1</clus>
<clus scale="   38.867">  1  5  2 -1</clus>
</clustering>
</event>
<event>
 9    1  0.1973774E-005  0.2669404E+03  0.7546771E-02  0.1103279E+00
          1   -1    0    0  502    0  0.00000000000E+00  0.00000000000E+00  0.10792678163E+04  0.10792678163E+04  0.00000000000E+00 0. -1.
         -2   -1    0    0    0  501 -0.00000000000E+00 -0.00000000000E+00 -0.14650407524E+03  0.14650407524E+03  0.00000000000E+00 0.  1.
         23    2    1    2    0    0  0.20707107901E+03  0.15413903595E+03  0.26243543058E+02  0.27532987874E+03  0.92089871373E+02 0.  0.
        -24    2    1    2    0    0 -0.15295191775E+03 -0.14788689826E+03  0.76420563088E+03  0.79805628888E+03  0.87285566528E+02 0.  0.
         11    1    4    4    0    0 -0.15277828979E+03 -0.14462433577E+03  0.63762648230E+03  0.67143498215E+03  0.00000000000E+00 0. -1.
        -12    1    4    4    0    0 -0.17362796079E+00 -0.32625624864E+01  0.12657914859E+03  0.12662130673E+03  0.00000000000E+00 0.  1.
        -11    1    3    3    0    0  0.19361848274E+03  0.13022864294E+03 -0.54597751614E+01  0.23340399621E+03  0.00000000000E+00 0.  1.
         11    1    3    3    0    0  0.13452596273E+02  0.23910393009E+02  0.31703318219E+02  0.41925882536E+02  0.00000000000E+00 0. -1.
         21    1    1    2  502  501 -0.54119161265E+02 -0.62521376893E+01  0.14231456710E+03  0.15238572391E+03  0.00000000000E+00 0. -1.
<scales pt_clust_5="13000.00000" pt_clust_6="13000.00000" pt_clust_7="13000.00000" pt_clust_8="13000.00000" pt_clust_9="54.47910"></scales>
<clustering>
<clus scale="   54.479">  1  9  2 -1</clus>
<clus scale="   87.286">  5  6 -1 -1</clus>
<clus scale="   92.090">  7  8 -1 -1</clus>
<clus scale="  265.321">  1  5  2 -1</clus>
<clus scale="   54.479">  1  5  2 -1</clus>
</clustering>
</event>
<event>
 9    1  0.1973774E-005  0.1289275E+03  0.7546771E-02  0.1232021E+00
          3   -1    0    0  502    0  0.00000000000E+00  0.00000000000E+00  0.66365451022E+02  0.66365451022E+02  0.00000000000E+00 0. -1.
         -4   -1    0    0    0  501 -0.00000000000E+00 -0.00000000000E+00 -0.36960302662E+03  0.36960302662E+03  0.00000000000E+00 0.  1.
         23    2    1    2    0    0 -0.78336674558E+02 -0.67202608007E+02 -0.20400842753E+03  0.24618498522E+03  0.91295034592E+02 0.  0.
        -24    2    1    2    0    0  0.68502063547E+02  0.38145786285E+02 -0.11020320309E+03  0.15720361602E+03  0.80128629068E+02 0.  0.
         11    1    4    4    0    0 -0.17604873437E+00  0.28740729621E+02 -0.73169763383E+02  0.78612179756E+02  0.00000000000E+00 0. -1.
        -12    1    4    4    0    0  0.68678112282E+02  0.94050566632E+01 -0.37033439711E+02  0.78591436265E+02  0.00000000000E+00 0.  1.
        -13    1    3    3    0    0 -0.98523220650E+02 -0.55954878718E+02 -0.15495024257E+03  0.19195663868E+03  0.00000000000E+00 0.  1.
         13    1    3    3    0    0  0.20186546093E+02 -0.11247729289E+02 -0.49058184959E+02  0.54228346543E+02  0.00000000000E+00 0. -1.
         21    1    1    2  502  501  0.98346110102E+01  0.29056821722E+02  0.10974055030E+02  0.32579876398E+02  0.00000000000E+00 0. -1.
<scales pt_clust_5="13000.00000" pt_clust_6="13000.00000" pt_clust_7="13000.00000" pt_clust_8="13000.00000" pt_clust_9="30.67602"></scales>
<clustering>
<clus scale="   30.676">  1  9  2 -1</clus>
<clus scale="   80.129">  5  6 -1 -1</clus>
<clus scale="   91.295">  7  8 -1 -1</clus>
<clus scale="  121.277">  1  5  2 -1</clus>
<clus scale="   30.676">  1  5  2 -1</clus>
</clustering>
</event>
<event>
 9    1  0.1973774E-005  0.1699593E+03  0.7546771E-02  0.1179249E+00
          1   -1    0    0  502    0  0.00000000000E+00  0.00000000000E+00  0.75386048402E+03  0.75386048402E+03  0.00000000000E+00 0. -1.
         -2   -1    0    0    0  501 -0.00000000000E+00 -0.00000000000E+00 -0.27365884508E+03  0.27365884508E+03  0.00000000000E+00 0.  1.
        -24    2    1    2    0    0 -0.92220343718E+02  0.11720754731E+03 -0.23124499760E+03  0.28683872239E+03  0.80993844225E+02 0.  0.
         23    2    1    2    0    0  0.60603043884E+02 -0.30225477775E+02  0.40160441273E+03  0.41731125485E+03  0.90974010950E+02 0.  0.
         13    1    3    3    0    0 -0.16856833616E+01  0.29530170128E+02 -0.10246841996E+03  0.10665200217E+03  0.00000000000E+00 0. -1.
        -14    1    3    3    0    0 -0.90534660357E+02  0.87677377186E+02 -0.12877657764E+03  0.18018672022E+03  0.00000000000E+00 0.  1.
        -13    1    4    4    0    0 -0.82923728011E+01  0.23795581062E+02  0.10990486320E+03  0.11275669416E+03  0.00000000000E+00 0.  1.
         13    1    4    4    0    0  0.68895416685E+02 -0.54021058837E+02  0.29169954953E+03  0.30455456069E+03  0.00000000000E+00 0. -1.
         21    1    1    2  502  501  0.31617299834E+02 -0.86982069539E+02  0.30984222381E+03  0.32336935187E+03  0.00000000000E+00 0. -1.
<scales pt_clust_5="13000.00000" pt_clust_6="13000.00000" pt_clust_7="13000.00000" pt_clust_8="13000.00000" pt_clust_9="92.55017"></scales>
<clustering>
<clus scale="   80.994">  5  6 -1 -1</clus>
<clus scale="   90.974">  7  8 -1 -1</clus>
<clus scale="   92.550">  1  9  2 -1</clus>
<clus scale="  164.833">  2  5  1 -1</clus>
<clus scale="   92.550">  1  5  2 -1</clus>
</clustering>
</event>
<event>
 9    1  0.1973774E-005  0.1000638E+03  0.7546771E-02  0.1280949E+00
         -2   -1    0    0    0  501 -0.00000000000E+00  0.00000000000E+00  0.16280230922E+03  0.16280230922E+03  0.00000000000E+00 0.  1.
          1   -1    0    0  502    0  0.00000000000E+00 -0.00000000000E+00 -0.33248236855E+03  0.33248236855E+03  0.00000000000E+00 0. -1.
         23    2    1    2    0    0 -0.64583339608E+02 -0.11105125965E+02  0.10631750156E+03  0.14919952675E+03  0.81625707136E+02 0.  0.
        -24    2    1    2    0    0  0.31417538140E+02  0.26775097689E+02 -0.26163985159E+02  0.93573103865E+02  0.79796015493E+02 0.  0.
         11    1    4    4    0    0  0.28218954375E+02  0.52827405099E+02 -0.30102438676E+02  0.67031342891E+02  0.00000000000E+00 0. -1.
        -12    1    4    4    0    0  0.31985837650E+01 -0.26052307411E+02  0.39384535166E+01  0.26541760974E+02  0.00000000000E+00 0.  1.
        -13    1    3    3    0    0 -0.50030051505E+02 -0.39835399201E+02  0.96057144126E+02  0.11539861360E+03  0.00000000000E+00 0.  1.
         13    1    3    3    0    0 -0.14553288103E+02  0.28730273236E+02  0.10260357435E+02  0.33800913147E+02  0.00000000000E+00 0. -1.
         21    1    1    2  502  501  0.33165801469E+02 -0.15669971724E+02 -0.24983357572E+03  0.25251204716E+03  0.00000000000E+00 0. -1.
<scales pt_clust_5="13000.00000" pt_clust_6="13000.00000" pt_clust_7="13000.00000" pt_clust_8="13000.00000" pt_clust_9="36.68131"></scales>
<clustering>
<clus scale="   36.681">  2  9  1 -1</clus>
<clus scale="   79.796">  5  6 -1 -1</clus>
<clus scale="   81.626">  7  8 -1 -1</clus>
<clus scale="   98.577">  2  5  1 -1</clus>
<clus scale="   36.681">  2  5  1 -1</clus>
</clustering>
</event>
<event>
 9    1  0.1973774E-005  0.8766423E+02  0.7546771E-02  0.1312524E+00
          1   -1    0    0  502    0  0.00000000000E+00  0.00000000000E+00  0.10800394731E+04  0.10800394731E+04  0.00000000000E+00 0. -1.
         -2   -1    0    0    0  501 -0.00000000000E+00 -0.00000000000E+00 -0.46706634405E+02  0.46706634405E+02  0.00000000000E+00 0.  1.
         23    2    1    2    0    0  0.30664150199E+00  0.79506125598E+01  0.65499202875E+01  0.88172438486E+02  0.87568094553E+02 0.  0.
        -24    2    1    2    0    0 -0.19559306145E+02  0.46767600527E+02  0.55606048613E+03  0.56429067734E+03  0.81553230409E+02 0.  0.
         13    1    4    4    0    0 -0.11804188862E+02  0.70054879160E+02  0.38851050423E+03  0.39495244886E+03  0.00000000000E+00 0. -1.
        -14    1    4    4    0    0 -0.77551172828E+01 -0.23287278633E+02  0.16754998190E+03  0.16933822848E+03  0.00000000000E+00 0.  1.
        -13    1    3    3    0    0 -0.23986907209E+02 -0.28926303282E+02 -0.13157362659E+02  0.39814807938E+02  0.00000000000E+00 0.  1.
         13    1    3    3    0    0  0.24293548711E+02  0.36876915842E+02  0.19707282946E+02  0.48357630547E+02  0.00000000000E+00 0. -1.
         21    1    1    2  502  501  0.19252664643E+02 -0.54718213087E+02  0.47072243228E+03  0.47428299168E+03  0.00000000000E+00 0.  1.
<scales pt_clust_5="13000.00000" pt_clust_6="13000.00000" pt_clust_7="13000.00000" pt_clust_8="13000.00000" pt_clust_9="58.00645"></scales>
<clustering>
<clus scale="   58.006">  1  9  2 -1</clus>
<clus scale="   81.553">  5  6 -1 -1</clus>
<clus scale="   81.656">  1  5  2 -1</clus>
<clus scale="   87.568">  7  8 -1 -1</clus>
<clus scale="   58.006">  1  5  2 -1</clus>
</clustering>
</event>
<event>
 9    1  0.1973774E-005  0.9467210E+02  0.7546771E-02  0.1306832E+00
         -2   -1    0    0    0  501 -0.00000000000E+00  0.00000000000E+00  0.81977686652E+02  0.81977686652E+02  0.00000000000E+00 0.  1.
          1   -1    0    0  502    0  0.00000000000E+00 -0.00000000000E+00 -0.13506613186E+03  0.13506613186E+03  0.00000000000E+00 0. -1.
         23    2    1    2    0    0  0.13070751853E+01  0.11093404133E+01  0.11975560393E+02  0.94177041015E+02  0.93396798263E+02 0.  0.
        -24    2    1    2    0    0  0.22619367803E+01  0.20315080121E+02 -0.69295690594E+02  0.10073872292E+03  0.70203836949E+02 0.  0.
         11    1    4    4    0    0 -0.33271987884E+02  0.16700954957E+02 -0.38829338889E+02  0.53792793502E+02  0.00000000000E+00 0. -1.
        -12    1    4    4    0    0  0.35533924664E+02  0.36141251643E+01 -0.30466351705E+02  0.46945929418E+02  0.00000000000E+00 0.  1.
        -11    1    3    3    0    0 -0.44500843973E+02  0.10605160944E+02  0.12383320688E+02  0.47393471958E+02  0.00000000000E+00 0. -1.
         11    1    3    3    0    0  0.45807919159E+02 -0.94958205308E+01 -0.40776029478E+00  0.46783569056E+02  0.00000000000E+00 0.  1.
         21    1    1    2  502  501 -0.35690119656E+01 -0.21424420534E+02  0.42316849897E+01  0.22128054580E+02  0.00000000000E+00 0.  1.
<scales pt_clust_5="13000.00000" pt_clust_6="13000.00000" pt_clust_7="13000.00000" pt_clust_8="13000.00000" pt_clust_9="21.71966"></scales>
<clustering>
<clus scale="   21.720">  1  9  2 -1</clus>
<clus scale="   70.204">  5  6 -1 -1</clus>
<clus scale="   71.892">  2  5  1 -1</clus>
<clus scale="   93.397">  7  8 -1 -1</clus>
<clus scale="   71.892">  2  5  1 -1</clus>
</clustering>
</event>
<event>
 9    1  0.1973774E-005  0.1127715E+03  0.7546771E-02  0.1260060E+00
          1   -1    0    0  502    0  0.00000000000E+00  0.00000000000E+00  0.78510215150E+02  0.78510215150E+02  0.00000000000E+00 0. -1.
         -2   -1    0    0    0  501 -0.00000000000E+00 -0.00000000000E+00 -0.27571376282E+03  0.27571376282E+03  0.00000000000E+00 0.  1.
         23    2    1    2    0    0 -0.47187986987E+02  0.59227743324E+02 -0.19419601896E+03  0.22720360829E+03  0.90414347015E+02 0.  0.
        -24    2    1    2    0    0  0.27145305832E+02 -0.60145340079E+02  0.10646637610E+02  0.10275130893E+03  0.78039419736E+02 0.  0.
         11    1    4    4    0    0  0.47415257644E+02 -0.43556294305E+02  0.29156165978E+02  0.70678422772E+02  0.00000000000E+00 0. -1.
        -12    1    4    4    0    0 -0.20269951812E+02 -0.16589045774E+02 -0.18509528369E+02  0.32072886159E+02  0.00000000000E+00 0.  1.
        -11    1    3    3    0    0 -0.28517997538E+02  0.32438857212E+02 -0.16031045907E+02  0.46071141441E+02  0.00000000000E+00 0. -1.
         11    1    3    3    0    0 -0.18669989449E+02  0.26788886113E+02 -0.17816497305E+03  0.18113246685E+03  0.00000000000E+00 0.  1.
         21    1    1    2  502  501  0.20042681155E+02  0.91759675455E+00 -0.13654166324E+02  0.24269060750E+02  0.00000000000E+00 0. -1.
<scales pt_clust_5="13000.00000" pt_clust_6="13000.00000" pt_clust_7="13000.00000" pt_clust_8="13000.00000" pt_clust_9="20.06367"></scales>
<clustering>
<clus scale="   20.064">  2  9  1 -1</clus>
<clus scale="   78.039">  5  6 -1 -1</clus>
<clus scale="   90.414">  7  8 -1 -1</clus>
<clus scale="  103.115">  1  5  2 -1</clus>
<clus scale="  103.115">  1  5  2 -1</clus>
</clustering>
</event>
<event>
 9    1  0.1973774E-005  0.1216909E+03  0.7546771E-02  0.1243291E+00
          1   -1    0    0  502    0  0.00000000000E+00  0.00000000000E+00  0.62249484838E+03  0.62249484838E+03  0.00000000000E+00 0. -1.
         -2   -1    0    0    0  501 -0.00000000000E+00 -0.00000000000E+00 -0.16003602509E+03  0.16003602509E+03  0.00000000000E+00 0.  1.
         23    2    1    2    0    0  0.85175577095E+02  0.43696683252E+01 -0.11499143096E+03  0.16879006539E+03  0.89404049392E+02 0.  0.
        -24    2    1    2    0    0 -0.58646274110E+02  0.64066942701E+02  0.22740657208E+03  0.25608461413E+03  0.79508628170E+02 0.  0.
         13    1    4    4    0    0 -0.54443354467E+02  0.23841041139E+02  0.19618650984E+03  0.20499175772E+03  0.00000000000E+00 0. -1.
        -14    1    4    4    0    0 -0.42029196434E+01  0.40225901561E+02  0.31220062238E+02  0.51092856410E+02  0.00000000000E+00 0.  1.
        -11    1    3    3    0    0  0.25885638427E+01 -0.30324445736E+02 -0.13138159102E+02  0.33149417741E+02  0.00000000000E+00 0. -1.
         11    1    3    3    0    0  0.82587013252E+02  0.34694114061E+02 -0.10185327185E+03  0.13564064765E+03  0.00000000000E+00 0.  1.
         21    1    1    2  502  501 -0.26529302984E+02 -0.68436611026E+02  0.35004368217E+03  0.35765619395E+03  0.00000000000E+00 0. -1.
<scales pt_clust_5="13000.00000" pt_clust_6="13000.00000" pt_clust_7="13000.00000" pt_clust_8="13000.00000" pt_clust_9="73.39873"></scales>
<clustering>
<clus scale="   73.399">  1  9  2 -1</clus>
<clus scale="   79.509">  5  6 -1 -1</clus>
<clus scale="   89.404">  7  8 -1 -1</clus>
<clus scale="  114.618">  1  5  2 -1</clus>
<clus scale="   73.399">  1  5  2 -1</clus>
</clustering>
</event>
<event>
 9    1  0.1973774E-005  0.1133667E+03  0.7546771E-02  0.1257863E+00
          1   -1    0    0  502    0  0.00000000000E+00  0.00000000000E+00  0.38523504791E+03  0.38523504791E+03  0.00000000000E+00 0. -1.
         -2   -1    0    0    0  501 -0.00000000000E+00 -0.00000000000E+00 -0.43063450504E+02  0.43063450504E+02  0.00000000000E+00 0.  1.
        -24    2    1    2    0    0  0.28376379461E+02  0.71378495315E+02  0.12676861029E+03  0.16890909554E+03  0.80993169447E+02 0.  0.
         23    2    1    2    0    0 -0.43599325975E+02 -0.44203890566E+02  0.14038108529E+03  0.17815835587E+03  0.90435974548E+02 0.  0.
         13    1    3    3    0    0  0.18981273625E+02  0.34112933211E+02  0.12442578393E+03  0.13040612205E+03  0.00000000000E+00 0. -1.
        -14    1    3    3    0    0  0.93951058361E+01  0.37265562104E+02  0.23428263610E+01  0.38502973495E+02  0.00000000000E+00 0.  1.
        -11    1    4    4    0    0  0.26590987866E+02 -0.21273198913E+02  0.60140329741E+02  0.69112147189E+02  0.00000000000E+00 0. -1.
         11    1    4    4    0    0 -0.70190313841E+02 -0.22930691653E+02  0.80240755554E+02  0.10904620869E+03  0.00000000000E+00 0.  1.
         21    1    1    2  502  501  0.15222946514E+02 -0.27174604749E+02  0.75021901813E+02  0.81231046992E+02  0.00000000000E+00 0. -1.
<scales pt_clust_5="13000.00000" pt_clust_6="13000.00000" pt_clust_7="13000.00000" pt_clust_8="13000.00000" pt_clust_9="31.14799"></scales>
<clustering>
<clus scale="   31.148">  1  9  2 -1</clus>
<clus scale="   80.993">  5  6 -1 -1</clus>
<clus scale="   90.436">  7  8 -1 -1</clus>
<clus scale="  105.987">  2  5  1 -1</clus>
<clus scale="   31.148">  1  5  2 -1</clus>
</clustering>
</event>
<event>
 9    1  0.1973774E-005  0.1237647E+03  0.7546771E-02  0.1244213E+00
         -2   -1    0    0    0  501 -0.00000000000E+00  0.00000000000E+00  0.12642365893E+03  0.12642365893E+03  0.00000000000E+00 0.  1.
          1   -1    0    0  502    0  0.00000000000E+00 -0.00000000000E+00 -0.24085657580E+03  0.24085657580E+03  0.00000000000E+00 0. -1.
        -24    2    1    2    0    0  0.49921299159E+02  0.46303884608E+02  0.62821848063E+02  0.12320703399E+03  0.81223166587E+02 0.  0.
         23    2    1    2    0    0 -0.79039675987E+02 -0.26509142754E+02 -0.13144831678E+03  0.18629827221E+03  0.10236396444E+03 0.  0.
         13    1    3    3    0    0 -0.13203648335E+02  0.29545578717E+02 -0.32078307283E+00  0.32363257760E+02  0.00000000000E+00 0. -1.
        -14    1    3    3    0    0  0.63124947494E+02  0.16758305891E+02  0.63142631136E+02  0.90843776228E+02  0.00000000000E+00 0.  1.
        -13    1    4    4    0    0  0.15598236430E+02 -0.14303363394E+02 -0.69209390541E+02  0.72372860404E+02  0.00000000000E+00 0. -1.
         13    1    4    4    0    0 -0.94637912417E+02 -0.12205779360E+02 -0.62238926243E+02  0.11392541181E+03  0.00000000000E+00 0.  1.
         21    1    1    2  502  501  0.29118376827E+02 -0.19794741854E+02 -0.45806448154E+02  0.57774928530E+02  0.00000000000E+00 0.  1.
<scales pt_clust_5="13000.00000" pt_clust_6="13000.00000" pt_clust_7="13000.00000" pt_clust_8="13000.00000" pt_clust_9="35.20954"></scales>
<clustering>
<clus scale="   35.210">  2  9  1 -1</clus>
<clus scale="   81.223">  5  6 -1 -1</clus>
<clus scale="  102.364">  7  8 -1 -1</clus>
<clus scale="  106.942">  1  5  2 -1</clus>
<clus scale="   35.210">  2  5  1 -1</clus>
</clustering>
</event>
<event>
 9    1  0.1973774E-005  0.9728670E+02  0.7546771E-02  0.1294688E+00
          1   -1    0    0  502    0  0.00000000000E+00  0.00000000000E+00  0.29323769965E+03  0.29323769965E+03  0.00000000000E+00 0. -1.
         -2   -1    0    0    0  501 -0.00000000000E+00 -0.00000000000E+00 -0.11268245471E+03  0.11268245471E+03  0.00000000000E+00 0.  1.
        -24    2    1    2    0    0  0.13323919041E+02  0.21175550682E+02 -0.67820076234E+02  0.10621884176E+03  0.77826401944E+02 0.  0.
         23    2    1    2    0    0 -0.29757649388E+02 -0.62559025737E+02  0.21411428510E+03  0.24351876999E+03  0.93044692773E+02 0.  0.
         13    1    3    3    0    0  0.31996134492E+02 -0.10818940448E+02 -0.62285864147E+01  0.34345267266E+02  0.00000000000E+00 0. -1.
        -14    1    3    3    0    0 -0.18672215452E+02  0.31994491130E+02 -0.61591489820E+02  0.71873574495E+02  0.00000000000E+00 0.  1.
        -13    1    4    4    0    0 -0.45643178723E+02 -0.38869759471E+02  0.20498328038E+03  0.21357037060E+03  0.00000000000E+00 0. -1.
         13    1    4    4    0    0  0.15885529335E+02 -0.23689266267E+02  0.91310047273E+01  0.29948399387E+02  0.00000000000E+00 0.  1.
         21    1    1    2  502  501  0.16433730347E+02  0.41383475055E+02  0.34261036077E+02  0.56182542608E+02  0.00000000000E+00 0.  1.
<scales pt_clust_5="13000.00000" pt_clust_6="13000.00000" pt_clust_7="13000.00000" pt_clust_8="13000.00000" pt_clust_9="44.52706"></scales>
<clustering>
<clus scale="   44.527">  1  9  2 -1</clus>
<clus scale="   77.826">  5  6 -1 -1</clus>
<clus scale="   82.851">  2  5  1 -1</clus>
<clus scale="   93.045">  7  8 -1 -1</clus>
<clus scale="   44.527">  1  5  2 -1</clus>
</clustering>
</event>
<event>
 9    1  0.1973774E-005  0.1338907E+03  0.7546771E-02  0.1226178E+00
          1   -1    0    0  502    0  0.00000000000E+00  0.00000000000E+00  0.99637874886E+02  0.99637874886E+02  0.00000000000E+00 0. -1.
         -2   -1    0    0    0  501 -0.00000000000E+00 -0.00000000000E+00 -0.33768936899E+03  0.33768936899E+03  0.00000000000E+00 0.  1.
        -24    2    1    2    0    0 -0.45088441485E+02  0.85139128910E+02 -0.24211539566E+03  0.27059443232E+03  0.72937254937E+02 0.  0.
         23    2    1    2    0    0  0.31956468180E+02 -0.10402194254E+03  0.11799601638E+02  0.14246657104E+03  0.91190530628E+02 0.  0.
         13    1    3    3    0    0 -0.29881714087E+02  0.26724525484E+02 -0.30037037331E+02  0.50093320021E+02  0.00000000000E+00 0. -1.
        -14    1    3    3    0    0 -0.15206727397E+02  0.58414603426E+02 -0.21207835833E+03  0.22050111230E+03  0.00000000000E+00 0.  1.
        -13    1    4    4    0    0  0.29908958507E+02 -0.68104056425E+02 -0.36004119657E+02  0.82637793610E+02  0.00000000000E+00 0.  1.
         13    1    4    4    0    0  0.20475096730E+01 -0.35917886114E+02  0.47803721295E+02  0.59828777427E+02  0.00000000000E+00 0. -1.
         21    1    1    2  502  501  0.13131973305E+02  0.18882813629E+02 -0.77357000811E+01  0.24266240524E+02  0.00000000000E+00 0. -1.
<scales pt_clust_5="13000.00000" pt_clust_6="13000.00000" pt_clust_7="13000.00000" pt_clust_8="13000.00000" pt_clust_9="23.00020"></scales>
<clustering>
<clus scale="   23.000">  1  9  2 -1</clus>
<clus scale="   72.937">  5  6 -1 -1</clus>
<clus scale="   91.191">  7  8 -1 -1</clus>
<clus scale="  122.192">  2  5  1 -1</clus>
<clus scale="   23.000">  1  5  2 -1</clus>
</clustering>
</event>
<event>
 9    1  0.1973774E-005  0.1249487E+03  0.7546771E-02  0.1236677E+00
         -4   -1    0    0    0  501 -0.00000000000E+00  0.00000000000E+00  0.62942436028E+03  0.62942436028E+03  0.00000000000E+00 0.  1.
          3   -1    0    0  502    0  0.00000000000E+00 -0.00000000000E+00 -0.48668788145E+02  0.48668788145E+02  0.00000000000E+00 0. -1.
        -24    2    1    2    0    0  0.45438095261E+02  0.75693639033E+02  0.45772255757E+03  0.47291447986E+03  0.79649344389E+02 0.  0.
         23    2    1    2    0    0 -0.33430564574E+02 -0.10053588320E+03  0.10825899366E+03  0.17388027272E+03  0.85377239794E+02 0.  0.
         11    1    3    3    0    0 -0.13510199335E+02  0.54675741002E+02  0.21759961079E+03  0.22476999968E+03  0.00000000000E+00 0. -1.
        -12    1    3    3    0    0  0.58948294596E+02  0.21017898032E+02  0.24012294677E+03  0.24814448017E+03  0.00000000000E+00 0.  1.
        -11    1    4    4    0    0  0.87190377735E+01 -0.24419763226E+02  0.77293811801E+02  0.81527172148E+02  0.00000000000E+00 0.  1.
         11    1    4    4    0    0 -0.42149602348E+02 -0.76116119976E+02  0.30965181862E+02  0.92353100576E+02  0.00000000000E+00 0. -1.
         21    1    1    2  502  501 -0.12007530687E+02  0.24842244169E+02  0.14774020903E+02  0.31298395841E+02  0.00000000000E+00 0.  1.
<scales pt_clust_5="13000.00000" pt_clust_6="13000.00000" pt_clust_7="13000.00000" pt_clust_8="13000.00000" pt_clust_9="27.59199"></scales>
<clustering>
<clus scale="   27.592">  2  9  1 -1</clus>
<clus scale="   79.649">  5  6 -1 -1</clus>
<clus scale="   85.377">  7  8 -1 -1</clus>
<clus scale="  121.107">  1  5  2 -1</clus>
<clus scale="   27.592">  2  5  1 -1</clus>
</clustering>
</event>
<event>
 9    1  0.1973774E-005  0.1239520E+03  0.7546771E-02  0.1241557E+00
          1   -1    0    0  502    0  0.00000000000E+00  0.00000000000E+00  0.17115631624E+03  0.17115631624E+03  0.00000000000E+00 0. -1.
         -2   -1    0    0    0  501 -0.00000000000E+00 -0.00000000000E+00 -0.13186530618E+03  0.13186530618E+03  0.00000000000E+00 0.  1.
        -24    2    1    2    0    0  0.64118495661E+02 -0.42407868023E+02 -0.23108436916E+02  0.11056558481E+03  0.76033807819E+02 0.  0.
         23    2    1    2    0    0 -0.93125540545E+02  0.22869970130E+02  0.15607221177E+02  0.13403814223E+03  0.92343036462E+02 0.  0.
         13    1    3    3    0    0  0.42517897973E+01 -0.46004956362E+02 -0.20470539092E+02  0.50532926860E+02  0.00000000000E+00 0. -1.
        -14    1    3    3    0    0  0.59866705864E+02  0.35970883393E+01 -0.26378978246E+01  0.60032657949E+02  0.00000000000E+00 0.  1.
        -11    1    4    4    0    0 -0.22592697885E+02  0.40529156547E+02  0.35766082610E+02  0.58585452063E+02  0.00000000000E+00 0. -1.
         11    1    4    4    0    0 -0.70532842660E+02 -0.17659186417E+02 -0.20158861432E+02  0.75452690163E+02  0.00000000000E+00 0.  1.
         21    1    1    2  502  501  0.29007044884E+02  0.19537897892E+02  0.46792225792E+02  0.58417895387E+02  0.00000000000E+00 0. -1.
<scales pt_clust_5="13000.00000" pt_clust_6="13000.00000" pt_clust_7="13000.00000" pt_clust_8="13000.00000" pt_clust_9="34.97339"></scales>
<clustering>
<clus scale="   34.973">  1  9  2 -1</clus>
<clus scale="   76.034">  5  6 -1 -1</clus>
<clus scale="   92.343">  7  8 -1 -1</clus>
<clus scale="  112.330">  2  5  1 -1</clus>
<clus scale="   34.973">  1  5  2 -1</clus>
</clustering>
</event>
<event>
 9    1  0.1973774E-005  0.1511979E+03  0.7546771E-02  0.1218261E+00
          1   -1    0    0  502    0  0.00000000000E+00  0.00000000000E+00  0.16179934854E+04  0.16179934854E+04  0.00000000000E+00 0. -1.
         -2   -1    0    0    0  501 -0.00000000000E+00 -0.00000000000E+00 -0.65213018369E+02  0.65213018369E+02  0.00000000000E+00 0.  1.
         23    2    1    2    0    0 -0.33465455590E+02  0.32220389687E+02 -0.45460999785E+01  0.10023626093E+03  0.88704851900E+02 0.  0.
        -24    2    1    2    0    0 -0.78069073011E+02  0.62966465184E+02  0.54441607052E+03  0.55950155143E+03  0.81200814690E+02 0.  0.
         13    1    4    4    0    0 -0.61711480652E+02 -0.76188232911E+00  0.30672995038E+03  0.31287721196E+03  0.00000000000E+00 0. -1.
        -14    1    4    4    0    0 -0.16357592359E+02  0.63728347513E+02  0.23768612015E+03  0.24662433946E+03  0.00000000000E+00 0.  1.
        -13    1    3    3    0    0 -0.42701362795E+02  0.58201344790E+02  0.58966806450E+00  0.72188299802E+02  0.00000000000E+00 0.  1.
         13    1    3    3    0    0  0.92359072053E+01 -0.25980955103E+02 -0.51357680430E+01  0.28047961127E+02  0.00000000000E+00 0. -1.
         21    1    1    2  502  501  0.11153452860E+03 -0.95186854870E+02  0.10129104965E+04  0.10234686915E+04  0.00000000000E+00 0. -1.
<scales pt_clust_5="13000.00000" pt_clust_6="13000.00000" pt_clust_7="13000.00000" pt_clust_8="13000.00000" pt_clust_9="127.54309"></scales>
<clustering>
<clus scale="   81.201">  5  6 -1 -1</clus>
<clus scale="   88.705">  7  8 -1 -1</clus>
<clus scale="  100.133">  2  7  1 -1</clus>
<clus scale="  127.543">  1  9  2 -1</clus>
<clus scale="  127.543">  1  5  2 -1</clus>
</clustering>
</event>
<event>
 9    1  0.1973774E-005  0.9367238E+02  0.7546771E-02  0.1298703E+00
          1   -1    0    0  502    0  0.00000000000E+00  0.00000000000E+00  0.22494832816E+03  0.22494832816E+03  0.00000000000E+00 0. -1.
         -2   -1    0    0    0  501 -0.00000000000E+00 -0.00000000000E+00 -0.99048962118E+02  0.99048962118E+02  0.00000000000E+00 0.  1.
        -24    2    1    2    0    0  0.15645717832E+02  0.28668336706E+02 -0.60212892376E+02  0.10590432370E+03  0.80768009473E+02 0.  0.
         23    2    1    2    0    0 -0.11345033050E+02 -0.56136478028E+01  0.15609355907E+03  0.17999917600E+03  0.88737147584E+02 0.  0.
         13    1    3    3    0    0  0.32160556518E+02 -0.98078359148E+01 -0.13258750991E+01  0.33648967082E+02  0.00000000000E+00 0. -1.
        -14    1    3    3    0    0 -0.16514838686E+02  0.38476172621E+02 -0.58887017277E+02  0.72255356619E+02  0.00000000000E+00 0.  1.
        -13    1    4    4    0    0 -0.29299244599E+02  0.29008002237E+02  0.39664215753E+02  0.57211536766E+02  0.00000000000E+00 0.  1.
         13    1    4    4    0    0  0.17954211548E+02 -0.34621650040E+02  0.11642934331E+03  0.12278763923E+03  0.00000000000E+00 0. -1.
         21    1    1    2  502  501 -0.43006847819E+01 -0.23054688903E+02  0.30018699355E+02  0.38093790583E+02  0.00000000000E+00 0. -1.
<scales pt_clust_5="13000.00000" pt_clust_6="13000.00000" pt_clust_7="13000.00000" pt_clust_8="13000.00000" pt_clust_9="23.45239"></scales>
<clustering>
<clus scale="   23.452">  1  9  2 -1</clus>
<clus scale="   80.768">  5  6 -1 -1</clus>
<clus scale="   86.161">  2  5  1 -1</clus>
<clus scale="   88.737">  7  8 -1 -1</clus>
<clus scale="   23.452">  1  5  2 -1</clus>
</clustering>
</event>
<event>
 9    1  0.1973774E-005  0.1182582E+03  0.7546771E-02  0.1249644E+00
         -2   -1    0    0    0  501 -0.00000000000E+00  0.00000000000E+00  0.35818840137E+02  0.35818840137E+02  0.00000000000E+00 0.  1.
          1   -1    0    0  502    0  0.00000000000E+00 -0.00000000000E+00 -0.74193614926E+03  0.74193614926E+03  0.00000000000E+00 0. -1.
        -24    2    1    2    0    0 -0.42152978392E+01 -0.78319094366E+02 -0.82963527568E+02  0.13960985943E+03  0.80351208231E+02 0.  0.
         23    2    1    2    0    0 -0.13704681773E+02  0.61032840426E+02 -0.46299727317E+03  0.47606475663E+03  0.91424021068E+02 0.  0.
         11    1    3    3    0    0  0.75889020167E+01 -0.92508533689E+02 -0.75700639242E+02  0.11977481797E+03  0.00000000000E+00 0. -1.
        -12    1    3    3    0    0 -0.11804199856E+02  0.14189439323E+02 -0.72628883260E+01  0.19835041451E+02  0.00000000000E+00 0.  1.
        -11    1    4    4    0    0  0.37412897107E+02  0.25211937875E+02 -0.25285172114E+03  0.25684501079E+03  0.00000000000E+00 0. -1.
         11    1    4    4    0    0 -0.51117578880E+02  0.35820902552E+02 -0.21014555203E+03  0.21921974584E+03  0.00000000000E+00 0.  1.
         21    1    1    2  502  501  0.17919979613E+02  0.17286253939E+02 -0.16015650838E+03  0.16208037334E+03  0.00000000000E+00 0. -1.
<scales pt_clust_5="13000.00000" pt_clust_6="13000.00000" pt_clust_7="13000.00000" pt_clust_8="13000.00000" pt_clust_9="24.89860"></scales>
<clustering>
<clus scale="   24.899">  2  9  1 -1</clus>
<clus scale="   80.351">  5  6 -1 -1</clus>
<clus scale="   91.424">  7  8 -1 -1</clus>
<clus scale="  109.923">  1  5  2 -1</clus>
<clus scale="   24.899">  2  5  1 -1</clus>
</clustering>
</event>
<event>
 9    1  0.1973774E-005  0.2227958E+03  0.7546771E-02  0.1132639E+00
          1   -1    0    0  502    0  0.00000000000E+00  0.00000000000E+00  0.14189880954E+04  0.14189880954E+04  0.00000000000E+00 0. -1.
         -2   -1    0    0    0  501 -0.00000000000E+00 -0.00000000000E+00 -0.28666135418E+03  0.28666135418E+03  0.00000000000E+00 0.  1.
        -24    2    1    2    0    0  0.95475878166E+02 -0.18019770983E+03 -0.22721708146E+03  0.31574244890E+03  0.80491204444E+02 0.  0.
         23    2    1    2    0    0 -0.25762404822E+02  0.19267316795E+03  0.92715080426E+03  0.95175254412E+03  0.91856628787E+02 0.  0.
         13    1    3    3    0    0  0.15713140135E+02 -0.10377752140E+03 -0.81491863796E+02  0.13288190466E+03  0.00000000000E+00 0. -1.
        -14    1    3    3    0    0  0.79762738031E+02 -0.76420188426E+02 -0.14572521766E+03  0.18286054424E+03  0.00000000000E+00 0.  1.
        -13    1    4    4    0    0 -0.71077151116E+01  0.13244885107E+03  0.78665487140E+03  0.79775880093E+03  0.00000000000E+00 0. -1.
         13    1    4    4    0    0 -0.18654689710E+02  0.60224316880E+02  0.14049593285E+03  0.15399374319E+03  0.00000000000E+00 0.  1.
         21    1    1    2  502  501 -0.69713473344E+02 -0.12475458117E+02  0.43239301840E+03  0.43815445653E+03  0.00000000000E+00 0.  1.
<scales pt_clust_5="13000.00000" pt_clust_6="13000.00000" pt_clust_7="13000.00000" pt_clust_8="13000.00000" pt_clust_9="70.82094"></scales>
<clustering>
<clus scale="   70.821">  1  9  2 -1</clus>
<clus scale="   80.491">  5  6 -1 -1</clus>
<clus scale="   91.857">  7  8 -1 -1</clus>
<clus scale="  218.356">  2  5  1 -1</clus>
<clus scale="   70.821">  1  5  2 -1</clus>
</clustering>
</event>
<event>
 9    1  0.1973774E-005  0.9055872E+02  0.7546771E-02  0.1306784E+00
          1   -1    0    0  502    0  0.00000000000E+00  0.00000000000E+00  0.21812969518E+03  0.21812969518E+03  0.00000000000E+00 0. -1.
         -2   -1    0    0    0  501 -0.00000000000E+00 -0.00000000000E+00 -0.15008645698E+03  0.15008645698E+03  0.00000000000E+00 0.  1.
         23    2    1    2    0    0  0.13636967721E+02  0.25690741527E+01 -0.10726090332E+03  0.14061798408E+03  0.89866284193E+02 0.  0.
        -24    2    1    2    0    0  0.16905262197E+02 -0.30031613591E+02  0.64598611844E+02  0.10951881687E+03  0.81447559150E+02 0.  0.
         11    1    4    4    0    0  0.55285377402E+01  0.26786794095E+02  0.79511008653E+01  0.28483628147E+02  0.00000000000E+00 0. -1.
        -12    1    4    4    0    0  0.11376724457E+02 -0.56818407686E+02  0.56647510979E+02  0.81035188724E+02  0.00000000000E+00 0.  1.
        -13    1    3    3    0    0 -0.10444194054E+02  0.30501406629E+02 -0.59252017842E+01  0.32779948322E+02  0.00000000000E+00 0. -1.
         13    1    3    3    0    0  0.24081161775E+02 -0.27932332477E+02 -0.10133570154E+03  0.10783803576E+03  0.00000000000E+00 0.  1.
         21    1    1    2  502  501 -0.30542229918E+02  0.27462539439E+02  0.11070552968E+03  0.11807935121E+03  0.00000000000E+00 0. -1.
<scales pt_clust_5="13000.00000" pt_clust_6="13000.00000" pt_clust_7="13000.00000" pt_clust_8="13000.00000" pt_clust_9="41.07334"></scales>
<clustering>
<clus scale="   41.073">  1  9  2 -1</clus>
<clus scale="   81.448">  5  6 -1 -1</clus>
<clus scale="   82.211">  1  5  2 -1</clus>
<clus scale="   89.866">  7  8 -1 -1</clus>
<clus scale="   41.073">  1  5  2 -1</clus>
</clustering>
</event>
<event>
 9    1  0.1973774E-005  0.1146645E+03  0.7546771E-02  0.1254916E+00
          1   -1    0    0  502    0  0.00000000000E+00  0.00000000000E+00  0.73937449850E+03  0.73937449850E+03  0.00000000000E+00 0. -1.
         -2   -1    0    0    0  501 -0.00000000000E+00 -0.00000000000E+00 -0.28915172595E+02  0.28915172595E+02  0.00000000000E+00 0.  1.
         23    2    1    2    0    0 -0.51805755538E+02 -0.28695426492E+01  0.22055903434E+03  0.24325177121E+03  0.88504609958E+02 0.  0.
        -24    2    1    2    0    0  0.96290985252E+02  0.34771421728E+02  0.29219390851E+03  0.31989287935E+03  0.80456003377E+02 0.  0.
         13    1    4    4    0    0  0.68261462434E+02  0.66243839709E+01  0.25960880072E+03  0.26851487692E+03  0.00000000000E+00 0. -1.
        -14    1    4    4    0    0  0.28029522818E+02  0.28147037757E+02  0.32585107785E+02  0.51378002426E+02  0.00000000000E+00 0.  1.
        -13    1    3    3    0    0 -0.55994282411E+02 -0.37607365844E+02  0.15138794738E+03  0.16573468025E+03  0.00000000000E+00 0. -1.
         13    1    3    3    0    0  0.41885268731E+01  0.34737823195E+02  0.69171086968E+02  0.77517090954E+02  0.00000000000E+00 0.  1.
         21    1    1    2  502  501 -0.44485229713E+02 -0.31901879078E+02  0.19770638306E+03  0.20514502054E+03  0.00000000000E+00 0. -1.
<scales pt_clust_5="13000.00000" pt_clust_6="13000.00000" pt_clust_7="13000.00000" pt_clust_8="13000.00000" pt_clust_9="54.74181"></scales>
<clustering>
<clus scale="   54.742">  1  9  2 -1</clus>
<clus scale="   80.456">  5  6 -1 -1</clus>
<clus scale="   88.505">  7  8 -1 -1</clus>
<clus scale="  108.573">  1  5  2 -1</clus>
<clus scale="   54.742">  1  5  2 -1</clus>
</clustering>
</event>
<event>
 9    1  0.1973774E-005  0.1644901E+03  0.7546771E-02  0.1206675E+00
         -4   -1    0    0    0  501 -0.00000000000E+00  0.00000000000E+00  0.53019038389E+03  0.53019038389E+03  0.00000000000E+00 0.  1.
          3   -1    0    0  502    0  0.00000000000E+00 -0.00000000000E+00 -0.51830443168E+03  0.51830443168E+03  0.00000000000E+00 0. -1.
        -24    2    1    2    0    0 -0.14267678680E+03  0.82901699688E+01  0.45811445344E+03  0.48652325483E+03  0.80066426387E+02 0.  0.
         23    2    1    2    0    0 -0.26473192947E+02 -0.27969821098E+02 -0.17977583838E+02  0.10110514565E+03  0.91738302355E+02 0.  0.
         11    1    3    3    0    0 -0.10218112020E+03 -0.18942905681E+02  0.21804443819E+03  0.24154335434E+03  0.00000000000E+00 0. -1.
        -12    1    3    3    0    0 -0.40495666594E+02  0.27233075650E+02  0.24007001525E+03  0.24497990049E+03  0.00000000000E+00 0.  1.
        -13    1    4    4    0    0 -0.54526542262E+02 -0.53151098067E+01  0.97150258282E+01  0.55639697431E+02  0.00000000000E+00 0.  1.
         13    1    4    4    0    0  0.28053349315E+02 -0.22654711292E+02 -0.27692609667E+02  0.45465448218E+02  0.00000000000E+00 0. -1.
         21    1    1    2  502  501  0.16914997975E+03  0.19679651130E+02 -0.42825091738E+03  0.46086641509E+03  0.00000000000E+00 0. -1.
<scales pt_clust_5="13000.00000" pt_clust_6="13000.00000" pt_clust_7="13000.00000" pt_clust_8="13000.00000" pt_clust_9="143.68839"></scales>
<clustering>
<clus scale="   80.066">  5  6 -1 -1</clus>
<clus scale="   91.738">  7  8 -1 -1</clus>
<clus scale="   99.494">  2  7  1 -1</clus>
<clus scale="  143.688">  2  9  1 -1</clus>
<clus scale="   99.494">  2  5  1 -1</clus>
</clustering>
</event>
<event>
 9    1  0.1973774E-005  0.1723408E+03  0.7546771E-02  0.1176230E+00
         -2   -1    0    0    0  501 -0.00000000000E+00  0.00000000000E+00  0.46068173495E+02  0.46068173495E+02  0.00000000000E+00 0.  1.
          1   -1    0    0  502    0  0.00000000000E+00 -0.00000000000E+00 -0.74673140425E+03  0.74673140425E+03  0.00000000000E+00 0. -1.
        -24    2    1    2    0    0 -0.10457532059E+03  0.89863965807E+02 -0.27957147798E+03  0.32258676278E+03  0.83008904290E+02 0.  0.
         23    2    1    2    0    0  0.12253997677E+03 -0.10108072143E+03 -0.33255175614E+03  0.37917504543E+03  0.89161013993E+02 0.  0.
         11    1    3    3    0    0 -0.33129497153E+02  0.60677090856E+02 -0.20054399217E+03  0.21212535381E+03  0.00000000000E+00 0. -1.
        -12    1    3    3    0    0 -0.71445823438E+02  0.29186874951E+02 -0.79027485815E+02  0.11046140896E+03  0.00000000000E+00 0.  1.
        -13    1    4    4    0    0  0.53284591034E+02 -0.98937626653E+02 -0.19186154056E+03  0.22234826817E+03  0.00000000000E+00 0.  1.
         13    1    4    4    0    0  0.69255385733E+02 -0.21430947723E+01 -0.14069021558E+03  0.15682677726E+03  0.00000000000E+00 0. -1.
         21    1    1    2  502  501 -0.17964656176E+02  0.11216755618E+02 -0.88539996631E+02  0.91037769533E+02  0.00000000000E+00 0.  1.
<scales pt_clust_5="13000.00000" pt_clust_6="13000.00000" pt_clust_7="13000.00000" pt_clust_8="13000.00000" pt_clust_9="21.17887"></scales>
<clustering>
<clus scale="   21.179">  2  9  1 -1</clus>
<clus scale="   83.009">  5  6 -1 -1</clus>
<clus scale="   89.161">  7  8 -1 -1</clus>
<clus scale="  169.240">  1  5  2 -1</clus>
<clus scale="   21.179">  2  5  1 -1</clus>
</clustering>
</event>
<event>
 9    1  0.1973774E-005  0.1246017E+03  0.7546771E-02  0.1238845E+00
          1   -1    0    0  502    0  0.00000000000E+00  0.00000000000E+00  0.16469225848E+03  0.16469225848E+03  0.00000000000E+00 0. -1.
         -2   -1    0    0    0  501 -0.00000000000E+00 -0.00000000000E+00 -0.13679725493E+03  0.13679725493E+03  0.00000000000E+00 0.  1.
         23    2    1    2    0    0 -0.73039118247E+02 -0.83544824197E+01 -0.37329543439E+02  0.12393362261E+03  0.92528578441E+02 0.  0.
        -24    2    1    2    0    0  0.10351380047E+03  0.14913096485E+02  0.44076070368E+02  0.13988654334E+03  0.81780423654E+02 0.  0.
         13    1    4    4    0    0  0.49275715710E+02  0.47835490033E+02  0.16060027338E+02  0.70528396717E+02  0.00000000000E+00 0. -1.
        -14    1    4    4    0    0  0.54238084760E+02 -0.32922393548E+02  0.28016043030E+02  0.69358146619E+02  0.00000000000E+00 0.  1.
        -13    1    3    3    0    0 -0.40697122127E+02  0.63542171016E+01 -0.66324751710E+02  0.78074352472E+02  0.00000000000E+00 0.  1.
         13    1    3    3    0    0 -0.32341996119E+02 -0.14708699521E+02  0.28995208272E+02  0.45859270135E+02  0.00000000000E+00 0. -1.
         21    1    1    2  502  501 -0.30474682224E+02 -0.65586140651E+01  0.21148476625E+02  0.37669347468E+02  0.00000000000E+00 0.  1.
<scales pt_clust_5="13000.00000" pt_clust_6="13000.00000" pt_clust_7="13000.00000" pt_clust_8="13000.00000" pt_clust_9="31.17245"></scales>
<clustering>
<clus scale="   31.172">  1  9  2 -1</clus>
<clus scale="   81.780">  5  6 -1 -1</clus>
<clus scale="   92.529">  7  8 -1 -1</clus>
<clus scale="  116.842">  1  5  2 -1</clus>
<clus scale="   31.172">  1  5  2 -1</clus>
</clustering>
</event>
<event>
 9    1  0.1973774E-005  0.9658052E+02  0.7546771E-02  0.1294559E+00
          3   -1    0    0  502    0  0.00000000000E+00  0.00000000000E+00  0.22451258862E+03  0.22451258862E+03  0.00000000000E+00 0. -1.
         -4   -1    0    0    0  501 -0.00000000000E+00 -0.00000000000E+00 -0.28826247458E+03  0.28826247458E+03  0.00000000000E+00 0.  1.
         23    2    1    2    0    0  0.68372804548E+01 -0.28711344940E+02 -0.26488923473E+03  0.28205301581E+03  0.92284924643E+02 0.  0.
        -24    2    1    2    0    0 -0.91240770349E+01  0.35336888753E+01  0.18193668404E+03  0.19897482491E+03  0.79964293325E+02 0.  0.
         13    1    4    4    0    0 -0.32793241543E+02 -0.62676269698E+01  0.16481290706E+03  0.16816056069E+03  0.00000000000E+00 0. -1.
        -14    1    4    4    0    0  0.23669164508E+02  0.98013158451E+01  0.17123776980E+02  0.30814264211E+02  0.00000000000E+00 0.  1.
        -13    1    3    3    0    0 -0.15219522533E+02  0.29766191105E+02 -0.11198669737E+03  0.11687035718E+03  0.00000000000E+00 0.  1.
         13    1    3    3    0    0  0.22056802988E+02 -0.58477536045E+02 -0.15290253736E+03  0.16518265863E+03  0.00000000000E+00 0. -1.
         21    1    1    2  502  501  0.22867965802E+01  0.25177656065E+02  0.19202664719E+02  0.31747222490E+02  0.00000000000E+00 0. -1.
<scales pt_clust_5="13000.00000" pt_clust_6="13000.00000" pt_clust_7="13000.00000" pt_clust_8="13000.00000" pt_clust_9="25.28129"></scales>
<clustering>
<clus scale="   25.281">  1  9  2 -1</clus>
<clus scale="   79.964">  5  6 -1 -1</clus>
<clus scale="   84.886">  1  5  2 -1</clus>
<clus scale="   92.285">  7  8 -1 -1</clus>
<clus scale="   25.281">  1  5  2 -1</clus>
</clustering>
</event>
<event>
 9    1  0.1973774E-005  0.1198423E+03  0.7546771E-02  0.1245019E+00
          1   -1    0    0  502    0  0.00000000000E+00  0.00000000000E+00  0.74915370317E+03  0.74915370317E+03  0.00000000000E+00 0. -1.
         -2   -1    0    0    0  501 -0.00000000000E+00 -0.00000000000E+00 -0.31320071128E+02  0.31320071128E+02  0.00000000000E+00 0.  1.
        -24    2    1    2    0    0  0.59553151725E+02  0.56017726637E+02  0.12454187828E+03  0.16895091763E+03  0.79681676345E+02 0.  0.
         23    2    1    2    0    0 -0.79808226305E+02 -0.49452369168E+02  0.50255766986E+03  0.51832389773E+03  0.85326207121E+02 0.  0.
         13    1    3    3    0    0  0.73255397390E+02  0.20904318388E+02  0.77510857607E+02  0.10867969829E+03  0.00000000000E+00 0. -1.
        -14    1    3    3    0    0 -0.13702245665E+02  0.35113408249E+02  0.47031020672E+02  0.60271219338E+02  0.00000000000E+00 0.  1.
        -13    1    4    4    0    0 -0.26098715958E+02  0.24234839853E+02  0.14892057877E+03  0.15312024432E+03  0.00000000000E+00 0.  1.
         13    1    4    4    0    0 -0.53709510346E+02 -0.73687209021E+02  0.35363709108E+03  0.36520365341E+03  0.00000000000E+00 0. -1.
         21    1    1    2  502  501  0.20255074580E+02 -0.65653574688E+01  0.90734083908E+02  0.93198958940E+02  0.00000000000E+00 0.  1.
<scales pt_clust_5="13000.00000" pt_clust_6="13000.00000" pt_clust_7="13000.00000" pt_clust_8="13000.00000" pt_clust_9="21.29253"></scales>
<clustering>
<clus scale="   21.293">  1  9  2 -1</clus>
<clus scale="   79.682">  5  6 -1 -1</clus>
<clus scale="   85.326">  7  8 -1 -1</clus>
<clus scale="  115.891">  2  5  1 -1</clus>
<clus scale="   21.293">  1  5  2 -1</clus>
</clustering>
</event>
<event>
 9    1  0.1973774E-005  0.1324281E+03  0.7546771E-02  0.1238018E+00
          1   -1    0    0  502    0  0.00000000000E+00  0.00000000000E+00  0.13119242109E+03  0.13119242109E+03  0.00000000000E+00 0. -1.
         -2   -1    0    0    0  501 -0.00000000000E+00 -0.00000000000E+00 -0.41825052727E+03  0.41825052727E+03  0.00000000000E+00 0.  1.
         23    2    1    2    0    0 -0.47079090704E+02  0.45211648252E+01 -0.24185363547E+03  0.26132327993E+03  0.86947075466E+02 0.  0.
        -24    2    1    2    0    0 -0.19338359621E+02  0.99436239115E+02  0.43664482155E+02  0.13607983706E+03  0.79684360128E+02 0.  0.
         13    1    4    4    0    0  0.23708995444E+02  0.60853981920E+02  0.43138345257E+02  0.78270303513E+02  0.00000000000E+00 0. -1.
        -14    1    4    4    0    0 -0.43047355065E+02  0.38582257194E+02  0.52613689795E+00  0.57809533542E+02  0.00000000000E+00 0.  1.
        -11    1    3    3    0    0  0.21285081383E+02  0.19135181329E+02 -0.59431933552E+02  0.65964873832E+02  0.00000000000E+00 0. -1.
         11    1    3    3    0    0 -0.68364172087E+02 -0.14614016504E+02 -0.18242170192E+03  0.19535840610E+03  0.00000000000E+00 0.  1.
         21    1    1    2  502  501  0.66417450325E+02 -0.10395740394E+03 -0.88868952860E+02  0.15203983137E+03  0.00000000000E+00 0.  1.
<scales pt_clust_5="13000.00000" pt_clust_6="13000.00000" pt_clust_7="13000.00000" pt_clust_8="13000.00000" pt_clust_9="105.77153"></scales>
<clustering>
<clus scale="   79.684">  5  6 -1 -1</clus>
<clus scale="   86.947">  7  8 -1 -1</clus>
<clus scale="   98.978">  2  7  1 -1</clus>
<clus scale="  105.772">  2  9  1 -1</clus>
<clus scale="  132.428">  1  5  2 -1</clus>
</clustering>
</event>
<event>
 9    1  0.1973774E-005  0.1591904E+03  0.7546771E-02  0.1190336E+00
          1   -1    0    0  502    0  0.00000000000E+00  0.00000000000E+00  0.10196872740E+03  0.10196872740E+03  0.00000000000E+00 0. -1.
         -2   -1    0    0    0  501 -0.00000000000E+00 -0.00000000000E+00 -0.44001822248E+03  0.44001822248E+03  0.00000000000E+00 0.  1.
         23    2    1    2    0    0 -0.13904453737E+03 -0.15891708441E+02 -0.29087499136E+03  0.33537247744E+03  0.90997298091E+02 0.  0.
        -24    2    1    2    0    0  0.87936727402E+02  0.49703718540E+02 -0.23035678921E+02  0.14075140897E+03  0.95273233174E+02 0.  0.
         11    1    4    4    0    0  0.52233157330E+02  0.51823771834E+02  0.27746873488E+02  0.78637745645E+02  0.00000000000E+00 0. -1.
        -12    1    4    4    0    0  0.35703570072E+02 -0.21200532934E+01 -0.50782552409E+02  0.62113663320E+02  0.00000000000E+00 0.  1.
        -13    1    3    3    0    0 -0.49259970806E+02 -0.49323634621E+02 -0.10136351156E+03  0.12302002736E+03  0.00000000000E+00 0. -1.
         13    1    3    3    0    0 -0.89784566562E+02  0.33431926180E+02 -0.18951147980E+03  0.21235245008E+03  0.00000000000E+00 0.  1.
         21    1    1    2  502  501  0.51107809966E+02 -0.33812010100E+02 -0.24138824802E+02  0.65863063467E+02  0.00000000000E+00 0. -1.
<scales pt_clust_5="13000.00000" pt_clust_6="13000.00000" pt_clust_7="13000.00000" pt_clust_8="13000.00000" pt_clust_9="61.28018"></scales>
<clustering>
<clus scale="   61.280">  1  9  2 -1</clus>
<clus scale="   90.997">  7  8 -1 -1</clus>
<clus scale="   95.273">  5  6 -1 -1</clus>
<clus scale="  156.669">  2  7  1 -1</clus>
<clus scale="   61.280">  1  5  2 -1</clus>
</clustering>
</event>
<event>
 9    1  0.1973774E-005  0.1016572E+03  0.7546771E-02  0.1282400E+00
         -4   -1    0    0    0  501 -0.00000000000E+00  0.00000000000E+00  0.16013101026E+03  0.16013101026E+03  0.00000000000E+00 0.  1.
          3   -1    0    0  502    0  0.00000000000E+00 -0.00000000000E+00 -0.15535006427E+03  0.15535006427E+03  0.00000000000E+00 0. -1.
        -24    2    1    2    0    0 -0.30265731354E+01  0.43775396296E+02  0.11549751882E+03  0.14726303649E+03  0.80132887114E+02 0.  0.
         23    2    1    2    0    0  0.25253009089E+02 -0.43268839128E+02 -0.90510101151E+02  0.13817519274E+03  0.91599118833E+02 0.  0.
         13    1    3    3    0    0  0.36034884173E+01  0.36759643122E+02  0.60948315532E+01  0.37435323731E+02  0.00000000000E+00 0. -1.
        -14    1    3    3    0    0 -0.66300615527E+01  0.70157531741E+01  0.10940268727E+03  0.10982771276E+03  0.00000000000E+00 0.  1.
        -13    1    4    4    0    0  0.50771082487E+02 -0.34237523670E+02 -0.92609867277E+02  0.11102476463E+03  0.00000000000E+00 0. -1.
         13    1    4    4    0    0 -0.25518073398E+02 -0.90313154585E+01  0.20997661256E+01  0.27150428112E+02  0.00000000000E+00 0.  1.
         21    1    1    2  502  501 -0.22226435954E+02 -0.50655716755E+00 -0.20206471687E+02  0.30042845295E+02  0.00000000000E+00 0.  1.
<scales pt_clust_5="13000.00000" pt_clust_6="13000.00000" pt_clust_7="13000.00000" pt_clust_8="13000.00000" pt_clust_9="22.23221"></scales>
<clustering>
<clus scale="   22.232">  2  9  1 -1</clus>
<clus scale="   80.133">  5  6 -1 -1</clus>
<clus scale="   91.461">  1  5  2 -1</clus>
<clus scale="   91.599">  7  8 -1 -1</clus>
<clus scale="   22.232">  2  5  1 -1</clus>
</clustering>
</event>
<event>
 9    1  0.1973774E-005  0.9450299E+02  0.7546771E-02  0.1298891E+00
          1   -1    0    0  502    0  0.00000000000E+00  0.00000000000E+00  0.10366451566E+03  0.10366451566E+03  0.00000000000E+00 0. -1.
         -2   -1    0    0    0  501 -0.00000000000E+00 -0.00000000000E+00 -0.43423041352E+03  0.43423041352E+03  0.00000000000E+00 0.  1.
        -24    2    1    2    0    0  0.25278384483E+02  0.49422657232E+01 -0.36766302008E+03  0.37721149235E+03  0.80305609440E+02 0.  0.
         23    2    1    2    0    0 -0.67308597287E+01  0.16184669184E+02 -0.21497579533E+02  0.95693459697E+02  0.91585175185E+02 0.  0.
         13    1    3    3    0    0  0.81543110465E+01  0.19108043287E+02 -0.19995970657E+02  0.28834856501E+02  0.00000000000E+00 0. -1.
        -14    1    3    3    0    0  0.17124073437E+02 -0.14165777564E+02 -0.34766704943E+03  0.34837663585E+03  0.00000000000E+00 0.  1.
        -13    1    4    4    0    0 -0.49135964983E+02  0.11330302463E+02 -0.90277715799E+01  0.51227136055E+02  0.00000000000E+00 0. -1.
         13    1    4    4    0    0  0.42405105254E+02  0.48543667205E+01 -0.12469807953E+02  0.44466323642E+02  0.00000000000E+00 0.  1.
         21    1    1    2  502  501 -0.18547524754E+02 -0.21126934907E+02  0.58594701760E+02  0.64989977130E+02  0.00000000000E+00 0. -1.
<scales pt_clust_5="13000.00000" pt_clust_6="13000.00000" pt_clust_7="13000.00000" pt_clust_8="13000.00000" pt_clust_9="28.11331"></scales>
<clustering>
<clus scale="   28.113">  1  9  2 -1</clus>
<clus scale="   80.306">  5  6 -1 -1</clus>
<clus scale="   83.618">  2  5  1 -1</clus>
<clus scale="   91.585">  7  8 -1 -1</clus>
<clus scale="   28.113">  1  5  2 -1</clus>
</clustering>
</event>
<event>
 9    1  0.1973774E-005  0.1298163E+03  0.7546771E-02  0.1230328E+00
          1   -1    0    0  502    0  0.00000000000E+00  0.00000000000E+00  0.28826689642E+03  0.28826689642E+03  0.00000000000E+00 0. -1.
         -2   -1    0    0    0  501 -0.00000000000E+00 -0.00000000000E+00 -0.17583204462E+03  0.17583204462E+03  0.00000000000E+00 0.  1.
        -24    2    1    2    0    0 -0.10642983190E+02 -0.90116223004E+02 -0.12185735889E+03  0.17216290574E+03  0.80973103304E+02 0.  0.
         23    2    1    2    0    0 -0.10005175724E+02  0.10865193797E+03  0.16760802524E+03  0.21970931043E+03  0.90963639998E+02 0.  0.
         11    1    3    3    0    0 -0.18805056697E+02 -0.10095275633E+03 -0.86409430238E+02  0.13420759592E+03  0.00000000000E+00 0. -1.
        -12    1    3    3    0    0  0.81620735077E+01  0.10836533324E+02 -0.35447928648E+02  0.37955309824E+02  0.00000000000E+00 0.  1.
        -11    1    4    4    0    0  0.22641546847E+02  0.95441535002E+02  0.84578234954E+02  0.12951912629E+03  0.00000000000E+00 0.  1.
         11    1    4    4    0    0 -0.32646722571E+02  0.13210402965E+02  0.83029790282E+02  0.90190184141E+02  0.00000000000E+00 0. -1.
         21    1    1    2  502  501  0.20648158914E+02 -0.18535714962E+02  0.66684185450E+02  0.72226724865E+02  0.00000000000E+00 0. -1.
<scales pt_clust_5="13000.00000" pt_clust_6="13000.00000" pt_clust_7="13000.00000" pt_clust_8="13000.00000" pt_clust_9="27.74742"></scales>
<clustering>
<clus scale="   27.747">  1  9  2 -1</clus>
<clus scale="   80.973">  5  6 -1 -1</clus>
<clus scale="   90.964">  7  8 -1 -1</clus>
<clus scale="  123.022">  2  5  1 -1</clus>
<clus scale="   27.747">  1  5  2 -1</clus>
</clustering>
</event>
<event>
 9    1  0.1973774E-005  0.2479422E+03  0.7546771E-02  0.1114990E+00
         -2   -1    0    0    0  501 -0.00000000000E+00  0.00000000000E+00  0.72229762788E+03  0.72229762788E+03  0.00000000000E+00 0.  1.
          1   -1    0    0  502    0  0.00000000000E+00 -0.00000000000E+00 -0.32905351107E+03  0.32905351107E+03  0.00000000000E+00 0. -1.
        -24    2    1    2    0    0 -0.18143762862E+03 -0.14657767358E+03  0.63969802211E+03  0.68556620721E+03  0.79892662347E+02 0.  0.
         23    2    1    2    0    0  0.18948047315E+03  0.11580603957E+03 -0.21543356930E+03  0.32135698949E+03  0.86860827823E+02 0.  0.
         11    1    3    3    0    0 -0.60477937531E+02 -0.55488843775E+01  0.15361806677E+03  0.16518741321E+03  0.00000000000E+00 0. -1.
        -12    1    3    3    0    0 -0.12095969109E+03 -0.14102878920E+03  0.48607995534E+03  0.52037879400E+03  0.00000000000E+00 0.  1.
        -13    1    4    4    0    0  0.51534049708E+02  0.17889244283E+02 -0.10378835001E+02  0.55529303582E+02  0.00000000000E+00 0.  1.
         13    1    4    4    0    0  0.13794642344E+03  0.97916795288E+02 -0.20505473430E+03  0.26582768591E+03  0.00000000000E+00 0. -1.
         21    1    1    2  502  501 -0.80428445243E+01  0.30771634006E+02 -0.31020335999E+02  0.44427942254E+02  0.00000000000E+00 0. -1.
<scales pt_clust_5="13000.00000" pt_clust_6="13000.00000" pt_clust_7="13000.00000" pt_clust_8="13000.00000" pt_clust_9="31.80536"></scales>
<clustering>
<clus scale="   31.805">  2  9  1 -1</clus>
<clus scale="   79.893">  5  6 -1 -1</clus>
<clus scale="   86.861">  7  8 -1 -1</clus>
<clus scale="  245.588">  1  5  2 -1</clus>
<clus scale="   31.805">  2  5  1 -1</clus>
</clustering>
</event>
<event>
 9    1  0.1973774E-005  0.9647716E+02  0.7546771E-02  0.1298806E+00
          1   -1    0    0  502    0  0.00000000000E+00  0.00000000000E+00  0.79150668030E+02  0.79150668030E+02  0.00000000000E+00 0. -1.
         -2   -1    0    0    0  501 -0.00000000000E+00 -0.00000000000E+00 -0.23294113051E+03  0.23294113051E+03  0.00000000000E+00 0.  1.
         23    2    1    2    0    0  0.84947237513E+01 -0.17711314544E+02 -0.16995237424E+03  0.19498125373E+03  0.93530897582E+02 0.  0.
        -24    2    1    2    0    0 -0.16065292021E+02  0.39710156990E+02  0.28195860833E+02  0.90917444509E+02  0.75073197427E+02 0.  0.
         11    1    4    4    0    0 -0.37410900946E+02  0.59938359213E+01 -0.60057319761E+01  0.38361053104E+02  0.00000000000E+00 0. -1.
        -12    1    4    4    0    0  0.21345608925E+02  0.33716321069E+02  0.34201592810E+02  0.52556391405E+02  0.00000000000E+00 0.  1.
        -13    1    3    3    0    0 -0.44165890791E+01 -0.49466083455E+02 -0.14299005660E+03  0.15136893987E+03  0.00000000000E+00 0. -1.
         13    1    3    3    0    0  0.12911312830E+02  0.31754768911E+02 -0.26962317637E+02  0.43612313857E+02  0.00000000000E+00 0.  1.
         21    1    1    2  502  501  0.75705682700E+01 -0.21998842446E+02 -0.12033949072E+02  0.26193100297E+02  0.00000000000E+00 0. -1.
<scales pt_clust_5="13000.00000" pt_clust_6="13000.00000" pt_clust_7="13000.00000" pt_clust_8="13000.00000" pt_clust_9="23.26505"></scales>
<clustering>
<clus scale="   23.265">  1  9  2 -1</clus>
<clus scale="   75.073">  5  6 -1 -1</clus>
<clus scale="   78.713">  1  5  2 -1</clus>
<clus scale="   93.531">  7  8 -1 -1</clus>
<clus scale="   23.265">  1  5  2 -1</clus>
</clustering>
</event>
<event>
 9    1  0.1973774E-005  0.7763970E+02  0.7546771E-02  0.1338468E+00
         -2   -1    0    0    0  501 -0.00000000000E+00  0.00000000000E+00  0.24163805317E+02  0.24163805317E+02  0.00000000000E+00 0.  1.
          1   -1    0    0  502    0  0.00000000000E+00 -0.00000000000E+00 -0.62822353994E+03  0.62822353994E+03  0.00000000000E+00 0. -1.
         23    2    1    2    0    0 -0.35116516808E+01  0.18087967381E+02 -0.59428386506E+02  0.96842310911E+02  0.74210469602E+02 0.  0.
        -24    2    1    2    0    0 -0.23299623971E+01  0.36836019295E+01 -0.49456253318E+03  0.50063591020E+03  0.77622275848E+02 0.  0.
         11    1    4    4    0    0 -0.18019227209E+02  0.36315812191E+02 -0.22100466869E+03  0.22469222137E+03  0.00000000000E+00 0. -1.
        -12    1    4    4    0    0  0.15689264812E+02 -0.32632210261E+02 -0.27355786449E+03  0.27594368883E+03  0.00000000000E+00 0.  1.
        -11    1    3    3    0    0  0.17861645835E+02 -0.20844811014E+02 -0.73909917389E+01  0.28428353751E+02  0.00000000000E+00 0.  1.
         11    1    3    3    0    0 -0.21373297515E+02  0.38932778394E+02 -0.52037394767E+02  0.68413957160E+02  0.00000000000E+00 0. -1.
         21    1    1    2  502  501  0.58416140779E+01 -0.21771569310E+02 -0.50068814932E+02  0.54909124142E+02  0.00000000000E+00 0.  1.
<scales pt_clust_5="13000.00000" pt_clust_6="13000.00000" pt_clust_7="13000.00000" pt_clust_8="13000.00000" pt_clust_9="22.54164"></scales>
<clustering>
<clus scale="   22.542">  1  9  2 -1</clus>
<clus scale="   74.210">  7  8 -1 -1</clus>
<clus scale="   74.229">  1  7  2 -1</clus>
<clus scale="   77.622">  5  6 -1 -1</clus>
<clus scale="   77.640">  2  5  1 -1</clus>
</clustering>
</event>
<event>
 9    1  0.1973774E-005  0.1055152E+03  0.7546771E-02  0.1276233E+00
          3   -1    0    0  502    0  0.00000000000E+00  0.00000000000E+00  0.11001066514E+03  0.11001066514E+03  0.00000000000E+00 0. -1.
         -4   -1    0    0    0  501 -0.00000000000E+00 -0.00000000000E+00 -0.36607091078E+03  0.36607091078E+03  0.00000000000E+00 0.  1.
         23    2    1    2    0    0 -0.16476533001E+02  0.42267151672E+02 -0.31643219072E+03  0.33362799260E+03  0.95500355366E+02 0.  0.
        -24    2    1    2    0    0 -0.10756116695E+02 -0.46003212999E+02  0.66277142190E+02  0.11433869906E+03  0.80303728885E+02 0.  0.
         11    1    4    4    0    0 -0.25046217569E+02 -0.41633048049E+02  0.80294395587E+02  0.93849952941E+02  0.00000000000E+00 0. -1.
        -12    1    4    4    0    0  0.14290100873E+02 -0.43701649503E+01 -0.14017253397E+02  0.20488746117E+02  0.00000000000E+00 0.  1.
        -13    1    3    3    0    0  0.14631238885E+02  0.61381925384E+02 -0.24981638333E+03  0.25766264630E+03  0.00000000000E+00 0.  1.
         13    1    3    3    0    0 -0.31107771886E+02 -0.19114773712E+02 -0.66615807387E+02  0.75965346307E+02  0.00000000000E+00 0. -1.
         21    1    1    2  502  501  0.27232649697E+02  0.37360613268E+01 -0.59051971165E+01  0.28114884256E+02  0.00000000000E+00 0. -1.
<scales pt_clust_5="13000.00000" pt_clust_6="13000.00000" pt_clust_7="13000.00000" pt_clust_8="13000.00000" pt_clust_9="27.48773"></scales>
<clustering>
<clus scale="   27.488">  1  9  2 -1</clus>
<clus scale="   80.304">  5  6 -1 -1</clus>
<clus scale="   91.988">  1  5  2 -1</clus>
<clus scale="   95.500">  7  8 -1 -1</clus>
<clus scale="   27.488">  1  5  2 -1</clus>
</clustering>
</event>
<event>
 9    1  0.1973774E-005  0.1090499E+03  0.7546771E-02  0.1266871E+00
         -2   -1    0    0    0  501 -0.00000000000E+00  0.00000000000E+00  0.26467855316E+03  0.26467855316E+03  0.00000000000E+00 0.  1.
          1   -1    0    0  502    0  0.00000000000E+00 -0.00000000000E+00 -0.89030133185E+02  0.89030133185E+02  0.00000000000E+00 0. -1.
         23    2    1    2    0    0  0.25317844438E+02 -0.53230124261E+02  0.19633539837E+03  0.22424839744E+03  0.90913781820E+02 0.  0.
        -24    2    1    2    0    0 -0.97415144670E+01  0.68031195754E+02 -0.23568718797E+02  0.10778084702E+03  0.79612095686E+02 0.  0.
         13    1    4    4    0    0 -0.22774984571E+02  0.11315639240E+02 -0.39920983286E+02  0.47333165119E+02  0.00000000000E+00 0. -1.
        -14    1    4    4    0    0  0.13033470104E+02  0.56715556514E+02  0.16352264489E+02  0.60447681904E+02  0.00000000000E+00 0.  1.
        -11    1    3    3    0    0  0.31400984792E+02 -0.76865081170E+02  0.13862035843E+03  0.16158547683E+03  0.00000000000E+00 0.  1.
         11    1    3    3    0    0 -0.60831403538E+01  0.23634956909E+02  0.57715039937E+02  0.62662920611E+02  0.00000000000E+00 0. -1.
         21    1    1    2  502  501 -0.15576329971E+02 -0.14801071493E+02  0.28817404038E+01  0.21679441885E+02  0.00000000000E+00 0. -1.
<scales pt_clust_5="13000.00000" pt_clust_6="13000.00000" pt_clust_7="13000.00000" pt_clust_8="13000.00000" pt_clust_9="21.48706"></scales>
<clustering>
<clus scale="   21.487">  2  9  1 -1</clus>
<clus scale="   79.612">  5  6 -1 -1</clus>
<clus scale="   90.914">  7  8 -1 -1</clus>
<clus scale="   99.823">  2  5  1 -1</clus>
<clus scale="   21.487">  2  5  1 -1</clus>
</clustering>
</event>
<event>
 9    1  0.1973774E-005  0.1213637E+03  0.7546771E-02  0.1243738E+00
         -2   -1    0    0    0  501 -0.00000000000E+00  0.00000000000E+00  0.36139591018E+03  0.36139591018E+03  0.00000000000E+00 0.  1.
          1   -1    0    0  502    0  0.00000000000E+00 -0.00000000000E+00 -0.55343825211E+02  0.55343825211E+02  0.00000000000E+00 0. -1.
        -24    2    1    2    0    0 -0.71535898848E+02  0.22129693678E+02  0.20880743799E+03  0.23630492684E+03  0.81439327877E+02 0.  0.
         23    2    1    2    0    0  0.91763289787E+02 -0.24052619181E+02  0.88155494397E+02  0.15817592984E+03  0.90825127286E+02 0.  0.
         11    1    3    3    0    0 -0.53692200425E+02  0.51384069659E+02  0.12041060551E+03  0.14149872410E+03  0.00000000000E+00 0. -1.
        -12    1    3    3    0    0 -0.17843698422E+02 -0.29254375981E+02  0.88396832474E+02  0.94806202744E+02  0.00000000000E+00 0.  1.
        -11    1    4    4    0    0  0.54636902324E+02 -0.64007358041E+01 -0.60980306479E+01  0.55347506648E+02  0.00000000000E+00 0. -1.
         11    1    4    4    0    0  0.37126387464E+02 -0.17651883377E+02  0.94253525045E+02  0.10282842319E+03  0.00000000000E+00 0.  1.
         21    1    1    2  502  501 -0.20227390940E+02  0.19229255033E+01  0.90891525874E+01  0.22258878711E+02  0.00000000000E+00 0. -1.
<scales pt_clust_5="13000.00000" pt_clust_6="13000.00000" pt_clust_7="13000.00000" pt_clust_8="13000.00000" pt_clust_9="20.31859"></scales>
<clustering>
<clus scale="   20.319">  2  9  1 -1</clus>
<clus scale="   81.439">  5  6 -1 -1</clus>
<clus scale="   90.825">  7  8 -1 -1</clus>
<clus scale="  114.509">  1  5  2 -1</clus>
<clus scale="   20.319">  2  5  1 -1</clus>
</clustering>
</event>
<event>
 9    1  0.1973774E-005  0.1923332E+03  0.7546771E-02  0.1180480E+00
         -2   -1    0    0    0  501 -0.00000000000E+00  0.00000000000E+00  0.17918257818E+03  0.17918257818E+03  0.00000000000E+00 0.  1.
          1   -1    0    0  502    0  0.00000000000E+00 -0.00000000000E+00 -0.10514108865E+04  0.10514108865E+04  0.00000000000E+00 0. -1.
        -24    2    1    2    0    0  0.60862341147E+02  0.45530153549E+02  0.12439298603E+03  0.16647489726E+03  0.80393140202E+02 0.  0.
         23    2    1    2    0    0 -0.18236627328E+03  0.49904956786E+02 -0.68383889001E+03  0.71525770937E+03  0.90609055735E+02 0.  0.
         11    1    3    3    0    0  0.60179564369E+02  0.58962161744E+00  0.44647422589E+02  0.74935438646E+02  0.00000000000E+00 0. -1.
        -12    1    3    3    0    0  0.68277677825E+00  0.44940531931E+02  0.79745563443E+02  0.91539458613E+02  0.00000000000E+00 0.  1.
        -13    1    4    4    0    0 -0.83658129012E+02 -0.18197506541E+02 -0.21742867378E+03  0.23367725601E+03  0.00000000000E+00 0.  1.
         13    1    4    4    0    0 -0.98708144272E+02  0.68102463327E+02 -0.46641021623E+03  0.48158045336E+03  0.00000000000E+00 0. -1.
         21    1    1    2  502  501  0.12150393214E+03 -0.95435110335E+02 -0.31278240436E+03  0.34886085806E+03  0.00000000000E+00 0.  1.
<scales pt_clust_5="13000.00000" pt_clust_6="13000.00000" pt_clust_7="13000.00000" pt_clust_8="13000.00000" pt_clust_9="169.65273"></scales>
<clustering>
<clus scale="   80.393">  5  6 -1 -1</clus>
<clus scale="   90.609">  7  8 -1 -1</clus>
<clus scale="  110.636">  1  5  2 -1</clus>
<clus scale="  169.653">  1  9  2 -1</clus>
<clus scale="  192.333">  2  5  1 -1</clus>
</clustering>
</event>
<event>
 9    1  0.1973774E-005  0.1808538E+03  0.7546771E-02  0.1173061E+00
          1   -1    0    0  502    0  0.00000000000E+00  0.00000000000E+00  0.29545334291E+03  0.29545334291E+03  0.00000000000E+00 0. -1.
         -2   -1    0    0    0  501 -0.00000000000E+00 -0.00000000000E+00 -0.25032802729E+03  0.25032802729E+03  0.00000000000E+00 0.  1.
         23    2    1    2    0    0  0.72970084878E+02  0.59047112786E+02 -0.64931543664E+02  0.17023531269E+03  0.12630424185E+03 0.  0.
        -24    2    1    2    0    0 -0.12377180233E+03  0.10298523260E+03  0.18331856517E+02  0.18254664927E+03  0.84034546524E+02 0.  0.
         13    1    4    4    0    0 -0.18263271144E+02  0.63725020680E+02 -0.84547053101E+01  0.66827444777E+02  0.00000000000E+00 0. -1.
        -14    1    4    4    0    0 -0.10550853119E+03  0.39260211921E+02  0.26786561827E+02  0.11571920449E+03  0.00000000000E+00 0.  1.
        -13    1    3    3    0    0  0.44867198490E+02  0.56755888519E+02 -0.10113414602E+03  0.12434794680E+03  0.00000000000E+00 0.  1.
         13    1    3    3    0    0  0.28102886388E+02  0.22912242667E+01  0.36202602352E+02  0.45887365898E+02  0.00000000000E+00 0. -1.
         21    1    1    2  502  501  0.50801717455E+02 -0.16203234539E+03  0.91725002767E+02  0.19299940824E+03  0.00000000000E+00 0.  1.
<scales pt_clust_5="13000.00000" pt_clust_6="13000.00000" pt_clust_7="13000.00000" pt_clust_8="13000.00000" pt_clust_9="160.14459"></scales>
<clustering>
<clus scale="   84.035">  5  6 -1 -1</clus>
<clus scale="  126.304">  7  8 -1 -1</clus>
<clus scale="  157.366">  2  7  1 -1</clus>
<clus scale="  160.145">  1  9  2 -1</clus>
<clus scale="  160.145">  1  5  2 -1</clus>
</clustering>
</event>
<event>
 9    1  0.1973774E-005  0.1060825E+03  0.7546771E-02  0.1268188E+00
          1   -1    0    0  502    0  0.00000000000E+00  0.00000000000E+00  0.25418968326E+03  0.25418968326E+03  0.00000000000E+00 0. -1.
         -2   -1    0    0    0  501 -0.00000000000E+00 -0.00000000000E+00 -0.86126153216E+02  0.86126153216E+02  0.00000000000E+00 0.  1.
         23    2    1    2    0    0  0.47718383826E+02  0.50719025563E+02  0.44167714324E+02  0.11538807340E+03  0.80710326385E+02 0.  0.
        -24    2    1    2    0    0  0.85682695489E+01 -0.81667454557E+02  0.45248513171E+02  0.12338274447E+03  0.80205269852E+02 0.  0.
         13    1    4    4    0    0 -0.21199476576E+02 -0.49624452249E+02 -0.79153287592E+01  0.54540411600E+02  0.00000000000E+00 0. -1.
        -14    1    4    4    0    0  0.29767746125E+02 -0.32043002308E+02  0.53163841930E+02  0.68842332870E+02  0.00000000000E+00 0.  1.
        -11    1    3    3    0    0  0.32393105168E+02  0.18571814791E+02 -0.19733369517E+02  0.42233060978E+02  0.00000000000E+00 0.  1.
         11    1    3    3    0    0  0.15325278658E+02  0.32147210772E+02  0.63901083841E+02  0.73155012421E+02  0.00000000000E+00 0. -1.
         21    1    1    2  502  501 -0.56286653374E+02  0.30948428994E+02  0.78647302549E+02  0.10154501861E+03  0.00000000000E+00 0. -1.
<scales pt_clust_5="13000.00000" pt_clust_6="13000.00000" pt_clust_7="13000.00000" pt_clust_8="13000.00000" pt_clust_9="64.23389"></scales>
<clustering>
<clus scale="   64.234">  1  9  2 -1</clus>
<clus scale="   80.205">  5  6 -1 -1</clus>
<clus scale="   80.710">  7  8 -1 -1</clus>
<clus scale="  105.699">  1  5  2 -1</clus>
<clus scale="   64.234">  1  5  2 -1</clus>
</clustering>
</event>
<event>
 9    1  0.1973774E-005  0.1560817E+03  0.7546771E-02  0.1194224E+00
         -2   -1    0    0    0  501 -0.00000000000E+00  0.00000000000E+00  0.10005232075E+03  0.10005232075E+03  0.00000000000E+00 0.  1.
          1   -1    0    0  502    0  0.00000000000E+00 -0.00000000000E+00 -0.48625580706E+03  0.48625580706E+03  0.00000000000E+00 0. -1.
         23    2    1    2    0    0  0.54690341873E+02  0.12005254406E+03  0.74128805575E+01  0.15916194821E+03  0.88735157234E+02 0.  0.
        -24    2    1    2    0    0 -0.60664878920E+02 -0.96307671033E+02 -0.31816573081E+03  0.34782208131E+03  0.82434052114E+02 0.  0.
         11    1    4    4    0    0 -0.19369408792E+02 -0.97320686998E+02 -0.22451401147E+03  0.24546492919E+03  0.00000000000E+00 0. -1.
        -12    1    4    4    0    0 -0.41295470128E+02  0.10130159648E+01 -0.93651719341E+02  0.10235715212E+03  0.00000000000E+00 0.  1.
        -13    1    3    3    0    0 -0.90007261013E+01  0.32029740577E+02 -0.29447690502E+02  0.44430663146E+02  0.00000000000E+00 0. -1.
         13    1    3    3    0    0  0.63691067974E+02  0.88022803482E+02  0.36860571059E+02  0.11473128506E+03  0.00000000000E+00 0.  1.
         21    1    1    2  502  501  0.59745370471E+01 -0.23744873026E+02 -0.75450636055E+02  0.79324098287E+02  0.00000000000E+00 0.  1.
<scales pt_clust_5="13000.00000" pt_clust_6="13000.00000" pt_clust_7="13000.00000" pt_clust_8="13000.00000" pt_clust_9="24.48498"></scales>
<clustering>
<clus scale="   24.485">  2  9  1 -1</clus>
<clus scale="   82.434">  5  6 -1 -1</clus>
<clus scale="   88.735">  7  8 -1 -1</clus>
<clus scale="  152.587">  2  5  1 -1</clus>
<clus scale="   24.485">  2  5  1 -1</clus>
</clustering>
</event>
<event>
 9    1  0.1973774E-005  0.2369299E+03  0.7546771E-02  0.1122593E+00
         -2   -1    0    0    0  501 -0.00000000000E+00  0.00000000000E+00  0.60463573808E+03  0.60463573808E+03  0.00000000000E+00 0.  1.
          1   -1    0    0  502    0  0.00000000000E+00 -0.00000000000E+00 -0.10439315301E+03  0.10439315301E+03  0.00000000000E+00 0. -1.
        -24    2    1    2    0    0 -0.41831326415E+02 -0.22421359178E+03  0.28602202111E+03  0.37617911549E+03  0.87638665913E+02 0.  0.
         23    2    1    2    0    0  0.40886608985E+02  0.19753913814E+03  0.20659394557E+03  0.30509037582E+03  0.98517273493E+02 0.  0.
         13    1    3    3    0    0 -0.27060840521E+02 -0.13066269204E+02  0.56256895951E+02  0.63779736772E+02  0.00000000000E+00 0. -1.
        -14    1    3    3    0    0 -0.14770485894E+02 -0.21114732258E+03  0.22976512516E+03  0.31239937872E+03  0.00000000000E+00 0.  1.
        -13    1    4    4    0    0  0.39546867720E+02  0.59699586785E+02  0.22408442960E+02  0.75034217026E+02  0.00000000000E+00 0. -1.
         13    1    4    4    0    0  0.13397412643E+01  0.13783955136E+03  0.18418550261E+03  0.23005615879E+03  0.00000000000E+00 0.  1.
         21    1    1    2  502  501  0.94471742988E+00  0.26674453641E+02  0.76266183909E+01  0.27759399780E+02  0.00000000000E+00 0. -1.
<scales pt_clust_5="13000.00000" pt_clust_6="13000.00000" pt_clust_7="13000.00000" pt_clust_8="13000.00000" pt_clust_9="26.69118"></scales>
<clustering>
<clus scale="   26.691">  2  9  1 -1</clus>
<clus scale="   87.639">  5  6 -1 -1</clus>
<clus scale="   98.517">  7  8 -1 -1</clus>
<clus scale="  232.617">  1  5  2 -1</clus>
<clus scale="   26.691">  2  5  1 -1</clus>
</clustering>
</event>
<event>
 9    1  0.1973774E-005  0.1075043E+03  0.7546771E-02  0.1267662E+00
          1   -1    0    0  502    0  0.00000000000E+00  0.00000000000E+00  0.38893277580E+03  0.38893277580E+03  0.00000000000E+00 0. -1.
         -2   -1    0    0    0  501 -0.00000000000E+00 -0.00000000000E+00 -0.25409845784E+03  0.25409845784E+03  0.00000000000E+00 0.  1.
         23    2    1    2    0    0  0.68328477122E+02  0.43813475059E+02 -0.18415338967E+03  0.21922394798E+03  0.86938294541E+02 0.  0.
        -24    2    1    2    0    0 -0.19645765405E+02 -0.18036560516E+02 -0.14055071773E+02  0.86239590736E+02  0.80798814064E+02 0.  0.
         11    1    4    4    0    0 -0.42175863873E+02 -0.81544025221E+01 -0.33827149350E+02  0.54676995227E+02  0.00000000000E+00 0. -1.
        -12    1    4    4    0    0  0.22530098468E+02 -0.98821579944E+01  0.19772077576E+02  0.31562595509E+02  0.00000000000E+00 0.  1.
        -11    1    3    3    0    0  0.67240074664E+02 -0.42577886222E+01 -0.13255129674E+03  0.14869163618E+03  0.00000000000E+00 0.  1.
         11    1    3    3    0    0  0.10884024577E+01  0.48071263681E+02 -0.51602092933E+02  0.70532311793E+02  0.00000000000E+00 0. -1.
         21    1    1    2  502  501 -0.48682711717E+02 -0.25776914542E+02  0.33304277940E+03  0.33756769492E+03  0.00000000000E+00 0. -1.
<scales pt_clust_5="13000.00000" pt_clust_6="13000.00000" pt_clust_7="13000.00000" pt_clust_8="13000.00000" pt_clust_9="55.08589"></scales>
<clustering>
<clus scale="   55.086">  1  9  2 -1</clus>
<clus scale="   80.799">  5  6 -1 -1</clus>
<clus scale="   86.938">  7  8 -1 -1</clus>
<clus scale="  102.603">  1  5  2 -1</clus>
<clus scale="   55.086">  1  5  2 -1</clus>
</clustering>
</event>
<event>
 9    1  0.1973774E-005  0.9791214E+02  0.7546771E-02  0.1289462E+00
         -2   -1    0    0    0  501 -0.00000000000E+00  0.00000000000E+00  0.12713908423E+03  0.12713908423E+03  0.00000000000E+00 0.  1.
          1   -1    0    0  502    0  0.00000000000E+00 -0.00000000000E+00 -0.32475811957E+03  0.32475811957E+03  0.00000000000E+00 0. -1.
        -24    2    1    2    0    0  0.34976803184E+02  0.16836581269E+02  0.94586892674E+02  0.13034328480E+03  0.80844569370E+02 0.  0.
         23    2    1    2    0    0 -0.42360942578E+02  0.45104401242E+01 -0.16772028929E+03  0.19503556031E+03  0.89966553899E+02 0.  0.
         11    1    3    3    0    0  0.26751870464E+02  0.11697103306E+02 -0.55649391202E+01  0.29722943099E+02  0.00000000000E+00 0. -1.
        -12    1    3    3    0    0  0.82249327204E+01  0.51394779626E+01  0.10015183179E+03  0.10062034170E+03  0.00000000000E+00 0.  1.
        -13    1    4    4    0    0 -0.41360210755E+02  0.43798627495E+02 -0.10111320206E+03  0.11769820064E+03  0.00000000000E+00 0.  1.
         13    1    4    4    0    0 -0.10007318233E+01 -0.39288187371E+02 -0.66607087228E+02  0.77337359666E+02  0.00000000000E+00 0. -1.
         21    1    1    2  502  501  0.73841393944E+01 -0.21347021393E+02 -0.12448563873E+03  0.12651835869E+03  0.00000000000E+00 0.  1.
<scales pt_clust_5="13000.00000" pt_clust_6="13000.00000" pt_clust_7="13000.00000" pt_clust_8="13000.00000" pt_clust_9="22.58807"></scales>
<clustering>
<clus scale="   22.588">  2  9  1 -1</clus>
<clus scale="   80.845">  5  6 -1 -1</clus>
<clus scale="   89.603">  1  5  2 -1</clus>
<clus scale="   89.967">  7  8 -1 -1</clus>
<clus scale="   22.588">  2  5  1 -1</clus>
</clustering>
</event>
<event>
 9    1  0.1973774E-005  0.1591658E+03  0.7546771E-02  0.1190487E+00
          1   -1    0    0  502    0  0.00000000000E+00  0.00000000000E+00  0.37492091548E+03  0.37492091548E+03  0.00000000000E+00 0. -1.
         -2   -1    0    0    0  501 -0.00000000000E+00 -0.00000000000E+00 -0.24491949179E+03  0.24491949179E+03  0.00000000000E+00 0.  1.
         23    2    1    2    0    0 -0.27829162349E+02 -0.13281940613E+03 -0.19682844980E+03  0.25425601278E+03  0.86540305417E+02 0.  0.
        -24    2    1    2    0    0  0.25427057767E+02  0.10794092850E+03  0.29236976115E+03  0.32301435693E+03  0.80996408800E+02 0.  0.
         11    1    4    4    0    0  0.42768635245E+02  0.65512688660E+02  0.11008143375E+03  0.13505180707E+03  0.00000000000E+00 0. -1.
        -12    1    4    4    0    0 -0.17341577479E+02  0.42428239839E+02  0.18228832740E+03  0.18796254986E+03  0.00000000000E+00 0.  1.
        -13    1    3    3    0    0  0.13026955886E+02 -0.11593355071E+03 -0.14623178760E+03  0.18706690104E+03  0.00000000000E+00 0.  1.
         13    1    3    3    0    0 -0.40856118235E+02 -0.16885855419E+02 -0.50596662202E+02  0.67189111740E+02  0.00000000000E+00 0. -1.
         21    1    1    2  502  501  0.24021045822E+01  0.24878477632E+02  0.34460112334E+02  0.42570037559E+02  0.00000000000E+00 0. -1.
<scales pt_clust_5="13000.00000" pt_clust_6="13000.00000" pt_clust_7="13000.00000" pt_clust_8="13000.00000" pt_clust_9="24.99417"></scales>
<clustering>
<clus scale="   24.994">  1  9  2 -1</clus>
<clus scale="   80.996">  5  6 -1 -1</clus>
<clus scale="   86.540">  7  8 -1 -1</clus>
<clus scale="  156.221">  1  5  2 -1</clus>
<clus scale="   24.994">  1  5  2 -1</clus>
</clustering>
</event>
<event>
 9    1  0.1973774E-005  0.1303382E+03  0.7546771E-02  0.1229362E+00
          1   -1    0    0  502    0  0.00000000000E+00  0.00000000000E+00  0.23909415750E+03  0.23909415750E+03  0.00000000000E+00 0. -1.
         -2   -1    0    0    0  501 -0.00000000000E+00 -0.00000000000E+00 -0.10927909234E+03  0.10927909234E+03  0.00000000000E+00 0.  1.
         23    2    1    2    0    0  0.93350038431E+02 -0.28477441248E+02 -0.19746218628E+02  0.13477362762E+03  0.90823032413E+02 0.  0.
        -24    2    1    2    0    0 -0.85652581130E+02 -0.21234465075E+01  0.13304622769E+03  0.17798484637E+03  0.81464306032E+02 0.  0.
         11    1    4    4    0    0 -0.36452428569E+02  0.23793843798E+02  0.10905378725E+03  0.11742084595E+03  0.00000000000E+00 0. -1.
        -12    1    4    4    0    0 -0.49200152561E+02 -0.25917290306E+02  0.23992440443E+02  0.60564000423E+02  0.00000000000E+00 0.  1.
        -11    1    3    3    0    0  0.99535512033E+02 -0.48645158487E+02 -0.91415191434E+01  0.11116310976E+03  0.00000000000E+00 0.  1.
         11    1    3    3    0    0 -0.61854736028E+01  0.20167717238E+02 -0.10604699485E+02  0.23610517857E+02  0.00000000000E+00 0. -1.
         21    1    1    2  502  501 -0.76974573010E+01  0.30600887756E+02  0.16515056096E+02  0.35614775841E+02  0.00000000000E+00 0. -1.
<scales pt_clust_5="13000.00000" pt_clust_6="13000.00000" pt_clust_7="13000.00000" pt_clust_8="13000.00000" pt_clust_9="31.55416"></scales>
<clustering>
<clus scale="   31.554">  1  9  2 -1</clus>
<clus scale="   81.464">  5  6 -1 -1</clus>
<clus scale="   90.823">  7  8 -1 -1</clus>
<clus scale="  123.999">  1  5  2 -1</clus>
<clus scale="   31.554">  1  5  2 -1</clus>
</clustering>
</event>
<event>
 9    1  0.1973774E-005  0.9228976E+02  0.7546771E-02  0.1303596E+00
         -2   -1    0    0    0  501 -0.00000000000E+00  0.00000000000E+00  0.13539541878E+03  0.13539541878E+03  0.00000000000E+00 0.  1.
          1   -1    0    0  502    0  0.00000000000E+00 -0.00000000000E+00 -0.25944462829E+03  0.25944462829E+03  0.00000000000E+00 0. -1.
        -24    2    1    2    0    0 -0.15610097312E+01 -0.88635575247E+01  0.94507430300E+02  0.12500908324E+03  0.81330296366E+02 0.  0.
         23    2    1    2    0    0  0.13227857609E+02  0.36522458505E+02 -0.78481314150E+02  0.12657515416E+03  0.91395223009E+02 0.  0.
         13    1    3    3    0    0 -0.98938918368E+01  0.23638510759E+02  0.86906332959E+02  0.90605623418E+02  0.00000000000E+00 0. -1.
        -14    1    3    3    0    0  0.83328821056E+01 -0.32502068283E+02  0.76010973408E+01  0.34403459821E+02  0.00000000000E+00 0.  1.
        -13    1    4    4    0    0 -0.17744415166E+02 -0.17406305561E+02  0.19181289474E+01  0.24930362242E+02  0.00000000000E+00 0.  1.
         13    1    4    4    0    0  0.30972272775E+02  0.53928764066E+02 -0.80399443097E+02  0.10164479192E+03  0.00000000000E+00 0. -1.
         21    1    1    2  502  501 -0.11666847878E+02 -0.27658900980E+02 -0.14007532567E+03  0.14325580967E+03  0.00000000000E+00 0. -1.
<scales pt_clust_5="13000.00000" pt_clust_6="13000.00000" pt_clust_7="13000.00000" pt_clust_8="13000.00000" pt_clust_9="30.01883"></scales>
<clustering>
<clus scale="   30.019">  2  9  1 -1</clus>
<clus scale="   81.330">  5  6 -1 -1</clus>
<clus scale="   82.334">  1  5  2 -1</clus>
<clus scale="   91.395">  7  8 -1 -1</clus>
<clus scale="   30.019">  2  5  1 -1</clus>
</clustering>
</event>
<event>
 9    1  0.1973774E-005  0.1890545E+03  0.7546771E-02  0.1160599E+00
         -2   -1    0    0    0  501 -0.00000000000E+00  0.00000000000E+00  0.12896623827E+03  0.12896623827E+03  0.00000000000E+00 0.  1.
          1   -1    0    0  502    0  0.00000000000E+00 -0.00000000000E+00 -0.39557799039E+03  0.39557799039E+03  0.00000000000E+00 0. -1.
        -24    2    1    2    0    0  0.17419164163E+03  0.96345177314E+01 -0.85062773791E+01  0.19197406399E+03  0.79662616973E+02 0.  0.
         23    2    1    2    0    0 -0.14056253348E+03 -0.27992609043E+02 -0.22374912604E+03  0.28110857580E+03  0.91743926272E+02 0.  0.
         13    1    3    3    0    0  0.36574270403E+02 -0.31123388581E+02 -0.62572792769E+01  0.48430322281E+02  0.00000000000E+00 0. -1.
        -14    1    3    3    0    0  0.13761737123E+03  0.40757906312E+02 -0.22489981022E+01  0.14354374171E+03  0.00000000000E+00 0.  1.
        -11    1    4    4    0    0 -0.90854727143E+02 -0.63480776050E+01 -0.61128401439E+02  0.10968847248E+03  0.00000000000E+00 0.  1.
         11    1    4    4    0    0 -0.49707806333E+02 -0.21644531438E+02 -0.16262072460E+03  0.17142010332E+03  0.00000000000E+00 0. -1.
         21    1    1    2  502  501 -0.33629108157E+02  0.18358091312E+02 -0.34356348706E+02  0.51461588865E+02  0.00000000000E+00 0. -1.
<scales pt_clust_5="13000.00000" pt_clust_6="13000.00000" pt_clust_7="13000.00000" pt_clust_8="13000.00000" pt_clust_9="38.31366"></scales>
<clustering>
<clus scale="   38.314">  2  9  1 -1</clus>
<clus scale="   79.663">  5  6 -1 -1</clus>
<clus scale="   91.744">  7  8 -1 -1</clus>
<clus scale="  183.496">  1  5  2 -1</clus>
<clus scale="   38.314">  2  5  1 -1</clus>
</clustering>
</event>
<event>
 9    1  0.1973774E-005  0.1349906E+03  0.7546771E-02  0.1226066E+00
          3   -1    0    0  502    0  0.00000000000E+00  0.00000000000E+00  0.24887751965E+03  0.24887751965E+03  0.00000000000E+00 0. -1.
         -4   -1    0    0    0  501 -0.00000000000E+00 -0.00000000000E+00 -0.14566628415E+03  0.14566628415E+03  0.00000000000E+00 0.  1.
        -24    2    1    2    0    0  0.51104923098E+02  0.86407318616E+02 -0.90378994595E+02  0.15140486231E+03  0.68389559093E+02 0.  0.
         23    2    1    2    0    0 -0.51022092609E+02 -0.65690781711E+02  0.17757407547E+03  0.21695308708E+03  0.92830797583E+02 0.  0.
         11    1    3    3    0    0  0.27698532079E+02  0.72784011716E+01 -0.54206038014E+02  0.61306430006E+02  0.00000000000E+00 0. -1.
        -12    1    3    3    0    0  0.23406391018E+02  0.79128917444E+02 -0.36172956581E+02  0.90098432307E+02  0.00000000000E+00 0.  1.
        -11    1    4    4    0    0 -0.24493958558E+02 -0.51937281051E+02  0.17803658467E+03  0.18706806422E+03  0.00000000000E+00 0. -1.
         11    1    4    4    0    0 -0.26528134050E+02 -0.13753500660E+02 -0.46250920687E+00  0.29885022860E+02  0.00000000000E+00 0.  1.
         21    1    1    2  502  501 -0.82830489027E-01 -0.20716536904E+02  0.16016154629E+02  0.26185854412E+02  0.00000000000E+00 0. -1.
<scales pt_clust_5="13000.00000" pt_clust_6="13000.00000" pt_clust_7="13000.00000" pt_clust_8="13000.00000" pt_clust_9="20.71670"></scales>
<clustering>
<clus scale="   20.717">  1  9  2 -1</clus>
<clus scale="   68.390">  5  6 -1 -1</clus>
<clus scale="   92.831">  7  8 -1 -1</clus>
<clus scale="  119.508">  2  5  1 -1</clus>
<clus scale="   20.717">  1  5  2 -1</clus>
</clustering>
</event>
<event>
 9    1  0.1973774E-005  0.1073591E+03  0.7546771E-02  0.1270015E+00
         -2   -1    0    0    0  501 -0.00000000000E+00  0.00000000000E+00  0.44577045517E+03  0.44577045517E+03  0.00000000000E+00 0.  1.
          1   -1    0    0  502    0  0.00000000000E+00 -0.00000000000E+00 -0.11829046822E+03  0.11829046822E+03  0.00000000000E+00 0. -1.
        -24    2    1    2    0    0  0.49957098583E+02  0.29777871523E+01  0.29114715463E+03  0.30628553422E+03  0.80867693853E+02 0.  0.
         23    2    1    2    0    0 -0.87556528967E+02  0.71078879366E+02  0.77991108727E+02  0.16485865756E+03  0.91528198248E+02 0.  0.
         11    1    3    3    0    0 -0.39452237772E+01 -0.23904519520E+02  0.31479981793E+02  0.39723797626E+02  0.00000000000E+00 0. -1.
        -12    1    3    3    0    0  0.53902322361E+02  0.26882306672E+02  0.25966717283E+03  0.26656173659E+03  0.00000000000E+00 0.  1.
        -13    1    4    4    0    0 -0.96818939497E+02  0.35834218270E+02  0.76308690975E+02  0.12837840380E+03  0.00000000000E+00 0. -1.
         13    1    4    4    0    0  0.92624105298E+01  0.35244661097E+02  0.16824177525E+01  0.36480253757E+02  0.00000000000E+00 0.  1.
         21    1    1    2  502  501  0.37599430384E+02 -0.74056666519E+02 -0.41658276409E+02  0.92916731617E+02  0.00000000000E+00 0. -1.
<scales pt_clust_5="13000.00000" pt_clust_6="13000.00000" pt_clust_7="13000.00000" pt_clust_8="13000.00000" pt_clust_9="83.05484"></scales>
<clustering>
<clus scale="   80.868">  5  6 -1 -1</clus>
<clus scale="   83.055">  2  9  1 -1</clus>
<clus scale="   91.528">  7  8 -1 -1</clus>
<clus scale="   98.428">  1  5  2 -1</clus>
<clus scale="   83.055">  2  5  1 -1</clus>
</clustering>
</event>
<event>
 9    1  0.1973774E-005  0.9154019E+02  0.7546771E-02  0.1304108E+00
         -2   -1    0    0    0  501 -0.00000000000E+00  0.00000000000E+00  0.21790363634E+03  0.21790363634E+03  0.00000000000E+00 0.  1.
          1   -1    0    0  502    0  0.00000000000E+00 -0.00000000000E+00 -0.16695184261E+03  0.16695184261E+03  0.00000000000E+00 0. -1.
        -24    2    1    2    0    0 -0.27829207842E+02 -0.12221998029E+02  0.17762944049E+03  0.19676961552E+03  0.79007730122E+02 0.  0.
         23    2    1    2    0    0 -0.17761287354E+02  0.23004558911E+02 -0.80668074039E+02  0.12242280187E+03  0.87380382181E+02 0.  0.
         13    1    3    3    0    0 -0.36951264164E+02 -0.30181504021E+02  0.16761711682E+03  0.17427511859E+03  0.00000000000E+00 0. -1.
        -14    1    3    3    0    0  0.91220563213E+01  0.17959505992E+02  0.10012323671E+02  0.22494496933E+02  0.00000000000E+00 0.  1.
        -13    1    4    4    0    0 -0.42438829040E+02  0.93412674034E+01 -0.76200853383E+01  0.44117787655E+02  0.00000000000E+00 0. -1.
         13    1    4    4    0    0  0.24677541686E+02  0.13663291508E+02 -0.73047988700E+02  0.78305014218E+02  0.00000000000E+00 0.  1.
         21    1    1    2  502  501  0.45590495196E+02 -0.10782560882E+02 -0.46009572719E+02  0.65663061559E+02  0.00000000000E+00 0.  1.
<scales pt_clust_5="13000.00000" pt_clust_6="13000.00000" pt_clust_7="13000.00000" pt_clust_8="13000.00000" pt_clust_9="46.84823"></scales>
<clustering>
<clus scale="   46.848">  2  9  1 -1</clus>
<clus scale="   79.008">  5  6 -1 -1</clus>
<clus scale="   83.585">  1  5  2 -1</clus>
<clus scale="   87.380">  7  8 -1 -1</clus>
<clus scale="   46.848">  2  5  1 -1</clus>
</clustering>
</event>
<event>
 9    1  0.1973774E-005  0.1058348E+03  0.7546771E-02  0.1272924E+00
         -2   -1    0    0    0  501 -0.00000000000E+00  0.00000000000E+00  0.15497491605E+03  0.15497491605E+03  0.00000000000E+00 0.  1.
          1   -1    0    0  502    0  0.00000000000E+00 -0.00000000000E+00 -0.96194555018E+02  0.96194555018E+02  0.00000000000E+00 0. -1.
        -24    2    1    2    0    0  0.44584282213E+02 -0.72745037720E+01  0.41292782582E+02  0.10099343106E+03  0.80336184857E+02 0.  0.
         23    2    1    2    0    0 -0.66877782733E+02  0.81422202974E+01  0.38691159096E+02  0.11939707106E+03  0.90662678153E+02 0.  0.
         13    1    3    3    0    0  0.46780852954E+02 -0.14158382342E+02 -0.94136437201E+01  0.49774739394E+02  0.00000000000E+00 0. -1.
        -14    1    3    3    0    0 -0.21965707410E+01  0.68838785700E+01  0.50706426302E+02  0.51218691661E+02  0.00000000000E+00 0.  1.
        -13    1    4    4    0    0 -0.30339383171E+02  0.45573855683E+02  0.38773825196E+02  0.67088478991E+02  0.00000000000E+00 0.  1.
         13    1    4    4    0    0 -0.36538399562E+02 -0.37431635385E+02 -0.82666099140E-01  0.52308592065E+02  0.00000000000E+00 0. -1.
         21    1    1    2  502  501  0.22293500520E+02 -0.86771652533E+00 -0.21203580650E+02  0.30778968952E+02  0.00000000000E+00 0. -1.
<scales pt_clust_5="13000.00000" pt_clust_6="13000.00000" pt_clust_7="13000.00000" pt_clust_8="13000.00000" pt_clust_9="22.31038"></scales>
<clustering>
<clus scale="   22.310">  2  9  1 -1</clus>
<clus scale="   80.336">  5  6 -1 -1</clus>
<clus scale="   90.663">  7  8 -1 -1</clus>
<clus scale="   97.135">  1  5  2 -1</clus>
<clus scale="   22.310">  2  5  1 -1</clus>
</clustering>
</event>
<event>
 9    1  0.1973774E-005  0.1287234E+03  0.7546771E-02  0.1232916E+00
         -2   -1    0    0    0  501 -0.00000000000E+00  0.00000000000E+00  0.13499813127E+04  0.13499813127E+04  0.00000000000E+00 0.  1.
          1   -1    0    0  502    0  0.00000000000E+00 -0.00000000000E+00 -0.56571843652E+02  0.56571843652E+02  0.00000000000E+00 0. -1.
        -24    2    1    2    0    0 -0.64564988738E+02  0.66303096994E+02  0.10171728939E+04  0.10244031763E+04  0.78717425628E+02 0.  0.
         23    2    1    2    0    0  0.91797069472E+02 -0.39964363563E+01  0.39523463375E+02  0.13586396042E+03  0.91946930974E+02 0.  0.
         13    1    3    3    0    0 -0.13753342496E+02  0.59092092046E+02  0.34666981133E+03  0.35193889791E+03  0.00000000000E+00 0. -1.
        -14    1    3    3    0    0 -0.50811646242E+02  0.72110049484E+01  0.67050308257E+03  0.67246427840E+03  0.00000000000E+00 0.  1.
        -13    1    4    4    0    0  0.91691754851E+02  0.18178379888E+02  0.34748118646E+01  0.93540930723E+02  0.00000000000E+00 0. -1.
         13    1    4    4    0    0  0.10531462052E+00 -0.22174816244E+02  0.36048651510E+02  0.42323029692E+02  0.00000000000E+00 0.  1.
         21    1    1    2  502  501 -0.27232080734E+02 -0.62306660638E+02  0.23671311177E+03  0.24628601963E+03  0.00000000000E+00 0.  1.
<scales pt_clust_5="13000.00000" pt_clust_6="13000.00000" pt_clust_7="13000.00000" pt_clust_8="13000.00000" pt_clust_9="67.99784"></scales>
<clustering>
<clus scale="   67.998">  1  9  2 -1</clus>
<clus scale="   78.717">  5  6 -1 -1</clus>
<clus scale="   91.947">  7  8 -1 -1</clus>
<clus scale="  119.632">  1  5  2 -1</clus>
<clus scale="  128.723">  2  5  1 -1</clus>
</clustering>
</event>
<event>
 9    1  0.1973774E-005  0.1057841E+03  0.7546771E-02  0.1273169E+00
         -4   -1    0    0    0  501 -0.00000000000E+00  0.00000000000E+00  0.24371092281E+03  0.24371092281E+03  0.00000000000E+00 0.  1.
          3   -1    0    0  502    0  0.00000000000E+00 -0.00000000000E+00 -0.14163714458E+03  0.14163714458E+03  0.00000000000E+00 0. -1.
         23    2    1    2    0    0  0.17487388388E+02  0.54136602742E+02  0.20667087074E+03  0.23264435905E+03  0.90410002080E+02 0.  0.
        -24    2    1    2    0    0 -0.18372795090E+02 -0.33692248015E+02 -0.95846118424E+02  0.13044758261E+03  0.79733093606E+02 0.  0.
         13    1    4    4    0    0 -0.45120456252E+02 -0.75868459747E+01 -0.29933945629E+02  0.54675926194E+02  0.00000000000E+00 0. -1.
        -14    1    4    4    0    0  0.26747661163E+02 -0.26105402041E+02 -0.65912172795E+02  0.75771656415E+02  0.00000000000E+00 0.  1.
        -13    1    3    3    0    0 -0.10259680134E+02 -0.19668403440E+02  0.19470673408E+02  0.29516338751E+02  0.00000000000E+00 0. -1.
         13    1    3    3    0    0  0.27747068522E+02  0.73805006182E+02  0.18720019733E+03  0.20312802030E+03  0.00000000000E+00 0.  1.
         21    1    1    2  502  501  0.88540670152E+00 -0.20444354727E+02 -0.87509740779E+01  0.22256125731E+02  0.00000000000E+00 0. -1.
<scales pt_clust_5="13000.00000" pt_clust_6="13000.00000" pt_clust_7="13000.00000" pt_clust_8="13000.00000" pt_clust_9="20.46352"></scales>
<clustering>
<clus scale="   20.464">  2  9  1 -1</clus>
<clus scale="   79.733">  5  6 -1 -1</clus>
<clus scale="   90.410">  7  8 -1 -1</clus>
<clus scale="   96.818">  2  5  1 -1</clus>
<clus scale="   20.464">  2  5  1 -1</clus>
</clustering>
</event>
<event>
 9    1  0.1973774E-005  0.9826528E+02  0.7546771E-02  0.1289721E+00
         -2   -1    0    0    0  501 -0.00000000000E+00  0.00000000000E+00  0.21549749182E+03  0.21549749182E+03  0.00000000000E+00 0.  1.
          1   -1    0    0  502    0  0.00000000000E+00 -0.00000000000E+00 -0.13329945454E+03  0.13329945454E+03  0.00000000000E+00 0. -1.
        -24    2    1    2    0    0  0.96547156938E+00 -0.40589825624E+02  0.17027572029E+03  0.19145844144E+03  0.77550292045E+02 0.  0.
         23    2    1    2    0    0  0.16781976377E+02  0.56150958323E+02 -0.76444686636E+02  0.13102411030E+03  0.88819831763E+02 0.  0.
         11    1    3    3    0    0 -0.29316814991E+02 -0.38341161859E+02  0.14195471224E+03  0.14993552168E+03  0.00000000000E+00 0. -1.
        -12    1    3    3    0    0  0.30282286560E+02 -0.22486637651E+01  0.28321008054E+02  0.41522919758E+02  0.00000000000E+00 0.  1.
        -13    1    4    4    0    0  0.38186678317E+02  0.31408686423E+02 -0.17458546342E+01  0.49475003710E+02  0.00000000000E+00 0.  1.
         13    1    4    4    0    0 -0.21404701940E+02  0.24742271900E+02 -0.74698832001E+02  0.81549106594E+02  0.00000000000E+00 0. -1.
         21    1    1    2  502  501 -0.17747447946E+02 -0.15561132699E+02 -0.11632996382E+02  0.26314394621E+02  0.00000000000E+00 0.  1.
<scales pt_clust_5="13000.00000" pt_clust_6="13000.00000" pt_clust_7="13000.00000" pt_clust_8="13000.00000" pt_clust_9="23.60341"></scales>
<clustering>
<clus scale="   23.603">  2  9  1 -1</clus>
<clus scale="   77.550">  5  6 -1 -1</clus>
<clus scale="   88.211">  1  5  2 -1</clus>
<clus scale="   88.820">  7  8 -1 -1</clus>
<clus scale="   23.603">  2  5  1 -1</clus>
</clustering>
</event>
<event>
 9    1  0.1973774E-005  0.9530134E+02  0.7546771E-02  0.1300539E+00
         -4   -1    0    0    0  501 -0.00000000000E+00  0.00000000000E+00  0.29486885286E+03  0.29486885286E+03  0.00000000000E+00 0.  1.
          3   -1    0    0  502    0  0.00000000000E+00 -0.00000000000E+00 -0.57980894810E+02  0.57980894810E+02  0.00000000000E+00 0. -1.
         23    2    1    2    0    0 -0.20900890563E+02 -0.12288320830E+02  0.22485834003E+03  0.24458646765E+03  0.93131181794E+02 0.  0.
        -24    2    1    2    0    0 -0.31355603474E+01  0.10212048052E+02 -0.70167929280E+01  0.77525231105E+02  0.76464425786E+02 0.  0.
         13    1    4    4    0    0 -0.17129945127E+02  0.39819485964E+02 -0.10473642712E+02  0.44595108186E+02  0.00000000000E+00 0. -1.
        -14    1    4    4    0    0  0.13994384779E+02 -0.29607437911E+02  0.34568497836E+01  0.32930122919E+02  0.00000000000E+00 0.  1.
        -11    1    3    3    0    0 -0.16150866633E+02 -0.52882308509E+02  0.12462709469E+03  0.13634258974E+03  0.00000000000E+00 0.  1.
         11    1    3    3    0    0 -0.47500239304E+01  0.40593987679E+02  0.10023124534E+03  0.10824387791E+03  0.00000000000E+00 0. -1.
         21    1    1    2  502  501  0.24036450911E+02  0.20762727783E+01  0.19046410952E+02  0.30738048916E+02  0.00000000000E+00 0. -1.
<scales pt_clust_5="13000.00000" pt_clust_6="13000.00000" pt_clust_7="13000.00000" pt_clust_8="13000.00000" pt_clust_9="24.12596"></scales>
<clustering>
<clus scale="   24.126">  2  9  1 -1</clus>
<clus scale="   76.464">  5  6 -1 -1</clus>
<clus scale="   79.093">  2  5  1 -1</clus>
<clus scale="   93.131">  7  8 -1 -1</clus>
<clus scale="   24.126">  2  5  1 -1</clus>
</clustering>
</event>
<event>
 9    1  0.1973774E-005  0.1035809E+03  0.7546771E-02  0.1278603E+00
         -2   -1    0    0    0  501 -0.00000000000E+00  0.00000000000E+00  0.12101011124E+03  0.12101011124E+03  0.00000000000E+00 0.  1.
          1   -1    0    0  502    0  0.00000000000E+00 -0.00000000000E+00 -0.48745264979E+03  0.48745264979E+03  0.00000000000E+00 0. -1.
         23    2    1    2    0    0 -0.30286045662E+02 -0.38884455327E+02  0.82074130663E+02  0.13244839139E+03  0.91526870541E+02 0.  0.
        -24    2    1    2    0    0  0.59894387104E+02 -0.19825945072E+01 -0.36633171836E+03  0.37957197340E+03  0.79276016691E+02 0.  0.
         11    1    4    4    0    0  0.13777956067E+02  0.35250377776E+02 -0.18387388507E+03  0.18772859882E+03  0.00000000000E+00 0. -1.
        -12    1    4    4    0    0  0.46116431037E+02 -0.37232972283E+02 -0.18245783329E+03  0.19184337457E+03  0.00000000000E+00 0.  1.
        -13    1    3    3    0    0 -0.27127615452E+02 -0.68304894084E+02  0.65972909107E+02  0.98761788218E+02  0.00000000000E+00 0. -1.
         13    1    3    3    0    0 -0.31584302100E+01  0.29420438756E+02  0.16101221556E+02  0.33686603177E+02  0.00000000000E+00 0.  1.
         21    1    1    2  502  501 -0.29608341442E+02  0.40867049834E+02 -0.82184950858E+02  0.96442396241E+02  0.00000000000E+00 0.  1.
<scales pt_clust_5="13000.00000" pt_clust_6="13000.00000" pt_clust_7="13000.00000" pt_clust_8="13000.00000" pt_clust_9="50.46553"></scales>
<clustering>
<clus scale="   50.466">  2  9  1 -1</clus>
<clus scale="   79.276">  5  6 -1 -1</clus>
<clus scale="   91.527">  7  8 -1 -1</clus>
<clus scale="   92.933">  2  5  1 -1</clus>
<clus scale="   50.466">  2  5  1 -1</clus>
</clustering>
</event>
<event>
 9    1  0.1973774E-005  0.9469670E+02  0.7546771E-02  0.1295613E+00
          1   -1    0    0  502    0  0.00000000000E+00  0.00000000000E+00  0.18644669136E+03  0.18644669136E+03  0.00000000000E+00 0. -1.
         -2   -1    0    0    0  501 -0.00000000000E+00 -0.00000000000E+00 -0.23578427741E+03  0.23578427741E+03  0.00000000000E+00 0.  1.
        -24    2    1    2    0    0  0.84191009194E+01  0.38337887322E+02 -0.18521732114E+03  0.20552693977E+03  0.79969944714E+02 0.  0.
         23    2    1    2    0    0 -0.36782080497E+02 -0.17171406485E+02  0.23405901171E+02  0.98793716326E+02  0.86974614282E+02 0.  0.
         11    1    3    3    0    0  0.14537479927E+02 -0.19478945868E+02 -0.24048178503E+02  0.34191849088E+02  0.00000000000E+00 0. -1.
        -12    1    3    3    0    0 -0.61183790079E+01  0.57816833190E+02 -0.16116914263E+03  0.17133509068E+03  0.00000000000E+00 0.  1.
        -11    1    4    4    0    0 -0.15198357492E+02  0.25864714373E+02  0.38065570490E+02  0.48466082746E+02  0.00000000000E+00 0.  1.
         11    1    4    4    0    0 -0.21583723005E+02 -0.43036120858E+02 -0.14659669318E+02  0.50327633580E+02  0.00000000000E+00 0. -1.
         21    1    1    2  502  501  0.28362979578E+02 -0.21166480838E+02  0.11247383391E+03  0.11791031267E+03  0.00000000000E+00 0. -1.
<scales pt_clust_5="13000.00000" pt_clust_6="13000.00000" pt_clust_7="13000.00000" pt_clust_8="13000.00000" pt_clust_9="35.39037"></scales>
<clustering>
<clus scale="   35.390">  1  9  2 -1</clus>
<clus scale="   79.970">  5  6 -1 -1</clus>
<clus scale="   86.975">  7  8 -1 -1</clus>
<clus scale="   88.307">  2  5  1 -1</clus>
<clus scale="   35.390">  1  5  2 -1</clus>
</clustering>
</event>
<event>
 9    1  0.1973774E-005  0.1424176E+03  0.7546771E-02  0.1236617E+00
         -2   -1    0    0    0  501 -0.00000000000E+00  0.00000000000E+00  0.13142094316E+03  0.13142094316E+03  0.00000000000E+00 0.  1.
          1   -1    0    0  502    0  0.00000000000E+00 -0.00000000000E+00 -0.46658679797E+03  0.46658679797E+03  0.00000000000E+00 0. -1.
        -24    2    1    2    0    0  0.27873297971E+02  0.23390827818E+02  0.77465799228E+02  0.11272093720E+03  0.73355354735E+02 0.  0.
         23    2    1    2    0    0 -0.52838649884E+02 -0.11602036571E+03 -0.29179880017E+03  0.33100109928E+03  0.90346775076E+02 0.  0.
         13    1    3    3    0    0 -0.20284981007E+02 -0.99671416542E+01  0.28463892028E+02  0.36345804663E+02  0.00000000000E+00 0. -1.
        -14    1    3    3    0    0  0.48158278978E+02  0.33357969472E+02  0.49001907200E+02  0.76375132541E+02  0.00000000000E+00 0.  1.
        -11    1    4    4    0    0 -0.39433371793E+02  0.27740160308E-01 -0.73305696654E+02  0.83238913630E+02  0.00000000000E+00 0.  1.
         11    1    4    4    0    0 -0.13405278091E+02 -0.11604810587E+03 -0.21849310352E+03  0.24776218565E+03  0.00000000000E+00 0. -1.
         21    1    1    2  502  501  0.24965351913E+02  0.92629537888E+02 -0.12083285386E+03  0.15428570465E+03  0.00000000000E+00 0.  1.
<scales pt_clust_5="13000.00000" pt_clust_6="13000.00000" pt_clust_7="13000.00000" pt_clust_8="13000.00000" pt_clust_9="110.09188"></scales>
<clustering>
<clus scale="   73.355">  5  6 -1 -1</clus>
<clus scale="   81.884">  1  5  2 -1</clus>
<clus scale="   90.347">  7  8 -1 -1</clus>
<clus scale="  110.092">  1  9  2 -1</clus>
<clus scale="  142.418">  2  5  1 -1</clus>
</clustering>
</event>
<event>
 9    1  0.1973774E-005  0.9294298E+02  0.7546771E-02  0.1302415E+00
          1   -1    0    0  502    0  0.00000000000E+00  0.00000000000E+00  0.44029338055E+03  0.44029338055E+03  0.00000000000E+00 0. -1.
         -2   -1    0    0    0  501 -0.00000000000E+00 -0.00000000000E+00 -0.48955530412E+02  0.48955530412E+02  0.00000000000E+00 0.  1.
         23    2    1    2    0    0  0.85278914526E+01  0.25594746807E+02  0.12138211647E+02  0.94446039610E+02  0.89693378904E+02 0.  0.
        -24    2    1    2    0    0  0.56223824130E+01 -0.91666694849E+01  0.34707051030E+03  0.35604215860E+03  0.78692061639E+02 0.  0.
         11    1    4    4    0    0  0.11525857307E+02 -0.31212481464E+02  0.64730096828E+02  0.72780834161E+02  0.00000000000E+00 0. -1.
        -12    1    4    4    0    0 -0.59034748940E+01  0.22045811979E+02  0.28234041347E+03  0.28326132444E+03  0.00000000000E+00 0.  1.
        -13    1    3    3    0    0  0.50826358348E+00  0.59011019068E+02  0.11209366742E+02  0.60068366101E+02  0.00000000000E+00 0.  1.
         13    1    3    3    0    0  0.80196278692E+01 -0.33416272261E+02  0.92884490510E+00  0.34377673509E+02  0.00000000000E+00 0. -1.
         21    1    1    2  502  501 -0.14150273866E+02 -0.16428077322E+02  0.32129128194E+02  0.38760712758E+02  0.00000000000E+00 0. -1.
<scales pt_clust_5="13000.00000" pt_clust_6="13000.00000" pt_clust_7="13000.00000" pt_clust_8="13000.00000" pt_clust_9="21.68207"></scales>
<clustering>
<clus scale="   21.682">  1  9  2 -1</clus>
<clus scale="   78.692">  5  6 -1 -1</clus>
<clus scale="   82.377">  1  5  2 -1</clus>
<clus scale="   89.693">  7  8 -1 -1</clus>
<clus scale="   21.682">  1  5  2 -1</clus>
</clustering>
</event>
<event>
 9    1  0.1973774E-005  0.1290260E+03  0.7546771E-02  0.1235674E+00
         -2   -1    0    0    0  501 -0.00000000000E+00  0.00000000000E+00  0.86521843659E+02  0.86521843659E+02  0.00000000000E+00 0.  1.
          1   -1    0    0  502    0  0.00000000000E+00 -0.00000000000E+00 -0.36277264284E+03  0.36277264284E+03  0.00000000000E+00 0. -1.
         23    2    1    2    0    0 -0.52090257985E+02 -0.10636655298E+03 -0.53212371834E+02  0.15855909091E+03  0.91006539469E+02 0.  0.
        -24    2    1    2    0    0 -0.13774298880E+02  0.87037506594E+02 -0.17673088393E+03  0.20793358121E+03  0.65094623434E+02 0.  0.
         13    1    4    4    0    0  0.17583820744E+02  0.24347184201E+02 -0.98103268913E+02  0.10259740495E+03  0.00000000000E+00 0. -1.
        -14    1    4    4    0    0 -0.31358119624E+02  0.62690322393E+02 -0.78627615012E+02  0.10533617627E+03  0.00000000000E+00 0.  1.
        -13    1    3    3    0    0 -0.64340052526E+02 -0.30162018759E+02 -0.15834587843E+02  0.72801949884E+02  0.00000000000E+00 0. -1.
         13    1    3    3    0    0  0.12249794542E+02 -0.76204534216E+02 -0.37377783991E+02  0.85757141029E+02  0.00000000000E+00 0.  1.
         21    1    1    2  502  501  0.65864556864E+02  0.19329046382E+02 -0.46307543417E+02  0.82801814366E+02  0.00000000000E+00 0.  1.
<scales pt_clust_5="13000.00000" pt_clust_6="13000.00000" pt_clust_7="13000.00000" pt_clust_8="13000.00000" pt_clust_9="68.64220"></scales>
<clustering>
<clus scale="   65.095">  5  6 -1 -1</clus>
<clus scale="   68.642">  1  9  2 -1</clus>
<clus scale="   91.007">  7  8 -1 -1</clus>
<clus scale="  112.262">  2  5  1 -1</clus>
<clus scale="  112.262">  2  5  1 -1</clus>
</clustering>
</event>
<event>
 9    1  0.1973774E-005  0.1682227E+03  0.7546771E-02  0.1181280E+00
          1   -1    0    0  502    0  0.00000000000E+00  0.00000000000E+00  0.85883847935E+03  0.85883847935E+03  0.00000000000E+00 0. -1.
         -2   -1    0    0    0  501 -0.00000000000E+00 -0.00000000000E+00 -0.68849454817E+02  0.68849454817E+02  0.00000000000E+00 0.  1.
        -24    2    1    2    0    0  0.12451887158E+03  0.64513343761E+02  0.64857042531E+02  0.17513267765E+03  0.82450578617E+02 0.  0.
         23    2    1    2    0    0 -0.10872562976E+03 -0.89501671938E+02  0.65507948493E+03  0.67652108408E+03  0.93380050202E+02 0.  0.
         13    1    3    3    0    0  0.20734215674E+02  0.34726576605E+01  0.49466648844E+02  0.53748640901E+02  0.00000000000E+00 0. -1.
        -14    1    3    3    0    0  0.10378465590E+03  0.61040686101E+02  0.15390393687E+02  0.12138403675E+03  0.00000000000E+00 0.  1.
        -11    1    4    4    0    0 -0.26895456349E+02 -0.44759288702E+02  0.92138622055E+02  0.10590696470E+03  0.00000000000E+00 0.  1.
         11    1    4    4    0    0 -0.81830173409E+02 -0.44742383235E+02  0.56294086288E+03  0.57061411938E+03  0.00000000000E+00 0. -1.
         21    1    1    2  502  501 -0.15793241821E+02  0.24988328176E+02  0.70052497065E+02  0.76034172431E+02  0.00000000000E+00 0.  1.
<scales pt_clust_5="13000.00000" pt_clust_6="13000.00000" pt_clust_7="13000.00000" pt_clust_8="13000.00000" pt_clust_9="29.56084"></scales>
<clustering>
<clus scale="   29.561">  1  9  2 -1</clus>
<clus scale="   82.451">  5  6 -1 -1</clus>
<clus scale="   93.380">  7  8 -1 -1</clus>
<clus scale="  162.410">  2  5  1 -1</clus>
<clus scale="   29.561">  1  5  2 -1</clus>
</clustering>
</event>
<event>
 9    1  0.1973774E-005  0.1714507E+03  0.7546771E-02  0.1178214E+00
          1   -1    0    0  502    0  0.00000000000E+00  0.00000000000E+00  0.66459178340E+03  0.66459178340E+03  0.00000000000E+00 0. -1.
         -2   -1    0    0    0  501 -0.00000000000E+00 -0.00000000000E+00 -0.50406309042E+02  0.50406309042E+02  0.00000000000E+00 0.  1.
        -24    2    1    2    0    0  0.79542713061E+02 -0.12054421211E+03  0.23064956526E+03  0.28357044507E+03  0.79718411206E+02 0.  0.
         23    2    1    2    0    0 -0.99421200380E+02  0.10430527307E+03  0.33882283158E+03  0.37987072058E+03  0.93470252375E+02 0.  0.
         11    1    3    3    0    0  0.59067736724E+02 -0.98909752137E+02  0.22566249520E+03  0.25336870038E+03  0.00000000000E+00 0. -1.
        -12    1    3    3    0    0  0.20474976336E+02 -0.21634459978E+02  0.49870700564E+01  0.30201744689E+02  0.00000000000E+00 0.  1.
        -11    1    4    4    0    0 -0.87908961777E+02  0.53667168643E+02  0.29313661354E+03  0.31070440091E+03  0.00000000000E+00 0. -1.
         11    1    4    4    0    0 -0.11512238604E+02  0.50638104422E+02  0.45686218046E+02  0.69166319668E+02  0.00000000000E+00 0.  1.
         21    1    1    2  502  501  0.19878487319E+02  0.16238939050E+02  0.44713077511E+02  0.51556926790E+02  0.00000000000E+00 0.  1.
<scales pt_clust_5="13000.00000" pt_clust_6="13000.00000" pt_clust_7="13000.00000" pt_clust_8="13000.00000" pt_clust_9="25.66822"></scales>
<clustering>
<clus scale="   25.668">  1  9  2 -1</clus>
<clus scale="   79.718">  5  6 -1 -1</clus>
<clus scale="   93.470">  7  8 -1 -1</clus>
<clus scale="  164.358">  2  5  1 -1</clus>
<clus scale="   25.668">  1  5  2 -1</clus>
</clustering>
</event>
<event>
 9    1  0.1973774E-005  0.1117270E+03  0.7546771E-02  0.1262081E+00
          1   -1    0    0  502    0  0.00000000000E+00  0.00000000000E+00  0.40701353193E+03  0.40701353193E+03  0.00000000000E+00 0. -1.
         -2   -1    0    0    0  501 -0.00000000000E+00 -0.00000000000E+00 -0.73140634111E+02  0.73140634111E+02  0.00000000000E+00 0.  1.
         23    2    1    2    0    0 -0.77145506645E+01 -0.62855438287E+02  0.15089488487E+02  0.11154462300E+03  0.90576982970E+02 0.  0.
        -24    2    1    2    0    0 -0.34013827901E+02  0.58571977174E+02  0.30856643793E+03  0.32543556799E+03  0.78150145873E+02 0.  0.
         13    1    4    4    0    0 -0.47211492148E+02  0.47668056827E+02  0.13229280075E+03  0.14833257823E+03  0.00000000000E+00 0. -1.
        -14    1    4    4    0    0  0.13197664247E+02  0.10903920347E+02  0.17627363717E+03  0.17710298976E+03  0.00000000000E+00 0.  1.
        -11    1    3    3    0    0  0.38791405849E+02 -0.10016931139E+02  0.36265855336E+01  0.40227654665E+02  0.00000000000E+00 0.  1.
         11    1    3    3    0    0 -0.46505956514E+02 -0.52838507148E+02  0.11462902953E+02  0.71316968338E+02  0.00000000000E+00 0. -1.
         21    1    1    2  502  501  0.41728378566E+02  0.42834611136E+01  0.10216971407E+02  0.43173975049E+02  0.00000000000E+00 0.  1.
<scales pt_clust_5="13000.00000" pt_clust_6="13000.00000" pt_clust_7="13000.00000" pt_clust_8="13000.00000" pt_clust_9="41.94765"></scales>
<clustering>
<clus scale="   41.948">  2  9  1 -1</clus>
<clus scale="   78.150">  5  6 -1 -1</clus>
<clus scale="   90.577">  7  8 -1 -1</clus>
<clus scale="  101.913">  1  5  2 -1</clus>
<clus scale="  101.913">  1  5  2 -1</clus>
</clustering>
</event>
<event>
 9    1  0.1973774E-005  0.1488171E+03  0.7546771E-02  0.1225741E+00
          3   -1    0    0  502    0  0.00000000000E+00  0.00000000000E+00  0.14602534131E+03  0.14602534131E+03  0.00000000000E+00 0. -1.
         -4   -1    0    0    0  501 -0.00000000000E+00 -0.00000000000E+00 -0.37875559654E+03  0.37875559654E+03  0.00000000000E+00 0.  1.
        -24    2    1    2    0    0  0.38053419108E+02  0.13064224163E+02 -0.23559452471E+03  0.25212888933E+03  0.80283622873E+02 0.  0.
         23    2    1    2    0    0  0.89399539984E+02  0.15258268900E+02 -0.39302612463E+02  0.13544976601E+03  0.92611291135E+02 0.  0.
         13    1    3    3    0    0  0.82285945632E+01 -0.28837053275E+02 -0.40653299855E+02  0.50517088190E+02  0.00000000000E+00 0. -1.
        -14    1    3    3    0    0  0.29824824545E+02  0.41901277438E+02 -0.19494122486E+03  0.20161180114E+03  0.00000000000E+00 0.  1.
        -13    1    4    4    0    0 -0.26272970590E+01 -0.25836648441E+02  0.30074400608E+01  0.26143446373E+02  0.00000000000E+00 0. -1.
         13    1    4    4    0    0  0.92026837043E+02  0.41094917341E+02 -0.42310052524E+02  0.10930631963E+03  0.00000000000E+00 0.  1.
         21    1    1    2  502  501 -0.12745295909E+03 -0.28322493062E+02  0.42166881949E+02  0.13720228252E+03  0.00000000000E+00 0. -1.
<scales pt_clust_5="13000.00000" pt_clust_6="13000.00000" pt_clust_7="13000.00000" pt_clust_8="13000.00000" pt_clust_9="116.48892"></scales>
<clustering>
<clus scale="   80.284">  5  6 -1 -1</clus>
<clus scale="   89.801">  2  5  1 -1</clus>
<clus scale="   92.611">  7  8 -1 -1</clus>
<clus scale="  116.489">  1  9  2 -1</clus>
<clus scale="  116.489">  1  5  2 -1</clus>
</clustering>
</event>
<event>
 9    1  0.1973774E-005  0.1106234E+03  0.7546771E-02  0.1263990E+00
          1   -1    0    0  502    0  0.00000000000E+00  0.00000000000E+00  0.56145197995E+03  0.56145197995E+03  0.00000000000E+00 0. -1.
         -2   -1    0    0    0  501 -0.00000000000E+00 -0.00000000000E+00 -0.12875737429E+03  0.12875737429E+03  0.00000000000E+00 0.  1.
        -24    2    1    2    0    0 -0.60986408432E+02 -0.31823217203E+02 -0.95134428265E+02  0.14079594484E+03  0.77723094873E+02 0.  0.
         23    2    1    2    0    0  0.18677589375E+01  0.17348489970E+02  0.30193758082E+03  0.31546580622E+03  0.89710164177E+02 0.  0.
         11    1    3    3    0    0 -0.58984619945E+02 -0.24213753471E+02 -0.22316002746E+02  0.67553647021E+02  0.00000000000E+00 0. -1.
        -12    1    3    3    0    0 -0.20017884872E+01 -0.76094637322E+01 -0.72818425519E+02  0.73242297824E+02  0.00000000000E+00 0.  1.
        -11    1    4    4    0    0  0.45579239156E+02  0.43730592388E+01  0.15310982988E+03  0.15980992051E+03  0.00000000000E+00 0.  1.
         11    1    4    4    0    0 -0.43711480219E+02  0.12975430731E+02  0.14882775094E+03  0.15565588570E+03  0.00000000000E+00 0. -1.
         21    1    1    2  502  501  0.59118649495E+02  0.14474727233E+02  0.22589145311E+03  0.23394760318E+03  0.00000000000E+00 0. -1.
<scales pt_clust_5="13000.00000" pt_clust_6="13000.00000" pt_clust_7="13000.00000" pt_clust_8="13000.00000" pt_clust_9="60.86487"></scales>
<clustering>
<clus scale="   60.865">  1  9  2 -1</clus>
<clus scale="   77.723">  5  6 -1 -1</clus>
<clus scale="   89.710">  7  8 -1 -1</clus>
<clus scale="  101.146">  2  5  1 -1</clus>
<clus scale="   60.865">  1  5  2 -1</clus>
</clustering>
</event>
<event>
 9    1  0.1973774E-005  0.1561827E+03  0.7546771E-02  0.1216286E+00
         -2   -1    0    0    0  501 -0.00000000000E+00  0.00000000000E+00  0.26619490216E+02  0.26619490216E+02  0.00000000000E+00 0.  1.
          1   -1    0    0  502    0  0.00000000000E+00 -0.00000000000E+00 -0.18251444997E+04  0.18251444997E+04  0.00000000000E+00 0. -1.
        -24    2    1    2    0    0  0.28534194543E+02 -0.41841009315E+02 -0.16657114945E+03  0.19161585917E+03  0.80036362613E+02 0.  0.
         23    2    1    2    0    0 -0.11981240344E+03 -0.49792489777E+02 -0.61478651471E+03  0.63479072087E+03  0.90346536055E+02 0.  0.
         11    1    3    3    0    0  0.33437503689E+02 -0.45926699456E+02 -0.17328072672E+03  0.18235552810E+03  0.00000000000E+00 0. -1.
        -12    1    3    3    0    0 -0.49033091462E+01  0.40856901412E+01  0.67095772705E+01  0.92603310773E+01  0.00000000000E+00 0.  1.
        -11    1    4    4    0    0 -0.96292565629E+02 -0.11077951653E+02 -0.52871824942E+03  0.53752950289E+03  0.00000000000E+00 0.  1.
         11    1    4    4    0    0 -0.23519837813E+02 -0.38714538123E+02 -0.86068265291E+02  0.97261217981E+02  0.00000000000E+00 0. -1.
         21    1    1    2  502  501  0.91278208899E+02  0.91633499092E+02 -0.10171673453E+04  0.10253574098E+04  0.00000000000E+00 0. -1.
<scales pt_clust_5="13000.00000" pt_clust_6="13000.00000" pt_clust_7="13000.00000" pt_clust_8="13000.00000" pt_clust_9="127.39914"></scales>
<clustering>
<clus scale="   80.036">  5  6 -1 -1</clus>
<clus scale="   90.347">  7  8 -1 -1</clus>
<clus scale="   94.714">  1  5  2 -1</clus>
<clus scale="  127.399">  2  9  1 -1</clus>
<clus scale="  127.399">  2  5  1 -1</clus>
</clustering>
</event>
<event>
 9    1  0.1973774E-005  0.1155992E+03  0.7546771E-02  0.1257286E+00
         -2   -1    0    0    0  501 -0.00000000000E+00  0.00000000000E+00  0.73900586202E+02  0.73900586202E+02  0.00000000000E+00 0.  1.
          1   -1    0    0  502    0  0.00000000000E+00 -0.00000000000E+00 -0.52660258694E+03  0.52660258694E+03  0.00000000000E+00 0. -1.
        -24    2    1    2    0    0 -0.84458752334E+01 -0.32844170763E+01  0.22300461736E+02  0.10344391975E+03  0.10060424313E+03 0.  0.
         23    2    1    2    0    0  0.24321414853E+02 -0.17622852502E+02 -0.36256858900E+03  0.38160137109E+03  0.11515871022E+03 0.  0.
         11    1    3    3    0    0 -0.11587128779E+02 -0.45766253850E+02 -0.12047465974E+02  0.48723228353E+02  0.00000000000E+00 0. -1.
        -12    1    3    3    0    0  0.31412535452E+01  0.42481836773E+02  0.34347927710E+02  0.54720691401E+02  0.00000000000E+00 0.  1.
        -13    1    4    4    0    0 -0.17559977614E+01  0.45847752543E+02 -0.96888163177E+02  0.10720268702E+03  0.00000000000E+00 0.  1.
         13    1    4    4    0    0  0.26077412614E+02 -0.63470605045E+02 -0.26568042582E+03  0.27439868407E+03  0.00000000000E+00 0. -1.
         21    1    1    2  502  501 -0.15875539619E+02  0.20907269578E+02 -0.11243387347E+03  0.11545788229E+03  0.00000000000E+00 0. -1.
<scales pt_clust_5="13000.00000" pt_clust_6="13000.00000" pt_clust_7="13000.00000" pt_clust_8="13000.00000" pt_clust_9="26.25160"></scales>
<clustering>
<clus scale="   26.252">  2  9  1 -1</clus>
<clus scale="  100.604">  5  6 -1 -1</clus>
<clus scale="  101.108">  1  5  2 -1</clus>
<clus scale="  115.159">  7  8 -1 -1</clus>
<clus scale="   26.252">  2  5  1 -1</clus>
</clustering>
</event>
<event>
 9    1  0.1973774E-005  0.9342083E+02  0.7546771E-02  0.1300209E+00
         -2   -1    0    0    0  501 -0.00000000000E+00  0.00000000000E+00  0.42794772561E+02  0.42794772561E+02  0.00000000000E+00 0.  1.
          1   -1    0    0  502    0  0.00000000000E+00 -0.00000000000E+00 -0.41765723224E+03  0.41765723224E+03  0.00000000000E+00 0. -1.
        -24    2    1    2    0    0  0.61290651945E+00 -0.11879693348E+02 -0.41675856726E+02  0.92241011244E+02  0.81424961487E+02 0.  0.
         23    2    1    2    0    0 -0.56679765361E+01  0.59540658896E+02 -0.22271146619E+03  0.24778725332E+03  0.90669232463E+02 0.  0.
         13    1    3    3    0    0  0.21282576788E+02 -0.40726552722E+02 -0.16904442139E+02  0.48962846479E+02  0.00000000000E+00 0. -1.
        -14    1    3    3    0    0 -0.20669670268E+02  0.28846859374E+02 -0.24771414588E+02  0.43278164765E+02  0.00000000000E+00 0.  1.
        -13    1    4    4    0    0  0.41823544479E+02  0.22100996541E+02 -0.82686859781E+02  0.95261638141E+02  0.00000000000E+00 0. -1.
         13    1    4    4    0    0 -0.47491521015E+02  0.37439662355E+02 -0.14002460641E+03  0.15252561518E+03  0.00000000000E+00 0.  1.
         21    1    1    2  502  501  0.50550700166E+01 -0.47660965548E+02 -0.11047513677E+03  0.12042374024E+03  0.00000000000E+00 0. -1.
<scales pt_clust_5="13000.00000" pt_clust_6="13000.00000" pt_clust_7="13000.00000" pt_clust_8="13000.00000" pt_clust_9="47.92829"></scales>
<clustering>
<clus scale="   47.928">  2  9  1 -1</clus>
<clus scale="   81.425">  5  6 -1 -1</clus>
<clus scale="   84.478">  1  5  2 -1</clus>
<clus scale="   90.669">  7  8 -1 -1</clus>
<clus scale="   47.928">  2  5  1 -1</clus>
</clustering>
</event>
<event>
 9    1  0.1973774E-005  0.1011412E+03  0.7546771E-02  0.1283298E+00
          1   -1    0    0  502    0  0.00000000000E+00  0.00000000000E+00  0.12869476632E+03  0.12869476632E+03  0.00000000000E+00 0. -1.
         -2   -1    0    0    0  501 -0.00000000000E+00 -0.00000000000E+00 -0.18157563053E+03  0.18157563053E+03  0.00000000000E+00 0.  1.
         23    2    1    2    0    0 -0.70733958062E+01 -0.62714368652E+02 -0.10246716338E+03  0.15097268541E+03  0.91159789417E+02 0.  0.
        -24    2    1    2    0    0  0.21489235089E+02  0.35394344608E+02  0.76558796495E+02  0.11828898373E+03  0.80102980566E+02 0.  0.
         11    1    4    4    0    0  0.49295476005E+02  0.18431257615E+02  0.27441601249E+02  0.59353152325E+02  0.00000000000E+00 0. -1.
        -12    1    4    4    0    0 -0.27806240916E+02  0.16963086994E+02  0.49117195246E+02  0.58935831402E+02  0.00000000000E+00 0.  1.
        -11    1    3    3    0    0  0.21334206713E+02 -0.70312441623E+02 -0.95950394172E+02  0.12085307594E+03  0.00000000000E+00 0.  1.
         11    1    3    3    0    0 -0.28407602519E+02  0.75980729709E+01 -0.65167692044E+01  0.30119609470E+02  0.00000000000E+00 0. -1.
         21    1    1    2  502  501 -0.14415839283E+02  0.27320024044E+02 -0.26972497329E+02  0.41008727707E+02  0.00000000000E+00 0. -1.
<scales pt_clust_5="13000.00000" pt_clust_6="13000.00000" pt_clust_7="13000.00000" pt_clust_8="13000.00000" pt_clust_9="30.89013"></scales>
<clustering>
<clus scale="   30.890">  2  9  1 -1</clus>
<clus scale="   80.103">  5  6 -1 -1</clus>
<clus scale="   91.160">  7  8 -1 -1</clus>
<clus scale="   91.301">  1  5  2 -1</clus>
<clus scale="   91.301">  1  5  2 -1</clus>
</clustering>
</event>
<event>
 9    1  0.1973774E-005  0.1596649E+03  0.7546771E-02  0.1191770E+00
         -4   -1    0    0    0  501 -0.00000000000E+00  0.00000000000E+00  0.40972486065E+03  0.40972486065E+03  0.00000000000E+00 0.  1.
          3   -1    0    0  502    0  0.00000000000E+00 -0.00000000000E+00 -0.21317024070E+03  0.21317024070E+03  0.00000000000E+00 0. -1.
         23    2    1    2    0    0  0.94555345977E+02 -0.83256834525E+02  0.33652718065E+03  0.37229271302E+03  0.97359678013E+02 0.  0.
        -24    2    1    2    0    0 -0.12509227305E+03  0.56740795734E+02 -0.13643739441E+03  0.21000557037E+03  0.81360815589E+02 0.  0.
         13    1    4    4    0    0 -0.88007905265E+02  0.54342961995E+02 -0.13841341010E+03  0.17279126426E+03  0.00000000000E+00 0. -1.
        -14    1    4    4    0    0 -0.37084367789E+02  0.23978337386E+01  0.19760156960E+01  0.37214306106E+02  0.00000000000E+00 0.  1.
        -13    1    3    3    0    0  0.84429050272E+02 -0.22875280669E+02  0.12853043899E+03  0.15547223785E+03  0.00000000000E+00 0. -1.
         13    1    3    3    0    0  0.10126295705E+02 -0.60381553856E+02  0.20799674166E+03  0.21682047517E+03  0.00000000000E+00 0.  1.
         21    1    1    2  502  501  0.30536927077E+02  0.26516038791E+02 -0.35351662867E+01  0.40596817968E+02  0.00000000000E+00 0.  1.
<scales pt_clust_5="13000.00000" pt_clust_6="13000.00000" pt_clust_7="13000.00000" pt_clust_8="13000.00000" pt_clust_9="40.44260"></scales>
<clustering>
<clus scale="   40.443">  2  9  1 -1</clus>
<clus scale="   81.361">  5  6 -1 -1</clus>
<clus scale="   97.360">  7  8 -1 -1</clus>
<clus scale="  150.444">  2  5  1 -1</clus>
<clus scale="   40.443">  2  5  1 -1</clus>
</clustering>
</event>
<event>
 9    1  0.1973774E-005  0.2007066E+03  0.7546771E-02  0.1150653E+00
          1   -1    0    0  502    0  0.00000000000E+00  0.00000000000E+00  0.98074304034E+03  0.98074304034E+03  0.00000000000E+00 0. -1.
         -2   -1    0    0    0  501 -0.00000000000E+00 -0.00000000000E+00 -0.11211636886E+03  0.11211636886E+03  0.00000000000E+00 0.  1.
        -24    2    1    2    0    0  0.17249335478E+03  0.44749507477E+02  0.36874704632E-01  0.19412840898E+03  0.77002350298E+02 0.  0.
         23    2    1    2    0    0 -0.17413688386E+03 -0.18200800222E+02  0.81629320555E+03  0.84005844702E+03  0.93320273941E+02 0.  0.
         11    1    3    3    0    0  0.35829538458E+02 -0.20292137444E+02  0.10246465306E+02  0.42432496031E+02  0.00000000000E+00 0. -1.
        -12    1    3    3    0    0  0.13666381632E+03  0.65041644921E+02 -0.10209590601E+02  0.15169591295E+03  0.00000000000E+00 0.  1.
        -11    1    4    4    0    0 -0.40996481910E+02 -0.40136669087E+02  0.15840580262E+03  0.16847570163E+03  0.00000000000E+00 0.  1.
         11    1    4    4    0    0 -0.13314040195E+03  0.21935868865E+02  0.65788740293E+03  0.67158274539E+03  0.00000000000E+00 0. -1.
         21    1    1    2  502  501  0.16435290828E+01 -0.26548707255E+02  0.52296591227E+02  0.58672553198E+02  0.00000000000E+00 0.  1.
<scales pt_clust_5="13000.00000" pt_clust_6="13000.00000" pt_clust_7="13000.00000" pt_clust_8="13000.00000" pt_clust_9="26.59953"></scales>
<clustering>
<clus scale="   26.600">  1  9  2 -1</clus>
<clus scale="   77.002">  5  6 -1 -1</clus>
<clus scale="   93.320">  7  8 -1 -1</clus>
<clus scale="  193.659">  2  5  1 -1</clus>
<clus scale="   26.600">  1  5  2 -1</clus>
</clustering>
</event>
<event>
 9    1  0.1973774E-005  0.9470944E+02  0.7546771E-02  0.1299575E+00
         -2   -1    0    0    0  501 -0.00000000000E+00  0.00000000000E+00  0.16403205726E+03  0.16403205726E+03  0.00000000000E+00 0.  1.
          1   -1    0    0  502    0  0.00000000000E+00 -0.00000000000E+00 -0.21302502220E+03  0.21302502220E+03  0.00000000000E+00 0. -1.
        -24    2    1    2    0    0  0.15963473684E+02  0.17328896539E+02  0.13174908342E+03  0.15531847226E+03  0.78809159970E+02 0.  0.
         23    2    1    2    0    0 -0.21174321634E+02  0.62027347122E+01 -0.17167668998E+03  0.19598843578E+03  0.91933428432E+02 0.  0.
         11    1    3    3    0    0 -0.31543362079E+02 -0.39522587673E+00  0.49746716917E+02  0.58905651161E+02  0.00000000000E+00 0. -1.
        -12    1    3    3    0    0  0.47506835763E+02  0.17724122416E+02  0.82002366502E+02  0.96412821095E+02  0.00000000000E+00 0.  1.
        -13    1    4    4    0    0 -0.31505637053E+02  0.36723918705E+02 -0.47897569339E+02  0.68083981374E+02  0.00000000000E+00 0.  1.
         13    1    4    4    0    0  0.10331315419E+02 -0.30521183993E+02 -0.12377912064E+03  0.12790445441E+03  0.00000000000E+00 0. -1.
         21    1    1    2  502  501  0.52108479498E+01 -0.23531631251E+02 -0.90653583746E+01  0.25750171420E+02  0.00000000000E+00 0. -1.
<scales pt_clust_5="13000.00000" pt_clust_6="13000.00000" pt_clust_7="13000.00000" pt_clust_8="13000.00000" pt_clust_9="24.10167"></scales>
<clustering>
<clus scale="   24.102">  2  9  1 -1</clus>
<clus scale="   78.809">  5  6 -1 -1</clus>
<clus scale="   82.031">  1  5  2 -1</clus>
<clus scale="   91.933">  7  8 -1 -1</clus>
<clus scale="   24.102">  2  5  1 -1</clus>
</clustering>
</event>
<event>
 9    1  0.1973774E-005  0.1071814E+03  0.7546771E-02  0.1277394E+00
          1   -1    0    0  502    0  0.00000000000E+00  0.00000000000E+00  0.27607923921E+03  0.27607923921E+03  0.00000000000E+00 0. -1.
         -2   -1    0    0    0  501 -0.00000000000E+00 -0.00000000000E+00 -0.12543988502E+03  0.12543988502E+03  0.00000000000E+00 0.  1.
        -24    2    1    2    0    0  0.10565814593E+02 -0.32598005400E+02 -0.85972465022E+02  0.12224329047E+03  0.79861698764E+02 0.  0.
         23    2    1    2    0    0  0.13094780276E+02  0.19351291190E+01  0.20390248374E+03  0.22858129403E+03  0.10245958770E+03 0.  0.
         13    1    3    3    0    0 -0.24208262949E+02  0.11795956059E+02 -0.45351771356E+02  0.52744362158E+02  0.00000000000E+00 0. -1.
        -14    1    3    3    0    0  0.34774077541E+02 -0.44393961459E+02 -0.40620693666E+02  0.69498928314E+02  0.00000000000E+00 0.  1.
        -11    1    4    4    0    0 -0.24026891345E+01  0.46763690513E+02  0.14819328375E+03  0.15541513766E+03  0.00000000000E+00 0. -1.
         11    1    4    4    0    0  0.15497469410E+02 -0.44828561394E+02  0.55709199996E+02  0.73166156377E+02  0.00000000000E+00 0.  1.
         21    1    1    2  502  501 -0.23660594868E+02  0.30662876281E+02  0.32709335473E+02  0.50694539730E+02  0.00000000000E+00 0. -1.
<scales pt_clust_5="13000.00000" pt_clust_6="13000.00000" pt_clust_7="13000.00000" pt_clust_8="13000.00000" pt_clust_9="38.73029"></scales>
<clustering>
<clus scale="   38.730">  1  9  2 -1</clus>
<clus scale="   79.862">  5  6 -1 -1</clus>
<clus scale="   85.836">  2  5  1 -1</clus>
<clus scale="  102.460">  7  8 -1 -1</clus>
<clus scale="   38.730">  1  5  2 -1</clus>
</clustering>
</event>
<event>
 9    1  0.1973774E-005  0.1700197E+03  0.7546771E-02  0.1180282E+00
         -2   -1    0    0    0  501 -0.00000000000E+00  0.00000000000E+00  0.53313859477E+02  0.53313859477E+02  0.00000000000E+00 0.  1.
          1   -1    0    0  502    0  0.00000000000E+00 -0.00000000000E+00 -0.96707439219E+03  0.96707439219E+03  0.00000000000E+00 0. -1.
        -24    2    1    2    0    0 -0.11666268126E+03  0.11912684451E+03 -0.28281388580E+03  0.33781769930E+03  0.79597221545E+02 0.  0.
         23    2    1    2    0    0  0.13895714787E+02 -0.12296624009E+03 -0.36079798239E+03  0.39350984715E+03  0.96752408835E+02 0.  0.
         11    1    3    3    0    0 -0.59260221195E+02  0.40369813657E+02 -0.19063210086E+03  0.20367153348E+03  0.00000000000E+00 0. -1.
        -12    1    3    3    0    0 -0.57402460068E+02  0.78757030853E+02 -0.92181784941E+02  0.13414616582E+03  0.00000000000E+00 0.  1.
        -11    1    4    4    0    0  0.23397040684E+02 -0.21394382017E+02 -0.19337614519E+02  0.37136026039E+02  0.00000000000E+00 0.  1.
         11    1    4    4    0    0 -0.95013258966E+01 -0.10157185807E+03 -0.34146036787E+03  0.35637382111E+03  0.00000000000E+00 0. -1.
         21    1    1    2  502  501  0.10276696648E+03  0.38393955777E+01 -0.27014866452E+03  0.28906070522E+03  0.00000000000E+00 0.  1.
<scales pt_clust_5="13000.00000" pt_clust_6="13000.00000" pt_clust_7="13000.00000" pt_clust_8="13000.00000" pt_clust_9="102.83866"></scales>
<clustering>
<clus scale="   79.597">  5  6 -1 -1</clus>
<clus scale="   96.752">  7  8 -1 -1</clus>
<clus scale="  102.839">  2  9  1 -1</clus>
<clus scale="  160.877">  1  5  2 -1</clus>
<clus scale="  102.839">  2  5  1 -1</clus>
</clustering>
</event>
<event>
 9    1  0.1973774E-005  0.1270480E+03  0.7546771E-02  0.1251413E+00
          1   -1    0    0  502    0  0.00000000000E+00  0.00000000000E+00  0.23782581039E+03  0.23782581039E+03  0.00000000000E+00 0. -1.
         -2   -1    0    0    0  501 -0.00000000000E+00 -0.00000000000E+00 -0.29104754645E+03  0.29104754645E+03  0.00000000000E+00 0.  1.
         23    2    1    2    0    0  0.67499632077E+02 -0.63225137648E+02 -0.19883722452E+03  0.23703506067E+03  0.89976440074E+02 0.  0.
        -24    2    1    2    0    0  0.17719342549E+00  0.10652374173E+02  0.18015219387E+03  0.19944331692E+03  0.84907710092E+02 0.  0.
         13    1    4    4    0    0  0.15712568822E+02 -0.33689661699E+02  0.61977972428E+02  0.72271344188E+02  0.00000000000E+00 0. -1.
        -14    1    4    4    0    0 -0.15535375396E+02  0.44342035873E+02  0.11817422145E+03  0.12717197273E+03  0.00000000000E+00 0.  1.
        -13    1    3    3    0    0  0.27399704004E+02  0.15567423470E+02 -0.97934505221E+02  0.10287981224E+03  0.00000000000E+00 0.  1.
         13    1    3    3    0    0  0.40099928073E+02 -0.78792561118E+02 -0.10090271930E+03  0.13415524843E+03  0.00000000000E+00 0. -1.
         21    1    1    2  502  501 -0.67676825502E+02  0.52572763474E+02 -0.34536705409E+02  0.92394979246E+02  0.00000000000E+00 0.  1.
<scales pt_clust_5="13000.00000" pt_clust_6="13000.00000" pt_clust_7="13000.00000" pt_clust_8="13000.00000" pt_clust_9="89.69633"></scales>
<clustering>
<clus scale="   84.908">  5  6 -1 -1</clus>
<clus scale="   85.573">  1  5  2 -1</clus>
<clus scale="   89.696">  1  9  2 -1</clus>
<clus scale="   89.976">  7  8 -1 -1</clus>
<clus scale="   85.573">  1  5  2 -1</clus>
</clustering>
</event>
<event>
 9    1  0.1973774E-005  0.1756481E+03  0.7546771E-02  0.1173503E+00
          1   -1    0    0  502    0  0.00000000000E+00  0.00000000000E+00  0.11559657726E+03  0.11559657726E+03  0.00000000000E+00 0. -1.
         -2   -1    0    0    0  501 -0.00000000000E+00 -0.00000000000E+00 -0.66158377443E+03  0.66158377443E+03  0.00000000000E+00 0.  1.
        -24    2    1    2    0    0 -0.76833032945E+02 -0.13383520149E+03 -0.55772622871E+03  0.58428568565E+03  0.80721993010E+02 0.  0.
         23    2    1    2    0    0  0.52074212646E+02  0.11305475498E+03 -0.81492827294E+01  0.15494244366E+03  0.91911091776E+02 0.  0.
         13    1    3    3    0    0  0.12375971350E+02 -0.41109893183E+02 -0.10019299817E+03  0.10900378372E+03  0.00000000000E+00 0. -1.
        -14    1    3    3    0    0 -0.89209004294E+02 -0.92725308302E+02 -0.45753323055E+03  0.47528190193E+03  0.00000000000E+00 0.  1.
        -11    1    4    4    0    0 -0.15607134154E+02  0.72067452172E+02 -0.15920036438E+02  0.75437045669E+02  0.00000000000E+00 0.  1.
         11    1    4    4    0    0  0.67681346800E+02  0.40987302808E+02  0.77707537087E+01  0.79505397989E+02  0.00000000000E+00 0. -1.
         21    1    1    2  502  501  0.24758820298E+02  0.20780446505E+02  0.19888314267E+02  0.37952222385E+02  0.00000000000E+00 0. -1.
<scales pt_clust_5="13000.00000" pt_clust_6="13000.00000" pt_clust_7="13000.00000" pt_clust_8="13000.00000" pt_clust_9="32.32377"></scales>
<clustering>
<clus scale="   32.324">  1  9  2 -1</clus>
<clus scale="   80.722">  5  6 -1 -1</clus>
<clus scale="   91.911">  7  8 -1 -1</clus>
<clus scale="  170.061">  2  5  1 -1</clus>
<clus scale="   32.324">  1  5  2 -1</clus>
</clustering>
</event>
<event>
 9    1  0.1973774E-005  0.1043750E+03  0.7546771E-02  0.1276243E+00
         -2   -1    0    0    0  501 -0.00000000000E+00  0.00000000000E+00  0.18296207511E+03  0.18296207511E+03  0.00000000000E+00 0.  1.
          1   -1    0    0  502    0  0.00000000000E+00 -0.00000000000E+00 -0.20242675189E+03  0.20242675189E+03  0.00000000000E+00 0. -1.
         23    2    1    2    0    0 -0.11580093965E+02 -0.48351603325E+02  0.13967379597E+03  0.17434636959E+03  0.91738275485E+02 0.  0.
        -24    2    1    2    0    0  0.45024482696E+02  0.39724497891E+02 -0.13679644773E+03  0.16990706914E+03  0.80931478782E+02 0.  0.
         13    1    4    4    0    0  0.37639852808E+02  0.36228412928E+02 -0.14747873144E+03  0.15645840549E+03  0.00000000000E+00 0. -1.
        -14    1    4    4    0    0  0.73846298883E+01  0.34960849628E+01  0.10682283710E+02  0.13448663648E+02  0.00000000000E+00 0.  1.
        -11    1    3    3    0    0 -0.41113454277E+02 -0.59850927505E+02  0.94984524563E+02  0.11955964851E+03  0.00000000000E+00 0.  1.
         11    1    3    3    0    0  0.29533360311E+02  0.11499324180E+02  0.44689271404E+02  0.54786721078E+02  0.00000000000E+00 0. -1.
         21    1    1    2  502  501 -0.33444388730E+02  0.86271054345E+01 -0.22342025026E+02  0.41135388268E+02  0.00000000000E+00 0. -1.
<scales pt_clust_5="13000.00000" pt_clust_6="13000.00000" pt_clust_7="13000.00000" pt_clust_8="13000.00000" pt_clust_9="34.53917"></scales>
<clustering>
<clus scale="   34.539">  2  9  1 -1</clus>
<clus scale="   80.931">  5  6 -1 -1</clus>
<clus scale="   91.738">  7  8 -1 -1</clus>
<clus scale="   95.016">  2  5  1 -1</clus>
<clus scale="   34.539">  2  5  1 -1</clus>
</clustering>
</event>
<event>
 9    1  0.1973774E-005  0.1262572E+03  0.7546771E-02  0.1238459E+00
         -2   -1    0    0    0  501 -0.00000000000E+00  0.00000000000E+00  0.57835359037E+02  0.57835359037E+02  0.00000000000E+00 0.  1.
          1   -1    0    0  502    0  0.00000000000E+00 -0.00000000000E+00 -0.69937298073E+03  0.69937298073E+03  0.00000000000E+00 0. -1.
        -24    2    1    2    0    0  0.10805672156E+03 -0.23715817957E+02 -0.68271898651E+02  0.14836100448E+03  0.71492939565E+02 0.  0.
         23    2    1    2    0    0 -0.48314973313E+02 -0.28219090590E+02 -0.19366036477E+03  0.22107608928E+03  0.90772499389E+02 0.  0.
         13    1    3    3    0    0  0.75489003547E+02 -0.36725201072E+02 -0.75093524128E+02  0.11263377565E+03  0.00000000000E+00 0. -1.
        -14    1    3    3    0    0  0.32567718014E+02  0.13009383115E+02  0.68216254776E+01  0.35727228829E+02  0.00000000000E+00 0.  1.
        -13    1    4    4    0    0 -0.15676289296E+02 -0.57526061108E+02 -0.84373645341E+02  0.10331459617E+03  0.00000000000E+00 0.  1.
         13    1    4    4    0    0 -0.32638684017E+02  0.29306970518E+02 -0.10928671943E+03  0.11776149311E+03  0.00000000000E+00 0. -1.
         21    1    1    2  502  501 -0.59741748248E+02  0.51934908548E+02 -0.37960535827E+03  0.38777124602E+03  0.00000000000E+00 0. -1.
<scales pt_clust_5="13000.00000" pt_clust_6="13000.00000" pt_clust_7="13000.00000" pt_clust_8="13000.00000" pt_clust_9="79.16004"></scales>
<clustering>
<clus scale="   71.493">  5  6 -1 -1</clus>
<clus scale="   79.160">  2  9  1 -1</clus>
<clus scale="   90.772">  7  8 -1 -1</clus>
<clus scale="  113.192">  1  5  2 -1</clus>
<clus scale="   79.160">  2  5  1 -1</clus>
</clustering>
</event>
<event>
 9    1  0.1973774E-005  0.2883307E+03  0.7546771E-02  0.1091574E+00
         -2   -1    0    0    0  501 -0.00000000000E+00  0.00000000000E+00  0.14757891660E+03  0.14757891660E+03  0.00000000000E+00 0.  1.
          1   -1    0    0  502    0  0.00000000000E+00 -0.00000000000E+00 -0.23393803329E+04  0.23393803329E+04  0.00000000000E+00 0. -1.
         23    2    1    2    0    0  0.27266120352E+03 -0.71134291802E+01 -0.27925468960E+02  0.28855044142E+03  0.89926595883E+02 0.  0.
        -24    2    1    2    0    0 -0.28951759705E+03 -0.62730020573E+02 -0.19111208983E+04  0.19356401640E+04  0.81020134640E+02 0.  0.
         13    1    4    4    0    0 -0.20147216205E+03 -0.65819427727E+02 -0.11431841888E+04  0.11626664692E+04  0.00000000000E+00 0. -1.
        -14    1    4    4    0    0 -0.88045434995E+02  0.30894071538E+01 -0.76793670951E+03  0.77297369481E+03  0.00000000000E+00 0.  1.
        -11    1    3    3    0    0  0.17562197261E+03 -0.47173033127E+02 -0.10678326449E+02  0.18216036609E+03  0.00000000000E+00 0.  1.
         11    1    3    3    0    0  0.97039230902E+02  0.40059603947E+02 -0.17247142512E+02  0.10639007532E+03  0.00000000000E+00 0. -1.
         21    1    1    2  502  501  0.16856393532E+02  0.69843449754E+02 -0.25275504906E+03  0.26276864406E+03  0.00000000000E+00 0. -1.
<scales pt_clust_5="13000.00000" pt_clust_6="13000.00000" pt_clust_7="13000.00000" pt_clust_8="13000.00000" pt_clust_9="71.84877"></scales>
<clustering>
<clus scale="   71.849">  2  9  1 -1</clus>
<clus scale="   81.020">  5  6 -1 -1</clus>
<clus scale="   89.927">  7  8 -1 -1</clus>
<clus scale="  285.678">  2  5  1 -1</clus>
<clus scale="   71.849">  2  5  1 -1</clus>
</clustering>
</event>
<event>
 9    1  0.1973774E-005  0.9446213E+02  0.7546771E-02  0.1295333E+00
          3   -1    0    0  502    0  0.00000000000E+00  0.00000000000E+00  0.10046103472E+03  0.10046103472E+03  0.00000000000E+00 0. -1.
         -4   -1    0    0    0  501 -0.00000000000E+00 -0.00000000000E+00 -0.18092883765E+03  0.18092883765E+03  0.00000000000E+00 0.  1.
        -24    2    1    2    0    0 -0.38906937268E+02  0.15171445427E+02 -0.12201485411E+03  0.15152127610E+03  0.79543384152E+02 0.  0.
         23    2    1    2    0    0  0.24999037934E+02 -0.33038823323E+02  0.48204926403E+02  0.10626774545E+03  0.85162216095E+02 0.  0.
         13    1    3    3    0    0 -0.17449593563E+02 -0.28291794767E+02 -0.20567261395E+02  0.39088696677E+02  0.00000000000E+00 0. -1.
        -14    1    3    3    0    0 -0.21457343706E+02  0.43463240194E+02 -0.10144759272E+03  0.11243257942E+03  0.00000000000E+00 0.  1.
        -11    1    4    4    0    0  0.23416721048E+02  0.16406140123E+02  0.49067247190E+02  0.56789955143E+02  0.00000000000E+00 0. -1.
         11    1    4    4    0    0  0.15823168860E+01 -0.49444963446E+02 -0.86232078701E+00  0.49477790311E+02  0.00000000000E+00 0.  1.
         21    1    1    2  502  501  0.13907899335E+02  0.17867377896E+02 -0.66578752241E+01  0.23600850817E+02  0.00000000000E+00 0.  1.
<scales pt_clust_5="13000.00000" pt_clust_6="13000.00000" pt_clust_7="13000.00000" pt_clust_8="13000.00000" pt_clust_9="22.64228"></scales>
<clustering>
<clus scale="   22.642">  1  9  2 -1</clus>
<clus scale="   79.543">  5  6 -1 -1</clus>
<clus scale="   85.162">  7  8 -1 -1</clus>
<clus scale="   89.430">  2  5  1 -1</clus>
<clus scale="   22.642">  1  5  2 -1</clus>
</clustering>
</event>
<event>
 9    1  0.1973774E-005  0.1295326E+03  0.7546771E-02  0.1231294E+00
         -2   -1    0    0    0  501 -0.00000000000E+00  0.00000000000E+00  0.60761421474E+03  0.60761421474E+03  0.00000000000E+00 0.  1.
          1   -1    0    0  502    0  0.00000000000E+00 -0.00000000000E+00 -0.86845755177E+02  0.86845755177E+02  0.00000000000E+00 0. -1.
        -24    2    1    2    0    0 -0.29092836602E+02 -0.87807355328E+02  0.50301985786E+03  0.51785324893E+03  0.81157163789E+02 0.  0.
         23    2    1    2    0    0  0.96991080179E+01  0.79083443326E+02  0.54637444676E+02  0.13402726486E+03  0.92896682725E+02 0.  0.
         11    1    3    3    0    0 -0.28944476142E+02 -0.39761666837E+02  0.94632432141E+02  0.10664928533E+03  0.00000000000E+00 0. -1.
        -12    1    3    3    0    0 -0.14836045957E+00 -0.48045688490E+02  0.40838742571E+03  0.41120396359E+03  0.00000000000E+00 0.  1.
        -13    1    4    4    0    0  0.23514452790E+02 -0.22288029730E+01  0.45215733215E+02  0.51013327502E+02  0.00000000000E+00 0.  1.
         13    1    4    4    0    0 -0.13815344772E+02  0.81312246299E+02  0.94217114616E+01  0.83013937361E+02  0.00000000000E+00 0. -1.
         21    1    1    2  502  501  0.19393728584E+02  0.87239120019E+01 -0.36888842967E+02  0.42579456131E+02  0.00000000000E+00 0.  1.
<scales pt_clust_5="13000.00000" pt_clust_6="13000.00000" pt_clust_7="13000.00000" pt_clust_8="13000.00000" pt_clust_9="21.26554"></scales>
<clustering>
<clus scale="   21.266">  2  9  1 -1</clus>
<clus scale="   81.157">  5  6 -1 -1</clus>
<clus scale="   92.897">  7  8 -1 -1</clus>
<clus scale="  121.389">  1  5  2 -1</clus>
<clus scale="   21.266">  2  5  1 -1</clus>
</clustering>
</event>
<event>
 9    1  0.1973774E-005  0.1305751E+03  0.7546771E-02  0.1242992E+00
          3   -1    0    0  502    0  0.00000000000E+00  0.00000000000E+00  0.57940329731E+03  0.57940329731E+03  0.00000000000E+00 0. -1.
         -4   -1    0    0    0  501 -0.00000000000E+00 -0.00000000000E+00 -0.85410968769E+02  0.85410968769E+02  0.00000000000E+00 0.  1.
         23    2    1    2    0    0  0.34601314357E+01 -0.76244814292E+01  0.10040473763E+02  0.93877529772E+02  0.92962757360E+02 0.  0.
        -24    2    1    2    0    0 -0.72536385778E+02 -0.70053397970E+02  0.43866988263E+03  0.45755314462E+03  0.82186424646E+02 0.  0.
         13    1    4    4    0    0 -0.86851295331E+02 -0.60395527290E+02  0.41489459810E+03  0.42816853545E+03  0.00000000000E+00 0. -1.
        -14    1    4    4    0    0  0.14314909553E+02 -0.96578706801E+01  0.23775284533E+02  0.29384609172E+02  0.00000000000E+00 0.  1.
        -13    1    3    3    0    0  0.27883646391E+02 -0.42319259715E+02  0.21803880038E+01  0.50726438577E+02  0.00000000000E+00 0.  1.
         13    1    3    3    0    0 -0.24423514955E+02  0.34694778286E+02  0.78600857594E+01  0.43151091194E+02  0.00000000000E+00 0. -1.
         21    1    1    2  502  501  0.69076254343E+02  0.77677879400E+02  0.45281972146E+02  0.11338359169E+03  0.00000000000E+00 0.  1.
<scales pt_clust_5="13000.00000" pt_clust_6="13000.00000" pt_clust_7="13000.00000" pt_clust_8="13000.00000" pt_clust_9="101.46546"></scales>
<clustering>
<clus scale="   82.186">  5  6 -1 -1</clus>
<clus scale="   92.963">  7  8 -1 -1</clus>
<clus scale="   93.339">  2  7  1 -1</clus>
<clus scale="  101.465">  2  9  1 -1</clus>
<clus scale="  130.575">  1  5  2 -1</clus>
</clustering>
</event>
<event>
 9    1  0.1973774E-005  0.1620421E+03  0.7546771E-02  0.1188310E+00
         -2   -1    0    0    0  501 -0.00000000000E+00  0.00000000000E+00  0.62724963904E+02  0.62724963904E+02  0.00000000000E+00 0.  1.
          1   -1    0    0  502    0  0.00000000000E+00 -0.00000000000E+00 -0.79318152526E+03  0.79318152526E+03  0.00000000000E+00 0. -1.
         23    2    1    2    0    0  0.88702596515E+02  0.11129460597E+03 -0.87072769498E+02  0.19019407389E+03  0.91309794696E+02 0.  0.
        -24    2    1    2    0    0 -0.61952533316E+02 -0.80360229123E+02 -0.52378529272E+03  0.53931501598E+03  0.78827474810E+02 0.  0.
         11    1    4    4    0    0 -0.79948798188E+02 -0.54471155215E+02 -0.40814017941E+03  0.41944883255E+03  0.00000000000E+00 0. -1.
        -12    1    4    4    0    0  0.17996264871E+02 -0.25889073908E+02 -0.11564511331E+03  0.11986618343E+03  0.00000000000E+00 0.  1.
        -11    1    3    3    0    0  0.11350611210E+02  0.64540344740E+02 -0.74040697498E+02  0.98875261617E+02  0.00000000000E+00 0. -1.
         11    1    3    3    0    0  0.77351985305E+02  0.46754261231E+02 -0.13032072000E+02  0.91318812270E+02  0.00000000000E+00 0.  1.
         21    1    1    2  502  501 -0.26750063199E+02 -0.30934376848E+02 -0.11959849914E+03  0.12639739929E+03  0.00000000000E+00 0. -1.
<scales pt_clust_5="13000.00000" pt_clust_6="13000.00000" pt_clust_7="13000.00000" pt_clust_8="13000.00000" pt_clust_9="40.89623"></scales>
<clustering>
<clus scale="   40.896">  2  9  1 -1</clus>
<clus scale="   78.827">  5  6 -1 -1</clus>
<clus scale="   91.310">  7  8 -1 -1</clus>
<clus scale="  155.351">  2  5  1 -1</clus>
<clus scale="   40.896">  2  5  1 -1</clus>
</clustering>
</event>
<event>
 9    1  0.1973774E-005  0.1175705E+03  0.7546771E-02  0.1250754E+00
         -2   -1    0    0    0  501 -0.00000000000E+00  0.00000000000E+00  0.88316032102E+02  0.88316032102E+02  0.00000000000E+00 0.  1.
          1   -1    0    0  502    0  0.00000000000E+00 -0.00000000000E+00 -0.18818633398E+03  0.18818633398E+03  0.00000000000E+00 0. -1.
         23    2    1    2    0    0 -0.77074032876E+02 -0.10644700696E+02 -0.31863046833E+02  0.12429042899E+03  0.91537646832E+02 0.  0.
        -24    2    1    2    0    0  0.63225366199E+02  0.34387612798E+02 -0.48891785218E+02  0.11873190378E+03  0.80789253427E+02 0.  0.
         11    1    4    4    0    0  0.60056431982E+02  0.29244971564E+02  0.26367143622E+01  0.66850547094E+02  0.00000000000E+00 0. -1.
        -12    1    4    4    0    0  0.31689342172E+01  0.51426412335E+01 -0.51528499581E+02  0.51881356690E+02  0.00000000000E+00 0.  1.
        -13    1    3    3    0    0 -0.37651608538E+02  0.37783973681E+02 -0.31291794908E+02  0.61842127398E+02  0.00000000000E+00 0. -1.
         13    1    3    3    0    0 -0.39422424338E+02 -0.48428674377E+02 -0.57125192568E+00  0.62448301589E+02  0.00000000000E+00 0.  1.
         21    1    1    2  502  501  0.13848666677E+02 -0.23742912101E+02 -0.19115469825E+02  0.33480033310E+02  0.00000000000E+00 0. -1.
<scales pt_clust_5="13000.00000" pt_clust_6="13000.00000" pt_clust_7="13000.00000" pt_clust_8="13000.00000" pt_clust_9="27.48657"></scales>
<clustering>
<clus scale="   27.487">  2  9  1 -1</clus>
<clus scale="   80.789">  5  6 -1 -1</clus>
<clus scale="   91.538">  7  8 -1 -1</clus>
<clus scale="  109.410">  2  5  1 -1</clus>
<clus scale="   27.487">  2  5  1 -1</clus>
</clustering>
</event>
<event>
 9    1  0.1973774E-005  0.2111769E+03  0.7546771E-02  0.1141528E+00
          1   -1    0    0  502    0  0.00000000000E+00  0.00000000000E+00  0.59867418679E+03  0.59867418679E+03  0.00000000000E+00 0. -1.
         -2   -1    0    0    0  501 -0.00000000000E+00 -0.00000000000E+00 -0.15438160669E+03  0.15438160669E+03  0.00000000000E+00 0.  1.
        -24    2    1    2    0    0 -0.17664123322E+03 -0.45781886708E+02 -0.18519047115E+02  0.20055414211E+03  0.81122761204E+02 0.  0.
         23    2    1    2    0    0  0.20377168912E+03  0.93199910630E+02  0.33391249141E+03  0.41250337338E+03  0.91936698343E+02 0.  0.
         13    1    3    3    0    0 -0.11572463556E+03 -0.50570662581E+02  0.20656465094E+02  0.12796981183E+03  0.00000000000E+00 0. -1.
        -14    1    3    3    0    0 -0.60916597662E+02  0.47887758725E+01 -0.39175512209E+02  0.72584330278E+02  0.00000000000E+00 0.  1.
        -13    1    4    4    0    0  0.62807147346E+02  0.62857158114E+02  0.75582691998E+02  0.11665549028E+03  0.00000000000E+00 0.  1.
         13    1    4    4    0    0  0.14096454177E+03  0.30342752516E+02  0.25832979941E+03  0.29584788309E+03  0.00000000000E+00 0. -1.
         21    1    1    2  502  501 -0.27130455895E+02 -0.47418023922E+02  0.12889913580E+03  0.13999827799E+03  0.00000000000E+00 0. -1.
<scales pt_clust_5="13000.00000" pt_clust_6="13000.00000" pt_clust_7="13000.00000" pt_clust_8="13000.00000" pt_clust_9="54.63086"></scales>
<clustering>
<clus scale="   54.631">  1  9  2 -1</clus>
<clus scale="   81.123">  5  6 -1 -1</clus>
<clus scale="   91.937">  7  8 -1 -1</clus>
<clus scale="  206.698">  2  5  1 -1</clus>
<clus scale="   54.631">  1  5  2 -1</clus>
</clustering>
</event>
<event>
 9    1  0.1973774E-005  0.1517074E+03  0.7546771E-02  0.1201487E+00
          1   -1    0    0  502    0  0.00000000000E+00  0.00000000000E+00  0.46142547321E+03  0.46142547321E+03  0.00000000000E+00 0. -1.
         -2   -1    0    0    0  501 -0.00000000000E+00 -0.00000000000E+00 -0.12250812025E+03  0.12250812025E+03  0.00000000000E+00 0.  1.
         23    2    1    2    0    0  0.91065711389E+02  0.70360519424E+02 -0.51015522510E+02  0.15984514883E+03  0.98510515096E+02 0.  0.
        -24    2    1    2    0    0 -0.80224456625E+02 -0.87755942606E+02  0.35797161937E+03  0.38611930658E+03  0.82506785994E+02 0.  0.
         11    1    4    4    0    0 -0.96705524158E+02 -0.72667023331E+02  0.31945483300E+03  0.34159017113E+03  0.00000000000E+00 0. -1.
        -12    1    4    4    0    0  0.16481067534E+02 -0.15088919275E+02  0.38516786370E+02  0.44529135453E+02  0.00000000000E+00 0.  1.
        -11    1    3    3    0    0  0.38776353233E+02  0.17936356584E+02 -0.71257893170E+02  0.83084329429E+02  0.00000000000E+00 0.  1.
         11    1    3    3    0    0  0.52289358156E+02  0.52424162840E+02  0.20242370661E+02  0.76760819406E+02  0.00000000000E+00 0. -1.
         21    1    1    2  502  501 -0.10841254764E+02  0.17395423182E+02  0.31961256096E+02  0.37969138044E+02  0.00000000000E+00 0. -1.
<scales pt_clust_5="13000.00000" pt_clust_6="13000.00000" pt_clust_7="13000.00000" pt_clust_8="13000.00000" pt_clust_9="20.49716"></scales>
<clustering>
<clus scale="   20.497">  1  9  2 -1</clus>
<clus scale="   82.507">  5  6 -1 -1</clus>
<clus scale="   98.511">  7  8 -1 -1</clus>
<clus scale="  141.839">  1  5  2 -1</clus>
<clus scale="   20.497">  1  5  2 -1</clus>
</clustering>
</event>
<event>
 9    1  0.1973774E-005  0.1084959E+03  0.7546771E-02  0.1265516E+00
          1   -1    0    0  502    0  0.00000000000E+00  0.00000000000E+00  0.57258439615E+02  0.57258439615E+02  0.00000000000E+00 0. -1.
         -2   -1    0    0    0  501 -0.00000000000E+00 -0.00000000000E+00 -0.76643999988E+03  0.76643999988E+03  0.00000000000E+00 0.  1.
        -24    2    1    2    0    0 -0.20637560834E+02  0.63765192718E+02 -0.61367537600E+03  0.62288495843E+03  0.83043937875E+02 0.  0.
         23    2    1    2    0    0  0.60520578005E+02 -0.88790783422E+01 -0.47059188837E+02  0.11744530982E+03  0.88528273169E+02 0.  0.
         11    1    3    3    0    0  0.22169914326E+02  0.36238908845E+02 -0.13536961289E+03  0.14187915883E+03  0.00000000000E+00 0. -1.
        -12    1    3    3    0    0 -0.42807475160E+02  0.27526283872E+02 -0.47830576311E+03  0.48100579960E+03  0.00000000000E+00 0.  1.
        -11    1    4    4    0    0 -0.65053793163E+01 -0.22044644029E+02  0.13072409711E+02  0.26441902089E+02  0.00000000000E+00 0.  1.
         11    1    4    4    0    0  0.67025957321E+02  0.13165565687E+02 -0.60131598548E+02  0.91003407731E+02  0.00000000000E+00 0. -1.
         21    1    1    2  502  501 -0.39883017171E+02 -0.54886114375E+02 -0.48446995428E+02  0.83368171240E+02  0.00000000000E+00 0.  1.
<scales pt_clust_5="13000.00000" pt_clust_6="13000.00000" pt_clust_7="13000.00000" pt_clust_8="13000.00000" pt_clust_9="67.84645"></scales>
<clustering>
<clus scale="   67.846">  1  9  2 -1</clus>
<clus scale="   83.044">  5  6 -1 -1</clus>
<clus scale="   88.528">  7  8 -1 -1</clus>
<clus scale="  104.069">  2  5  1 -1</clus>
<clus scale="   67.846">  1  5  2 -1</clus>
</clustering>
</event>
<event>
 9    1  0.1973774E-005  0.9669654E+02  0.7546771E-02  0.1294133E+00
         -2   -1    0    0    0  501 -0.00000000000E+00  0.00000000000E+00  0.27151968257E+02  0.27151968257E+02  0.00000000000E+00 0.  1.
          1   -1    0    0  502    0  0.00000000000E+00 -0.00000000000E+00 -0.63726540256E+03  0.63726540256E+03  0.00000000000E+00 0. -1.
         23    2    1    2    0    0  0.57927630129E+01 -0.24861850485E+02 -0.93109119254E+02  0.13307194297E+03  0.91581473038E+02 0.  0.
        -24    2    1    2    0    0 -0.24052499518E+02  0.45850468830E+02 -0.39865990522E+03  0.40977512138E+03  0.79404923327E+02 0.  0.
         11    1    4    4    0    0 -0.15832196773E+02  0.68287750428E+02 -0.31885032210E+03  0.32646501071E+03  0.00000000000E+00 0. -1.
        -12    1    4    4    0    0 -0.82203027446E+01 -0.22437281598E+02 -0.79809583113E+02  0.83310110668E+02  0.00000000000E+00 0.  1.
        -13    1    3    3    0    0  0.20674856115E+02  0.26639362012E+02 -0.63329229715E+02  0.71747450269E+02  0.00000000000E+00 0. -1.
         13    1    3    3    0    0 -0.14882093102E+02 -0.51501212497E+02 -0.29779889539E+02  0.61324492698E+02  0.00000000000E+00 0.  1.
         21    1    1    2  502  501  0.18259736505E+02 -0.20988618345E+02 -0.11834440983E+03  0.12157030647E+03  0.00000000000E+00 0.  1.
<scales pt_clust_5="13000.00000" pt_clust_6="13000.00000" pt_clust_7="13000.00000" pt_clust_8="13000.00000" pt_clust_9="27.81978"></scales>
<clustering>
<clus scale="   27.820">  2  9  1 -1</clus>
<clus scale="   79.405">  5  6 -1 -1</clus>
<clus scale="   85.254">  2  5  1 -1</clus>
<clus scale="   91.581">  7  8 -1 -1</clus>
<clus scale="   27.820">  2  5  1 -1</clus>
</clustering>
</event>
<event>
 9    1  0.1973774E-005  0.1349503E+03  0.7546771E-02  0.1224672E+00
          1   -1    0    0  502    0  0.00000000000E+00  0.00000000000E+00  0.34873584894E+03  0.34873584894E+03  0.00000000000E+00 0. -1.
         -2   -1    0    0    0  501 -0.00000000000E+00 -0.00000000000E+00 -0.74245780087E+02  0.74245780087E+02  0.00000000000E+00 0.  1.
         23    2    1    2    0    0  0.16984066651E+02 -0.92825529711E+02  0.40782728252E+02  0.13854288307E+03  0.92875519053E+02 0.  0.
        -24    2    1    2    0    0  0.80337223035E+01  0.10864106670E+03  0.19877974858E+03  0.23865711581E+03  0.74675353470E+02 0.  0.
         13    1    4    4    0    0  0.11837798036E+02  0.89709798296E+02  0.19978452034E+03  0.21932130753E+03  0.00000000000E+00 0. -1.
        -14    1    4    4    0    0 -0.38040757321E+01  0.18931268401E+02 -0.10047717589E+01  0.19335808277E+02  0.00000000000E+00 0.  1.
        -11    1    3    3    0    0  0.13131556920E+02 -0.55535275521E+02 -0.25412466843E+02  0.62469177083E+02  0.00000000000E+00 0.  1.
         11    1    3    3    0    0  0.38525097308E+01 -0.37290254190E+02  0.66195195096E+02  0.76073705987E+02  0.00000000000E+00 0. -1.
         21    1    1    2  502  501 -0.25017788954E+02 -0.15815536986E+02  0.34927592021E+02  0.45781630145E+02  0.00000000000E+00 0. -1.
<scales pt_clust_5="13000.00000" pt_clust_6="13000.00000" pt_clust_7="13000.00000" pt_clust_8="13000.00000" pt_clust_9="29.59765"></scales>
<clustering>
<clus scale="   29.598">  1  9  2 -1</clus>
<clus scale="   74.675">  5  6 -1 -1</clus>
<clus scale="   92.876">  7  8 -1 -1</clus>
<clus scale="  123.135">  1  5  2 -1</clus>
<clus scale="   29.598">  1  5  2 -1</clus>
</clustering>
</event>
<event>
 9    1  0.1973774E-005  0.9449437E+02  0.7546771E-02  0.1298899E+00
         -2   -1    0    0    0  501 -0.00000000000E+00  0.00000000000E+00  0.17811661679E+03  0.17811661679E+03  0.00000000000E+00 0.  1.
          1   -1    0    0  502    0  0.00000000000E+00 -0.00000000000E+00 -0.13367359144E+03  0.13367359144E+03  0.00000000000E+00 0. -1.
        -24    2    1    2    0    0 -0.20035049905E+02 -0.12117406057E+02  0.13589592242E+03  0.15972238304E+03  0.80593443656E+02 0.  0.
         23    2    1    2    0    0  0.22718157600E+02 -0.13152423495E+02 -0.65890120694E+02  0.11602314612E+03  0.91819178297E+02 0.  0.
         13    1    3    3    0    0 -0.11676621272E+02 -0.44239241018E+02  0.50720284595E+02  0.68308134212E+02  0.00000000000E+00 0. -1.
        -14    1    3    3    0    0 -0.83584286329E+01  0.32121834960E+02  0.85175637825E+02  0.91414248831E+02  0.00000000000E+00 0.  1.
        -11    1    4    4    0    0 -0.29760833360E+02 -0.18584633647E+02 -0.49696474399E+02  0.60834491678E+02  0.00000000000E+00 0. -1.
         11    1    4    4    0    0  0.52478990959E+02  0.54322101523E+01 -0.16193646295E+02  0.55188654446E+02  0.00000000000E+00 0.  1.
         21    1    1    2  502  501 -0.26831076951E+01  0.25269829552E+02 -0.25562776382E+02  0.36044679064E+02  0.00000000000E+00 0. -1.
<scales pt_clust_5="13000.00000" pt_clust_6="13000.00000" pt_clust_7="13000.00000" pt_clust_8="13000.00000" pt_clust_9="25.41187"></scales>
<clustering>
<clus scale="   25.412">  2  9  1 -1</clus>
<clus scale="   80.593">  5  6 -1 -1</clus>
<clus scale="   83.629">  1  5  2 -1</clus>
<clus scale="   91.819">  7  8 -1 -1</clus>
<clus scale="   25.412">  2  5  1 -1</clus>
</clustering>
</event>
<event>
 9    1  0.1973774E-005  0.1595984E+03  0.7546771E-02  0.1190638E+00
         -2   -1    0    0    0  501 -0.00000000000E+00  0.00000000000E+00  0.66556462223E+03  0.66556462223E+03  0.00000000000E+00 0.  1.
          1   -1    0    0  502    0  0.00000000000E+00 -0.00000000000E+00 -0.50178791015E+02  0.50178791015E+02  0.00000000000E+00 0. -1.
        -24    2    1    2    0    0 -0.94461157410E+02  0.72043989738E+02  0.30030092024E+03  0.33316501316E+03  0.81884287726E+02 0.  0.
         23    2    1    2    0    0  0.13313896134E+03 -0.74872680182E+02  0.25081597086E+03  0.30751528884E+03  0.91241987966E+02 0.  0.
         11    1    3    3    0    0 -0.13188283437E+02  0.15481193984E+02  0.39602163774E+01  0.20719109559E+02  0.00000000000E+00 0. -1.
        -12    1    3    3    0    0 -0.81272873973E+02  0.56562795754E+02  0.29634070387E+03  0.31244590360E+03  0.00000000000E+00 0.  1.
        -11    1    4    4    0    0  0.13350792080E+03 -0.36563883177E+02  0.18082851188E+03  0.22772841979E+03  0.00000000000E+00 0.  1.
         11    1    4    4    0    0 -0.36895946004E+00 -0.38308797005E+02  0.69987458978E+02  0.79786869053E+02  0.00000000000E+00 0. -1.
         21    1    1    2  502  501 -0.38677803934E+02  0.28286904442E+01  0.64268940111E+02  0.75063111245E+02  0.00000000000E+00 0.  1.
<scales pt_clust_5="13000.00000" pt_clust_6="13000.00000" pt_clust_7="13000.00000" pt_clust_8="13000.00000" pt_clust_9="38.78110"></scales>
<clustering>
<clus scale="   38.781">  2  9  1 -1</clus>
<clus scale="   81.884">  5  6 -1 -1</clus>
<clus scale="   91.242">  7  8 -1 -1</clus>
<clus scale="  154.440">  1  5  2 -1</clus>
<clus scale="   38.781">  2  5  1 -1</clus>
</clustering>
</event>
<event>
 9    1  0.1973774E-005  0.1555192E+03  0.7546771E-02  0.1195902E+00
          3   -1    0    0  502    0  0.00000000000E+00  0.00000000000E+00  0.42104576352E+03  0.42104576352E+03  0.00000000000E+00 0. -1.
         -4   -1    0    0    0  501 -0.00000000000E+00 -0.00000000000E+00 -0.11433741991E+03  0.11433741991E+03  0.00000000000E+00 0.  1.
         23    2    1    2    0    0 -0.29901353422E+02 -0.13632499248E+03  0.41671784658E+02  0.17307291303E+03  0.93483159321E+02 0.  0.
        -24    2    1    2    0    0 -0.97201722421E+01  0.11179746277E+03  0.58500420221E+02  0.15058251688E+03  0.81606622244E+02 0.  0.
         11    1    4    4    0    0 -0.42832039663E+02  0.64211821474E+02  0.50060934291E+02  0.91999123805E+02  0.00000000000E+00 0. -1.
        -12    1    4    4    0    0  0.33111867421E+02  0.47585641291E+02  0.84394859295E+01  0.58583393073E+02  0.00000000000E+00 0.  1.
        -13    1    3    3    0    0  0.19816607139E+02 -0.95207136297E+02  0.47620948091E+02  0.10828135305E+03  0.00000000000E+00 0.  1.
         13    1    3    3    0    0 -0.49717960561E+02 -0.41117856180E+02 -0.59491634332E+01  0.64791559980E+02  0.00000000000E+00 0. -1.
         21    1    1    2  502  501  0.39621525664E+02  0.24527529712E+02  0.20653613874E+03  0.21172775353E+03  0.00000000000E+00 0. -1.
<scales pt_clust_5="13000.00000" pt_clust_6="13000.00000" pt_clust_7="13000.00000" pt_clust_8="13000.00000" pt_clust_9="46.59898"></scales>
<clustering>
<clus scale="   46.599">  1  9  2 -1</clus>
<clus scale="   81.607">  5  6 -1 -1</clus>
<clus scale="   93.483">  7  8 -1 -1</clus>
<clus scale="  148.683">  1  5  2 -1</clus>
<clus scale="   46.599">  1  5  2 -1</clus>
</clustering>
</event>
<event>
 9    1  0.1973774E-005  0.1510249E+03  0.7546771E-02  0.1202297E+00
         -2   -1    0    0    0  501 -0.00000000000E+00  0.00000000000E+00  0.11628854031E+03  0.11628854031E+03  0.00000000000E+00 0.  1.
          1   -1    0    0  502    0  0.00000000000E+00 -0.00000000000E+00 -0.40078544298E+03  0.40078544298E+03  0.00000000000E+00 0. -1.
        -24    2    1    2    0    0  0.65692407583E+02  0.10945079309E+03  0.22214916143E+02  0.15074171266E+03  0.77036309059E+02 0.  0.
         23    2    1    2    0    0 -0.40988529983E+01 -0.98236353103E+02 -0.18565977921E+03  0.23004901442E+03  0.93732671747E+02 0.  0.
         11    1    3    3    0    0  0.25418200543E+02  0.80051911857E+02 -0.18927245014E+02  0.86096655653E+02  0.00000000000E+00 0. -1.
        -12    1    3    3    0    0  0.40274207040E+02  0.29398881236E+02  0.41142161157E+02  0.64645057006E+02  0.00000000000E+00 0.  1.
        -13    1    4    4    0    0 -0.26672830119E+02 -0.10479774862E+03 -0.12669132426E+03  0.16656740265E+03  0.00000000000E+00 0. -1.
         13    1    4    4    0    0  0.22573977121E+02  0.65613955156E+01 -0.58968454948E+02  0.63481611772E+02  0.00000000000E+00 0.  1.
         21    1    1    2  502  501 -0.61593554585E+02 -0.11214439991E+02 -0.12105203961E+03  0.13628325621E+03  0.00000000000E+00 0. -1.
<scales pt_clust_5="13000.00000" pt_clust_6="13000.00000" pt_clust_7="13000.00000" pt_clust_8="13000.00000" pt_clust_9="62.60615"></scales>
<clustering>
<clus scale="   62.606">  2  9  1 -1</clus>
<clus scale="   77.036">  5  6 -1 -1</clus>
<clus scale="   93.733">  7  8 -1 -1</clus>
<clus scale="  141.270">  1  5  2 -1</clus>
<clus scale="   62.606">  2  5  1 -1</clus>
</clustering>
</event>
<event>
 9    1  0.1973774E-005  0.1400543E+03  0.7546771E-02  0.1214776E+00
         -2   -1    0    0    0  501 -0.00000000000E+00  0.00000000000E+00  0.57012650354E+03  0.57012650354E+03  0.00000000000E+00 0.  1.
          1   -1    0    0  502    0  0.00000000000E+00 -0.00000000000E+00 -0.16455412603E+03  0.16455412603E+03  0.00000000000E+00 0. -1.
         23    2    1    2    0    0  0.41229648213E+02  0.87239145556E+02  0.50602121906E+03  0.52361715647E+03  0.93845085113E+02 0.  0.
        -24    2    1    2    0    0 -0.38723008714E+02 -0.10982957208E+03 -0.60472817666E+02  0.16507768076E+03  0.10015823830E+03 0.  0.
         13    1    4    4    0    0 -0.50702353066E+02 -0.67702502996E+02 -0.80636822531E+02  0.11686169033E+03  0.00000000000E+00 0. -1.
        -14    1    4    4    0    0  0.11979344352E+02 -0.42127069088E+02  0.20164004865E+02  0.48215990431E+02  0.00000000000E+00 0.  1.
        -13    1    3    3    0    0 -0.73492450778E+01  0.85579840009E+02  0.33269738434E+03  0.34360656275E+03  0.00000000000E+00 0.  1.
         13    1    3    3    0    0  0.48578893291E+02  0.16593055467E+01  0.17332383473E+03  0.18001059372E+03  0.00000000000E+00 0. -1.
         21    1    1    2  502  501 -0.25066394990E+01  0.22590426529E+02 -0.39976023880E+02  0.45985792345E+02  0.00000000000E+00 0. -1.
<scales pt_clust_5="13000.00000" pt_clust_6="13000.00000" pt_clust_7="13000.00000" pt_clust_8="13000.00000" pt_clust_9="22.72907"></scales>
<clustering>
<clus scale="   22.729">  2  9  1 -1</clus>
<clus scale="   93.845">  7  8 -1 -1</clus>
<clus scale="  100.158">  5  6 -1 -1</clus>
<clus scale="  135.611">  1  7  2 -1</clus>
<clus scale="   22.729">  2  5  1 -1</clus>
</clustering>
</event>
<event>
 9    1  0.1973774E-005  0.1540927E+03  0.7546771E-02  0.1197442E+00
         -2   -1    0    0    0  501 -0.00000000000E+00  0.00000000000E+00  0.54519364077E+03  0.54519364077E+03  0.00000000000E+00 0.  1.
          1   -1    0    0  502    0  0.00000000000E+00 -0.00000000000E+00 -0.74861470184E+02  0.74861470184E+02  0.00000000000E+00 0. -1.
        -24    2    1    2    0    0  0.64537157551E+01  0.12619430195E+03  0.32122450819E+03  0.35437549501E+03  0.80188244212E+02 0.  0.
         23    2    1    2    0    0  0.27999058842E+02 -0.12143063339E+03  0.52734704986E+02  0.16322263407E+03  0.91276136754E+02 0.  0.
         11    1    3    3    0    0  0.68413690122E+01  0.69380709144E+02  0.78054787681E+02  0.10465675808E+03  0.00000000000E+00 0. -1.
        -12    1    3    3    0    0 -0.38765325707E+00  0.56813592804E+02  0.24316972051E+03  0.24971873693E+03  0.00000000000E+00 0.  1.
        -11    1    4    4    0    0 -0.23213577317E+02 -0.15460850934E+01  0.14306172437E+02  0.27311666386E+02  0.00000000000E+00 0.  1.
         11    1    4    4    0    0  0.51212636160E+02 -0.11988454829E+03  0.38428532549E+02  0.13591096768E+03  0.00000000000E+00 0. -1.
         21    1    1    2  502  501 -0.34452774598E+02 -0.47636685606E+01  0.96372957414E+02  0.10245698188E+03  0.00000000000E+00 0.  1.
<scales pt_clust_5="13000.00000" pt_clust_6="13000.00000" pt_clust_7="13000.00000" pt_clust_8="13000.00000" pt_clust_9="34.78054"></scales>
<clustering>
<clus scale="   34.781">  1  9  2 -1</clus>
<clus scale="   80.188">  5  6 -1 -1</clus>
<clus scale="   91.276">  7  8 -1 -1</clus>
<clus scale="  147.795">  1  5  2 -1</clus>
<clus scale="  154.093">  2  5  1 -1</clus>
</clustering>
</event>
<event>
 9    1  0.1973774E-005  0.1389403E+03  0.7546771E-02  0.1239792E+00
          1   -1    0    0  502    0  0.00000000000E+00  0.00000000000E+00  0.23379252816E+03  0.23379252816E+03  0.00000000000E+00 0. -1.
         -2   -1    0    0    0  501 -0.00000000000E+00 -0.00000000000E+00 -0.13453802382E+03  0.13453802382E+03  0.00000000000E+00 0.  1.
        -24    2    1    2    0    0  0.18020232736E+02  0.14171641675E+02 -0.32333877130E+02  0.88763622189E+02  0.79422520724E+02 0.  0.
         23    2    1    2    0    0 -0.35715910036E+02  0.94781513324E+02  0.59473699587E+02  0.14771680912E+03  0.89576633429E+02 0.  0.
         13    1    3    3    0    0  0.44224425268E+02  0.40238629805E+01  0.19318346328E+01  0.44449108524E+02  0.00000000000E+00 0. -1.
        -14    1    3    3    0    0 -0.26204192532E+02  0.10147778695E+02 -0.34265711763E+02  0.44314513664E+02  0.00000000000E+00 0.  1.
        -11    1    4    4    0    0 -0.50559503417E+02  0.16873857195E+02  0.99685030788E+01  0.54225100240E+02  0.00000000000E+00 0. -1.
         11    1    4    4    0    0  0.14843593381E+02  0.77907656129E+02  0.49505196508E+02  0.93491708880E+02  0.00000000000E+00 0.  1.
         21    1    1    2  502  501  0.17695677301E+02 -0.10895315500E+03  0.72114681885E+02  0.13185012068E+03  0.00000000000E+00 0. -1.
<scales pt_clust_5="13000.00000" pt_clust_6="13000.00000" pt_clust_7="13000.00000" pt_clust_8="13000.00000" pt_clust_9="106.20937"></scales>
<clustering>
<clus scale="   79.423">  5  6 -1 -1</clus>
<clus scale="   82.665">  2  5  1 -1</clus>
<clus scale="   89.577">  7  8 -1 -1</clus>
<clus scale="  106.209">  1  9  2 -1</clus>
<clus scale="  106.209">  1  5  2 -1</clus>
</clustering>
</event>
<event>
 9    1  0.1973774E-005  0.1378937E+03  0.7546771E-02  0.1219969E+00
          3   -1    0    0  502    0  0.00000000000E+00  0.00000000000E+00  0.59862822296E+03  0.59862822296E+03  0.00000000000E+00 0. -1.
         -4   -1    0    0    0  501 -0.00000000000E+00 -0.00000000000E+00 -0.72524889022E+02  0.72524889022E+02  0.00000000000E+00 0.  1.
         23    2    1    2    0    0  0.71246757736E+02 -0.75556442604E+02  0.84960424872E+02  0.16474494803E+03  0.95591566568E+02 0.  0.
        -24    2    1    2    0    0  0.18664872302E+02  0.12023916824E+03  0.29770747735E+03  0.33132426904E+03  0.79625336113E+02 0.  0.
         13    1    4    4    0    0 -0.10564897906E+02  0.11228293808E+03  0.20752689628E+03  0.23619163392E+03  0.00000000000E+00 0. -1.
        -14    1    4    4    0    0  0.29229770207E+02  0.79562301580E+01  0.90180581066E+02  0.95132635126E+02  0.00000000000E+00 0.  1.
        -13    1    3    3    0    0  0.37835763941E+02 -0.89348341167E+02  0.84391627905E+02  0.12859478202E+03  0.00000000000E+00 0.  1.
         13    1    3    3    0    0  0.33410993794E+02  0.13791898563E+02  0.56879696738E+00  0.36150166006E+02  0.00000000000E+00 0. -1.
         21    1    1    2  502  501 -0.89911630037E+02 -0.44682725633E+02  0.14343543172E+03  0.17508389491E+03  0.00000000000E+00 0.  1.
<scales pt_clust_5="13000.00000" pt_clust_6="13000.00000" pt_clust_7="13000.00000" pt_clust_8="13000.00000" pt_clust_9="100.40243"></scales>
<clustering>
<clus scale="   79.625">  5  6 -1 -1</clus>
<clus scale="   95.592">  7  8 -1 -1</clus>
<clus scale="  100.402">  1  9  2 -1</clus>
<clus scale="  127.346">  1  5  2 -1</clus>
<clus scale="  100.402">  1  5  2 -1</clus>
</clustering>
</event>
<event>
 9    1  0.1973774E-005  0.9594066E+02  0.7546771E-02  0.1298280E+00
         -2   -1    0    0    0  501 -0.00000000000E+00  0.00000000000E+00  0.10130789945E+03  0.10130789945E+03  0.00000000000E+00 0.  1.
          1   -1    0    0  502    0  0.00000000000E+00 -0.00000000000E+00 -0.48329775638E+03  0.48329775638E+03  0.00000000000E+00 0. -1.
        -24    2    1    2    0    0 -0.99405109676E+00  0.24966177930E+01  0.71443084246E+02  0.10779005383E+03  0.80668210465E+02 0.  0.
         23    2    1    2    0    0  0.60670750494E+01 -0.41320897777E+02 -0.27631799495E+03  0.29542441021E+03  0.95810864818E+02 0.  0.
         13    1    3    3    0    0 -0.98248978275E+01 -0.37682445631E+02  0.41489732805E+02  0.56902488999E+02  0.00000000000E+00 0. -1.
        -14    1    3    3    0    0  0.88308467308E+01  0.40179063424E+02  0.29953351441E+02  0.50887564828E+02  0.00000000000E+00 0.  1.
        -13    1    4    4    0    0 -0.30735246440E+02 -0.34533357370E+02 -0.59237417926E+02  0.75141731598E+02  0.00000000000E+00 0.  1.
         13    1    4    4    0    0  0.36802321489E+02 -0.67875404070E+01 -0.21708057703E+03  0.22028267861E+03  0.00000000000E+00 0. -1.
         21    1    1    2  502  501 -0.50730239527E+01  0.38824279984E+02 -0.17711494622E+03  0.18139119180E+03  0.00000000000E+00 0.  1.
<scales pt_clust_5="13000.00000" pt_clust_6="13000.00000" pt_clust_7="13000.00000" pt_clust_8="13000.00000" pt_clust_9="39.15431"></scales>
<clustering>
<clus scale="   39.154">  2  9  1 -1</clus>
<clus scale="   80.668">  5  6 -1 -1</clus>
<clus scale="   80.822">  1  5  2 -1</clus>
<clus scale="   95.811">  7  8 -1 -1</clus>
<clus scale="   39.154">  2  5  1 -1</clus>
</clustering>
</event>
<event>
 9    1  0.1973774E-005  0.8841143E+02  0.7546771E-02  0.1313580E+00
          1   -1    0    0  502    0  0.00000000000E+00  0.00000000000E+00  0.21414986981E+02  0.21414986981E+02  0.00000000000E+00 0. -1.
         -2   -1    0    0    0  501 -0.00000000000E+00 -0.00000000000E+00 -0.46247352816E+03  0.46247352816E+03  0.00000000000E+00 0.  1.
         23    2    1    2    0    0 -0.98100837488E+00 -0.17121830727E+02 -0.27806644289E+03  0.29216703229E+03  0.88014252428E+02 0.  0.
        -24    2    1    2    0    0  0.18054515575E+01 -0.58745839329E+01 -0.12338294572E+03  0.14591318927E+03  0.77650094119E+02 0.  0.
         13    1    4    4    0    0 -0.10572530712E+02  0.28196270551E+02 -0.95630765344E+02  0.10025991900E+03  0.00000000000E+00 0. -1.
        -14    1    4    4    0    0  0.12377982269E+02 -0.34070854484E+02 -0.27752180381E+02  0.45653270269E+02  0.00000000000E+00 0.  1.
        -13    1    3    3    0    0  0.39147491420E+02 -0.18092839357E+02 -0.89151088482E+02  0.99034304652E+02  0.00000000000E+00 0.  1.
         13    1    3    3    0    0 -0.40128499794E+02  0.97100862939E+00 -0.18891535441E+03  0.19313272764E+03  0.00000000000E+00 0. -1.
         21    1    1    2  502  501 -0.82444318258E+00  0.22996414660E+02 -0.39609152570E+02  0.45808293584E+02  0.00000000000E+00 0. -1.
<scales pt_clust_5="13000.00000" pt_clust_6="13000.00000" pt_clust_7="13000.00000" pt_clust_8="13000.00000" pt_clust_9="23.01119"></scales>
<clustering>
<clus scale="   23.011">  1  9  2 -1</clus>
<clus scale="   77.650">  5  6 -1 -1</clus>
<clus scale="   78.100">  1  5  2 -1</clus>
<clus scale="   88.014">  7  8 -1 -1</clus>
<clus scale="   23.011">  1  5  2 -1</clus>
</clustering>
</event>
<event>
 9    1  0.1973774E-005  0.2182482E+03  0.7546771E-02  0.1163297E+00
          1   -1    0    0  502    0  0.00000000000E+00  0.00000000000E+00  0.91025890432E+03  0.91025890432E+03  0.00000000000E+00 0. -1.
         -2   -1    0    0    0  501 -0.00000000000E+00 -0.00000000000E+00 -0.13345763214E+03  0.13345763214E+03  0.00000000000E+00 0.  1.
         23    2    1    2    0    0  0.19767982326E+03  0.72434306506E+02  0.70623181160E+01  0.22951508347E+03  0.91122203209E+02 0.  0.
        -24    2    1    2    0    0 -0.45508588988E+02 -0.56502294557E+02  0.30515211842E+03  0.32506870883E+03  0.85371594360E+02 0.  0.
         11    1    4    4    0    0 -0.51369139968E+02 -0.19255981622E+02  0.81392165690E+02  0.98154296926E+02  0.00000000000E+00 0. -1.
        -12    1    4    4    0    0  0.58605509797E+01 -0.37246312935E+02  0.22375995273E+03  0.22691441190E+03  0.00000000000E+00 0.  1.
        -11    1    3    3    0    0  0.12446265972E+03  0.43225639911E+02 -0.40016965518E+02  0.13769810144E+03  0.00000000000E+00 0.  1.
         11    1    3    3    0    0  0.73217163544E+02  0.29208666595E+02  0.47079283634E+02  0.91816982031E+02  0.00000000000E+00 0. -1.
         21    1    1    2  502  501 -0.15217123428E+03 -0.15932011949E+02  0.46458683565E+03  0.48913274415E+03  0.00000000000E+00 0. -1.
<scales pt_clust_5="13000.00000" pt_clust_6="13000.00000" pt_clust_7="13000.00000" pt_clust_8="13000.00000" pt_clust_9="198.31548"></scales>
<clustering>
<clus scale="   85.372">  5  6 -1 -1</clus>
<clus scale="   91.122">  7  8 -1 -1</clus>
<clus scale="  112.035">  1  5  2 -1</clus>
<clus scale="  198.315">  1  9  2 -1</clus>
<clus scale="  112.035">  1  5  2 -1</clus>
</clustering>
</event>
<event>
 9    1  0.1973774E-005  0.8843103E+02  0.7546771E-02  0.1315314E+00
         -2   -1    0    0    0  501 -0.00000000000E+00  0.00000000000E+00  0.49305263281E+03  0.49305263281E+03  0.00000000000E+00 0.  1.
          1   -1    0    0  502    0  0.00000000000E+00 -0.00000000000E+00 -0.50108192987E+02  0.50108192987E+02  0.00000000000E+00 0. -1.
        -24    2    1    2    0    0 -0.15569185401E+02  0.34159881122E+02  0.43456739211E+03  0.44374132351E+03  0.81536782483E+02 0.  0.
         23    2    1    2    0    0  0.13706578105E+02 -0.10676799993E+02  0.20917876264E+02  0.72732486983E+02  0.67458081606E+02 0.  0.
         11    1    3    3    0    0  0.32609630639E+02  0.49223018077E+01  0.14006127234E+03  0.14389154623E+03  0.00000000000E+00 0. -1.
        -12    1    3    3    0    0 -0.48178816040E+02  0.29237579315E+02  0.29450611976E+03  0.29984977728E+03  0.00000000000E+00 0.  1.
        -13    1    4    4    0    0 -0.19406922124E+02 -0.25280634340E+02  0.20951313641E+01  0.31939453257E+02  0.00000000000E+00 0. -1.
         13    1    4    4    0    0  0.33113500228E+02  0.14603834347E+02  0.18822744900E+02  0.40793033726E+02  0.00000000000E+00 0.  1.
         21    1    1    2  502  501  0.18626072966E+01 -0.23483081129E+02 -0.12540828545E+02  0.26687015304E+02  0.00000000000E+00 0. -1.
<scales pt_clust_5="13000.00000" pt_clust_6="13000.00000" pt_clust_7="13000.00000" pt_clust_8="13000.00000" pt_clust_9="23.55683"></scales>
<clustering>
<clus scale="   23.557">  2  9  1 -1</clus>
<clus scale="   67.458">  7  8 -1 -1</clus>
<clus scale="   75.647">  2  7  1 -1</clus>
<clus scale="   81.537">  5  6 -1 -1</clus>
<clus scale="   23.557">  2  5  1 -1</clus>
</clustering>
</event>
<event>
 9    1  0.1973774E-005  0.9089170E+02  0.7546771E-02  0.1307527E+00
         -2   -1    0    0    0  501 -0.00000000000E+00  0.00000000000E+00  0.24863647732E+03  0.24863647732E+03  0.00000000000E+00 0.  1.
          1   -1    0    0  502    0  0.00000000000E+00 -0.00000000000E+00 -0.19235026156E+03  0.19235026156E+03  0.00000000000E+00 0. -1.
        -24    2    1    2    0    0 -0.13925864175E+01  0.35610297910E+00  0.21788129193E+03  0.23218272198E+03  0.80215290970E+02 0.  0.
         23    2    1    2    0    0 -0.22335144618E+02 -0.10062637910E+01 -0.15955127103E+03  0.18497955325E+03  0.90889800195E+02 0.  0.
         11    1    3    3    0    0 -0.45978307208E+01 -0.34059336613E+02  0.16810716496E+03  0.17158437391E+03  0.00000000000E+00 0. -1.
        -12    1    3    3    0    0  0.32052443033E+01  0.34415439592E+02  0.49774126968E+02  0.60598348070E+02  0.00000000000E+00 0.  1.
        -11    1    4    4    0    0 -0.28782069336E+02 -0.26270102128E+02 -0.21536591929E+02  0.44523595688E+02  0.00000000000E+00 0.  1.
         11    1    4    4    0    0  0.64469247177E+01  0.25263838337E+02 -0.13801467911E+03  0.14045595756E+03  0.00000000000E+00 0. -1.
         21    1    1    2  502  501  0.23727731036E+02  0.65016081190E+00 -0.20438051370E+01  0.23824463659E+02  0.00000000000E+00 0.  1.
<scales pt_clust_5="13000.00000" pt_clust_6="13000.00000" pt_clust_7="13000.00000" pt_clust_8="13000.00000" pt_clust_9="23.73664"></scales>
<clustering>
<clus scale="   23.737">  2  9  1 -1</clus>
<clus scale="   80.215">  5  6 -1 -1</clus>
<clus scale="   80.217">  1  5  2 -1</clus>
<clus scale="   90.890">  7  8 -1 -1</clus>
<clus scale="   23.737">  2  5  1 -1</clus>
</clustering>
</event>
<event>
 9    1  0.1973774E-005  0.1009810E+03  0.7546771E-02  0.1289056E+00
          3   -1    0    0  502    0  0.00000000000E+00  0.00000000000E+00  0.16154608389E+03  0.16154608389E+03  0.00000000000E+00 0. -1.
         -4   -1    0    0    0  501 -0.00000000000E+00 -0.00000000000E+00 -0.14494996685E+03  0.14494996685E+03  0.00000000000E+00 0.  1.
        -24    2    1    2    0    0 -0.81625499093E+00  0.10891818999E+01 -0.81994926302E+02  0.11599379533E+03  0.82033773694E+02 0.  0.
         23    2    1    2    0    0 -0.33086526948E+02  0.28659378583E+02  0.40792121917E+02  0.11718724472E+03  0.10076097890E+03 0.  0.
         13    1    3    3    0    0  0.35277745992E+02  0.51349086543E+00 -0.69235202456E+02  0.77706475240E+02  0.00000000000E+00 0. -1.
        -14    1    3    3    0    0 -0.36094000983E+02  0.57569103449E+00 -0.12759723846E+02  0.38287320091E+02  0.00000000000E+00 0.  1.
        -11    1    4    4    0    0 -0.31956948186E+02 -0.10286432073E+02 -0.24218250073E+02  0.41395420746E+02  0.00000000000E+00 0.  1.
         11    1    4    4    0    0 -0.11295787625E+01  0.38945810656E+02  0.65010371990E+02  0.75791823979E+02  0.00000000000E+00 0. -1.
         21    1    1    2  502  501  0.33902781939E+02 -0.29748560483E+02  0.57798921424E+02  0.73315010685E+02  0.00000000000E+00 0.  1.
<scales pt_clust_5="13000.00000" pt_clust_6="13000.00000" pt_clust_7="13000.00000" pt_clust_8="13000.00000" pt_clust_9="45.10405"></scales>
<clustering>
<clus scale="   45.104">  1  9  2 -1</clus>
<clus scale="   82.034">  5  6 -1 -1</clus>
<clus scale="   82.304">  2  5  1 -1</clus>
<clus scale="  100.761">  7  8 -1 -1</clus>
<clus scale="   45.104">  1  5  2 -1</clus>
</clustering>
</event>
<event>
 9    1  0.1973774E-005  0.1013935E+03  0.7546771E-02  0.1283080E+00
         -4   -1    0    0    0  501 -0.00000000000E+00  0.00000000000E+00  0.36785818718E+03  0.36785818718E+03  0.00000000000E+00 0.  1.
          3   -1    0    0  502    0  0.00000000000E+00 -0.00000000000E+00 -0.69411400041E+02  0.69411400041E+02  0.00000000000E+00 0. -1.
        -24    2    1    2    0    0  0.51254438016E+02 -0.30336128308E+01  0.30505996258E+03  0.31874370728E+03  0.76809829696E+02 0.  0.
         23    2    1    2    0    0 -0.31686836826E+02  0.79628762177E+01  0.57308457790E+01  0.94870785062E+02  0.88882845584E+02 0.  0.
         13    1    3    3    0    0  0.34116343325E+02 -0.20312420677E+01  0.37904635422E+02  0.51037360949E+02  0.00000000000E+00 0. -1.
        -14    1    3    3    0    0  0.17138094691E+02 -0.10023707631E+01  0.26715532716E+03  0.26770634633E+03  0.00000000000E+00 0.  1.
        -13    1    4    4    0    0  0.13662510142E+02  0.37203498120E+02 -0.47072221056E+01  0.39911431892E+02  0.00000000000E+00 0.  1.
         13    1    4    4    0    0 -0.45349346968E+02 -0.29240621902E+02  0.10438067885E+02  0.54959353169E+02  0.00000000000E+00 0. -1.
         21    1    1    2  502  501 -0.19567601190E+02 -0.49292633869E+01 -0.12344021220E+02  0.23655094879E+02  0.00000000000E+00 0. -1.
<scales pt_clust_5="13000.00000" pt_clust_6="13000.00000" pt_clust_7="13000.00000" pt_clust_8="13000.00000" pt_clust_9="20.17892"></scales>
<clustering>
<clus scale="   20.179">  2  9  1 -1</clus>
<clus scale="   76.810">  5  6 -1 -1</clus>
<clus scale="   88.883">  7  8 -1 -1</clus>
<clus scale="   90.996">  1  5  2 -1</clus>
<clus scale="   20.179">  2  5  1 -1</clus>
</clustering>
</event>
<event>
 9    1  0.1973774E-005  0.1282279E+03  0.7546771E-02  0.1233224E+00
         -2   -1    0    0    0  501 -0.00000000000E+00  0.00000000000E+00  0.17466757663E+03  0.17466757663E+03  0.00000000000E+00 0.  1.
          1   -1    0    0  502    0  0.00000000000E+00 -0.00000000000E+00 -0.27642039157E+03  0.27642039157E+03  0.00000000000E+00 0. -1.
        -24    2    1    2    0    0 -0.27418995030E+02  0.59646378007E+02  0.15959991878E+02  0.10511449325E+03  0.80528526953E+02 0.  0.
         23    2    1    2    0    0  0.17692636671E+02 -0.11709614950E+03  0.58048772356E+02  0.16080541343E+03  0.92000996716E+02 0.  0.
         13    1    3    3    0    0 -0.21960324256E+02  0.58910125069E+02 -0.22112602493E+02  0.66645523977E+02  0.00000000000E+00 0. -1.
        -14    1    3    3    0    0 -0.54586707738E+01  0.73625293815E+00  0.38072594371E+02  0.38468969276E+02  0.00000000000E+00 0.  1.
        -13    1    4    4    0    0 -0.24152070084E+01 -0.10010936713E+03  0.34560238382E+01  0.10019811731E+03  0.00000000000E+00 0. -1.
         13    1    4    4    0    0  0.20107843679E+02 -0.16986782376E+02  0.54592748517E+02  0.60607296125E+02  0.00000000000E+00 0.  1.
         21    1    1    2  502  501  0.97263583593E+01  0.57449771494E+02 -0.17576157917E+03  0.18516806151E+03  0.00000000000E+00 0. -1.
<scales pt_clust_5="13000.00000" pt_clust_6="13000.00000" pt_clust_7="13000.00000" pt_clust_8="13000.00000" pt_clust_9="58.26730"></scales>
<clustering>
<clus scale="   58.267">  2  9  1 -1</clus>
<clus scale="   80.529">  5  6 -1 -1</clus>
<clus scale="   92.001">  7  8 -1 -1</clus>
<clus scale="  120.262">  1  5  2 -1</clus>
<clus scale="   58.267">  2  5  1 -1</clus>
</clustering>
</event>
<event>
 9    1  0.1973774E-005  0.1481976E+03  0.7546771E-02  0.1209952E+00
         -2   -1    0    0    0  501 -0.00000000000E+00  0.00000000000E+00  0.88135075875E+02  0.88135075875E+02  0.00000000000E+00 0.  1.
          1   -1    0    0  502    0  0.00000000000E+00 -0.00000000000E+00 -0.33288887560E+03  0.33288887560E+03  0.00000000000E+00 0. -1.
         23    2    1    2    0    0  0.23473602358E+02  0.10653612628E+03 -0.25556518726E+02  0.15700691293E+03  0.10998672124E+03 0.  0.
        -24    2    1    2    0    0 -0.11968540150E+01 -0.81225445306E+02 -0.16256221987E+03  0.19810486791E+03  0.78867343913E+02 0.  0.
         13    1    4    4    0    0 -0.24328628891E+02  0.86810314896E+00 -0.59759764977E+02  0.64528019472E+02  0.00000000000E+00 0. -1.
        -14    1    4    4    0    0  0.23131774876E+02 -0.82093548455E+02 -0.10280245489E+03  0.13357684844E+03  0.00000000000E+00 0.  1.
        -13    1    3    3    0    0  0.59283746310E+02  0.30534179898E+02  0.66800359749E+01  0.67018815263E+02  0.00000000000E+00 0. -1.
         13    1    3    3    0    0 -0.35810143952E+02  0.76001946381E+02 -0.32236554700E+02  0.89988097671E+02  0.00000000000E+00 0.  1.
         21    1    1    2  502  501 -0.22276748343E+02 -0.25310680973E+02 -0.56635061124E+02  0.65912170626E+02  0.00000000000E+00 0.  1.
<scales pt_clust_5="13000.00000" pt_clust_6="13000.00000" pt_clust_7="13000.00000" pt_clust_8="13000.00000" pt_clust_9="33.71771"></scales>
<clustering>
<clus scale="   33.718">  2  9  1 -1</clus>
<clus scale="   78.867">  5  6 -1 -1</clus>
<clus scale="  109.987">  7  8 -1 -1</clus>
<clus scale="  126.829">  2  5  1 -1</clus>
<clus scale="   33.718">  2  5  1 -1</clus>
</clustering>
</event>
<event>
 9    1  0.1973774E-005  0.1173262E+03  0.7546771E-02  0.1251376E+00
         -2   -1    0    0    0  501 -0.00000000000E+00  0.00000000000E+00  0.11250016345E+03  0.11250016345E+03  0.00000000000E+00 0.  1.
          1   -1    0    0  502    0  0.00000000000E+00 -0.00000000000E+00 -0.24105057621E+03  0.24105057621E+03  0.00000000000E+00 0. -1.
        -24    2    1    2    0    0  0.11775966054E+02 -0.88098290061E+02  0.17473576104E+01  0.11817923478E+03  0.77867170145E+02 0.  0.
         23    2    1    2    0    0  0.33218116406E+02  0.60371680301E+02 -0.22264656711E+02  0.11510352912E+03  0.89470243312E+02 0.  0.
         13    1    3    3    0    0  0.31814798486E+02 -0.49066695633E+02  0.30269699209E+02  0.65848133712E+02  0.00000000000E+00 0. -1.
        -14    1    3    3    0    0 -0.20038832431E+02 -0.39031594428E+02 -0.28522341599E+02  0.52331101069E+02  0.00000000000E+00 0.  1.
        -13    1    4    4    0    0  0.16043808309E+02 -0.13138088779E+02  0.19811902759E+02  0.28679690597E+02  0.00000000000E+00 0. -1.
         13    1    4    4    0    0  0.17174308097E+02  0.73509769080E+02 -0.42076559470E+02  0.86423838526E+02  0.00000000000E+00 0.  1.
         21    1    1    2  502  501 -0.44994082460E+02  0.27726609761E+02 -0.10803311366E+03  0.12026797576E+03  0.00000000000E+00 0. -1.
<scales pt_clust_5="13000.00000" pt_clust_6="13000.00000" pt_clust_7="13000.00000" pt_clust_8="13000.00000" pt_clust_9="52.85104"></scales>
<clustering>
<clus scale="   52.851">  2  9  1 -1</clus>
<clus scale="   77.867">  5  6 -1 -1</clus>
<clus scale="   89.470">  7  8 -1 -1</clus>
<clus scale="  108.737">  1  5  2 -1</clus>
<clus scale="   52.851">  2  5  1 -1</clus>
</clustering>
</event>
<event>
 9    1  0.1973774E-005  0.3585143E+03  0.7546771E-02  0.1059516E+00
         -2   -1    0    0    0  501 -0.00000000000E+00  0.00000000000E+00  0.16500766248E+03  0.16500766248E+03  0.00000000000E+00 0.  1.
          1   -1    0    0  502    0  0.00000000000E+00 -0.00000000000E+00 -0.12519114813E+04  0.12519114813E+04  0.00000000000E+00 0. -1.
        -24    2    1    2    0    0 -0.34836699984E+03 -0.63153318839E+02 -0.12134884188E+03  0.38263156214E+03  0.79583055119E+02 0.  0.
         23    2    1    2    0    0  0.31534832372E+03  0.42666513726E+02 -0.85462595121E+03  0.91674954138E+03  0.93697430485E+02 0.  0.
         13    1    3    3    0    0 -0.65566182283E+02  0.11402970536E+02 -0.45097814901E+02  0.80391323568E+02  0.00000000000E+00 0. -1.
        -14    1    3    3    0    0 -0.28280081755E+03 -0.74556289376E+02 -0.76251026975E+02  0.30224023857E+03  0.00000000000E+00 0.  1.
        -11    1    4    4    0    0  0.17812086937E+03  0.36071054283E+02 -0.60631194972E+03  0.63296314698E+03  0.00000000000E+00 0. -1.
         11    1    4    4    0    0  0.13722745435E+03  0.65954594437E+01 -0.24831400149E+03  0.28378639440E+03  0.00000000000E+00 0.  1.
         21    1    1    2  502  501  0.33018676114E+02  0.20486805113E+02 -0.11092902573E+03  0.11753804025E+03  0.00000000000E+00 0.  1.
<scales pt_clust_5="13000.00000" pt_clust_6="13000.00000" pt_clust_7="13000.00000" pt_clust_8="13000.00000" pt_clust_9="38.85797"></scales>
<clustering>
<clus scale="   38.858">  2  9  1 -1</clus>
<clus scale="   79.583">  5  6 -1 -1</clus>
<clus scale="   93.697">  7  8 -1 -1</clus>
<clus scale="  355.087">  1  5  2 -1</clus>
<clus scale="   38.858">  2  5  1 -1</clus>
</clustering>
</event>
<event>
 9    1  0.1973774E-005  0.1030586E+03  0.7546771E-02  0.1278732E+00
         -2   -1    0    0    0  501 -0.00000000000E+00  0.00000000000E+00  0.63293730409E+02  0.63293730409E+02  0.00000000000E+00 0.  1.
          1   -1    0    0  502    0  0.00000000000E+00 -0.00000000000E+00 -0.39702260924E+03  0.39702260924E+03  0.00000000000E+00 0. -1.
        -24    2    1    2    0    0 -0.46497762300E+02 -0.24102585722E+02  0.74440909401E+01  0.95837440733E+02  0.79915105073E+02 0.  0.
         23    2    1    2    0    0  0.39615968727E+02 -0.47717556271E+00 -0.22690624375E+03  0.24739598632E+03  0.90270027791E+02 0.  0.
         13    1    3    3    0    0 -0.57627227113E+02 -0.23167341804E+02 -0.20772080142E+02  0.65491238685E+02  0.00000000000E+00 0. -1.
        -14    1    3    3    0    0  0.11129464813E+02 -0.93524391810E+00  0.28216171082E+02  0.30346202048E+02  0.00000000000E+00 0.  1.
        -11    1    4    4    0    0 -0.90487588731E+01  0.21943052052E+02 -0.13374436767E+02  0.27244322883E+02  0.00000000000E+00 0.  1.
         11    1    4    4    0    0  0.48664727601E+02 -0.22420227615E+02 -0.21353180698E+03  0.22015166343E+03  0.00000000000E+00 0. -1.
         21    1    1    2  502  501  0.68817935729E+01  0.24579761285E+02 -0.11426672603E+03  0.11708291261E+03  0.00000000000E+00 0. -1.
<scales pt_clust_5="13000.00000" pt_clust_6="13000.00000" pt_clust_7="13000.00000" pt_clust_8="13000.00000" pt_clust_9="25.52496"></scales>
<clustering>
<clus scale="   25.525">  2  9  1 -1</clus>
<clus scale="   79.915">  5  6 -1 -1</clus>
<clus scale="   90.270">  7  8 -1 -1</clus>
<clus scale="   94.121">  1  5  2 -1</clus>
<clus scale="   25.525">  2  5  1 -1</clus>
</clustering>
</event>
<event>
 9    1  0.1973774E-005  0.1003283E+03  0.7546771E-02  0.1286618E+00
          1   -1    0    0  502    0  0.00000000000E+00  0.00000000000E+00  0.23688865022E+03  0.23688865022E+03  0.00000000000E+00 0. -1.
         -2   -1    0    0    0  501 -0.00000000000E+00 -0.00000000000E+00 -0.34131941651E+03  0.34131941651E+03  0.00000000000E+00 0.  1.
         23    2    1    2    0    0 -0.19765239445E+02 -0.28406561029E+02 -0.30794650027E+03  0.32368863471E+03  0.93518382230E+02 0.  0.
        -24    2    1    2    0    0  0.55865154371E+02  0.37676540372E+02  0.10082535773E+03  0.14527452481E+03  0.79990609649E+02 0.  0.
         13    1    4    4    0    0  0.46444102621E+02  0.17055131414E+02  0.11015670436E+03  0.12075773968E+03  0.00000000000E+00 0. -1.
        -14    1    4    4    0    0  0.94210517505E+01  0.20621408958E+02 -0.93313466354E+01  0.24516785138E+02  0.00000000000E+00 0.  1.
        -13    1    3    3    0    0 -0.88326196276E+01  0.34629726772E+02 -0.10997748350E+03  0.11563857497E+03  0.00000000000E+00 0.  1.
         13    1    3    3    0    0 -0.10932619818E+02 -0.63036287801E+02 -0.19796901677E+03  0.20805005974E+03  0.00000000000E+00 0. -1.
         21    1    1    2  502  501 -0.36099914926E+02 -0.92699793421E+01  0.10269037625E+03  0.10924490720E+03  0.00000000000E+00 0.  1.
<scales pt_clust_5="13000.00000" pt_clust_6="13000.00000" pt_clust_7="13000.00000" pt_clust_8="13000.00000" pt_clust_9="37.27112"></scales>
<clustering>
<clus scale="   37.271">  1  9  2 -1</clus>
<clus scale="   79.991">  5  6 -1 -1</clus>
<clus scale="   87.855">  1  5  2 -1</clus>
<clus scale="   93.518">  7  8 -1 -1</clus>
<clus scale="   37.271">  1  5  2 -1</clus>
</clustering>
</event>
<event>
 9    1  0.1973774E-005  0.1045961E+03  0.7546771E-02  0.1276205E+00
         -2   -1    0    0    0  501 -0.00000000000E+00  0.00000000000E+00  0.63448445264E+02  0.63448445264E+02  0.00000000000E+00 0.  1.
          1   -1    0    0  502    0  0.00000000000E+00 -0.00000000000E+00 -0.43241767453E+03  0.43241767453E+03  0.00000000000E+00 0. -1.
         23    2    1    2    0    0 -0.19826205143E+02  0.49042951355E+02  0.16128602030E+01  0.10634699869E+03  0.92243120739E+02 0.  0.
        -24    2    1    2    0    0 -0.85868381690E+01 -0.35324428450E+02 -0.27108755556E+03  0.28514162746E+03  0.80596128314E+02 0.  0.
         11    1    4    4    0    0  0.12698952034E+02 -0.53240337526E+02 -0.12544988722E+03  0.13687027116E+03  0.00000000000E+00 0. -1.
        -12    1    4    4    0    0 -0.21285790203E+02  0.17915909076E+02 -0.14563766833E+03  0.14827135631E+03  0.00000000000E+00 0.  1.
        -13    1    3    3    0    0  0.11375386366E+02 -0.23076947316E+02  0.93782099947E+01  0.27384224201E+02  0.00000000000E+00 0.  1.
         13    1    3    3    0    0 -0.31201591509E+02  0.72119898671E+02 -0.77653497918E+01  0.78962774485E+02  0.00000000000E+00 0. -1.
         21    1    1    2  502  501  0.28413043312E+02 -0.13718522905E+02 -0.99494533913E+02  0.10437749364E+03  0.00000000000E+00 0. -1.
<scales pt_clust_5="13000.00000" pt_clust_6="13000.00000" pt_clust_7="13000.00000" pt_clust_8="13000.00000" pt_clust_9="31.55153"></scales>
<clustering>
<clus scale="   31.552">  2  9  1 -1</clus>
<clus scale="   80.596">  5  6 -1 -1</clus>
<clus scale="   92.243">  7  8 -1 -1</clus>
<clus scale="   94.484">  2  5  1 -1</clus>
<clus scale="   31.552">  2  5  1 -1</clus>
</clustering>
</event>
<event>
 9    1  0.1973774E-005  0.1047778E+03  0.7546771E-02  0.1271236E+00
          1   -1    0    0  502    0  0.00000000000E+00  0.00000000000E+00  0.35391677496E+03  0.35391677496E+03  0.00000000000E+00 0. -1.
         -2   -1    0    0    0  501 -0.00000000000E+00 -0.00000000000E+00 -0.74776218492E+02  0.74776218492E+02  0.00000000000E+00 0.  1.
        -24    2    1    2    0    0 -0.34755354608E+02 -0.56308369951E+02 -0.93585286555E+00  0.10405277052E+03  0.80296550559E+02 0.  0.
         23    2    1    2    0    0  0.72004930205E+02  0.22857680822E+02  0.21816669670E+03  0.24502055197E+03  0.82043767546E+02 0.  0.
         13    1    3    3    0    0 -0.62658862663E+01 -0.58432637209E+02 -0.27643389386E+02  0.64944525548E+02  0.00000000000E+00 0. -1.
        -14    1    3    3    0    0 -0.28489468342E+02  0.21242672576E+01  0.26707536520E+02  0.39108244972E+02  0.00000000000E+00 0.  1.
        -11    1    4    4    0    0  0.56276151103E+02  0.46126406521E+02  0.19652647038E+03  0.20956455836E+03  0.00000000000E+00 0. -1.
         11    1    4    4    0    0  0.15728779102E+02 -0.23268725699E+02  0.21640226322E+02  0.35455993611E+02  0.00000000000E+00 0.  1.
         21    1    1    2  502  501 -0.37249575597E+02  0.33450689129E+02  0.61909712627E+02  0.79619670955E+02  0.00000000000E+00 0.  1.
<scales pt_clust_5="13000.00000" pt_clust_6="13000.00000" pt_clust_7="13000.00000" pt_clust_8="13000.00000" pt_clust_9="50.06475"></scales>
<clustering>
<clus scale="   50.065">  1  9  2 -1</clus>
<clus scale="   80.297">  5  6 -1 -1</clus>
<clus scale="   82.044">  7  8 -1 -1</clus>
<clus scale="  103.415">  2  5  1 -1</clus>
<clus scale="   50.065">  1  5  2 -1</clus>
</clustering>
</event>
<event>
 9    1  0.1973774E-005  0.8377512E+02  0.7546771E-02  0.1319451E+00
          1   -1    0    0  502    0  0.00000000000E+00  0.00000000000E+00  0.18127330526E+03  0.18127330526E+03  0.00000000000E+00 0. -1.
         -2   -1    0    0    0  501 -0.00000000000E+00 -0.00000000000E+00 -0.84511569277E+02  0.84511569277E+02  0.00000000000E+00 0.  1.
         23    2    1    2    0    0 -0.37509874096E+02  0.11250696062E+02 -0.26122333039E+02  0.94435941575E+02  0.81866977232E+02 0.  0.
        -24    2    1    2    0    0  0.91540245050E+01 -0.10619922666E+02  0.11629724134E+03  0.14223126856E+03  0.80672836139E+02 0.  0.
         11    1    4    4    0    0 -0.26921205203E+02 -0.30507580378E+02  0.57473049850E+02  0.70417435406E+02  0.00000000000E+00 0. -1.
        -12    1    4    4    0    0  0.36075229708E+02  0.19887657713E+02  0.58824191495E+02  0.71813833157E+02  0.00000000000E+00 0.  1.
        -13    1    3    3    0    0 -0.58950292021E+02  0.25445282543E+02 -0.12779734868E+02  0.65466945525E+02  0.00000000000E+00 0.  1.
         13    1    3    3    0    0  0.21440417925E+02 -0.14194586481E+02 -0.13342598170E+02  0.28968996049E+02  0.00000000000E+00 0. -1.
         21    1    1    2  502  501  0.28355849591E+02 -0.63077339626E+00  0.65868276743E+01  0.29117664397E+02  0.00000000000E+00 0.  1.
<scales pt_clust_5="13000.00000" pt_clust_6="13000.00000" pt_clust_7="13000.00000" pt_clust_8="13000.00000" pt_clust_9="28.36286"></scales>
<clustering>
<clus scale="   28.363">  2  9  1 -1</clus>
<clus scale="   80.673">  5  6 -1 -1</clus>
<clus scale="   81.867">  7  8 -1 -1</clus>
<clus scale="   82.609">  1  5  2 -1</clus>
<clus scale="   82.609">  1  5  2 -1</clus>
</clustering>
</event>
<event>
 9    1  0.1973774E-005  0.1456869E+03  0.7546771E-02  0.1213585E+00
         -2   -1    0    0    0  501 -0.00000000000E+00  0.00000000000E+00  0.38127431599E+03  0.38127431599E+03  0.00000000000E+00 0.  1.
          1   -1    0    0  502    0  0.00000000000E+00 -0.00000000000E+00 -0.10689168485E+03  0.10689168485E+03  0.00000000000E+00 0. -1.
        -24    2    1    2    0    0  0.11353559667E+03 -0.39745752167E+01  0.24341706758E+03  0.28083827940E+03  0.81927659741E+02 0.  0.
         23    2    1    2    0    0 -0.85239761654E+02  0.22061842837E+02 -0.22026139696E+02  0.14459077743E+03  0.11255576490E+03 0.  0.
         13    1    3    3    0    0  0.22434401863E+02  0.34514134538E+02  0.72325492497E+02  0.83219617487E+02  0.00000000000E+00 0. -1.
        -14    1    3    3    0    0  0.91101194805E+02 -0.38488709754E+02  0.17109157508E+03  0.19761866192E+03  0.00000000000E+00 0.  1.
        -13    1    4    4    0    0 -0.34125054821E+02 -0.37165563889E+02  0.21747263316E+02  0.54943079341E+02  0.00000000000E+00 0.  1.
         13    1    4    4    0    0 -0.51114706833E+02  0.59227406726E+02 -0.43773403012E+02  0.89647698093E+02  0.00000000000E+00 0. -1.
         21    1    1    2  502  501 -0.28295835014E+02 -0.18087267620E+02  0.52991703251E+02  0.62736944001E+02  0.00000000000E+00 0. -1.
<scales pt_clust_5="13000.00000" pt_clust_6="13000.00000" pt_clust_7="13000.00000" pt_clust_8="13000.00000" pt_clust_9="33.58279"></scales>
<clustering>
<clus scale="   33.583">  1  9  2 -1</clus>
<clus scale="   81.928">  5  6 -1 -1</clus>
<clus scale="  112.556">  7  8 -1 -1</clus>
<clus scale="  123.564">  1  5  2 -1</clus>
<clus scale="  145.687">  2  5  1 -1</clus>
</clustering>
</event>
<event>
 9    1  0.1973774E-005  0.1103691E+03  0.7546771E-02  0.1263126E+00
          3   -1    0    0  502    0  0.00000000000E+00  0.00000000000E+00  0.20942674263E+03  0.20942674263E+03  0.00000000000E+00 0. -1.
         -4   -1    0    0    0  501 -0.00000000000E+00 -0.00000000000E+00 -0.21997049798E+03  0.21997049798E+03  0.00000000000E+00 0.  1.
         23    2    1    2    0    0 -0.46311869230E+02  0.44238151156E+02 -0.18138948168E+03  0.21277247190E+03  0.90929519326E+02 0.  0.
        -24    2    1    2    0    0  0.19448217365E+02 -0.52404413660E+02  0.10373676282E+03  0.14387893296E+03  0.82555288503E+02 0.  0.
         11    1    4    4    0    0  0.15240783731E+02 -0.72042507049E+02  0.57363126768E+02  0.93343090924E+02  0.00000000000E+00 0. -1.
        -12    1    4    4    0    0  0.42074336344E+01  0.19638093389E+02  0.46373636048E+02  0.50535842034E+02  0.00000000000E+00 0.  1.
        -11    1    3    3    0    0 -0.25004249982E+02  0.70516872372E+02 -0.14448279362E+03  0.16270562208E+03  0.00000000000E+00 0.  1.
         11    1    3    3    0    0 -0.21307619248E+02 -0.26278721216E+02 -0.36906688068E+02  0.50066849820E+02  0.00000000000E+00 0. -1.
         21    1    1    2  502  501  0.26863651865E+02  0.81662625042E+01  0.67108963518E+02  0.72745835753E+02  0.00000000000E+00 0. -1.
<scales pt_clust_5="13000.00000" pt_clust_6="13000.00000" pt_clust_7="13000.00000" pt_clust_8="13000.00000" pt_clust_9="28.07746"></scales>
<clustering>
<clus scale="   28.077">  1  9  2 -1</clus>
<clus scale="   82.555">  5  6 -1 -1</clus>
<clus scale="   90.930">  7  8 -1 -1</clus>
<clus scale="  103.579">  1  5  2 -1</clus>
<clus scale="   28.077">  1  5  2 -1</clus>
</clustering>
</event>
<event>
 9    1  0.1973774E-005  0.1047839E+03  0.7546771E-02  0.1275045E+00
          1   -1    0    0  502    0  0.00000000000E+00  0.00000000000E+00  0.46854106289E+02  0.46854106289E+02  0.00000000000E+00 0. -1.
         -2   -1    0    0    0  501 -0.00000000000E+00 -0.00000000000E+00 -0.34311361725E+03  0.34311361725E+03  0.00000000000E+00 0.  1.
        -24    2    1    2    0    0 -0.26468203806E+01 -0.49371239857E+02 -0.19395184088E+03  0.21508599794E+03  0.78740999142E+02 0.  0.
         23    2    1    2    0    0  0.20397163194E+02  0.67373774884E+02 -0.96256463958E+02  0.14888589838E+03  0.89142773535E+02 0.  0.
         11    1    3    3    0    0 -0.22837262586E+02 -0.64049566520E+02 -0.14012012056E+03  0.15574830888E+03  0.00000000000E+00 0. -1.
        -12    1    3    3    0    0  0.20190442206E+02  0.14678326663E+02 -0.53831720322E+02  0.59337689060E+02  0.00000000000E+00 0.  1.
        -13    1    4    4    0    0  0.49198084796E+02  0.66466093490E+02 -0.58064317955E+02  0.10104285304E+03  0.00000000000E+00 0.  1.
         13    1    4    4    0    0 -0.28800921601E+02  0.90768139390E+00 -0.38192146003E+02  0.47843045335E+02  0.00000000000E+00 0. -1.
         21    1    1    2  502  501 -0.17750342814E+02 -0.18002535027E+02 -0.60512061218E+01  0.25995827221E+02  0.00000000000E+00 0. -1.
<scales pt_clust_5="13000.00000" pt_clust_6="13000.00000" pt_clust_7="13000.00000" pt_clust_8="13000.00000" pt_clust_9="25.28173"></scales>
<clustering>
<clus scale="   25.282">  1  9  2 -1</clus>
<clus scale="   78.741">  5  6 -1 -1</clus>
<clus scale="   89.143">  7  8 -1 -1</clus>
<clus scale="   96.090">  2  5  1 -1</clus>
<clus scale="   25.282">  1  5  2 -1</clus>
</clustering>
</event>
<event>
 9    1  0.1973774E-005  0.2843539E+03  0.7546771E-02  0.1105630E+00
         -2   -1    0    0    0  501 -0.00000000000E+00  0.00000000000E+00  0.41797806687E+03  0.41797806687E+03  0.00000000000E+00 0.  1.
          1   -1    0    0  502    0  0.00000000000E+00 -0.00000000000E+00 -0.46137996721E+03  0.46137996721E+03  0.00000000000E+00 0. -1.
        -24    2    1    2    0    0  0.23325330178E+03  0.46416809783E+02  0.79072939022E+02  0.26301765293E+03  0.79775516577E+02 0.  0.
         23    2    1    2    0    0  0.45713545722E+02  0.17876341427E+03 -0.15216434015E+03  0.25660422538E+03  0.92982017207E+02 0.  0.
         11    1    3    3    0    0  0.16990654004E+03  0.52979835927E+02  0.25494258502E+02  0.17979169219E+03  0.00000000000E+00 0. -1.
        -12    1    3    3    0    0  0.63346761740E+02 -0.65630261438E+01  0.53578680519E+02  0.83225960741E+02  0.00000000000E+00 0.  1.
        -11    1    4    4    0    0 -0.25258740344E+02  0.23963825205E+02 -0.14876946883E+02  0.37862810656E+02  0.00000000000E+00 0. -1.
         11    1    4    4    0    0  0.70972286065E+02  0.15479958907E+03 -0.13728739327E+03  0.21874141472E+03  0.00000000000E+00 0.  1.
         21    1    1    2  502  501 -0.27896684750E+03 -0.22518022406E+03  0.29689500786E+02  0.35973615577E+03  0.00000000000E+00 0.  1.
<scales pt_clust_5="13000.00000" pt_clust_6="13000.00000" pt_clust_7="13000.00000" pt_clust_8="13000.00000" pt_clust_9="272.93409"></scales>
<clustering>
<clus scale="   79.776">  5  6 -1 -1</clus>
<clus scale="   92.982">  7  8 -1 -1</clus>
<clus scale="  206.620">  2  7  1 -1</clus>
<clus scale="  272.934">  2  9  1 -1</clus>
<clus scale="  206.620">  2  5  1 -1</clus>
</clustering>
</event>
<event>
 9    1  0.1973774E-005  0.1068510E+03  0.7546771E-02  0.1274014E+00
          1   -1    0    0  502    0  0.00000000000E+00  0.00000000000E+00  0.60799446223E+03  0.60799446223E+03  0.00000000000E+00 0. -1.
         -2   -1    0    0    0  501 -0.00000000000E+00 -0.00000000000E+00 -0.42154387905E+02  0.42154387905E+02  0.00000000000E+00 0.  1.
         23    2    1    2    0    0 -0.27545203515E+02  0.34819555885E+02  0.46708808273E+02  0.11521321130E+03  0.95505139024E+02 0.  0.
        -24    2    1    2    0    0  0.51324017472E+02 -0.41882755416E+02  0.38761103180E+03  0.40109658325E+03  0.79043261267E+02 0.  0.
         13    1    4    4    0    0  0.77899858582E+01 -0.54384429789E+02  0.25842935653E+03  0.26420462222E+03  0.00000000000E+00 0. -1.
        -14    1    4    4    0    0  0.43534031614E+02  0.12501674373E+02  0.12918167527E+03  0.13689196104E+03  0.00000000000E+00 0.  1.
        -11    1    3    3    0    0 -0.49563891921E+02  0.34329238727E+01 -0.59910205831E+01  0.50042548659E+02  0.00000000000E+00 0. -1.
         11    1    3    3    0    0  0.22018688405E+02  0.31386632013E+02  0.52699828857E+02  0.65170662646E+02  0.00000000000E+00 0.  1.
         21    1    1    2  502  501 -0.23778813957E+02  0.70631995306E+01  0.13152023425E+03  0.13383905557E+03  0.00000000000E+00 0. -1.
<scales pt_clust_5="13000.00000" pt_clust_6="13000.00000" pt_clust_7="13000.00000" pt_clust_8="13000.00000" pt_clust_9="24.80566"></scales>
<clustering>
<clus scale="   24.806">  1  9  2 -1</clus>
<clus scale="   79.043">  5  6 -1 -1</clus>
<clus scale="   92.432">  1  5  2 -1</clus>
<clus scale="   95.505">  7  8 -1 -1</clus>
<clus scale="   24.806">  1  5  2 -1</clus>
</clustering>
</event>
<event>
 9    1  0.1973774E-005  0.1122862E+03  0.7546771E-02  0.1261540E+00
          1   -1    0    0  502    0  0.00000000000E+00  0.00000000000E+00  0.26368273604E+03  0.26368273604E+03  0.00000000000E+00 0. -1.
         -2   -1    0    0    0  501 -0.00000000000E+00 -0.00000000000E+00 -0.98098864959E+02  0.98098864959E+02  0.00000000000E+00 0.  1.
         23    2    1    2    0    0  0.56084082218E+02  0.70597022871E+01  0.26336523215E+02  0.11163776351E+03  0.92596512414E+02 0.  0.
        -24    2    1    2    0    0 -0.44515969396E+02 -0.71229136140E+02  0.24206628126E+02  0.11790955800E+03  0.79129271796E+02 0.  0.
         13    1    4    4    0    0  0.21616668635E+02 -0.21356105108E+02  0.16868313747E+02  0.34754907523E+02  0.00000000000E+00 0. -1.
        -14    1    4    4    0    0 -0.66132638031E+02 -0.49873031032E+02  0.73383143790E+01  0.83154650472E+02  0.00000000000E+00 0.  1.
        -11    1    3    3    0    0  0.76282984628E+02  0.45301475505E+00 -0.18870793947E+01  0.76307666947E+02  0.00000000000E+00 0.  1.
         11    1    3    3    0    0 -0.20198902411E+02  0.66066875321E+01  0.28223602609E+02  0.35330096561E+02  0.00000000000E+00 0. -1.
         21    1    1    2  502  501 -0.11568112822E+02  0.64169433853E+02  0.11504071974E+03  0.13223427950E+03  0.00000000000E+00 0. -1.
<scales pt_clust_5="13000.00000" pt_clust_6="13000.00000" pt_clust_7="13000.00000" pt_clust_8="13000.00000" pt_clust_9="65.20381"></scales>
<clustering>
<clus scale="   65.204">  1  9  2 -1</clus>
<clus scale="   79.129">  5  6 -1 -1</clus>
<clus scale="   92.597">  7  8 -1 -1</clus>
<clus scale="  101.467">  1  5  2 -1</clus>
<clus scale="   65.204">  1  5  2 -1</clus>
</clustering>
</event>
<event>
 9    1  0.1973774E-005  0.1421720E+03  0.7546771E-02  0.1212428E+00
         -2   -1    0    0    0  501 -0.00000000000E+00  0.00000000000E+00  0.30327035336E+03  0.30327035336E+03  0.00000000000E+00 0.  1.
          1   -1    0    0  502    0  0.00000000000E+00 -0.00000000000E+00 -0.77563828011E+02  0.77563828011E+02  0.00000000000E+00 0. -1.
        -24    2    1    2    0    0  0.43836886571E+02  0.11145103379E+03  0.14500114413E+03  0.20484888039E+03  0.81207921060E+02 0.  0.
         23    2    1    2    0    0 -0.32707248323E+02 -0.90173147535E+02  0.72213748399E+02  0.15051521816E+03  0.90769184263E+02 0.  0.
         11    1    3    3    0    0 -0.19406220708E+02  0.32858001355E+02  0.16743791303E+02  0.41672583342E+02  0.00000000000E+00 0. -1.
        -12    1    3    3    0    0  0.63243107279E+02  0.78593032431E+02  0.12825735282E+03  0.16317629705E+03  0.00000000000E+00 0.  1.
        -13    1    4    4    0    0  0.28400487963E+02 -0.29262085770E+02  0.43397301109E+02  0.59549837311E+02  0.00000000000E+00 0.  1.
         13    1    4    4    0    0 -0.61107736286E+02 -0.60911061765E+02  0.28816447290E+02  0.90965380853E+02  0.00000000000E+00 0. -1.
         21    1    1    2  502  501 -0.11129638248E+02 -0.21277886251E+02  0.84916328253E+01  0.25470082820E+02  0.00000000000E+00 0. -1.
<scales pt_clust_5="13000.00000" pt_clust_6="13000.00000" pt_clust_7="13000.00000" pt_clust_8="13000.00000" pt_clust_9="24.01286"></scales>
<clustering>
<clus scale="   24.013">  2  9  1 -1</clus>
<clus scale="   81.208">  5  6 -1 -1</clus>
<clus scale="   90.769">  7  8 -1 -1</clus>
<clus scale="  136.267">  1  5  2 -1</clus>
<clus scale="   24.013">  2  5  1 -1</clus>
</clustering>
</event>
<event>
 9    1  0.1973774E-005  0.1319541E+03  0.7546771E-02  0.1227179E+00
          1   -1    0    0  502    0  0.00000000000E+00  0.00000000000E+00  0.41369644495E+03  0.41369644495E+03  0.00000000000E+00 0. -1.
         -2   -1    0    0    0  501 -0.00000000000E+00 -0.00000000000E+00 -0.13824033232E+03  0.13824033232E+03  0.00000000000E+00 0.  1.
         23    2    1    2    0    0 -0.81762283670E+02 -0.33663687877E+02 -0.69045843256E+02  0.14491655442E+03  0.91734204976E+02 0.  0.
        -24    2    1    2    0    0  0.11736739572E+03  0.70952820745E+02  0.21562125128E+03  0.26820941832E+03  0.81451578996E+02 0.  0.
         13    1    4    4    0    0  0.76024253387E+02  0.65584247835E+01  0.14607388467E+03  0.16480376155E+03  0.00000000000E+00 0. -1.
        -14    1    4    4    0    0  0.41343142334E+02  0.64394395961E+02  0.69547366615E+02  0.10340565677E+03  0.00000000000E+00 0.  1.
        -13    1    3    3    0    0 -0.44473512969E+02 -0.52860892184E+02 -0.61961830393E+01  0.69358200398E+02  0.00000000000E+00 0.  1.
         13    1    3    3    0    0 -0.37288770701E+02  0.19197204307E+02 -0.62849660217E+02  0.75558354025E+02  0.00000000000E+00 0. -1.
         21    1    1    2  502  501 -0.35605112051E+02 -0.37289132868E+02  0.12888070460E+03  0.13881080453E+03  0.00000000000E+00 0.  1.
<scales pt_clust_5="13000.00000" pt_clust_6="13000.00000" pt_clust_7="13000.00000" pt_clust_8="13000.00000" pt_clust_9="51.55777"></scales>
<clustering>
<clus scale="   51.558">  1  9  2 -1</clus>
<clus scale="   81.452">  5  6 -1 -1</clus>
<clus scale="   91.734">  7  8 -1 -1</clus>
<clus scale="  125.024">  1  5  2 -1</clus>
<clus scale="   51.558">  1  5  2 -1</clus>
</clustering>
</event>
<event>
 9    1  0.1973774E-005  0.1176795E+03  0.7546771E-02  0.1254209E+00
          1   -1    0    0  502    0  0.00000000000E+00  0.00000000000E+00  0.61265926581E+03  0.61265926581E+03  0.00000000000E+00 0. -1.
         -2   -1    0    0    0  501 -0.00000000000E+00 -0.00000000000E+00 -0.35614396117E+02  0.35614396117E+02  0.00000000000E+00 0.  1.
         23    2    1    2    0    0 -0.14589657777E+02  0.81552920381E+02  0.14041903313E+03  0.19075432347E+03  0.99025098441E+02 0.  0.
        -24    2    1    2    0    0  0.82042570450E+01 -0.31875943778E+02  0.25716885257E+03  0.27120405607E+03  0.79576602531E+02 0.  0.
         13    1    4    4    0    0  0.94508834724E+01 -0.43491426728E+02  0.25556600093E+03  0.25941242111E+03  0.00000000000E+00 0. -1.
        -14    1    4    4    0    0 -0.12466264274E+01  0.11615482950E+02  0.16028516453E+01  0.11791634959E+02  0.00000000000E+00 0.  1.
        -13    1    3    3    0    0 -0.56315248958E+02  0.34477215290E+02  0.66952135124E+02  0.94035493496E+02  0.00000000000E+00 0.  1.
         13    1    3    3    0    0  0.41725591181E+02  0.47075705091E+02  0.73466898002E+02  0.96718829973E+02  0.00000000000E+00 0. -1.
         21    1    1    2  502  501  0.63854007320E+01 -0.49676976602E+02  0.17945698400E+03  0.18631528239E+03  0.00000000000E+00 0. -1.
<scales pt_clust_5="13000.00000" pt_clust_6="13000.00000" pt_clust_7="13000.00000" pt_clust_8="13000.00000" pt_clust_9="50.08568"></scales>
<clustering>
<clus scale="   50.086">  1  9  2 -1</clus>
<clus scale="   79.577">  5  6 -1 -1</clus>
<clus scale="   99.025">  7  8 -1 -1</clus>
<clus scale="  101.857">  1  5  2 -1</clus>
<clus scale="   50.086">  1  5  2 -1</clus>
</clustering>
</event>
<event>
 9    1  0.1973774E-005  0.2291560E+03  0.7546771E-02  0.1150985E+00
          1   -1    0    0  502    0  0.00000000000E+00  0.00000000000E+00  0.11448409645E+04  0.11448409645E+04  0.00000000000E+00 0. -1.
         -2   -1    0    0    0  501 -0.00000000000E+00 -0.00000000000E+00 -0.99411418477E+02  0.99411418477E+02  0.00000000000E+00 0.  1.
        -24    2    1    2    0    0  0.12025119601E+02 -0.98193005526E+02  0.19026132718E+03  0.22992446659E+03  0.82942256313E+02 0.  0.
         23    2    1    2    0    0  0.13532365671E+02 -0.12952689637E+03  0.36140374569E+02  0.16384796455E+03  0.92626599907E+02 0.  0.
         11    1    3    3    0    0  0.35566962311E+02 -0.87567025748E+02  0.17754533059E+03  0.20113512180E+03  0.00000000000E+00 0. -1.
        -12    1    3    3    0    0 -0.23541842710E+02 -0.10625979777E+02  0.12715996588E+02  0.28789344793E+02  0.00000000000E+00 0.  1.
        -13    1    4    4    0    0 -0.30819049220E+02 -0.81007348561E+02 -0.41082538007E+01  0.86769130830E+02  0.00000000000E+00 0. -1.
         13    1    4    4    0    0  0.44351414891E+02 -0.48519547805E+02  0.40248628370E+02  0.77078833720E+02  0.00000000000E+00 0.  1.
         21    1    1    2  502  501 -0.25557485271E+02  0.22771990189E+03  0.81902784423E+03  0.85047995179E+03  0.00000000000E+00 0.  1.
<scales pt_clust_5="13000.00000" pt_clust_6="13000.00000" pt_clust_7="13000.00000" pt_clust_8="13000.00000" pt_clust_9="209.60146"></scales>
<clustering>
<clus scale="   82.942">  5  6 -1 -1</clus>
<clus scale="   92.627">  7  8 -1 -1</clus>
<clus scale="  129.096">  2  5  1 -1</clus>
<clus scale="  209.601">  1  9  2 -1</clus>
<clus scale="  209.601">  1  5  2 -1</clus>
</clustering>
</event>
<event>
 9    1  0.1973774E-005  0.1655045E+03  0.7546771E-02  0.1184094E+00
          3   -1    0    0  502    0  0.00000000000E+00  0.00000000000E+00  0.63220451146E+03  0.63220451146E+03  0.00000000000E+00 0. -1.
         -4   -1    0    0    0  501 -0.00000000000E+00 -0.00000000000E+00 -0.12944481177E+03  0.12944481177E+03  0.00000000000E+00 0.  1.
        -24    2    1    2    0    0  0.67856473661E+02  0.11983416567E+03 -0.52444460837E+02  0.16813521197E+03  0.80958629894E+02 0.  0.
         23    2    1    2    0    0 -0.37588601028E+02 -0.14126673600E+03  0.47075571114E+03  0.50128049597E+03  0.91115324944E+02 0.  0.
         11    1    3    3    0    0  0.22455843088E+02  0.30852224086E+01  0.13693049380E+02  0.26481750082E+02  0.00000000000E+00 0. -1.
        -12    1    3    3    0    0  0.45400630573E+02  0.11674894326E+03 -0.66137510216E+02  0.14165346189E+03  0.00000000000E+00 0.  1.
        -11    1    4    4    0    0 -0.74329834095E+01 -0.14184295355E+03  0.39300231077E+03  0.41788214724E+03  0.00000000000E+00 0. -1.
         11    1    4    4    0    0 -0.30155617619E+02  0.57621755538E+00  0.77753400375E+02  0.83398348728E+02  0.00000000000E+00 0.  1.
         21    1    1    2  502  501 -0.30267872632E+02  0.21432570330E+02  0.84448449388E+02  0.92233615286E+02  0.00000000000E+00 0.  1.
<scales pt_clust_5="13000.00000" pt_clust_6="13000.00000" pt_clust_7="13000.00000" pt_clust_8="13000.00000" pt_clust_9="37.08772"></scales>
<clustering>
<clus scale="   37.088">  1  9  2 -1</clus>
<clus scale="   80.959">  5  6 -1 -1</clus>
<clus scale="   91.115">  7  8 -1 -1</clus>
<clus scale="  160.138">  2  5  1 -1</clus>
<clus scale="   37.088">  1  5  2 -1</clus>
</clustering>
</event>
<event>
 9    1  0.1973774E-005  0.1137428E+03  0.7546771E-02  0.1256393E+00
         -2   -1    0    0    0  501 -0.00000000000E+00  0.00000000000E+00  0.26341472059E+03  0.26341472059E+03  0.00000000000E+00 0.  1.
          1   -1    0    0  502    0  0.00000000000E+00 -0.00000000000E+00 -0.68075011140E+02  0.68075011140E+02  0.00000000000E+00 0. -1.
        -24    2    1    2    0    0  0.76077297083E+02 -0.22738677189E+02  0.16716632292E+03  0.20143608433E+03  0.79543157970E+02 0.  0.
         23    2    1    2    0    0 -0.55158821236E+02  0.14895389937E+02  0.19098136017E+02  0.10594016655E+03  0.87144775449E+02 0.  0.
         11    1    3    3    0    0 -0.12653427321E+02 -0.16155545165E+02  0.52005135385E+02  0.55907467917E+02  0.00000000000E+00 0. -1.
        -12    1    3    3    0    0  0.88730724404E+02 -0.65831320246E+01  0.11516118753E+03  0.14552861641E+03  0.00000000000E+00 0.  1.
        -11    1    4    4    0    0  0.18066790975E+02 -0.13775597263E+02  0.14940523759E+02  0.27191823519E+02  0.00000000000E+00 0.  1.
         11    1    4    4    0    0 -0.73225612211E+02  0.28670987200E+02  0.41576122583E+01  0.78748343032E+02  0.00000000000E+00 0. -1.
         21    1    1    2  502  501 -0.20918475848E+02  0.78432872528E+01  0.90752505131E+01  0.24113480848E+02  0.00000000000E+00 0.  1.
<scales pt_clust_5="13000.00000" pt_clust_6="13000.00000" pt_clust_7="13000.00000" pt_clust_8="13000.00000" pt_clust_9="22.34054"></scales>
<clustering>
<clus scale="   22.341">  2  9  1 -1</clus>
<clus scale="   79.543">  5  6 -1 -1</clus>
<clus scale="   87.145">  7  8 -1 -1</clus>
<clus scale="  108.029">  1  5  2 -1</clus>
<clus scale="   22.341">  2  5  1 -1</clus>
</clustering>
</event>
<event>
 9    1  0.1973774E-005  0.1858130E+03  0.7546771E-02  0.1163596E+00
         -2   -1    0    0    0  501 -0.00000000000E+00  0.00000000000E+00  0.10420176171E+03  0.10420176171E+03  0.00000000000E+00 0.  1.
          1   -1    0    0  502    0  0.00000000000E+00 -0.00000000000E+00 -0.46733050535E+03  0.46733050535E+03  0.00000000000E+00 0. -1.
        -24    2    1    2    0    0 -0.17343117015E+03  0.36463536046E+02 -0.62145205311E+02  0.20447236335E+03  0.80863839832E+02 0.  0.
         23    2    1    2    0    0  0.15394612575E+03 -0.20580183653E+02 -0.28421402277E+03  0.33684129205E+03  0.92528329179E+02 0.  0.
         13    1    3    3    0    0 -0.83712548903E+02  0.13034050975E+02 -0.72052646533E+02  0.11121718033E+03  0.00000000000E+00 0. -1.
        -14    1    3    3    0    0 -0.89718621246E+02  0.23429485071E+02  0.99074412215E+01  0.93255183022E+02  0.00000000000E+00 0.  1.
        -11    1    4    4    0    0  0.29829404733E+02  0.17104959647E+02 -0.13415190843E+03  0.13848865501E+03  0.00000000000E+00 0. -1.
         11    1    4    4    0    0  0.12411672102E+03 -0.37685143300E+02 -0.15006211434E+03  0.19835263704E+03  0.00000000000E+00 0.  1.
         21    1    1    2  502  501  0.19485044396E+02 -0.15883352393E+02 -0.16769515562E+02  0.30218611658E+02  0.00000000000E+00 0.  1.
<scales pt_clust_5="13000.00000" pt_clust_6="13000.00000" pt_clust_7="13000.00000" pt_clust_8="13000.00000" pt_clust_9="25.13857"></scales>
<clustering>
<clus scale="   25.139">  1  9  2 -1</clus>
<clus scale="   80.864">  5  6 -1 -1</clus>
<clus scale="   92.528">  7  8 -1 -1</clus>
<clus scale="  180.288">  1  5  2 -1</clus>
<clus scale="  185.813">  2  5  1 -1</clus>
</clustering>
</event>
<event>
 9    1  0.1973774E-005  0.9912914E+02  0.7546771E-02  0.1286797E+00
          3   -1    0    0  502    0  0.00000000000E+00  0.00000000000E+00  0.33384377236E+03  0.33384377236E+03  0.00000000000E+00 0. -1.
         -4   -1    0    0    0  501 -0.00000000000E+00 -0.00000000000E+00 -0.58675001030E+02  0.58675001030E+02  0.00000000000E+00 0.  1.
        -24    2    1    2    0    0  0.37247816024E+02 -0.26648939870E+02  0.98526427441E+01  0.93615025308E+02  0.81050185685E+02 0.  0.
         23    2    1    2    0    0 -0.34577837546E+02 -0.10573803802E+02  0.16091304418E+03  0.18803145459E+03  0.90307186594E+02 0.  0.
         13    1    3    3    0    0 -0.78156748023E-01  0.25198779534E+02  0.15328431925E+02  0.29494837239E+02  0.00000000000E+00 0. -1.
        -14    1    3    3    0    0  0.37325972772E+02 -0.51847719405E+02 -0.54757891805E+01  0.64120188069E+02  0.00000000000E+00 0.  1.
        -11    1    4    4    0    0  0.26407301191E+02  0.79024905335E+01  0.82546494447E+02  0.87027114501E+02  0.00000000000E+00 0.  1.
         11    1    4    4    0    0 -0.60985138737E+02 -0.18476294335E+02  0.78366549734E+02  0.10100434009E+03  0.00000000000E+00 0. -1.
         21    1    1    2  502  501 -0.26699784775E+01  0.37222743672E+02  0.10440308441E+03  0.11087229350E+03  0.00000000000E+00 0. -1.
<scales pt_clust_5="13000.00000" pt_clust_6="13000.00000" pt_clust_7="13000.00000" pt_clust_8="13000.00000" pt_clust_9="37.31838"></scales>
<clustering>
<clus scale="   37.318">  1  9  2 -1</clus>
<clus scale="   81.050">  5  6 -1 -1</clus>
<clus scale="   90.307">  7  8 -1 -1</clus>
<clus scale="   90.776">  2  5  1 -1</clus>
<clus scale="   37.318">  1  5  2 -1</clus>
</clustering>
</event>
<event>
 9    1  0.1973774E-005  0.1074702E+03  0.7546771E-02  0.1271727E+00
          1   -1    0    0  502    0  0.00000000000E+00  0.00000000000E+00  0.30486868744E+02  0.30486868744E+02  0.00000000000E+00 0. -1.
         -2   -1    0    0    0  501 -0.00000000000E+00 -0.00000000000E+00 -0.60963853966E+03  0.60963853966E+03  0.00000000000E+00 0.  1.
        -24    2    1    2    0    0  0.51945898725E+02 -0.24492567825E+02 -0.33970364238E+03  0.35262066140E+03  0.75129913656E+02 0.  0.
         23    2    1    2    0    0 -0.31065613972E+02  0.63459465238E+02 -0.16727347812E+03  0.20286686475E+03  0.90456465945E+02 0.  0.
         11    1    3    3    0    0  0.51400455515E+02  0.15084390460E+02 -0.16452194028E+03  0.17302316173E+03  0.00000000000E+00 0. -1.
        -12    1    3    3    0    0  0.54544320985E+00 -0.39576958285E+02 -0.17518170210E+03  0.17959749967E+03  0.00000000000E+00 0.  1.
        -11    1    4    4    0    0 -0.38075154277E+02  0.12856401085E+02 -0.16095372460E+02  0.43290477437E+02  0.00000000000E+00 0. -1.
         11    1    4    4    0    0  0.70095403051E+01  0.50603064152E+02 -0.15117810566E+03  0.15957638731E+03  0.00000000000E+00 0.  1.
         21    1    1    2  502  501 -0.20880284753E+02 -0.38966897412E+02 -0.72174550424E+02  0.84637882264E+02  0.00000000000E+00 0.  1.
<scales pt_clust_5="13000.00000" pt_clust_6="13000.00000" pt_clust_7="13000.00000" pt_clust_8="13000.00000" pt_clust_9="44.20866"></scales>
<clustering>
<clus scale="   44.209">  1  9  2 -1</clus>
<clus scale="   75.130">  5  6 -1 -1</clus>
<clus scale="   90.456">  7  8 -1 -1</clus>
<clus scale="   94.931">  2  5  1 -1</clus>
<clus scale="   44.209">  1  5  2 -1</clus>
</clustering>
</event>
<event>
 9    1  0.1973774E-005  0.1045606E+03  0.7546771E-02  0.1277024E+00
         -4   -1    0    0    0  501 -0.00000000000E+00  0.00000000000E+00  0.27965629598E+03  0.27965629598E+03  0.00000000000E+00 0.  1.
          3   -1    0    0  502    0  0.00000000000E+00 -0.00000000000E+00 -0.22197260898E+03  0.22197260898E+03  0.00000000000E+00 0. -1.
         23    2    1    2    0    0 -0.32815111523E+02  0.34404054913E+02  0.22496222662E+03  0.24755968340E+03  0.91745969409E+02 0.  0.
        -24    2    1    2    0    0  0.69024526709E+02 -0.23763423601E+02 -0.29400275760E+02  0.11111901895E+03  0.78447272541E+02 0.  0.
         13    1    4    4    0    0  0.27943994705E+02  0.11738924344E+02 -0.45334593714E+02  0.54533426190E+02  0.00000000000E+00 0. -1.
        -14    1    4    4    0    0  0.41080532004E+02 -0.35502347946E+02  0.15934317953E+02  0.56585592760E+02  0.00000000000E+00 0.  1.
        -11    1    3    3    0    0 -0.53858084540E+02  0.38806738104E+02  0.21268189838E+03  0.22280091133E+03  0.00000000000E+00 0.  1.
         11    1    3    3    0    0  0.21042973017E+02 -0.44026831915E+01  0.12280328237E+02  0.24758772068E+02  0.00000000000E+00 0. -1.
         21    1    1    2  502  501 -0.36209415186E+02 -0.10640631311E+02 -0.13787826385E+03  0.14295020261E+03  0.00000000000E+00 0.  1.
<scales pt_clust_5="13000.00000" pt_clust_6="13000.00000" pt_clust_7="13000.00000" pt_clust_8="13000.00000" pt_clust_9="37.74049"></scales>
<clustering>
<clus scale="   37.740">  2  9  1 -1</clus>
<clus scale="   78.447">  5  6 -1 -1</clus>
<clus scale="   91.746">  7  8 -1 -1</clus>
<clus scale="   93.111">  2  5  1 -1</clus>
<clus scale="   37.740">  2  5  1 -1</clus>
</clustering>
</event>
<event>
 9    1  0.1973774E-005  0.9342421E+02  0.7546771E-02  0.1300635E+00
         -2   -1    0    0    0  501 -0.00000000000E+00  0.00000000000E+00  0.53605982476E+03  0.53605982476E+03  0.00000000000E+00 0.  1.
          1   -1    0    0  502    0  0.00000000000E+00 -0.00000000000E+00 -0.14706376354E+03  0.14706376354E+03  0.00000000000E+00 0. -1.
        -24    2    1    2    0    0 -0.17164423557E+02 -0.28365146066E+02  0.36804940865E+03  0.37832936341E+03  0.81077376988E+02 0.  0.
         23    2    1    2    0    0 -0.68113437572E+01 -0.67472396256E+01  0.14623147958E+03  0.17249152300E+03  0.90982197379E+02 0.  0.
         13    1    3    3    0    0  0.28440578503E+02  0.71374257868E+01  0.10589356110E+03  0.10987836745E+03  0.00000000000E+00 0. -1.
        -14    1    3    3    0    0 -0.45605002060E+02 -0.35502571853E+02  0.26215584756E+03  0.26845099596E+03  0.00000000000E+00 0.  1.
        -11    1    4    4    0    0  0.31417779577E+02  0.25367510919E+02  0.51867392850E+02  0.65732898346E+02  0.00000000000E+00 0. -1.
         11    1    4    4    0    0 -0.38229123335E+02 -0.32114750545E+02  0.94364086728E+02  0.10675862465E+03  0.00000000000E+00 0.  1.
         21    1    1    2  502  501  0.23975767315E+02  0.35112385691E+02 -0.12528482701E+03  0.13230270189E+03  0.00000000000E+00 0. -1.
<scales pt_clust_5="13000.00000" pt_clust_6="13000.00000" pt_clust_7="13000.00000" pt_clust_8="13000.00000" pt_clust_9="42.51726"></scales>
<clustering>
<clus scale="   42.517">  2  9  1 -1</clus>
<clus scale="   81.077">  5  6 -1 -1</clus>
<clus scale="   83.808">  1  5  2 -1</clus>
<clus scale="   90.982">  7  8 -1 -1</clus>
<clus scale="   42.517">  2  5  1 -1</clus>
</clustering>
</event>
<event>
 9    1  0.1973774E-005  0.1124338E+03  0.7546771E-02  0.1260996E+00
          1   -1    0    0  502    0  0.00000000000E+00  0.00000000000E+00  0.28930738343E+03  0.28930738343E+03  0.00000000000E+00 0. -1.
         -2   -1    0    0    0  501 -0.00000000000E+00 -0.00000000000E+00 -0.33233081146E+03  0.33233081146E+03  0.00000000000E+00 0.  1.
         23    2    1    2    0    0  0.44597652429E+02 -0.46250685519E+02 -0.29636211194E+03  0.31684472476E+03  0.91825931547E+02 0.  0.
        -24    2    1    2    0    0 -0.72795370025E+02  0.30241742379E+02  0.10578967808E+03  0.15372359670E+03  0.78903481002E+02 0.  0.
         13    1    4    4    0    0 -0.67056192877E+02  0.54371622355E+02  0.87392899055E+02  0.12284268446E+03  0.00000000000E+00 0. -1.
        -14    1    4    4    0    0 -0.57391771483E+01 -0.24129879976E+02  0.18396779028E+02  0.30880912237E+02  0.00000000000E+00 0.  1.
        -11    1    3    3    0    0  0.66357723124E+02 -0.56581470142E+02 -0.21565424006E+03  0.23261891891E+03  0.00000000000E+00 0.  1.
         11    1    3    3    0    0 -0.21760070694E+02  0.10330784623E+02 -0.80707871881E+02  0.84225805851E+02  0.00000000000E+00 0. -1.
         21    1    1    2  502  501  0.28197717596E+02  0.16008943140E+02  0.14754900582E+03  0.15106987343E+03  0.00000000000E+00 0. -1.
<scales pt_clust_5="13000.00000" pt_clust_6="13000.00000" pt_clust_7="13000.00000" pt_clust_8="13000.00000" pt_clust_9="32.42526"></scales>
<clustering>
<clus scale="   32.425">  1  9  2 -1</clus>
<clus scale="   78.903">  5  6 -1 -1</clus>
<clus scale="   91.826">  7  8 -1 -1</clus>
<clus scale="  102.152">  1  5  2 -1</clus>
<clus scale="   32.425">  1  5  2 -1</clus>
</clustering>
</event>
<event>
 9    1  0.1973774E-005  0.1142888E+03  0.7546771E-02  0.1255214E+00
         -2   -1    0    0    0  501 -0.00000000000E+00  0.00000000000E+00  0.54313384810E+03  0.54313384810E+03  0.00000000000E+00 0.  1.
          1   -1    0    0  502    0  0.00000000000E+00 -0.00000000000E+00 -0.36565928631E+02  0.36565928631E+02  0.00000000000E+00 0. -1.
        -24    2    1    2    0    0  0.58798986820E+01  0.78092231123E+02  0.38590672395E+03  0.40165504047E+03  0.79182082458E+02 0.  0.
         23    2    1    2    0    0  0.11535279246E+02 -0.64848832337E+02  0.94498264322E+02  0.14393938473E+03  0.86314487742E+02 0.  0.
         13    1    3    3    0    0  0.26238023453E+02 -0.37334348177E+01  0.11023357777E+03  0.11337466241E+03  0.00000000000E+00 0. -1.
        -14    1    3    3    0    0 -0.20358124771E+02  0.81825665941E+02  0.27567314618E+03  0.28828037806E+03  0.00000000000E+00 0.  1.
        -11    1    4    4    0    0 -0.28629828315E+02  0.32470645301E+01  0.32775243215E+02  0.43639741810E+02  0.00000000000E+00 0.  1.
         11    1    4    4    0    0  0.40165107561E+02 -0.68095896867E+02  0.61723021108E+02  0.10029964292E+03  0.00000000000E+00 0. -1.
         21    1    1    2  502  501 -0.17415177928E+02 -0.13243398786E+02  0.26162931204E+02  0.34105351528E+02  0.00000000000E+00 0. -1.
<scales pt_clust_5="13000.00000" pt_clust_6="13000.00000" pt_clust_7="13000.00000" pt_clust_8="13000.00000" pt_clust_9="21.87867"></scales>
<clustering>
<clus scale="   21.879">  2  9  1 -1</clus>
<clus scale="   79.182">  5  6 -1 -1</clus>
<clus scale="   86.314">  7  8 -1 -1</clus>
<clus scale="  109.003">  1  5  2 -1</clus>
<clus scale="   21.879">  2  5  1 -1</clus>
</clustering>
</event>
<event>
 9    1  0.1973774E-005  0.9069057E+02  0.7546771E-02  0.1306167E+00
          1   -1    0    0  502    0  0.00000000000E+00  0.00000000000E+00  0.48117047770E+02  0.48117047770E+02  0.00000000000E+00 0. -1.
         -2   -1    0    0    0  501 -0.00000000000E+00 -0.00000000000E+00 -0.38481215477E+03  0.38481215477E+03  0.00000000000E+00 0.  1.
        -24    2    1    2    0    0  0.24873852204E+02 -0.42022887028E+01 -0.25775990970E+03  0.27149879573E+03  0.81455860942E+02 0.  0.
         23    2    1    2    0    0  0.18522261163E+02 -0.38273042360E+01 -0.72751659837E+02  0.11686659690E+03  0.89483378595E+02 0.  0.
         13    1    3    3    0    0 -0.25328644219E+02  0.14089555201E+01 -0.35885238453E+02  0.43946282123E+02  0.00000000000E+00 0. -1.
        -14    1    3    3    0    0  0.50202496424E+02 -0.56112442229E+01 -0.22187467125E+03  0.22755251361E+03  0.00000000000E+00 0.  1.
        -13    1    4    4    0    0 -0.21627995452E+02  0.24445061738E+02 -0.47426428516E+01  0.32982175366E+02  0.00000000000E+00 0.  1.
         13    1    4    4    0    0  0.40150256615E+02 -0.28272365974E+02 -0.68009016986E+02  0.83884421530E+02  0.00000000000E+00 0. -1.
         21    1    1    2  502  501 -0.43396113367E+02  0.80295929388E+01 -0.61835374625E+01  0.44563809910E+02  0.00000000000E+00 0. -1.
<scales pt_clust_5="13000.00000" pt_clust_6="13000.00000" pt_clust_7="13000.00000" pt_clust_8="13000.00000" pt_clust_9="44.13272"></scales>
<clustering>
<clus scale="   44.133">  1  9  2 -1</clus>
<clus scale="   81.456">  5  6 -1 -1</clus>
<clus scale="   82.780">  2  5  1 -1</clus>
<clus scale="   89.483">  7  8 -1 -1</clus>
<clus scale="   44.133">  1  5  2 -1</clus>
</clustering>
</event>
<event>
 9    1  0.1973774E-005  0.9684985E+02  0.7546771E-02  0.1291772E+00
          3   -1    0    0  502    0  0.00000000000E+00  0.00000000000E+00  0.99252664671E+02  0.99252664671E+02  0.00000000000E+00 0. -1.
         -4   -1    0    0    0  501 -0.00000000000E+00 -0.00000000000E+00 -0.84985151982E+03  0.84985151982E+03  0.00000000000E+00 0.  1.
        -24    2    1    2    0    0  0.32497565816E+02 -0.37143483960E+01 -0.80195792001E+03  0.80688084496E+03  0.82766565325E+02 0.  0.
         23    2    1    2    0    0 -0.15073901128E+01  0.24211052794E+02  0.43900128685E+02  0.10432688045E+03  0.91479119937E+02 0.  0.
         13    1    3    3    0    0  0.43668211862E+01 -0.32108927552E+02 -0.13933307020E+03  0.14305158792E+03  0.00000000000E+00 0. -1.
        -14    1    3    3    0    0  0.28130744630E+02  0.28394579156E+02 -0.66262484981E+03  0.66382925704E+03  0.00000000000E+00 0.  1.
        -11    1    4    4    0    0  0.31616683348E+00 -0.34458827935E+02  0.75272560317E+01  0.35272799258E+02  0.00000000000E+00 0.  1.
         11    1    4    4    0    0 -0.18235569462E+01  0.58669880729E+02  0.36372872654E+02  0.69054081196E+02  0.00000000000E+00 0. -1.
         21    1    1    2  502  501 -0.30990175703E+02 -0.20496704398E+02  0.74589361770E+01  0.37896459072E+02  0.00000000000E+00 0. -1.
<scales pt_clust_5="13000.00000" pt_clust_6="13000.00000" pt_clust_7="13000.00000" pt_clust_8="13000.00000" pt_clust_9="37.15516"></scales>
<clustering>
<clus scale="   37.155">  1  9  2 -1</clus>
<clus scale="   82.767">  5  6 -1 -1</clus>
<clus scale="   88.667">  2  5  1 -1</clus>
<clus scale="   91.479">  7  8 -1 -1</clus>
<clus scale="   37.155">  1  5  2 -1</clus>
</clustering>
</event>
<event>
 9    1  0.1973774E-005  0.8153482E+02  0.7546771E-02  0.1325393E+00
         -2   -1    0    0    0  501 -0.00000000000E+00  0.00000000000E+00  0.64288622148E+02  0.64288622148E+02  0.00000000000E+00 0.  1.
          1   -1    0    0  502    0  0.00000000000E+00 -0.00000000000E+00 -0.51027697620E+03  0.51027697620E+03  0.00000000000E+00 0. -1.
         23    2    1    2    0    0 -0.21707137952E+02  0.18298596276E+02  0.10356921995E+02  0.85472939099E+02  0.79951979470E+02 0.  0.
        -24    2    1    2    0    0 -0.25324442223E+02  0.86589227764E+01 -0.10755370581E+03  0.13611357087E+03  0.79011392996E+02 0.  0.
         13    1    4    4    0    0 -0.30115490908E+02  0.33019576630E+02 -0.10098513315E+03  0.11043202593E+03  0.00000000000E+00 0. -1.
        -14    1    4    4    0    0  0.47910486853E+01 -0.24360653854E+02 -0.65685726623E+01  0.25681544940E+02  0.00000000000E+00 0.  1.
        -13    1    3    3    0    0 -0.52684008116E-02 -0.24189618111E+02  0.25761169335E+02  0.35338017737E+02  0.00000000000E+00 0.  1.
         13    1    3    3    0    0 -0.21701869551E+02  0.42488214387E+02 -0.15404247340E+02  0.50134921362E+02  0.00000000000E+00 0. -1.
         21    1    1    2  502  501  0.47031580175E+02 -0.26957519053E+02 -0.34879157023E+03  0.35297908838E+03  0.00000000000E+00 0. -1.
<scales pt_clust_5="13000.00000" pt_clust_6="13000.00000" pt_clust_7="13000.00000" pt_clust_8="13000.00000" pt_clust_9="54.20957"></scales>
<clustering>
<clus scale="   54.210">  2  9  1 -1</clus>
<clus scale="   79.011">  5  6 -1 -1</clus>
<clus scale="   79.952">  7  8 -1 -1</clus>
<clus scale="   80.613">  2  5  1 -1</clus>
<clus scale="   54.210">  2  5  1 -1</clus>
</clustering>
</event>
<event>
 9    1  0.1973774E-005  0.1452476E+03  0.7546771E-02  0.1207975E+00
          1   -1    0    0  502    0  0.00000000000E+00  0.00000000000E+00  0.29389875399E+03  0.29389875399E+03  0.00000000000E+00 0. -1.
         -2   -1    0    0    0  501 -0.00000000000E+00 -0.00000000000E+00 -0.12130473390E+03  0.12130473390E+03  0.00000000000E+00 0.  1.
        -24    2    1    2    0    0  0.11667489553E+03  0.32496505962E+02 -0.41685680130E+02  0.15058881529E+03  0.79184854716E+02 0.  0.
         23    2    1    2    0    0 -0.93813335505E+02 -0.29151736802E+02  0.17223109090E+03  0.21663630296E+03  0.87275273766E+02 0.  0.
         13    1    3    3    0    0  0.58709055733E+02  0.28360209588E+01  0.18805606164E+02  0.61712616726E+02  0.00000000000E+00 0. -1.
        -14    1    3    3    0    0  0.57965839796E+02  0.29660485003E+02 -0.60491286294E+02  0.88876198565E+02  0.00000000000E+00 0.  1.
        -11    1    4    4    0    0 -0.81769836488E+01 -0.43546097555E+02  0.51831724370E+02  0.68188366494E+02  0.00000000000E+00 0.  1.
         11    1    4    4    0    0 -0.85636351856E+02  0.14394360753E+02  0.12039936653E+03  0.14844793646E+03  0.00000000000E+00 0. -1.
         21    1    1    2  502  501 -0.22861560024E+02 -0.33447691601E+01  0.42048609328E+02  0.47978369646E+02  0.00000000000E+00 0. -1.
<scales pt_clust_5="13000.00000" pt_clust_6="13000.00000" pt_clust_7="13000.00000" pt_clust_8="13000.00000" pt_clust_9="23.10494"></scales>
<clustering>
<clus scale="   23.105">  1  9  2 -1</clus>
<clus scale="   79.185">  5  6 -1 -1</clus>
<clus scale="   87.275">  7  8 -1 -1</clus>
<clus scale="  140.535">  2  5  1 -1</clus>
<clus scale="   23.105">  1  5  2 -1</clus>
</clustering>
</event>
<event>
 9    1  0.1973774E-005  0.1106150E+03  0.7546771E-02  0.1262839E+00
          1   -1    0    0  502    0  0.00000000000E+00  0.00000000000E+00  0.12266920413E+03  0.12266920413E+03  0.00000000000E+00 0. -1.
         -2   -1    0    0    0  501 -0.00000000000E+00 -0.00000000000E+00 -0.40543107676E+03  0.40543107676E+03  0.00000000000E+00 0.  1.
         23    2    1    2    0    0 -0.36480281135E+02 -0.55101253055E+02 -0.36494726265E+03  0.38177319194E+03  0.90538978140E+02 0.  0.
        -24    2    1    2    0    0  0.30683382843E+02  0.25720343262E+02  0.58358764671E+02  0.10805764990E+03  0.81656011703E+02 0.  0.
         11    1    4    4    0    0  0.30098630685E+01  0.49228426186E+02  0.51118394557E+02  0.71032298868E+02  0.00000000000E+00 0. -1.
        -12    1    4    4    0    0  0.27673519775E+02 -0.23508082924E+02  0.72403701143E+01  0.37025351030E+02  0.00000000000E+00 0.  1.
        -13    1    3    3    0    0  0.25402670344E+02 -0.38147149524E+02 -0.18943408799E+03  0.19489939551E+03  0.00000000000E+00 0.  1.
         13    1    3    3    0    0 -0.61882951479E+02 -0.16954103531E+02 -0.17551317467E+03  0.18687379643E+03  0.00000000000E+00 0. -1.
         21    1    1    2  502  501  0.57968982923E+01  0.29380909794E+02  0.23826625356E+02  0.38269439060E+02  0.00000000000E+00 0. -1.
<scales pt_clust_5="13000.00000" pt_clust_6="13000.00000" pt_clust_7="13000.00000" pt_clust_8="13000.00000" pt_clust_9="29.94732"></scales>
<clustering>
<clus scale="   29.947">  1  9  2 -1</clus>
<clus scale="   81.656">  5  6 -1 -1</clus>
<clus scale="   90.539">  7  8 -1 -1</clus>
<clus scale="  103.470">  1  5  2 -1</clus>
<clus scale="   29.947">  1  5  2 -1</clus>
</clustering>
</event>
<event>
 9    1  0.1973774E-005  0.1526066E+03  0.7546771E-02  0.1199309E+00
          1   -1    0    0  502    0  0.00000000000E+00  0.00000000000E+00  0.47604572014E+03  0.47604572014E+03  0.00000000000E+00 0. -1.
         -2   -1    0    0    0  501 -0.00000000000E+00 -0.00000000000E+00 -0.75852651298E+02  0.75852651298E+02  0.00000000000E+00 0.  1.
        -24    2    1    2    0    0 -0.11314840149E+03  0.42628397177E+02  0.56175300504E+02  0.15557582532E+03  0.80177503284E+02 0.  0.
         23    2    1    2    0    0  0.12792869129E+03 -0.11625101158E+02  0.24366983505E+03  0.29025950332E+03  0.91513374571E+02 0.  0.
         11    1    3    3    0    0 -0.45613832434E+02  0.39722418299E+02  0.63362963870E+02  0.87597702111E+02  0.00000000000E+00 0. -1.
        -12    1    3    3    0    0 -0.67534569055E+02  0.29059788784E+01 -0.71876633664E+01  0.67978123211E+02  0.00000000000E+00 0.  1.
        -11    1    4    4    0    0  0.13178867168E+03  0.12824208685E+02  0.21360858809E+03  0.25131920583E+03  0.00000000000E+00 0. -1.
         11    1    4    4    0    0 -0.38599803912E+01 -0.24449309843E+02  0.30061246953E+02  0.38940297493E+02  0.00000000000E+00 0.  1.
         21    1    1    2  502  501 -0.14780289800E+02 -0.31003296019E+02  0.10034793329E+03  0.10606304280E+03  0.00000000000E+00 0.  1.
<scales pt_clust_5="13000.00000" pt_clust_6="13000.00000" pt_clust_7="13000.00000" pt_clust_8="13000.00000" pt_clust_9="34.34620"></scales>
<clustering>
<clus scale="   34.346">  1  9  2 -1</clus>
<clus scale="   80.178">  5  6 -1 -1</clus>
<clus scale="   91.513">  7  8 -1 -1</clus>
<clus scale="  146.091">  2  5  1 -1</clus>
<clus scale="   34.346">  1  5  2 -1</clus>
</clustering>
</event>
<event>
 9    1  0.1973774E-005  0.1132597E+03  0.7546771E-02  0.1260020E+00
         -2   -1    0    0    0  501 -0.00000000000E+00  0.00000000000E+00  0.34534085255E+03  0.34534085255E+03  0.00000000000E+00 0.  1.
          1   -1    0    0  502    0  0.00000000000E+00 -0.00000000000E+00 -0.16251653299E+03  0.16251653299E+03  0.00000000000E+00 0. -1.
        -24    2    1    2    0    0  0.54745397432E+02  0.34991049149E+02  0.29854086437E+03  0.31594248490E+03  0.80446093780E+02 0.  0.
         23    2    1    2    0    0 -0.46361055991E+02  0.18400930379E+01 -0.50912892831E+02  0.11690594433E+03  0.94457099831E+02 0.  0.
         13    1    3    3    0    0  0.20613869561E+02  0.44477326160E+02  0.74920268028E+02  0.89533293930E+02  0.00000000000E+00 0. -1.
        -14    1    3    3    0    0  0.34131527870E+02 -0.94862770114E+01  0.22362059634E+03  0.22640919097E+03  0.00000000000E+00 0.  1.
        -11    1    4    4    0    0 -0.35003765712E+01  0.44574278054E+02 -0.21878110862E+02  0.49777209997E+02  0.00000000000E+00 0.  1.
         11    1    4    4    0    0 -0.42860679420E+02 -0.42734185016E+02 -0.29034781969E+02  0.67128734334E+02  0.00000000000E+00 0. -1.
         21    1    1    2  502  501 -0.83843414409E+01 -0.36831142187E+02 -0.64803651986E+02  0.75008956312E+02  0.00000000000E+00 0. -1.
<scales pt_clust_5="13000.00000" pt_clust_6="13000.00000" pt_clust_7="13000.00000" pt_clust_8="13000.00000" pt_clust_9="37.77341"></scales>
<clustering>
<clus scale="   37.773">  2  9  1 -1</clus>
<clus scale="   80.446">  5  6 -1 -1</clus>
<clus scale="   94.457">  7  8 -1 -1</clus>
<clus scale="  101.869">  1  5  2 -1</clus>
<clus scale="   37.773">  2  5  1 -1</clus>
</clustering>
</event>
<event>
 9    1  0.1973774E-005  0.2246525E+03  0.7546771E-02  0.1146885E+00
          1   -1    0    0  502    0  0.00000000000E+00  0.00000000000E+00  0.53350705077E+03  0.53350705077E+03  0.00000000000E+00 0. -1.
         -2   -1    0    0    0  501 -0.00000000000E+00 -0.00000000000E+00 -0.18952828180E+03  0.18952828180E+03  0.00000000000E+00 0.  1.
         23    2    1    2    0    0 -0.21692844351E+03  0.19525063752E+03  0.15497313272E+03  0.34285311646E+03  0.91382856967E+02 0.  0.
        -24    2    1    2    0    0  0.79294415037E+02 -0.10051498681E+03  0.14031306944E+03  0.20614504946E+03  0.80107160315E+02 0.  0.
         11    1    4    4    0    0  0.42007544016E+02 -0.10483474380E+03  0.97447340970E+02  0.14916749486E+03  0.00000000000E+00 0. -1.
        -12    1    4    4    0    0  0.37286871022E+02  0.43197569918E+01  0.42865728467E+02  0.56977554599E+02  0.00000000000E+00 0.  1.
        -13    1    3    3    0    0 -0.17003486478E+03  0.15618416321E+03  0.76048114035E+02  0.24308159891E+03  0.00000000000E+00 0.  1.
         13    1    3    3    0    0 -0.46893578730E+02  0.39066474308E+02  0.78925018683E+02  0.99771517554E+02  0.00000000000E+00 0. -1.
         21    1    1    2  502  501  0.13763402848E+03 -0.94735650710E+02  0.48692566822E+02  0.17403716665E+03  0.00000000000E+00 0.  1.
<scales pt_clust_5="13000.00000" pt_clust_6="13000.00000" pt_clust_7="13000.00000" pt_clust_8="13000.00000" pt_clust_9="205.22653"></scales>
<clustering>
<clus scale="   80.107">  5  6 -1 -1</clus>
<clus scale="   91.383">  7  8 -1 -1</clus>
<clus scale="  151.023">  1  5  2 -1</clus>
<clus scale="  205.227">  2  9  1 -1</clus>
<clus scale="  151.023">  1  5  2 -1</clus>
</clustering>
</event>
<event>
 9    1  0.1973774E-005  0.1231023E+03  0.7546771E-02  0.1259753E+00
          1   -1    0    0  502    0  0.00000000000E+00  0.00000000000E+00  0.24108231851E+03  0.24108231851E+03  0.00000000000E+00 0. -1.
         -2   -1    0    0    0  501 -0.00000000000E+00 -0.00000000000E+00 -0.11020043059E+03  0.11020043059E+03  0.00000000000E+00 0.  1.
        -24    2    1    2    0    0  0.25543043912E+01  0.14341577858E+02 -0.33415084492E+02  0.86469492733E+02  0.78410458329E+02 0.  0.
         23    2    1    2    0    0 -0.81377935208E+02 -0.29071180751E+02  0.85052804688E+02  0.15207566683E+03  0.91790669282E+02 0.  0.
         13    1    3    3    0    0  0.25312539874E+02 -0.93264927806E+01  0.12734815707E+02  0.29830918081E+02  0.00000000000E+00 0. -1.
        -14    1    3    3    0    0 -0.22758235483E+02  0.23668070639E+02 -0.46149900200E+02  0.56638574651E+02  0.00000000000E+00 0.  1.
        -13    1    4    4    0    0  0.62582052916E+01  0.23154932439E+02  0.18117920810E+02  0.30059525682E+02  0.00000000000E+00 0.  1.
         13    1    4    4    0    0 -0.87636140499E+02 -0.52226113190E+02  0.66934883878E+02  0.12201614115E+03  0.00000000000E+00 0. -1.
         21    1    1    2  502  501  0.78823630817E+02  0.14729602893E+02  0.79244167731E+02  0.11273758954E+03  0.00000000000E+00 0.  1.
<scales pt_clust_5="13000.00000" pt_clust_6="13000.00000" pt_clust_7="13000.00000" pt_clust_8="13000.00000" pt_clust_9="82.02832"></scales>
<clustering>
<clus scale="   78.410">  5  6 -1 -1</clus>
<clus scale="   79.752">  2  5  1 -1</clus>
<clus scale="   82.028">  1  9  2 -1</clus>
<clus scale="   91.791">  7  8 -1 -1</clus>
<clus scale="   82.028">  1  5  2 -1</clus>
</clustering>
</event>
<event>
 9    1  0.1973774E-005  0.1142502E+03  0.7546771E-02  0.1254460E+00
         -2   -1    0    0    0  501 -0.00000000000E+00  0.00000000000E+00  0.12581642625E+03  0.12581642625E+03  0.00000000000E+00 0.  1.
          1   -1    0    0  502    0  0.00000000000E+00 -0.00000000000E+00 -0.56187096031E+03  0.56187096031E+03  0.00000000000E+00 0. -1.
         23    2    1    2    0    0  0.65149336405E+02 -0.90502439794E+01  0.86444515152E+02  0.14287387416E+03  0.92811350431E+02 0.  0.
        -24    2    1    2    0    0 -0.83188748150E+02 -0.12874444238E+02 -0.46380059371E+03  0.47960905696E+03  0.88474502887E+02 0.  0.
         13    1    4    4    0    0 -0.21889308661E+02 -0.46927203596E+02 -0.21129830650E+03  0.21755063457E+03  0.00000000000E+00 0. -1.
        -14    1    4    4    0    0 -0.61299439490E+02  0.34052759358E+02 -0.25250228721E+03  0.26205842240E+03  0.00000000000E+00 0.  1.
        -13    1    3    3    0    0  0.12615903696E+01 -0.25844395554E+02  0.70243928971E+02  0.74858092075E+02  0.00000000000E+00 0.  1.
         13    1    3    3    0    0  0.63887746036E+02  0.16794151574E+02  0.16200586181E+02  0.68015782089E+02  0.00000000000E+00 0. -1.
         21    1    1    2  502  501  0.18039411745E+02  0.21924688217E+02 -0.58698455500E+02  0.65204455428E+02  0.00000000000E+00 0.  1.
<scales pt_clust_5="13000.00000" pt_clust_6="13000.00000" pt_clust_7="13000.00000" pt_clust_8="13000.00000" pt_clust_9="28.39212"></scales>
<clustering>
<clus scale="   28.392">  2  9  1 -1</clus>
<clus scale="   88.475">  5  6 -1 -1</clus>
<clus scale="   92.811">  7  8 -1 -1</clus>
<clus scale="  110.756">  2  5  1 -1</clus>
<clus scale="   28.392">  2  5  1 -1</clus>
</clustering>
</event>
<event>
 9    1  0.1973774E-005  0.1692753E+03  0.7546771E-02  0.1179786E+00
          3   -1    0    0  502    0  0.00000000000E+00  0.00000000000E+00  0.19044013861E+03  0.19044013861E+03  0.00000000000E+00 0. -1.
         -4   -1    0    0    0  501 -0.00000000000E+00 -0.00000000000E+00 -0.17628576206E+03  0.17628576206E+03  0.00000000000E+00 0.  1.
         23    2    1    2    0    0 -0.93171338148E+02 -0.11908094258E+03 -0.42368876684E+02  0.18047251134E+03  0.88960870608E+02 0.  0.
        -24    2    1    2    0    0  0.90844312068E+02  0.97285054785E+02  0.52030092307E+02  0.16387786095E+03  0.80198203756E+02 0.  0.
         11    1    4    4    0    0  0.65816393651E+02  0.22114311182E+02  0.48266807221E+02  0.84560777619E+02  0.00000000000E+00 0. -1.
        -12    1    4    4    0    0  0.25027918416E+02  0.75170743603E+02  0.37632850866E+01  0.79317083334E+02  0.00000000000E+00 0.  1.
        -13    1    3    3    0    0 -0.53741799137E+01 -0.68598012121E+02  0.43382584862E+01  0.68944829852E+02  0.00000000000E+00 0.  1.
         13    1    3    3    0    0 -0.87797158234E+02 -0.50482930456E+02 -0.46707135170E+02  0.11152768148E+03  0.00000000000E+00 0. -1.
         21    1    1    2  502  501  0.23270260800E+01  0.21795887792E+02  0.44931609271E+01  0.22375528377E+02  0.00000000000E+00 0. -1.
<scales pt_clust_5="13000.00000" pt_clust_6="13000.00000" pt_clust_7="13000.00000" pt_clust_8="13000.00000" pt_clust_9="21.91976"></scales>
<clustering>
<clus scale="   21.920">  1  9  2 -1</clus>
<clus scale="   80.198">  5  6 -1 -1</clus>
<clus scale="   88.961">  7  8 -1 -1</clus>
<clus scale="  164.839">  1  5  2 -1</clus>
<clus scale="   21.920">  1  5  2 -1</clus>
</clustering>
</event>
<event>
 9    1  0.1973774E-005  0.9781797E+02  0.7546771E-02  0.1291728E+00
         -2   -1    0    0    0  501 -0.00000000000E+00  0.00000000000E+00  0.11471608284E+03  0.11471608284E+03  0.00000000000E+00 0.  1.
          1   -1    0    0  502    0  0.00000000000E+00 -0.00000000000E+00 -0.46438743452E+03  0.46438743452E+03  0.00000000000E+00 0. -1.
         23    2    1    2    0    0 -0.29777843523E+02 -0.12947501091E+02  0.80012512156E+02  0.12679746331E+03  0.92850615787E+02 0.  0.
        -24    2    1    2    0    0 -0.80633335126E+01  0.42869862180E+02 -0.24865354142E+03  0.26495803562E+03  0.80444605462E+02 0.  0.
         11    1    4    4    0    0  0.20300510127E+02  0.55757926171E+02 -0.18093427551E+03  0.19041604212E+03  0.00000000000E+00 0. -1.
        -12    1    4    4    0    0 -0.28363843640E+02 -0.12888063991E+02 -0.67719265908E+02  0.74541993497E+02  0.00000000000E+00 0.  1.
        -13    1    3    3    0    0 -0.22574546385E+02 -0.52986228022E+02  0.44232320639E+02  0.72619891859E+02  0.00000000000E+00 0.  1.
         13    1    3    3    0    0 -0.72032971385E+01  0.40038726930E+02  0.35780191517E+02  0.54177571456E+02  0.00000000000E+00 0. -1.
         21    1    1    2  502  501  0.37841177036E+02 -0.29922361089E+02 -0.18103032242E+03  0.18734801842E+03  0.00000000000E+00 0. -1.
<scales pt_clust_5="13000.00000" pt_clust_6="13000.00000" pt_clust_7="13000.00000" pt_clust_8="13000.00000" pt_clust_9="48.24212"></scales>
<clustering>
<clus scale="   48.242">  2  9  1 -1</clus>
<clus scale="   80.445">  5  6 -1 -1</clus>
<clus scale="   86.130">  2  5  1 -1</clus>
<clus scale="   92.851">  7  8 -1 -1</clus>
<clus scale="   48.242">  2  5  1 -1</clus>
</clustering>
</event>
<event>
 9    1  0.1973774E-005  0.1653221E+03  0.7546771E-02  0.1191438E+00
         -2   -1    0    0    0  501 -0.00000000000E+00  0.00000000000E+00  0.67426896445E+02  0.67426896445E+02  0.00000000000E+00 0.  1.
          1   -1    0    0  502    0  0.00000000000E+00 -0.00000000000E+00 -0.89671365094E+03  0.89671365094E+03  0.00000000000E+00 0. -1.
        -24    2    1    2    0    0 -0.12414728706E+02 -0.10726102633E+03 -0.21923503463E+03  0.25826486603E+03  0.83532552683E+02 0.  0.
         23    2    1    2    0    0 -0.12847409033E+03  0.68061373251E+02 -0.16632889453E+03  0.23867527697E+03  0.90347353410E+02 0.  0.
         11    1    3    3    0    0 -0.18102530901E+02 -0.59952820366E+02 -0.19499423911E+03  0.20480428604E+03  0.00000000000E+00 0. -1.
        -12    1    3    3    0    0  0.56878021943E+01 -0.47308205964E+02 -0.24240795522E+02  0.53460579991E+02  0.00000000000E+00 0.  1.
        -13    1    4    4    0    0 -0.12512466197E+03  0.27167944476E+02 -0.10885598390E+03  0.16805922608E+03  0.00000000000E+00 0.  1.
         13    1    4    4    0    0 -0.33494283583E+01  0.40893428775E+02 -0.57472910631E+02  0.70616050893E+02  0.00000000000E+00 0. -1.
         21    1    1    2  502  501  0.14088881903E+03  0.39199653079E+02 -0.44372282534E+03  0.46720040439E+03  0.00000000000E+00 0. -1.
<scales pt_clust_5="13000.00000" pt_clust_6="13000.00000" pt_clust_7="13000.00000" pt_clust_8="13000.00000" pt_clust_9="138.45126"></scales>
<clustering>
<clus scale="   83.533">  5  6 -1 -1</clus>
<clus scale="   90.347">  7  8 -1 -1</clus>
<clus scale="  136.516">  1  5  2 -1</clus>
<clus scale="  138.451">  2  9  1 -1</clus>
<clus scale="  138.451">  2  5  1 -1</clus>
</clustering>
</event>
<event>
 9    1  0.3846418E-005  0.1005216E+03  0.7546771E-02  0.1286600E+00
         -2   -1    0    0    0  501 -0.00000000000E+00  0.00000000000E+00  0.17457295818E+03  0.17457295818E+03  0.00000000000E+00 0.  1.
          1   -1    0    0  502    0  0.00000000000E+00 -0.00000000000E+00 -0.38753391722E+03  0.38753391722E+03  0.00000000000E+00 0. -1.
         23    2    1    2    0    0 -0.22377258990E+02 -0.25172799603E+02  0.14699347756E+03  0.17790207601E+03  0.94380372129E+02 0.  0.
        -24    2    1    2    0    0  0.36188876649E+02  0.41877289084E+02 -0.34330043758E+03  0.35687063698E+03  0.80237889776E+02 0.  0.
         11    1    4    4    0    0  0.55143245087E+02  0.15109117576E+02 -0.27773051433E+03  0.28355475927E+03  0.00000000000E+00 0. -1.
        -12    1    4    4    0    0 -0.18954368437E+02  0.26768171508E+02 -0.65569923255E+02  0.73315877710E+02  0.00000000000E+00 0.  1.
        -13    1    3    3    0    0 -0.59430989738E+02 -0.18112270233E+02  0.84028521833E+02  0.10450305907E+03  0.00000000000E+00 0.  1.
         13    1    3    3    0    0  0.37053730748E+02 -0.70605293699E+01  0.62964955730E+02  0.73399016938E+02  0.00000000000E+00 0. -1.
         21    1    1    2  502  501 -0.13811617659E+02 -0.16704489481E+02 -0.16653999018E+02  0.27334162407E+02  0.00000000000E+00 0.  1.
<scales pt_clust_5="13000.00000" pt_clust_6="13000.00000" pt_clust_7="13000.00000" pt_clust_8="13000.00000" pt_clust_9="21.67489"></scales>
<clustering>
<clus scale="   21.675">  2  9  1 -1</clus>
<clus scale="   80.238">  5  6 -1 -1</clus>
<clus scale="   87.379">  2  5  1 -1</clus>
<clus scale="   94.380">  7  8 -1 -1</clus>
<clus scale="   21.675">  2  5  1 -1</clus>
</clustering>
</event>
<event>
 9    1  0.1973774E-005  0.1507585E+03  0.7546771E-02  0.1202096E+00
         -2   -1    0    0    0  501 -0.00000000000E+00  0.00000000000E+00  0.82421605819E+03  0.82421605819E+03  0.00000000000E+00 0.  1.
          1   -1    0    0  502    0  0.00000000000E+00 -0.00000000000E+00 -0.32673461865E+02  0.32673461865E+02  0.00000000000E+00 0. -1.
         23    2    1    2    0    0  0.33825593375E+02 -0.95639404723E+02  0.41069895315E+03  0.43325020992E+03  0.93493570754E+02 0.  0.
        -24    2    1    2    0    0 -0.53932809413E+02  0.11954338220E+03  0.30033224470E+03  0.33728083887E+03  0.79746717175E+02 0.  0.
         11    1    4    4    0    0 -0.56507988657E+02  0.89316992227E+02  0.14744533975E+03  0.18141335699E+03  0.00000000000E+00 0. -1.
        -12    1    4    4    0    0  0.25751792442E+01  0.30226389974E+02  0.15288690496E+03  0.15586748188E+03  0.00000000000E+00 0.  1.
        -13    1    3    3    0    0  0.31383282732E+02 -0.22843285442E+02  0.41060731269E+02  0.56504068678E+02  0.00000000000E+00 0. -1.
         13    1    3    3    0    0  0.24423106427E+01 -0.72796119281E+02  0.36963822188E+03  0.37674614124E+03  0.00000000000E+00 0.  1.
         21    1    1    2  502  501  0.20107216038E+02 -0.23903977479E+02  0.80511398478E+02  0.86358471275E+02  0.00000000000E+00 0.  1.
<scales pt_clust_5="13000.00000" pt_clust_6="13000.00000" pt_clust_7="13000.00000" pt_clust_8="13000.00000" pt_clust_9="31.23620"></scales>
<clustering>
<clus scale="   31.236">  1  9  2 -1</clus>
<clus scale="   79.747">  5  6 -1 -1</clus>
<clus scale="   93.494">  7  8 -1 -1</clus>
<clus scale="  142.642">  2  5  1 -1</clus>
<clus scale="  142.642">  2  5  1 -1</clus>
</clustering>
</event>
<event>
 9    1  0.1973774E-005  0.9272070E+02  0.7546771E-02  0.1303747E+00
         -2   -1    0    0    0  501 -0.00000000000E+00  0.00000000000E+00  0.11733598082E+03  0.11733598082E+03  0.00000000000E+00 0.  1.
          1   -1    0    0  502    0  0.00000000000E+00 -0.00000000000E+00 -0.18596487032E+03  0.18596487032E+03  0.00000000000E+00 0. -1.
        -24    2    1    2    0    0  0.86147898552E+01  0.59771293244E+01  0.61832735395E+02  0.10231113540E+03  0.80835268175E+02 0.  0.
         23    2    1    2    0    0  0.32052552083E+02  0.15061424671E+02 -0.11680372617E+03  0.15320905383E+03  0.92605027512E+02 0.  0.
         13    1    3    3    0    0 -0.72402675070E+01 -0.35865956494E+02  0.31179477840E+02  0.48072322049E+02  0.00000000000E+00 0. -1.
        -14    1    3    3    0    0  0.15855057362E+02  0.41843085819E+02  0.30653257554E+02  0.54238813349E+02  0.00000000000E+00 0.  1.
        -13    1    4    4    0    0  0.38869184719E+02 -0.29613253395E+02 -0.84665906728E+02  0.97755174080E+02  0.00000000000E+00 0.  1.
         13    1    4    4    0    0 -0.68166326366E+01  0.44674678067E+02 -0.32137819440E+02  0.55453879749E+02  0.00000000000E+00 0. -1.
         21    1    1    2  502  501 -0.40667341938E+02 -0.21038553996E+02 -0.13657898727E+02  0.47780661906E+02  0.00000000000E+00 0. -1.
<scales pt_clust_5="13000.00000" pt_clust_6="13000.00000" pt_clust_7="13000.00000" pt_clust_8="13000.00000" pt_clust_9="45.78704"></scales>
<clustering>
<clus scale="   45.787">  2  9  1 -1</clus>
<clus scale="   80.835">  5  6 -1 -1</clus>
<clus scale="   80.968">  1  5  2 -1</clus>
<clus scale="   92.605">  7  8 -1 -1</clus>
<clus scale="   45.787">  2  5  1 -1</clus>
</clustering>
</event>
<event>
 9    1  0.1973774E-005  0.2628813E+03  0.7546771E-02  0.1105873E+00
          1   -1    0    0  502    0  0.00000000000E+00  0.00000000000E+00  0.35810709890E+03  0.35810709890E+03  0.00000000000E+00 0. -1.
         -2   -1    0    0    0  501 -0.00000000000E+00 -0.00000000000E+00 -0.11924957781E+04  0.11924957781E+04  0.00000000000E+00 0.  1.
         23    2    1    2    0    0  0.25984806352E+01  0.25409228087E+03 -0.97265487993E+03  0.10093870909E+04  0.90747697177E+02 0.  0.
        -24    2    1    2    0    0  0.13329076090E+03 -0.12986118327E+03  0.25282999441E+03  0.32436534361E+03  0.81605858857E+02 0.  0.
         13    1    4    4    0    0  0.60256867477E+02 -0.10014683107E+03  0.10639060873E+03  0.15804821884E+03  0.00000000000E+00 0. -1.
        -14    1    4    4    0    0  0.73033893419E+02 -0.29714352204E+02  0.14643938567E+03  0.16631712477E+03  0.00000000000E+00 0.  1.
        -13    1    3    3    0    0  0.30345419535E+02  0.41739165962E+02 -0.12812492387E+03  0.13812674824E+03  0.00000000000E+00 0. -1.
         13    1    3    3    0    0 -0.27746938900E+02  0.21235311490E+03 -0.84452995606E+03  0.87126034267E+03  0.00000000000E+00 0.  1.
         21    1    1    2  502  501 -0.13588924153E+03 -0.12423109759E+03 -0.11456379363E+03  0.21685044244E+03  0.00000000000E+00 0.  1.
<scales pt_clust_5="13000.00000" pt_clust_6="13000.00000" pt_clust_7="13000.00000" pt_clust_8="13000.00000" pt_clust_9="184.11749"></scales>
<clustering>
<clus scale="   81.606">  5  6 -1 -1</clus>
<clus scale="   90.748">  7  8 -1 -1</clus>
<clus scale="  184.117">  1  9  2 -1</clus>
<clus scale="  259.867">  1  5  2 -1</clus>
<clus scale="  184.117">  1  5  2 -1</clus>
</clustering>
</event>
<event>
 9    1  0.1973774E-005  0.1160324E+03  0.7546771E-02  0.1254103E+00
          1   -1    0    0  502    0  0.00000000000E+00  0.00000000000E+00  0.33480145719E+03  0.33480145719E+03  0.00000000000E+00 0. -1.
         -2   -1    0    0    0  501 -0.00000000000E+00 -0.00000000000E+00 -0.78878608909E+02  0.78878608909E+02  0.00000000000E+00 0.  1.
        -24    2    1    2    0    0 -0.26495891929E+02 -0.76636333408E+02  0.20873884843E+01  0.11414373025E+03  0.80307372500E+02 0.  0.
         23    2    1    2    0    0  0.40236509019E+02  0.23242398529E+02  0.15691216169E+03  0.18802919457E+03  0.92597871343E+02 0.  0.
         13    1    3    3    0    0 -0.33469005194E+00 -0.23201637542E+02  0.38091499818E+02  0.44602582441E+02  0.00000000000E+00 0. -1.
        -14    1    3    3    0    0 -0.26161201877E+02 -0.53434695866E+02 -0.36004111334E+02  0.69541147811E+02  0.00000000000E+00 0.  1.
        -13    1    4    4    0    0  0.20324728364E+02  0.43985079689E+02  0.28027270898E+02  0.55975974599E+02  0.00000000000E+00 0.  1.
         13    1    4    4    0    0  0.19911780655E+02 -0.20742681160E+02  0.12888489079E+03  0.13205321997E+03  0.00000000000E+00 0. -1.
         21    1    1    2  502  501 -0.13740617090E+02  0.53393934879E+02  0.96923298113E+02  0.11150714128E+03  0.00000000000E+00 0. -1.
<scales pt_clust_5="13000.00000" pt_clust_6="13000.00000" pt_clust_7="13000.00000" pt_clust_8="13000.00000" pt_clust_9="55.13363"></scales>
<clustering>
<clus scale="   55.134">  1  9  2 -1</clus>
<clus scale="   80.307">  5  6 -1 -1</clus>
<clus scale="   92.598">  7  8 -1 -1</clus>
<clus scale="  106.482">  2  5  1 -1</clus>
<clus scale="   55.134">  1  5  2 -1</clus>
</clustering>
</event>
<event>
 9    1  0.1973774E-005  0.1143502E+03  0.7546771E-02  0.1254610E+00
          1   -1    0    0  502    0  0.00000000000E+00  0.00000000000E+00  0.38809505339E+03  0.38809505339E+03  0.00000000000E+00 0. -1.
         -2   -1    0    0    0  501 -0.00000000000E+00 -0.00000000000E+00 -0.15185207005E+03  0.15185207005E+03  0.00000000000E+00 0.  1.
         23    2    1    2    0    0 -0.46463898395E+02  0.70459433766E+02 -0.11415697926E+03  0.15998458223E+03  0.73755169163E+02 0.  0.
        -24    2    1    2    0    0  0.27746592735E+02 -0.54861560463E+02  0.16792060541E+03  0.19586379872E+03  0.79910160199E+02 0.  0.
         13    1    4    4    0    0 -0.14960606735E+02 -0.52577288020E+02  0.11854083213E+03  0.13053781005E+03  0.00000000000E+00 0. -1.
        -14    1    4    4    0    0  0.42707199470E+02 -0.22842724424E+01  0.49379773280E+02  0.65325988675E+02  0.00000000000E+00 0.  1.
        -11    1    3    3    0    0 -0.61862613427E+02  0.30848153527E+02 -0.77611238172E+02  0.10393313142E+03  0.00000000000E+00 0.  1.
         11    1    3    3    0    0  0.15398715032E+02  0.39611280239E+02 -0.36545741087E+02  0.56051450815E+02  0.00000000000E+00 0. -1.
         21    1    1    2  502  501  0.18717305660E+02 -0.15597873303E+02  0.18247935719E+03  0.18409874248E+03  0.00000000000E+00 0. -1.
<scales pt_clust_5="13000.00000" pt_clust_6="13000.00000" pt_clust_7="13000.00000" pt_clust_8="13000.00000" pt_clust_9="24.36455"></scales>
<clustering>
<clus scale="   24.365">  1  9  2 -1</clus>
<clus scale="   73.755">  7  8 -1 -1</clus>
<clus scale="   79.910">  5  6 -1 -1</clus>
<clus scale="  110.137">  2  7  1 -1</clus>
<clus scale="   24.365">  1  5  2 -1</clus>
</clustering>
</event>
<event>
 9    1  0.1973774E-005  0.9557785E+02  0.7546771E-02  0.1296531E+00
          1   -1    0    0  502    0  0.00000000000E+00  0.00000000000E+00  0.15545666456E+03  0.15545666456E+03  0.00000000000E+00 0. -1.
         -2   -1    0    0    0  501 -0.00000000000E+00 -0.00000000000E+00 -0.97443546566E+02  0.97443546566E+02  0.00000000000E+00 0.  1.
        -24    2    1    2    0    0  0.28683082004E+02  0.24493597201E+02 -0.34609317673E+02  0.94301252224E+02  0.79197637617E+02 0.  0.
         23    2    1    2    0    0  0.24452752408E+01 -0.55800846073E+01  0.75333760435E+02  0.11828030473E+03  0.90983175971E+02 0.  0.
         11    1    3    3    0    0  0.41951059568E+02  0.32552804409E+02 -0.49642910642E+02  0.72691093339E+02  0.00000000000E+00 0. -1.
        -12    1    3    3    0    0 -0.13267977565E+02 -0.80592072075E+01  0.15033592969E+02  0.21610158885E+02  0.00000000000E+00 0.  1.
        -11    1    4    4    0    0 -0.29770421917E+02  0.28991142783E+02  0.21982607813E+02  0.47010631003E+02  0.00000000000E+00 0.  1.
         11    1    4    4    0    0  0.32215697158E+02 -0.34571227391E+02  0.53351152621E+02  0.71269673724E+02  0.00000000000E+00 0. -1.
         21    1    1    2  502  501 -0.31128357244E+02 -0.18913512594E+02  0.17288675234E+02  0.40318654178E+02  0.00000000000E+00 0.  1.
<scales pt_clust_5="13000.00000" pt_clust_6="13000.00000" pt_clust_7="13000.00000" pt_clust_8="13000.00000" pt_clust_9="36.42383"></scales>
<clustering>
<clus scale="   36.424">  1  9  2 -1</clus>
<clus scale="   79.198">  5  6 -1 -1</clus>
<clus scale="   84.436">  2  5  1 -1</clus>
<clus scale="   90.983">  7  8 -1 -1</clus>
<clus scale="   36.424">  1  5  2 -1</clus>
</clustering>
</event>
<event>
 9    1  0.1973774E-005  0.9281832E+02  0.7546771E-02  0.1302439E+00
         -2   -1    0    0    0  501 -0.00000000000E+00  0.00000000000E+00  0.56754777647E+03  0.56754777647E+03  0.00000000000E+00 0.  1.
          1   -1    0    0  502    0  0.00000000000E+00 -0.00000000000E+00 -0.33066085964E+02  0.33066085964E+02  0.00000000000E+00 0. -1.
        -24    2    1    2    0    0  0.21668166562E+02 -0.13795893460E+02  0.39576091021E+03  0.40473770474E+03  0.80784128814E+02 0.  0.
         23    2    1    2    0    0  0.99588690143E+01 -0.40630627237E+00  0.13175167820E+03  0.16051317930E+03  0.91140725611E+02 0.  0.
         13    1    3    3    0    0 -0.16124727879E+02  0.23733393507E+02  0.92930377400E+02  0.97259117106E+02  0.00000000000E+00 0. -1.
        -14    1    3    3    0    0  0.37792894440E+02 -0.37529286967E+02  0.30283053281E+03  0.30747858763E+03  0.00000000000E+00 0.  1.
        -11    1    4    4    0    0  0.31758669955E+02 -0.36296124748E+02  0.84534992416E+02  0.97325159809E+02  0.00000000000E+00 0.  1.
         11    1    4    4    0    0 -0.21799800941E+02  0.35889818476E+02  0.47216685784E+02  0.63188019495E+02  0.00000000000E+00 0. -1.
         21    1    1    2  502  501 -0.31627035576E+02  0.14202199732E+02  0.69691020922E+01  0.35362978389E+02  0.00000000000E+00 0. -1.
<scales pt_clust_5="13000.00000" pt_clust_6="13000.00000" pt_clust_7="13000.00000" pt_clust_8="13000.00000" pt_clust_9="34.66947"></scales>
<clustering>
<clus scale="   34.669">  2  9  1 -1</clus>
<clus scale="   80.784">  5  6 -1 -1</clus>
<clus scale="   82.672">  1  5  2 -1</clus>
<clus scale="   91.141">  7  8 -1 -1</clus>
<clus scale="   34.669">  2  5  1 -1</clus>
</clustering>
</event>
<event>
 9    1  0.1973774E-005  0.1275988E+03  0.7546771E-02  0.1233694E+00
         -4   -1    0    0    0  501 -0.00000000000E+00  0.00000000000E+00  0.74646787159E+02  0.74646787159E+02  0.00000000000E+00 0.  1.
          3   -1    0    0  502    0  0.00000000000E+00 -0.00000000000E+00 -0.40218488920E+03  0.40218488920E+03  0.00000000000E+00 0. -1.
        -24    2    1    2    0    0  0.70602381703E+02  0.54580397828E+02 -0.48190960993E+02  0.12708328355E+03  0.76577255813E+02 0.  0.
         23    2    1    2    0    0 -0.93448757886E+02 -0.40230458793E+02 -0.96489687307E+02  0.16491136718E+03  0.86800570865E+02 0.  0.
         11    1    3    3    0    0  0.62001049349E+02  0.64657873273E+01 -0.47208933622E+02  0.78196035320E+02  0.00000000000E+00 0. -1.
        -12    1    3    3    0    0  0.86013323541E+01  0.48114610501E+02 -0.98202737099E+00  0.48887248232E+02  0.00000000000E+00 0.  1.
        -11    1    4    4    0    0 -0.80612690890E+02 -0.58239532978E+01 -0.25100569891E+02  0.84630744847E+02  0.00000000000E+00 0.  1.
         11    1    4    4    0    0 -0.12836066996E+02 -0.34406505495E+02 -0.71389117415E+02  0.80280622330E+02  0.00000000000E+00 0. -1.
         21    1    1    2  502  501  0.22846376183E+02 -0.14349939036E+02 -0.18285745374E+03  0.18483702563E+03  0.00000000000E+00 0. -1.
<scales pt_clust_5="13000.00000" pt_clust_6="13000.00000" pt_clust_7="13000.00000" pt_clust_8="13000.00000" pt_clust_9="26.97921"></scales>
<clustering>
<clus scale="   26.979">  2  9  1 -1</clus>
<clus scale="   76.577">  5  6 -1 -1</clus>
<clus scale="   86.801">  7  8 -1 -1</clus>
<clus scale="  120.877">  1  5  2 -1</clus>
<clus scale="   26.979">  2  5  1 -1</clus>
</clustering>
</event>
<event>
 9    1  0.1973774E-005  0.9134883E+02  0.7546771E-02  0.1300072E+00
         -4   -1    0    0    0  501 -0.00000000000E+00  0.00000000000E+00  0.58677078376E+02  0.58677078376E+02  0.00000000000E+00 0.  1.
          3   -1    0    0  502    0  0.00000000000E+00 -0.00000000000E+00 -0.27090137893E+03  0.27090137893E+03  0.00000000000E+00 0. -1.
         23    2    1    2    0    0  0.12971971521E+02  0.72694474310E+02 -0.40853361508E+02  0.11504102375E+03  0.78183638684E+02 0.  0.
        -24    2    1    2    0    0 -0.11092273138E+02 -0.37413793735E+02 -0.15014179999E+03  0.17331928182E+03  0.77292838359E+02 0.  0.
         11    1    4    4    0    0 -0.43546941510E+02 -0.11501027739E+02 -0.76513989779E+02  0.88786262371E+02  0.00000000000E+00 0. -1.
        -12    1    4    4    0    0  0.32454668373E+02 -0.25912765997E+02 -0.73627810209E+02  0.84533019448E+02  0.00000000000E+00 0.  1.
        -13    1    3    3    0    0  0.21038086838E+02  0.20475718743E+02 -0.53215406256E+02  0.60776110593E+02  0.00000000000E+00 0. -1.
         13    1    3    3    0    0 -0.80661153171E+01  0.52218755566E+02  0.12362044748E+02  0.54264913153E+02  0.00000000000E+00 0.  1.
         21    1    1    2  502  501 -0.18796983830E+01 -0.35280680575E+02 -0.21229139058E+02  0.41218151742E+02  0.00000000000E+00 0.  1.
<scales pt_clust_5="13000.00000" pt_clust_6="13000.00000" pt_clust_7="13000.00000" pt_clust_8="13000.00000" pt_clust_9="35.33072"></scales>
<clustering>
<clus scale="   35.331">  1  9  2 -1</clus>
<clus scale="   77.293">  5  6 -1 -1</clus>
<clus scale="   78.184">  7  8 -1 -1</clus>
<clus scale="   90.588">  2  5  1 -1</clus>
<clus scale="   90.588">  2  5  1 -1</clus>
</clustering>
</event>
<event>
 9    1  0.1973774E-005  0.9692479E+02  0.7546771E-02  0.1291649E+00
         -2   -1    0    0    0  501 -0.00000000000E+00  0.00000000000E+00  0.74424681525E+02  0.74424681525E+02  0.00000000000E+00 0.  1.
          1   -1    0    0  502    0  0.00000000000E+00 -0.00000000000E+00 -0.24439324252E+03  0.24439324252E+03  0.00000000000E+00 0. -1.
        -24    2    1    2    0    0 -0.37060403510E+02  0.31896074867E+01  0.84533275334E+01  0.89050354164E+02  0.80466513072E+02 0.  0.
         23    2    1    2    0    0  0.18921304380E+02 -0.36834920036E+02 -0.15848944690E+03  0.18665914607E+03  0.89486898155E+02 0.  0.
         13    1    3    3    0    0 -0.45612564868E+02  0.33721976144E+02  0.24354401653E+01  0.56776836101E+02  0.00000000000E+00 0. -1.
        -14    1    3    3    0    0  0.85521613573E+01 -0.30532368658E+02  0.60178873682E+01  0.32273518062E+02  0.00000000000E+00 0.  1.
        -13    1    4    4    0    0  0.17213381371E+02 -0.66557623646E+02 -0.11409370292E+03  0.13320507051E+03  0.00000000000E+00 0.  1.
         13    1    4    4    0    0  0.17079230092E+01  0.29722703611E+02 -0.44395743977E+02  0.53454075562E+02  0.00000000000E+00 0. -1.
         21    1    1    2  502  501  0.18139099130E+02  0.33645312549E+02 -0.19932441629E+02  0.43108423807E+02  0.00000000000E+00 0.  1.
<scales pt_clust_5="13000.00000" pt_clust_6="13000.00000" pt_clust_7="13000.00000" pt_clust_8="13000.00000" pt_clust_9="38.22347"></scales>
<clustering>
<clus scale="   38.223">  1  9  2 -1</clus>
<clus scale="   80.467">  5  6 -1 -1</clus>
<clus scale="   88.664">  1  5  2 -1</clus>
<clus scale="   89.487">  7  8 -1 -1</clus>
<clus scale="   96.925">  2  5  1 -1</clus>
</clustering>
</event>
<event>
 9    1  0.1973774E-005  0.9646144E+02  0.7546771E-02  0.1295684E+00
         -2   -1    0    0    0  501 -0.00000000000E+00  0.00000000000E+00  0.34328701553E+03  0.34328701553E+03  0.00000000000E+00 0.  1.
          1   -1    0    0  502    0  0.00000000000E+00 -0.00000000000E+00 -0.63058670767E+02  0.63058670767E+02  0.00000000000E+00 0. -1.
         23    2    1    2    0    0 -0.60852132633E+01 -0.31093855506E+02  0.26844490881E+03  0.28595297964E+03  0.93287618836E+02 0.  0.
        -24    2    1    2    0    0  0.11629167022E+02 -0.71902238852E+01  0.11372671764E+02  0.81707116508E+02  0.79748218663E+02 0.  0.
         13    1    4    4    0    0 -0.32297158969E+02 -0.15800062669E+02  0.22525462499E+01  0.36025302530E+02  0.00000000000E+00 0. -1.
        -14    1    4    4    0    0  0.43926325991E+02  0.86098387834E+01  0.91201255138E+01  0.45681813978E+02  0.00000000000E+00 0.  1.
        -11    1    3    3    0    0 -0.41295146419E+02 -0.52284514716E+01  0.60294849224E+02  0.73267282367E+02  0.00000000000E+00 0. -1.
         11    1    3    3    0    0  0.35209933155E+02 -0.25865404034E+02  0.20815005959E+03  0.21268569727E+03  0.00000000000E+00 0.  1.
         21    1    1    2  502  501 -0.55439537587E+01  0.38284079391E+02  0.41076419008E+00  0.38685590151E+02  0.00000000000E+00 0. -1.
<scales pt_clust_5="13000.00000" pt_clust_6="13000.00000" pt_clust_7="13000.00000" pt_clust_8="13000.00000" pt_clust_9="38.68341"></scales>
<clustering>
<clus scale="   38.683">  2  9  1 -1</clus>
<clus scale="   79.748">  5  6 -1 -1</clus>
<clus scale="   83.439">  2  5  1 -1</clus>
<clus scale="   93.288">  7  8 -1 -1</clus>
<clus scale="   38.683">  2  5  1 -1</clus>
</clustering>
</event>
<event>
 9    1  0.1973774E-005  0.1852609E+03  0.7546771E-02  0.1182293E+00
          1   -1    0    0  502    0  0.00000000000E+00  0.00000000000E+00  0.16957420713E+04  0.16957420713E+04  0.00000000000E+00 0. -1.
         -2   -1    0    0    0  501 -0.00000000000E+00 -0.00000000000E+00 -0.39466730836E+02  0.39466730836E+02  0.00000000000E+00 0.  1.
        -24    2    1    2    0    0  0.82271707649E+02 -0.27869717977E+02  0.20687076510E+03  0.23858841689E+03  0.81139165392E+02 0.  0.
         23    2    1    2    0    0 -0.11011050201E+02  0.17354547073E+03  0.58529426644E+03  0.61742408621E+03  0.91672516478E+02 0.  0.
         11    1    3    3    0    0  0.12245092553E+02 -0.31937463311E+02  0.13043398709E+03  0.13484423919E+03  0.00000000000E+00 0. -1.
        -12    1    3    3    0    0  0.70026615096E+02  0.40677453341E+01  0.76436778011E+02  0.10374417770E+03  0.00000000000E+00 0.  1.
        -13    1    4    4    0    0  0.30322115897E+02  0.59246861604E+02  0.30043527437E+03  0.30771898773E+03  0.00000000000E+00 0.  1.
         13    1    4    4    0    0 -0.41333166099E+02  0.11429860912E+03  0.28485899206E+03  0.30970509848E+03  0.00000000000E+00 0. -1.
         21    1    1    2  502  501 -0.71260657448E+02 -0.14567575275E+03  0.86411030896E+03  0.87919629906E+03  0.00000000000E+00 0. -1.
<scales pt_clust_5="13000.00000" pt_clust_6="13000.00000" pt_clust_7="13000.00000" pt_clust_8="13000.00000" pt_clust_9="160.98996"></scales>
<clustering>
<clus scale="   81.139">  5  6 -1 -1</clus>
<clus scale="   91.673">  7  8 -1 -1</clus>
<clus scale="  118.865">  2  5  1 -1</clus>
<clus scale="  160.990">  1  9  2 -1</clus>
<clus scale="  160.990">  1  5  2 -1</clus>
</clustering>
</event>
<event>
 9    1  0.1973774E-005  0.3444710E+03  0.7546771E-02  0.1064908E+00
          1   -1    0    0  502    0  0.00000000000E+00  0.00000000000E+00  0.58144416632E+03  0.58144416632E+03  0.00000000000E+00 0. -1.
         -2   -1    0    0    0  501 -0.00000000000E+00 -0.00000000000E+00 -0.16185185346E+03  0.16185185346E+03  0.00000000000E+00 0.  1.
        -24    2    1    2    0    0 -0.22362754404E+03 -0.70951786523E+02  0.25451993558E+03  0.35606447117E+03  0.83415079882E+02 0.  0.
         23    2    1    2    0    0 -0.16259808862E+02 -0.20438694916E+02  0.58149006399E+02  0.10914744368E+03  0.88598735216E+02 0.  0.
         13    1    3    3    0    0 -0.97344011571E+02  0.60110687182E-01  0.63132100762E+02  0.11602380079E+03  0.00000000000E+00 0. -1.
        -14    1    3    3    0    0 -0.12628353247E+03 -0.71011897210E+02  0.19138783482E+03  0.24004067038E+03  0.00000000000E+00 0.  1.
        -11    1    4    4    0    0  0.26376475532E+01  0.34327183062E+02  0.22230889766E+02  0.40982009972E+02  0.00000000000E+00 0. -1.
         11    1    4    4    0    0 -0.18897456416E+02 -0.54765877978E+02  0.35918116633E+02  0.68165433705E+02  0.00000000000E+00 0.  1.
         21    1    1    2  502  501  0.23988735290E+03  0.91390481439E+02  0.10692337087E+03  0.27808410494E+03  0.00000000000E+00 0. -1.
<scales pt_clust_5="13000.00000" pt_clust_6="13000.00000" pt_clust_7="13000.00000" pt_clust_8="13000.00000" pt_clust_9="256.70637"></scales>
<clustering>
<clus scale="   83.415">  5  6 -1 -1</clus>
<clus scale="   88.599">  7  8 -1 -1</clus>
<clus scale="   90.617">  5  7 -1 -1</clus>
<clus scale="  256.706">  2  9  1 -1</clus>
<clus scale="  344.471">  1  5  2 -1</clus>
</clustering>
</event>
<event>
 9    1  0.1973774E-005  0.1524637E+03  0.7546771E-02  0.1216540E+00
          1   -1    0    0  502    0  0.00000000000E+00  0.00000000000E+00  0.11714106777E+04  0.11714106777E+04  0.00000000000E+00 0. -1.
         -2   -1    0    0    0  501 -0.00000000000E+00 -0.00000000000E+00 -0.94131788983E+02  0.94131788983E+02  0.00000000000E+00 0.  1.
        -24    2    1    2    0    0 -0.46055369996E+02  0.20414016456E+02 -0.43407503869E+02  0.11018082480E+03  0.87850859921E+02 0.  0.
         23    2    1    2    0    0 -0.64791187880E+02 -0.96070350043E+02  0.54284294765E+03  0.56213833902E+03  0.88846137760E+02 0.  0.
         11    1    3    3    0    0  0.14376748505E+02  0.21902689717E+02  0.11410441859E+02  0.28576509546E+02  0.00000000000E+00 0. -1.
        -12    1    3    3    0    0 -0.60432118502E+02 -0.14886732611E+01 -0.54817945728E+02  0.81604315256E+02  0.00000000000E+00 0.  1.
        -11    1    4    4    0    0  0.17824441100E+02 -0.45354671286E+02  0.20026172506E+03  0.20610559292E+03  0.00000000000E+00 0. -1.
         11    1    4    4    0    0 -0.82615628980E+02 -0.50715678757E+02  0.34258122259E+03  0.35603274610E+03  0.00000000000E+00 0.  1.
         21    1    1    2  502  501  0.11084655788E+03  0.75656333587E+02  0.57784344491E+03  0.59322330284E+03  0.00000000000E+00 0. -1.
<scales pt_clust_5="13000.00000" pt_clust_6="13000.00000" pt_clust_7="13000.00000" pt_clust_8="13000.00000" pt_clust_9="123.90133"></scales>
<clustering>
<clus scale="   87.851">  5  6 -1 -1</clus>
<clus scale="   88.846">  7  8 -1 -1</clus>
<clus scale="  101.270">  2  5  1 -1</clus>
<clus scale="  123.901">  1  9  2 -1</clus>
<clus scale="  123.901">  1  5  2 -1</clus>
</clustering>
</event>
<event>
 9    1  0.1973774E-005  0.1625827E+03  0.7546771E-02  0.1187396E+00
          1   -1    0    0  502    0  0.00000000000E+00  0.00000000000E+00  0.77702531187E+03  0.77702531187E+03  0.00000000000E+00 0. -1.
         -2   -1    0    0    0  501 -0.00000000000E+00 -0.00000000000E+00 -0.38921522376E+02  0.38921522376E+02  0.00000000000E+00 0.  1.
        -24    2    1    2    0    0 -0.12231391354E+03  0.29108984810E+01  0.22524470269E+03  0.26897699993E+03  0.81512475253E+02 0.  0.
         23    2    1    2    0    0  0.14186175807E+03 -0.78165765380E+01  0.47200310528E+03  0.50141332953E+03  0.91883286628E+02 0.  0.
         11    1    3    3    0    0 -0.22991976846E+02  0.23435956451E+02  0.16160202708E+02  0.36592720664E+02  0.00000000000E+00 0. -1.
        -12    1    3    3    0    0 -0.99321936696E+02 -0.20525057970E+02  0.20908449999E+03  0.23238427926E+03  0.00000000000E+00 0.  1.
        -13    1    4    4    0    0  0.56097105800E+02 -0.21513019543E+02  0.32632737771E+03  0.33181207443E+03  0.00000000000E+00 0. -1.
         13    1    4    4    0    0  0.85764652271E+02  0.13696443005E+02  0.14567572757E+03  0.16960125510E+03  0.00000000000E+00 0.  1.
         21    1    1    2  502  501 -0.19547844529E+02  0.49056780570E+01  0.40855981518E+02  0.45556504791E+02  0.00000000000E+00 0.  1.
<scales pt_clust_5="13000.00000" pt_clust_6="13000.00000" pt_clust_7="13000.00000" pt_clust_8="13000.00000" pt_clust_9="20.15400"></scales>
<clustering>
<clus scale="   20.154">  2  9  1 -1</clus>
<clus scale="   81.512">  5  6 -1 -1</clus>
<clus scale="   91.883">  7  8 -1 -1</clus>
<clus scale="  156.955">  2  5  1 -1</clus>
<clus scale="  162.583">  1  5  2 -1</clus>
</clustering>
</event>
<event>
 9    1  0.1973774E-005  0.1860523E+03  0.7546771E-02  0.1163201E+00
         -2   -1    0    0    0  501 -0.00000000000E+00  0.00000000000E+00  0.37300739380E+03  0.37300739380E+03  0.00000000000E+00 0.  1.
          1   -1    0    0  502    0  0.00000000000E+00 -0.00000000000E+00 -0.22462498466E+03  0.22462498466E+03  0.00000000000E+00 0. -1.
         23    2    1    2    0    0  0.57208077738E+02 -0.16092324484E+03  0.15614403129E+03  0.24837475064E+03  0.90221967175E+02 0.  0.
        -24    2    1    2    0    0 -0.68710119809E+02  0.13936341853E+03  0.12465369957E+03  0.21460644696E+03  0.79838206843E+02 0.  0.
         11    1    4    4    0    0 -0.59093735942E+02  0.62799656213E+02  0.27445175552E+02  0.90493668889E+02  0.00000000000E+00 0. -1.
        -12    1    4    4    0    0 -0.96163838671E+01  0.76563762321E+02  0.97208524016E+02  0.12411277807E+03  0.00000000000E+00 0.  1.
        -13    1    3    3    0    0  0.40235569171E+02 -0.60272226498E+02  0.11982353904E+03  0.14003329183E+03  0.00000000000E+00 0.  1.
         13    1    3    3    0    0  0.16972508567E+02 -0.10065101834E+03  0.36320492254E+02  0.10834145881E+03  0.00000000000E+00 0. -1.
         21    1    1    2  502  501  0.11502042071E+02  0.21559826304E+02 -0.13241532172E+03  0.13465118086E+03  0.00000000000E+00 0.  1.
<scales pt_clust_5="13000.00000" pt_clust_6="13000.00000" pt_clust_7="13000.00000" pt_clust_8="13000.00000" pt_clust_9="24.43610"></scales>
<clustering>
<clus scale="   24.436">  2  9  1 -1</clus>
<clus scale="   79.838">  5  6 -1 -1</clus>
<clus scale="   90.222">  7  8 -1 -1</clus>
<clus scale="  181.245">  2  5  1 -1</clus>
<clus scale="   24.436">  2  5  1 -1</clus>
</clustering>
</event>
<event>
 9    1  0.1973774E-005  0.2603833E+03  0.7546771E-02  0.1145861E+00
          1   -1    0    0  502    0  0.00000000000E+00  0.00000000000E+00  0.19117256467E+03  0.19117256467E+03  0.00000000000E+00 0. -1.
         -2   -1    0    0    0  501 -0.00000000000E+00 -0.00000000000E+00 -0.48218279622E+03  0.48218279622E+03  0.00000000000E+00 0.  1.
        -24    2    1    2    0    0 -0.69873814966E+01 -0.13933981741E+02 -0.55492211892E+02  0.11383151126E+03  0.98159299246E+02 0.  0.
         23    2    1    2    0    0 -0.22539624230E+03  0.82139979411E+02 -0.79617479309E+02  0.27149748763E+03  0.99103483868E+02 0.  0.
         11    1    3    3    0    0  0.13144778224E+02  0.34761783185E+02  0.19655026513E+00  0.37164571796E+02  0.00000000000E+00 0. -1.
        -12    1    3    3    0    0 -0.20132159720E+02 -0.48695764926E+02 -0.55688762157E+02  0.76666939467E+02  0.00000000000E+00 0.  1.
        -11    1    4    4    0    0 -0.92106053866E+01  0.36997404478E+02 -0.18322079738E+02  0.42300612237E+02  0.00000000000E+00 0. -1.
         11    1    4    4    0    0 -0.21618563692E+03  0.45142574934E+02 -0.61295399571E+02  0.22919687539E+03  0.00000000000E+00 0.  1.
         21    1    1    2  502  501  0.23238362380E+03 -0.68205997671E+02 -0.15590054034E+03  0.28802636200E+03  0.00000000000E+00 0. -1.
<scales pt_clust_5="13000.00000" pt_clust_6="13000.00000" pt_clust_7="13000.00000" pt_clust_8="13000.00000" pt_clust_9="240.78617"></scales>
<clustering>
<clus scale="   98.159">  5  6 -1 -1</clus>
<clus scale="   99.103">  7  8 -1 -1</clus>
<clus scale="   99.389">  2  5  1 -1</clus>
<clus scale="  240.786">  2  9  1 -1</clus>
<clus scale="  260.383">  1  5  2 -1</clus>
</clustering>
</event>
<event>
 9    1  0.1973774E-005  0.1203166E+03  0.7546771E-02  0.1248689E+00
         -2   -1    0    0    0  501 -0.00000000000E+00  0.00000000000E+00  0.64570599267E+02  0.64570599267E+02  0.00000000000E+00 0.  1.
          1   -1    0    0  502    0  0.00000000000E+00 -0.00000000000E+00 -0.27967596833E+03  0.27967596833E+03  0.00000000000E+00 0. -1.
        -24    2    1    2    0    0  0.34650438262E+02 -0.66622875930E+02 -0.52141676638E+02  0.11684653082E+03  0.72767416142E+02 0.  0.
         23    2    1    2    0    0 -0.64598114528E+02  0.51049416320E+02 -0.13969146985E+03  0.18640013067E+03  0.91936623042E+02 0.  0.
         11    1    3    3    0    0  0.36086050515E+02 -0.22281024088E+02 -0.58259941416E+02  0.72061555978E+02  0.00000000000E+00 0. -1.
        -12    1    3    3    0    0 -0.14356122529E+01 -0.44341851842E+02  0.61182647776E+01  0.44784974838E+02  0.00000000000E+00 0.  1.
        -13    1    4    4    0    0  0.49499861250E+01  0.52705673173E+02 -0.49310990561E+02  0.72346141137E+02  0.00000000000E+00 0.  1.
         13    1    4    4    0    0 -0.69548100653E+02 -0.16562568526E+01 -0.90380479288E+02  0.11405398953E+03  0.00000000000E+00 0. -1.
         21    1    1    2  502  501  0.29947676266E+02  0.15573459610E+02 -0.23272222578E+02  0.40999906118E+02  0.00000000000E+00 0. -1.
<scales pt_clust_5="13000.00000" pt_clust_6="13000.00000" pt_clust_7="13000.00000" pt_clust_8="13000.00000" pt_clust_9="33.75494"></scales>
<clustering>
<clus scale="   33.755">  1  9  2 -1</clus>
<clus scale="   72.767">  5  6 -1 -1</clus>
<clus scale="   91.937">  7  8 -1 -1</clus>
<clus scale="  106.390">  1  5  2 -1</clus>
<clus scale="  120.317">  2  5  1 -1</clus>
</clustering>
</event>
<event>
 9    1  0.1973774E-005  0.1227976E+03  0.7546771E-02  0.1241397E+00
         -2   -1    0    0    0  501 -0.00000000000E+00  0.00000000000E+00  0.70546702180E+02  0.70546702180E+02  0.00000000000E+00 0.  1.
          1   -1    0    0  502    0  0.00000000000E+00 -0.00000000000E+00 -0.47004778453E+03  0.47004778453E+03  0.00000000000E+00 0. -1.
         23    2    1    2    0    0  0.78320332823E+02 -0.51462159045E+02 -0.20312456628E+02  0.13185542479E+03  0.90503197757E+02 0.  0.
        -24    2    1    2    0    0 -0.52247630578E+02  0.21329277450E+01 -0.25516022163E+03  0.27273831235E+03  0.80901693674E+02 0.  0.
         11    1    4    4    0    0 -0.68542900776E+02  0.13780144452E+02 -0.23103572440E+03  0.24138253371E+03  0.00000000000E+00 0. -1.
        -12    1    4    4    0    0  0.16295270198E+02 -0.11647216707E+02 -0.24124497223E+02  0.31355778640E+02  0.00000000000E+00 0.  1.
        -13    1    3    3    0    0  0.15507642063E+02  0.22620868455E+02  0.11372578027E+02  0.29690506614E+02  0.00000000000E+00 0.  1.
         13    1    3    3    0    0  0.62812690759E+02 -0.74083027500E+02 -0.31685034655E+02  0.10216491817E+03  0.00000000000E+00 0. -1.
         21    1    1    2  502  501 -0.26072702245E+02  0.49329231300E+02 -0.12402840409E+03  0.13600074958E+03  0.00000000000E+00 0. -1.
<scales pt_clust_5="13000.00000" pt_clust_6="13000.00000" pt_clust_7="13000.00000" pt_clust_8="13000.00000" pt_clust_9="55.79569"></scales>
<clustering>
<clus scale="   55.796">  2  9  1 -1</clus>
<clus scale="   80.902">  5  6 -1 -1</clus>
<clus scale="   90.503">  7  8 -1 -1</clus>
<clus scale="  115.903">  2  5  1 -1</clus>
<clus scale="   55.796">  2  5  1 -1</clus>
</clustering>
</event>
<event>
 9    1  0.1973774E-005  0.1110242E+03  0.7546771E-02  0.1262745E+00
         -2   -1    0    0    0  501 -0.00000000000E+00  0.00000000000E+00  0.13866232511E+03  0.13866232511E+03  0.00000000000E+00 0.  1.
          1   -1    0    0  502    0  0.00000000000E+00 -0.00000000000E+00 -0.20336635131E+03  0.20336635131E+03  0.00000000000E+00 0. -1.
        -24    2    1    2    0    0  0.28471501387E+02  0.60696725715E+02  0.85493313982E+02  0.13500775542E+03  0.80145295466E+02 0.  0.
         23    2    1    2    0    0  0.55010554737E+01 -0.55083657945E+02 -0.98692532096E+02  0.14506620847E+03  0.90771790568E+02 0.  0.
         13    1    3    3    0    0 -0.27923471201E+02  0.13896333464E+02  0.24512175269E+02  0.39669573531E+02  0.00000000000E+00 0. -1.
        -14    1    3    3    0    0  0.56394972588E+02  0.46800392251E+02  0.60981138713E+02  0.95338181894E+02  0.00000000000E+00 0.  1.
        -13    1    4    4    0    0 -0.91367674124E+01 -0.71963360831E+02 -0.98986922039E+02  0.12272170369E+03  0.00000000000E+00 0. -1.
         13    1    4    4    0    0  0.14637822886E+02  0.16879702886E+02  0.29438994304E+00  0.22344504779E+02  0.00000000000E+00 0.  1.
         21    1    1    2  502  501 -0.33972556860E+02 -0.56130677700E+01 -0.51504808084E+02  0.61954712534E+02  0.00000000000E+00 0. -1.
<scales pt_clust_5="13000.00000" pt_clust_6="13000.00000" pt_clust_7="13000.00000" pt_clust_8="13000.00000" pt_clust_9="34.43314"></scales>
<clustering>
<clus scale="   34.433">  2  9  1 -1</clus>
<clus scale="   80.145">  5  6 -1 -1</clus>
<clus scale="   90.772">  7  8 -1 -1</clus>
<clus scale="  102.519">  1  5  2 -1</clus>
<clus scale="   34.433">  2  5  1 -1</clus>
</clustering>
</event>
<event>
 9    1  0.1973774E-005  0.9507899E+02  0.7546771E-02  0.1296812E+00
          1   -1    0    0  502    0  0.00000000000E+00  0.00000000000E+00  0.17349751490E+03  0.17349751490E+03  0.00000000000E+00 0. -1.
         -2   -1    0    0    0  501 -0.00000000000E+00 -0.00000000000E+00 -0.19053742471E+03  0.19053742471E+03  0.00000000000E+00 0.  1.
         23    2    1    2    0    0 -0.16761081034E+02  0.24046873284E+02 -0.15161661321E+03  0.17850486832E+03  0.89538844426E+02 0.  0.
        -24    2    1    2    0    0  0.24894455209E+02 -0.44051290131E+02  0.69111663172E+02  0.11659531981E+03  0.79106235872E+02 0.  0.
         13    1    4    4    0    0  0.29565777700E+02  0.14718438362E+02  0.36489928944E+02  0.49216689783E+02  0.00000000000E+00 0. -1.
        -14    1    4    4    0    0 -0.46713224917E+01 -0.58769728492E+02  0.32621734228E+02  0.67378630032E+02  0.00000000000E+00 0.  1.
        -13    1    3    3    0    0  0.23890471285E+02 -0.15341154642E+02 -0.92068440259E+02  0.96346786847E+02  0.00000000000E+00 0.  1.
         13    1    3    3    0    0 -0.40651552319E+02  0.39388027926E+02 -0.59548172950E+02  0.82158081474E+02  0.00000000000E+00 0. -1.
         21    1    1    2  502  501 -0.81333741742E+01  0.20004416847E+02  0.65465040226E+02  0.68934751473E+02  0.00000000000E+00 0.  1.
<scales pt_clust_5="13000.00000" pt_clust_6="13000.00000" pt_clust_7="13000.00000" pt_clust_8="13000.00000" pt_clust_9="21.59464"></scales>
<clustering>
<clus scale="   21.595">  1  9  2 -1</clus>
<clus scale="   79.106">  5  6 -1 -1</clus>
<clus scale="   85.326">  1  5  2 -1</clus>
<clus scale="   89.539">  7  8 -1 -1</clus>
<clus scale="   21.595">  1  5  2 -1</clus>
</clustering>
</event>
<event>
 9    1  0.1973774E-005  0.1455471E+03  0.7546771E-02  0.1208308E+00
         -4   -1    0    0    0  501 -0.00000000000E+00  0.00000000000E+00  0.20131449911E+03  0.20131449911E+03  0.00000000000E+00 0.  1.
          3   -1    0    0  502    0  0.00000000000E+00 -0.00000000000E+00 -0.49722018226E+03  0.49722018226E+03  0.00000000000E+00 0. -1.
         23    2    1    2    0    0 -0.90897018066E+02 -0.57651490507E+02  0.14267702437E+03  0.20182810822E+03  0.93765077383E+02 0.  0.
        -24    2    1    2    0    0  0.10930159978E+03  0.10930720942E+03 -0.29707165049E+03  0.34494221243E+03  0.82696182762E+02 0.  0.
         11    1    4    4    0    0  0.56444946005E+02  0.67900687694E+02 -0.24359614228E+03  0.25910541456E+03  0.00000000000E+00 0. -1.
        -12    1    4    4    0    0  0.52856653779E+02  0.41406521731E+02 -0.53475508205E+02  0.85836797869E+02  0.00000000000E+00 0.  1.
        -11    1    3    3    0    0 -0.45181274952E+02 -0.32866237806E+01  0.11838726029E+03  0.12675840367E+03  0.00000000000E+00 0.  1.
         11    1    3    3    0    0 -0.45715743114E+02 -0.54364866726E+02  0.24289764073E+02  0.75069704551E+02  0.00000000000E+00 0. -1.
         21    1    1    2  502  501 -0.18404581718E+02 -0.51655718918E+02 -0.14151105703E+03  0.15176436072E+03  0.00000000000E+00 0. -1.
<scales pt_clust_5="13000.00000" pt_clust_6="13000.00000" pt_clust_7="13000.00000" pt_clust_8="13000.00000" pt_clust_9="54.83650"></scales>
<clustering>
<clus scale="   54.837">  2  9  1 -1</clus>
<clus scale="   82.696">  5  6 -1 -1</clus>
<clus scale="   93.765">  7  8 -1 -1</clus>
<clus scale="  138.675">  2  5  1 -1</clus>
<clus scale="   54.837">  2  5  1 -1</clus>
</clustering>
</event>
<event>
 9    1  0.1973774E-005  0.9635103E+02  0.7546771E-02  0.1292321E+00
          3   -1    0    0  502    0  0.00000000000E+00  0.00000000000E+00  0.17953726390E+03  0.17953726390E+03  0.00000000000E+00 0. -1.
         -4   -1    0    0    0  501 -0.00000000000E+00 -0.00000000000E+00 -0.99376109834E+02  0.99376109834E+02  0.00000000000E+00 0.  1.
         23    2    1    2    0    0 -0.36980326801E+02 -0.61356519059E+01 -0.39763382562E+02  0.10432198103E+03  0.88863706536E+02 0.  0.
        -24    2    1    2    0    0  0.37847567975E+02 -0.22354955704E+02  0.65159533597E+02  0.11285264971E+03  0.80980079537E+02 0.  0.
         13    1    4    4    0    0  0.38681781227E+01 -0.41492485488E+02  0.60661308186E+02  0.73596083217E+02  0.00000000000E+00 0. -1.
        -14    1    4    4    0    0  0.33979389852E+02  0.19137529784E+02  0.44982254109E+01  0.39256566493E+02  0.00000000000E+00 0.  1.
        -13    1    3    3    0    0 -0.20980342614E+02  0.91234087689E+01 -0.66092898077E+02  0.69940564338E+02  0.00000000000E+00 0.  1.
         13    1    3    3    0    0 -0.15999984187E+02 -0.15259060675E+02  0.26329515515E+02  0.34381416694E+02  0.00000000000E+00 0. -1.
         21    1    1    2  502  501 -0.86724117424E+00  0.28490607609E+02  0.54765003030E+02  0.61738742991E+02  0.00000000000E+00 0.  1.
<scales pt_clust_5="13000.00000" pt_clust_6="13000.00000" pt_clust_7="13000.00000" pt_clust_8="13000.00000" pt_clust_9="28.50380"></scales>
<clustering>
<clus scale="   28.504">  1  9  2 -1</clus>
<clus scale="   80.980">  5  6 -1 -1</clus>
<clus scale="   88.864">  7  8 -1 -1</clus>
<clus scale="   89.132">  1  5  2 -1</clus>
<clus scale="   28.504">  1  5  2 -1</clus>
</clustering>
</event>
<event>
 9    1  0.1973774E-005  0.2315443E+03  0.7546771E-02  0.1164481E+00
          1   -1    0    0  502    0  0.00000000000E+00  0.00000000000E+00  0.93748110813E+03  0.93748110813E+03  0.00000000000E+00 0. -1.
         -2   -1    0    0    0  501 -0.00000000000E+00 -0.00000000000E+00 -0.23186195585E+03  0.23186195585E+03  0.00000000000E+00 0.  1.
         23    2    1    2    0    0  0.37539163927E+02 -0.22024762036E+03 -0.11704548733E+03  0.27108755287E+03  0.99350954292E+02 0.  0.
        -24    2    1    2    0    0  0.61199898470E+01  0.55263806145E+02  0.64674759381E+03  0.65315841267E+03  0.72401100849E+02 0.  0.
         13    1    4    4    0    0  0.18102925876E+02  0.35817336314E+02  0.13347502131E+03  0.13937782757E+03  0.00000000000E+00 0. -1.
        -14    1    4    4    0    0 -0.11982936029E+02  0.19446469831E+02  0.51327257250E+03  0.51378058510E+03  0.00000000000E+00 0.  1.
        -11    1    3    3    0    0 -0.16574347124E+02 -0.16955830236E+03 -0.80776443621E+02  0.18854591145E+03  0.00000000000E+00 0.  1.
         11    1    3    3    0    0  0.54113511051E+02 -0.50689318000E+02 -0.36269043709E+02  0.82541641425E+02  0.00000000000E+00 0. -1.
         21    1    1    2  502  501 -0.43659153774E+02  0.16498381421E+03  0.17591704580E+03  0.24509709844E+03  0.00000000000E+00 0. -1.
<scales pt_clust_5="13000.00000" pt_clust_6="13000.00000" pt_clust_7="13000.00000" pt_clust_8="13000.00000" pt_clust_9="209.14629"></scales>
<clustering>
<clus scale="   72.401">  5  6 -1 -1</clus>
<clus scale="   91.288">  1  5  2 -1</clus>
<clus scale="   99.351">  7  8 -1 -1</clus>
<clus scale="  209.146">  1  9  2 -1</clus>
<clus scale="   91.288">  1  5  2 -1</clus>
</clustering>
</event>
<event>
 9    1  0.1973774E-005  0.1258880E+03  0.7546771E-02  0.1252967E+00
         -2   -1    0    0    0  501 -0.00000000000E+00  0.00000000000E+00  0.19421730066E+03  0.19421730066E+03  0.00000000000E+00 0.  1.
          1   -1    0    0  502    0  0.00000000000E+00 -0.00000000000E+00 -0.16482378818E+03  0.16482378818E+03  0.00000000000E+00 0. -1.
         23    2    1    2    0    0  0.26857828721E+02 -0.69295473612E+02  0.14996773050E+03  0.19889849638E+03  0.10745736849E+03 0.  0.
        -24    2    1    2    0    0 -0.13122313662E+02  0.30426322848E+02 -0.79697863226E+02  0.10208786281E+03  0.54518126268E+02 0.  0.
         11    1    4    4    0    0 -0.15734304642E+02  0.42354737815E+02 -0.39294192431E+02  0.59879259487E+02  0.00000000000E+00 0. -1.
        -12    1    4    4    0    0  0.26119909800E+01 -0.11928414966E+02 -0.40403670795E+02  0.42208603320E+02  0.00000000000E+00 0.  1.
        -13    1    3    3    0    0 -0.39023669677E+02 -0.44557376454E+02  0.81179038698E+02  0.10049001401E+03  0.00000000000E+00 0. -1.
         13    1    3    3    0    0  0.65881498398E+02 -0.24738097157E+02  0.68788691801E+02  0.98408482367E+02  0.00000000000E+00 0.  1.
         21    1    1    2  502  501 -0.13735515059E+02  0.38869150763E+02 -0.40876354793E+02  0.58054729662E+02  0.00000000000E+00 0.  1.
<scales pt_clust_5="13000.00000" pt_clust_6="13000.00000" pt_clust_7="13000.00000" pt_clust_8="13000.00000" pt_clust_9="41.22469"></scales>
<clustering>
<clus scale="   41.225">  2  9  1 -1</clus>
<clus scale="   54.518">  5  6 -1 -1</clus>
<clus scale="   85.281">  2  5  1 -1</clus>
<clus scale="  107.457">  7  8 -1 -1</clus>
<clus scale="   41.225">  2  5  1 -1</clus>
</clustering>
</event>
<event>
 9    1  0.1973774E-005  0.2127963E+03  0.7546771E-02  0.1140529E+00
         -2   -1    0    0    0  501 -0.00000000000E+00  0.00000000000E+00  0.44518320156E+03  0.44518320156E+03  0.00000000000E+00 0.  1.
          1   -1    0    0  502    0  0.00000000000E+00 -0.00000000000E+00 -0.15424576243E+03  0.15424576243E+03  0.00000000000E+00 0. -1.
        -24    2    1    2    0    0  0.87596086572E+02  0.15842940926E+03  0.16627632863E+03  0.25893483310E+03  0.81403183141E+02 0.  0.
         23    2    1    2    0    0 -0.11651864609E+03 -0.16466783090E+03  0.17401620310E+03  0.28294973483E+03  0.95324834544E+02 0.  0.
         11    1    3    3    0    0  0.91192084998E+02  0.12895880053E+03  0.10168306345E+03  0.18784518624E+03  0.00000000000E+00 0. -1.
        -12    1    3    3    0    0 -0.35959984256E+01  0.29470608733E+02  0.64593265179E+02  0.71089646856E+02  0.00000000000E+00 0.  1.
        -13    1    4    4    0    0 -0.74383529297E+01 -0.38991697058E+02  0.85945527286E+02  0.94669505091E+02  0.00000000000E+00 0.  1.
         13    1    4    4    0    0 -0.10908029316E+03 -0.12567613384E+03  0.88070675812E+02  0.18828022974E+03  0.00000000000E+00 0. -1.
         21    1    1    2  502  501  0.28922559515E+02  0.62384216347E+01 -0.49355092601E+02  0.57544396070E+02  0.00000000000E+00 0. -1.
<scales pt_clust_5="13000.00000" pt_clust_6="13000.00000" pt_clust_7="13000.00000" pt_clust_8="13000.00000" pt_clust_9="29.58771"></scales>
<clustering>
<clus scale="   29.588">  2  9  1 -1</clus>
<clus scale="   81.403">  5  6 -1 -1</clus>
<clus scale="   95.325">  7  8 -1 -1</clus>
<clus scale="  206.935">  1  5  2 -1</clus>
<clus scale="   29.588">  2  5  1 -1</clus>
</clustering>
</event>
<event>
 9    1  0.1973774E-005  0.1047499E+03  0.7546771E-02  0.1277781E+00
          1   -1    0    0  502    0  0.00000000000E+00  0.00000000000E+00  0.18121355929E+03  0.18121355929E+03  0.00000000000E+00 0. -1.
         -2   -1    0    0    0  501 -0.00000000000E+00 -0.00000000000E+00 -0.14105083589E+03  0.14105083589E+03  0.00000000000E+00 0.  1.
        -24    2    1    2    0    0 -0.98941971556E+01 -0.44007155047E+02 -0.87334467996E+02  0.12506792455E+03  0.77331440043E+02 0.  0.
         23    2    1    2    0    0  0.23491610665E+02  0.62673337987E+02  0.67437888306E+02  0.13285025140E+03  0.92852126806E+02 0.  0.
         11    1    3    3    0    0  0.30825989989E+02 -0.37065560303E+02 -0.46188633832E+02  0.66764416531E+02  0.00000000000E+00 0. -1.
        -12    1    3    3    0    0 -0.40720187144E+02 -0.69415947438E+01 -0.41145834164E+02  0.58303508022E+02  0.00000000000E+00 0.  1.
        -13    1    4    4    0    0 -0.22453016509E+02  0.40315427708E+01  0.51981733727E+02  0.56766996827E+02  0.00000000000E+00 0. -1.
         13    1    4    4    0    0  0.45944627174E+02  0.58641795216E+02  0.15456154578E+02  0.76083254574E+02  0.00000000000E+00 0.  1.
         21    1    1    2  502  501 -0.13597413509E+02 -0.18666182940E+02  0.60059303097E+02  0.64346219222E+02  0.00000000000E+00 0. -1.
<scales pt_clust_5="13000.00000" pt_clust_6="13000.00000" pt_clust_7="13000.00000" pt_clust_8="13000.00000" pt_clust_9="23.09364"></scales>
<clustering>
<clus scale="   23.094">  1  9  2 -1</clus>
<clus scale="   77.331">  5  6 -1 -1</clus>
<clus scale="   91.275">  2  5  1 -1</clus>
<clus scale="   92.852">  7  8 -1 -1</clus>
<clus scale="   23.094">  1  5  2 -1</clus>
</clustering>
</event>
<event>
 9    1  0.1973774E-005  0.1154963E+03  0.7546771E-02  0.1251787E+00
          1   -1    0    0  502    0  0.00000000000E+00  0.00000000000E+00  0.22410251229E+03  0.22410251229E+03  0.00000000000E+00 0. -1.
         -2   -1    0    0    0  501 -0.00000000000E+00 -0.00000000000E+00 -0.11164663161E+04  0.11164663161E+04  0.00000000000E+00 0.  1.
        -24    2    1    2    0    0  0.35038859473E+02  0.66899858761E+02 -0.81349253099E+03  0.82120398817E+03  0.83081763544E+02 0.  0.
         23    2    1    2    0    0  0.19029979796E+01 -0.88827971314E+02 -0.28396413506E+03  0.30982099019E+03  0.86367737465E+02 0.  0.
         11    1    3    3    0    0  0.45481620626E+02  0.69559011007E+02 -0.45363540253E+03  0.46118555078E+03  0.00000000000E+00 0. -1.
        -12    1    3    3    0    0 -0.10442761152E+02 -0.26591522460E+01 -0.35985712846E+03  0.36001843738E+03  0.00000000000E+00 0.  1.
        -13    1    4    4    0    0 -0.30895332803E+02 -0.44990403991E+01 -0.10083709709E+03  0.10555985554E+03  0.00000000000E+00 0.  1.
         13    1    4    4    0    0  0.32798330782E+02 -0.84328930915E+02 -0.18312703797E+03  0.20426113465E+03  0.00000000000E+00 0. -1.
         21    1    1    2  502  501 -0.36941857453E+02  0.21928112553E+02  0.20509286222E+03  0.20954385003E+03  0.00000000000E+00 0. -1.
<scales pt_clust_5="13000.00000" pt_clust_6="13000.00000" pt_clust_7="13000.00000" pt_clust_8="13000.00000" pt_clust_9="42.95978"></scales>
<clustering>
<clus scale="   42.960">  1  9  2 -1</clus>
<clus scale="   83.082">  5  6 -1 -1</clus>
<clus scale="   86.368">  7  8 -1 -1</clus>
<clus scale="  113.060">  2  5  1 -1</clus>
<clus scale="   42.960">  1  5  2 -1</clus>
</clustering>
</event>
<event>
 9    1  0.1973774E-005  0.9650327E+02  0.7546771E-02  0.1295886E+00
         -2   -1    0    0    0  501 -0.00000000000E+00  0.00000000000E+00  0.58889585003E+02  0.58889585003E+02  0.00000000000E+00 0.  1.
          1   -1    0    0  502    0  0.00000000000E+00 -0.00000000000E+00 -0.28676695278E+03  0.28676695278E+03  0.00000000000E+00 0. -1.
        -24    2    1    2    0    0  0.23333847264E+02  0.12903407237E+02  0.35105739462E+01  0.82178407985E+02  0.77653076327E+02 0.  0.
         23    2    1    2    0    0 -0.43648996225E+02 -0.12793648807E+02 -0.21145262722E+03  0.23501527526E+03  0.91929612880E+02 0.  0.
         11    1    3    3    0    0  0.44944991347E+02 -0.13949431527E+02 -0.27717790471E+01  0.47141506618E+02  0.00000000000E+00 0. -1.
        -12    1    3    3    0    0 -0.21611144083E+02  0.26852838764E+02  0.62823529933E+01  0.35036901367E+02  0.00000000000E+00 0.  1.
        -11    1    4    4    0    0  0.16882280202E+02 -0.33661274367E+02 -0.63917573406E+02  0.74185908143E+02  0.00000000000E+00 0.  1.
         11    1    4    4    0    0 -0.60531276427E+02  0.20867625559E+02 -0.14753505381E+03  0.16082936711E+03  0.00000000000E+00 0. -1.
         21    1    1    2  502  501  0.20315148961E+02 -0.10975842996E+00 -0.19935314501E+02  0.28462854539E+02  0.00000000000E+00 0. -1.
<scales pt_clust_5="13000.00000" pt_clust_6="13000.00000" pt_clust_7="13000.00000" pt_clust_8="13000.00000" pt_clust_9="20.31545"></scales>
<clustering>
<clus scale="   20.315">  2  9  1 -1</clus>
<clus scale="   77.653">  5  6 -1 -1</clus>
<clus scale="   83.017">  1  5  2 -1</clus>
<clus scale="   91.930">  7  8 -1 -1</clus>
<clus scale="   20.315">  2  5  1 -1</clus>
</clustering>
</event>
<event>
 9    1  0.1973774E-005  0.1012326E+03  0.7546771E-02  0.1282465E+00
         -2   -1    0    0    0  501 -0.00000000000E+00  0.00000000000E+00  0.96633570623E+02  0.96633570623E+02  0.00000000000E+00 0.  1.
          1   -1    0    0  502    0  0.00000000000E+00 -0.00000000000E+00 -0.30829587357E+03  0.30829587357E+03  0.00000000000E+00 0. -1.
        -24    2    1    2    0    0  0.20429517441E+02 -0.44902205558E+02  0.55218706519E+02  0.10930348812E+03  0.80402572842E+02 0.  0.
         23    2    1    2    0    0  0.11577597193E+01  0.18625548958E+02 -0.20997096526E+03  0.22932945277E+03  0.90310244033E+02 0.  0.
         13    1    3    3    0    0 -0.26108231976E+01 -0.63262100830E+02  0.46573795202E+02  0.78600433833E+02  0.00000000000E+00 0. -1.
        -14    1    3    3    0    0  0.23040340639E+02  0.18359895272E+02  0.86449113175E+01  0.30703054292E+02  0.00000000000E+00 0.  1.
        -11    1    4    4    0    0  0.33364864382E+02  0.40070765209E+02 -0.10050416149E+03  0.11322529257E+03  0.00000000000E+00 0.  1.
         11    1    4    4    0    0 -0.32207104663E+02 -0.21445216251E+02 -0.10946680377E+03  0.11610416021E+03  0.00000000000E+00 0. -1.
         21    1    1    2  502  501 -0.21587277161E+02  0.26276656600E+02 -0.56910044211E+02  0.66296503297E+02  0.00000000000E+00 0.  1.
<scales pt_clust_5="13000.00000" pt_clust_6="13000.00000" pt_clust_7="13000.00000" pt_clust_8="13000.00000" pt_clust_9="34.00696"></scales>
<clustering>
<clus scale="   34.007">  2  9  1 -1</clus>
<clus scale="   80.403">  5  6 -1 -1</clus>
<clus scale="   90.310">  7  8 -1 -1</clus>
<clus scale="   92.502">  1  5  2 -1</clus>
<clus scale="   34.007">  2  5  1 -1</clus>
</clustering>
</event>
<event>
 9    1  0.1973774E-005  0.9289449E+02  0.7546771E-02  0.1303484E+00
         -2   -1    0    0    0  501 -0.00000000000E+00  0.00000000000E+00  0.44094532043E+02  0.44094532043E+02  0.00000000000E+00 0.  1.
          1   -1    0    0  502    0  0.00000000000E+00 -0.00000000000E+00 -0.78280729360E+03  0.78280729360E+03  0.00000000000E+00 0. -1.
        -24    2    1    2    0    0  0.83598306753E+01  0.88885001142E+01 -0.11797654998E+02  0.81502049948E+02  0.79715163420E+02 0.  0.
         23    2    1    2    0    0 -0.53697443627E+02  0.11371479945E+02 -0.59290806669E+03  0.60248773045E+03  0.91862744326E+02 0.  0.
         11    1    3    3    0    0 -0.23732439930E+02  0.11387414373E+01  0.23327259781E+02  0.33296944094E+02  0.00000000000E+00 0. -1.
        -12    1    3    3    0    0  0.32092270606E+02  0.77497586769E+01 -0.35124914779E+02  0.48205105854E+02  0.00000000000E+00 0.  1.
        -13    1    4    4    0    0 -0.64862614509E+02  0.40027633483E+02 -0.42962325255E+03  0.43633187981E+03  0.00000000000E+00 0. -1.
         13    1    4    4    0    0  0.11165170882E+02 -0.28656153538E+02 -0.16328481414E+03  0.16615585065E+03  0.00000000000E+00 0.  1.
         21    1    1    2  502  501  0.45337612952E+02 -0.20259980059E+02 -0.13400703987E+03  0.14291204524E+03  0.00000000000E+00 0.  1.
<scales pt_clust_5="13000.00000" pt_clust_6="13000.00000" pt_clust_7="13000.00000" pt_clust_8="13000.00000" pt_clust_9="49.65849"></scales>
<clustering>
<clus scale="   49.658">  2  9  1 -1</clus>
<clus scale="   79.715">  5  6 -1 -1</clus>
<clus scale="   80.902">  1  5  2 -1</clus>
<clus scale="   91.863">  7  8 -1 -1</clus>
<clus scale="   49.658">  2  5  1 -1</clus>
</clustering>
</event>
<event>
 9    1  0.1973774E-005  0.1574114E+03  0.7546771E-02  0.1193098E+00
         -4   -1    0    0    0  501 -0.00000000000E+00  0.00000000000E+00  0.30541915266E+03  0.30541915266E+03  0.00000000000E+00 0.  1.
          3   -1    0    0  502    0  0.00000000000E+00 -0.00000000000E+00 -0.11418325401E+03  0.11418325401E+03  0.00000000000E+00 0. -1.
        -24    2    1    2    0    0 -0.47587391217E+02 -0.12858430139E+03  0.17594555831E+03  0.23723246165E+03  0.80770780668E+02 0.  0.
         23    2    1    2    0    0  0.40024452025E+02  0.10781138667E+03  0.37934177395E+02  0.15072416502E+03  0.89741407673E+02 0.  0.
         13    1    3    3    0    0  0.68999544067E+01 -0.40435700930E+02  0.11058847841E+02  0.42484743098E+02  0.00000000000E+00 0. -1.
        -14    1    3    3    0    0 -0.54487345624E+02 -0.88148600456E+02  0.16488671046E+03  0.19474771856E+03  0.00000000000E+00 0.  1.
        -13    1    4    4    0    0  0.46584998995E+02  0.62278316494E+02  0.61392805444E+02  0.99084950406E+02  0.00000000000E+00 0.  1.
         13    1    4    4    0    0 -0.65605469701E+01  0.45533070175E+02 -0.23458628048E+02  0.51639214614E+02  0.00000000000E+00 0. -1.
         21    1    1    2  502  501  0.75629391920E+01  0.20772914717E+02 -0.22643837054E+02  0.31645779996E+02  0.00000000000E+00 0.  1.
<scales pt_clust_5="13000.00000" pt_clust_6="13000.00000" pt_clust_7="13000.00000" pt_clust_8="13000.00000" pt_clust_9="22.10683"></scales>
<clustering>
<clus scale="   22.107">  2  9  1 -1</clus>
<clus scale="   80.771">  5  6 -1 -1</clus>
<clus scale="   89.741">  7  8 -1 -1</clus>
<clus scale="  152.475">  1  5  2 -1</clus>
<clus scale="   22.107">  2  5  1 -1</clus>
</clustering>
</event>
<event>
 9    1  0.1973774E-005  0.9251815E+02  0.7546771E-02  0.1305608E+00
          3   -1    0    0  502    0  0.00000000000E+00  0.00000000000E+00  0.21756733940E+03  0.21756733940E+03  0.00000000000E+00 0. -1.
         -4   -1    0    0    0  501 -0.00000000000E+00 -0.00000000000E+00 -0.80549566542E+02  0.80549566542E+02  0.00000000000E+00 0.  1.
        -24    2    1    2    0    0  0.10309429785E+02 -0.17408623213E+02 -0.28138098378E+02  0.84551363318E+02  0.77122214399E+02 0.  0.
         23    2    1    2    0    0 -0.17521137908E+02 -0.13410564971E+02  0.81866860207E+02  0.12446509115E+03  0.91118288991E+02 0.  0.
         13    1    3    3    0    0 -0.22984347617E+02  0.12400453297E+02  0.77440339600E+01  0.27240072308E+02  0.00000000000E+00 0. -1.
        -14    1    3    3    0    0  0.33293777402E+02 -0.29809076511E+02 -0.35882132338E+02  0.57311291010E+02  0.00000000000E+00 0.  1.
        -13    1    4    4    0    0 -0.48781108448E+02  0.70893508192E+01  0.69267451947E+02  0.85016676809E+02  0.00000000000E+00 0. -1.
         13    1    4    4    0    0  0.31259970540E+02 -0.20499915790E+02  0.12599408260E+02  0.39448414342E+02  0.00000000000E+00 0.  1.
         21    1    1    2  502  501  0.72117081224E+01  0.30819188185E+02  0.83289011027E+02  0.89100451471E+02  0.00000000000E+00 0. -1.
<scales pt_clust_5="13000.00000" pt_clust_6="13000.00000" pt_clust_7="13000.00000" pt_clust_8="13000.00000" pt_clust_9="31.65172"></scales>
<clustering>
<clus scale="   31.652">  1  9  2 -1</clus>
<clus scale="   77.122">  5  6 -1 -1</clus>
<clus scale="   78.771">  2  5  1 -1</clus>
<clus scale="   91.118">  7  8 -1 -1</clus>
<clus scale="   31.652">  1  5  2 -1</clus>
</clustering>
</event>
<event>
 9    1  0.1973774E-005  0.2193822E+03  0.7546771E-02  0.1135095E+00
          3   -1    0    0  502    0  0.00000000000E+00  0.00000000000E+00  0.19704407869E+03  0.19704407869E+03  0.00000000000E+00 0. -1.
         -4   -1    0    0    0  501 -0.00000000000E+00 -0.00000000000E+00 -0.28148396260E+03  0.28148396260E+03  0.00000000000E+00 0.  1.
        -24    2    1    2    0    0 -0.16680907061E+03 -0.12504922216E+03 -0.84378842937E+02  0.23884782598E+03  0.80410949740E+02 0.  0.
         23    2    1    2    0    0  0.16185082938E+03  0.98084151470E+02 -0.11206432737E+02  0.21008428736E+03  0.90518682725E+02 0.  0.
         11    1    3    3    0    0 -0.45703307037E+02 -0.83647778462E+02 -0.40216082235E+02  0.10345567353E+03  0.00000000000E+00 0. -1.
        -12    1    3    3    0    0 -0.12110576357E+03 -0.41401443699E+02 -0.44162760702E+02  0.13539215245E+03  0.00000000000E+00 0.  1.
        -11    1    4    4    0    0  0.67618402718E+02  0.92720978520E+02 -0.14319294560E+02  0.11564804555E+03  0.00000000000E+00 0. -1.
         11    1    4    4    0    0  0.94232426659E+02  0.53631729501E+01  0.31128618231E+01  0.94436241808E+02  0.00000000000E+00 0.  1.
         21    1    1    2  502  501  0.49582412318E+01  0.26965070691E+02  0.11145391762E+02  0.29595927947E+02  0.00000000000E+00 0.  1.
<scales pt_clust_5="13000.00000" pt_clust_6="13000.00000" pt_clust_7="13000.00000" pt_clust_8="13000.00000" pt_clust_9="27.41713"></scales>
<clustering>
<clus scale="   27.417">  1  9  2 -1</clus>
<clus scale="   80.411">  5  6 -1 -1</clus>
<clus scale="   90.519">  7  8 -1 -1</clus>
<clus scale="  215.409">  2  5  1 -1</clus>
<clus scale="   27.417">  1  5  2 -1</clus>
</clustering>
</event>
<event>
 9    1  0.1973774E-005  0.2189661E+03  0.7546771E-02  0.1161126E+00
          1   -1    0    0  502    0  0.00000000000E+00  0.00000000000E+00  0.80109632517E+03  0.80109632517E+03  0.00000000000E+00 0. -1.
         -2   -1    0    0    0  501 -0.00000000000E+00 -0.00000000000E+00 -0.20628317155E+03  0.20628317155E+03  0.00000000000E+00 0.  1.
         23    2    1    2    0    0 -0.62247132736E+02  0.29400520746E+02 -0.10678339627E+03  0.15815451050E+03  0.94186301121E+02 0.  0.
        -24    2    1    2    0    0  0.44228939082E+02 -0.21060315737E+03  0.59605691687E+03  0.63875488154E+03  0.80087836813E+02 0.  0.
         11    1    4    4    0    0  0.43380440363E+02 -0.13867764724E+03  0.29009045588E+03  0.32444695258E+03  0.00000000000E+00 0. -1.
        -12    1    4    4    0    0  0.84849871920E+00 -0.71925510136E+02  0.30596646099E+03  0.31430792896E+03  0.00000000000E+00 0.  1.
        -11    1    3    3    0    0 -0.24861001961E+02 -0.16401819632E+02  0.63958359285E+01  0.30463023865E+02  0.00000000000E+00 0. -1.
         11    1    3    3    0    0 -0.37386130775E+02  0.45802340378E+02 -0.11317923220E+03  0.12769148664E+03  0.00000000000E+00 0.  1.
         21    1    1    2  502  501  0.18018193654E+02  0.18120263663E+03  0.10553963303E+03  0.21047010468E+03  0.00000000000E+00 0.  1.
<scales pt_clust_5="13000.00000" pt_clust_6="13000.00000" pt_clust_7="13000.00000" pt_clust_8="13000.00000" pt_clust_9="203.79423"></scales>
<clustering>
<clus scale="   80.088">  5  6 -1 -1</clus>
<clus scale="   94.186">  7  8 -1 -1</clus>
<clus scale="  116.663">  2  7  1 -1</clus>
<clus scale="  203.794">  2  9  1 -1</clus>
<clus scale="  218.966">  1  5  2 -1</clus>
</clustering>
</event>
<event>
 9    1  0.1973774E-005  0.1562868E+03  0.7546771E-02  0.1194641E+00
          1   -1    0    0  502    0  0.00000000000E+00  0.00000000000E+00  0.49755873522E+03  0.49755873522E+03  0.00000000000E+00 0. -1.
         -2   -1    0    0    0  501 -0.00000000000E+00 -0.00000000000E+00 -0.79812754647E+02  0.79812754647E+02  0.00000000000E+00 0.  1.
         23    2    1    2    0    0  0.47627295426E+02 -0.12248125950E+03  0.48922143047E+02  0.16708805028E+03  0.90857153086E+02 0.  0.
        -24    2    1    2    0    0 -0.62750392569E+02  0.10020728939E+03  0.24664686000E+03  0.28517527978E+03  0.80691722245E+02 0.  0.
         11    1    4    4    0    0 -0.20560506616E+02  0.55448419492E+02  0.19832842156E+03  0.20695754263E+03  0.00000000000E+00 0. -1.
        -12    1    4    4    0    0 -0.42189885953E+02  0.44758869901E+02  0.48318438441E+02  0.78217737150E+02  0.00000000000E+00 0.  1.
        -13    1    3    3    0    0  0.15523035320E+02 -0.95990715329E+02  0.70594354406E+02  0.12016132876E+03  0.00000000000E+00 0. -1.
         13    1    3    3    0    0  0.32104260105E+02 -0.26490544172E+02 -0.21672211359E+02  0.46926721520E+02  0.00000000000E+00 0.  1.
         21    1    1    2  502  501  0.15123097143E+02  0.22273970107E+02  0.12217697753E+03  0.12510815981E+03  0.00000000000E+00 0.  1.
<scales pt_clust_5="13000.00000" pt_clust_6="13000.00000" pt_clust_7="13000.00000" pt_clust_8="13000.00000" pt_clust_9="26.92281"></scales>
<clustering>
<clus scale="   26.923">  1  9  2 -1</clus>
<clus scale="   80.692">  5  6 -1 -1</clus>
<clus scale="   90.857">  7  8 -1 -1</clus>
<clus scale="  150.604">  1  5  2 -1</clus>
<clus scale="   26.923">  1  5  2 -1</clus>
</clustering>
</event>
<event>
 9    1  0.1973774E-005  0.1024317E+03  0.7546771E-02  0.1277042E+00
         -2   -1    0    0    0  501 -0.00000000000E+00  0.00000000000E+00  0.52509192082E+02  0.52509192082E+02  0.00000000000E+00 0.  1.
          1   -1    0    0  502    0  0.00000000000E+00 -0.00000000000E+00 -0.54122546989E+03  0.54122546989E+03  0.00000000000E+00 0. -1.
        -24    2    1    2    0    0 -0.46659769742E+02  0.55717189631E+01 -0.18717728348E+02  0.98839862232E+02  0.84916352059E+02 0.  0.
         23    2    1    2    0    0  0.72735880051E+02 -0.30210174002E+02 -0.37448314198E+03  0.39286436281E+03  0.88891062956E+02 0.  0.
         13    1    3    3    0    0 -0.69686387465E+02  0.27069801211E+01 -0.11718253644E+01  0.69748788620E+02  0.00000000000E+00 0. -1.
        -14    1    3    3    0    0  0.23026617723E+02  0.28647388420E+01 -0.17545902983E+02  0.29091073612E+02  0.00000000000E+00 0.  1.
        -11    1    4    4    0    0  0.36262699937E+02 -0.52416773129E+02 -0.13120748026E+03  0.14586947723E+03  0.00000000000E+00 0.  1.
         11    1    4    4    0    0  0.36473180114E+02  0.22206599127E+02 -0.24327566172E+03  0.24699488557E+03  0.00000000000E+00 0. -1.
         21    1    1    2  502  501 -0.26076110309E+02  0.24638455039E+02 -0.95515407474E+02  0.10203043693E+03  0.00000000000E+00 0. -1.
<scales pt_clust_5="13000.00000" pt_clust_6="13000.00000" pt_clust_7="13000.00000" pt_clust_8="13000.00000" pt_clust_9="35.87502"></scales>
<clustering>
<clus scale="   35.875">  2  9  1 -1</clus>
<clus scale="   84.916">  5  6 -1 -1</clus>
<clus scale="   88.891">  7  8 -1 -1</clus>
<clus scale="   99.002">  1  5  2 -1</clus>
<clus scale="   35.875">  2  5  1 -1</clus>
</clustering>
</event>
<event>
 9    1  0.1973774E-005  0.1422071E+03  0.7546771E-02  0.1212571E+00
          1   -1    0    0  502    0  0.00000000000E+00  0.00000000000E+00  0.82992354714E+03  0.82992354714E+03  0.00000000000E+00 0. -1.
         -2   -1    0    0    0  501 -0.00000000000E+00 -0.00000000000E+00 -0.79492562278E+02  0.79492562278E+02  0.00000000000E+00 0.  1.
         23    2    1    2    0    0  0.87201502499E+02 -0.68541638935E+02  0.27037578369E+01  0.14389559966E+03  0.91632827022E+02 0.  0.
        -24    2    1    2    0    0 -0.51336434187E+02  0.80870851598E+02  0.59956858492E+03  0.61258491599E+03  0.81254336313E+02 0.  0.
         13    1    4    4    0    0 -0.72835696209E+02  0.58007507067E+02  0.48124029241E+03  0.49016540939E+03  0.00000000000E+00 0. -1.
        -14    1    4    4    0    0  0.21499262022E+02  0.22863344531E+02  0.11832829250E+03  0.12241950660E+03  0.00000000000E+00 0.  1.
        -11    1    3    3    0    0  0.10431042987E+02 -0.46431547904E+02 -0.31416448223E+02  0.57023578610E+02  0.00000000000E+00 0.  1.
         11    1    3    3    0    0  0.76770459512E+02 -0.22110091031E+02  0.34120206060E+02  0.86872021046E+02  0.00000000000E+00 0. -1.
         21    1    1    2  502  501 -0.35865068312E+02 -0.12329212663E+02  0.14815864211E+03  0.15293559377E+03  0.00000000000E+00 0.  1.
<scales pt_clust_5="13000.00000" pt_clust_6="13000.00000" pt_clust_7="13000.00000" pt_clust_8="13000.00000" pt_clust_9="37.92509"></scales>
<clustering>
<clus scale="   37.925">  1  9  2 -1</clus>
<clus scale="   81.254">  5  6 -1 -1</clus>
<clus scale="   91.633">  7  8 -1 -1</clus>
<clus scale="  135.752">  1  5  2 -1</clus>
<clus scale="   37.925">  1  5  2 -1</clus>
</clustering>
</event>
<event>
 9    1  0.1973774E-005  0.8140576E+02  0.7546771E-02  0.1325227E+00
          1   -1    0    0  502    0  0.00000000000E+00  0.00000000000E+00  0.12766628736E+03  0.12766628736E+03  0.00000000000E+00 0. -1.
         -2   -1    0    0    0  501 -0.00000000000E+00 -0.00000000000E+00 -0.55469170439E+03  0.55469170439E+03  0.00000000000E+00 0.  1.
        -24    2    1    2    0    0  0.61293877062E+01  0.42128145925E+01 -0.35160466395E+03  0.36082896737E+03  0.80724140037E+02 0.  0.
         23    2    1    2    0    0  0.48139831354E+02  0.49218505911E+02 -0.16986352592E+03  0.20020511292E+03  0.80551630125E+02 0.  0.
         13    1    3    3    0    0 -0.31545559075E+02  0.22928140452E+02 -0.16827570155E+03  0.17273544412E+03  0.00000000000E+00 0. -1.
        -14    1    3    3    0    0  0.37674946781E+02 -0.18715325860E+02 -0.18332896240E+03  0.18809352326E+03  0.00000000000E+00 0.  1.
        -11    1    4    4    0    0  0.25654186275E+02  0.57457617007E+02 -0.16384519536E+03  0.17551285728E+03  0.00000000000E+00 0.  1.
         11    1    4    4    0    0  0.22485645080E+02 -0.82391110954E+01 -0.60183305567E+01  0.24692255648E+02  0.00000000000E+00 0. -1.
         21    1    1    2  502  501 -0.54269219060E+02 -0.53431320504E+02  0.94442772846E+02  0.12132391146E+03  0.00000000000E+00 0. -1.
<scales pt_clust_5="13000.00000" pt_clust_6="13000.00000" pt_clust_7="13000.00000" pt_clust_8="13000.00000" pt_clust_9="76.15809"></scales>
<clustering>
<clus scale="   76.158">  1  9  2 -1</clus>
<clus scale="   80.552">  7  8 -1 -1</clus>
<clus scale="   80.724">  5  6 -1 -1</clus>
<clus scale="   81.235">  1  7  2 -1</clus>
<clus scale="   76.158">  1  5  2 -1</clus>
</clustering>
</event>
<event>
 9    1  0.1973774E-005  0.1443659E+03  0.7546771E-02  0.1208986E+00
          1   -1    0    0  502    0  0.00000000000E+00  0.00000000000E+00  0.62252893963E+03  0.62252893963E+03  0.00000000000E+00 0. -1.
         -2   -1    0    0    0  501 -0.00000000000E+00 -0.00000000000E+00 -0.41676241736E+02  0.41676241736E+02  0.00000000000E+00 0.  1.
         23    2    1    2    0    0  0.42398175970E+02  0.10854731073E+03  0.18015163824E+03  0.23280689806E+03  0.90356599268E+02 0.  0.
        -24    2    1    2    0    0 -0.18543450053E+02 -0.10561341827E+03  0.33993569501E+03  0.36605239427E+03  0.83306812167E+02 0.  0.
         13    1    4    4    0    0 -0.40247858142E+02 -0.44375785717E+02  0.23596401283E+03  0.24345043807E+03  0.00000000000E+00 0. -1.
        -14    1    4    4    0    0  0.21704408089E+02 -0.61237632548E+02  0.10397168218E+03  0.12260195620E+03  0.00000000000E+00 0.  1.
        -11    1    3    3    0    0  0.89526489367E+00  0.33939234130E+02  0.12875308992E+03  0.13315416357E+03  0.00000000000E+00 0.  1.
         11    1    3    3    0    0  0.41502911077E+02  0.74608076596E+02  0.51398548320E+02  0.99652734486E+02  0.00000000000E+00 0. -1.
         21    1    1    2  502  501 -0.23854725917E+02 -0.29338924602E+01  0.60765364648E+02  0.65345889040E+02  0.00000000000E+00 0.  1.
<scales pt_clust_5="13000.00000" pt_clust_6="13000.00000" pt_clust_7="13000.00000" pt_clust_8="13000.00000" pt_clust_9="24.03447"></scales>
<clustering>
<clus scale="   24.034">  1  9  2 -1</clus>
<clus scale="   83.307">  5  6 -1 -1</clus>
<clus scale="   90.357">  7  8 -1 -1</clus>
<clus scale="  140.062">  1  5  2 -1</clus>
<clus scale="   24.034">  1  5  2 -1</clus>
</clustering>
</event>
<event>
 9    1  0.1973774E-005  0.1917097E+03  0.7546771E-02  0.1158073E+00
         -2   -1    0    0    0  501 -0.00000000000E+00  0.00000000000E+00  0.14694078891E+03  0.14694078891E+03  0.00000000000E+00 0.  1.
          1   -1    0    0  502    0  0.00000000000E+00 -0.00000000000E+00 -0.66471824335E+03  0.66471824335E+03  0.00000000000E+00 0. -1.
        -24    2    1    2    0    0 -0.79006120971E+02  0.14769137305E+03  0.67978745670E+01  0.18590548922E+03  0.80373695941E+02 0.  0.
         23    2    1    2    0    0  0.16846851564E+03 -0.95343807561E+02 -0.23369356262E+03  0.31695589136E+03  0.91521983449E+02 0.  0.
         13    1    3    3    0    0 -0.16968155490E+01  0.80933317378E+02  0.18663637124E+02  0.83074739816E+02  0.00000000000E+00 0. -1.
        -14    1    3    3    0    0 -0.77309305422E+02  0.66758055674E+02 -0.11865762557E+02  0.10283074941E+03  0.00000000000E+00 0.  1.
        -11    1    4    4    0    0  0.96770337980E+02 -0.24681714507E+02 -0.60884700482E+02  0.11696423426E+03  0.00000000000E+00 0.  1.
         11    1    4    4    0    0  0.71698177660E+02 -0.70662093055E+02 -0.17280886214E+03  0.19999165709E+03  0.00000000000E+00 0. -1.
         21    1    1    2  502  501 -0.89462394669E+02 -0.52347565490E+02 -0.29088176638E+03  0.30879765169E+03  0.00000000000E+00 0.  1.
<scales pt_clust_5="13000.00000" pt_clust_6="13000.00000" pt_clust_7="13000.00000" pt_clust_8="13000.00000" pt_clust_9="103.65224"></scales>
<clustering>
<clus scale="   80.374">  5  6 -1 -1</clus>
<clus scale="   91.522">  7  8 -1 -1</clus>
<clus scale="  103.652">  2  9  1 -1</clus>
<clus scale="  186.645">  1  5  2 -1</clus>
<clus scale="  103.652">  2  5  1 -1</clus>
</clustering>
</event>
<event>
 9    1  0.1973774E-005  0.8829198E+02  0.7546771E-02  0.1311860E+00
          1   -1    0    0  502    0  0.00000000000E+00  0.00000000000E+00  0.15325622396E+03  0.15325622396E+03  0.00000000000E+00 0. -1.
         -2   -1    0    0    0  501 -0.00000000000E+00 -0.00000000000E+00 -0.91184588959E+02  0.91184588959E+02  0.00000000000E+00 0.  1.
        -24    2    1    2    0    0 -0.10151428599E+02  0.84273803597E+01 -0.25349889451E+02  0.85285745133E+02  0.80355268560E+02 0.  0.
         23    2    1    2    0    0 -0.29191580806E+02 -0.11952017694E+02  0.65366815491E+02  0.11391453679E+03  0.87799214166E+02 0.  0.
         11    1    3    3    0    0 -0.43641579155E+02  0.15626040081E+02 -0.85648541154E+01  0.47139339047E+02  0.00000000000E+00 0. -1.
        -12    1    3    3    0    0  0.33490150556E+02 -0.71986597209E+01 -0.16785035336E+02  0.38146406086E+02  0.00000000000E+00 0.  1.
        -13    1    4    4    0    0  0.25114445881E+02 -0.20581747789E+02  0.44530396151E+02  0.55111703978E+02  0.00000000000E+00 0.  1.
         13    1    4    4    0    0 -0.54306026687E+02  0.86297300952E+01  0.20836419341E+02  0.58802832815E+02  0.00000000000E+00 0. -1.
         21    1    1    2  502  501  0.39343009405E+02  0.35246373344E+01  0.22054708964E+02  0.45240530996E+02  0.00000000000E+00 0. -1.
<scales pt_clust_5="13000.00000" pt_clust_6="13000.00000" pt_clust_7="13000.00000" pt_clust_8="13000.00000" pt_clust_9="39.50058"></scales>
<clustering>
<clus scale="   39.501">  1  9  2 -1</clus>
<clus scale="   80.355">  5  6 -1 -1</clus>
<clus scale="   80.893">  2  5  1 -1</clus>
<clus scale="   87.799">  7  8 -1 -1</clus>
<clus scale="   39.501">  1  5  2 -1</clus>
</clustering>
</event>
<event>
 9    1  0.2280900E-005  0.1004179E+03  0.7546771E-02  0.1282966E+00
         -2   -1    0    0    0  501 -0.00000000000E+00  0.00000000000E+00  0.38162001185E+03  0.38162001185E+03  0.00000000000E+00 0.  1.
          1   -1    0    0  502    0  0.00000000000E+00 -0.00000000000E+00 -0.35141623091E+03  0.35141623091E+03  0.00000000000E+00 0. -1.
        -24    2    1    2    0    0  0.32391470295E+02 -0.37366764713E+02  0.35899203695E+03  0.37112179478E+03  0.80066356932E+02 0.  0.
         23    2    1    2    0    0 -0.37338272079E+02  0.24154282479E+01 -0.30450548080E+03  0.31906914555E+03  0.87644457612E+02 0.  0.
         13    1    3    3    0    0  0.30025078530E+02 -0.23461297996E+02  0.55611209098E+02  0.67413236250E+02  0.00000000000E+00 0. -1.
        -14    1    3    3    0    0  0.23663917655E+01 -0.13905466716E+02  0.30338082785E+03  0.30370855853E+03  0.00000000000E+00 0.  1.
        -11    1    4    4    0    0 -0.63640642591E+02  0.11149499468E+02 -0.17290871458E+03  0.18458566116E+03  0.00000000000E+00 0. -1.
         11    1    4    4    0    0  0.26302370513E+02 -0.87340712204E+01 -0.13159676622E+03  0.13448348439E+03  0.00000000000E+00 0.  1.
         21    1    1    2  502  501  0.49468017836E+01  0.34951336465E+02 -0.24282775207E+02  0.42845302430E+02  0.00000000000E+00 0.  1.
<scales pt_clust_5="13000.00000" pt_clust_6="13000.00000" pt_clust_7="13000.00000" pt_clust_8="13000.00000" pt_clust_9="35.29967"></scales>
<clustering>
<clus scale="   35.300">  2  9  1 -1</clus>
<clus scale="   80.066">  5  6 -1 -1</clus>
<clus scale="   87.644">  7  8 -1 -1</clus>
<clus scale="   93.877">  1  5  2 -1</clus>
<clus scale="   35.300">  2  5  1 -1</clus>
</clustering>
</event>
<event>
 9    1  0.1973774E-005  0.7939711E+02  0.7546771E-02  0.1338968E+00
         -2   -1    0    0    0  501 -0.00000000000E+00  0.00000000000E+00  0.18628883716E+03  0.18628883716E+03  0.00000000000E+00 0.  1.
          1   -1    0    0  502    0  0.00000000000E+00 -0.00000000000E+00 -0.28821897763E+03  0.28821897763E+03  0.00000000000E+00 0. -1.
        -24    2    1    2    0    0  0.11331518577E+01 -0.65945142054E+01  0.16705892941E+03  0.18494402796E+03  0.79062228213E+02 0.  0.
         23    2    1    2    0    0 -0.26960751263E+02  0.10859804800E+02 -0.14619395350E+03  0.16400942329E+03  0.68422228986E+02 0.  0.
         13    1    3    3    0    0 -0.91918938372E+00  0.33620522126E+02  0.43478813856E+02  0.54969006462E+02  0.00000000000E+00 0. -1.
        -14    1    3    3    0    0  0.20523412415E+01 -0.40215036331E+02  0.12358011556E+03  0.12997502150E+03  0.00000000000E+00 0.  1.
        -13    1    4    4    0    0 -0.49519663324E+02  0.25410893529E+01 -0.87343065487E+02  0.10043637429E+03  0.00000000000E+00 0. -1.
         13    1    4    4    0    0  0.22558912061E+02  0.83187154467E+01 -0.58850888016E+02  0.63573049009E+02  0.00000000000E+00 0.  1.
         21    1    1    2  502  501  0.25827599406E+02 -0.42652905941E+01 -0.12279511638E+03  0.12555436353E+03  0.00000000000E+00 0.  1.
<scales pt_clust_5="13000.00000" pt_clust_6="13000.00000" pt_clust_7="13000.00000" pt_clust_8="13000.00000" pt_clust_9="26.17743"></scales>
<clustering>
<clus scale="   26.177">  2  9  1 -1</clus>
<clus scale="   68.422">  7  8 -1 -1</clus>
<clus scale="   68.809">  2  7  1 -1</clus>
<clus scale="   79.062">  5  6 -1 -1</clus>
<clus scale="   26.177">  2  5  1 -1</clus>
</clustering>
</event>
<event>
 9    1  0.1973774E-005  0.1458448E+03  0.7546771E-02  0.1207922E+00
          1   -1    0    0  502    0  0.00000000000E+00  0.00000000000E+00  0.33810049563E+03  0.33810049563E+03  0.00000000000E+00 0. -1.
         -2   -1    0    0    0  501 -0.00000000000E+00 -0.00000000000E+00 -0.10573217503E+03  0.10573217503E+03  0.00000000000E+00 0.  1.
        -24    2    1    2    0    0 -0.12028118031E+03 -0.14046451544E+02 -0.84822666607E+00  0.14520589646E+03  0.80119708809E+02 0.  0.
         23    2    1    2    0    0  0.92142851455E+02  0.39318800253E+02  0.12691330237E+03  0.18579576323E+03  0.91524893825E+02 0.  0.
         13    1    3    3    0    0 -0.55386434870E+02 -0.13414399102E+02  0.38996011530E+02  0.69052821710E+02  0.00000000000E+00 0. -1.
        -14    1    3    3    0    0 -0.64894745437E+02 -0.63205244182E+00 -0.39844238196E+02  0.76153074745E+02  0.00000000000E+00 0.  1.
        -11    1    4    4    0    0  0.68152801918E+02  0.32987922584E+01  0.12507844704E+03  0.14247913656E+03  0.00000000000E+00 0. -1.
         11    1    4    4    0    0  0.23990049537E+02  0.36020007994E+02  0.18348553299E+01  0.43316626678E+02  0.00000000000E+00 0.  1.
         21    1    1    2  502  501  0.28138328853E+02 -0.25272348709E+02  0.10630324490E+03  0.11283101096E+03  0.00000000000E+00 0. -1.
<scales pt_clust_5="13000.00000" pt_clust_6="13000.00000" pt_clust_7="13000.00000" pt_clust_8="13000.00000" pt_clust_9="37.82138"></scales>
<clustering>
<clus scale="   37.821">  1  9  2 -1</clus>
<clus scale="   80.120">  5  6 -1 -1</clus>
<clus scale="   91.525">  7  8 -1 -1</clus>
<clus scale="  138.971">  2  5  1 -1</clus>
<clus scale="   37.821">  1  5  2 -1</clus>
</clustering>
</event>
<event>
 9    1  0.1973774E-005  0.9767038E+02  0.7546771E-02  0.1291590E+00
         -2   -1    0    0    0  501 -0.00000000000E+00  0.00000000000E+00  0.43594738881E+02  0.43594738881E+02  0.00000000000E+00 0.  1.
          1   -1    0    0  502    0  0.00000000000E+00 -0.00000000000E+00 -0.40997382754E+03  0.40997382754E+03  0.00000000000E+00 0. -1.
         23    2    1    2    0    0 -0.17474260146E+02  0.38827885346E+02 -0.43818368008E+02  0.11006304278E+03  0.91547089317E+02 0.  0.
        -24    2    1    2    0    0  0.66038086355E+01 -0.38285261490E+01 -0.24375863147E+03  0.25659815273E+03  0.79787678660E+02 0.  0.
         11    1    4    4    0    0 -0.21150832624E+02 -0.25798978548E+02 -0.18513220008E+03  0.18811399874E+03  0.00000000000E+00 0. -1.
        -12    1    4    4    0    0  0.27754641260E+02  0.21970452399E+02 -0.58626431391E+02  0.68484153990E+02  0.00000000000E+00 0.  1.
        -13    1    3    3    0    0 -0.15936930039E+02 -0.28498662647E+02 -0.73129641120E+01  0.33461006498E+02  0.00000000000E+00 0. -1.
         13    1    3    3    0    0 -0.15373301067E+01  0.67326547993E+02 -0.36505403896E+02  0.76602036279E+02  0.00000000000E+00 0.  1.
         21    1    1    2  502  501  0.10870451510E+02 -0.34999359197E+02 -0.78802089185E+02  0.86907370919E+02  0.00000000000E+00 0. -1.
<scales pt_clust_5="13000.00000" pt_clust_6="13000.00000" pt_clust_7="13000.00000" pt_clust_8="13000.00000" pt_clust_9="36.64863"></scales>
<clustering>
<clus scale="   36.649">  2  9  1 -1</clus>
<clus scale="   79.788">  5  6 -1 -1</clus>
<clus scale="   86.745">  2  5  1 -1</clus>
<clus scale="   91.547">  7  8 -1 -1</clus>
<clus scale="   36.649">  2  5  1 -1</clus>
</clustering>
</event>
<event>
 9    1  0.1973774E-005  0.1044646E+03  0.7546771E-02  0.1278537E+00
          3   -1    0    0  502    0  0.00000000000E+00  0.00000000000E+00  0.16005823216E+03  0.16005823216E+03  0.00000000000E+00 0. -1.
         -4   -1    0    0    0  501 -0.00000000000E+00 -0.00000000000E+00 -0.14596126887E+03  0.14596126887E+03  0.00000000000E+00 0.  1.
         23    2    1    2    0    0  0.37659582206E+02 -0.21405410300E+02 -0.97102604493E+02  0.14450594970E+03  0.97860196080E+02 0.  0.
        -24    2    1    2    0    0 -0.91005492917E+01  0.49270656132E+01  0.72791877955E+02  0.11089433718E+03  0.83016869060E+02 0.  0.
         11    1    4    4    0    0  0.35865804607E+02  0.62190696246E+01  0.45533715507E+02  0.58295385881E+02  0.00000000000E+00 0. -1.
        -12    1    4    4    0    0 -0.44966353899E+02 -0.12920040114E+01  0.27258162448E+02  0.52598951295E+02  0.00000000000E+00 0.  1.
        -11    1    3    3    0    0 -0.14932645420E+02 -0.46410942483E+02 -0.42528106640E+02  0.64696208048E+02  0.00000000000E+00 0.  1.
         11    1    3    3    0    0  0.52592227626E+02  0.25005532182E+02 -0.54574497853E+02  0.79809741650E+02  0.00000000000E+00 0. -1.
         21    1    1    2  502  501 -0.28559032914E+02  0.16478344687E+02  0.38407689818E+02  0.50619214156E+02  0.00000000000E+00 0.  1.
<scales pt_clust_5="13000.00000" pt_clust_6="13000.00000" pt_clust_7="13000.00000" pt_clust_8="13000.00000" pt_clust_9="32.97202"></scales>
<clustering>
<clus scale="   32.972">  1  9  2 -1</clus>
<clus scale="   83.017">  5  6 -1 -1</clus>
<clus scale="   90.708">  1  5  2 -1</clus>
<clus scale="   97.860">  7  8 -1 -1</clus>
<clus scale="   32.972">  1  5  2 -1</clus>
</clustering>
</event>
<event>
 9    1  0.1973774E-005  0.9558354E+02  0.7546771E-02  0.1296932E+00
         -2   -1    0    0    0  501 -0.00000000000E+00  0.00000000000E+00  0.30104677494E+03  0.30104677494E+03  0.00000000000E+00 0.  1.
          1   -1    0    0  502    0  0.00000000000E+00 -0.00000000000E+00 -0.81662595030E+02  0.81662595030E+02  0.00000000000E+00 0. -1.
        -24    2    1    2    0    0 -0.32766080696E+02  0.10768125169E+02  0.22811489997E+03  0.24380370660E+03  0.78830648864E+02 0.  0.
         23    2    1    2    0    0 -0.33227164427E+01 -0.76206039733E+01  0.18623144494E+02  0.93512469217E+02  0.91261417580E+02 0.  0.
         11    1    3    3    0    0 -0.19314214612E+02  0.24298087569E+02  0.25164776449E+02  0.39958752725E+02  0.00000000000E+00 0. -1.
        -12    1    3    3    0    0 -0.13451866084E+02 -0.13529962400E+02  0.20295012352E+03  0.20384495388E+03  0.00000000000E+00 0.  1.
        -13    1    4    4    0    0  0.27353444550E+02  0.31633931322E+02  0.85737505260E+01  0.42689878633E+02  0.00000000000E+00 0. -1.
         13    1    4    4    0    0 -0.30676160993E+02 -0.39254535295E+02  0.10049393968E+02  0.50822590584E+02  0.00000000000E+00 0.  1.
         21    1    1    2  502  501  0.36088797138E+02 -0.31475211956E+01 -0.27353864559E+02  0.45393194147E+02  0.00000000000E+00 0. -1.
<scales pt_clust_5="13000.00000" pt_clust_6="13000.00000" pt_clust_7="13000.00000" pt_clust_8="13000.00000" pt_clust_9="36.22579"></scales>
<clustering>
<clus scale="   36.226">  2  9  1 -1</clus>
<clus scale="   78.831">  5  6 -1 -1</clus>
<clus scale="   83.796">  1  5  2 -1</clus>
<clus scale="   91.261">  7  8 -1 -1</clus>
<clus scale="   36.226">  2  5  1 -1</clus>
</clustering>
</event>
<event>
 9    1  0.1973774E-005  0.1366349E+03  0.7546771E-02  0.1222102E+00
          3   -1    0    0  502    0  0.00000000000E+00  0.00000000000E+00  0.48655617971E+02  0.48655617971E+02  0.00000000000E+00 0. -1.
         -4   -1    0    0    0  501 -0.00000000000E+00 -0.00000000000E+00 -0.58588948781E+03  0.58588948781E+03  0.00000000000E+00 0.  1.
        -24    2    1    2    0    0  0.80658327746E+02  0.30500038989E+02 -0.33092329286E+03  0.35700471351E+03  0.10249937314E+03 0.  0.
         23    2    1    2    0    0 -0.96515447252E+02 -0.13328010302E+02 -0.21595094377E+03  0.25225673193E+03  0.86635912118E+02 0.  0.
         11    1    3    3    0    0  0.29808068508E+02  0.26666960198E+02 -0.25677721342E+02  0.47528865837E+02  0.00000000000E+00 0. -1.
        -12    1    3    3    0    0  0.50850259237E+02  0.38330787903E+01 -0.30524557152E+03  0.30947584767E+03  0.00000000000E+00 0.  1.
        -11    1    4    4    0    0 -0.37377165802E+02 -0.33636454256E+02 -0.16215245630E+03  0.16977008765E+03  0.00000000000E+00 0. -1.
         11    1    4    4    0    0 -0.59138281450E+02  0.20308443954E+02 -0.53798487473E+02  0.82486644271E+02  0.00000000000E+00 0.  1.
         21    1    1    2  502  501  0.15857119506E+02 -0.17172028687E+02  0.96403668027E+01  0.25283660343E+02  0.00000000000E+00 0.  1.
<scales pt_clust_5="13000.00000" pt_clust_6="13000.00000" pt_clust_7="13000.00000" pt_clust_8="13000.00000" pt_clust_9="23.37363"></scales>
<clustering>
<clus scale="   23.374">  1  9  2 -1</clus>
<clus scale="   86.636">  7  8 -1 -1</clus>
<clus scale="  102.499">  5  6 -1 -1</clus>
<clus scale="  125.175">  1  7  2 -1</clus>
<clus scale="   23.374">  1  5  2 -1</clus>
</clustering>
</event>
<event>
 9    1  0.1973774E-005  0.1109998E+03  0.7546771E-02  0.1262929E+00
          1   -1    0    0  502    0  0.00000000000E+00  0.00000000000E+00  0.62210068609E+02  0.62210068609E+02  0.00000000000E+00 0. -1.
         -2   -1    0    0    0  501 -0.00000000000E+00 -0.00000000000E+00 -0.60819646414E+03  0.60819646414E+03  0.00000000000E+00 0.  1.
         23    2    1    2    0    0 -0.41523399934E+02 -0.30006901747E+02 -0.36026447246E+03  0.37517077465E+03  0.91312721657E+02 0.  0.
        -24    2    1    2    0    0  0.42202722166E+02  0.97733882116E+02 -0.18426431601E+03  0.22748968835E+03  0.80406707930E+02 0.  0.
         11    1    4    4    0    0  0.32230506901E+02  0.10860189354E+03 -0.17898677355E+03  0.21182408258E+03  0.00000000000E+00 0. -1.
        -12    1    4    4    0    0  0.99722152652E+01 -0.10868011428E+02 -0.52775424601E+01  0.15665605769E+02  0.00000000000E+00 0.  1.
        -11    1    3    3    0    0 -0.14074900380E+02  0.31917543759E+02 -0.89376613396E+02  0.95942750859E+02  0.00000000000E+00 0.  1.
         11    1    3    3    0    0 -0.27448499554E+02 -0.61924445506E+02 -0.27088785907E+03  0.27922802379E+03  0.00000000000E+00 0. -1.
         21    1    1    2  502  501 -0.67932223236E+00 -0.67726980369E+02 -0.14576070626E+01  0.67746069753E+02  0.00000000000E+00 0. -1.
<scales pt_clust_5="13000.00000" pt_clust_6="13000.00000" pt_clust_7="13000.00000" pt_clust_8="13000.00000" pt_clust_9="67.73039"></scales>
<clustering>
<clus scale="   67.730">  1  9  2 -1</clus>
<clus scale="   80.407">  5  6 -1 -1</clus>
<clus scale="   91.313">  7  8 -1 -1</clus>
<clus scale="  102.216">  1  5  2 -1</clus>
<clus scale="   67.730">  1  5  2 -1</clus>
</clustering>
</event>
<event>
 9    1  0.1973774E-005  0.1510431E+03  0.7546771E-02  0.1200802E+00
         -2   -1    0    0    0  501 -0.00000000000E+00  0.00000000000E+00  0.71482654275E+02  0.71482654275E+02  0.00000000000E+00 0.  1.
          1   -1    0    0  502    0  0.00000000000E+00 -0.00000000000E+00 -0.50962288547E+03  0.50962288547E+03  0.00000000000E+00 0. -1.
         23    2    1    2    0    0  0.12101123616E+03  0.18574975286E+00 -0.10642388245E+03  0.18486537338E+03  0.90583716739E+02 0.  0.
        -24    2    1    2    0    0 -0.11945955999E+03 -0.25255952782E+02 -0.14012538806E+03  0.20300968483E+03  0.81666138234E+02 0.  0.
         11    1    4    4    0    0 -0.98669158571E+02 -0.11888780947E+02 -0.14691946390E+03  0.17737608305E+03  0.00000000000E+00 0. -1.
        -12    1    4    4    0    0 -0.20790401417E+02 -0.13367171835E+02  0.67940758392E+01  0.25633601785E+02  0.00000000000E+00 0.  1.
        -11    1    3    3    0    0  0.11276381937E+03 -0.28089641516E+02 -0.62416697753E+02  0.13191114843E+03  0.00000000000E+00 0.  1.
         11    1    3    3    0    0  0.82474167818E+01  0.28275391269E+02 -0.44007184701E+02  0.52954224953E+02  0.00000000000E+00 0. -1.
         21    1    1    2  502  501 -0.15516761687E+01  0.25070203029E+02 -0.19159096068E+03  0.19323048153E+03  0.00000000000E+00 0. -1.
<scales pt_clust_5="13000.00000" pt_clust_6="13000.00000" pt_clust_7="13000.00000" pt_clust_8="13000.00000" pt_clust_9="25.11818"></scales>
<clustering>
<clus scale="   25.118">  2  9  1 -1</clus>
<clus scale="   81.666">  5  6 -1 -1</clus>
<clus scale="   90.584">  7  8 -1 -1</clus>
<clus scale="  145.870">  2  5  1 -1</clus>
<clus scale="   25.118">  2  5  1 -1</clus>
</clustering>
</event>
<event>
 9    1  0.1973774E-005  0.9934926E+02  0.7546771E-02  0.1282882E+00
          3   -1    0    0  502    0  0.00000000000E+00  0.00000000000E+00  0.62133791603E+03  0.62133791603E+03  0.00000000000E+00 0. -1.
         -4   -1    0    0    0  501 -0.00000000000E+00 -0.00000000000E+00 -0.69560681855E+02  0.69560681855E+02  0.00000000000E+00 0.  1.
         23    2    1    2    0    0 -0.12733718885E+02  0.49388085177E+02 -0.21569066996E+02  0.10279568886E+03  0.86604840755E+02 0.  0.
        -24    2    1    2    0    0  0.16889617059E+02 -0.16123823565E+02  0.49883762273E+03  0.50640024228E+03  0.84005920528E+02 0.  0.
         13    1    4    4    0    0  0.49916216621E+02 -0.36867901501E+01  0.23964727138E+03  0.24481837306E+03  0.00000000000E+00 0. -1.
        -14    1    4    4    0    0 -0.33026599562E+02 -0.12437033414E+02  0.25919035134E+03  0.26158186923E+03  0.00000000000E+00 0.  1.
        -11    1    3    3    0    0  0.22577669250E+02 -0.13246283713E+02  0.40037389844E+01  0.26481032964E+02  0.00000000000E+00 0. -1.
         11    1    3    3    0    0 -0.35311388134E+02  0.62634368890E+02 -0.25572805980E+02  0.76314655892E+02  0.00000000000E+00 0.  1.
         21    1    1    2  502  501 -0.41558981744E+01 -0.33264261613E+02  0.74508678442E+02  0.81702666746E+02  0.00000000000E+00 0.  1.
<scales pt_clust_5="13000.00000" pt_clust_6="13000.00000" pt_clust_7="13000.00000" pt_clust_8="13000.00000" pt_clust_9="33.52287"></scales>
<clustering>
<clus scale="   33.523">  1  9  2 -1</clus>
<clus scale="   84.006">  5  6 -1 -1</clus>
<clus scale="   86.605">  7  8 -1 -1</clus>
<clus scale="   97.092">  1  5  2 -1</clus>
<clus scale="   33.523">  1  5  2 -1</clus>
</clustering>
</event>
<event>
 9    1  0.1973774E-005  0.1083210E+03  0.7546771E-02  0.1268207E+00
         -4   -1    0    0    0  501 -0.00000000000E+00  0.00000000000E+00  0.12650943014E+03  0.12650943014E+03  0.00000000000E+00 0.  1.
          3   -1    0    0  502    0  0.00000000000E+00 -0.00000000000E+00 -0.36907534344E+03  0.36907534344E+03  0.00000000000E+00 0. -1.
        -24    2    1    2    0    0  0.60528372792E+02 -0.25549637426E+01  0.87749025089E+02  0.13335758898E+03  0.80088347355E+02 0.  0.
         23    2    1    2    0    0 -0.31262205488E+02  0.26456606335E+02 -0.29115477334E+03  0.30780921335E+03  0.91094084753E+02 0.  0.
         13    1    3    3    0    0 -0.15902741679E+02  0.14256986677E+02  0.12271924085E+02  0.24632478210E+02  0.00000000000E+00 0. -1.
        -14    1    3    3    0    0  0.76431114471E+02 -0.16811950419E+02  0.75477101004E+02  0.10872511077E+03  0.00000000000E+00 0.  1.
        -11    1    4    4    0    0  0.21779425895E+02  0.26321572202E+02 -0.47878422306E+02  0.58817615372E+02  0.00000000000E+00 0.  1.
         11    1    4    4    0    0 -0.53041631384E+02  0.13503413306E+00 -0.24327635103E+03  0.24899159798E+03  0.00000000000E+00 0. -1.
         21    1    1    2  502  501 -0.29266167304E+02 -0.23901642592E+02 -0.39160165052E+02  0.54417971243E+02  0.00000000000E+00 0.  1.
<scales pt_clust_5="13000.00000" pt_clust_6="13000.00000" pt_clust_7="13000.00000" pt_clust_8="13000.00000" pt_clust_9="37.78620"></scales>
<clustering>
<clus scale="   37.786">  2  9  1 -1</clus>
<clus scale="   80.088">  5  6 -1 -1</clus>
<clus scale="   91.094">  7  8 -1 -1</clus>
<clus scale="   99.244">  1  5  2 -1</clus>
<clus scale="   37.786">  2  5  1 -1</clus>
</clustering>
</event>
<event>
 9    1  0.1973774E-005  0.1297982E+03  0.7546771E-02  0.1228870E+00
         -2   -1    0    0    0  501 -0.00000000000E+00  0.00000000000E+00  0.54330189161E+02  0.54330189161E+02  0.00000000000E+00 0.  1.
          1   -1    0    0  502    0  0.00000000000E+00 -0.00000000000E+00 -0.59777450560E+03  0.59777450560E+03  0.00000000000E+00 0. -1.
         23    2    1    2    0    0  0.92487692597E+02  0.55204889354E+02 -0.63237659818E+02  0.15048607998E+03  0.83937509839E+02 0.  0.
        -24    2    1    2    0    0 -0.59603825048E+02 -0.40710517495E+02 -0.32196713013E+03  0.33934975361E+03  0.79280894287E+02 0.  0.
         13    1    4    4    0    0 -0.38733876828E+02 -0.59913983584E+02 -0.27815946964E+03  0.28716317520E+03  0.00000000000E+00 0. -1.
        -14    1    4    4    0    0 -0.20869948220E+02  0.19203466090E+02 -0.43807660492E+02  0.52186578412E+02  0.00000000000E+00 0.  1.
        -13    1    3    3    0    0 -0.30300941776E+01  0.23707774973E+02  0.10164926083E+02  0.25972404339E+02  0.00000000000E+00 0.  1.
         13    1    3    3    0    0  0.95517786774E+02  0.31497114381E+02 -0.73402585901E+02  0.12451367564E+03  0.00000000000E+00 0. -1.
         21    1    1    2  502  501 -0.32883867549E+02 -0.14494371859E+02 -0.15823952650E+03  0.16226886117E+03  0.00000000000E+00 0. -1.
<scales pt_clust_5="13000.00000" pt_clust_6="13000.00000" pt_clust_7="13000.00000" pt_clust_8="13000.00000" pt_clust_9="35.93655"></scales>
<clustering>
<clus scale="   35.937">  2  9  1 -1</clus>
<clus scale="   79.281">  5  6 -1 -1</clus>
<clus scale="   83.938">  7  8 -1 -1</clus>
<clus scale="  126.837">  2  5  1 -1</clus>
<clus scale="   35.937">  2  5  1 -1</clus>
</clustering>
</event>
<event>
 9    1  0.1973774E-005  0.2496225E+03  0.7546771E-02  0.1115031E+00
         -4   -1    0    0    0  501 -0.00000000000E+00  0.00000000000E+00  0.90813511444E+03  0.90813511444E+03  0.00000000000E+00 0.  1.
          3   -1    0    0  502    0  0.00000000000E+00 -0.00000000000E+00 -0.10888810103E+03  0.10888810103E+03  0.00000000000E+00 0. -1.
         23    2    1    2    0    0  0.12898828390E+03 -0.20027959675E+03  0.54404268981E+03  0.60252764890E+03  0.10152450489E+03 0.  0.
        -24    2    1    2    0    0 -0.13781321820E+03  0.16521632011E+03  0.28677116563E+03  0.36649787548E+03  0.76118826549E+02 0.  0.
         11    1    4    4    0    0 -0.87124891246E+02  0.69175566932E+02  0.19416936748E+03  0.22378058227E+03  0.00000000000E+00 0. -1.
        -12    1    4    4    0    0 -0.50688326951E+02  0.96040753178E+02  0.92601798151E+02  0.14271729321E+03  0.00000000000E+00 0.  1.
        -13    1    3    3    0    0  0.12088145040E+02 -0.37893218279E+02  0.20519462767E+03  0.20901400543E+03  0.00000000000E+00 0.  1.
         13    1    3    3    0    0  0.11690013886E+03 -0.16238637848E+03  0.33884806214E+03  0.39351364347E+03  0.00000000000E+00 0. -1.
         21    1    1    2  502  501  0.88249342974E+01  0.35063276645E+02 -0.31566842030E+02  0.47997691092E+02  0.00000000000E+00 0. -1.
<scales pt_clust_5="13000.00000" pt_clust_6="13000.00000" pt_clust_7="13000.00000" pt_clust_8="13000.00000" pt_clust_9="36.15678"></scales>
<clustering>
<clus scale="   36.157">  2  9  1 -1</clus>
<clus scale="   76.119">  5  6 -1 -1</clus>
<clus scale="  101.525">  7  8 -1 -1</clus>
<clus scale="  240.413">  2  5  1 -1</clus>
<clus scale="   36.157">  2  5  1 -1</clus>
</clustering>
</event>
<event>
 9    1  0.1973774E-005  0.9185036E+02  0.7546771E-02  0.1304747E+00
          1   -1    0    0  502    0  0.00000000000E+00  0.00000000000E+00  0.23391851102E+03  0.23391851102E+03  0.00000000000E+00 0. -1.
         -2   -1    0    0    0  501 -0.00000000000E+00 -0.00000000000E+00 -0.15178379262E+03  0.15178379262E+03  0.00000000000E+00 0.  1.
        -24    2    1    2    0    0  0.87428419404E+01  0.78746346733E+01 -0.11865117975E+03  0.14398359867E+03  0.80713859247E+02 0.  0.
         23    2    1    2    0    0 -0.30827400095E+01 -0.41461809868E+02  0.15897965591E+03  0.18779378511E+03  0.90903188990E+02 0.  0.
         11    1    3    3    0    0  0.41706914268E+02 -0.63522259835E+01 -0.84432386301E+02  0.94385620352E+02  0.00000000000E+00 0. -1.
        -12    1    3    3    0    0 -0.32964072327E+02  0.14226860657E+02 -0.34218793447E+02  0.49597978321E+02  0.00000000000E+00 0.  1.
        -11    1    4    4    0    0  0.34353864578E+02 -0.42856045025E+02  0.57028219197E+02  0.79177309827E+02  0.00000000000E+00 0.  1.
         11    1    4    4    0    0 -0.37436604588E+02  0.13942351568E+01  0.10195143671E+03  0.10861647528E+03  0.00000000000E+00 0. -1.
         21    1    1    2  502  501 -0.56601019309E+01  0.33587175195E+02  0.41806242239E+02  0.53924919857E+02  0.00000000000E+00 0.  1.
<scales pt_clust_5="13000.00000" pt_clust_6="13000.00000" pt_clust_7="13000.00000" pt_clust_8="13000.00000" pt_clust_9="34.06076"></scales>
<clustering>
<clus scale="   34.061">  1  9  2 -1</clus>
<clus scale="   80.714">  5  6 -1 -1</clus>
<clus scale="   81.779">  2  5  1 -1</clus>
<clus scale="   90.903">  7  8 -1 -1</clus>
<clus scale="   34.061">  1  5  2 -1</clus>
</clustering>
</event>
<event>
 9    1  0.1973774E-005  0.1317626E+03  0.7546771E-02  0.1239386E+00
          1   -1    0    0  502    0  0.00000000000E+00  0.00000000000E+00  0.23389313551E+03  0.23389313551E+03  0.00000000000E+00 0. -1.
         -2   -1    0    0    0  501 -0.00000000000E+00 -0.00000000000E+00 -0.24186527366E+03  0.24186527366E+03  0.00000000000E+00 0.  1.
        -24    2    1    2    0    0  0.78104199189E+02  0.94230760578E+01 -0.14132772629E+03  0.17870967959E+03  0.75990545914E+02 0.  0.
         23    2    1    2    0    0 -0.31381444503E+02  0.57408932766E+02  0.16253862769E+03  0.21043935937E+03  0.11655615755E+03 0.  0.
         11    1    3    3    0    0  0.56952456207E+02  0.41627944298E+02 -0.97659171927E+02  0.12047315832E+03  0.00000000000E+00 0. -1.
        -12    1    3    3    0    0  0.21151742982E+02 -0.32204868240E+02 -0.43668554366E+02  0.58236521273E+02  0.00000000000E+00 0.  1.
        -11    1    4    4    0    0 -0.11801167864E+02  0.75204916001E+02  0.16706925815E+03  0.18359516326E+03  0.00000000000E+00 0. -1.
         11    1    4    4    0    0 -0.19580276640E+02 -0.17795983235E+02 -0.45306304613E+01  0.26844196113E+02  0.00000000000E+00 0.  1.
         21    1    1    2  502  501 -0.46722754685E+02 -0.66832008824E+02 -0.29183039556E+02  0.86609370200E+02  0.00000000000E+00 0.  1.
<scales pt_clust_5="13000.00000" pt_clust_6="13000.00000" pt_clust_7="13000.00000" pt_clust_8="13000.00000" pt_clust_9="81.54467"></scales>
<clustering>
<clus scale="   75.991">  5  6 -1 -1</clus>
<clus scale="   81.545">  2  9  1 -1</clus>
<clus scale="   97.727">  2  5  1 -1</clus>
<clus scale="  116.556">  7  8 -1 -1</clus>
<clus scale="  131.763">  1  5  2 -1</clus>
</clustering>
</event>
<event>
 9    1  0.1973774E-005  0.2166096E+03  0.7546771E-02  0.1137501E+00
         -2   -1    0    0    0  501 -0.00000000000E+00  0.00000000000E+00  0.15491651397E+03  0.15491651397E+03  0.00000000000E+00 0.  1.
          1   -1    0    0  502    0  0.00000000000E+00 -0.00000000000E+00 -0.37471147004E+03  0.37471147004E+03  0.00000000000E+00 0. -1.
         23    2    1    2    0    0 -0.12711302119E+01  0.19844805365E+03 -0.29938088778E+02  0.22064575584E+03  0.91678866926E+02 0.  0.
        -24    2    1    2    0    0 -0.31869377734E+02 -0.19175398513E+03 -0.15554286660E+03  0.26081009448E+03  0.77737211066E+02 0.  0.
         11    1    4    4    0    0  0.63042671752E+01 -0.45421970522E+02 -0.78923851579E+02  0.91279096943E+02  0.00000000000E+00 0. -1.
        -12    1    4    4    0    0 -0.38173644909E+02 -0.14633201460E+03 -0.76619015026E+02  0.16953099754E+03  0.00000000000E+00 0.  1.
        -13    1    3    3    0    0 -0.18266188929E+02  0.57230661337E+02  0.28967597925E+02  0.66694257509E+02  0.00000000000E+00 0.  1.
         13    1    3    3    0    0  0.16995058717E+02  0.14121739231E+03 -0.58905686703E+02  0.15395149833E+03  0.00000000000E+00 0. -1.
         21    1    1    2  502  501  0.33140507945E+02 -0.66940685200E+01 -0.34314000697E+02  0.48172133688E+02  0.00000000000E+00 0. -1.
<scales pt_clust_5="13000.00000" pt_clust_6="13000.00000" pt_clust_7="13000.00000" pt_clust_8="13000.00000" pt_clust_9="33.80982"></scales>
<clustering>
<clus scale="   33.810">  2  9  1 -1</clus>
<clus scale="   77.737">  5  6 -1 -1</clus>
<clus scale="   91.679">  7  8 -1 -1</clus>
<clus scale="  211.087">  2  5  1 -1</clus>
<clus scale="   33.810">  2  5  1 -1</clus>
</clustering>
</event>
<event>
 9    1  0.1973774E-005  0.1327728E+03  0.7546771E-02  0.1226754E+00
          1   -1    0    0  502    0  0.00000000000E+00  0.00000000000E+00  0.11694287364E+03  0.11694287364E+03  0.00000000000E+00 0. -1.
         -2   -1    0    0    0  501 -0.00000000000E+00 -0.00000000000E+00 -0.20174000432E+03  0.20174000432E+03  0.00000000000E+00 0.  1.
        -24    2    1    2    0    0 -0.97119041320E+02  0.21647546948E+02 -0.10559041633E+03  0.16402733022E+03  0.76517348102E+02 0.  0.
         23    2    1    2    0    0  0.84228268428E+02 -0.40842969206E+02  0.19295696666E+02  0.13148489747E+03  0.90296207095E+02 0.  0.
         11    1    3    3    0    0 -0.85516156216E+02  0.25046945870E+02 -0.40600337260E+02  0.97922162236E+02  0.00000000000E+00 0. -1.
        -12    1    3    3    0    0 -0.11602885104E+02 -0.33993989228E+01 -0.64990079072E+02  0.66105167979E+02  0.00000000000E+00 0.  1.
        -13    1    4    4    0    0  0.89518532104E+02 -0.17317898262E+01  0.56054638210E+01  0.89710578589E+02  0.00000000000E+00 0. -1.
         13    1    4    4    0    0 -0.52902636762E+01 -0.39111179380E+02  0.13690232845E+02  0.41774318876E+02  0.00000000000E+00 0.  1.
         21    1    1    2  502  501  0.12890772892E+02  0.19195422258E+02  0.14975889828E+01  0.23170650275E+02  0.00000000000E+00 0. -1.
<scales pt_clust_5="13000.00000" pt_clust_6="13000.00000" pt_clust_7="13000.00000" pt_clust_8="13000.00000" pt_clust_9="23.12220"></scales>
<clustering>
<clus scale="   23.122">  1  9  2 -1</clus>
<clus scale="   76.517">  5  6 -1 -1</clus>
<clus scale="   90.296">  7  8 -1 -1</clus>
<clus scale="  123.815">  2  5  1 -1</clus>
<clus scale="   23.122">  1  5  2 -1</clus>
</clustering>
</event>
<event>
 9    1  0.1973774E-005  0.5224720E+03  0.7546771E-02  0.1008182E+00
         -2   -1    0    0    0  501 -0.00000000000E+00  0.00000000000E+00  0.32836573527E+03  0.32836573527E+03  0.00000000000E+00 0.  1.
          1   -1    0    0  502    0  0.00000000000E+00 -0.00000000000E+00 -0.17306059432E+04  0.17306059432E+04  0.00000000000E+00 0. -1.
        -24    2    1    2    0    0 -0.51079801308E+03 -0.18936937982E+02  0.46190956789E+01  0.51758163869E+03  0.81216986369E+02 0.  0.
         23    2    1    2    0    0  0.52974968617E+03 -0.41900814832E+02 -0.10661213899E+04  0.11947450861E+04  0.91709293015E+02 0.  0.
         13    1    3    3    0    0 -0.14678540266E+03  0.25155866708E+02 -0.19082838717E+02  0.15014302114E+03  0.00000000000E+00 0. -1.
        -14    1    3    3    0    0 -0.36401261042E+03 -0.44092804690E+02  0.23701934396E+02  0.36743861755E+03  0.00000000000E+00 0.  1.
        -11    1    4    4    0    0  0.49288224592E+03 -0.58275923229E+02 -0.95031451583E+03  0.10721131799E+04  0.00000000000E+00 0.  1.
         11    1    4    4    0    0  0.36867440256E+02  0.16375108396E+02 -0.11580687404E+03  0.12263190613E+03  0.00000000000E+00 0. -1.
         21    1    1    2  502  501 -0.18951673093E+02  0.60837752814E+02 -0.34073791371E+03  0.34664495369E+03  0.00000000000E+00 0. -1.
<scales pt_clust_5="13000.00000" pt_clust_6="13000.00000" pt_clust_7="13000.00000" pt_clust_8="13000.00000" pt_clust_9="63.72125"></scales>
<clustering>
<clus scale="   63.721">  2  9  1 -1</clus>
<clus scale="   81.217">  5  6 -1 -1</clus>
<clus scale="   91.709">  7  8 -1 -1</clus>
<clus scale="  520.733">  1  5  2 -1</clus>
<clus scale="   63.721">  2  5  1 -1</clus>
</clustering>
</event>
<event>
 9    1  0.1973774E-005  0.1231850E+03  0.7546771E-02  0.1241043E+00
          1   -1    0    0  502    0  0.00000000000E+00  0.00000000000E+00  0.71170498281E+02  0.71170498281E+02  0.00000000000E+00 0. -1.
         -2   -1    0    0    0  501 -0.00000000000E+00 -0.00000000000E+00 -0.44625935169E+03  0.44625935169E+03  0.00000000000E+00 0.  1.
        -24    2    1    2    0    0 -0.77248114631E+02 -0.40379144979E+02 -0.35801135864E+03  0.37717932807E+03  0.80587629603E+02 0.  0.
         23    2    1    2    0    0  0.55670812306E+02  0.31083897911E+02 -0.27523643217E+02  0.11453858672E+03  0.91082868097E+02 0.  0.
         13    1    3    3    0    0 -0.38729146450E+02 -0.62507611244E+02 -0.20204734188E+03  0.21501227083E+03  0.00000000000E+00 0. -1.
        -14    1    3    3    0    0 -0.38518968181E+02  0.22128466265E+02 -0.15596401676E+03  0.16216705724E+03  0.00000000000E+00 0.  1.
        -11    1    4    4    0    0 -0.91127298125E+01  0.42489029441E+02 -0.21501305590E+02  0.48483663326E+02  0.00000000000E+00 0.  1.
         11    1    4    4    0    0  0.64783542118E+02 -0.11405131530E+02 -0.60223376272E+01  0.66054923398E+02  0.00000000000E+00 0. -1.
         21    1    1    2  502  501  0.21577302326E+02  0.92952470683E+01  0.10446148439E+02  0.25711935184E+02  0.00000000000E+00 0. -1.
<scales pt_clust_5="13000.00000" pt_clust_6="13000.00000" pt_clust_7="13000.00000" pt_clust_8="13000.00000" pt_clust_9="23.49429"></scales>
<clustering>
<clus scale="   23.494">  1  9  2 -1</clus>
<clus scale="   80.588">  5  6 -1 -1</clus>
<clus scale="   91.083">  7  8 -1 -1</clus>
<clus scale="  115.641">  2  5  1 -1</clus>
<clus scale="   23.494">  1  5  2 -1</clus>
</clustering>
</event>
<event>
 9    1  0.1973774E-005  0.1011461E+03  0.7546771E-02  0.1288083E+00
         -2   -1    0    0    0  501 -0.00000000000E+00  0.00000000000E+00  0.10767242335E+03  0.10767242335E+03  0.00000000000E+00 0.  1.
          1   -1    0    0  502    0  0.00000000000E+00 -0.00000000000E+00 -0.26945324405E+03  0.26945324405E+03  0.00000000000E+00 0. -1.
        -24    2    1    2    0    0 -0.32525714837E+02 -0.27806857835E+02  0.62391827219E+02  0.10354516215E+03  0.70694533262E+02 0.  0.
         23    2    1    2    0    0  0.20755589721E+02  0.56240475991E+02 -0.10796007328E+03  0.15336249916E+03  0.90944450518E+02 0.  0.
         11    1    3    3    0    0 -0.35337867981E+02 -0.29007381095E+02  0.49093986967E+01  0.45981466560E+02  0.00000000000E+00 0. -1.
        -12    1    3    3    0    0  0.28121531443E+01  0.12005232605E+01  0.57482428522E+02  0.57563695592E+02  0.00000000000E+00 0.  1.
        -13    1    4    4    0    0  0.25095320944E+02  0.27143498382E+00  0.64585585735E+01  0.25914509238E+02  0.00000000000E+00 0.  1.
         13    1    4    4    0    0 -0.43397312224E+01  0.55969041007E+02 -0.11441863186E+03  0.12744798992E+03  0.00000000000E+00 0. -1.
         21    1    1    2  502  501  0.11770125115E+02 -0.28433618156E+02 -0.11621257463E+03  0.12021800610E+03  0.00000000000E+00 0. -1.
<scales pt_clust_5="13000.00000" pt_clust_6="13000.00000" pt_clust_7="13000.00000" pt_clust_8="13000.00000" pt_clust_9="30.77347"></scales>
<clustering>
<clus scale="   30.773">  2  9  1 -1</clus>
<clus scale="   70.695">  5  6 -1 -1</clus>
<clus scale="   83.411">  1  5  2 -1</clus>
<clus scale="   90.944">  7  8 -1 -1</clus>
<clus scale="   30.773">  2  5  1 -1</clus>
</clustering>
</event>
<event>
 9    1  0.1973774E-005  0.9618498E+02  0.7546771E-02  0.1294512E+00
          3   -1    0    0  502    0  0.00000000000E+00  0.00000000000E+00  0.21244352459E+03  0.21244352459E+03  0.00000000000E+00 0. -1.
         -4   -1    0    0    0  501 -0.00000000000E+00 -0.00000000000E+00 -0.16632320051E+03  0.16632320051E+03  0.00000000000E+00 0.  1.
         23    2    1    2    0    0  0.31638574695E+02 -0.20807965055E+02 -0.12954947395E+03  0.16068208031E+03  0.87187693595E+02 0.  0.
        -24    2    1    2    0    0 -0.53592098991E+02  0.36912585116E+02  0.12028731472E+03  0.15637131175E+03  0.75817524644E+02 0.  0.
         11    1    4    4    0    0 -0.51319601988E+02 -0.97860219006E+01  0.52868458148E+02  0.74327260408E+02  0.00000000000E+00 0. -1.
        -12    1    4    4    0    0 -0.22724970034E+01  0.46698607016E+02  0.67418856572E+02  0.82044051347E+02  0.00000000000E+00 0.  1.
        -11    1    3    3    0    0  0.41969175879E+01  0.33633223846E+02 -0.41424633170E+02  0.53523902107E+02  0.00000000000E+00 0. -1.
         11    1    3    3    0    0  0.27441657108E+02 -0.54441188901E+02 -0.88124840776E+02  0.10715817820E+03  0.00000000000E+00 0.  1.
         21    1    1    2  502  501  0.21953524296E+02 -0.16104620060E+02  0.55382483309E+02  0.61713333031E+02  0.00000000000E+00 0.  1.
<scales pt_clust_5="13000.00000" pt_clust_6="13000.00000" pt_clust_7="13000.00000" pt_clust_8="13000.00000" pt_clust_9="27.22712"></scales>
<clustering>
<clus scale="   27.227">  1  9  2 -1</clus>
<clus scale="   75.818">  5  6 -1 -1</clus>
<clus scale="   86.013">  1  5  2 -1</clus>
<clus scale="   87.188">  7  8 -1 -1</clus>
<clus scale="   27.227">  1  5  2 -1</clus>
</clustering>
</event>
<event>
 9    1  0.1973774E-005  0.9769826E+02  0.7546771E-02  0.1293170E+00
         -2   -1    0    0    0  501 -0.00000000000E+00  0.00000000000E+00  0.32590159968E+02  0.32590159968E+02  0.00000000000E+00 0.  1.
          1   -1    0    0  502    0  0.00000000000E+00 -0.00000000000E+00 -0.42066865623E+03  0.42066865623E+03  0.00000000000E+00 0. -1.
        -24    2    1    2    0    0 -0.19820635870E+01 -0.35079558488E+02 -0.66964517843E+02  0.10953944936E+03  0.79247336329E+02 0.  0.
         23    2    1    2    0    0 -0.52391642241E+01  0.10910777853E+02 -0.21709745415E+03  0.23668800037E+03  0.93506208374E+02 0.  0.
         11    1    3    3    0    0  0.52222630181E+00  0.20192151034E+02 -0.46236020497E+02  0.50455577244E+02  0.00000000000E+00 0. -1.
        -12    1    3    3    0    0 -0.25042898888E+01 -0.55271709522E+02 -0.20728497347E+02  0.59083872111E+02  0.00000000000E+00 0.  1.
        -13    1    4    4    0    0 -0.46528772944E+02 -0.10199108032E+02 -0.11910462111E+03  0.12827649546E+03  0.00000000000E+00 0.  1.
         13    1    4    4    0    0  0.41289608720E+02  0.21109885885E+02 -0.97992833036E+02  0.10841150491E+03  0.00000000000E+00 0. -1.
         21    1    1    2  502  501  0.72212278111E+01  0.24168780635E+02 -0.10401652427E+03  0.10703136647E+03  0.00000000000E+00 0. -1.
<scales pt_clust_5="13000.00000" pt_clust_6="13000.00000" pt_clust_7="13000.00000" pt_clust_8="13000.00000" pt_clust_9="25.22451"></scales>
<clustering>
<clus scale="   25.225">  2  9  1 -1</clus>
<clus scale="   79.247">  5  6 -1 -1</clus>
<clus scale="   84.153">  1  5  2 -1</clus>
<clus scale="   93.506">  7  8 -1 -1</clus>
<clus scale="   25.225">  2  5  1 -1</clus>
</clustering>
</event>
<event>
 9    1  0.1973774E-005  0.9981809E+02  0.7546771E-02  0.1285494E+00
         -2   -1    0    0    0  501 -0.00000000000E+00  0.00000000000E+00  0.92210287273E+02  0.92210287273E+02  0.00000000000E+00 0.  1.
          1   -1    0    0  502    0  0.00000000000E+00 -0.00000000000E+00 -0.55211154506E+03  0.55211154506E+03  0.00000000000E+00 0. -1.
         23    2    1    2    0    0 -0.21792372663E+02  0.39077205492E+02  0.56577325842E+02  0.11462403103E+03  0.89082765975E+02 0.  0.
        -24    2    1    2    0    0  0.42660211848E+02 -0.32333513579E+02 -0.42683272852E+03  0.43740845505E+03  0.79212553579E+02 0.  0.
         11    1    4    4    0    0  0.34530939423E+02 -0.57895593957E+02 -0.26934186177E+03  0.27764964267E+03  0.00000000000E+00 0. -1.
        -12    1    4    4    0    0  0.81292724246E+01  0.25562080378E+02 -0.15749086675E+03  0.15975881238E+03  0.00000000000E+00 0.  1.
        -13    1    3    3    0    0  0.33859521319E+02  0.12791411003E+02  0.10338064494E+02  0.37642568415E+02  0.00000000000E+00 0. -1.
         13    1    3    3    0    0 -0.55651893982E+02  0.26285794489E+02  0.46239261348E+02  0.76981462611E+02  0.00000000000E+00 0.  1.
         21    1    1    2  502  501 -0.20867839185E+02 -0.67436919132E+01 -0.89645855114E+02  0.92289346254E+02  0.00000000000E+00 0. -1.
<scales pt_clust_5="13000.00000" pt_clust_6="13000.00000" pt_clust_7="13000.00000" pt_clust_8="13000.00000" pt_clust_9="21.93044"></scales>
<clustering>
<clus scale="   21.930">  2  9  1 -1</clus>
<clus scale="   79.213">  5  6 -1 -1</clus>
<clus scale="   89.083">  7  8 -1 -1</clus>
<clus scale="   91.118">  2  5  1 -1</clus>
<clus scale="   21.930">  2  5  1 -1</clus>
</clustering>
</event>
<event>
 9    1  0.1973774E-005  0.9676400E+02  0.7546771E-02  0.1297362E+00
         -2   -1    0    0    0  501 -0.00000000000E+00  0.00000000000E+00  0.56978174161E+03  0.56978174161E+03  0.00000000000E+00 0.  1.
          1   -1    0    0  502    0  0.00000000000E+00 -0.00000000000E+00 -0.27872918749E+02  0.27872918749E+02  0.00000000000E+00 0. -1.
        -24    2    1    2    0    0 -0.22676025257E+01 -0.13917677725E+02  0.29094529206E+03  0.30210472530E+03  0.80120273986E+02 0.  0.
         23    2    1    2    0    0 -0.25275516370E+01 -0.37778110529E+02  0.15886857288E+03  0.18982893761E+03  0.96758606611E+02 0.  0.
         13    1    3    3    0    0  0.21900738894E+02  0.25936118352E+02  0.10222183252E+03  0.10771085202E+03  0.00000000000E+00 0. -1.
        -14    1    3    3    0    0 -0.24168341420E+02 -0.39853796076E+02  0.18872345953E+03  0.19439387328E+03  0.00000000000E+00 0.  1.
        -11    1    4    4    0    0 -0.46478149295E+02 -0.22723504206E+02  0.11423841142E+03  0.12540729903E+03  0.00000000000E+00 0.  1.
         11    1    4    4    0    0  0.43950597658E+02 -0.15054606323E+02  0.44630161458E+02  0.64421638583E+02  0.00000000000E+00 0. -1.
         21    1    1    2  502  501  0.47951541628E+01  0.51695788253E+02  0.92094957920E+02  0.10572099745E+03  0.00000000000E+00 0. -1.
<scales pt_clust_5="13000.00000" pt_clust_6="13000.00000" pt_clust_7="13000.00000" pt_clust_8="13000.00000" pt_clust_9="51.91770"></scales>
<clustering>
<clus scale="   51.918">  2  9  1 -1</clus>
<clus scale="   80.120">  5  6 -1 -1</clus>
<clus scale="   80.127">  1  5  2 -1</clus>
<clus scale="   96.759">  7  8 -1 -1</clus>
<clus scale="   51.918">  2  5  1 -1</clus>
</clustering>
</event>
<event>
 9    1  0.1973774E-005  0.1011943E+03  0.7546771E-02  0.1281935E+00
          1   -1    0    0  502    0  0.00000000000E+00  0.00000000000E+00  0.14190223796E+03  0.14190223796E+03  0.00000000000E+00 0. -1.
         -2   -1    0    0    0  501 -0.00000000000E+00 -0.00000000000E+00 -0.13676627270E+03  0.13676627270E+03  0.00000000000E+00 0.  1.
         23    2    1    2    0    0  0.20383132725E+02  0.40260351030E+01 -0.57311924002E+02  0.10780144215E+03  0.88909016632E+02 0.  0.
        -24    2    1    2    0    0 -0.29671756880E+02 -0.50777266676E+02  0.71413523473E+02  0.12236615317E+03  0.80092697163E+02 0.  0.
         13    1    4    4    0    0 -0.12866187243E+02  0.17207891639E+02 -0.11546018435E+01  0.21517049385E+02  0.00000000000E+00 0. -1.
        -14    1    4    4    0    0 -0.16805569637E+02 -0.67985158314E+02  0.72568125317E+02  0.10084910378E+03  0.00000000000E+00 0.  1.
        -13    1    3    3    0    0  0.18447057280E+02 -0.38495742078E+02 -0.47987481503E+02  0.64226275476E+02  0.00000000000E+00 0.  1.
         13    1    3    3    0    0  0.19360754454E+01  0.42521777181E+02 -0.93244424987E+01  0.43575166674E+02  0.00000000000E+00 0. -1.
         21    1    1    2  502  501  0.92886241549E+01  0.46751231573E+02 -0.89656342094E+01  0.48500915342E+02  0.00000000000E+00 0. -1.
<scales pt_clust_5="13000.00000" pt_clust_6="13000.00000" pt_clust_7="13000.00000" pt_clust_8="13000.00000" pt_clust_9="47.66504"></scales>
<clustering>
<clus scale="   47.665">  2  9  1 -1</clus>
<clus scale="   80.093">  5  6 -1 -1</clus>
<clus scale="   88.909">  7  8 -1 -1</clus>
<clus scale="   93.543">  1  5  2 -1</clus>
<clus scale="   93.543">  1  5  2 -1</clus>
</clustering>
</event>
<event>
 9    1  0.1973774E-005  0.2407248E+03  0.7546771E-02  0.1120234E+00
         -4   -1    0    0    0  501 -0.00000000000E+00  0.00000000000E+00  0.34552546626E+03  0.34552546626E+03  0.00000000000E+00 0.  1.
          3   -1    0    0  502    0  0.00000000000E+00 -0.00000000000E+00 -0.35624724024E+03  0.35624724024E+03  0.00000000000E+00 0. -1.
         23    2    1    2    0    0 -0.65727916978E+02 -0.20627333047E+03  0.22027844131E+03  0.32269736725E+03  0.93499482302E+02 0.  0.
        -24    2    1    2    0    0  0.68195445755E+02  0.23699817083E+03 -0.16676152806E+03  0.30782427994E+03  0.78279168895E+02 0.  0.
         11    1    4    4    0    0  0.26687320796E+02  0.12320656301E+03 -0.13036576329E+03  0.18134856630E+03  0.00000000000E+00 0. -1.
        -12    1    4    4    0    0  0.41508124958E+02  0.11379160783E+03 -0.36395764762E+02  0.12647571364E+03  0.00000000000E+00 0.  1.
        -11    1    3    3    0    0 -0.31207211310E+02 -0.23910652559E+02  0.83013091523E+02  0.91851960827E+02  0.00000000000E+00 0. -1.
         11    1    3    3    0    0 -0.34520705668E+02 -0.18236267791E+03  0.13726534979E+03  0.23084540642E+03  0.00000000000E+00 0.  1.
         21    1    1    2  502  501 -0.24675287766E+01 -0.30724840363E+02 -0.64238687241E+02  0.71251059304E+02  0.00000000000E+00 0. -1.
<scales pt_clust_5="13000.00000" pt_clust_6="13000.00000" pt_clust_7="13000.00000" pt_clust_8="13000.00000" pt_clust_9="30.82377"></scales>
<clustering>
<clus scale="   30.824">  2  9  1 -1</clus>
<clus scale="   78.279">  5  6 -1 -1</clus>
<clus scale="   93.499">  7  8 -1 -1</clus>
<clus scale="  235.232">  2  5  1 -1</clus>
<clus scale="   30.824">  2  5  1 -1</clus>
</clustering>
</event>
<event>
 9    1  0.1973774E-005  0.9531016E+02  0.7546771E-02  0.1297713E+00
         -2   -1    0    0    0  501 -0.00000000000E+00  0.00000000000E+00  0.14983109406E+03  0.14983109406E+03  0.00000000000E+00 0.  1.
          1   -1    0    0  502    0  0.00000000000E+00 -0.00000000000E+00 -0.20173991252E+03  0.20173991252E+03  0.00000000000E+00 0. -1.
         23    2    1    2    0    0 -0.21556421275E+02  0.49041044726E+01  0.11508656710E+03  0.14967687070E+03  0.93110247321E+02 0.  0.
        -24    2    1    2    0    0 -0.88351100250E+00 -0.21786877027E+02 -0.13901224772E+03  0.16225028927E+03  0.80779346066E+02 0.  0.
         11    1    4    4    0    0 -0.39289775953E+01 -0.43669017865E+02 -0.35524574591E+02  0.56430624541E+02  0.00000000000E+00 0. -1.
        -12    1    4    4    0    0  0.30454665928E+01  0.21882140838E+02 -0.10348767313E+03  0.10581966473E+03  0.00000000000E+00 0.  1.
        -11    1    3    3    0    0 -0.24897495488E+02  0.46628608657E+02  0.53471461111E+02  0.75188493669E+02  0.00000000000E+00 0.  1.
         11    1    3    3    0    0  0.33410742125E+01 -0.41724504184E+02  0.61615105994E+02  0.74488377032E+02  0.00000000000E+00 0. -1.
         21    1    1    2  502  501  0.22439932278E+02  0.16882772554E+02 -0.27983137850E+02  0.39643846606E+02  0.00000000000E+00 0. -1.
<scales pt_clust_5="13000.00000" pt_clust_6="13000.00000" pt_clust_7="13000.00000" pt_clust_8="13000.00000" pt_clust_9="28.08164"></scales>
<clustering>
<clus scale="   28.082">  2  9  1 -1</clus>
<clus scale="   80.779">  5  6 -1 -1</clus>
<clus scale="   83.306">  2  5  1 -1</clus>
<clus scale="   93.110">  7  8 -1 -1</clus>
<clus scale="   28.082">  2  5  1 -1</clus>
</clustering>
</event>
<event>
 9    1  0.1973774E-005  0.2138131E+03  0.7546771E-02  0.1139124E+00
          1   -1    0    0  502    0  0.00000000000E+00  0.00000000000E+00  0.84371834884E+03  0.84371834884E+03  0.00000000000E+00 0. -1.
         -2   -1    0    0    0  501 -0.00000000000E+00 -0.00000000000E+00 -0.73846978508E+02  0.73846978508E+02  0.00000000000E+00 0.  1.
        -24    2    1    2    0    0  0.11289980802E+03 -0.17372815431E+03  0.23867038852E+03  0.32584543737E+03  0.79270779284E+02 0.  0.
         23    2    1    2    0    0 -0.13375302038E+03  0.12456332035E+03  0.36630515306E+03  0.41839167040E+03  0.86407369239E+02 0.  0.
         11    1    3    3    0    0  0.92587388764E+02 -0.71821934651E+02  0.13978920260E+03  0.18240569075E+03  0.00000000000E+00 0. -1.
        -12    1    3    3    0    0  0.20312419256E+02 -0.10190621966E+03  0.98881185921E+02  0.14343974662E+03  0.00000000000E+00 0.  1.
        -13    1    4    4    0    0 -0.32268573928E+02  0.82020459796E+02  0.12260017747E+03  0.15099476880E+03  0.00000000000E+00 0.  1.
         13    1    4    4    0    0 -0.10148444645E+03  0.42542860552E+02  0.24370497559E+03  0.26739690159E+03  0.00000000000E+00 0. -1.
         21    1    1    2  502  501  0.20853212356E+02  0.49164833963E+02  0.16489582875E+03  0.17332821958E+03  0.00000000000E+00 0.  1.
<scales pt_clust_5="13000.00000" pt_clust_6="13000.00000" pt_clust_7="13000.00000" pt_clust_8="13000.00000" pt_clust_9="53.40447"></scales>
<clustering>
<clus scale="   53.404">  1  9  2 -1</clus>
<clus scale="   79.271">  5  6 -1 -1</clus>
<clus scale="   86.407">  7  8 -1 -1</clus>
<clus scale="  211.030">  2  5  1 -1</clus>
<clus scale="   53.404">  1  5  2 -1</clus>
</clustering>
</event>
<event>
 9    1  0.1973774E-005  0.2212442E+03  0.7546771E-02  0.1133740E+00
          3   -1    0    0  502    0  0.00000000000E+00  0.00000000000E+00  0.14648366382E+04  0.14648366382E+04  0.00000000000E+00 0. -1.
         -4   -1    0    0    0  501 -0.00000000000E+00 -0.00000000000E+00 -0.91042995420E+02  0.91042995420E+02  0.00000000000E+00 0.  1.
        -24    2    1    2    0    0 -0.19833335855E+03 -0.20502877772E+02  0.74069337610E+02  0.22750024359E+03  0.80706907691E+02 0.  0.
         23    2    1    2    0    0  0.21804895797E+03 -0.74910893356E+01  0.10495356680E+04  0.10758586558E+04  0.91352418275E+02 0.  0.
         13    1    3    3    0    0 -0.10314922399E+03  0.10893263212E+02  0.14568153138E+01  0.10373306080E+03  0.00000000000E+00 0. -1.
        -14    1    3    3    0    0 -0.95184134566E+02 -0.31396140984E+02  0.72612522296E+02  0.12376718279E+03  0.00000000000E+00 0.  1.
        -13    1    4    4    0    0  0.11235061778E+03 -0.49510312685E+02  0.54984917469E+03  0.56338978273E+03  0.00000000000E+00 0. -1.
         13    1    4    4    0    0  0.10569834020E+03  0.42019223350E+02  0.49968649331E+03  0.51246887305E+03  0.00000000000E+00 0.  1.
         21    1    1    2  502  501 -0.19715599421E+02  0.27993967108E+02  0.25018863721E+03  0.25252073429E+03  0.00000000000E+00 0. -1.
<scales pt_clust_5="13000.00000" pt_clust_6="13000.00000" pt_clust_7="13000.00000" pt_clust_8="13000.00000" pt_clust_9="34.23985"></scales>
<clustering>
<clus scale="   34.240">  1  9  2 -1</clus>
<clus scale="   80.707">  5  6 -1 -1</clus>
<clus scale="   91.352">  7  8 -1 -1</clus>
<clus scale="  217.065">  2  5  1 -1</clus>
<clus scale="   34.240">  1  5  2 -1</clus>
</clustering>
</event>
<event>
 9    1  0.3372285E-005  0.1308419E+03  0.7546771E-02  0.1228592E+00
          1   -1    0    0  502    0  0.00000000000E+00  0.00000000000E+00  0.47584416698E+03  0.47584416698E+03  0.00000000000E+00 0. -1.
         -2   -1    0    0    0  501 -0.00000000000E+00 -0.00000000000E+00 -0.25491295274E+03  0.25491295274E+03  0.00000000000E+00 0.  1.
        -24    2    1    2    0    0  0.43335766075E+02 -0.85367640165E+02 -0.22691323971E+03  0.25937768438E+03  0.81372859034E+02 0.  0.
         23    2    1    2    0    0 -0.21647859628E+02  0.56893971508E+02  0.36808744976E+03  0.38395921565E+03  0.90723507384E+02 0.  0.
         13    1    3    3    0    0 -0.21703322182E+02 -0.10008302973E+02 -0.65652969811E+02  0.69867823547E+02  0.00000000000E+00 0. -1.
        -14    1    3    3    0    0  0.65039088256E+02 -0.75359337193E+02 -0.16126026990E+03  0.18950986083E+03  0.00000000000E+00 0.  1.
        -11    1    4    4    0    0  0.26502760651E+02  0.47597555925E+01  0.39563039542E+02  0.47856929417E+02  0.00000000000E+00 0.  1.
         11    1    4    4    0    0 -0.48150620280E+02  0.52134215915E+02  0.32852441022E+03  0.33610228623E+03  0.00000000000E+00 0. -1.
         21    1    1    2  502  501 -0.21687906446E+02  0.28473668658E+02  0.79757004195E+02  0.87420219692E+02  0.00000000000E+00 0. -1.
<scales pt_clust_5="13000.00000" pt_clust_6="13000.00000" pt_clust_7="13000.00000" pt_clust_8="13000.00000" pt_clust_9="35.79267"></scales>
<clustering>
<clus scale="   35.793">  1  9  2 -1</clus>
<clus scale="   81.373">  5  6 -1 -1</clus>
<clus scale="   90.724">  7  8 -1 -1</clus>
<clus scale="  124.541">  2  5  1 -1</clus>
<clus scale="   35.793">  1  5  2 -1</clus>
</clustering>
</event>
<event>
 9    1  0.1973774E-005  0.1167889E+03  0.7546771E-02  0.1254254E+00
         -2   -1    0    0    0  501 -0.00000000000E+00  0.00000000000E+00  0.41817211346E+03  0.41817211346E+03  0.00000000000E+00 0.  1.
          1   -1    0    0  502    0  0.00000000000E+00 -0.00000000000E+00 -0.66471238639E+02  0.66471238639E+02  0.00000000000E+00 0. -1.
        -24    2    1    2    0    0 -0.61796866406E+02 -0.34856380259E+02  0.30968082438E+03  0.32746714020E+03  0.79364318078E+02 0.  0.
         23    2    1    2    0    0  0.26614764725E+02  0.52510771157E+02  0.31341962058E+02  0.11639043780E+03  0.95387046484E+02 0.  0.
         11    1    3    3    0    0  0.13603050343E+02 -0.27376626809E+02  0.82298327498E+02  0.87792581594E+02  0.00000000000E+00 0. -1.
        -12    1    3    3    0    0 -0.75399916750E+02 -0.74797534504E+01  0.22738249688E+03  0.23967455861E+03  0.00000000000E+00 0.  1.
        -11    1    4    4    0    0 -0.30206180767E+02  0.27328871360E+01  0.27193774909E+02  0.40735530222E+02  0.00000000000E+00 0.  1.
         11    1    4    4    0    0  0.56820945492E+02  0.49777884021E+02  0.41481871489E+01  0.75654907579E+02  0.00000000000E+00 0. -1.
         21    1    1    2  502  501  0.35182101682E+02 -0.17654390898E+02  0.10678088383E+02  0.40785774091E+02  0.00000000000E+00 0. -1.
<scales pt_clust_5="13000.00000" pt_clust_6="13000.00000" pt_clust_7="13000.00000" pt_clust_8="13000.00000" pt_clust_9="39.36315"></scales>
<clustering>
<clus scale="   39.363">  2  9  1 -1</clus>
<clus scale="   79.364">  5  6 -1 -1</clus>
<clus scale="   95.387">  7  8 -1 -1</clus>
<clus scale="  104.114">  1  5  2 -1</clus>
<clus scale="   39.363">  2  5  1 -1</clus>
</clustering>
</event>
<event>
 9    1  0.1973774E-005  0.3962198E+03  0.7546771E-02  0.1045097E+00
         -2   -1    0    0    0  501 -0.00000000000E+00  0.00000000000E+00  0.40805491034E+03  0.40805491034E+03  0.00000000000E+00 0.  1.
          1   -1    0    0  502    0  0.00000000000E+00 -0.00000000000E+00 -0.48254084911E+03  0.48254084911E+03  0.00000000000E+00 0. -1.
        -24    2    1    2    0    0 -0.17342635989E+03 -0.84686686676E+02 -0.79658958148E+02  0.22304002835E+03  0.78439578211E+02 0.  0.
         23    2    1    2    0    0 -0.12957923909E+03 -0.35957253894E+02 -0.21785961326E+03  0.27244700096E+03  0.93171100309E+02 0.  0.
         13    1    3    3    0    0 -0.30128007997E+02 -0.51196636157E+02 -0.36337112206E+02  0.69636040548E+02  0.00000000000E+00 0. -1.
        -14    1    3    3    0    0 -0.14329835189E+03 -0.33490050519E+02 -0.43321845941E+02  0.15340398780E+03  0.00000000000E+00 0.  1.
        -11    1    4    4    0    0 -0.49876720259E+02  0.30050506186E+02 -0.98942446523E+02  0.11480560905E+03  0.00000000000E+00 0. -1.
         11    1    4    4    0    0 -0.79702518827E+02 -0.66007760080E+02 -0.11891716674E+03  0.15764139191E+03  0.00000000000E+00 0.  1.
         21    1    1    2  502  501  0.30300559898E+03  0.12064394057E+03  0.22303263264E+03  0.39510873013E+03  0.00000000000E+00 0. -1.
<scales pt_clust_5="13000.00000" pt_clust_6="13000.00000" pt_clust_7="13000.00000" pt_clust_8="13000.00000" pt_clust_9="326.14008"></scales>
<clustering>
<clus scale="   78.440">  5  6 -1 -1</clus>
<clus scale="   93.171">  7  8 -1 -1</clus>
<clus scale="  153.077">  5  7 -1 -1</clus>
<clus scale="  326.140">  1  9  2 -1</clus>
<clus scale="  396.220">  2  5  1 -1</clus>
</clustering>
</event>
<event>
 9    1  0.1973774E-005  0.9309056E+02  0.7546771E-02  0.1300856E+00
         -4   -1    0    0    0  501 -0.00000000000E+00  0.00000000000E+00  0.95287505226E+02  0.95287505226E+02  0.00000000000E+00 0.  1.
          3   -1    0    0  502    0  0.00000000000E+00 -0.00000000000E+00 -0.43433385797E+03  0.43433385797E+03  0.00000000000E+00 0. -1.
         23    2    1    2    0    0 -0.21651042979E+02  0.52583224954E+02  0.43091149479E+02  0.11622939557E+03  0.91753267091E+02 0.  0.
        -24    2    1    2    0    0  0.56823989337E+00 -0.13286553923E+02 -0.34586518982E+03  0.35590811261E+03  0.82891493440E+02 0.  0.
         11    1    4    4    0    0  0.39779408394E+02  0.60413349370E+01 -0.16589809990E+03  0.17070758217E+03  0.00000000000E+00 0. -1.
        -12    1    4    4    0    0 -0.39211168501E+02 -0.19327888860E+02 -0.17996708992E+03  0.18520053044E+03  0.00000000000E+00 0.  1.
        -13    1    3    3    0    0 -0.47712916706E+02  0.31140930392E+02  0.56194778182E+02  0.80025827464E+02  0.00000000000E+00 0.  1.
         13    1    3    3    0    0  0.26061873727E+02  0.21442294562E+02 -0.13103628703E+02  0.36203568104E+02  0.00000000000E+00 0. -1.
         21    1    1    2  502  501  0.21082803085E+02 -0.39296671031E+02 -0.36272312405E+02  0.57483855014E+02  0.00000000000E+00 0.  1.
<scales pt_clust_5="13000.00000" pt_clust_6="13000.00000" pt_clust_7="13000.00000" pt_clust_8="13000.00000" pt_clust_9="44.59499"></scales>
<clustering>
<clus scale="   44.595">  1  9  2 -1</clus>
<clus scale="   82.891">  5  6 -1 -1</clus>
<clus scale="   84.369">  2  5  1 -1</clus>
<clus scale="   91.753">  7  8 -1 -1</clus>
<clus scale="   84.369">  2  5  1 -1</clus>
</clustering>
</event>
<event>
 9    1  0.1973774E-005  0.1134982E+03  0.7546771E-02  0.1257746E+00
         -2   -1    0    0    0  501 -0.00000000000E+00  0.00000000000E+00  0.10773431162E+03  0.10773431162E+03  0.00000000000E+00 0.  1.
          1   -1    0    0  502    0  0.00000000000E+00 -0.00000000000E+00 -0.31171545103E+03  0.31171545103E+03  0.00000000000E+00 0. -1.
        -24    2    1    2    0    0 -0.24525808995E+02 -0.56350451619E+02  0.45223824303E+02  0.11196703839E+03  0.81942264405E+02 0.  0.
         23    2    1    2    0    0  0.41249827750E+02  0.94766502668E+02 -0.19583264617E+03  0.23962927880E+03  0.91594364637E+02 0.  0.
         11    1    3    3    0    0  0.21583352299E+02  0.45918670100E+01 -0.19616002830E+01  0.22153424448E+02  0.00000000000E+00 0. -1.
        -12    1    3    3    0    0 -0.46109161295E+02 -0.60942318629E+02  0.47185424586E+02  0.89813613938E+02  0.00000000000E+00 0.  1.
        -11    1    4    4    0    0 -0.11855574398E+02  0.78274359036E+02 -0.13997288101E+03  0.16080994169E+03  0.00000000000E+00 0.  1.
         11    1    4    4    0    0  0.53105402148E+02  0.16492143632E+02 -0.55859765162E+02  0.78819337112E+02  0.00000000000E+00 0. -1.
         21    1    1    2  502  501 -0.16724018755E+02 -0.38416051049E+02 -0.53372317547E+02  0.67853445467E+02  0.00000000000E+00 0.  1.
<scales pt_clust_5="13000.00000" pt_clust_6="13000.00000" pt_clust_7="13000.00000" pt_clust_8="13000.00000" pt_clust_9="41.89852"></scales>
<clustering>
<clus scale="   41.899">  2  9  1 -1</clus>
<clus scale="   81.942">  5  6 -1 -1</clus>
<clus scale="   91.594">  7  8 -1 -1</clus>
<clus scale="  105.862">  1  5  2 -1</clus>
<clus scale="   41.899">  2  5  1 -1</clus>
</clustering>
</event>
<event>
 9    1  0.1973774E-005  0.1038207E+03  0.7546771E-02  0.1283270E+00
          1   -1    0    0  502    0  0.00000000000E+00  0.00000000000E+00  0.15374140972E+03  0.15374140972E+03  0.00000000000E+00 0. -1.
         -2   -1    0    0    0  501 -0.00000000000E+00 -0.00000000000E+00 -0.11680973759E+03  0.11680973759E+03  0.00000000000E+00 0.  1.
        -24    2    1    2    0    0 -0.96338573792E+01 -0.12806359668E+02 -0.23398149015E+02  0.85558241026E+02  0.80721280801E+02 0.  0.
         23    2    1    2    0    0  0.59518275999E+02 -0.11923704824E+02  0.29343877348E+02  0.12127352129E+03  0.10080478121E+03 0.  0.
         13    1    3    3    0    0 -0.57159177151E+01 -0.30192798767E+02  0.21332389728E+02  0.37407855649E+02  0.00000000000E+00 0. -1.
        -14    1    3    3    0    0 -0.39179396641E+01  0.17386439099E+02 -0.44730538743E+02  0.48150385377E+02  0.00000000000E+00 0.  1.
        -13    1    4    4    0    0  0.82374650342E+02  0.11303166847E+02  0.10979581891E+02  0.83868324284E+02  0.00000000000E+00 0.  1.
         13    1    4    4    0    0 -0.22856374342E+02 -0.23226871671E+02  0.18364295458E+02  0.37405197010E+02  0.00000000000E+00 0. -1.
         21    1    1    2  502  501 -0.49884418620E+02  0.24730064492E+02  0.30985943796E+02  0.63719384992E+02  0.00000000000E+00 0. -1.
<scales pt_clust_5="13000.00000" pt_clust_6="13000.00000" pt_clust_7="13000.00000" pt_clust_8="13000.00000" pt_clust_9="55.67792"></scales>
<clustering>
<clus scale="   55.678">  1  9  2 -1</clus>
<clus scale="   80.721">  5  6 -1 -1</clus>
<clus scale="   84.457">  2  5  1 -1</clus>
<clus scale="  100.805">  7  8 -1 -1</clus>
<clus scale="   55.678">  1  5  2 -1</clus>
</clustering>
</event>
<event>
 9    1  0.1973774E-005  0.1780549E+03  0.7546771E-02  0.1171243E+00
         -4   -1    0    0    0  501 -0.00000000000E+00  0.00000000000E+00  0.96380560290E+03  0.96380560290E+03  0.00000000000E+00 0.  1.
          3   -1    0    0  502    0  0.00000000000E+00 -0.00000000000E+00 -0.15968437478E+03  0.15968437478E+03  0.00000000000E+00 0. -1.
         23    2    1    2    0    0  0.14717623421E+03  0.36701278638E+02  0.86511091756E+03  0.88289340799E+03  0.89866803730E+02 0.  0.
        -24    2    1    2    0    0 -0.17791559042E+03 -0.47440539104E+02 -0.58454235832E+02  0.20793668205E+03  0.76916864161E+02 0.  0.
         13    1    4    4    0    0 -0.16971931640E+03 -0.41323697085E+02 -0.29399434060E+02  0.17713447158E+03  0.00000000000E+00 0. -1.
        -14    1    4    4    0    0 -0.81962740237E+01 -0.61168420190E+01 -0.29054801772E+02  0.30802210475E+02  0.00000000000E+00 0.  1.
        -11    1    3    3    0    0  0.53491283507E+02  0.58871662065E+02  0.42436863777E+03  0.43175911192E+03  0.00000000000E+00 0. -1.
         11    1    3    3    0    0  0.93684950701E+02 -0.22170383427E+02  0.44074227979E+03  0.45113429607E+03  0.00000000000E+00 0.  1.
         21    1    1    2  502  501  0.30739356211E+02  0.10739260467E+02 -0.25354536060E+01  0.32659887640E+02  0.00000000000E+00 0. -1.
<scales pt_clust_5="13000.00000" pt_clust_6="13000.00000" pt_clust_7="13000.00000" pt_clust_8="13000.00000" pt_clust_9="32.56132"></scales>
<clustering>
<clus scale="   32.561">  2  9  1 -1</clus>
<clus scale="   76.917">  5  6 -1 -1</clus>
<clus scale="   89.867">  7  8 -1 -1</clus>
<clus scale="  171.883">  2  5  1 -1</clus>
<clus scale="   32.561">  2  5  1 -1</clus>
</clustering>
</event>
<event>
 9    1  0.1973774E-005  0.2175775E+03  0.7546771E-02  0.1161711E+00
          1   -1    0    0  502    0  0.00000000000E+00  0.00000000000E+00  0.65120613290E+03  0.65120613290E+03  0.00000000000E+00 0. -1.
         -2   -1    0    0    0  501 -0.00000000000E+00 -0.00000000000E+00 -0.18497706642E+03  0.18497706642E+03  0.00000000000E+00 0.  1.
         23    2    1    2    0    0  0.44059020077E+02 -0.57019163698E+02  0.54081130842E+02  0.12917276604E+03  0.92565935935E+02 0.  0.
        -24    2    1    2    0    0 -0.10700358597E+03 -0.13603026641E+03 -0.50122697921E+02  0.20211020601E+03  0.91554627063E+02 0.  0.
         11    1    4    4    0    0 -0.11914215157E+01 -0.26887092586E+02  0.21137690259E+02  0.34221881632E+02  0.00000000000E+00 0. -1.
        -12    1    4    4    0    0 -0.10581216446E+03 -0.10914317382E+03 -0.71260388180E+02  0.16788832438E+03  0.00000000000E+00 0.  1.
        -13    1    3    3    0    0  0.68055753972E+02 -0.52378140061E+02  0.59063938414E+02  0.10422861424E+03  0.00000000000E+00 0.  1.
         13    1    3    3    0    0 -0.23996733895E+02 -0.46410236370E+01 -0.49828075727E+01  0.24944151806E+02  0.00000000000E+00 0. -1.
         21    1    1    2  502  501  0.62944565894E+02  0.19304943010E+03  0.46227063356E+03  0.50490022727E+03  0.00000000000E+00 0. -1.
<scales pt_clust_5="13000.00000" pt_clust_6="13000.00000" pt_clust_7="13000.00000" pt_clust_8="13000.00000" pt_clust_9="197.37707"></scales>
<clustering>
<clus scale="   91.555">  5  6 -1 -1</clus>
<clus scale="   92.566">  7  8 -1 -1</clus>
<clus scale="  117.307">  2  7  1 -1</clus>
<clus scale="  197.377">  1  9  2 -1</clus>
<clus scale="  197.377">  1  5  2 -1</clus>
</clustering>
</event>
<event>
 9    1  0.1973774E-005  0.1113441E+03  0.7546771E-02  0.1264517E+00
          1   -1    0    0  502    0  0.00000000000E+00  0.00000000000E+00  0.17476859689E+03  0.17476859689E+03  0.00000000000E+00 0. -1.
         -2   -1    0    0    0  501 -0.00000000000E+00 -0.00000000000E+00 -0.53351243461E+03  0.53351243461E+03  0.00000000000E+00 0.  1.
        -24    2    1    2    0    0 -0.62645676697E+02 -0.14718417009E+02 -0.48945647841E+03  0.49944475568E+03  0.75738412420E+02 0.  0.
         23    2    1    2    0    0  0.21036284009E+02 -0.26639405629E+02  0.10784789707E+03  0.14587114616E+03  0.92168536938E+02 0.  0.
         13    1    3    3    0    0 -0.98028327771E+01 -0.36371668126E+02 -0.12537368696E+03  0.13091048527E+03  0.00000000000E+00 0. -1.
        -14    1    3    3    0    0 -0.52842843920E+02  0.21653251117E+02 -0.36408279145E+03  0.36853427041E+03  0.00000000000E+00 0.  1.
        -13    1    4    4    0    0  0.24196789023E+02 -0.53572941517E+02  0.10260427776E+03  0.11825050730E+03  0.00000000000E+00 0.  1.
         13    1    4    4    0    0 -0.31605050134E+01  0.26933535888E+02  0.52436193080E+01  0.27620638856E+02  0.00000000000E+00 0. -1.
         21    1    1    2  502  501  0.41609392688E+02  0.41357822638E+02  0.22864743604E+02  0.62965129662E+02  0.00000000000E+00 0. -1.
<scales pt_clust_5="13000.00000" pt_clust_6="13000.00000" pt_clust_7="13000.00000" pt_clust_8="13000.00000" pt_clust_9="58.66695"></scales>
<clustering>
<clus scale="   58.667">  1  9  2 -1</clus>
<clus scale="   75.738">  5  6 -1 -1</clus>
<clus scale="   92.169">  7  8 -1 -1</clus>
<clus scale="   98.177">  2  5  1 -1</clus>
<clus scale="   58.667">  1  5  2 -1</clus>
</clustering>
</event>
<event>
 9    1  0.1973774E-005  0.9661505E+02  0.7546771E-02  0.1291900E+00
          1   -1    0    0  502    0  0.00000000000E+00  0.00000000000E+00  0.33839377348E+03  0.33839377348E+03  0.00000000000E+00 0. -1.
         -2   -1    0    0    0  501 -0.00000000000E+00 -0.00000000000E+00 -0.11304813832E+03  0.11304813832E+03  0.00000000000E+00 0.  1.
        -24    2    1    2    0    0 -0.80830580059E+01  0.34694901141E+02 -0.79760474657E+02  0.12003242836E+03  0.82322406119E+02 0.  0.
         23    2    1    2    0    0  0.20704209715E+02 -0.81323194715E+01  0.27007696864E+03  0.28567213604E+03  0.90400228996E+02 0.  0.
         11    1    3    3    0    0  0.21690550410E+02  0.41516534607E+02 -0.16287422281E+02  0.49592164173E+02  0.00000000000E+00 0. -1.
        -12    1    3    3    0    0 -0.29773608415E+02 -0.68216334656E+01 -0.63473052376E+02  0.70440264190E+02  0.00000000000E+00 0.  1.
        -11    1    4    4    0    0  0.51539761433E+02  0.15781840644E+02  0.16516919526E+03  0.17374198274E+03  0.00000000000E+00 0. -1.
         11    1    4    4    0    0 -0.30835551718E+02 -0.23914160116E+02  0.10490777338E+03  0.11193015330E+03  0.00000000000E+00 0.  1.
         21    1    1    2  502  501 -0.12621151709E+02 -0.26562581670E+02  0.35029141179E+02  0.45737347400E+02  0.00000000000E+00 0.  1.
<scales pt_clust_5="13000.00000" pt_clust_6="13000.00000" pt_clust_7="13000.00000" pt_clust_8="13000.00000" pt_clust_9="29.40857"></scales>
<clustering>
<clus scale="   29.409">  1  9  2 -1</clus>
<clus scale="   82.322">  5  6 -1 -1</clus>
<clus scale="   89.102">  2  5  1 -1</clus>
<clus scale="   90.400">  7  8 -1 -1</clus>
<clus scale="   29.409">  1  5  2 -1</clus>
</clustering>
</event>
<event>
 9    1  0.1973774E-005  0.1461791E+03  0.7546771E-02  0.1207221E+00
         -2   -1    0    0    0  501 -0.00000000000E+00  0.00000000000E+00  0.47010208029E+03  0.47010208029E+03  0.00000000000E+00 0.  1.
          1   -1    0    0  502    0  0.00000000000E+00 -0.00000000000E+00 -0.16578004944E+03  0.16578004944E+03  0.00000000000E+00 0. -1.
         23    2    1    2    0    0 -0.39572400067E+02  0.10430044116E+03  0.38418320551E+03  0.41028066348E+03  0.91043564043E+02 0.  0.
        -24    2    1    2    0    0  0.83143765122E+02 -0.11517192758E+03 -0.47505032521E+02  0.17025191338E+03  0.80941505496E+02 0.  0.
         13    1    4    4    0    0  0.96015579778E+02 -0.99991696768E+02 -0.26170738335E+02  0.14107529382E+03  0.00000000000E+00 0. -1.
        -14    1    4    4    0    0 -0.12871814656E+02 -0.15180230817E+02 -0.21334294186E+02  0.29176619554E+02  0.00000000000E+00 0.  1.
        -11    1    3    3    0    0 -0.62492030287E+02  0.10348387368E+03  0.32987775445E+03  0.35133103882E+03  0.00000000000E+00 0.  1.
         11    1    3    3    0    0  0.22919630220E+02  0.81656748648E+00  0.54305451059E+02  0.58949624652E+02  0.00000000000E+00 0. -1.
         21    1    1    2  502  501 -0.43571365055E+02  0.10871486422E+02 -0.32356142132E+02  0.55349552875E+02  0.00000000000E+00 0.  1.
<scales pt_clust_5="13000.00000" pt_clust_6="13000.00000" pt_clust_7="13000.00000" pt_clust_8="13000.00000" pt_clust_9="44.90716"></scales>
<clustering>
<clus scale="   44.907">  2  9  1 -1</clus>
<clus scale="   80.942">  5  6 -1 -1</clus>
<clus scale="   91.044">  7  8 -1 -1</clus>
<clus scale="  140.110">  2  5  1 -1</clus>
<clus scale="   44.907">  2  5  1 -1</clus>
</clustering>
</event>
<event>
 9    1  0.1973774E-005  0.1220089E+03  0.7546771E-02  0.1242734E+00
         -2   -1    0    0    0  501 -0.00000000000E+00  0.00000000000E+00  0.66526445720E+02  0.66526445720E+02  0.00000000000E+00 0.  1.
          1   -1    0    0  502    0  0.00000000000E+00 -0.00000000000E+00 -0.40191950173E+03  0.40191950173E+03  0.00000000000E+00 0. -1.
        -24    2    1    2    0    0 -0.17017396740E+01  0.56940952813E+02 -0.86343365133E+02  0.13109798689E+03  0.80537801309E+02 0.  0.
         23    2    1    2    0    0  0.27414309170E+02 -0.11284043070E+03 -0.10499310333E+03  0.18070126167E+03  0.90249028099E+02 0.  0.
         11    1    3    3    0    0 -0.21958526479E+02  0.13338607142E+02 -0.78228982656E+02  0.82339960244E+02  0.00000000000E+00 0. -1.
        -12    1    3    3    0    0  0.20256786805E+02  0.43602345671E+02 -0.81143824771E+01  0.48758026648E+02  0.00000000000E+00 0.  1.
        -11    1    4    4    0    0  0.58169098011E+02 -0.49167418372E+02 -0.59065638916E+02  0.96383757414E+02  0.00000000000E+00 0.  1.
         11    1    4    4    0    0 -0.30754788841E+02 -0.63673012328E+02 -0.45927464414E+02  0.84317504251E+02  0.00000000000E+00 0. -1.
         21    1    1    2  502  501 -0.25712569496E+02  0.55899477888E+02 -0.14405658755E+03  0.15664669889E+03  0.00000000000E+00 0. -1.
<scales pt_clust_5="13000.00000" pt_clust_6="13000.00000" pt_clust_7="13000.00000" pt_clust_8="13000.00000" pt_clust_9="61.52957"></scales>
<clustering>
<clus scale="   61.530">  2  9  1 -1</clus>
<clus scale="   80.538">  5  6 -1 -1</clus>
<clus scale="   90.249">  7  8 -1 -1</clus>
<clus scale="  115.011">  1  5  2 -1</clus>
<clus scale="   61.530">  2  5  1 -1</clus>
</clustering>
</event>
<event>
 9    1  0.1973774E-005  0.9398380E+02  0.7546771E-02  0.1298863E+00
          1   -1    0    0  502    0  0.00000000000E+00  0.00000000000E+00  0.23139907277E+03  0.23139907277E+03  0.00000000000E+00 0. -1.
         -2   -1    0    0    0  501 -0.00000000000E+00 -0.00000000000E+00 -0.64676961011E+02  0.64676961011E+02  0.00000000000E+00 0.  1.
         23    2    1    2    0    0 -0.21063671324E+02  0.23677256797E+02 -0.17017454259E+01  0.95088900223E+02  0.89636556544E+02 0.  0.
        -24    2    1    2    0    0 -0.42657146621E+01 -0.25403212903E+02  0.12740786951E+03  0.15274951376E+03  0.80225489674E+02 0.  0.
         13    1    4    4    0    0 -0.19381637947E+02 -0.45902351382E+02  0.11297482873E+03  0.12347463577E+03  0.00000000000E+00 0. -1.
        -14    1    4    4    0    0  0.15115923285E+02  0.20499138478E+02  0.14433040777E+02  0.29274877988E+02  0.00000000000E+00 0.  1.
        -13    1    3    3    0    0 -0.48603587714E+02  0.35885648651E+02  0.12640846918E+02  0.61724221571E+02  0.00000000000E+00 0. -1.
         13    1    3    3    0    0  0.27539916390E+02 -0.12208391853E+02 -0.14342592344E+02  0.33364678652E+02  0.00000000000E+00 0.  1.
         21    1    1    2  502  501  0.25329385986E+02  0.17259561060E+01  0.41015987679E+02  0.48237619802E+02  0.00000000000E+00 0.  1.
<scales pt_clust_5="13000.00000" pt_clust_6="13000.00000" pt_clust_7="13000.00000" pt_clust_8="13000.00000" pt_clust_9="25.38812"></scales>
<clustering>
<clus scale="   25.388">  1  9  2 -1</clus>
<clus scale="   80.225">  5  6 -1 -1</clus>
<clus scale="   85.055">  1  5  2 -1</clus>
<clus scale="   89.637">  7  8 -1 -1</clus>
<clus scale="   25.388">  1  5  2 -1</clus>
</clustering>
</event>
<event>
 9    1  0.1973774E-005  0.9241083E+02  0.7546771E-02  0.1302104E+00
         -2   -1    0    0    0  501 -0.00000000000E+00  0.00000000000E+00  0.13701494460E+03  0.13701494460E+03  0.00000000000E+00 0.  1.
          1   -1    0    0  502    0  0.00000000000E+00 -0.00000000000E+00 -0.18878339014E+03  0.18878339014E+03  0.00000000000E+00 0. -1.
         23    2    1    2    0    0 -0.19131792587E+02  0.18899072113E+02  0.10149515384E+03  0.13755825886E+03  0.88869611862E+02 0.  0.
        -24    2    1    2    0    0  0.23797683129E+02  0.58709408655E+01 -0.12009663492E+03  0.14658228419E+03  0.80388846552E+02 0.  0.
         13    1    4    4    0    0 -0.17610831976E+02  0.17836392431E+02 -0.91463347359E+02  0.94835764393E+02  0.00000000000E+00 0. -1.
        -14    1    4    4    0    0  0.41408515105E+02 -0.11965451566E+02 -0.28633287560E+02  0.51746519795E+02  0.00000000000E+00 0.  1.
        -11    1    3    3    0    0 -0.20818052880E+02 -0.20129876079E+01  0.11211111165E+03  0.11404536291E+03  0.00000000000E+00 0.  1.
         11    1    3    3    0    0  0.16862602929E+01  0.20912059721E+02 -0.10615957814E+02  0.23512895948E+02  0.00000000000E+00 0. -1.
         21    1    1    2  502  501 -0.46658905416E+01 -0.24770012979E+02 -0.33166964455E+02  0.41657791692E+02  0.00000000000E+00 0.  1.
<scales pt_clust_5="13000.00000" pt_clust_6="13000.00000" pt_clust_7="13000.00000" pt_clust_8="13000.00000" pt_clust_9="25.20564"></scales>
<clustering>
<clus scale="   25.206">  2  9  1 -1</clus>
<clus scale="   80.389">  5  6 -1 -1</clus>
<clus scale="   84.287">  2  5  1 -1</clus>
<clus scale="   88.870">  7  8 -1 -1</clus>
<clus scale="   25.206">  2  5  1 -1</clus>
</clustering>
</event>
<event>
 9    1  0.1973774E-005  0.9574059E+02  0.7546771E-02  0.1293462E+00
          3   -1    0    0  502    0  0.00000000000E+00  0.00000000000E+00  0.19103955636E+03  0.19103955636E+03  0.00000000000E+00 0. -1.
         -4   -1    0    0    0  501 -0.00000000000E+00 -0.00000000000E+00 -0.95385256259E+02  0.95385256259E+02  0.00000000000E+00 0.  1.
         23    2    1    2    0    0 -0.28820930753E+02  0.39920112457E+02 -0.44200932181E+02  0.10775918012E+03  0.85053260172E+02 0.  0.
        -24    2    1    2    0    0  0.39746987377E+01 -0.25190243803E+02  0.11263280836E+03  0.13897476907E+03  0.77314230937E+02 0.  0.
         11    1    4    4    0    0  0.67196356159E+01 -0.42047251046E+02  0.11414532116E+03  0.12182889299E+03  0.00000000000E+00 0. -1.
        -12    1    4    4    0    0 -0.27449368782E+01  0.16857007243E+02 -0.15125127999E+01  0.17145876082E+02  0.00000000000E+00 0.  1.
        -13    1    3    3    0    0  0.18270977704E+02  0.47036037954E+02 -0.19387530739E+02  0.54056395004E+02  0.00000000000E+00 0.  1.
         13    1    3    3    0    0 -0.47091908457E+02 -0.71159254970E+01 -0.24813401442E+02  0.53702785114E+02  0.00000000000E+00 0. -1.
         21    1    1    2  502  501  0.24846232016E+02 -0.14729868653E+02  0.27222423921E+02  0.39690863433E+02  0.00000000000E+00 0. -1.
<scales pt_clust_5="13000.00000" pt_clust_6="13000.00000" pt_clust_7="13000.00000" pt_clust_8="13000.00000" pt_clust_9="28.88433"></scales>
<clustering>
<clus scale="   28.884">  1  9  2 -1</clus>
<clus scale="   77.314">  5  6 -1 -1</clus>
<clus scale="   85.053">  7  8 -1 -1</clus>
<clus scale="   88.936">  1  5  2 -1</clus>
<clus scale="   28.884">  1  5  2 -1</clus>
</clustering>
</event>
<event>
 9    1  0.1973774E-005  0.1964979E+03  0.7546771E-02  0.1153789E+00
          1   -1    0    0  502    0  0.00000000000E+00  0.00000000000E+00  0.13858062391E+04  0.13858062391E+04  0.00000000000E+00 0. -1.
         -2   -1    0    0    0  501 -0.00000000000E+00 -0.00000000000E+00 -0.88127215683E+02  0.88127215683E+02  0.00000000000E+00 0.  1.
        -24    2    1    2    0    0 -0.11241457418E+03  0.14053632925E+03  0.53965870096E+02  0.20418821600E+03  0.79956338656E+02 0.  0.
         23    2    1    2    0    0  0.31623311881E+02 -0.14588518961E+03  0.85646648870E+03  0.87412443848E+03  0.90973431780E+02 0.  0.
         13    1    3    3    0    0 -0.11607216208E+03  0.10913931073E+03  0.62977634005E+02  0.17131934608E+03  0.00000000000E+00 0. -1.
        -14    1    3    3    0    0  0.36575879016E+01  0.31397018513E+02 -0.90117639084E+01  0.32868869915E+02  0.00000000000E+00 0.  1.
        -13    1    4    4    0    0  0.56437490699E+02 -0.49529962763E+02  0.34670888460E+03  0.35474703413E+03  0.00000000000E+00 0. -1.
         13    1    4    4    0    0 -0.24814178818E+02 -0.96355226845E+02  0.50975760410E+03  0.51937740435E+03  0.00000000000E+00 0.  1.
         21    1    1    2  502  501  0.80791262297E+02  0.53488603618E+01  0.38724666463E+03  0.39562080031E+03  0.00000000000E+00 0.  1.
<scales pt_clust_5="13000.00000" pt_clust_6="13000.00000" pt_clust_7="13000.00000" pt_clust_8="13000.00000" pt_clust_9="80.96813"></scales>
<clustering>
<clus scale="   79.956">  5  6 -1 -1</clus>
<clus scale="   80.968">  1  9  2 -1</clus>
<clus scale="   90.973">  7  8 -1 -1</clus>
<clus scale="  191.646">  2  5  1 -1</clus>
<clus scale="   80.968">  1  5  2 -1</clus>
</clustering>
</event>
<event>
 9    1  0.1973774E-005  0.1082728E+03  0.7546771E-02  0.1267526E+00
         -2   -1    0    0    0  501 -0.00000000000E+00  0.00000000000E+00  0.29375291921E+03  0.29375291921E+03  0.00000000000E+00 0.  1.
          1   -1    0    0  502    0  0.00000000000E+00 -0.00000000000E+00 -0.15659448850E+03  0.15659448850E+03  0.00000000000E+00 0. -1.
        -24    2    1    2    0    0 -0.22572694177E+02  0.50653068930E+02  0.21474170664E+03  0.23610388177E+03  0.80967786802E+02 0.  0.
         23    2    1    2    0    0  0.77858929363E+02 -0.69348098991E+02 -0.35744884580E+02  0.14243459236E+03  0.90214991068E+02 0.  0.
         11    1    3    3    0    0  0.23541175538E+02  0.24262297666E+02  0.34944740220E+02  0.48620786736E+02  0.00000000000E+00 0. -1.
        -12    1    3    3    0    0 -0.46113869715E+02  0.26390771265E+02  0.17979696642E+03  0.18748309503E+03  0.00000000000E+00 0.  1.
        -11    1    4    4    0    0  0.19101291692E+02 -0.41878685240E+02 -0.57833675890E+02  0.73914935491E+02  0.00000000000E+00 0. -1.
         11    1    4    4    0    0  0.58757637671E+02 -0.27469413751E+02  0.22088791310E+02  0.68519656873E+02  0.00000000000E+00 0.  1.
         21    1    1    2  502  501 -0.55286235186E+02  0.18695030060E+02 -0.41838391361E+02  0.71808933579E+02  0.00000000000E+00 0.  1.
<scales pt_clust_5="13000.00000" pt_clust_6="13000.00000" pt_clust_7="13000.00000" pt_clust_8="13000.00000" pt_clust_9="58.36156"></scales>
<clustering>
<clus scale="   58.362">  2  9  1 -1</clus>
<clus scale="   80.968">  5  6 -1 -1</clus>
<clus scale="   90.215">  7  8 -1 -1</clus>
<clus scale="  100.698">  1  5  2 -1</clus>
<clus scale="   58.362">  2  5  1 -1</clus>
</clustering>
</event>
<event>
 9    1  0.1973774E-005  0.9739552E+02  0.7546771E-02  0.1291309E+00
         -2   -1    0    0    0  501 -0.00000000000E+00  0.00000000000E+00  0.30260759699E+02  0.30260759699E+02  0.00000000000E+00 0.  1.
          1   -1    0    0  502    0  0.00000000000E+00 -0.00000000000E+00 -0.12113416632E+04  0.12113416632E+04  0.00000000000E+00 0. -1.
         23    2    1    2    0    0  0.35602820894E+02  0.26483478493E+02 -0.81537697760E+02  0.12957005933E+03  0.90393963461E+02 0.  0.
        -24    2    1    2    0    0  0.91178824602E+01  0.28673371804E+02 -0.78075348247E+03  0.78542999507E+03  0.80118529327E+02 0.  0.
         11    1    4    4    0    0  0.23106274004E+02 -0.23719202856E+00 -0.65512510184E+02  0.69468303197E+02  0.00000000000E+00 0. -1.
        -12    1    4    4    0    0 -0.13988391544E+02  0.28910563833E+02 -0.71524097228E+03  0.71596169187E+03  0.00000000000E+00 0.  1.
        -13    1    3    3    0    0 -0.15924380797E+02  0.18923319683E+02 -0.72642124289E+02  0.76736928221E+02  0.00000000000E+00 0. -1.
         13    1    3    3    0    0  0.51527201691E+02  0.75601588100E+01 -0.88955734701E+01  0.52833131108E+02  0.00000000000E+00 0.  1.
         21    1    1    2  502  501 -0.44720703354E+02 -0.55156850297E+02 -0.31878972325E+03  0.32660236847E+03  0.00000000000E+00 0. -1.
<scales pt_clust_5="13000.00000" pt_clust_6="13000.00000" pt_clust_7="13000.00000" pt_clust_8="13000.00000" pt_clust_9="71.00859"></scales>
<clustering>
<clus scale="   71.009">  2  9  1 -1</clus>
<clus scale="   80.119">  5  6 -1 -1</clus>
<clus scale="   87.942">  2  5  1 -1</clus>
<clus scale="   90.394">  7  8 -1 -1</clus>
<clus scale="   71.009">  2  5  1 -1</clus>
</clustering>
</event>
<event>
 9    1  0.1973774E-005  0.1301679E+03  0.7546771E-02  0.1231619E+00
         -2   -1    0    0    0  501 -0.00000000000E+00  0.00000000000E+00  0.71471325956E+02  0.71471325956E+02  0.00000000000E+00 0.  1.
          1   -1    0    0  502    0  0.00000000000E+00 -0.00000000000E+00 -0.32244013001E+03  0.32244013001E+03  0.00000000000E+00 0. -1.
        -24    2    1    2    0    0  0.71705801187E+02 -0.94249723419E+02 -0.65599255500E+02  0.15810094624E+03  0.81657299679E+02 0.  0.
         23    2    1    2    0    0 -0.60869552355E+02  0.73288690920E+02 -0.17780616323E+03  0.21103160802E+03  0.61991719458E+02 0.  0.
         13    1    3    3    0    0  0.61328857243E+02 -0.41489126345E+02 -0.72813371128E+02  0.10384778934E+03  0.00000000000E+00 0. -1.
        -14    1    3    3    0    0  0.10376943944E+02 -0.52760597074E+02  0.72141156281E+01  0.54253156899E+02  0.00000000000E+00 0.  1.
        -11    1    4    4    0    0 -0.24286861801E+02  0.14369842256E+02 -0.10831105046E+02  0.30226757337E+02  0.00000000000E+00 0.  1.
         11    1    4    4    0    0 -0.36582690555E+02  0.58918848664E+02 -0.16697505818E+03  0.18080485068E+03  0.00000000000E+00 0. -1.
         21    1    1    2  502  501 -0.10836248831E+02  0.20961032499E+02 -0.75633853239E+01  0.24778901705E+02  0.00000000000E+00 0. -1.
<scales pt_clust_5="13000.00000" pt_clust_6="13000.00000" pt_clust_7="13000.00000" pt_clust_8="13000.00000" pt_clust_9="23.59638"></scales>
<clustering>
<clus scale="   23.596">  1  9  2 -1</clus>
<clus scale="   61.992">  7  8 -1 -1</clus>
<clus scale="   81.657">  5  6 -1 -1</clus>
<clus scale="  118.822">  2  7  1 -1</clus>
<clus scale="  118.822">  2  5  1 -1</clus>
</clustering>
</event>
<event>
 9    1  0.1973774E-005  0.1140267E+03  0.7546771E-02  0.1257383E+00
         -2   -1    0    0    0  501 -0.00000000000E+00  0.00000000000E+00  0.14690140665E+03  0.14690140665E+03  0.00000000000E+00 0.  1.
          1   -1    0    0  502    0  0.00000000000E+00 -0.00000000000E+00 -0.16018603261E+03  0.16018603261E+03  0.00000000000E+00 0. -1.
         23    2    1    2    0    0  0.64206365863E+02 -0.46458787040E+01  0.77128520743E+02  0.13761500640E+03  0.94048071045E+02 0.  0.
        -24    2    1    2    0    0 -0.64947472004E+02 -0.24308909026E+02 -0.48624880779E+02  0.11862768742E+03  0.83060532226E+02 0.  0.
         11    1    4    4    0    0 -0.79642750146E+02 -0.75275609159E+00 -0.42177755795E+02  0.90124898759E+02  0.00000000000E+00 0. -1.
        -12    1    4    4    0    0  0.14695278142E+02 -0.23556152935E+02 -0.64471249841E+01  0.28502788659E+02  0.00000000000E+00 0.  1.
        -11    1    3    3    0    0  0.13611978818E+02  0.30950398882E+02 -0.56444941850E+01  0.34279344698E+02  0.00000000000E+00 0. -1.
         11    1    3    3    0    0  0.50594387045E+02 -0.35596277586E+02  0.82773014928E+02  0.10333566170E+03  0.00000000000E+00 0.  1.
         21    1    1    2  502  501  0.74110614078E+00  0.28954787730E+02 -0.41788265925E+02  0.50844745450E+02  0.00000000000E+00 0. -1.
<scales pt_clust_5="13000.00000" pt_clust_6="13000.00000" pt_clust_7="13000.00000" pt_clust_8="13000.00000" pt_clust_9="28.96427"></scales>
<clustering>
<clus scale="   28.964">  2  9  1 -1</clus>
<clus scale="   83.061">  5  6 -1 -1</clus>
<clus scale="   94.048">  7  8 -1 -1</clus>
<clus scale="  105.148">  2  5  1 -1</clus>
<clus scale="   28.964">  2  5  1 -1</clus>
</clustering>
</event>
<event>
 9    1  0.1973774E-005  0.9371887E+02  0.7546771E-02  0.1301699E+00
          1   -1    0    0  502    0  0.00000000000E+00  0.00000000000E+00  0.37895050315E+03  0.37895050315E+03  0.00000000000E+00 0. -1.
         -2   -1    0    0    0  501 -0.00000000000E+00 -0.00000000000E+00 -0.51596200982E+02  0.51596200982E+02  0.00000000000E+00 0.  1.
        -24    2    1    2    0    0 -0.47136297836E+01 -0.41127710720E+01  0.10636432760E+02  0.81417920904E+02  0.80477394036E+02 0.  0.
         23    2    1    2    0    0  0.44194733704E+02  0.16693022523E+02  0.24591601818E+03  0.26709267880E+03  0.92908447303E+02 0.  0.
         11    1    3    3    0    0 -0.41884762153E+02 -0.43604717159E+00  0.13360491828E+02  0.43966193599E+02  0.00000000000E+00 0. -1.
        -12    1    3    3    0    0  0.37171132369E+02 -0.36767239005E+01 -0.27240590673E+01  0.37451727304E+02  0.00000000000E+00 0.  1.
        -11    1    4    4    0    0  0.50150346780E+02  0.48751141555E+02  0.14398004983E+03  0.16006869099E+03  0.00000000000E+00 0.  1.
         11    1    4    4    0    0 -0.59556130761E+01 -0.32058119032E+02  0.10193596835E+03  0.10702398781E+03  0.00000000000E+00 0. -1.
         21    1    1    2  502  501 -0.39481103920E+02 -0.12580251451E+02  0.70801851225E+02  0.82036104431E+02  0.00000000000E+00 0. -1.
<scales pt_clust_5="13000.00000" pt_clust_6="13000.00000" pt_clust_7="13000.00000" pt_clust_8="13000.00000" pt_clust_9="41.43694"></scales>
<clustering>
<clus scale="   41.437">  1  9  2 -1</clus>
<clus scale="   80.477">  5  6 -1 -1</clus>
<clus scale="   81.412">  2  5  1 -1</clus>
<clus scale="   92.908">  7  8 -1 -1</clus>
<clus scale="   41.437">  1  5  2 -1</clus>
</clustering>
</event>
<event>
 9    1  0.1973774E-005  0.1479681E+03  0.7546771E-02  0.1203974E+00
         -2   -1    0    0    0  501 -0.00000000000E+00  0.00000000000E+00  0.62918117798E+03  0.62918117798E+03  0.00000000000E+00 0.  1.
          1   -1    0    0  502    0  0.00000000000E+00 -0.00000000000E+00 -0.46170349709E+02  0.46170349709E+02  0.00000000000E+00 0. -1.
        -24    2    1    2    0    0  0.99462837959E+02 -0.72038722317E+02  0.30340350499E+03  0.33730064065E+03  0.81459202650E+02 0.  0.
         23    2    1    2    0    0 -0.10793579842E+03  0.47535998513E+02  0.27520154217E+03  0.31175287495E+03  0.86857115368E+02 0.  0.
         11    1    3    3    0    0  0.46243227205E+02  0.41352946525E+01  0.54372371296E+02  0.71497492855E+02  0.00000000000E+00 0. -1.
        -12    1    3    3    0    0  0.53219610754E+02 -0.76174016970E+02  0.24903113369E+03  0.26580314779E+03  0.00000000000E+00 0.  1.
        -13    1    4    4    0    0 -0.19700654274E+02  0.54490327063E+02  0.11144854297E+03  0.12561086439E+03  0.00000000000E+00 0. -1.
         13    1    4    4    0    0 -0.88235144144E+02 -0.69543285503E+01  0.16375299920E+03  0.18614201056E+03  0.00000000000E+00 0.  1.
         21    1    1    2  502  501  0.84729604595E+01  0.24502723804E+02  0.44057811139E+01  0.26298012092E+02  0.00000000000E+00 0. -1.
<scales pt_clust_5="13000.00000" pt_clust_6="13000.00000" pt_clust_7="13000.00000" pt_clust_8="13000.00000" pt_clust_9="25.92633"></scales>
<clustering>
<clus scale="   25.926">  2  9  1 -1</clus>
<clus scale="   81.459">  5  6 -1 -1</clus>
<clus scale="   86.857">  7  8 -1 -1</clus>
<clus scale="  144.865">  1  5  2 -1</clus>
<clus scale="   25.926">  2  5  1 -1</clus>
</clustering>
</event>
<event>
 9    1  0.1973774E-005  0.1253514E+03  0.7546771E-02  0.1237162E+00
          1   -1    0    0  502    0  0.00000000000E+00  0.00000000000E+00  0.43132558036E+03  0.43132558036E+03  0.00000000000E+00 0. -1.
         -2   -1    0    0    0  501 -0.00000000000E+00 -0.00000000000E+00 -0.15022029777E+03  0.15022029777E+03  0.00000000000E+00 0.  1.
        -24    2    1    2    0    0  0.43269455247E+02 -0.78856785916E+02 -0.10615918855E+03  0.16022488255E+03  0.79445586609E+02 0.  0.
         23    2    1    2    0    0 -0.61540574435E+02  0.41966881332E+02  0.33656952391E+03  0.35601650469E+03  0.88995762582E+02 0.  0.
         13    1    3    3    0    0  0.92413070492E+01 -0.84774681334E+02 -0.71363199865E+02  0.11119736798E+03  0.00000000000E+00 0. -1.
        -14    1    3    3    0    0  0.34028148198E+02  0.59178954179E+01 -0.34795988683E+02  0.49027514565E+02  0.00000000000E+00 0.  1.
        -13    1    4    4    0    0 -0.15103100917E+02  0.54028093319E+02  0.10028028396E+03  0.11490549977E+03  0.00000000000E+00 0.  1.
         13    1    4    4    0    0 -0.46437473518E+02 -0.12061211987E+02  0.23628923994E+03  0.24111100492E+03  0.00000000000E+00 0. -1.
         21    1    1    2  502  501  0.18271119187E+02  0.36889904584E+02  0.50694947229E+02  0.65304490895E+02  0.00000000000E+00 0.  1.
<scales pt_clust_5="13000.00000" pt_clust_6="13000.00000" pt_clust_7="13000.00000" pt_clust_8="13000.00000" pt_clust_9="41.16672"></scales>
<clustering>
<clus scale="   41.167">  1  9  2 -1</clus>
<clus scale="   79.446">  5  6 -1 -1</clus>
<clus scale="   88.996">  7  8 -1 -1</clus>
<clus scale="  118.762">  2  5  1 -1</clus>
<clus scale="   41.167">  1  5  2 -1</clus>
</clustering>
</event>
<event>
 9    1  0.1973774E-005  0.9074130E+02  0.7546771E-02  0.1304395E+00
          1   -1    0    0  502    0  0.00000000000E+00  0.00000000000E+00  0.37521350023E+03  0.37521350023E+03  0.00000000000E+00 0. -1.
         -2   -1    0    0    0  501 -0.00000000000E+00 -0.00000000000E+00 -0.45556565712E+02  0.45556565712E+02  0.00000000000E+00 0.  1.
        -24    2    1    2    0    0  0.38780609767E+00  0.39611436241E+01  0.19185609455E+02  0.87439973543E+02  0.85216314815E+02 0.  0.
         23    2    1    2    0    0  0.21303375961E+02  0.90114234693E+00  0.19938047265E+03  0.22003699157E+03  0.90603856997E+02 0.  0.
         11    1    3    3    0    0 -0.36350676595E+02 -0.19956486375E+02  0.89745278260E+01  0.42428471420E+02  0.00000000000E+00 0. -1.
        -12    1    3    3    0    0  0.36738482693E+02  0.23917629999E+02  0.10211081629E+02  0.45011502123E+02  0.00000000000E+00 0.  1.
        -11    1    4    4    0    0  0.46534695272E+02 -0.19295415517E+02  0.16641017516E+03  0.17386816074E+03  0.00000000000E+00 0.  1.
         11    1    4    4    0    0 -0.25231319311E+02  0.20196557864E+02  0.32970297490E+02  0.46168830831E+02  0.00000000000E+00 0. -1.
         21    1    1    2  502  501 -0.21691182058E+02 -0.48622859710E+01  0.11109085241E+03  0.11329310082E+03  0.00000000000E+00 0. -1.
<scales pt_clust_5="13000.00000" pt_clust_6="13000.00000" pt_clust_7="13000.00000" pt_clust_8="13000.00000" pt_clust_9="22.22947"></scales>
<clustering>
<clus scale="   22.229">  1  9  2 -1</clus>
<clus scale="   85.216">  5  6 -1 -1</clus>
<clus scale="   85.362">  2  5  1 -1</clus>
<clus scale="   90.604">  7  8 -1 -1</clus>
<clus scale="   22.229">  1  5  2 -1</clus>
</clustering>
</event>
<event>
 9    1  0.1973774E-005  0.1435498E+03  0.7546771E-02  0.1209048E+00
         -2   -1    0    0    0  501 -0.00000000000E+00  0.00000000000E+00  0.69373992230E+02  0.69373992230E+02  0.00000000000E+00 0.  1.
          1   -1    0    0  502    0  0.00000000000E+00 -0.00000000000E+00 -0.55396008192E+03  0.55396008192E+03  0.00000000000E+00 0. -1.
        -24    2    1    2    0    0 -0.42465810037E+02  0.93999978233E+02 -0.60157928630E+02  0.15028922996E+03  0.91260809410E+02 0.  0.
         23    2    1    2    0    0  0.31663476153E+02 -0.12132846407E+03 -0.24063938630E+03  0.28692163155E+03  0.93239136082E+02 0.  0.
         11    1    3    3    0    0 -0.47049491141E+01  0.43434985922E+02 -0.73763242425E+02  0.85730685763E+02  0.00000000000E+00 0. -1.
        -12    1    3    3    0    0 -0.37760860923E+02  0.50564992310E+02  0.13605313796E+02  0.64558544194E+02  0.00000000000E+00 0.  1.
        -11    1    4    4    0    0  0.35036089609E+01 -0.88336066559E+02 -0.22338048021E+03  0.24023816281E+03  0.00000000000E+00 0. -1.
         11    1    4    4    0    0  0.28159867192E+02 -0.32992397515E+02 -0.17258906081E+02  0.46683468736E+02  0.00000000000E+00 0.  1.
         21    1    1    2  502  501  0.10802333884E+02  0.27328485841E+02 -0.18378877476E+03  0.18612321264E+03  0.00000000000E+00 0.  1.
<scales pt_clust_5="13000.00000" pt_clust_6="13000.00000" pt_clust_7="13000.00000" pt_clust_8="13000.00000" pt_clust_9="29.38599"></scales>
<clustering>
<clus scale="   29.386">  2  9  1 -1</clus>
<clus scale="   91.261">  5  6 -1 -1</clus>
<clus scale="   93.239">  7  8 -1 -1</clus>
<clus scale="  142.273">  1  5  2 -1</clus>
<clus scale="   29.386">  2  5  1 -1</clus>
</clustering>
</event>
<event>
 9    1  0.1973774E-005  0.1199683E+03  0.7546771E-02  0.1244656E+00
          1   -1    0    0  502    0  0.00000000000E+00  0.00000000000E+00  0.35184032189E+03  0.35184032189E+03  0.00000000000E+00 0. -1.
         -2   -1    0    0    0  501 -0.00000000000E+00 -0.00000000000E+00 -0.87439312950E+02  0.87439312950E+02  0.00000000000E+00 0.  1.
        -24    2    1    2    0    0 -0.72497965998E+02 -0.45791189462E+02 -0.20428012167E+02  0.11924425202E+03  0.80306287752E+02 0.  0.
         23    2    1    2    0    0  0.55426218257E+02  0.57277571539E+02  0.19039743854E+03  0.22338805833E+03  0.85429819924E+02 0.  0.
         11    1    3    3    0    0 -0.32409040729E+02 -0.23044480492E+02  0.30824302151E+02  0.50314328031E+02  0.00000000000E+00 0. -1.
        -12    1    3    3    0    0 -0.40088925270E+02 -0.22746708969E+02 -0.51252314318E+02  0.68929923990E+02  0.00000000000E+00 0.  1.
        -13    1    4    4    0    0  0.76677457809E+02  0.52231267950E+02  0.13468433396E+03  0.16354634726E+03  0.00000000000E+00 0. -1.
         13    1    4    4    0    0 -0.21251239552E+02  0.50463035883E+01  0.55713104581E+02  0.59841711076E+02  0.00000000000E+00 0.  1.
         21    1    1    2  502  501  0.17071747741E+02 -0.11486382077E+02  0.94431582570E+02  0.96647324489E+02  0.00000000000E+00 0. -1.
<scales pt_clust_5="13000.00000" pt_clust_6="13000.00000" pt_clust_7="13000.00000" pt_clust_8="13000.00000" pt_clust_9="20.57624"></scales>
<clustering>
<clus scale="   20.576">  1  9  2 -1</clus>
<clus scale="   80.306">  5  6 -1 -1</clus>
<clus scale="   85.430">  7  8 -1 -1</clus>
<clus scale="  116.375">  2  5  1 -1</clus>
<clus scale="   20.576">  1  5  2 -1</clus>
</clustering>
</event>
<event>
 9    1  0.1973774E-005  0.9120834E+02  0.7546771E-02  0.1304842E+00
         -2   -1    0    0    0  501 -0.00000000000E+00  0.00000000000E+00  0.12396477019E+03  0.12396477019E+03  0.00000000000E+00 0.  1.
          1   -1    0    0  502    0  0.00000000000E+00 -0.00000000000E+00 -0.29879380820E+03  0.29879380820E+03  0.00000000000E+00 0. -1.
        -24    2    1    2    0    0  0.47877573973E+01  0.22728793491E+02  0.89475302821E+02  0.12222632176E+03  0.79962011245E+02 0.  0.
         23    2    1    2    0    0 -0.41721611059E+02 -0.16250300835E+02 -0.14501259045E+03  0.17548585675E+03  0.88101472309E+02 0.  0.
         13    1    3    3    0    0 -0.25164156124E+02  0.41217605519E+01 -0.58817673704E+00  0.25506266198E+02  0.00000000000E+00 0. -1.
        -14    1    3    3    0    0  0.29951913521E+02  0.18607032939E+02  0.90063479558E+02  0.96720055565E+02  0.00000000000E+00 0.  1.
        -13    1    4    4    0    0 -0.58657445354E+02  0.12487157703E+02 -0.11873826441E+03  0.13302405962E+03  0.00000000000E+00 0.  1.
         13    1    4    4    0    0  0.16935834295E+02 -0.28737458538E+02 -0.26274326042E+02  0.42461797129E+02  0.00000000000E+00 0. -1.
         21    1    1    2  502  501  0.36933853662E+02 -0.64784926554E+01 -0.11929175038E+03  0.12504639988E+03  0.00000000000E+00 0. -1.
<scales pt_clust_5="13000.00000" pt_clust_6="13000.00000" pt_clust_7="13000.00000" pt_clust_8="13000.00000" pt_clust_9="37.49774"></scales>
<clustering>
<clus scale="   37.498">  2  9  1 -1</clus>
<clus scale="   79.962">  5  6 -1 -1</clus>
<clus scale="   83.373">  1  5  2 -1</clus>
<clus scale="   88.101">  7  8 -1 -1</clus>
<clus scale="   37.498">  2  5  1 -1</clus>
</clustering>
</event>
<event>
 9    1  0.1973774E-005  0.9443507E+02  0.7546771E-02  0.1312512E+00
         -2   -1    0    0    0  501 -0.00000000000E+00  0.00000000000E+00  0.12353050364E+03  0.12353050364E+03  0.00000000000E+00 0.  1.
          1   -1    0    0  502    0  0.00000000000E+00 -0.00000000000E+00 -0.91134494157E+02  0.91134494157E+02  0.00000000000E+00 0. -1.
        -24    2    1    2    0    0  0.15411805426E+02  0.30468992503E+02  0.56628225896E+02  0.87898969750E+02  0.57910186188E+02 0.  0.
         23    2    1    2    0    0  0.14128887072E+02 -0.23716180012E+02 -0.13346346853E+02  0.94567345687E+02  0.89458231883E+02 0.  0.
         11    1    3    3    0    0  0.24323300524E+02  0.18674673714E+02  0.13682011855E+01  0.30695901374E+02  0.00000000000E+00 0. -1.
        -12    1    3    3    0    0 -0.89114950979E+01  0.11794318789E+02  0.55260024711E+02  0.57203068376E+02  0.00000000000E+00 0.  1.
        -11    1    4    4    0    0 -0.88196328607E+01  0.24885016320E+02  0.18366816493E+02  0.32161932609E+02  0.00000000000E+00 0.  1.
         11    1    4    4    0    0  0.22948519933E+02 -0.48601196332E+02 -0.31713163346E+02  0.62405413078E+02  0.00000000000E+00 0. -1.
         21    1    1    2  502  501 -0.29540692498E+02 -0.67528124913E+01 -0.10885869558E+02  0.32198682362E+02  0.00000000000E+00 0. -1.
<scales pt_clust_5="13000.00000" pt_clust_6="13000.00000" pt_clust_7="13000.00000" pt_clust_8="13000.00000" pt_clust_9="30.30269"></scales>
<clustering>
<clus scale="   30.303">  2  9  1 -1</clus>
<clus scale="   57.910">  5  6 -1 -1</clus>
<clus scale="   65.336">  1  5  2 -1</clus>
<clus scale="   89.458">  7  8 -1 -1</clus>
<clus scale="   30.303">  2  5  1 -1</clus>
</clustering>
</event>
<event>
 9    1  0.1973774E-005  0.9130372E+02  0.7546771E-02  0.1305727E+00
          1   -1    0    0  502    0  0.00000000000E+00  0.00000000000E+00  0.12556335212E+03  0.12556335212E+03  0.00000000000E+00 0. -1.
         -2   -1    0    0    0  501 -0.00000000000E+00 -0.00000000000E+00 -0.11527071260E+03  0.11527071260E+03  0.00000000000E+00 0.  1.
        -24    2    1    2    0    0 -0.30849481576E+01 -0.43924802216E+01 -0.63840344190E+02  0.10380812487E+03  0.81680636966E+02 0.  0.
         23    2    1    2    0    0  0.76468748359E+01 -0.16540738846E+02  0.53629457819E+02  0.10737116941E+03  0.91216108987E+02 0.  0.
         13    1    3    3    0    0 -0.30573574630E+02 -0.18733114158E+02 -0.35737537207E+01  0.36033938827E+02  0.00000000000E+00 0. -1.
        -14    1    3    3    0    0  0.27488626473E+02  0.14340633937E+02 -0.60266590469E+02  0.67774186043E+02  0.00000000000E+00 0.  1.
        -11    1    4    4    0    0 -0.81705950690E+01  0.21580684863E+02 -0.14831938043E+02  0.27431204294E+02  0.00000000000E+00 0.  1.
         11    1    4    4    0    0  0.15817469905E+02 -0.38121423709E+02  0.68461395862E+02  0.79939965119E+02  0.00000000000E+00 0. -1.
         21    1    1    2  502  501 -0.45619266783E+01  0.20933219068E+02  0.20503525887E+02  0.29654770432E+02  0.00000000000E+00 0. -1.
<scales pt_clust_5="13000.00000" pt_clust_6="13000.00000" pt_clust_7="13000.00000" pt_clust_8="13000.00000" pt_clust_9="21.42454"></scales>
<clustering>
<clus scale="   21.425">  1  9  2 -1</clus>
<clus scale="   81.681">  5  6 -1 -1</clus>
<clus scale="   81.778">  2  5  1 -1</clus>
<clus scale="   91.216">  7  8 -1 -1</clus>
<clus scale="   21.425">  1  5  2 -1</clus>
</clustering>
</event>
<event>
 9    1  0.1973774E-005  0.1433528E+03  0.7546771E-02  0.1210976E+00
          1   -1    0    0  502    0  0.00000000000E+00  0.00000000000E+00  0.25421669441E+03  0.25421669441E+03  0.00000000000E+00 0. -1.
         -2   -1    0    0    0  501 -0.00000000000E+00 -0.00000000000E+00 -0.28405842210E+03  0.28405842210E+03  0.00000000000E+00 0.  1.
         23    2    1    2    0    0  0.92786501942E+02 -0.53821242545E+02 -0.21104757998E+03  0.25313792404E+03  0.89619565265E+02 0.  0.
        -24    2    1    2    0    0 -0.12022198465E+03  0.74268365272E+02  0.84845615053E+02  0.18288218840E+03  0.79233835991E+02 0.  0.
         13    1    4    4    0    0 -0.12380349297E+03  0.68603596060E+02  0.95178708112E+02  0.17056595423E+03  0.00000000000E+00 0. -1.
        -14    1    4    4    0    0  0.35815083154E+01  0.56647692113E+01 -0.10333093058E+02  0.12316234172E+02  0.00000000000E+00 0.  1.
        -11    1    3    3    0    0  0.54800842165E+02  0.12167952931E+02 -0.13171433595E+03  0.14317771361E+03  0.00000000000E+00 0.  1.
         11    1    3    3    0    0  0.37985659778E+02 -0.65989195476E+02 -0.79333244033E+02  0.10996021043E+03  0.00000000000E+00 0. -1.
         21    1    1    2  502  501  0.27435482710E+02 -0.20447122726E+02  0.96360237234E+02  0.10225500408E+03  0.00000000000E+00 0. -1.
<scales pt_clust_5="13000.00000" pt_clust_6="13000.00000" pt_clust_7="13000.00000" pt_clust_8="13000.00000" pt_clust_9="34.21682"></scales>
<clustering>
<clus scale="   34.217">  1  9  2 -1</clus>
<clus scale="   79.234">  5  6 -1 -1</clus>
<clus scale="   89.620">  7  8 -1 -1</clus>
<clus scale="  137.100">  1  5  2 -1</clus>
<clus scale="   34.217">  1  5  2 -1</clus>
</clustering>
</event>
<event>
 9    1  0.1973774E-005  0.1108542E+03  0.7546771E-02  0.1263418E+00
         -2   -1    0    0    0  501 -0.00000000000E+00  0.00000000000E+00  0.33137932991E+03  0.33137932991E+03  0.00000000000E+00 0.  1.
          1   -1    0    0  502    0  0.00000000000E+00 -0.00000000000E+00 -0.14860629217E+03  0.14860629217E+03  0.00000000000E+00 0. -1.
         23    2    1    2    0    0 -0.14864617460E+02  0.60776011590E+02  0.28435841043E+03  0.30551225795E+03  0.92538390592E+02 0.  0.
        -24    2    1    2    0    0 -0.15765174881E+02 -0.47941458849E+02 -0.10383062192E+03  0.14118746521E+03  0.81278398537E+02 0.  0.
         13    1    4    4    0    0 -0.48305103671E+02 -0.38513580144E+02 -0.68223964388E+02  0.92039058084E+02  0.00000000000E+00 0. -1.
        -14    1    4    4    0    0  0.32539928790E+02 -0.94278787052E+01 -0.35606657530E+02  0.49148407126E+02  0.00000000000E+00 0.  1.
        -13    1    3    3    0    0 -0.47013769581E+02  0.59109887825E+02  0.23264330513E+03  0.24459595416E+03  0.00000000000E+00 0. -1.
         13    1    3    3    0    0  0.32149152121E+02  0.16661237649E+01  0.51715105307E+02  0.60916303790E+02  0.00000000000E+00 0.  1.
         21    1    1    2  502  501  0.30629792341E+02 -0.12834552741E+02  0.22452492215E+01  0.33285898921E+02  0.00000000000E+00 0.  1.
<scales pt_clust_5="13000.00000" pt_clust_6="13000.00000" pt_clust_7="13000.00000" pt_clust_8="13000.00000" pt_clust_9="33.21009"></scales>
<clustering>
<clus scale="   33.210">  2  9  1 -1</clus>
<clus scale="   81.278">  5  6 -1 -1</clus>
<clus scale="   92.538">  7  8 -1 -1</clus>
<clus scale="  101.644">  2  5  1 -1</clus>
<clus scale="   33.210">  2  5  1 -1</clus>
</clustering>
</event>
<event>
 9    1  0.1973774E-005  0.1218778E+03  0.7546771E-02  0.1244351E+00
         -4   -1    0    0    0  501 -0.00000000000E+00  0.00000000000E+00  0.61662806266E+02  0.61662806266E+02  0.00000000000E+00 0.  1.
          3   -1    0    0  502    0  0.00000000000E+00 -0.00000000000E+00 -0.43735323952E+03  0.43735323952E+03  0.00000000000E+00 0. -1.
        -24    2    1    2    0    0 -0.61178392431E+02 -0.52968358333E+02 -0.15620240010E+02  0.11497747703E+03  0.80170977545E+02 0.  0.
         23    2    1    2    0    0  0.51043408545E+02  0.35372257280E+02 -0.31787903850E+03  0.33721513222E+03  0.93863390843E+02 0.  0.
         13    1    3    3    0    0 -0.35322912184E+02  0.16073407876E+02 -0.13934608664E+02  0.41233916677E+02  0.00000000000E+00 0. -1.
        -14    1    3    3    0    0 -0.25855480247E+02 -0.69041766209E+02 -0.16856313457E+01  0.73743560349E+02  0.00000000000E+00 0.  1.
        -11    1    4    4    0    0  0.55060461799E+02 -0.15293269664E+02 -0.11997700054E+03  0.13289100500E+03  0.00000000000E+00 0.  1.
         11    1    4    4    0    0 -0.40170532544E+01  0.50665526943E+02 -0.19790203796E+03  0.20432412723E+03  0.00000000000E+00 0. -1.
         21    1    1    2  502  501  0.10134983886E+02  0.17596101053E+02 -0.42191154742E+02  0.46823436537E+02  0.00000000000E+00 0. -1.
<scales pt_clust_5="13000.00000" pt_clust_6="13000.00000" pt_clust_7="13000.00000" pt_clust_8="13000.00000" pt_clust_9="20.30617"></scales>
<clustering>
<clus scale="   20.306">  2  9  1 -1</clus>
<clus scale="   80.171">  5  6 -1 -1</clus>
<clus scale="   93.863">  7  8 -1 -1</clus>
<clus scale="  111.675">  1  5  2 -1</clus>
<clus scale="   20.306">  2  5  1 -1</clus>
</clustering>
</event>
<event>
 9    1  0.1973774E-005  0.1017351E+03  0.7546771E-02  0.1278093E+00
         -4   -1    0    0    0  501 -0.00000000000E+00  0.00000000000E+00  0.82923034084E+03  0.82923034084E+03  0.00000000000E+00 0.  1.
          3   -1    0    0  502    0  0.00000000000E+00 -0.00000000000E+00 -0.26678669720E+02  0.26678669720E+02  0.00000000000E+00 0. -1.
        -24    2    1    2    0    0  0.38626882341E+02 -0.82093093690E+01  0.54414501919E+03  0.55267375031E+03  0.88289543947E+02 0.  0.
         23    2    1    2    0    0 -0.60713194544E+02 -0.56055251751E+01  0.25413574153E+03  0.27683648157E+03  0.91301415649E+02 0.  0.
         11    1    3    3    0    0  0.17452447759E+02 -0.30891285450E+02  0.80266563005E+02  0.87758649638E+02  0.00000000000E+00 0. -1.
        -12    1    3    3    0    0  0.21174434583E+02  0.22681976081E+02  0.46387845619E+03  0.46491510067E+03  0.00000000000E+00 0.  1.
        -11    1    4    4    0    0 -0.11653660366E+02 -0.43441516343E+02  0.76940551078E+02  0.89122508618E+02  0.00000000000E+00 0.  1.
         11    1    4    4    0    0 -0.49059534178E+02  0.37835991168E+02  0.17719519045E+03  0.18771397295E+03  0.00000000000E+00 0. -1.
         21    1    1    2  502  501  0.22086312203E+02  0.13814834544E+02  0.42709103952E+01  0.26398778680E+02  0.00000000000E+00 0.  1.
<scales pt_clust_5="13000.00000" pt_clust_6="13000.00000" pt_clust_7="13000.00000" pt_clust_8="13000.00000" pt_clust_9="26.05100"></scales>
<clustering>
<clus scale="   26.051">  2  9  1 -1</clus>
<clus scale="   88.290">  5  6 -1 -1</clus>
<clus scale="   91.301">  7  8 -1 -1</clus>
<clus scale="   99.041">  1  5  2 -1</clus>
<clus scale="   26.051">  2  5  1 -1</clus>
</clustering>
</event>
<event>
 9    1  0.1973774E-005  0.1594983E+03  0.7546771E-02  0.1190594E+00
          1   -1    0    0  502    0  0.00000000000E+00  0.00000000000E+00  0.68374436934E+03  0.68374436934E+03  0.00000000000E+00 0. -1.
         -2   -1    0    0    0  501 -0.00000000000E+00 -0.00000000000E+00 -0.22217074360E+03  0.22217074360E+03  0.00000000000E+00 0.  1.
         23    2    1    2    0    0  0.12638590078E+02  0.10137224530E+03 -0.17846299668E+03  0.22477725302E+03  0.90772827512E+02 0.  0.
        -24    2    1    2    0    0 -0.36193426704E+02 -0.12755344065E+03  0.62254084259E+03  0.64181372445E+03  0.82388784671E+02 0.  0.
         11    1    4    4    0    0 -0.47138616239E+02 -0.57780460547E+02  0.43638845580E+03  0.44271380724E+03  0.00000000000E+00 0. -1.
        -12    1    4    4    0    0  0.10945189535E+02 -0.69772980101E+02  0.18615238678E+03  0.19909991721E+03  0.00000000000E+00 0.  1.
        -13    1    3    3    0    0 -0.39001347585E+02  0.33771635903E+02 -0.67692035303E+02  0.85110752250E+02  0.00000000000E+00 0. -1.
         13    1    3    3    0    0  0.51639937664E+02  0.67600609398E+02 -0.11077096138E+03  0.13966650077E+03  0.00000000000E+00 0.  1.
         21    1    1    2  502  501  0.23554836625E+02  0.26181195346E+02  0.17495779833E+02  0.39324135466E+02  0.00000000000E+00 0. -1.
<scales pt_clust_5="13000.00000" pt_clust_6="13000.00000" pt_clust_7="13000.00000" pt_clust_8="13000.00000" pt_clust_9="35.21768"></scales>
<clustering>
<clus scale="   35.218">  2  9  1 -1</clus>
<clus scale="   82.389">  5  6 -1 -1</clus>
<clus scale="   90.773">  7  8 -1 -1</clus>
<clus scale="  154.880">  1  5  2 -1</clus>
<clus scale="  154.880">  1  5  2 -1</clus>
</clustering>
</event>
<event>
 9    1  0.1973774E-005  0.1069863E+03  0.7546771E-02  0.1271771E+00
         -2   -1    0    0    0  501 -0.00000000000E+00  0.00000000000E+00  0.22550210256E+03  0.22550210256E+03  0.00000000000E+00 0.  1.
          1   -1    0    0  502    0  0.00000000000E+00 -0.00000000000E+00 -0.13072126081E+03  0.13072126081E+03  0.00000000000E+00 0. -1.
         23    2    1    2    0    0  0.30810434400E+02 -0.45851362482E+02  0.17661623849E+03  0.20665219666E+03  0.91979369284E+02 0.  0.
        -24    2    1    2    0    0 -0.48235372019E+02  0.28609171228E+02 -0.49148653455E+02  0.10871355057E+03  0.79106953860E+02 0.  0.
         11    1    4    4    0    0 -0.52498317702E+02 -0.60436274305E+01 -0.59638155968E+01  0.53180502918E+02  0.00000000000E+00 0. -1.
        -12    1    4    4    0    0  0.42629456832E+01  0.34652798659E+02 -0.43184837859E+02  0.55533047653E+02  0.00000000000E+00 0.  1.
        -13    1    3    3    0    0  0.13130094277E+02 -0.35342027013E+02  0.18161369546E+03  0.18548582864E+03  0.00000000000E+00 0.  1.
         13    1    3    3    0    0  0.17680340123E+02 -0.10509335469E+02 -0.49974569632E+01  0.21166368015E+02  0.00000000000E+00 0. -1.
         21    1    1    2  502  501  0.17424937619E+02  0.17242191254E+02 -0.32686743285E+02  0.40857616143E+02  0.00000000000E+00 0.  1.
<scales pt_clust_5="13000.00000" pt_clust_6="13000.00000" pt_clust_7="13000.00000" pt_clust_8="13000.00000" pt_clust_9="24.51370"></scales>
<clustering>
<clus scale="   24.514">  2  9  1 -1</clus>
<clus scale="   79.107">  5  6 -1 -1</clus>
<clus scale="   91.979">  7  8 -1 -1</clus>
<clus scale="   96.145">  2  5  1 -1</clus>
<clus scale="   24.514">  2  5  1 -1</clus>
</clustering>
</event>
<event>
 9    1  0.1973774E-005  0.1163452E+03  0.7546771E-02  0.1253744E+00
         -2   -1    0    0    0  501 -0.00000000000E+00  0.00000000000E+00  0.66359863594E+02  0.66359863594E+02  0.00000000000E+00 0.  1.
          1   -1    0    0  502    0  0.00000000000E+00 -0.00000000000E+00 -0.68297848822E+03  0.68297848822E+03  0.00000000000E+00 0. -1.
         23    2    1    2    0    0 -0.49179267253E+02  0.55701731639E+02  0.11254462911E+00  0.11895340891E+03  0.92890352517E+02 0.  0.
        -24    2    1    2    0    0  0.21334790363E+02 -0.39961220531E+02 -0.35570572378E+03  0.36740706975E+03  0.80058232199E+02 0.  0.
         13    1    4    4    0    0  0.34874347126E+02  0.12501928713E+02 -0.12190026652E+03  0.12740562502E+03  0.00000000000E+00 0. -1.
        -14    1    4    4    0    0 -0.13539556763E+02 -0.52463149244E+02 -0.23380545726E+03  0.24000144472E+03  0.00000000000E+00 0.  1.
        -11    1    3    3    0    0 -0.36776705063E+02 -0.74315582970E+01  0.29972656912E+02  0.48022018454E+02  0.00000000000E+00 0.  1.
         11    1    3    3    0    0 -0.12402562190E+02  0.63133289936E+02 -0.29860112283E+02  0.70931390460E+02  0.00000000000E+00 0. -1.
         21    1    1    2  502  501  0.27844476890E+02 -0.15740511108E+02 -0.26102544547E+03  0.26297787315E+03  0.00000000000E+00 0. -1.
<scales pt_clust_5="13000.00000" pt_clust_6="13000.00000" pt_clust_7="13000.00000" pt_clust_8="13000.00000" pt_clust_9="31.98560"></scales>
<clustering>
<clus scale="   31.986">  2  9  1 -1</clus>
<clus scale="   80.058">  5  6 -1 -1</clus>
<clus scale="   92.890">  7  8 -1 -1</clus>
<clus scale="  106.381">  2  5  1 -1</clus>
<clus scale="   31.986">  2  5  1 -1</clus>
</clustering>
</event>
<event>
 9    1  0.1973774E-005  0.1146735E+03  0.7546771E-02  0.1254792E+00
         -2   -1    0    0    0  501 -0.00000000000E+00  0.00000000000E+00  0.73816187470E+03  0.73816187470E+03  0.00000000000E+00 0.  1.
          1   -1    0    0  502    0  0.00000000000E+00 -0.00000000000E+00 -0.29963526384E+02  0.29963526384E+02  0.00000000000E+00 0. -1.
        -24    2    1    2    0    0 -0.75401401596E+02 -0.68992542879E+01  0.48207677021E+03  0.49496119193E+03  0.82798539049E+02 0.  0.
         23    2    1    2    0    0  0.57230945965E+02 -0.30732557886E+02  0.15837201714E+03  0.19356319310E+03  0.90361178725E+02 0.  0.
         11    1    3    3    0    0 -0.67647238259E+02 -0.32868138418E+02  0.24350985988E+03  0.25485979523E+03  0.00000000000E+00 0. -1.
        -12    1    3    3    0    0 -0.77541633378E+01  0.25968884130E+02  0.23856691033E+03  0.24010139670E+03  0.00000000000E+00 0.  1.
        -13    1    4    4    0    0  0.64608161023E+02 -0.49453254576E+01  0.15307334481E+03  0.16622310190E+03  0.00000000000E+00 0.  1.
         13    1    4    4    0    0 -0.73772150576E+01 -0.25787232429E+02  0.52986723296E+01  0.27340091199E+02  0.00000000000E+00 0. -1.
         21    1    1    2  502  501  0.18170455631E+02  0.37631812174E+02  0.67749560966E+02  0.79601016051E+02  0.00000000000E+00 0.  1.
<scales pt_clust_5="13000.00000" pt_clust_6="13000.00000" pt_clust_7="13000.00000" pt_clust_8="13000.00000" pt_clust_9="41.78898"></scales>
<clustering>
<clus scale="   41.789">  2  9  1 -1</clus>
<clus scale="   82.799">  5  6 -1 -1</clus>
<clus scale="   90.361">  7  8 -1 -1</clus>
<clus scale="  108.814">  1  5  2 -1</clus>
<clus scale="   41.789">  2  5  1 -1</clus>
</clustering>
</event>
<event>
 9    1  0.1973774E-005  0.1117580E+03  0.7546771E-02  0.1263866E+00
          1   -1    0    0  502    0  0.00000000000E+00  0.00000000000E+00  0.61423175961E+03  0.61423175961E+03  0.00000000000E+00 0. -1.
         -2   -1    0    0    0  501 -0.00000000000E+00 -0.00000000000E+00 -0.45578908006E+02  0.45578908006E+02  0.00000000000E+00 0.  1.
        -24    2    1    2    0    0  0.49429321186E+02  0.22000646276E+02  0.27686462955E+02  0.10136147661E+03  0.81119186884E+02 0.  0.
         23    2    1    2    0    0 -0.66626529815E+02 -0.11774264014E+02  0.44660372660E+03  0.46198865571E+03  0.96958246840E+02 0.  0.
         13    1    3    3    0    0  0.43164425870E+02 -0.13580825702E+02  0.42719463558E+02  0.62229888752E+02  0.00000000000E+00 0. -1.
        -14    1    3    3    0    0  0.62648953164E+01  0.35581471977E+02 -0.15033000603E+02  0.39131587861E+02  0.00000000000E+00 0.  1.
        -13    1    4    4    0    0 -0.53776144787E+02 -0.52209185215E+02  0.25766666084E+03  0.26834638227E+03  0.00000000000E+00 0. -1.
         13    1    4    4    0    0 -0.12850385028E+02  0.40434921201E+02  0.18893706576E+03  0.19364227345E+03  0.00000000000E+00 0.  1.
         21    1    1    2  502  501  0.17197208628E+02 -0.10226382261E+02  0.94362662048E+02  0.96460535285E+02  0.00000000000E+00 0. -1.
<scales pt_clust_5="13000.00000" pt_clust_6="13000.00000" pt_clust_7="13000.00000" pt_clust_8="13000.00000" pt_clust_9="20.00807"></scales>
<clustering>
<clus scale="   20.008">  1  9  2 -1</clus>
<clus scale="   81.119">  5  6 -1 -1</clus>
<clus scale="   96.958">  7  8 -1 -1</clus>
<clus scale="   98.332">  2  5  1 -1</clus>
<clus scale="   20.008">  1  5  2 -1</clus>
</clustering>
</event>
<event>
 9    1  0.1973774E-005  0.9528382E+02  0.7546771E-02  0.1293307E+00
          3   -1    0    0  502    0  0.00000000000E+00  0.00000000000E+00  0.16794780456E+03  0.16794780456E+03  0.00000000000E+00 0. -1.
         -4   -1    0    0    0  501 -0.00000000000E+00 -0.00000000000E+00 -0.23417533807E+03  0.23417533807E+03  0.00000000000E+00 0.  1.
         23    2    1    2    0    0 -0.27091242904E+02 -0.11051297799E+02 -0.16420337981E+03  0.18813364665E+03  0.87037075078E+02 0.  0.
        -24    2    1    2    0    0 -0.14573509450E+02  0.39294692872E+02  0.12634120158E+03  0.15621204073E+03  0.81753546626E+02 0.  0.
         11    1    4    4    0    0 -0.27840783370E+02  0.40365099712E+02  0.26988469708E+02  0.55971671322E+02  0.00000000000E+00 0. -1.
        -12    1    4    4    0    0  0.13267273920E+02 -0.10704068400E+01  0.99352731873E+02  0.10024036941E+03  0.00000000000E+00 0.  1.
        -13    1    3    3    0    0  0.62908593077E+01 -0.25796603482E+02 -0.14398629716E+03  0.14641411623E+03  0.00000000000E+00 0.  1.
         13    1    3    3    0    0 -0.33382102212E+02  0.14745305683E+02 -0.20217082644E+02  0.41719530419E+02  0.00000000000E+00 0. -1.
         21    1    1    2  502  501  0.41664752354E+02 -0.28243395073E+02 -0.28365355286E+02  0.57777455244E+02  0.00000000000E+00 0.  1.
<scales pt_clust_5="13000.00000" pt_clust_6="13000.00000" pt_clust_7="13000.00000" pt_clust_8="13000.00000" pt_clust_9="50.33529"></scales>
<clustering>
<clus scale="   50.335">  2  9  1 -1</clus>
<clus scale="   81.754">  5  6 -1 -1</clus>
<clus scale="   87.037">  7  8 -1 -1</clus>
<clus scale="   90.483">  1  5  2 -1</clus>
<clus scale="   90.483">  1  5  2 -1</clus>
</clustering>
</event>
<event>
 9    1  0.1973774E-005  0.1110638E+03  0.7546771E-02  0.1259518E+00
         -2   -1    0    0    0  501 -0.00000000000E+00  0.00000000000E+00  0.11227804285E+03  0.11227804285E+03  0.00000000000E+00 0.  1.
          1   -1    0    0  502    0  0.00000000000E+00 -0.00000000000E+00 -0.18951275485E+03  0.18951275485E+03  0.00000000000E+00 0. -1.
         23    2    1    2    0    0  0.70905053931E+02  0.34153612596E+01  0.87581513782E+01  0.11525856048E+03  0.90380524356E+02 0.  0.
        -24    2    1    2    0    0 -0.56429419893E+02  0.20524851477E+02 -0.11693315620E+02  0.10714016857E+03  0.87958701295E+02 0.  0.
         13    1    4    4    0    0 -0.30043966155E+02 -0.30976023414E+02 -0.21881850496E+02  0.48383564461E+02  0.00000000000E+00 0. -1.
        -14    1    4    4    0    0 -0.26385453738E+02  0.51500874891E+02  0.10188534876E+02  0.58756604109E+02  0.00000000000E+00 0.  1.
        -13    1    3    3    0    0  0.15073270453E+02 -0.34718799520E+02  0.25457718812E+02  0.45614624512E+02  0.00000000000E+00 0. -1.
         13    1    3    3    0    0  0.55831783477E+02  0.38134160780E+02 -0.16699567434E+02  0.69643935968E+02  0.00000000000E+00 0.  1.
         21    1    1    2  502  501 -0.14475634038E+02 -0.23940212736E+02 -0.74299547762E+02  0.79392068649E+02  0.00000000000E+00 0. -1.
<scales pt_clust_5="13000.00000" pt_clust_6="13000.00000" pt_clust_7="13000.00000" pt_clust_8="13000.00000" pt_clust_9="27.97638"></scales>
<clustering>
<clus scale="   27.976">  2  9  1 -1</clus>
<clus scale="   87.959">  5  6 -1 -1</clus>
<clus scale="   90.381">  7  8 -1 -1</clus>
<clus scale="  109.102">  2  5  1 -1</clus>
<clus scale="   27.976">  2  5  1 -1</clus>
</clustering>
</event>
<event>
 9    1  0.1973774E-005  0.2156452E+03  0.7546771E-02  0.1173815E+00
         -2   -1    0    0    0  501 -0.00000000000E+00  0.00000000000E+00  0.20319616721E+03  0.20319616721E+03  0.00000000000E+00 0.  1.
          1   -1    0    0  502    0  0.00000000000E+00 -0.00000000000E+00 -0.78356990903E+03  0.78356990903E+03  0.00000000000E+00 0. -1.
         23    2    1    2    0    0  0.10128167127E+03  0.17384994718E+03  0.11294284735E+03  0.24727773629E+03  0.88929247325E+02 0.  0.
        -24    2    1    2    0    0 -0.99303720508E+01 -0.42849993185E+02 -0.17854839814E+03  0.20051492844E+03  0.79949808277E+02 0.  0.
         13    1    4    4    0    0  0.37616266456E+01 -0.64801028482E+02 -0.11809055881E+03  0.13475423261E+03  0.00000000000E+00 0. -1.
        -14    1    4    4    0    0 -0.13691998696E+02  0.21951035297E+02 -0.60457839328E+02  0.65760695823E+02  0.00000000000E+00 0.  1.
        -13    1    3    3    0    0  0.81105803346E+02  0.18011079744E+03  0.93396166120E+02  0.21849689823E+03  0.00000000000E+00 0.  1.
         13    1    3    3    0    0  0.20175867923E+02 -0.62608502613E+01  0.19546681231E+02  0.28780838063E+02  0.00000000000E+00 0. -1.
         21    1    1    2  502  501 -0.91351299218E+02 -0.13099995399E+03 -0.51476819104E+03  0.53897341151E+03  0.00000000000E+00 0. -1.
<scales pt_clust_5="13000.00000" pt_clust_6="13000.00000" pt_clust_7="13000.00000" pt_clust_8="13000.00000" pt_clust_9="196.45473"></scales>
<clustering>
<clus scale="   79.950">  5  6 -1 -1</clus>
<clus scale="   88.929">  7  8 -1 -1</clus>
<clus scale="   91.251">  2  5  1 -1</clus>
<clus scale="  196.455">  2  9  1 -1</clus>
<clus scale="   91.251">  2  5  1 -1</clus>
</clustering>
</event>
<event>
 9    1  0.1973774E-005  0.1089872E+03  0.7546771E-02  0.1266290E+00
          1   -1    0    0  502    0  0.00000000000E+00  0.00000000000E+00  0.16464934448E+03  0.16464934448E+03  0.00000000000E+00 0. -1.
         -2   -1    0    0    0  501 -0.00000000000E+00 -0.00000000000E+00 -0.53899645870E+03  0.53899645870E+03  0.00000000000E+00 0.  1.
         23    2    1    2    0    0  0.60317464338E+02 -0.94963642192E+01 -0.43583293301E+03  0.44928000570E+03  0.90409073610E+02 0.  0.
        -24    2    1    2    0    0 -0.56905018675E+02 -0.22417377683E+02  0.13811377826E+03  0.17128766630E+03  0.80767127641E+02 0.  0.
         13    1    4    4    0    0 -0.42762591919E+02 -0.50511293744E+02  0.11334888624E+03  0.13125547636E+03  0.00000000000E+00 0. -1.
        -14    1    4    4    0    0 -0.14142426757E+02  0.28093916060E+02  0.24764892019E+02  0.40032189934E+02  0.00000000000E+00 0.  1.
        -13    1    3    3    0    0 -0.19501424295E+02 -0.19996667294E+02 -0.91933365209E+02  0.96082859507E+02  0.00000000000E+00 0. -1.
         13    1    3    3    0    0  0.79818888633E+02  0.10500303075E+02 -0.34389956780E+03  0.35319714620E+03  0.00000000000E+00 0.  1.
         21    1    1    2  502  501 -0.34124456625E+01  0.31913741903E+02 -0.76627959470E+02  0.83078131179E+02  0.00000000000E+00 0. -1.
<scales pt_clust_5="13000.00000" pt_clust_6="13000.00000" pt_clust_7="13000.00000" pt_clust_8="13000.00000" pt_clust_9="32.09566"></scales>
<clustering>
<clus scale="   32.096">  2  9  1 -1</clus>
<clus scale="   80.767">  5  6 -1 -1</clus>
<clus scale="   90.409">  7  8 -1 -1</clus>
<clus scale="  101.132">  1  5  2 -1</clus>
<clus scale="  101.132">  1  5  2 -1</clus>
</clustering>
</event>
<event>
 9    1  0.1973774E-005  0.9516340E+02  0.7546771E-02  0.1296038E+00
          3   -1    0    0  502    0  0.00000000000E+00  0.00000000000E+00  0.35645750740E+02  0.35645750740E+02  0.00000000000E+00 0. -1.
         -4   -1    0    0    0  501 -0.00000000000E+00 -0.00000000000E+00 -0.49522921778E+03  0.49522921778E+03  0.00000000000E+00 0.  1.
        -24    2    1    2    0    0 -0.12913141405E+02  0.17945957776E+02 -0.29307693948E+03  0.30489732085E+03  0.81113976518E+02 0.  0.
         23    2    1    2    0    0  0.26235034712E+02 -0.39182998847E+02 -0.17231236531E+03  0.20024454629E+03  0.90458513323E+02 0.  0.
         11    1    3    3    0    0 -0.46179458110E+02  0.76662865700E+01 -0.20294667155E+03  0.20827545654E+03  0.00000000000E+00 0. -1.
        -12    1    3    3    0    0  0.33266316705E+02  0.10279671206E+02 -0.90130267927E+02  0.96621864316E+02  0.00000000000E+00 0.  1.
        -13    1    4    4    0    0 -0.22853434173E+02  0.16192958416E+02 -0.46835386194E+02  0.54571464665E+02  0.00000000000E+00 0. -1.
         13    1    4    4    0    0  0.49088468884E+02 -0.55375957263E+02 -0.12547697912E+03  0.14567308162E+03  0.00000000000E+00 0.  1.
         21    1    1    2  502  501 -0.13321893307E+02  0.21237041071E+02  0.58058377528E+01  0.25733101382E+02  0.00000000000E+00 0. -1.
<scales pt_clust_5="13000.00000" pt_clust_6="13000.00000" pt_clust_7="13000.00000" pt_clust_8="13000.00000" pt_clust_9="25.06960"></scales>
<clustering>
<clus scale="   25.070">  1  9  2 -1</clus>
<clus scale="   81.114">  5  6 -1 -1</clus>
<clus scale="   86.330">  2  5  1 -1</clus>
<clus scale="   90.459">  7  8 -1 -1</clus>
<clus scale="   25.070">  1  5  2 -1</clus>
</clustering>
</event>
<event>
 9    1  0.1973774E-005  0.9374591E+02  0.7546771E-02  0.1298915E+00
         -2   -1    0    0    0  501 -0.00000000000E+00  0.00000000000E+00  0.79079056624E+02  0.79079056624E+02  0.00000000000E+00 0.  1.
          1   -1    0    0  502    0  0.00000000000E+00 -0.00000000000E+00 -0.19700086828E+03  0.19700086828E+03  0.00000000000E+00 0. -1.
        -24    2    1    2    0    0 -0.16393150296E+02 -0.72379898063E+01  0.23052442592E+02  0.88243958291E+02  0.83273388260E+02 0.  0.
         23    2    1    2    0    0  0.30246690231E+02 -0.83219588257E+01 -0.87729804899E+02  0.13066076258E+03  0.91605670900E+02 0.  0.
         11    1    3    3    0    0 -0.15717396970E+02 -0.36247491070E+02 -0.13339430536E+02  0.41699611310E+02  0.00000000000E+00 0. -1.
        -12    1    3    3    0    0 -0.67575332615E+00  0.29009501264E+02  0.36391873128E+02  0.46544346981E+02  0.00000000000E+00 0.  1.
        -13    1    4    4    0    0 -0.12156774789E+02 -0.36831969147E+02 -0.62787295806E+02  0.73801257707E+02  0.00000000000E+00 0.  1.
         13    1    4    4    0    0  0.42403465020E+02  0.28510010321E+02 -0.24942509092E+02  0.56859504870E+02  0.00000000000E+00 0. -1.
         21    1    1    2  502  501 -0.13853539935E+02  0.15559948632E+02 -0.53244449348E+02  0.57175204036E+02  0.00000000000E+00 0. -1.
<scales pt_clust_5="13000.00000" pt_clust_6="13000.00000" pt_clust_7="13000.00000" pt_clust_8="13000.00000" pt_clust_9="20.83345"></scales>
<clustering>
<clus scale="   20.833">  2  9  1 -1</clus>
<clus scale="   83.273">  5  6 -1 -1</clus>
<clus scale="   85.622">  1  5  2 -1</clus>
<clus scale="   91.606">  7  8 -1 -1</clus>
<clus scale="   20.833">  2  5  1 -1</clus>
</clustering>
</event>
<event>
 9    1  0.1973774E-005  0.2904913E+03  0.7546771E-02  0.1129165E+00
         -2   -1    0    0    0  501 -0.00000000000E+00  0.00000000000E+00  0.13725827264E+03  0.13725827264E+03  0.00000000000E+00 0.  1.
          1   -1    0    0  502    0  0.00000000000E+00 -0.00000000000E+00 -0.13402854376E+04  0.13402854376E+04  0.00000000000E+00 0. -1.
        -24    2    1    2    0    0  0.81106630096E+01 -0.67556371263E+02  0.17630198503E+02  0.10870769109E+03  0.82927028464E+02 0.  0.
         23    2    1    2    0    0 -0.13268050702E+03 -0.19628540849E+03 -0.25593983617E+03  0.36096200012E+03  0.93039170586E+02 0.  0.
         11    1    3    3    0    0  0.37196479364E+02 -0.48919657909E+01  0.12017442858E+02  0.39394521690E+02  0.00000000000E+00 0. -1.
        -12    1    3    3    0    0 -0.29085816354E+02 -0.62664405472E+02  0.56127556441E+01  0.69313169399E+02  0.00000000000E+00 0.  1.
        -13    1    4    4    0    0 -0.84058141897E+02 -0.16335429616E+03 -0.23571729142E+03  0.29885287144E+03  0.00000000000E+00 0.  1.
         13    1    4    4    0    0 -0.48622365122E+02 -0.32931112334E+02 -0.20222544748E+02  0.62109128683E+02  0.00000000000E+00 0. -1.
         21    1    1    2  502  501  0.12456984401E+03  0.26384177975E+03 -0.96471752733E+03  0.10078740191E+04  0.00000000000E+00 0. -1.
<scales pt_clust_5="13000.00000" pt_clust_6="13000.00000" pt_clust_7="13000.00000" pt_clust_8="13000.00000" pt_clust_9="275.18883"></scales>
<clustering>
<clus scale="   82.927">  5  6 -1 -1</clus>
<clus scale="   93.039">  7  8 -1 -1</clus>
<clus scale="  107.269">  1  5  2 -1</clus>
<clus scale="  275.189">  2  9  1 -1</clus>
<clus scale="  275.189">  2  5  1 -1</clus>
</clustering>
</event>
<event>
 9    1  0.1973774E-005  0.2194335E+03  0.7546771E-02  0.1135781E+00
          1   -1    0    0  502    0  0.00000000000E+00  0.00000000000E+00  0.12334224793E+04  0.12334224793E+04  0.00000000000E+00 0. -1.
         -2   -1    0    0    0  501 -0.00000000000E+00 -0.00000000000E+00 -0.52461176500E+02  0.52461176500E+02  0.00000000000E+00 0.  1.
         23    2    1    2    0    0 -0.16635032234E+03 -0.42799192939E+02  0.26773774127E+03  0.33195804428E+03  0.94912825287E+02 0.  0.
        -24    2    1    2    0    0  0.20952047121E+03  0.23020251665E+02  0.80899192830E+03  0.83938696461E+03  0.75324474486E+02 0.  0.
         13    1    4    4    0    0  0.20816945285E+03  0.17144484678E+02  0.80605935952E+03  0.83268249983E+03  0.00000000000E+00 0. -1.
        -14    1    4    4    0    0  0.13510183616E+01  0.58757669874E+01  0.29325687799E+01  0.67044647775E+01  0.00000000000E+00 0.  1.
        -13    1    3    3    0    0 -0.18375104699E+02 -0.36564368641E+02  0.10080355124E+03  0.10879316830E+03  0.00000000000E+00 0. -1.
         13    1    3    3    0    0 -0.14797521764E+03 -0.62348242984E+01  0.16693419003E+03  0.22316487598E+03  0.00000000000E+00 0.  1.
         21    1    1    2  502  501 -0.43170148872E+02  0.19778941274E+02  0.10423163325E+03  0.11453864693E+03  0.00000000000E+00 0. -1.
<scales pt_clust_5="13000.00000" pt_clust_6="13000.00000" pt_clust_7="13000.00000" pt_clust_8="13000.00000" pt_clust_9="47.48545"></scales>
<clustering>
<clus scale="   47.485">  2  9  1 -1</clus>
<clus scale="   75.324">  5  6 -1 -1</clus>
<clus scale="   94.913">  7  8 -1 -1</clus>
<clus scale="  211.699">  1  5  2 -1</clus>
<clus scale="  211.699">  1  5  2 -1</clus>
</clustering>
</event>
<event>
 9    1  0.1973774E-005  0.1483755E+03  0.7546771E-02  0.1205589E+00
         -4   -1    0    0    0  501 -0.00000000000E+00  0.00000000000E+00  0.77504910231E+03  0.77504910231E+03  0.00000000000E+00 0.  1.
          3   -1    0    0  502    0  0.00000000000E+00 -0.00000000000E+00 -0.54150634363E+02  0.54150634363E+02  0.00000000000E+00 0. -1.
         23    2    1    2    0    0  0.11634514821E+03  0.13468711012E+02  0.63488098545E+03  0.65273856326E+03  0.96312857853E+02 0.  0.
        -24    2    1    2    0    0 -0.93088335410E+02 -0.56551272332E+01  0.50467991142E+02  0.13326744970E+03  0.80720359053E+02 0.  0.
         13    1    4    4    0    0 -0.72449016810E+02 -0.36725153000E+02  0.51098285712E+02  0.95961615776E+02  0.00000000000E+00 0. -1.
        -14    1    4    4    0    0 -0.20639318600E+02  0.31070025766E+02 -0.63029457001E+00  0.37305833923E+02  0.00000000000E+00 0.  1.
        -13    1    3    3    0    0  0.11048105253E+03  0.45196696086E+02  0.50152987005E+03  0.51553953763E+03  0.00000000000E+00 0.  1.
         13    1    3    3    0    0  0.58640956793E+01 -0.31727985074E+02  0.13335111540E+03  0.13719902563E+03  0.00000000000E+00 0. -1.
         21    1    1    2  502  501 -0.23256812800E+02 -0.78135837791E+01  0.35549491358E+02  0.43193723721E+02  0.00000000000E+00 0. -1.
<scales pt_clust_5="13000.00000" pt_clust_6="13000.00000" pt_clust_7="13000.00000" pt_clust_8="13000.00000" pt_clust_9="24.53429"></scales>
<clustering>
<clus scale="   24.534">  2  9  1 -1</clus>
<clus scale="   80.720">  5  6 -1 -1</clus>
<clus scale="   96.313">  7  8 -1 -1</clus>
<clus scale="  138.762">  2  5  1 -1</clus>
<clus scale="   24.534">  2  5  1 -1</clus>
</clustering>
</event>
<event>
 9    1  0.1973774E-005  0.1025073E+03  0.7546771E-02  0.1275290E+00
         -2   -1    0    0    0  501 -0.00000000000E+00  0.00000000000E+00  0.63471739995E+03  0.63471739995E+03  0.00000000000E+00 0.  1.
          1   -1    0    0  502    0  0.00000000000E+00 -0.00000000000E+00 -0.62299846148E+02  0.62299846148E+02  0.00000000000E+00 0. -1.
        -24    2    1    2    0    0  0.31398992249E+02  0.63375530491E+02  0.45769881698E+03  0.47097175534E+03  0.85579394019E+02 0.  0.
         23    2    1    2    0    0  0.25633675785E+02 -0.31337148871E+02  0.12786112036E+03  0.15932289065E+03  0.86001250878E+02 0.  0.
         13    1    3    3    0    0 -0.10336580497E+02 -0.17220156734E+02  0.93687285924E+02  0.95815897628E+02  0.00000000000E+00 0. -1.
        -14    1    3    3    0    0  0.41735572746E+02  0.80595687225E+02  0.36401153106E+03  0.37515585771E+03  0.00000000000E+00 0.  1.
        -11    1    4    4    0    0  0.10465706419E+01  0.29137630837E+02  0.31416211302E+02  0.42861114935E+02  0.00000000000E+00 0.  1.
         11    1    4    4    0    0  0.24587105143E+02 -0.60474779708E+02  0.96444909055E+02  0.11646177572E+03  0.00000000000E+00 0. -1.
         21    1    1    2  502  501 -0.57032668034E+02 -0.32038381620E+02 -0.13142383540E+02  0.66722600107E+02  0.00000000000E+00 0. -1.
<scales pt_clust_5="13000.00000" pt_clust_6="13000.00000" pt_clust_7="13000.00000" pt_clust_8="13000.00000" pt_clust_9="65.41547"></scales>
<clustering>
<clus scale="   65.415">  2  9  1 -1</clus>
<clus scale="   85.579">  5  6 -1 -1</clus>
<clus scale="   86.001">  7  8 -1 -1</clus>
<clus scale="  102.154">  1  5  2 -1</clus>
<clus scale="   65.415">  2  5  1 -1</clus>
</clustering>
</event>
<event>
 9    1  0.1973774E-005  0.9677707E+02  0.7546771E-02  0.1291575E+00
          1   -1    0    0  502    0  0.00000000000E+00  0.00000000000E+00  0.28907183580E+03  0.28907183580E+03  0.00000000000E+00 0. -1.
         -2   -1    0    0    0  501 -0.00000000000E+00 -0.00000000000E+00 -0.13970865377E+03  0.13970865377E+03  0.00000000000E+00 0.  1.
        -24    2    1    2    0    0 -0.29620615793E+02 -0.25087725427E+02 -0.10958161454E+03  0.14105687023E+03  0.79888269150E+02 0.  0.
         23    2    1    2    0    0  0.50544809695E+02  0.19686270104E+02  0.20765510483E+03  0.23206726221E+03  0.88273691498E+02 0.  0.
         13    1    3    3    0    0  0.25066113433E+02  0.41655303646E+01 -0.43886198783E+02  0.50711538426E+02  0.00000000000E+00 0. -1.
        -14    1    3    3    0    0 -0.54686729227E+02 -0.29253255792E+02 -0.65695415756E+02  0.90345331807E+02  0.00000000000E+00 0.  1.
        -13    1    4    4    0    0 -0.68510617061E+01 -0.28073651114E+02  0.55002864206E+02  0.62131972480E+02  0.00000000000E+00 0.  1.
         13    1    4    4    0    0  0.57395871401E+02  0.47759921219E+02  0.15265224063E+03  0.16993528973E+03  0.00000000000E+00 0. -1.
         21    1    1    2  502  501 -0.20924193901E+02  0.54014553231E+01  0.51289691731E+02  0.55656357120E+02  0.00000000000E+00 0. -1.
<scales pt_clust_5="13000.00000" pt_clust_6="13000.00000" pt_clust_7="13000.00000" pt_clust_8="13000.00000" pt_clust_9="21.61013"></scales>
<clustering>
<clus scale="   21.610">  1  9  2 -1</clus>
<clus scale="   79.888">  5  6 -1 -1</clus>
<clus scale="   88.274">  7  8 -1 -1</clus>
<clus scale="   89.195">  2  5  1 -1</clus>
<clus scale="   21.610">  1  5  2 -1</clus>
</clustering>
</event>
<event>
 9    1  0.1973774E-005  0.1263726E+03  0.7546771E-02  0.1235914E+00
         -2   -1    0    0    0  501 -0.00000000000E+00  0.00000000000E+00  0.21266959323E+03  0.21266959323E+03  0.00000000000E+00 0.  1.
          1   -1    0    0  502    0  0.00000000000E+00 -0.00000000000E+00 -0.14475912915E+03  0.14475912915E+03  0.00000000000E+00 0. -1.
         23    2    1    2    0    0  0.21097934506E+02  0.88333770675E+02  0.14653712895E+03  0.19482442843E+03  0.90749379441E+02 0.  0.
        -24    2    1    2    0    0  0.67305119488E+01 -0.79271200113E+02 -0.66104741695E+02  0.13077111665E+03  0.80012655985E+02 0.  0.
         11    1    4    4    0    0 -0.17527259934E+02 -0.69288054349E+02 -0.14564475321E+02  0.72939449255E+02  0.00000000000E+00 0. -1.
        -12    1    4    4    0    0  0.24257771883E+02 -0.99831457634E+01 -0.51540266375E+02  0.57831667398E+02  0.00000000000E+00 0.  1.
        -11    1    3    3    0    0 -0.19788082596E+02 -0.77754213396E+01  0.11700528806E+02  0.24267833941E+02  0.00000000000E+00 0. -1.
         11    1    3    3    0    0  0.40886017103E+02  0.96109192015E+02  0.13483660014E+03  0.17055659448E+03  0.00000000000E+00 0.  1.
         21    1    1    2  502  501 -0.27828446455E+02 -0.90625705623E+01 -0.12521923168E+02  0.31833177302E+02  0.00000000000E+00 0. -1.
<scales pt_clust_5="13000.00000" pt_clust_6="13000.00000" pt_clust_7="13000.00000" pt_clust_8="13000.00000" pt_clust_9="29.26692"></scales>
<clustering>
<clus scale="   29.267">  2  9  1 -1</clus>
<clus scale="   80.013">  5  6 -1 -1</clus>
<clus scale="   90.749">  7  8 -1 -1</clus>
<clus scale="  118.897">  2  5  1 -1</clus>
<clus scale="   29.267">  2  5  1 -1</clus>
</clustering>
</event>
<event>
 9    1  0.1973774E-005  0.1316747E+03  0.7546771E-02  0.1237784E+00
         -2   -1    0    0    0  501 -0.00000000000E+00  0.00000000000E+00  0.11396188379E+03  0.11396188379E+03  0.00000000000E+00 0.  1.
          1   -1    0    0  502    0  0.00000000000E+00 -0.00000000000E+00 -0.35374699899E+03  0.35374699899E+03  0.00000000000E+00 0. -1.
        -24    2    1    2    0    0  0.46719493967E+02  0.41177590984E+02  0.58734182165E+02  0.11724982607E+03  0.80121859951E+02 0.  0.
         23    2    1    2    0    0 -0.24610397438E+02 -0.59438354168E+02 -0.15530959822E+03  0.20440671833E+03  0.11628605071E+03 0.  0.
         13    1    3    3    0    0  0.10289687787E+02 -0.24388159483E+02  0.15603297806E+02  0.30726582956E+02  0.00000000000E+00 0. -1.
        -14    1    3    3    0    0  0.36429806180E+02  0.65565750467E+02  0.43130884358E+02  0.86523243109E+02  0.00000000000E+00 0.  1.
        -11    1    4    4    0    0  0.46762442048E+02 -0.22183254369E+02 -0.51255091174E+02  0.72841657944E+02  0.00000000000E+00 0.  1.
         11    1    4    4    0    0 -0.71372839486E+02 -0.37255099799E+02 -0.10405450704E+03  0.13156506038E+03  0.00000000000E+00 0. -1.
         21    1    1    2  502  501 -0.22109096528E+02  0.18260763184E+02 -0.14320969914E+03  0.14605233839E+03  0.00000000000E+00 0. -1.
<scales pt_clust_5="13000.00000" pt_clust_6="13000.00000" pt_clust_7="13000.00000" pt_clust_8="13000.00000" pt_clust_9="28.67521"></scales>
<clustering>
<clus scale="   28.675">  2  9  1 -1</clus>
<clus scale="   80.122">  5  6 -1 -1</clus>
<clus scale="  101.170">  1  5  2 -1</clus>
<clus scale="  116.286">  7  8 -1 -1</clus>
<clus scale="   28.675">  2  5  1 -1</clus>
</clustering>
</event>
<event>
 9    1  0.1973774E-005  0.1097284E+03  0.7546771E-02  0.1263997E+00
          1   -1    0    0  502    0  0.00000000000E+00  0.00000000000E+00  0.31398450152E+02  0.31398450152E+02  0.00000000000E+00 0. -1.
         -2   -1    0    0    0  501 -0.00000000000E+00 -0.00000000000E+00 -0.55048367064E+03  0.55048367064E+03  0.00000000000E+00 0.  1.
        -24    2    1    2    0    0 -0.29136278379E+02  0.57748943443E+02 -0.30889468137E+03  0.32567228625E+03  0.80390613016E+02 0.  0.
         23    2    1    2    0    0  0.55785334428E+02 -0.43903485457E+02 -0.18569563164E+03  0.21745587491E+03  0.88117366912E+02 0.  0.
         13    1    3    3    0    0  0.64161257540E+01  0.26193096508E+02 -0.21822892554E+02  0.34691261347E+02  0.00000000000E+00 0. -1.
        -14    1    3    3    0    0 -0.35552404133E+02  0.31555846935E+02 -0.28707178882E+03  0.29098102490E+03  0.00000000000E+00 0.  1.
        -11    1    4    4    0    0 -0.20553176863E+02  0.58955054770E+01 -0.44929236215E+02  0.49757676100E+02  0.00000000000E+00 0.  1.
         11    1    4    4    0    0  0.76338511291E+02 -0.49798990934E+02 -0.14076639543E+03  0.16769819881E+03  0.00000000000E+00 0. -1.
         21    1    1    2  502  501 -0.26649056049E+02 -0.13845457986E+02 -0.24494907476E+02  0.38753959635E+02  0.00000000000E+00 0.  1.
<scales pt_clust_5="13000.00000" pt_clust_6="13000.00000" pt_clust_7="13000.00000" pt_clust_8="13000.00000" pt_clust_9="30.03113"></scales>
<clustering>
<clus scale="   30.031">  1  9  2 -1</clus>
<clus scale="   80.391">  5  6 -1 -1</clus>
<clus scale="   88.117">  7  8 -1 -1</clus>
<clus scale="  103.626">  2  5  1 -1</clus>
<clus scale="   30.031">  1  5  2 -1</clus>
</clustering>
</event>
<event>
 9    1  0.1973774E-005  0.1356472E+03  0.7546771E-02  0.1223844E+00
          1   -1    0    0  502    0  0.00000000000E+00  0.00000000000E+00  0.53773056375E+03  0.53773056375E+03  0.00000000000E+00 0. -1.
         -2   -1    0    0    0  501 -0.00000000000E+00 -0.00000000000E+00 -0.97059602993E+02  0.97059602993E+02  0.00000000000E+00 0.  1.
         23    2    1    2    0    0  0.68226136103E+02  0.53296007211E+02 -0.30646039753E+02  0.12946790008E+03  0.91255067616E+02 0.  0.
        -24    2    1    2    0    0 -0.70786198352E+02 -0.88347878327E+01  0.27035089158E+03  0.29948074781E+03  0.10728641282E+03 0.  0.
         11    1    4    4    0    0 -0.99559960868E+02 -0.75319093517E+01  0.20282255694E+03  0.22606615197E+03  0.00000000000E+00 0. -1.
        -12    1    4    4    0    0  0.28773762515E+02 -0.13028784810E+01  0.67528334643E+02  0.73414595833E+02  0.00000000000E+00 0.  1.
        -13    1    3    3    0    0 -0.75104329762E+01 -0.19403060859E+02 -0.48948694537E+01  0.21373935556E+02  0.00000000000E+00 0. -1.
         13    1    3    3    0    0  0.75736569079E+02  0.72699068070E+02 -0.25751170300E+02  0.10809396452E+03  0.00000000000E+00 0.  1.
         21    1    1    2  502  501  0.25600622497E+01 -0.44461219379E+02  0.20096610893E+03  0.20584151886E+03  0.00000000000E+00 0. -1.
<scales pt_clust_5="13000.00000" pt_clust_6="13000.00000" pt_clust_7="13000.00000" pt_clust_8="13000.00000" pt_clust_9="44.53486"></scales>
<clustering>
<clus scale="   44.535">  1  9  2 -1</clus>
<clus scale="   91.255">  7  8 -1 -1</clus>
<clus scale="  107.286">  5  6 -1 -1</clus>
<clus scale="  123.358">  2  7  1 -1</clus>
<clus scale="   44.535">  1  5  2 -1</clus>
</clustering>
</event>
<event>
 9    1  0.1973774E-005  0.1090233E+03  0.7546771E-02  0.1265230E+00
         -2   -1    0    0    0  501 -0.00000000000E+00  0.00000000000E+00  0.19524018885E+03  0.19524018885E+03  0.00000000000E+00 0.  1.
          1   -1    0    0  502    0  0.00000000000E+00 -0.00000000000E+00 -0.85737812482E+02  0.85737812482E+02  0.00000000000E+00 0. -1.
         23    2    1    2    0    0 -0.39718979077E+02  0.50727117078E+02  0.99742818289E+02  0.14850925087E+03  0.89193778307E+02 0.  0.
        -24    2    1    2    0    0  0.56725618417E+02 -0.28217575943E+02  0.36739867772E+01  0.10360806090E+03  0.81896915254E+02 0.  0.
         13    1    4    4    0    0 -0.84389882666E+01 -0.26041505364E+02 -0.20362619900E+02  0.34117632007E+02  0.00000000000E+00 0. -1.
        -14    1    4    4    0    0  0.65164606684E+02 -0.21760705784E+01  0.24036606677E+02  0.69490428895E+02  0.00000000000E+00 0.  1.
        -13    1    3    3    0    0 -0.49779918149E+01 -0.25020233625E+02  0.14701461610E+02  0.29443598058E+02  0.00000000000E+00 0. -1.
         13    1    3    3    0    0 -0.34740987262E+02  0.75747350702E+02  0.85041356680E+02  0.11906565282E+03  0.00000000000E+00 0.  1.
         21    1    1    2  502  501 -0.17006639340E+02 -0.22509541135E+02  0.60855713038E+01  0.28860689559E+02  0.00000000000E+00 0.  1.
<scales pt_clust_5="13000.00000" pt_clust_6="13000.00000" pt_clust_7="13000.00000" pt_clust_8="13000.00000" pt_clust_9="28.21179"></scales>
<clustering>
<clus scale="   28.212">  2  9  1 -1</clus>
<clus scale="   81.897">  5  6 -1 -1</clus>
<clus scale="   89.194">  7  8 -1 -1</clus>
<clus scale="  103.139">  2  5  1 -1</clus>
<clus scale="   28.212">  2  5  1 -1</clus>
</clustering>
</event>
<event>
 9    1  0.1973774E-005  0.1235816E+03  0.7546771E-02  0.1239286E+00
          1   -1    0    0  502    0  0.00000000000E+00  0.00000000000E+00  0.32744144625E+03  0.32744144625E+03  0.00000000000E+00 0. -1.
         -2   -1    0    0    0  501 -0.00000000000E+00 -0.00000000000E+00 -0.40771206527E+03  0.40771206527E+03  0.00000000000E+00 0.  1.
         23    2    1    2    0    0  0.69137390890E+02 -0.36754024336E+02 -0.31715510841E+03  0.33935261559E+03  0.91880344980E+02 0.  0.
        -24    2    1    2    0    0 -0.99122803016E+02  0.15159298050E+03  0.15124019748E+03  0.24943814271E+03  0.80870438934E+02 0.  0.
         11    1    4    4    0    0 -0.82450104336E+02  0.15148721348E+03  0.10900380408E+03  0.20402996068E+03  0.00000000000E+00 0. -1.
        -12    1    4    4    0    0 -0.16672698680E+02  0.10576701927E+00  0.42236393401E+02  0.45408182032E+02  0.00000000000E+00 0.  1.
        -13    1    3    3    0    0  0.88956098547E+01  0.28488619920E+02 -0.55148481710E+02  0.62706366300E+02  0.00000000000E+00 0.  1.
         13    1    3    3    0    0  0.60241781035E+02 -0.65242644256E+02 -0.26200662670E+03  0.27664624929E+03  0.00000000000E+00 0. -1.
         21    1    1    2  502  501  0.29985412126E+02 -0.11483895616E+03  0.85644291907E+02  0.14636275322E+03  0.00000000000E+00 0. -1.
<scales pt_clust_5="13000.00000" pt_clust_6="13000.00000" pt_clust_7="13000.00000" pt_clust_8="13000.00000" pt_clust_9="118.68914"></scales>
<clustering>
<clus scale="   80.870">  5  6 -1 -1</clus>
<clus scale="   91.880">  7  8 -1 -1</clus>
<clus scale="  118.689">  1  9  2 -1</clus>
<clus scale="  118.689">  1  5  2 -1</clus>
<clus scale="  118.689">  1  5  2 -1</clus>
</clustering>
</event>
<event>
 9    1  0.1973774E-005  0.2356980E+03  0.7546771E-02  0.1123356E+00
          1   -1    0    0  502    0  0.00000000000E+00  0.00000000000E+00  0.17963503849E+04  0.17963503849E+04  0.00000000000E+00 0. -1.
         -2   -1    0    0    0  501 -0.00000000000E+00 -0.00000000000E+00 -0.11102172342E+03  0.11102172342E+03  0.00000000000E+00 0.  1.
         23    2    1    2    0    0  0.80906737037E+02 -0.20566750465E+03  0.10638703971E+03  0.26156250620E+03  0.90838977678E+02 0.  0.
        -24    2    1    2    0    0 -0.22425053891E+03  0.11107565451E+03  0.12187976036E+04  0.12468123873E+04  0.80295860765E+02 0.  0.
         11    1    4    4    0    0 -0.54946891316E+02  0.67735109091E+02  0.36020751804E+03  0.37061659693E+03  0.00000000000E+00 0. -1.
        -12    1    4    4    0    0 -0.16930364759E+03  0.43340545422E+02  0.85859008558E+03  0.87619579035E+03  0.00000000000E+00 0.  1.
        -11    1    3    3    0    0  0.50162929678E+02 -0.30868080968E+02  0.43677646375E+02  0.73327312302E+02  0.00000000000E+00 0. -1.
         11    1    3    3    0    0  0.30743807359E+02 -0.17479942368E+03  0.62709393340E+02  0.18823519390E+03  0.00000000000E+00 0.  1.
         21    1    1    2  502  501  0.14334380187E+03  0.94591850135E+02  0.36014401819E+03  0.39899721488E+03  0.00000000000E+00 0. -1.
<scales pt_clust_5="13000.00000" pt_clust_6="13000.00000" pt_clust_7="13000.00000" pt_clust_8="13000.00000" pt_clust_9="171.74127"></scales>
<clustering>
<clus scale="   80.296">  5  6 -1 -1</clus>
<clus scale="   90.839">  7  8 -1 -1</clus>
<clus scale="  171.741">  1  9  2 -1</clus>
<clus scale="  231.839">  1  5  2 -1</clus>
<clus scale="  171.741">  1  5  2 -1</clus>
</clustering>
</event>
<event>
 9    1  0.1973774E-005  0.4460230E+03  0.7546771E-02  0.1028915E+00
          1   -1    0    0  502    0  0.00000000000E+00  0.00000000000E+00  0.17306024066E+03  0.17306024066E+03  0.00000000000E+00 0. -1.
         -2   -1    0    0    0  501 -0.00000000000E+00 -0.00000000000E+00 -0.11878447212E+04  0.11878447212E+04  0.00000000000E+00 0.  1.
        -24    2    1    2    0    0  0.25455777247E+03 -0.14486777721E+03 -0.23873937175E+03  0.38734437629E+03  0.85163641461E+02 0.  0.
         23    2    1    2    0    0  0.70080223325E+02 -0.64259840892E+02 -0.29695668020E+02  0.13322632070E+03  0.88469514382E+02 0.  0.
         13    1    3    3    0    0  0.94610285848E+02 -0.38523720984E+02 -0.13422805577E+03  0.16867825652E+03  0.00000000000E+00 0. -1.
        -14    1    3    3    0    0  0.15994748662E+03 -0.10634405622E+03 -0.10451131598E+03  0.21866611978E+03  0.00000000000E+00 0.  1.
        -11    1    4    4    0    0  0.49696758027E+02 -0.82910842374E+02 -0.60376678033E+01  0.96852614699E+02  0.00000000000E+00 0. -1.
         11    1    4    4    0    0  0.20383465298E+02  0.18651001482E+02 -0.23658000217E+02  0.36373705999E+02  0.00000000000E+00 0.  1.
         21    1    1    2  502  501 -0.32463799579E+03  0.20912761810E+03 -0.74634944075E+03  0.84033426485E+03  0.00000000000E+00 0.  1.
<scales pt_clust_5="13000.00000" pt_clust_6="13000.00000" pt_clust_7="13000.00000" pt_clust_8="13000.00000" pt_clust_9="386.16601"></scales>
<clustering>
<clus scale="   85.164">  5  6 -1 -1</clus>
<clus scale="   88.470">  7  8 -1 -1</clus>
<clus scale="  113.314">  5  7 -1 -1</clus>
<clus scale="  386.166">  2  9  1 -1</clus>
<clus scale="  446.023">  1  5  2 -1</clus>
</clustering>
</event>
<event>
 9    1  0.1973774E-005  0.1060718E+03  0.7546771E-02  0.1271274E+00
         -2   -1    0    0    0  501 -0.00000000000E+00  0.00000000000E+00  0.48281734537E+02  0.48281734537E+02  0.00000000000E+00 0.  1.
          1   -1    0    0  502    0  0.00000000000E+00 -0.00000000000E+00 -0.45881918681E+03  0.45881918681E+03  0.00000000000E+00 0. -1.
         23    2    1    2    0    0  0.23845571928E+02 -0.40974130616E+02 -0.40982386952E+02  0.11195612006E+03  0.92774598344E+02 0.  0.
        -24    2    1    2    0    0 -0.49814566423E+02  0.49752538126E+02 -0.31908064477E+03  0.33770686745E+03  0.85303366757E+02 0.  0.
         13    1    4    4    0    0 -0.58886575667E+02  0.67784712633E+02 -0.24540098723E+03  0.26131215164E+03  0.00000000000E+00 0. -1.
        -14    1    4    4    0    0  0.90720092438E+01 -0.18032174507E+02 -0.73679657534E+02  0.76394715809E+02  0.00000000000E+00 0.  1.
        -13    1    3    3    0    0 -0.11010548950E+02 -0.61892887040E+02 -0.18642403340E+02  0.65570579200E+02  0.00000000000E+00 0.  1.
         13    1    3    3    0    0  0.34856120877E+02  0.20918756424E+02 -0.22339983612E+02  0.46385540859E+02  0.00000000000E+00 0. -1.
         21    1    1    2  502  501  0.25968994495E+02 -0.87784075100E+01 -0.50474420559E+02  0.57437933844E+02  0.00000000000E+00 0. -1.
<scales pt_clust_5="13000.00000" pt_clust_6="13000.00000" pt_clust_7="13000.00000" pt_clust_8="13000.00000" pt_clust_9="27.41257"></scales>
<clustering>
<clus scale="   27.413">  2  9  1 -1</clus>
<clus scale="   85.303">  5  6 -1 -1</clus>
<clus scale="   92.775">  7  8 -1 -1</clus>
<clus scale="   99.603">  2  5  1 -1</clus>
<clus scale="   27.413">  2  5  1 -1</clus>
</clustering>
</event>
<event>
 9    1  0.1973774E-005  0.1296117E+03  0.7546771E-02  0.1230625E+00
         -2   -1    0    0    0  501 -0.00000000000E+00  0.00000000000E+00  0.11368050823E+03  0.11368050823E+03  0.00000000000E+00 0.  1.
          1   -1    0    0  502    0  0.00000000000E+00 -0.00000000000E+00 -0.43802616140E+03  0.43802616140E+03  0.00000000000E+00 0. -1.
        -24    2    1    2    0    0 -0.38321752214E+02 -0.95084462553E+02  0.19794374585E+01  0.13122819666E+03  0.81898166734E+02 0.  0.
         23    2    1    2    0    0 -0.88571011803E+01  0.82796106381E+02 -0.40225604347E+02  0.13025482825E+03  0.91731006561E+02 0.  0.
         11    1    3    3    0    0 -0.30166493016E+01 -0.95651428627E+02  0.46964871341E+01  0.95814158468E+02  0.00000000000E+00 0. -1.
        -12    1    3    3    0    0 -0.35305102913E+02  0.56696607421E+00 -0.27170496755E+01  0.35414038193E+02  0.00000000000E+00 0.  1.
        -13    1    4    4    0    0 -0.17145791777E+02  0.14693691192E+02  0.26319287935E+02  0.34678345605E+02  0.00000000000E+00 0.  1.
         13    1    4    4    0    0  0.82886905971E+01  0.68102415189E+02 -0.66544892281E+02  0.95576482646E+02  0.00000000000E+00 0. -1.
         21    1    1    2  502  501  0.47178853394E+02  0.12288356173E+02 -0.28609948628E+03  0.29022364472E+03  0.00000000000E+00 0. -1.
<scales pt_clust_5="13000.00000" pt_clust_6="13000.00000" pt_clust_7="13000.00000" pt_clust_8="13000.00000" pt_clust_9="48.75293"></scales>
<clustering>
<clus scale="   48.753">  2  9  1 -1</clus>
<clus scale="   81.898">  5  6 -1 -1</clus>
<clus scale="   91.731">  7  8 -1 -1</clus>
<clus scale="  122.849">  1  5  2 -1</clus>
<clus scale="   48.753">  2  5  1 -1</clus>
</clustering>
</event>
<event>
 9    1  0.1973774E-005  0.1059648E+03  0.7546771E-02  0.1270750E+00
         -2   -1    0    0    0  501 -0.00000000000E+00  0.00000000000E+00  0.20003050588E+03  0.20003050588E+03  0.00000000000E+00 0.  1.
          1   -1    0    0  502    0  0.00000000000E+00 -0.00000000000E+00 -0.11182797664E+03  0.11182797664E+03  0.00000000000E+00 0. -1.
         23    2    1    2    0    0 -0.65848182900E+02  0.29780009327E+02  0.82421029913E+02  0.14048560722E+03  0.87864370013E+02 0.  0.
        -24    2    1    2    0    0  0.28475587923E+02 -0.42249015957E+02  0.52968959438E+02  0.10990057769E+03  0.81710390128E+02 0.  0.
         11    1    4    4    0    0  0.25972810745E+02  0.20418393860E+02  0.23886506317E+02  0.40768405535E+02  0.00000000000E+00 0. -1.
        -12    1    4    4    0    0  0.25027771780E+01 -0.62667409817E+02  0.29082453121E+02  0.69132172151E+02  0.00000000000E+00 0.  1.
        -13    1    3    3    0    0 -0.34703630056E+02  0.39248482114E+02  0.56418788037E+00  0.52393736222E+02  0.00000000000E+00 0. -1.
         13    1    3    3    0    0 -0.31144552844E+02 -0.94684727868E+01  0.81856842033E+02  0.88091871001E+02  0.00000000000E+00 0.  1.
         21    1    1    2  502  501  0.37372594977E+02  0.12469006630E+02 -0.47187460112E+02  0.61472297611E+02  0.00000000000E+00 0. -1.
<scales pt_clust_5="13000.00000" pt_clust_6="13000.00000" pt_clust_7="13000.00000" pt_clust_8="13000.00000" pt_clust_9="39.39780"></scales>
<clustering>
<clus scale="   39.398">  2  9  1 -1</clus>
<clus scale="   81.710">  5  6 -1 -1</clus>
<clus scale="   87.864">  7  8 -1 -1</clus>
<clus scale="  100.921">  2  5  1 -1</clus>
<clus scale="   39.398">  2  5  1 -1</clus>
</clustering>
</event>
<event>
 9    1  0.1973774E-005  0.9451058E+02  0.7546771E-02  0.1300584E+00
          1   -1    0    0  502    0  0.00000000000E+00  0.00000000000E+00  0.38818163778E+03  0.38818163778E+03  0.00000000000E+00 0. -1.
         -2   -1    0    0    0  501 -0.00000000000E+00 -0.00000000000E+00 -0.43288352399E+02  0.43288352399E+02  0.00000000000E+00 0.  1.
        -24    2    1    2    0    0 -0.16944989758E+02  0.14002884068E+02  0.22367303328E+02  0.84238568382E+02  0.78183289166E+02 0.  0.
         23    2    1    2    0    0 -0.79773243248E+01 -0.32048523973E+02  0.24175055948E+03  0.26079395452E+03  0.92083701647E+02 0.  0.
         13    1    3    3    0    0  0.28290659694E+02  0.18416481178E+02  0.40342881196E+00  0.33759309230E+02  0.00000000000E+00 0. -1.
        -14    1    3    3    0    0 -0.45235649452E+02 -0.44135971105E+01  0.21963874516E+02  0.50479259152E+02  0.00000000000E+00 0.  1.
        -11    1    4    4    0    0 -0.44213684038E+02 -0.36850429481E+02  0.11106874058E+03  0.12509623952E+03  0.00000000000E+00 0.  1.
         11    1    4    4    0    0  0.36236359714E+02  0.48019055084E+01  0.13068181890E+03  0.13569771499E+03  0.00000000000E+00 0. -1.
         21    1    1    2  502  501  0.24922314082E+02  0.18045639905E+02  0.80775422566E+02  0.86437467278E+02  0.00000000000E+00 0.  1.
<scales pt_clust_5="13000.00000" pt_clust_6="13000.00000" pt_clust_7="13000.00000" pt_clust_8="13000.00000" pt_clust_9="30.76958"></scales>
<clustering>
<clus scale="   30.770">  1  9  2 -1</clus>
<clus scale="   78.183">  5  6 -1 -1</clus>
<clus scale="   81.028">  2  5  1 -1</clus>
<clus scale="   92.084">  7  8 -1 -1</clus>
<clus scale="   30.770">  1  5  2 -1</clus>
</clustering>
</event>
<event>
 9    1  0.1973774E-005  0.1025011E+03  0.7546771E-02  0.1280237E+00
         -4   -1    0    0    0  501 -0.00000000000E+00  0.00000000000E+00  0.41337300965E+02  0.41337300965E+02  0.00000000000E+00 0.  1.
          3   -1    0    0  502    0  0.00000000000E+00 -0.00000000000E+00 -0.50824150367E+03  0.50824150367E+03  0.00000000000E+00 0. -1.
         23    2    1    2    0    0  0.52649597628E+02  0.54270070994E+00 -0.53816717699E+02  0.11821376853E+03  0.91137156589E+02 0.  0.
        -24    2    1    2    0    0 -0.29613539364E+02  0.19408945285E+02 -0.23812736693E+03  0.25377063564E+03  0.80257234965E+02 0.  0.
         11    1    4    4    0    0 -0.45183413825E+02  0.22510762716E+02 -0.23085256390E+03  0.23630738791E+03  0.00000000000E+00 0. -1.
        -12    1    4    4    0    0  0.15569874461E+02 -0.31018174311E+01 -0.72748030231E+01  0.17463247726E+02  0.00000000000E+00 0.  1.
        -13    1    3    3    0    0  0.76734732307E+01 -0.30910600855E+02 -0.54730739452E+02  0.63322991699E+02  0.00000000000E+00 0. -1.
         13    1    3    3    0    0  0.44976124398E+02  0.31453301565E+02  0.91402175302E+00  0.54890776829E+02  0.00000000000E+00 0.  1.
         21    1    1    2  502  501 -0.23036058265E+02 -0.19951645995E+02 -0.17496011808E+03  0.17759440047E+03  0.00000000000E+00 0. -1.
<scales pt_clust_5="13000.00000" pt_clust_6="13000.00000" pt_clust_7="13000.00000" pt_clust_8="13000.00000" pt_clust_9="30.47504"></scales>
<clustering>
<clus scale="   30.475">  2  9  1 -1</clus>
<clus scale="   80.257">  5  6 -1 -1</clus>
<clus scale="   91.137">  7  8 -1 -1</clus>
<clus scale="   92.961">  2  5  1 -1</clus>
<clus scale="   30.475">  2  5  1 -1</clus>
</clustering>
</event>
<event>
 9    1  0.1973774E-005  0.1123477E+03  0.7546771E-02  0.1260856E+00
         -2   -1    0    0    0  501 -0.00000000000E+00  0.00000000000E+00  0.55744497968E+02  0.55744497968E+02  0.00000000000E+00 0.  1.
          1   -1    0    0  502    0  0.00000000000E+00 -0.00000000000E+00 -0.27881980578E+03  0.27881980578E+03  0.00000000000E+00 0. -1.
         23    2    1    2    0    0  0.63145698871E+02  0.13535920467E+02 -0.58668662550E+02  0.12791805955E+03  0.93543666620E+02 0.  0.
        -24    2    1    2    0    0 -0.51553470955E+02 -0.32512609748E+02 -0.12375373832E+03  0.16030885835E+03  0.81664632233E+02 0.  0.
         11    1    4    4    0    0 -0.33305963428E+02 -0.46989234876E+02 -0.12431544523E+03  0.13700950813E+03  0.00000000000E+00 0. -1.
        -12    1    4    4    0    0 -0.18247507527E+02  0.14476625127E+02  0.56170691736E+00  0.23299350220E+02  0.00000000000E+00 0.  1.
        -13    1    3    3    0    0  0.79327463142E+02 -0.24205223720E+01 -0.18075980735E+02  0.81396845250E+02  0.00000000000E+00 0.  1.
         13    1    3    3    0    0 -0.16181764271E+02  0.15956442839E+02 -0.40592681815E+02  0.46521214300E+02  0.00000000000E+00 0. -1.
         21    1    1    2  502  501 -0.11592227916E+02  0.18976689282E+02 -0.40652906942E+02  0.46337385846E+02  0.00000000000E+00 0.  1.
<scales pt_clust_5="13000.00000" pt_clust_6="13000.00000" pt_clust_7="13000.00000" pt_clust_8="13000.00000" pt_clust_9="22.23723"></scales>
<clustering>
<clus scale="   22.237">  2  9  1 -1</clus>
<clus scale="   81.665">  5  6 -1 -1</clus>
<clus scale="   93.544">  7  8 -1 -1</clus>
<clus scale="  102.668">  2  5  1 -1</clus>
<clus scale="   22.237">  2  5  1 -1</clus>
</clustering>
</event>
<event>
 9    1  0.1973774E-005  0.9571288E+02  0.7546771E-02  0.1290932E+00
         -4   -1    0    0    0  501 -0.00000000000E+00  0.00000000000E+00  0.12826866651E+03  0.12826866651E+03  0.00000000000E+00 0.  1.
          3   -1    0    0  502    0  0.00000000000E+00 -0.00000000000E+00 -0.12570461271E+03  0.12570461271E+03  0.00000000000E+00 0. -1.
         23    2    1    2    0    0  0.14502863018E+02  0.93363135557E+01  0.54430434583E+02  0.10793291147E+03  0.91593347918E+02 0.  0.
        -24    2    1    2    0    0 -0.27496756057E+02  0.23251992849E+02 -0.45010107741E+02  0.11029337556E+03  0.94031867622E+02 0.  0.
         11    1    4    4    0    0 -0.26066318663E+02  0.69554789264E+01 -0.73026491465E+02  0.77850498466E+02  0.00000000000E+00 0. -1.
        -12    1    4    4    0    0 -0.14304373939E+01  0.16296513923E+02  0.28016383724E+02  0.32442877094E+02  0.00000000000E+00 0.  1.
        -11    1    3    3    0    0  0.22215906227E+02 -0.38579959256E+02  0.29112246274E+02  0.53192881373E+02  0.00000000000E+00 0. -1.
         11    1    3    3    0    0 -0.77130432086E+01  0.47916272811E+02  0.25318188309E+02  0.54740030096E+02  0.00000000000E+00 0.  1.
         21    1    1    2  502  501  0.12993893039E+02 -0.32588306405E+02 -0.68562730489E+01  0.35746992192E+02  0.00000000000E+00 0. -1.
<scales pt_clust_5="13000.00000" pt_clust_6="13000.00000" pt_clust_7="13000.00000" pt_clust_8="13000.00000" pt_clust_9="35.08331"></scales>
<clustering>
<clus scale="   35.083">  2  9  1 -1</clus>
<clus scale="   91.593">  7  8 -1 -1</clus>
<clus scale="   93.318">  1  7  2 -1</clus>
<clus scale="   94.032">  5  6 -1 -1</clus>
<clus scale="   35.083">  2  5  1 -1</clus>
</clustering>
</event>
<event>
 9    1  0.2553222E-005  0.1006189E+03  0.7546771E-02  0.1283556E+00
         -2   -1    0    0    0  501 -0.00000000000E+00  0.00000000000E+00  0.15127231718E+03  0.15127231718E+03  0.00000000000E+00 0.  1.
          1   -1    0    0  502    0  0.00000000000E+00 -0.00000000000E+00 -0.32926306012E+03  0.32926306012E+03  0.00000000000E+00 0. -1.
         23    2    1    2    0    0 -0.35446047531E+02  0.27529730276E+02  0.12150425095E+03  0.15808820722E+03  0.90632719967E+02 0.  0.
        -24    2    1    2    0    0  0.17849364986E+02 -0.17612026557E+02 -0.28543151516E+03  0.29783445960E+03  0.81273809838E+02 0.  0.
         11    1    4    4    0    0 -0.30224019167E+02 -0.20215052891E+02 -0.10634102480E+03  0.11238573421E+03  0.00000000000E+00 0. -1.
        -12    1    4    4    0    0  0.48073384153E+02  0.26030263338E+01 -0.17909049036E+03  0.18544872539E+03  0.00000000000E+00 0.  1.
        -11    1    3    3    0    0 -0.20183425392E+00  0.46623395275E+02  0.10472378051E+03  0.11463355498E+03  0.00000000000E+00 0.  1.
         11    1    3    3    0    0 -0.35244213277E+02 -0.19093664999E+02  0.16780470435E+02  0.43454652232E+02  0.00000000000E+00 0. -1.
         21    1    1    2  502  501  0.17596682545E+02 -0.99177037193E+01 -0.14063478728E+02  0.24612710488E+02  0.00000000000E+00 0. -1.
<scales pt_clust_5="13000.00000" pt_clust_6="13000.00000" pt_clust_7="13000.00000" pt_clust_8="13000.00000" pt_clust_9="20.19911"></scales>
<clustering>
<clus scale="   20.199">  2  9  1 -1</clus>
<clus scale="   81.274">  5  6 -1 -1</clus>
<clus scale="   90.633">  7  8 -1 -1</clus>
<clus scale="   92.278">  2  5  1 -1</clus>
<clus scale="   20.199">  2  5  1 -1</clus>
</clustering>
</event>
<event>
 9    1  0.1973774E-005  0.1620891E+03  0.7546771E-02  0.1189911E+00
         -2   -1    0    0    0  501 -0.00000000000E+00  0.00000000000E+00  0.68599997880E+02  0.68599997880E+02  0.00000000000E+00 0.  1.
          1   -1    0    0  502    0  0.00000000000E+00 -0.00000000000E+00 -0.52183365818E+03  0.52183365818E+03  0.00000000000E+00 0. -1.
        -24    2    1    2    0    0  0.32279673678E+02 -0.12373568362E+03 -0.95626495083E+02  0.19382333229E+03  0.10986610415E+03 0.  0.
         23    2    1    2    0    0 -0.79514629346E+01  0.10313745632E+03 -0.26397140985E+03  0.29769721297E+03  0.90786368645E+02 0.  0.
         11    1    3    3    0    0 -0.24073302859E+02  0.79512208874E+01 -0.14136073182E+02  0.29027131948E+02  0.00000000000E+00 0. -1.
        -12    1    3    3    0    0  0.56352976536E+02 -0.13168690451E+03 -0.81490421901E+02  0.16479620034E+03  0.00000000000E+00 0.  1.
        -11    1    4    4    0    0  0.35928802680E+02  0.20789683415E+02 -0.55587728809E+02  0.69376403716E+02  0.00000000000E+00 0.  1.
         11    1    4    4    0    0 -0.43880265615E+02  0.82347772908E+02 -0.20838368105E+03  0.22832080926E+03  0.00000000000E+00 0. -1.
         21    1    1    2  502  501 -0.24328210743E+02  0.20598227301E+02 -0.93635755367E+02  0.98913110805E+02  0.00000000000E+00 0. -1.
<scales pt_clust_5="13000.00000" pt_clust_6="13000.00000" pt_clust_7="13000.00000" pt_clust_8="13000.00000" pt_clust_9="31.87709"></scales>
<clustering>
<clus scale="   31.877">  2  9  1 -1</clus>
<clus scale="   90.786">  7  8 -1 -1</clus>
<clus scale="  109.866">  5  6 -1 -1</clus>
<clus scale="  149.815">  2  7  1 -1</clus>
<clus scale="   31.877">  2  5  1 -1</clus>
</clustering>
</event>
<event>
 9    1  0.1973774E-005  0.9661815E+02  0.7546771E-02  0.1292218E+00
         -4   -1    0    0    0  501 -0.00000000000E+00  0.00000000000E+00  0.30377927808E+03  0.30377927808E+03  0.00000000000E+00 0.  1.
          3   -1    0    0  502    0  0.00000000000E+00 -0.00000000000E+00 -0.90518142994E+02  0.90518142994E+02  0.00000000000E+00 0. -1.
         23    2    1    2    0    0 -0.17037141283E+02  0.85046188051E+01  0.19887549259E+03  0.22016013674E+03  0.92500981235E+02 0.  0.
        -24    2    1    2    0    0  0.37395302484E+02 -0.36213959364E+02  0.61030813844E+02  0.11618873568E+03  0.84054759295E+02 0.  0.
         11    1    4    4    0    0  0.25423308484E+02 -0.51881691069E+02  0.64252332578E+01  0.58132074665E+02  0.00000000000E+00 0. -1.
        -12    1    4    4    0    0  0.11971993999E+02  0.15667731706E+02  0.54605580586E+02  0.58056661016E+02  0.00000000000E+00 0.  1.
        -13    1    3    3    0    0  0.27845390663E+02  0.31116298475E+02  0.11541563352E+03  0.12273694747E+03  0.00000000000E+00 0.  1.
         13    1    3    3    0    0 -0.44882531946E+02 -0.22611679670E+02  0.83459859069E+02  0.97423189268E+02  0.00000000000E+00 0. -1.
         21    1    1    2  502  501 -0.20358161201E+02  0.27709340559E+02 -0.46645171348E+02  0.57948548659E+02  0.00000000000E+00 0.  1.
<scales pt_clust_5="13000.00000" pt_clust_6="13000.00000" pt_clust_7="13000.00000" pt_clust_8="13000.00000" pt_clust_9="34.38404"></scales>
<clustering>
<clus scale="   34.384">  2  9  1 -1</clus>
<clus scale="   84.055">  5  6 -1 -1</clus>
<clus scale="   88.565">  2  5  1 -1</clus>
<clus scale="   92.501">  7  8 -1 -1</clus>
<clus scale="   34.384">  2  5  1 -1</clus>
</clustering>
</event>
<event>
 9    1  0.1973774E-005  0.1074767E+03  0.7546771E-02  0.1267980E+00
         -2   -1    0    0    0  501 -0.00000000000E+00  0.00000000000E+00  0.32640145232E+03  0.32640145232E+03  0.00000000000E+00 0.  1.
          1   -1    0    0  502    0  0.00000000000E+00 -0.00000000000E+00 -0.82991616705E+02  0.82991616705E+02  0.00000000000E+00 0. -1.
         23    2    1    2    0    0  0.44800606906E+02  0.18212085529E+02  0.19217788942E+03  0.21797685844E+03  0.90789840815E+02 0.  0.
        -24    2    1    2    0    0 -0.59585872066E+02 -0.64826015005E+02  0.68169884454E+02  0.13966337260E+03  0.84296121666E+02 0.  0.
         11    1    4    4    0    0 -0.50294563740E+02  0.23669250271E-01  0.84165813839E+01  0.50993946153E+02  0.00000000000E+00 0. -1.
        -12    1    4    4    0    0 -0.92913083254E+01 -0.64849684255E+02  0.59753303070E+02  0.88669426446E+02  0.00000000000E+00 0.  1.
        -13    1    3    3    0    0  0.69009363333E+02 -0.32290518466E+01  0.14692497864E+03  0.16235660859E+03  0.00000000000E+00 0.  1.
         13    1    3    3    0    0 -0.24208756427E+02  0.21441137376E+02  0.45252910778E+02  0.55620249852E+02  0.00000000000E+00 0. -1.
         21    1    1    2  502  501  0.14785265159E+02  0.46613929475E+02 -0.16937938260E+02  0.51752837985E+02  0.00000000000E+00 0. -1.
<scales pt_clust_5="13000.00000" pt_clust_6="13000.00000" pt_clust_7="13000.00000" pt_clust_8="13000.00000" pt_clust_9="48.90258"></scales>
<clustering>
<clus scale="   48.903">  2  9  1 -1</clus>
<clus scale="   84.296">  5  6 -1 -1</clus>
<clus scale="   90.790">  7  8 -1 -1</clus>
<clus scale="  102.050">  2  5  1 -1</clus>
<clus scale="   48.903">  2  5  1 -1</clus>
</clustering>
</event>
<event>
 9    1  0.1973774E-005  0.1219898E+03  0.7546771E-02  0.1243907E+00
          1   -1    0    0  502    0  0.00000000000E+00  0.00000000000E+00  0.62185596483E+03  0.62185596483E+03  0.00000000000E+00 0. -1.
         -2   -1    0    0    0  501 -0.00000000000E+00 -0.00000000000E+00 -0.14472585128E+03  0.14472585128E+03  0.00000000000E+00 0.  1.
        -24    2    1    2    0    0  0.31061993530E+02 -0.77645472123E+02 -0.90276272588E+02  0.14616255864E+03  0.78867112116E+02 0.  0.
         23    2    1    2    0    0 -0.70352173196E+02 -0.95138925337E+01  0.46909641461E+03  0.48328675379E+03  0.92058121644E+02 0.  0.
         13    1    3    3    0    0 -0.77473816353E+01 -0.49536119459E+02 -0.77516778158E+01  0.50733988235E+02  0.00000000000E+00 0. -1.
        -14    1    3    3    0    0  0.38809375166E+02 -0.28109352664E+02 -0.82524594773E+02  0.95428570409E+02  0.00000000000E+00 0.  1.
        -13    1    4    4    0    0 -0.20003101696E+02  0.39527523454E+02  0.14314057570E+03  0.14983915910E+03  0.00000000000E+00 0.  1.
         13    1    4    4    0    0 -0.50349071500E+02 -0.49041415987E+02  0.32595583891E+03  0.33344759469E+03  0.00000000000E+00 0. -1.
         21    1    1    2  502  501  0.39290179665E+02  0.87159364656E+02  0.98309971521E+02  0.13713250368E+03  0.00000000000E+00 0.  1.
<scales pt_clust_5="13000.00000" pt_clust_6="13000.00000" pt_clust_7="13000.00000" pt_clust_8="13000.00000" pt_clust_9="95.60582"></scales>
<clustering>
<clus scale="   78.867">  5  6 -1 -1</clus>
<clus scale="   92.058">  7  8 -1 -1</clus>
<clus scale="   95.606">  1  9  2 -1</clus>
<clus scale="  112.369">  2  5  1 -1</clus>
<clus scale="   95.606">  1  5  2 -1</clus>
</clustering>
</event>
<event>
 9    1  0.1973774E-005  0.1322176E+03  0.7546771E-02  0.1225901E+00
          1   -1    0    0  502    0  0.00000000000E+00  0.00000000000E+00  0.15165836384E+03  0.15165836384E+03  0.00000000000E+00 0. -1.
         -2   -1    0    0    0  501 -0.00000000000E+00 -0.00000000000E+00 -0.35938392789E+03  0.35938392789E+03  0.00000000000E+00 0.  1.
         23    2    1    2    0    0 -0.48181911871E+02 -0.94807516596E+02 -0.29880494480E+03  0.32878566438E+03  0.86635190485E+02 0.  0.
        -24    2    1    2    0    0  0.53014469068E+02  0.45190628661E+02  0.46732122151E+02  0.11553430333E+03  0.79445309211E+02 0.  0.
         13    1    4    4    0    0  0.62207545424E+02  0.21578937012E+02  0.58053587731E+02  0.87781822029E+02  0.00000000000E+00 0. -1.
        -14    1    4    4    0    0 -0.91930763564E+01  0.23611691649E+02 -0.11321465580E+02  0.27752481300E+02  0.00000000000E+00 0.  1.
        -11    1    3    3    0    0 -0.94291767448E+01 -0.91842311775E+02 -0.16088072482E+03  0.18548996529E+03  0.00000000000E+00 0.  1.
         11    1    3    3    0    0 -0.38752735126E+02 -0.29652048215E+01 -0.13792421998E+03  0.14329569909E+03  0.00000000000E+00 0. -1.
         21    1    1    2  502  501 -0.48325571966E+01  0.49616887935E+02  0.44347258598E+02  0.66722324019E+02  0.00000000000E+00 0. -1.
<scales pt_clust_5="13000.00000" pt_clust_6="13000.00000" pt_clust_7="13000.00000" pt_clust_8="13000.00000" pt_clust_9="49.85167"></scales>
<clustering>
<clus scale="   49.852">  1  9  2 -1</clus>
<clus scale="   79.445">  5  6 -1 -1</clus>
<clus scale="   86.635">  7  8 -1 -1</clus>
<clus scale="  127.622">  1  5  2 -1</clus>
<clus scale="   49.852">  1  5  2 -1</clus>
</clustering>
</event>
<event>
 9    1  0.1973774E-005  0.1049754E+03  0.7546771E-02  0.1274724E+00
          1   -1    0    0  502    0  0.00000000000E+00  0.00000000000E+00  0.75900135922E+03  0.75900135922E+03  0.00000000000E+00 0. -1.
         -2   -1    0    0    0  501 -0.00000000000E+00 -0.00000000000E+00 -0.33696489919E+02  0.33696489919E+02  0.00000000000E+00 0.  1.
         23    2    1    2    0    0 -0.34129681271E+02 -0.61063330535E+02  0.10326428414E+03  0.15402280634E+03  0.90365629610E+02 0.  0.
        -24    2    1    2    0    0  0.18228077954E+02  0.11642263449E+02  0.25844662224E+03  0.27139330798E+03  0.79949145985E+02 0.  0.
         11    1    4    4    0    0  0.18441363045E+02  0.45165033823E+02  0.13803917952E+03  0.14640621310E+03  0.00000000000E+00 0. -1.
        -12    1    4    4    0    0 -0.21328509051E+00 -0.33522770374E+02  0.12040744272E+03  0.12498709488E+03  0.00000000000E+00 0.  1.
        -13    1    3    3    0    0 -0.82141113942E+01 -0.26212017702E+02 -0.12648197844E+02  0.30241005385E+02  0.00000000000E+00 0.  1.
         13    1    3    3    0    0 -0.25915569877E+02 -0.34851312833E+02  0.11591248199E+03  0.12378180096E+03  0.00000000000E+00 0. -1.
         21    1    1    2  502  501  0.15901603317E+02  0.49421067086E+02  0.36359396292E+03  0.36728173482E+03  0.00000000000E+00 0. -1.
<scales pt_clust_5="13000.00000" pt_clust_6="13000.00000" pt_clust_7="13000.00000" pt_clust_8="13000.00000" pt_clust_9="51.91631"></scales>
<clustering>
<clus scale="   51.916">  1  9  2 -1</clus>
<clus scale="   79.949">  5  6 -1 -1</clus>
<clus scale="   90.366">  7  8 -1 -1</clus>
<clus scale="   96.155">  1  5  2 -1</clus>
<clus scale="   51.916">  1  5  2 -1</clus>
</clustering>
</event>
<event>
 9    1  0.1973774E-005  0.1016858E+03  0.7546771E-02  0.1284116E+00
         -2   -1    0    0    0  501 -0.00000000000E+00  0.00000000000E+00  0.12561518696E+03  0.12561518696E+03  0.00000000000E+00 0.  1.
          1   -1    0    0  502    0  0.00000000000E+00 -0.00000000000E+00 -0.50673756166E+03  0.50673756166E+03  0.00000000000E+00 0. -1.
         23    2    1    2    0    0  0.74094090824E+00  0.37823637928E+02  0.83967647584E+02  0.13085790274E+03  0.92962617699E+02 0.  0.
        -24    2    1    2    0    0  0.46105506892E+02 -0.81649140195E+02 -0.27605284015E+03  0.30186939522E+03  0.78279380155E+02 0.  0.
         13    1    4    4    0    0  0.59805310321E+02 -0.80968545793E+02 -0.19281647658E+03  0.21751040019E+03  0.00000000000E+00 0. -1.
        -14    1    4    4    0    0 -0.13699803429E+02 -0.68059440227E+00 -0.83236363563E+02  0.84358995027E+02  0.00000000000E+00 0.  1.
        -11    1    3    3    0    0  0.37983685015E+02  0.48484749444E+02  0.49853405424E+02  0.79239467996E+02  0.00000000000E+00 0.  1.
         11    1    3    3    0    0 -0.37242744106E+02 -0.10661111516E+02  0.34114242160E+02  0.51618434745E+02  0.00000000000E+00 0. -1.
         21    1    1    2  502  501 -0.46846447800E+02  0.43825502267E+02 -0.18903718214E+03  0.19962545066E+03  0.00000000000E+00 0.  1.
<scales pt_clust_5="13000.00000" pt_clust_6="13000.00000" pt_clust_7="13000.00000" pt_clust_8="13000.00000" pt_clust_9="64.15033"></scales>
<clustering>
<clus scale="   64.150">  2  9  1 -1</clus>
<clus scale="   78.279">  5  6 -1 -1</clus>
<clus scale="   88.462">  2  5  1 -1</clus>
<clus scale="   92.963">  7  8 -1 -1</clus>
<clus scale="   64.150">  2  5  1 -1</clus>
</clustering>
</event>
<event>
 9    1  0.1973774E-005  0.3100071E+03  0.7546771E-02  0.1116412E+00
          1   -1    0    0  502    0  0.00000000000E+00  0.00000000000E+00  0.13133613262E+04  0.13133613262E+04  0.00000000000E+00 0. -1.
         -2   -1    0    0    0  501 -0.00000000000E+00 -0.00000000000E+00 -0.11277674740E+03  0.11277674740E+03  0.00000000000E+00 0.  1.
        -24    2    1    2    0    0  0.69446493170E+02  0.25823490795E+03  0.49908566409E+03  0.57181338415E+03  0.79849628059E+02 0.  0.
         23    2    1    2    0    0 -0.40470496351E+02  0.65611157525E+02  0.37267783586E+03  0.39189719846E+03  0.93551909408E+02 0.  0.
         13    1    3    3    0    0  0.52971572439E+02  0.18194045134E+03  0.41963763652E+03  0.46043898761E+03  0.00000000000E+00 0. -1.
        -14    1    3    3    0    0  0.16474920731E+02  0.76294456609E+02  0.79448027565E+02  0.11137439655E+03  0.00000000000E+00 0.  1.
        -13    1    4    4    0    0 -0.56009131142E+02  0.20144800396E+02  0.11205669375E+03  0.12688395631E+03  0.00000000000E+00 0.  1.
         13    1    4    4    0    0  0.15538634791E+02  0.45466357129E+02  0.26062114211E+03  0.26501324216E+03  0.00000000000E+00 0. -1.
         21    1    1    2  502  501 -0.28975996819E+02 -0.32384606548E+03  0.32882107885E+03  0.46242749098E+03  0.00000000000E+00 0.  1.
<scales pt_clust_5="13000.00000" pt_clust_6="13000.00000" pt_clust_7="13000.00000" pt_clust_8="13000.00000" pt_clust_9="299.54702"></scales>
<clustering>
<clus scale="   79.850">  5  6 -1 -1</clus>
<clus scale="   93.552">  7  8 -1 -1</clus>
<clus scale="  121.221">  1  7  2 -1</clus>
<clus scale="  299.547">  2  9  1 -1</clus>
<clus scale="  121.221">  1  5  2 -1</clus>
</clustering>
</event>
<event>
 9    1  0.2005342E-005  0.1274517E+03  0.7546771E-02  0.1236424E+00
         -4   -1    0    0    0  501 -0.00000000000E+00  0.00000000000E+00  0.23717881178E+03  0.23717881178E+03  0.00000000000E+00 0.  1.
          3   -1    0    0  502    0  0.00000000000E+00 -0.00000000000E+00 -0.30758553997E+03  0.30758553997E+03  0.00000000000E+00 0. -1.
        -24    2    1    2    0    0 -0.11617931222E+02 -0.78543753167E+02  0.19963593610E+03  0.22996375783E+03  0.82004423311E+02 0.  0.
         23    2    1    2    0    0 -0.40319890747E+01  0.95489471486E+02 -0.24281238002E+03  0.27911354086E+03  0.99055644464E+02 0.  0.
         13    1    3    3    0    0 -0.33771382253E+02 -0.21823170401E+02  0.31308351334E+02  0.50960473789E+02  0.00000000000E+00 0. -1.
        -14    1    3    3    0    0  0.22153451030E+02 -0.56720582767E+02  0.16832758477E+03  0.17900328404E+03  0.00000000000E+00 0.  1.
        -13    1    4    4    0    0  0.16843791176E+01  0.25594638033E+02  0.74523917754E+00  0.25660826379E+02  0.00000000000E+00 0.  1.
         13    1    4    4    0    0 -0.57163681923E+01  0.69894833454E+02 -0.24355761920E+03  0.25345271448E+03  0.00000000000E+00 0. -1.
         21    1    1    2  502  501  0.15649920297E+02 -0.16945718319E+02 -0.27230284268E+02  0.35687053058E+02  0.00000000000E+00 0.  1.
<scales pt_clust_5="13000.00000" pt_clust_6="13000.00000" pt_clust_7="13000.00000" pt_clust_8="13000.00000" pt_clust_9="23.06680"></scales>
<clustering>
<clus scale="   23.067">  2  9  1 -1</clus>
<clus scale="   82.004">  5  6 -1 -1</clus>
<clus scale="   99.056">  7  8 -1 -1</clus>
<clus scale="  114.702">  1  5  2 -1</clus>
<clus scale="   23.067">  2  5  1 -1</clus>
</clustering>
</event>
<event>
 9    1  0.1973774E-005  0.1434850E+03  0.7546771E-02  0.1221683E+00
         -2   -1    0    0    0  501 -0.00000000000E+00  0.00000000000E+00  0.84124926012E+02  0.84124926012E+02  0.00000000000E+00 0.  1.
          1   -1    0    0  502    0  0.00000000000E+00 -0.00000000000E+00 -0.47844208050E+03  0.47844208050E+03  0.00000000000E+00 0. -1.
         23    2    1    2    0    0  0.31635605578E+02  0.72564137811E+02 -0.31466611626E+01  0.14549558320E+03  0.12203564076E+03 0.  0.
        -24    2    1    2    0    0 -0.41287510544E+02 -0.43894917071E+02 -0.36094087368E+03  0.37430562633E+03  0.78708102132E+02 0.  0.
         11    1    4    4    0    0 -0.52596931691E+02 -0.44138787939E+02 -0.17451807457E+03  0.18753993755E+03  0.00000000000E+00 0. -1.
        -12    1    4    4    0    0  0.11309421147E+02  0.24387086888E+00 -0.18642279911E+03  0.18676568879E+03  0.00000000000E+00 0.  1.
        -11    1    3    3    0    0 -0.24474186700E+02  0.51779392468E+01  0.40455543268E+02  0.47565195790E+02  0.00000000000E+00 0. -1.
         11    1    3    3    0    0  0.56109792278E+02  0.67386198565E+02 -0.43602204431E+02  0.97930387407E+02  0.00000000000E+00 0.  1.
         21    1    1    2  502  501  0.96519049657E+01 -0.28669220741E+02 -0.30229619645E+02  0.42765796979E+02  0.00000000000E+00 0.  1.
<scales pt_clust_5="13000.00000" pt_clust_6="13000.00000" pt_clust_7="13000.00000" pt_clust_8="13000.00000" pt_clust_9="30.25035"></scales>
<clustering>
<clus scale="   30.250">  2  9  1 -1</clus>
<clus scale="   78.708">  5  6 -1 -1</clus>
<clus scale="  109.042">  2  5  1 -1</clus>
<clus scale="  122.036">  7  8 -1 -1</clus>
<clus scale="   30.250">  2  5  1 -1</clus>
</clustering>
</event>
<event>
 9    1  0.1973774E-005  0.1626817E+03  0.7546771E-02  0.1187276E+00
          1   -1    0    0  502    0  0.00000000000E+00  0.00000000000E+00  0.72908581617E+02  0.72908581617E+02  0.00000000000E+00 0. -1.
         -2   -1    0    0    0  501 -0.00000000000E+00 -0.00000000000E+00 -0.48149442071E+03  0.48149442071E+03  0.00000000000E+00 0.  1.
        -24    2    1    2    0    0 -0.14279525458E+03 -0.53972924292E+02 -0.27919810121E+03  0.32827544201E+03  0.80682245985E+02 0.  0.
         23    2    1    2    0    0  0.11819861145E+03  0.45544668570E+02 -0.93789489605E+02  0.18204507368E+03  0.91097266187E+02 0.  0.
         11    1    3    3    0    0 -0.12323792825E+03 -0.35615862051E+02 -0.15492861424E+03  0.20114410779E+03  0.00000000000E+00 0. -1.
        -12    1    3    3    0    0 -0.19557326335E+02 -0.18357062241E+02 -0.12426948697E+03  0.12713133422E+03  0.00000000000E+00 0.  1.
        -13    1    4    4    0    0  0.75636081416E+02 -0.10325530236E+02 -0.79793622195E+02  0.11042850868E+03  0.00000000000E+00 0.  1.
         13    1    4    4    0    0  0.42562530029E+02  0.55870198806E+02 -0.13995867410E+02  0.71616564995E+02  0.00000000000E+00 0. -1.
         21    1    1    2  502  501  0.24596643138E+02  0.84282557218E+01 -0.35598248273E+02  0.44082486639E+02  0.00000000000E+00 0.  1.
<scales pt_clust_5="13000.00000" pt_clust_6="13000.00000" pt_clust_7="13000.00000" pt_clust_8="13000.00000" pt_clust_9="26.00058"></scales>
<clustering>
<clus scale="   26.001">  2  9  1 -1</clus>
<clus scale="   80.682">  5  6 -1 -1</clus>
<clus scale="   91.097">  7  8 -1 -1</clus>
<clus scale="  157.087">  2  5  1 -1</clus>
<clus scale="  162.682">  1  5  2 -1</clus>
</clustering>
</event>
<event>
 9    1  0.1973774E-005  0.1075003E+03  0.7546771E-02  0.1270123E+00
         -2   -1    0    0    0  501 -0.00000000000E+00  0.00000000000E+00  0.13204133950E+03  0.13204133950E+03  0.00000000000E+00 0.  1.
          1   -1    0    0  502    0  0.00000000000E+00 -0.00000000000E+00 -0.59072792527E+03  0.59072792527E+03  0.00000000000E+00 0. -1.
         23    2    1    2    0    0 -0.30175381426E+02  0.61039895068E+02  0.81115732895E+02  0.14010120573E+03  0.91717846079E+02 0.  0.
        -24    2    1    2    0    0 -0.31883881621E+02 -0.25482354531E+02 -0.90143619913E+02  0.12735647762E+03  0.80173985068E+02 0.  0.
         11    1    4    4    0    0  0.21400420593E+02  0.83878581132E+01 -0.93399079492E+01  0.24810643801E+02  0.00000000000E+00 0. -1.
        -12    1    4    4    0    0 -0.53284302214E+02 -0.33870212644E+02 -0.80803711963E+02  0.10254583382E+03  0.00000000000E+00 0.  1.
        -13    1    3    3    0    0 -0.60577503472E+02  0.46096383631E+02  0.72553926628E+02  0.10515979640E+03  0.00000000000E+00 0.  1.
         13    1    3    3    0    0  0.30402122046E+02  0.14943511437E+02  0.85618062671E+01  0.34941409324E+02  0.00000000000E+00 0. -1.
         21    1    1    2  502  501  0.62059263047E+02 -0.35557540537E+02 -0.44965869875E+03  0.45531158142E+03  0.00000000000E+00 0. -1.
<scales pt_clust_5="13000.00000" pt_clust_6="13000.00000" pt_clust_7="13000.00000" pt_clust_8="13000.00000" pt_clust_9="71.52406"></scales>
<clustering>
<clus scale="   71.524">  2  9  1 -1</clus>
<clus scale="   80.174">  5  6 -1 -1</clus>
<clus scale="   91.718">  7  8 -1 -1</clus>
<clus scale="   97.837">  2  5  1 -1</clus>
<clus scale="   71.524">  2  5  1 -1</clus>
</clustering>
</event>
<event>
 9    1  0.1973774E-005  0.1039271E+03  0.7546771E-02  0.1279521E+00
         -2   -1    0    0    0  501 -0.00000000000E+00  0.00000000000E+00  0.96584317627E+02  0.96584317627E+02  0.00000000000E+00 0.  1.
          1   -1    0    0  502    0  0.00000000000E+00 -0.00000000000E+00 -0.20340585560E+03  0.20340585560E+03  0.00000000000E+00 0. -1.
        -24    2    1    2    0    0 -0.23905607514E+02  0.16250623176E+02 -0.95092337178E+01  0.84911546136E+02  0.79271585812E+02 0.  0.
         23    2    1    2    0    0  0.36506638772E+02 -0.51087755202E+02 -0.26261464965E+01  0.11340326022E+03  0.94396553845E+02 0.  0.
         13    1    3    3    0    0 -0.22178944449E+02 -0.11996296353E+02 -0.37446744676E+02  0.45145048343E+02  0.00000000000E+00 0. -1.
        -14    1    3    3    0    0 -0.17266630650E+01  0.28246919529E+02  0.27937510958E+02  0.39766497793E+02  0.00000000000E+00 0.  1.
        -11    1    4    4    0    0  0.56342116927E+02 -0.38472689557E+02 -0.32351464982E+02  0.75506286282E+02  0.00000000000E+00 0. -1.
         11    1    4    4    0    0 -0.19835478156E+02 -0.12615065645E+02  0.29725318485E+02  0.37896973942E+02  0.00000000000E+00 0.  1.
         21    1    1    2  502  501 -0.12601031257E+02  0.34837132026E+02 -0.94686157755E+02  0.10167536686E+03  0.00000000000E+00 0. -1.
<scales pt_clust_5="13000.00000" pt_clust_6="13000.00000" pt_clust_7="13000.00000" pt_clust_8="13000.00000" pt_clust_9="37.04608"></scales>
<clustering>
<clus scale="   37.046">  2  9  1 -1</clus>
<clus scale="   79.272">  5  6 -1 -1</clus>
<clus scale="   90.411">  1  5  2 -1</clus>
<clus scale="   94.397">  7  8 -1 -1</clus>
<clus scale="   37.046">  2  5  1 -1</clus>
</clustering>
</event>
<event>
 9    1  0.1973774E-005  0.9765841E+02  0.7546771E-02  0.1289183E+00
         -2   -1    0    0    0  501 -0.00000000000E+00  0.00000000000E+00  0.95775151951E+02  0.95775151951E+02  0.00000000000E+00 0.  1.
          1   -1    0    0  502    0  0.00000000000E+00 -0.00000000000E+00 -0.15033662981E+03  0.15033662981E+03  0.00000000000E+00 0. -1.
        -24    2    1    2    0    0 -0.25564018302E+02  0.46981784170E+02  0.87777066083E+01  0.97543196950E+02  0.81097595910E+02 0.  0.
         23    2    1    2    0    0 -0.31589695460E+01 -0.27165845952E+02 -0.23842784437E+02  0.95865197314E+02  0.88733845918E+02 0.  0.
         13    1    3    3    0    0  0.66742230609E+01  0.53345955549E+02 -0.16331507715E+02  0.56187670989E+02  0.00000000000E+00 0. -1.
        -14    1    3    3    0    0 -0.32238241363E+02 -0.63641713794E+01  0.25109214323E+02  0.41355525960E+02  0.00000000000E+00 0.  1.
        -11    1    4    4    0    0 -0.39331628752E+02 -0.38407061231E+02 -0.13988668189E+02  0.56725322480E+02  0.00000000000E+00 0.  1.
         11    1    4    4    0    0  0.36172659206E+02  0.11241215280E+02 -0.98541162481E+01  0.39139874834E+02  0.00000000000E+00 0. -1.
         21    1    1    2  502  501  0.28722987848E+02 -0.19815938218E+02 -0.39496400033E+02  0.52703387500E+02  0.00000000000E+00 0. -1.
<scales pt_clust_5="13000.00000" pt_clust_6="13000.00000" pt_clust_7="13000.00000" pt_clust_8="13000.00000" pt_clust_9="34.89529"></scales>
<clustering>
<clus scale="   34.895">  2  9  1 -1</clus>
<clus scale="   81.098">  5  6 -1 -1</clus>
<clus scale="   88.734">  7  8 -1 -1</clus>
<clus scale="   90.776">  1  5  2 -1</clus>
<clus scale="   34.895">  2  5  1 -1</clus>
</clustering>
</event>
<event>
 9    1  0.1973774E-005  0.1000916E+03  0.7546771E-02  0.1286302E+00
          1   -1    0    0  502    0  0.00000000000E+00  0.00000000000E+00  0.59175519267E+03  0.59175519267E+03  0.00000000000E+00 0. -1.
         -2   -1    0    0    0  501 -0.00000000000E+00 -0.00000000000E+00 -0.65992196773E+02  0.65992196773E+02  0.00000000000E+00 0.  1.
        -24    2    1    2    0    0  0.29150127908E+02  0.28654329680E+02 -0.21199353049E+02  0.92727983616E+02  0.80487674890E+02 0.  0.
         23    2    1    2    0    0  0.12209688879E+02 -0.16171546853E+02  0.43025387611E+03  0.44057133656E+03  0.92596486233E+02 0.  0.
         11    1    3    3    0    0  0.43766080650E+02 -0.14366643261E+00  0.13033636777E+02  0.45665809345E+02  0.00000000000E+00 0. -1.
        -12    1    3    3    0    0 -0.14615952741E+02  0.28797996113E+02 -0.34232989827E+02  0.47062174271E+02  0.00000000000E+00 0.  1.
        -11    1    4    4    0    0 -0.38700984864E+02 -0.70784691400E+01  0.12749836028E+03  0.13343051685E+03  0.00000000000E+00 0.  1.
         11    1    4    4    0    0  0.50910673744E+02 -0.90930777127E+01  0.30275551584E+03  0.30714081971E+03  0.00000000000E+00 0. -1.
         21    1    1    2  502  501 -0.41359816788E+02 -0.12482782827E+02  0.11670847284E+03  0.12444806927E+03  0.00000000000E+00 0.  1.
<scales pt_clust_5="13000.00000" pt_clust_6="13000.00000" pt_clust_7="13000.00000" pt_clust_8="13000.00000" pt_clust_9="43.20248"></scales>
<clustering>
<clus scale="   43.202">  1  9  2 -1</clus>
<clus scale="   80.488">  5  6 -1 -1</clus>
<clus scale="   89.008">  2  5  1 -1</clus>
<clus scale="   92.596">  7  8 -1 -1</clus>
<clus scale="   43.202">  1  5  2 -1</clus>
</clustering>
</event>
<event>
 9    1  0.1973774E-005  0.1310571E+03  0.7546771E-02  0.1227414E+00
         -2   -1    0    0    0  501 -0.00000000000E+00  0.00000000000E+00  0.15533240067E+03  0.15533240067E+03  0.00000000000E+00 0.  1.
          1   -1    0    0  502    0  0.00000000000E+00 -0.00000000000E+00 -0.28273023923E+03  0.28273023923E+03  0.00000000000E+00 0. -1.
         23    2    1    2    0    0 -0.29049301236E+02 -0.10845998051E+03 -0.13695039172E+01  0.14533398569E+03  0.92264091495E+02 0.  0.
        -24    2    1    2    0    0  0.11081908972E+03  0.11299578413E+02 -0.68342435828E+02  0.15325068115E+03  0.80040812213E+02 0.  0.
         13    1    4    4    0    0  0.73573929417E+02 -0.15417672826E+02 -0.75865320172E+02  0.10680062982E+03  0.00000000000E+00 0. -1.
        -14    1    4    4    0    0  0.37245160307E+02  0.26717251239E+02  0.75228843440E+01  0.46450051334E+02  0.00000000000E+00 0.  1.
        -11    1    3    3    0    0 -0.12761269199E+02 -0.51645310392E+02 -0.46747623044E+02  0.70819688910E+02  0.00000000000E+00 0.  1.
         11    1    3    3    0    0 -0.16288032038E+02 -0.56814670122E+02  0.45378119127E+02  0.74514296778E+02  0.00000000000E+00 0. -1.
         21    1    1    2  502  501 -0.81769788488E+02  0.97160402102E+02 -0.57685898818E+02  0.13947797306E+03  0.00000000000E+00 0. -1.
<scales pt_clust_5="13000.00000" pt_clust_6="13000.00000" pt_clust_7="13000.00000" pt_clust_8="13000.00000" pt_clust_9="126.98993"></scales>
<clustering>
<clus scale="   80.041">  5  6 -1 -1</clus>
<clus scale="   92.264">  7  8 -1 -1</clus>
<clus scale="  126.990">  2  9  1 -1</clus>
<clus scale="  126.990">  2  5  1 -1</clus>
<clus scale="  126.990">  2  5  1 -1</clus>
</clustering>
</event>
<event>
 9    1  0.1973774E-005  0.9731603E+02  0.7546771E-02  0.1293339E+00
          3   -1    0    0  502    0  0.00000000000E+00  0.00000000000E+00  0.28842156689E+02  0.28842156689E+02  0.00000000000E+00 0. -1.
         -4   -1    0    0    0  501 -0.00000000000E+00 -0.00000000000E+00 -0.47642391614E+03  0.47642391614E+03  0.00000000000E+00 0.  1.
         23    2    1    2    0    0 -0.47876341327E+02 -0.48209912905E+00 -0.25953875311E+03  0.27974655098E+03  0.92765251792E+02 0.  0.
        -24    2    1    2    0    0  0.19449698355E+02  0.14351720173E+02 -0.90333352048E+02  0.12281793004E+03  0.79623280569E+02 0.  0.
         13    1    4    4    0    0  0.28681451430E+02  0.21887488455E+01  0.23729033791E+01  0.28862552695E+02  0.00000000000E+00 0. -1.
        -14    1    4    4    0    0 -0.92317530749E+01  0.12162971328E+02 -0.92706255427E+02  0.93955377343E+02  0.00000000000E+00 0.  1.
        -13    1    3    3    0    0  0.46120989052E+01  0.31654634389E+02 -0.37275925491E+02  0.49120076912E+02  0.00000000000E+00 0. -1.
         13    1    3    3    0    0 -0.52488440232E+02 -0.32136733518E+02 -0.22226282762E+03  0.23062647406E+03  0.00000000000E+00 0.  1.
         21    1    1    2  502  501  0.28426642972E+02 -0.13869621044E+02 -0.97709654293E+02  0.10270159181E+03  0.00000000000E+00 0.  1.
<scales pt_clust_5="13000.00000" pt_clust_6="13000.00000" pt_clust_7="13000.00000" pt_clust_8="13000.00000" pt_clust_9="31.62974"></scales>
<clustering>
<clus scale="   31.630">  2  9  1 -1</clus>
<clus scale="   79.623">  5  6 -1 -1</clus>
<clus scale="   84.882">  1  5  2 -1</clus>
<clus scale="   92.765">  7  8 -1 -1</clus>
<clus scale="   84.882">  1  5  2 -1</clus>
</clustering>
</event>
<event>
 9    1  0.1973774E-005  0.1585859E+03  0.7546771E-02  0.1192437E+00
         -2   -1    0    0    0  501 -0.00000000000E+00  0.00000000000E+00  0.66589528727E+02  0.66589528727E+02  0.00000000000E+00 0.  1.
          1   -1    0    0  502    0  0.00000000000E+00 -0.00000000000E+00 -0.86088724874E+03  0.86088724874E+03  0.00000000000E+00 0. -1.
         23    2    1    2    0    0  0.14594100493E+03 -0.32788035704E+02 -0.18815563387E+03  0.25776312685E+03  0.93088424651E+02 0.  0.
        -24    2    1    2    0    0 -0.98704393394E+02 -0.88330499910E+02 -0.33412568504E+03  0.36822746584E+03  0.80041606106E+02 0.  0.
         11    1    4    4    0    0 -0.43003988062E+02 -0.42174245999E+02 -0.25057206040E+03  0.25770985132E+03  0.00000000000E+00 0. -1.
        -12    1    4    4    0    0 -0.55700405332E+02 -0.46156253911E+02 -0.83553624642E+02  0.11051761452E+03  0.00000000000E+00 0.  1.
        -13    1    3    3    0    0  0.47853961401E+02 -0.55106355782E+02 -0.57759499870E+02  0.93074550198E+02  0.00000000000E+00 0.  1.
         13    1    3    3    0    0  0.98087043525E+02  0.22318320078E+02 -0.13039613400E+03  0.16468857665E+03  0.00000000000E+00 0. -1.
         21    1    1    2  502  501 -0.47236611531E+02  0.12111853561E+03 -0.27201640110E+03  0.30148618477E+03  0.00000000000E+00 0. -1.
<scales pt_clust_5="13000.00000" pt_clust_6="13000.00000" pt_clust_7="13000.00000" pt_clust_8="13000.00000" pt_clust_9="130.00384"></scales>
<clustering>
<clus scale="   80.042">  5  6 -1 -1</clus>
<clus scale="   93.088">  7  8 -1 -1</clus>
<clus scale="  130.004">  2  9  1 -1</clus>
<clus scale="  151.297">  2  5  1 -1</clus>
<clus scale="  130.004">  2  5  1 -1</clus>
</clustering>
</event>
<event>
 9    1  0.1973774E-005  0.9984316E+02  0.7546771E-02  0.1284108E+00
          1   -1    0    0  502    0  0.00000000000E+00  0.00000000000E+00  0.26209908149E+03  0.26209908149E+03  0.00000000000E+00 0. -1.
         -2   -1    0    0    0  501 -0.00000000000E+00 -0.00000000000E+00 -0.12628693443E+03  0.12628693443E+03  0.00000000000E+00 0.  1.
        -24    2    1    2    0    0  0.22374418031E+02  0.43593847344E+02 -0.91913522462E+02  0.13188260483E+03  0.80894299783E+02 0.  0.
         23    2    1    2    0    0 -0.92246065028E+01 -0.27467701515E+02  0.15319815197E+03  0.17912563007E+03  0.88185880904E+02 0.  0.
         13    1    3    3    0    0  0.45423683286E+02  0.40276692460E+02 -0.34270660296E+02  0.69713708235E+02  0.00000000000E+00 0. -1.
        -14    1    3    3    0    0 -0.23049265255E+02  0.33171548840E+01 -0.57642862166E+02  0.62168896596E+02  0.00000000000E+00 0.  1.
        -11    1    4    4    0    0  0.31357655499E+02 -0.25774009019E+02  0.33197824014E+02  0.52437559235E+02  0.00000000000E+00 0.  1.
         11    1    4    4    0    0 -0.40582262002E+02 -0.16936924969E+01  0.12000032795E+03  0.12668807084E+03  0.00000000000E+00 0. -1.
         21    1    1    2  502  501 -0.13149811528E+02 -0.16126145829E+02  0.74527517554E+02  0.77377781018E+02  0.00000000000E+00 0.  1.
<scales pt_clust_5="13000.00000" pt_clust_6="13000.00000" pt_clust_7="13000.00000" pt_clust_8="13000.00000" pt_clust_9="20.80793"></scales>
<clustering>
<clus scale="   20.808">  1  9  2 -1</clus>
<clus scale="   80.894">  5  6 -1 -1</clus>
<clus scale="   88.186">  7  8 -1 -1</clus>
<clus scale="   93.465">  2  5  1 -1</clus>
<clus scale="   20.808">  1  5  2 -1</clus>
</clustering>
</event>
<event>
 9    1  0.1973774E-005  0.1224960E+03  0.7546771E-02  0.1242363E+00
          1   -1    0    0  502    0  0.00000000000E+00  0.00000000000E+00  0.36824393418E+03  0.36824393418E+03  0.00000000000E+00 0. -1.
         -2   -1    0    0    0  501 -0.00000000000E+00 -0.00000000000E+00 -0.25173156552E+03  0.25173156552E+03  0.00000000000E+00 0.  1.
        -24    2    1    2    0    0 -0.86011926720E+02  0.38443404367E+01 -0.18269429112E+03  0.21713973358E+03  0.79747284593E+02 0.  0.
         23    2    1    2    0    0  0.66235517931E+02  0.34960504879E+02  0.19006675724E+02  0.11927104083E+03  0.90856737354E+02 0.  0.
         13    1    3    3    0    0 -0.49382898605E+01  0.29324598566E+02 -0.69495627892E+02  0.75590747344E+02  0.00000000000E+00 0. -1.
        -14    1    3    3    0    0 -0.81073636859E+02 -0.25480258130E+02 -0.11319866322E+03  0.14154898623E+03  0.00000000000E+00 0.  1.
        -13    1    4    4    0    0  0.14084665512E+02  0.49136912341E+02  0.36112257705E+02  0.62585214816E+02  0.00000000000E+00 0. -1.
         13    1    4    4    0    0  0.52150852419E+02 -0.14176407461E+02 -0.17105581980E+02  0.56685826019E+02  0.00000000000E+00 0.  1.
         21    1    1    2  502  501  0.19776408789E+02 -0.38804845316E+02  0.28019998406E+03  0.28356472529E+03  0.00000000000E+00 0. -1.
<scales pt_clust_5="13000.00000" pt_clust_6="13000.00000" pt_clust_7="13000.00000" pt_clust_8="13000.00000" pt_clust_9="43.55367"></scales>
<clustering>
<clus scale="   43.554">  1  9  2 -1</clus>
<clus scale="   79.747">  5  6 -1 -1</clus>
<clus scale="   90.857">  7  8 -1 -1</clus>
<clus scale="  114.499">  2  5  1 -1</clus>
<clus scale="   43.554">  1  5  2 -1</clus>
</clustering>
</event>
<event>
 9    1  0.1973774E-005  0.1359566E+03  0.7546771E-02  0.1221234E+00
         -2   -1    0    0    0  501 -0.00000000000E+00  0.00000000000E+00  0.16566820155E+03  0.16566820155E+03  0.00000000000E+00 0.  1.
          1   -1    0    0  502    0  0.00000000000E+00 -0.00000000000E+00 -0.21416398295E+03  0.21416398295E+03  0.00000000000E+00 0. -1.
        -24    2    1    2    0    0 -0.82133067757E+02  0.65316878939E+02  0.86668920175E+02  0.15834707790E+03  0.80933057901E+02 0.  0.
         23    2    1    2    0    0  0.90686733484E+02 -0.24049661984E+02 -0.84922245060E+02  0.15590726866E+03  0.91064915539E+02 0.  0.
         13    1    3    3    0    0 -0.20108944876E+02  0.55347207115E+02  0.10839531553E+02  0.59876359640E+02  0.00000000000E+00 0. -1.
        -14    1    3    3    0    0 -0.62024122881E+02  0.99696718240E+01  0.75829388622E+02  0.98470718258E+02  0.00000000000E+00 0.  1.
        -11    1    4    4    0    0  0.48597703080E+02  0.20508516467E+01 -0.93735341755E+02  0.10560424722E+03  0.00000000000E+00 0. -1.
         11    1    4    4    0    0  0.42089030404E+02 -0.26100513630E+02  0.88130966952E+01  0.50303021435E+02  0.00000000000E+00 0.  1.
         21    1    1    2  502  501 -0.85536657273E+01 -0.41267216956E+02 -0.50242456513E+02  0.65577837942E+02  0.00000000000E+00 0. -1.
<scales pt_clust_5="13000.00000" pt_clust_6="13000.00000" pt_clust_7="13000.00000" pt_clust_8="13000.00000" pt_clust_9="42.14438"></scales>
<clustering>
<clus scale="   42.144">  2  9  1 -1</clus>
<clus scale="   80.933">  5  6 -1 -1</clus>
<clus scale="   91.065">  7  8 -1 -1</clus>
<clus scale="  129.389">  1  5  2 -1</clus>
<clus scale="   42.144">  2  5  1 -1</clus>
</clustering>
</event>
<event>
 9    1  0.1973774E-005  0.1485964E+03  0.7546771E-02  0.1203973E+00
         -2   -1    0    0    0  501 -0.00000000000E+00  0.00000000000E+00  0.20009745403E+03  0.20009745403E+03  0.00000000000E+00 0.  1.
          1   -1    0    0  502    0  0.00000000000E+00 -0.00000000000E+00 -0.16473967679E+03  0.16473967679E+03  0.00000000000E+00 0. -1.
        -24    2    1    2    0    0  0.97084352261E+02  0.80988897339E+02  0.96979632284E+02  0.17929571134E+03  0.82202980975E+02 0.  0.
         23    2    1    2    0    0 -0.66420374608E+02 -0.73779440471E+02 -0.25158192372E+02  0.13735579414E+03  0.91534734072E+02 0.  0.
         13    1    3    3    0    0  0.98663236589E+02  0.77853025932E+02  0.55030914920E+02  0.13720032616E+03  0.00000000000E+00 0. -1.
        -14    1    3    3    0    0 -0.15788843279E+01  0.31358714070E+01  0.41948717364E+02  0.42095385183E+02  0.00000000000E+00 0.  1.
        -11    1    4    4    0    0 -0.14810272530E+02  0.21816810527E+02 -0.38660125447E+01  0.26650768225E+02  0.00000000000E+00 0.  1.
         11    1    4    4    0    0 -0.51610102079E+02 -0.95596250998E+02 -0.21292179828E+02  0.11070502592E+03  0.00000000000E+00 0. -1.
         21    1    1    2  502  501 -0.30663977652E+02 -0.72094568676E+01 -0.36463662671E+02  0.48185625338E+02  0.00000000000E+00 0. -1.
<scales pt_clust_5="13000.00000" pt_clust_6="13000.00000" pt_clust_7="13000.00000" pt_clust_8="13000.00000" pt_clust_9="31.50009"></scales>
<clustering>
<clus scale="   31.500">  2  9  1 -1</clus>
<clus scale="   82.203">  5  6 -1 -1</clus>
<clus scale="   91.535">  7  8 -1 -1</clus>
<clus scale="  143.037">  1  5  2 -1</clus>
<clus scale="   31.500">  2  5  1 -1</clus>
</clustering>
</event>
<event>
 9    1  0.1973774E-005  0.9815889E+02  0.7546771E-02  0.1292987E+00
         -2   -1    0    0    0  501 -0.00000000000E+00  0.00000000000E+00  0.22874424887E+03  0.22874424887E+03  0.00000000000E+00 0.  1.
          1   -1    0    0  502    0  0.00000000000E+00 -0.00000000000E+00 -0.26896920728E+03  0.26896920728E+03  0.00000000000E+00 0. -1.
        -24    2    1    2    0    0  0.21652299657E+02  0.19107238747E+02  0.19969101284E+03  0.21634027815E+03  0.78055792136E+02 0.  0.
         23    2    1    2    0    0 -0.40119778771E+01 -0.40276748609E+02 -0.11660087349E+03  0.15501676765E+03  0.93787643690E+02 0.  0.
         13    1    3    3    0    0  0.32378177944E+02  0.92226455709E+01  0.27328900764E+02  0.43362108059E+02  0.00000000000E+00 0. -1.
        -14    1    3    3    0    0 -0.10725878287E+02  0.98845931759E+01  0.17236211208E+03  0.17297817009E+03  0.00000000000E+00 0.  1.
        -13    1    4    4    0    0  0.41356436555E+02 -0.38873137990E+02 -0.65114169989E+02  0.86378995335E+02  0.00000000000E+00 0.  1.
         13    1    4    4    0    0 -0.45368414432E+02 -0.14036106187E+01 -0.51486703503E+02  0.68637772316E+02  0.00000000000E+00 0. -1.
         21    1    1    2  502  501 -0.17640321780E+02  0.21169509862E+02 -0.12331509776E+03  0.12635641035E+03  0.00000000000E+00 0. -1.
<scales pt_clust_5="13000.00000" pt_clust_6="13000.00000" pt_clust_7="13000.00000" pt_clust_8="13000.00000" pt_clust_9="27.55593"></scales>
<clustering>
<clus scale="   27.556">  2  9  1 -1</clus>
<clus scale="   78.056">  5  6 -1 -1</clus>
<clus scale="   83.257">  1  5  2 -1</clus>
<clus scale="   93.788">  7  8 -1 -1</clus>
<clus scale="   27.556">  2  5  1 -1</clus>
</clustering>
</event>
<event>
 9    1  0.1973774E-005  0.9627946E+02  0.7546771E-02  0.1294591E+00
         -2   -1    0    0    0  501 -0.00000000000E+00  0.00000000000E+00  0.78416447416E+02  0.78416447416E+02  0.00000000000E+00 0.  1.
          1   -1    0    0  502    0  0.00000000000E+00 -0.00000000000E+00 -0.23799161725E+03  0.23799161725E+03  0.00000000000E+00 0. -1.
         23    2    1    2    0    0  0.37095851308E+02  0.25210250449E+02 -0.51310260663E+01  0.10172046189E+03  0.91154078502E+02 0.  0.
        -24    2    1    2    0    0 -0.12928198667E+02  0.30268592407E+02 -0.10874431124E+03  0.13885586712E+03  0.79826691024E+02 0.  0.
         13    1    4    4    0    0 -0.39941258438E+02  0.35595319471E+02 -0.46852158545E+02  0.71115790470E+02  0.00000000000E+00 0. -1.
        -14    1    4    4    0    0  0.27013059771E+02 -0.53267270640E+01 -0.61892152699E+02  0.67740076655E+02  0.00000000000E+00 0.  1.
        -13    1    3    3    0    0  0.11553826482E+02 -0.28227996936E+02  0.20950829152E+02  0.37003350653E+02  0.00000000000E+00 0.  1.
         13    1    3    3    0    0  0.25542024826E+02  0.53438247385E+02 -0.26081855218E+02  0.64717111241E+02  0.00000000000E+00 0. -1.
         21    1    1    2  502  501 -0.24167652641E+02 -0.55478842856E+02 -0.45699832527E+02  0.75831735650E+02  0.00000000000E+00 0. -1.
<scales pt_clust_5="13000.00000" pt_clust_6="13000.00000" pt_clust_7="13000.00000" pt_clust_8="13000.00000" pt_clust_9="60.51427"></scales>
<clustering>
<clus scale="   60.514">  2  9  1 -1</clus>
<clus scale="   79.827">  5  6 -1 -1</clus>
<clus scale="   85.633">  2  5  1 -1</clus>
<clus scale="   91.154">  7  8 -1 -1</clus>
<clus scale="   60.514">  2  5  1 -1</clus>
</clustering>
</event>
<event>
 9    1  0.1973774E-005  0.9588282E+02  0.7546771E-02  0.1298162E+00
          1   -1    0    0  502    0  0.00000000000E+00  0.00000000000E+00  0.34929187229E+02  0.34929187229E+02  0.00000000000E+00 0. -1.
         -2   -1    0    0    0  501 -0.00000000000E+00 -0.00000000000E+00 -0.55167816773E+03  0.55167816773E+03  0.00000000000E+00 0.  1.
        -24    2    1    2    0    0 -0.22896560174E+01 -0.20143424793E+02 -0.38136613022E+03  0.39014686949E+03  0.79771263023E+02 0.  0.
         23    2    1    2    0    0  0.23532520404E+02 -0.17426007159E+02 -0.96950770317E+02  0.13866994753E+03  0.94723055494E+02 0.  0.
         11    1    3    3    0    0 -0.26357436348E+02 -0.69976314306E+01 -0.44673984699E+02  0.52339719194E+02  0.00000000000E+00 0. -1.
        -12    1    3    3    0    0  0.24067780330E+02 -0.13145793363E+02 -0.33669214552E+03  0.33780715029E+03  0.00000000000E+00 0.  1.
        -13    1    4    4    0    0 -0.19526718659E+02 -0.12649772054E+02  0.84182186753E+01  0.24742188268E+02  0.00000000000E+00 0.  1.
         13    1    4    4    0    0  0.43059239063E+02 -0.47762351043E+01 -0.10536898899E+03  0.11392775927E+03  0.00000000000E+00 0. -1.
         21    1    1    2  502  501 -0.21242864386E+02  0.37569431952E+02 -0.38432079961E+02  0.57790537934E+02  0.00000000000E+00 0. -1.
<scales pt_clust_5="13000.00000" pt_clust_6="13000.00000" pt_clust_7="13000.00000" pt_clust_8="13000.00000" pt_clust_9="43.15926"></scales>
<clustering>
<clus scale="   43.159">  1  9  2 -1</clus>
<clus scale="   79.771">  5  6 -1 -1</clus>
<clus scale="   81.145">  2  5  1 -1</clus>
<clus scale="   94.723">  7  8 -1 -1</clus>
<clus scale="   43.159">  1  5  2 -1</clus>
</clustering>
</event>
<event>
 9    1  0.1973774E-005  0.1599207E+03  0.7546771E-02  0.1190996E+00
         -2   -1    0    0    0  501 -0.00000000000E+00  0.00000000000E+00  0.89752830845E+03  0.89752830845E+03  0.00000000000E+00 0.  1.
          1   -1    0    0  502    0  0.00000000000E+00 -0.00000000000E+00 -0.17144958915E+03  0.17144958915E+03  0.00000000000E+00 0. -1.
        -24    2    1    2    0    0  0.11310261225E+03 -0.57170664365E+02  0.79261532774E+03  0.80670266276E+03  0.80432845092E+02 0.  0.
         23    2    1    2    0    0 -0.16255127867E+03  0.73272267826E+02 -0.55768161138E+02  0.20916787470E+03  0.94071082599E+02 0.  0.
         11    1    3    3    0    0  0.38816129717E+02 -0.14113734041E+02  0.92003579836E+02  0.10084913543E+03  0.00000000000E+00 0. -1.
        -12    1    3    3    0    0  0.74286482529E+02 -0.43056930324E+02  0.70061174790E+03  0.70585352732E+03  0.00000000000E+00 0.  1.
        -11    1    4    4    0    0 -0.46572471539E+02 -0.19084050318E+02 -0.30269699989E+02  0.58732025499E+02  0.00000000000E+00 0.  1.
         11    1    4    4    0    0 -0.11597880713E+03  0.92356318144E+02 -0.25498461149E+02  0.15043584920E+03  0.00000000000E+00 0. -1.
         21    1    1    2  502  501  0.49448666419E+02 -0.16101603461E+02 -0.10768447299E+02  0.53107360148E+02  0.00000000000E+00 0.  1.
<scales pt_clust_5="13000.00000" pt_clust_6="13000.00000" pt_clust_7="13000.00000" pt_clust_8="13000.00000" pt_clust_9="52.00416"></scales>
<clustering>
<clus scale="   52.004">  2  9  1 -1</clus>
<clus scale="   80.433">  5  6 -1 -1</clus>
<clus scale="   94.071">  7  8 -1 -1</clus>
<clus scale="  152.298">  1  5  2 -1</clus>
<clus scale="   52.004">  2  5  1 -1</clus>
</clustering>
</event>
<event>
 9    1  0.1973774E-005  0.1005974E+03  0.7546771E-02  0.1283626E+00
          1   -1    0    0  502    0  0.00000000000E+00  0.00000000000E+00  0.16567293832E+03  0.16567293832E+03  0.00000000000E+00 0. -1.
         -2   -1    0    0    0  501 -0.00000000000E+00 -0.00000000000E+00 -0.15397228887E+03  0.15397228887E+03  0.00000000000E+00 0.  1.
        -24    2    1    2    0    0  0.40420092536E+02  0.25670280844E+02 -0.11228912518E+03  0.14604043256E+03  0.80163664514E+02 0.  0.
         23    2    1    2    0    0 -0.33942936582E+02 -0.88289329896E+00  0.97853167384E+02  0.13700574589E+03  0.89679594087E+02 0.  0.
         11    1    3    3    0    0 -0.19227806662E+02 -0.82962020807E+01 -0.46338725042E+02  0.50850889437E+02  0.00000000000E+00 0. -1.
        -12    1    3    3    0    0  0.59647899198E+02  0.33966482925E+02 -0.65950400137E+02  0.95189543119E+02  0.00000000000E+00 0.  1.
        -11    1    4    4    0    0 -0.25283556575E+02 -0.39679521076E+02  0.23268997489E+02  0.52489702514E+02  0.00000000000E+00 0.  1.
         11    1    4    4    0    0 -0.86593800076E+01  0.38796627777E+02  0.74584169895E+02  0.84516043376E+02  0.00000000000E+00 0. -1.
         21    1    1    2  502  501 -0.64771559537E+01 -0.24787387545E+02  0.26136607244E+02  0.36599048741E+02  0.00000000000E+00 0.  1.
<scales pt_clust_5="13000.00000" pt_clust_6="13000.00000" pt_clust_7="13000.00000" pt_clust_8="13000.00000" pt_clust_9="25.61968"></scales>
<clustering>
<clus scale="   25.620">  1  9  2 -1</clus>
<clus scale="   80.164">  5  6 -1 -1</clus>
<clus scale="   89.680">  7  8 -1 -1</clus>
<clus scale="   92.215">  2  5  1 -1</clus>
<clus scale="   25.620">  1  5  2 -1</clus>
</clustering>
</event>
<event>
 9    1  0.1973774E-005  0.1655624E+03  0.7546771E-02  0.1184209E+00
         -2   -1    0    0    0  501 -0.00000000000E+00  0.00000000000E+00  0.14710982930E+03  0.14710982930E+03  0.00000000000E+00 0.  1.
          1   -1    0    0  502    0  0.00000000000E+00 -0.00000000000E+00 -0.31958731206E+03  0.31958731206E+03  0.00000000000E+00 0. -1.
         23    2    1    2    0    0  0.45730642058E+02  0.14407002535E+03  0.47171138995E+02  0.18248400371E+03  0.90707394579E+02 0.  0.
        -24    2    1    2    0    0 -0.25941782549E+02 -0.98556918081E+02 -0.17500411135E+03  0.21745855577E+03  0.79217058152E+02 0.  0.
         11    1    4    4    0    0  0.89482003243E+01 -0.37204096027E+02 -0.12561705633E+03  0.13131587829E+03  0.00000000000E+00 0. -1.
        -12    1    4    4    0    0 -0.34889982874E+02 -0.61352822054E+02 -0.49387055022E+02  0.86142677475E+02  0.00000000000E+00 0.  1.
        -13    1    3    3    0    0  0.51303782120E+02  0.10923005897E+03  0.70899517378E+02  0.13996437192E+03  0.00000000000E+00 0.  1.
         13    1    3    3    0    0 -0.55731400623E+01  0.34839966380E+02 -0.23728378383E+02  0.42519631797E+02  0.00000000000E+00 0. -1.
         21    1    1    2  502  501 -0.19788859509E+02 -0.45513107265E+02 -0.44644510400E+02  0.66754581883E+02  0.00000000000E+00 0. -1.
<scales pt_clust_5="13000.00000" pt_clust_6="13000.00000" pt_clust_7="13000.00000" pt_clust_8="13000.00000" pt_clust_9="49.62904"></scales>
<clustering>
<clus scale="   49.629">  2  9  1 -1</clus>
<clus scale="   79.217">  5  6 -1 -1</clus>
<clus scale="   90.707">  7  8 -1 -1</clus>
<clus scale="  159.557">  2  5  1 -1</clus>
<clus scale="   49.629">  2  5  1 -1</clus>
</clustering>
</event>
<event>
 9    1  0.1973774E-005  0.1386042E+03  0.7546771E-02  0.1217772E+00
          1   -1    0    0  502    0  0.00000000000E+00  0.00000000000E+00  0.25417782177E+03  0.25417782177E+03  0.00000000000E+00 0. -1.
         -2   -1    0    0    0  501 -0.00000000000E+00 -0.00000000000E+00 -0.15779240882E+03  0.15779240882E+03  0.00000000000E+00 0.  1.
        -24    2    1    2    0    0  0.62228469197E+02  0.85351989434E+02 -0.95021446331E+02  0.16407780901E+03  0.82067701726E+02 0.  0.
         23    2    1    2    0    0 -0.35010024167E+02 -0.82016058098E+02  0.14604095680E+03  0.19488263668E+03  0.93268137307E+02 0.  0.
         11    1    3    3    0    0 -0.79169398524E+01  0.35983552344E+02 -0.10702925152E+01  0.36859727372E+02  0.00000000000E+00 0. -1.
        -12    1    3    3    0    0  0.70145409049E+02  0.49368437091E+02 -0.93951153816E+02  0.12721808163E+03  0.00000000000E+00 0.  1.
        -13    1    4    4    0    0  0.22893486726E+02  0.52886098335E+01  0.18992153329E+02  0.30212299093E+02  0.00000000000E+00 0.  1.
         13    1    4    4    0    0 -0.57903510892E+02 -0.87304667932E+02  0.12704880347E+03  0.16467033758E+03  0.00000000000E+00 0. -1.
         21    1    1    2  502  501 -0.27218445030E+02 -0.33359313361E+01  0.45365902477E+02  0.53009784901E+02  0.00000000000E+00 0. -1.
<scales pt_clust_5="13000.00000" pt_clust_6="13000.00000" pt_clust_7="13000.00000" pt_clust_8="13000.00000" pt_clust_9="27.42211"></scales>
<clustering>
<clus scale="   27.422">  1  9  2 -1</clus>
<clus scale="   82.068">  5  6 -1 -1</clus>
<clus scale="   93.268">  7  8 -1 -1</clus>
<clus scale="  131.329">  2  5  1 -1</clus>
<clus scale="   27.422">  1  5  2 -1</clus>
</clustering>
</event>
<event>
 9    1  0.1973774E-005  0.1483489E+03  0.7546771E-02  0.1204265E+00
          3   -1    0    0  502    0  0.00000000000E+00  0.00000000000E+00  0.11025349667E+03  0.11025349667E+03  0.00000000000E+00 0. -1.
         -4   -1    0    0    0  501 -0.00000000000E+00 -0.00000000000E+00 -0.37244638716E+03  0.37244638716E+03  0.00000000000E+00 0.  1.
         23    2    1    2    0    0  0.29476289742E+02  0.12162049453E+03 -0.26833602795E+03  0.30960637799E+03  0.90506845334E+02 0.  0.
        -24    2    1    2    0    0  0.91447909070E+01 -0.97745425920E+02  0.99395857668E+00  0.12739754524E+03  0.81187136234E+02 0.  0.
         13    1    4    4    0    0 -0.30091232372E+02 -0.77668246329E+02  0.18627492959E+01  0.83314516073E+02  0.00000000000E+00 0. -1.
        -14    1    4    4    0    0  0.39236023279E+02 -0.20077179591E+02 -0.86879071922E+00  0.44083029165E+02  0.00000000000E+00 0.  1.
        -13    1    3    3    0    0  0.51630699433E+02  0.10919550805E+03 -0.25187208365E+03  0.27933659736E+03  0.00000000000E+00 0.  1.
         13    1    3    3    0    0 -0.22154409691E+02  0.12424986475E+02 -0.16463944299E+02  0.30269780632E+02  0.00000000000E+00 0. -1.
         21    1    1    2  502  501 -0.38621080649E+02 -0.23875068609E+02  0.51491788848E+01  0.45695960596E+02  0.00000000000E+00 0. -1.
<scales pt_clust_5="13000.00000" pt_clust_6="13000.00000" pt_clust_7="13000.00000" pt_clust_8="13000.00000" pt_clust_9="45.40492"></scales>
<clustering>
<clus scale="   45.405">  1  9  2 -1</clus>
<clus scale="   81.187">  5  6 -1 -1</clus>
<clus scale="   90.507">  7  8 -1 -1</clus>
<clus scale="  142.854">  1  5  2 -1</clus>
<clus scale="   45.405">  1  5  2 -1</clus>
</clustering>
</event>
<event>
 9    1  0.1973774E-005  0.1219173E+03  0.7546771E-02  0.1254365E+00
         -2   -1    0    0    0  501 -0.00000000000E+00  0.00000000000E+00  0.14047624376E+04  0.14047624376E+04  0.00000000000E+00 0.  1.
          1   -1    0    0  502    0  0.00000000000E+00 -0.00000000000E+00 -0.20320787433E+02  0.20320787433E+02  0.00000000000E+00 0. -1.
        -24    2    1    2    0    0 -0.23795661704E+02 -0.85792157295E+02  0.76591063535E+03  0.77546854276E+03  0.82497464793E+02 0.  0.
         23    2    1    2    0    0 -0.21010626005E+02  0.56734135767E+01  0.18304974426E+03  0.20456350149E+03  0.88686995898E+02 0.  0.
         11    1    3    3    0    0 -0.21979827363E+02 -0.36423808669E+02  0.11384014893E+03  0.12152936335E+03  0.00000000000E+00 0. -1.
        -12    1    3    3    0    0 -0.18158343414E+01 -0.49368348625E+02  0.65207048642E+03  0.65393917941E+03  0.00000000000E+00 0.  1.
        -11    1    4    4    0    0 -0.30281953451E+02 -0.30014966945E+02  0.46349369931E+02  0.62977448650E+02  0.00000000000E+00 0.  1.
         11    1    4    4    0    0  0.92713274460E+01  0.35688380521E+02  0.13670037433E+03  0.14158605284E+03  0.00000000000E+00 0. -1.
         21    1    1    2  502  501  0.44806287710E+02  0.80118743718E+02  0.43548127059E+03  0.44505118082E+03  0.00000000000E+00 0. -1.
<scales pt_clust_5="13000.00000" pt_clust_6="13000.00000" pt_clust_7="13000.00000" pt_clust_8="13000.00000" pt_clust_9="89.76640"></scales>
<clustering>
<clus scale="   82.497">  5  6 -1 -1</clus>
<clus scale="   88.687">  7  8 -1 -1</clus>
<clus scale="   91.318">  2  7  1 -1</clus>
<clus scale="   89.766">  2  9  1 -1</clus>
<clus scale="   91.318">  2  5  1 -1</clus>
</clustering>
</event>
<event>
 9    1  0.1973774E-005  0.9063134E+02  0.7546771E-02  0.1308109E+00
         -4   -1    0    0    0  501 -0.00000000000E+00  0.00000000000E+00  0.10787306299E+03  0.10787306299E+03  0.00000000000E+00 0.  1.
          3   -1    0    0  502    0  0.00000000000E+00 -0.00000000000E+00 -0.40024731579E+03  0.40024731579E+03  0.00000000000E+00 0. -1.
        -24    2    1    2    0    0  0.77692539962E+01 -0.35235668536E+01  0.79725184414E+02  0.11311381416E+03  0.79786296393E+02 0.  0.
         23    2    1    2    0    0  0.20749473408E+02  0.11980023904E+01 -0.19894150847E+03  0.21950045548E+03  0.90392202687E+02 0.  0.
         13    1    3    3    0    0  0.14181754543E+01  0.36617519746E+02  0.22760888184E+02  0.43138289313E+02  0.00000000000E+00 0. -1.
        -14    1    3    3    0    0  0.63510785419E+01 -0.40141086600E+02  0.56964296230E+02  0.69975524843E+02  0.00000000000E+00 0.  1.
        -11    1    4    4    0    0  0.26264749801E+02 -0.40976627250E+02 -0.86035052827E+02  0.98848122784E+02  0.00000000000E+00 0.  1.
         11    1    4    4    0    0 -0.55152763924E+01  0.42174629640E+02 -0.11290645565E+03  0.12065233270E+03  0.00000000000E+00 0. -1.
         21    1    1    2  502  501 -0.28518727404E+02  0.23255644632E+01 -0.17315792874E+03  0.17550610914E+03  0.00000000000E+00 0. -1.
<scales pt_clust_5="13000.00000" pt_clust_6="13000.00000" pt_clust_7="13000.00000" pt_clust_8="13000.00000" pt_clust_9="28.61339"></scales>
<clustering>
<clus scale="   28.613">  2  9  1 -1</clus>
<clus scale="   79.786">  5  6 -1 -1</clus>
<clus scale="   80.057">  1  5  2 -1</clus>
<clus scale="   90.392">  7  8 -1 -1</clus>
<clus scale="   28.613">  2  5  1 -1</clus>
</clustering>
</event>
<event>
 9    1  0.1973774E-005  0.9300820E+02  0.7546771E-02  0.1302078E+00
         -2   -1    0    0    0  501 -0.00000000000E+00  0.00000000000E+00  0.36867411752E+02  0.36867411752E+02  0.00000000000E+00 0.  1.
          1   -1    0    0  502    0  0.00000000000E+00 -0.00000000000E+00 -0.71141085157E+03  0.71141085157E+03  0.00000000000E+00 0. -1.
         23    2    1    2    0    0  0.16709611320E+02  0.55750495274E+01 -0.48463782297E+02  0.10408626681E+03  0.90415266722E+02 0.  0.
        -24    2    1    2    0    0  0.23376884572E+02 -0.10540644310E+02 -0.56357013193E+03  0.56976736971E+03  0.79787079596E+02 0.  0.
         11    1    4    4    0    0  0.10800781296E+02 -0.38871582872E+02 -0.15997952694E+03  0.16498819919E+03  0.00000000000E+00 0. -1.
        -12    1    4    4    0    0  0.12576103276E+02  0.28330938562E+02 -0.40359060499E+03  0.40477917052E+03  0.00000000000E+00 0.  1.
        -11    1    3    3    0    0 -0.36996451262E+02  0.49030979328E+01 -0.27808227188E+02  0.46541113810E+02  0.00000000000E+00 0.  1.
         11    1    3    3    0    0  0.53706062583E+02  0.67195159462E+00 -0.20655555110E+02  0.57545153001E+02  0.00000000000E+00 0. -1.
         21    1    1    2  502  501 -0.40086495892E+02  0.49655947830E+01 -0.62509525591E+02  0.74424626798E+02  0.00000000000E+00 0.  1.
<scales pt_clust_5="13000.00000" pt_clust_6="13000.00000" pt_clust_7="13000.00000" pt_clust_8="13000.00000" pt_clust_9="40.39287"></scales>
<clustering>
<clus scale="   40.393">  1  9  2 -1</clus>
<clus scale="   79.787">  5  6 -1 -1</clus>
<clus scale="   82.714">  2  5  1 -1</clus>
<clus scale="   90.415">  7  8 -1 -1</clus>
<clus scale="   82.714">  2  5  1 -1</clus>
</clustering>
</event>
<event>
 9    1  0.1973774E-005  0.1075423E+03  0.7546771E-02  0.1270869E+00
         -2   -1    0    0    0  501 -0.00000000000E+00  0.00000000000E+00  0.30734764005E+03  0.30734764005E+03  0.00000000000E+00 0.  1.
          1   -1    0    0  502    0  0.00000000000E+00 -0.00000000000E+00 -0.80532372634E+02  0.80532372634E+02  0.00000000000E+00 0. -1.
        -24    2    1    2    0    0 -0.23203207289E+02 -0.48224626251E+02  0.23488014686E+03  0.25413328213E+03  0.80938484613E+02 0.  0.
         23    2    1    2    0    0 -0.14115309921E+01  0.50045525635E+02  0.33244411573E+01  0.10656369101E+03  0.94011814560E+02 0.  0.
         13    1    3    3    0    0  0.28980016418E+02 -0.59240153010E+01  0.63218883950E+02  0.69796580122E+02  0.00000000000E+00 0. -1.
        -14    1    3    3    0    0 -0.52183223706E+02 -0.42300610950E+02  0.17166126291E+03  0.18433670201E+03  0.00000000000E+00 0.  1.
        -13    1    4    4    0    0 -0.20970382185E+02 -0.12684524080E+02  0.27236134984E+02  0.36639611475E+02  0.00000000000E+00 0.  1.
         13    1    4    4    0    0  0.19558851193E+02  0.62730049715E+02 -0.23911693827E+02  0.69924079535E+02  0.00000000000E+00 0. -1.
         21    1    1    2  502  501  0.24614738281E+02 -0.18208993834E+01 -0.11389320600E+02  0.27183039546E+02  0.00000000000E+00 0.  1.
<scales pt_clust_5="13000.00000" pt_clust_6="13000.00000" pt_clust_7="13000.00000" pt_clust_8="13000.00000" pt_clust_9="24.68200"></scales>
<clustering>
<clus scale="   24.682">  2  9  1 -1</clus>
<clus scale="   80.938">  5  6 -1 -1</clus>
<clus scale="   94.012">  7  8 -1 -1</clus>
<clus scale="   96.323">  1  5  2 -1</clus>
<clus scale="   24.682">  2  5  1 -1</clus>
</clustering>
</event>
<event>
 9    1  0.1973774E-005  0.1264071E+03  0.7546771E-02  0.1238115E+00
         -2   -1    0    0    0  501 -0.00000000000E+00  0.00000000000E+00  0.61511240074E+02  0.61511240074E+02  0.00000000000E+00 0.  1.
          1   -1    0    0  502    0  0.00000000000E+00 -0.00000000000E+00 -0.57530260293E+03  0.57530260293E+03  0.00000000000E+00 0. -1.
         23    2    1    2    0    0  0.70104119006E+02 -0.10059568370E+03 -0.10832093580E+03  0.19067665545E+03  0.97928967725E+02 0.  0.
        -24    2    1    2    0    0 -0.32421109052E+02  0.22106583776E+02 -0.13588128054E+03  0.16283724763E+03  0.80699550531E+02 0.  0.
         11    1    4    4    0    0  0.23614904403E+02  0.23949848991E+02 -0.53126418962E+02  0.62878258312E+02  0.00000000000E+00 0. -1.
        -12    1    4    4    0    0 -0.56036013455E+02 -0.18432652147E+01 -0.82754861580E+02  0.99958989319E+02  0.00000000000E+00 0.  1.
        -11    1    3    3    0    0  0.50360797697E+01 -0.64354410290E+02 -0.70050610655E+01  0.64930140180E+02  0.00000000000E+00 0.  1.
         11    1    3    3    0    0  0.65068039236E+02 -0.36241273405E+02 -0.10131587474E+03  0.12574651527E+03  0.00000000000E+00 0. -1.
         21    1    1    2  502  501 -0.37683009954E+02  0.78489099919E+02 -0.26958914651E+03  0.28329993992E+03  0.00000000000E+00 0.  1.
<scales pt_clust_5="13000.00000" pt_clust_6="13000.00000" pt_clust_7="13000.00000" pt_clust_8="13000.00000" pt_clust_9="87.06634"></scales>
<clustering>
<clus scale="   80.700">  5  6 -1 -1</clus>
<clus scale="   87.066">  2  9  1 -1</clus>
<clus scale="   97.929">  7  8 -1 -1</clus>
<clus scale="  113.583">  2  5  1 -1</clus>
<clus scale="   87.066">  2  5  1 -1</clus>
</clustering>
</event>
<event>
 9    1  0.1973774E-005  0.1077979E+03  0.7546771E-02  0.1280267E+00
          1   -1    0    0  502    0  0.00000000000E+00  0.00000000000E+00  0.15183582412E+03  0.15183582412E+03  0.00000000000E+00 0. -1.
         -2   -1    0    0    0  501 -0.00000000000E+00 -0.00000000000E+00 -0.24329031468E+03  0.24329031468E+03  0.00000000000E+00 0.  1.
        -24    2    1    2    0    0 -0.17064262812E+02 -0.24768620042E+01 -0.19321273484E+03  0.20910791954E+03  0.78087369019E+02 0.  0.
         23    2    1    2    0    0  0.14155132001E+02 -0.26811322073E+02  0.40199620393E+02  0.11778534637E+03  0.10648081323E+03 0.  0.
         13    1    3    3    0    0 -0.23231550704E+02 -0.33043956600E+02 -0.15288118144E+03  0.15812736529E+03  0.00000000000E+00 0. -1.
        -14    1    3    3    0    0  0.61672878924E+01  0.30567094596E+02 -0.40331553401E+02  0.50980554251E+02  0.00000000000E+00 0.  1.
        -11    1    4    4    0    0  0.40112749306E+02 -0.38273031625E+02  0.61128822672E+02  0.82526302279E+02  0.00000000000E+00 0. -1.
         11    1    4    4    0    0 -0.25957617306E+02  0.11461709551E+02 -0.20929202279E+02  0.35259044089E+02  0.00000000000E+00 0.  1.
         21    1    1    2  502  501  0.29091308111E+01  0.29288184078E+02  0.61558623882E+02  0.68232872890E+02  0.00000000000E+00 0. -1.
<scales pt_clust_5="13000.00000" pt_clust_6="13000.00000" pt_clust_7="13000.00000" pt_clust_8="13000.00000" pt_clust_9="29.43231"></scales>
<clustering>
<clus scale="   29.432">  1  9  2 -1</clus>
<clus scale="   78.087">  5  6 -1 -1</clus>
<clus scale="   79.874">  2  5  1 -1</clus>
<clus scale="  106.481">  7  8 -1 -1</clus>
<clus scale="   29.432">  1  5  2 -1</clus>
</clustering>
</event>
<event>
 9    1  0.1973774E-005  0.1176189E+03  0.7546771E-02  0.1250352E+00
          1   -1    0    0  502    0  0.00000000000E+00  0.00000000000E+00  0.96136762363E+03  0.96136762363E+03  0.00000000000E+00 0. -1.
         -2   -1    0    0    0  501 -0.00000000000E+00 -0.00000000000E+00 -0.43213062753E+02  0.43213062753E+02  0.00000000000E+00 0.  1.
         23    2    1    2    0    0  0.71373625081E+02  0.91020560929E+01  0.55916724967E+02  0.12876144413E+03  0.90971355821E+02 0.  0.
        -24    2    1    2    0    0 -0.93334795638E+02 -0.24166586829E+02  0.74658587486E+03  0.75714064607E+03  0.81093041580E+02 0.  0.
         11    1    4    4    0    0 -0.72957015746E+02 -0.23534436862E+02  0.28575310077E+03  0.29585711157E+03  0.00000000000E+00 0. -1.
        -12    1    4    4    0    0 -0.20377779892E+02 -0.63214996631E+00  0.46083277408E+03  0.46128353450E+03  0.00000000000E+00 0.  1.
        -11    1    3    3    0    0 -0.20044734890E+02 -0.57450136648E+01  0.55280884951E+00  0.20859102964E+02  0.00000000000E+00 0. -1.
         11    1    3    3    0    0  0.91418359972E+02  0.14847069758E+02  0.55363916118E+02  0.10790234116E+03  0.00000000000E+00 0.  1.
         21    1    1    2  502  501  0.21961170556E+02  0.15064530736E+02  0.11565196105E+03  0.11867859619E+03  0.00000000000E+00 0.  1.
<scales pt_clust_5="13000.00000" pt_clust_6="13000.00000" pt_clust_7="13000.00000" pt_clust_8="13000.00000" pt_clust_9="26.63143"></scales>
<clustering>
<clus scale="   26.631">  1  9  2 -1</clus>
<clus scale="   81.093">  5  6 -1 -1</clus>
<clus scale="   90.971">  7  8 -1 -1</clus>
<clus scale="  110.157">  1  5  2 -1</clus>
<clus scale="   26.631">  1  5  2 -1</clus>
</clustering>
</event>
<event>
 9    1  0.2410152E-005  0.1012808E+03  0.7546771E-02  0.1284067E+00
         -2   -1    0    0    0  501 -0.00000000000E+00  0.00000000000E+00  0.13707868366E+03  0.13707868366E+03  0.00000000000E+00 0.  1.
          1   -1    0    0  502    0  0.00000000000E+00 -0.00000000000E+00 -0.27307527329E+03  0.27307527329E+03  0.00000000000E+00 0. -1.
         23    2    1    2    0    0 -0.30515594648E+02 -0.27804565910E+02  0.10353620303E+03  0.14525001391E+03  0.93131765804E+02 0.  0.
        -24    2    1    2    0    0  0.78202513103E+01  0.26537680074E+02 -0.21643121871E+03  0.23249458747E+03  0.80286088323E+02 0.  0.
         11    1    4    4    0    0  0.32594337535E+02  0.40764030119E+02 -0.17135872871E+03  0.17913098809E+03  0.00000000000E+00 0. -1.
        -12    1    4    4    0    0 -0.24774086225E+02 -0.14226350045E+02 -0.45072490000E+02  0.53363599379E+02  0.00000000000E+00 0.  1.
        -13    1    3    3    0    0 -0.51633502668E+02 -0.49140670621E+02  0.79642887283E+02  0.10688224175E+03  0.00000000000E+00 0.  1.
         13    1    3    3    0    0  0.21117908020E+02  0.21336104711E+02  0.23893315748E+02  0.38367772164E+02  0.00000000000E+00 0. -1.
         21    1    1    2  502  501  0.22695343338E+02  0.12668858367E+01 -0.23101573958E+02  0.32409355567E+02  0.00000000000E+00 0.  1.
<scales pt_clust_5="13000.00000" pt_clust_6="13000.00000" pt_clust_7="13000.00000" pt_clust_8="13000.00000" pt_clust_9="22.73068"></scales>
<clustering>
<clus scale="   22.731">  2  9  1 -1</clus>
<clus scale="   80.286">  5  6 -1 -1</clus>
<clus scale="   89.611">  2  5  1 -1</clus>
<clus scale="   93.132">  7  8 -1 -1</clus>
<clus scale="   22.731">  2  5  1 -1</clus>
</clustering>
</event>
<event>
 9    1  0.1973774E-005  0.2141530E+03  0.7546771E-02  0.1139016E+00
          1   -1    0    0  502    0  0.00000000000E+00  0.00000000000E+00  0.11275984575E+04  0.11275984575E+04  0.00000000000E+00 0. -1.
         -2   -1    0    0    0  501 -0.00000000000E+00 -0.00000000000E+00 -0.67409098326E+02  0.67409098326E+02  0.00000000000E+00 0.  1.
         23    2    1    2    0    0 -0.17389239379E+03 -0.51086651045E+02  0.26693374765E+03  0.33537799341E+03  0.91522468802E+02 0.  0.
        -24    2    1    2    0    0  0.17926264702E+03  0.13970586735E+03  0.55757841043E+03  0.60778447465E+03  0.82797692320E+02 0.  0.
         11    1    4    4    0    0  0.31098630855E+02  0.80554624968E+00  0.33428662579E+02  0.45664529206E+02  0.00000000000E+00 0. -1.
        -12    1    4    4    0    0  0.14816401617E+03  0.13890032110E+03  0.52414974786E+03  0.56211994544E+03  0.00000000000E+00 0.  1.
        -13    1    3    3    0    0 -0.15176454155E+03 -0.40516997793E+02  0.15459721364E+03  0.22039601096E+03  0.00000000000E+00 0.  1.
         13    1    3    3    0    0 -0.22127852240E+02 -0.10569653252E+02  0.11233653401E+03  0.11498198245E+03  0.00000000000E+00 0. -1.
         21    1    1    2  502  501 -0.53702532382E+01 -0.88619216305E+02  0.23567720105E+03  0.25184508773E+03  0.00000000000E+00 0.  1.
<scales pt_clust_5="13000.00000" pt_clust_6="13000.00000" pt_clust_7="13000.00000" pt_clust_8="13000.00000" pt_clust_9="88.78178"></scales>
<clustering>
<clus scale="   82.798">  5  6 -1 -1</clus>
<clus scale="   88.782">  1  9  2 -1</clus>
<clus scale="   91.522">  7  8 -1 -1</clus>
<clus scale="  210.572">  1  5  2 -1</clus>
<clus scale="   88.782">  1  5  2 -1</clus>
</clustering>
</event>
<event>
 9    1  0.1973774E-005  0.1068913E+03  0.7546771E-02  0.1269970E+00
         -2   -1    0    0    0  501 -0.00000000000E+00  0.00000000000E+00  0.46629603443E+03  0.46629603443E+03  0.00000000000E+00 0.  1.
          1   -1    0    0  502    0  0.00000000000E+00 -0.00000000000E+00 -0.69480484166E+02  0.69480484166E+02  0.00000000000E+00 0. -1.
        -24    2    1    2    0    0 -0.30989999914E+02 -0.57880897543E+02  0.25950983891E+03  0.27943144769E+03  0.80162329486E+02 0.  0.
         23    2    1    2    0    0  0.39247113763E+02  0.35450835992E+02  0.17991022121E+03  0.20749395168E+03  0.88819787083E+02 0.  0.
         11    1    3    3    0    0 -0.56319034927E+02 -0.26896434923E+02  0.17805099366E+03  0.18867275440E+03  0.00000000000E+00 0. -1.
        -12    1    3    3    0    0  0.25329035013E+02 -0.30984462619E+02  0.81458845249E+02  0.90758693290E+02  0.00000000000E+00 0.  1.
        -11    1    4    4    0    0 -0.69588906460E+01 -0.25647495579E+02  0.40919738052E+02  0.48791855373E+02  0.00000000000E+00 0.  1.
         11    1    4    4    0    0  0.46206004409E+02  0.61098331571E+02  0.13899048316E+03  0.15870209631E+03  0.00000000000E+00 0. -1.
         21    1    1    2  502  501 -0.82571138484E+01  0.22430061550E+02 -0.42604509854E+02  0.48851119231E+02  0.00000000000E+00 0. -1.
<scales pt_clust_5="13000.00000" pt_clust_6="13000.00000" pt_clust_7="13000.00000" pt_clust_8="13000.00000" pt_clust_9="23.90162"></scales>
<clustering>
<clus scale="   23.902">  2  9  1 -1</clus>
<clus scale="   80.162">  5  6 -1 -1</clus>
<clus scale="   88.820">  7  8 -1 -1</clus>
<clus scale="   99.814">  1  5  2 -1</clus>
<clus scale="   23.902">  2  5  1 -1</clus>
</clustering>
</event>
<event>
 9    1  0.1973774E-005  0.1247224E+03  0.7546771E-02  0.1238621E+00
          1   -1    0    0  502    0  0.00000000000E+00  0.00000000000E+00  0.51707408192E+03  0.51707408192E+03  0.00000000000E+00 0. -1.
         -2   -1    0    0    0  501 -0.00000000000E+00 -0.00000000000E+00 -0.14143956814E+03  0.14143956814E+03  0.00000000000E+00 0.  1.
        -24    2    1    2    0    0 -0.36471394128E+01  0.88230815364E+02 -0.10277277502E+03  0.15753515424E+03  0.80356102014E+02 0.  0.
         23    2    1    2    0    0  0.17741537199E+02 -0.45215719732E+02  0.32429100419E+03  0.34035228475E+03  0.91191002188E+02 0.  0.
         11    1    3    3    0    0  0.52865612712E+01  0.21684650181E+02  0.11415370313E+02  0.25069552507E+02  0.00000000000E+00 0. -1.
        -12    1    3    3    0    0 -0.89337006839E+01  0.66546165183E+02 -0.11418814533E+03  0.13246560173E+03  0.00000000000E+00 0.  1.
        -11    1    4    4    0    0  0.50342668065E+01  0.26081661438E+02  0.49484677256E+02  0.56163423941E+02  0.00000000000E+00 0.  1.
         11    1    4    4    0    0  0.12707270393E+02 -0.71297381170E+02  0.27480632694E+03  0.28418886081E+03  0.00000000000E+00 0. -1.
         21    1    1    2  502  501 -0.14094397786E+02 -0.43015095632E+02  0.15411628461E+03  0.16062621107E+03  0.00000000000E+00 0. -1.
<scales pt_clust_5="13000.00000" pt_clust_6="13000.00000" pt_clust_7="13000.00000" pt_clust_8="13000.00000" pt_clust_9="45.26533"></scales>
<clustering>
<clus scale="   45.265">  1  9  2 -1</clus>
<clus scale="   80.356">  5  6 -1 -1</clus>
<clus scale="   91.191">  7  8 -1 -1</clus>
<clus scale="  117.034">  2  5  1 -1</clus>
<clus scale="   45.265">  1  5  2 -1</clus>
</clustering>
</event>
<event>
 9    1  0.1973774E-005  0.1002126E+03  0.7546771E-02  0.1284363E+00
         -2   -1    0    0    0  501 -0.00000000000E+00  0.00000000000E+00  0.34859207196E+02  0.34859207196E+02  0.00000000000E+00 0.  1.
          1   -1    0    0  502    0  0.00000000000E+00 -0.00000000000E+00 -0.39209426483E+03  0.39209426483E+03  0.00000000000E+00 0. -1.
         23    2    1    2    0    0  0.49017998718E+02 -0.21606520153E+02 -0.11062075326E+03  0.15256145177E+03  0.90379420248E+02 0.  0.
        -24    2    1    2    0    0 -0.16761419631E+02  0.27320096916E+02 -0.18731160570E+03  0.20664291012E+03  0.81168477802E+02 0.  0.
         13    1    4    4    0    0 -0.30509786229E+02 -0.90522086234E+01 -0.14787428639E+03  0.15126002153E+03  0.00000000000E+00 0. -1.
        -14    1    4    4    0    0  0.13748366598E+02  0.36372305539E+02 -0.39437319306E+02  0.55382888589E+02  0.00000000000E+00 0.  1.
        -13    1    3    3    0    0 -0.18558379435E+02 -0.31699372315E+02 -0.39301204421E+02  0.53794500847E+02  0.00000000000E+00 0. -1.
         13    1    3    3    0    0  0.67576378153E+02  0.10092852162E+02 -0.71319548839E+02  0.98766950928E+02  0.00000000000E+00 0.  1.
         21    1    1    2  502  501 -0.32256579087E+02 -0.57135767636E+01 -0.59302698680E+02  0.67749110139E+02  0.00000000000E+00 0.  1.
<scales pt_clust_5="13000.00000" pt_clust_6="13000.00000" pt_clust_7="13000.00000" pt_clust_8="13000.00000" pt_clust_9="32.75869"></scales>
<clustering>
<clus scale="   32.759">  2  9  1 -1</clus>
<clus scale="   81.168">  5  6 -1 -1</clus>
<clus scale="   90.379">  7  8 -1 -1</clus>
<clus scale="   91.992">  2  5  1 -1</clus>
<clus scale="   32.759">  2  5  1 -1</clus>
</clustering>
</event>
<event>
 9    1  0.1973774E-005  0.1113600E+03  0.7546771E-02  0.1262721E+00
          1   -1    0    0  502    0  0.00000000000E+00  0.00000000000E+00  0.21938214545E+03  0.21938214545E+03  0.00000000000E+00 0. -1.
         -2   -1    0    0    0  501 -0.00000000000E+00 -0.00000000000E+00 -0.74807543808E+02  0.74807543808E+02  0.00000000000E+00 0.  1.
         23    2    1    2    0    0 -0.38237459197E+02 -0.30412527632E+02  0.42614434781E+02  0.11216120070E+03  0.91526606887E+02 0.  0.
        -24    2    1    2    0    0  0.71111457005E+02  0.43003503855E+02  0.70709464086E+02  0.13495579119E+03  0.79417231140E+02 0.  0.
         13    1    4    4    0    0  0.66549193562E+02  0.69473042645E+01  0.15214007971E+02  0.68618701816E+02  0.00000000000E+00 0. -1.
        -14    1    4    4    0    0  0.45622634423E+01  0.36056199590E+02  0.55495456115E+02  0.66337089369E+02  0.00000000000E+00 0.  1.
        -11    1    3    3    0    0 -0.24154078138E+02  0.43372179187E+01 -0.24883072127E+02  0.34948508243E+02  0.00000000000E+00 0.  1.
         11    1    3    3    0    0 -0.14083381059E+02 -0.34749745551E+02  0.67497506907E+02  0.77212692458E+02  0.00000000000E+00 0. -1.
         21    1    1    2  502  501 -0.32873997807E+02 -0.12590976223E+02  0.31250702779E+02  0.47072697376E+02  0.00000000000E+00 0.  1.
<scales pt_clust_5="13000.00000" pt_clust_6="13000.00000" pt_clust_7="13000.00000" pt_clust_8="13000.00000" pt_clust_9="35.20273"></scales>
<clustering>
<clus scale="   35.203">  1  9  2 -1</clus>
<clus scale="   79.417">  5  6 -1 -1</clus>
<clus scale="   91.527">  7  8 -1 -1</clus>
<clus scale="  101.642">  1  5  2 -1</clus>
<clus scale="   35.203">  1  5  2 -1</clus>
</clustering>
</event>
<event>
 9    1  0.1973774E-005  0.9607021E+02  0.7546771E-02  0.1294369E+00
         -2   -1    0    0    0  501 -0.00000000000E+00  0.00000000000E+00  0.24499663464E+03  0.24499663464E+03  0.00000000000E+00 0.  1.
          1   -1    0    0  502    0  0.00000000000E+00 -0.00000000000E+00 -0.25407075645E+03  0.25407075645E+03  0.00000000000E+00 0. -1.
        -24    2    1    2    0    0  0.12400528286E+02 -0.30699992259E+02  0.22309149761E+03  0.23941211665E+03  0.80324857097E+02 0.  0.
         23    2    1    2    0    0 -0.14067072400E+02  0.85304813633E+01 -0.16502372883E+03  0.18892834848E+03  0.90501039466E+02 0.  0.
         11    1    3    3    0    0 -0.25925710179E+02 -0.11715868591E+02  0.28852628329E+02  0.40520096084E+02  0.00000000000E+00 0. -1.
        -12    1    3    3    0    0  0.38326238465E+02 -0.18984123667E+02  0.19423886928E+03  0.19889202057E+03  0.00000000000E+00 0.  1.
        -13    1    4    4    0    0  0.39104376377E+00 -0.27447229386E+02 -0.10136873272E+02  0.29261912377E+02  0.00000000000E+00 0.  1.
         13    1    4    4    0    0 -0.14458116164E+02  0.35977710749E+02 -0.15488685555E+03  0.15966643610E+03  0.00000000000E+00 0. -1.
         21    1    1    2  502  501  0.16665441142E+01  0.22169510895E+02 -0.67141890599E+02  0.70726925960E+02  0.00000000000E+00 0. -1.
<scales pt_clust_5="13000.00000" pt_clust_6="13000.00000" pt_clust_7="13000.00000" pt_clust_8="13000.00000" pt_clust_9="22.23206"></scales>
<clustering>
<clus scale="   22.232">  2  9  1 -1</clus>
<clus scale="   80.325">  5  6 -1 -1</clus>
<clus scale="   86.551">  1  5  2 -1</clus>
<clus scale="   90.501">  7  8 -1 -1</clus>
<clus scale="   22.232">  2  5  1 -1</clus>
</clustering>
</event>
<event>
 9    1  0.1973774E-005  0.1023391E+03  0.7546771E-02  0.1280564E+00
          1   -1    0    0  502    0  0.00000000000E+00  0.00000000000E+00  0.17092525363E+03  0.17092525363E+03  0.00000000000E+00 0. -1.
         -2   -1    0    0    0  501 -0.00000000000E+00 -0.00000000000E+00 -0.25993696433E+03  0.25993696433E+03  0.00000000000E+00 0.  1.
        -24    2    1    2    0    0  0.46249621157E+02 -0.47527611625E+01 -0.22076861798E+03  0.23961480139E+03  0.80714646534E+02 0.  0.
         23    2    1    2    0    0 -0.40953666350E+02 -0.18827135253E+02  0.66759432980E+02  0.12190240726E+03  0.91497055656E+02 0.  0.
         11    1    3    3    0    0  0.20694794181E+02 -0.38088546498E+02 -0.63867311740E+02  0.77188375999E+02  0.00000000000E+00 0. -1.
        -12    1    3    3    0    0  0.25554826976E+02  0.33335785336E+02 -0.15690130624E+03  0.16242642539E+03  0.00000000000E+00 0.  1.
        -11    1    4    4    0    0  0.13526307263E+02 -0.40447463164E+02  0.35404526177E+02  0.55429583603E+02  0.00000000000E+00 0.  1.
         11    1    4    4    0    0 -0.54479973612E+02  0.21620327911E+02  0.31354906803E+02  0.66472823653E+02  0.00000000000E+00 0. -1.
         21    1    1    2  502  501 -0.52959548073E+01  0.23579896415E+02  0.64997474298E+02  0.69345009319E+02  0.00000000000E+00 0.  1.
<scales pt_clust_5="13000.00000" pt_clust_6="13000.00000" pt_clust_7="13000.00000" pt_clust_8="13000.00000" pt_clust_9="24.16731"></scales>
<clustering>
<clus scale="   24.167">  1  9  2 -1</clus>
<clus scale="   80.715">  5  6 -1 -1</clus>
<clus scale="   91.497">  7  8 -1 -1</clus>
<clus scale="   92.825">  2  5  1 -1</clus>
<clus scale="   24.167">  1  5  2 -1</clus>
</clustering>
</event>
<event>
 9    1  0.1973774E-005  0.9316832E+02  0.7546771E-02  0.1302827E+00
         -4   -1    0    0    0  501 -0.00000000000E+00  0.00000000000E+00  0.10690763672E+03  0.10690763672E+03  0.00000000000E+00 0.  1.
          3   -1    0    0  502    0  0.00000000000E+00 -0.00000000000E+00 -0.12859242020E+03  0.12859242020E+03  0.00000000000E+00 0. -1.
        -24    2    1    2    0    0  0.51105919924E+01 -0.12197706908E+02  0.31389286921E+02  0.85865400841E+02  0.78820539987E+02 0.  0.
         23    2    1    2    0    0 -0.43446602494E+02  0.10536501618E+02 -0.39763995613E+02  0.10901978940E+03  0.91134592772E+02 0.  0.
         11    1    3    3    0    0  0.95783692391E+00 -0.39118345357E+02  0.41286938072E+02  0.56883861071E+02  0.00000000000E+00 0. -1.
        -12    1    3    3    0    0  0.41527550684E+01  0.26920638449E+02 -0.98976511507E+01  0.28981539770E+02  0.00000000000E+00 0.  1.
        -11    1    4    4    0    0 -0.19941006418E+02  0.18994686517E+02  0.26490380981E+02  0.38212329651E+02  0.00000000000E+00 0.  1.
         11    1    4    4    0    0 -0.23505596076E+02 -0.84581848988E+01 -0.66254376594E+02  0.70807459752E+02  0.00000000000E+00 0. -1.
         21    1    1    2  502  501  0.38336010502E+02  0.16612052906E+01 -0.13310074793E+02  0.40614866677E+02  0.00000000000E+00 0.  1.
<scales pt_clust_5="13000.00000" pt_clust_6="13000.00000" pt_clust_7="13000.00000" pt_clust_8="13000.00000" pt_clust_9="38.37199"></scales>
<clustering>
<clus scale="   38.372">  2  9  1 -1</clus>
<clus scale="   78.821">  5  6 -1 -1</clus>
<clus scale="   81.163">  1  5  2 -1</clus>
<clus scale="   91.135">  7  8 -1 -1</clus>
<clus scale="   38.372">  2  5  1 -1</clus>
</clustering>
</event>
<event>
 9    1  0.1973774E-005  0.1486504E+03  0.7546771E-02  0.1204066E+00
         -2   -1    0    0    0  501 -0.00000000000E+00  0.00000000000E+00  0.10828917421E+03  0.10828917421E+03  0.00000000000E+00 0.  1.
          1   -1    0    0  502    0  0.00000000000E+00 -0.00000000000E+00 -0.28825145341E+03  0.28825145341E+03  0.00000000000E+00 0. -1.
        -24    2    1    2    0    0  0.63408369008E+02 -0.98561877729E+02 -0.33703626654E+02  0.14565126856E+03  0.79644790052E+02 0.  0.
         23    2    1    2    0    0 -0.33708805551E+02  0.11796367261E+03 -0.71494170082E+02  0.16813537697E+03  0.90035420836E+02 0.  0.
         11    1    3    3    0    0  0.81977524624E+02 -0.75137683505E+02 -0.31982100850E+02  0.11571015859E+03  0.00000000000E+00 0. -1.
        -12    1    3    3    0    0 -0.18569155616E+02 -0.23424194224E+02 -0.17215258041E+01  0.29941109973E+02  0.00000000000E+00 0.  1.
        -13    1    4    4    0    0 -0.95469471920E+01  0.56901453070E+02  0.14925651233E+02  0.59596095736E+02  0.00000000000E+00 0. -1.
         13    1    4    4    0    0 -0.24161858359E+02  0.61062219543E+02 -0.86419821314E+02  0.10853928123E+03  0.00000000000E+00 0.  1.
         21    1    1    2  502  501 -0.29699563457E+02 -0.19401794885E+02 -0.74764482457E+02  0.82753982087E+02  0.00000000000E+00 0. -1.
<scales pt_clust_5="13000.00000" pt_clust_6="13000.00000" pt_clust_7="13000.00000" pt_clust_8="13000.00000" pt_clust_9="35.47525"></scales>
<clustering>
<clus scale="   35.475">  2  9  1 -1</clus>
<clus scale="   79.645">  5  6 -1 -1</clus>
<clus scale="   90.035">  7  8 -1 -1</clus>
<clus scale="  142.597">  1  5  2 -1</clus>
<clus scale="   35.475">  2  5  1 -1</clus>
</clustering>
</event>
<event>
 9    1  0.1973774E-005  0.1480217E+03  0.7546771E-02  0.1204985E+00
          1   -1    0    0  502    0  0.00000000000E+00  0.00000000000E+00  0.13927738921E+04  0.13927738921E+04  0.00000000000E+00 0. -1.
         -2   -1    0    0    0  501 -0.00000000000E+00 -0.00000000000E+00 -0.26914466743E+03  0.26914466743E+03  0.00000000000E+00 0.  1.
         23    2    1    2    0    0  0.10460424534E+01  0.11566405219E+03 -0.23269687056E+03  0.27501577255E+03  0.90036517069E+02 0.  0.
        -24    2    1    2    0    0  0.10275713397E+02 -0.19016439579E+03  0.83083776812E+03  0.85603890115E+03  0.79013388923E+02 0.  0.
         11    1    4    4    0    0 -0.33255231706E+01 -0.18772802854E+03  0.70973123580E+03  0.73414664671E+03  0.00000000000E+00 0. -1.
        -12    1    4    4    0    0  0.13601236567E+02 -0.24363672559E+01  0.12110653232E+03  0.12189225444E+03  0.00000000000E+00 0.  1.
        -13    1    3    3    0    0  0.21852816393E+02  0.49874375470E+00 -0.11336644535E+02  0.24623440844E+02  0.00000000000E+00 0. -1.
         13    1    3    3    0    0 -0.20806773940E+02  0.11516530844E+03 -0.22136022603E+03  0.25039233170E+03  0.00000000000E+00 0.  1.
         21    1    1    2  502  501 -0.11321755850E+02  0.74500343604E+02  0.52548832708E+03  0.53086388581E+03  0.00000000000E+00 0. -1.
<scales pt_clust_5="13000.00000" pt_clust_6="13000.00000" pt_clust_7="13000.00000" pt_clust_8="13000.00000" pt_clust_9="75.35571"></scales>
<clustering>
<clus scale="   75.356">  1  9  2 -1</clus>
<clus scale="   79.013">  5  6 -1 -1</clus>
<clus scale="   90.037">  7  8 -1 -1</clus>
<clus scale="  141.587">  1  5  2 -1</clus>
<clus scale="   75.356">  1  5  2 -1</clus>
</clustering>
</event>
<event>
 9    1  0.1973774E-005  0.9465163E+02  0.7546771E-02  0.1296603E+00
          3   -1    0    0  502    0  0.00000000000E+00  0.00000000000E+00  0.25925337860E+03  0.25925337860E+03  0.00000000000E+00 0. -1.
         -4   -1    0    0    0  501 -0.00000000000E+00 -0.00000000000E+00 -0.30259097896E+03  0.30259097896E+03  0.00000000000E+00 0.  1.
        -24    2    1    2    0    0 -0.19915183976E+02  0.23140801751E+02 -0.28259694686E+03  0.29569063860E+03  0.81485017775E+02 0.  0.
         23    2    1    2    0    0  0.21418075113E+02  0.98999336446E+00  0.18486792547E+03  0.20663077686E+03  0.89779808693E+02 0.  0.
         13    1    3    3    0    0 -0.28563536792E+02  0.50042298853E+02 -0.16591039457E+03  0.17563133642E+03  0.00000000000E+00 0. -1.
        -14    1    3    3    0    0  0.86483528151E+01 -0.26901497102E+02 -0.11668655229E+03  0.12005930217E+03  0.00000000000E+00 0.  1.
        -13    1    4    4    0    0  0.32707671852E+02 -0.26414066089E+02  0.16658206617E+03  0.17180535340E+03  0.00000000000E+00 0. -1.
         13    1    4    4    0    0 -0.11289596739E+02  0.27404059454E+02  0.18285859299E+02  0.34825423463E+02  0.00000000000E+00 0.  1.
         21    1    1    2  502  501 -0.15028911369E+01 -0.24130795116E+02  0.54391421030E+02  0.59522942101E+02  0.00000000000E+00 0. -1.
<scales pt_clust_5="13000.00000" pt_clust_6="13000.00000" pt_clust_7="13000.00000" pt_clust_8="13000.00000" pt_clust_9="24.17755"></scales>
<clustering>
<clus scale="   24.178">  1  9  2 -1</clus>
<clus scale="   81.485">  5  6 -1 -1</clus>
<clus scale="   86.824">  2  5  1 -1</clus>
<clus scale="   89.780">  7  8 -1 -1</clus>
<clus scale="   24.178">  1  5  2 -1</clus>
</clustering>
</event>
<event>
 9    1  0.1973774E-005  0.9432487E+02  0.7546771E-02  0.1297667E+00
         -2   -1    0    0    0  501 -0.00000000000E+00  0.00000000000E+00  0.33653277251E+02  0.33653277251E+02  0.00000000000E+00 0.  1.
          1   -1    0    0  502    0  0.00000000000E+00 -0.00000000000E+00 -0.42483957762E+03  0.42483957762E+03  0.00000000000E+00 0. -1.
        -24    2    1    2    0    0  0.16562140223E+02  0.50911517202E+01 -0.59606941890E+02  0.10424644234E+03  0.83750277037E+02 0.  0.
         23    2    1    2    0    0 -0.29851014154E+02  0.17401921238E+02 -0.26552289951E+03  0.28321129253E+03  0.92262214083E+02 0.  0.
         11    1    3    3    0    0  0.45993127117E+02 -0.15471842842E+02 -0.42369856758E+02  0.64420108853E+02  0.00000000000E+00 0. -1.
        -12    1    3    3    0    0 -0.29430986894E+02  0.20562994562E+02 -0.17237085132E+02  0.39826333483E+02  0.00000000000E+00 0.  1.
        -11    1    4    4    0    0 -0.16290735956E+02 -0.31633380239E+02 -0.18174717209E+03  0.18519744433E+03  0.00000000000E+00 0.  1.
         11    1    4    4    0    0 -0.13560278198E+02  0.49035301477E+02 -0.83775727420E+02  0.98013848208E+02  0.00000000000E+00 0. -1.
         21    1    1    2  502  501  0.13288873931E+02 -0.22493072958E+02 -0.66056458975E+02  0.71035120003E+02  0.00000000000E+00 0. -1.
<scales pt_clust_5="13000.00000" pt_clust_6="13000.00000" pt_clust_7="13000.00000" pt_clust_8="13000.00000" pt_clust_9="26.12532"></scales>
<clustering>
<clus scale="   26.125">  2  9  1 -1</clus>
<clus scale="   83.750">  5  6 -1 -1</clus>
<clus scale="   86.017">  1  5  2 -1</clus>
<clus scale="   92.262">  7  8 -1 -1</clus>
<clus scale="   26.125">  2  5  1 -1</clus>
</clustering>
</event>
<event>
 9    1  0.1973774E-005  0.1055059E+03  0.7546771E-02  0.1273120E+00
          1   -1    0    0  502    0  0.00000000000E+00  0.00000000000E+00  0.17789097075E+03  0.17789097075E+03  0.00000000000E+00 0. -1.
         -2   -1    0    0    0  501 -0.00000000000E+00 -0.00000000000E+00 -0.15300547283E+03  0.15300547283E+03  0.00000000000E+00 0.  1.
        -24    2    1    2    0    0 -0.13127644845E+02 -0.56496549294E+02 -0.85498276328E+02  0.13135597086E+03  0.81118682706E+02 0.  0.
         23    2    1    2    0    0 -0.23678873634E+02  0.50420441275E+02  0.12077862473E+03  0.16081461821E+03  0.90393336505E+02 0.  0.
         13    1    3    3    0    0 -0.44193421944E+02 -0.16843263026E+02 -0.54712222100E+02  0.72319992392E+02  0.00000000000E+00 0. -1.
        -14    1    3    3    0    0  0.31065777099E+02 -0.39653286267E+02 -0.30786054228E+02  0.59035978466E+02  0.00000000000E+00 0.  1.
        -11    1    4    4    0    0  0.29817288229E+01 -0.25505860426E+02  0.27657384422E+02  0.37740833800E+02  0.00000000000E+00 0.  1.
         11    1    4    4    0    0 -0.26660602457E+02  0.75926301701E+02  0.93121240308E+02  0.12307378441E+03  0.00000000000E+00 0. -1.
         21    1    1    2  502  501  0.36806518479E+02  0.60761080187E+01 -0.10394850480E+02  0.38725854512E+02  0.00000000000E+00 0.  1.
<scales pt_clust_5="13000.00000" pt_clust_6="13000.00000" pt_clust_7="13000.00000" pt_clust_8="13000.00000" pt_clust_9="37.30468"></scales>
<clustering>
<clus scale="   37.305">  2  9  1 -1</clus>
<clus scale="   81.119">  5  6 -1 -1</clus>
<clus scale="   90.393">  7  8 -1 -1</clus>
<clus scale="   97.677">  2  5  1 -1</clus>
<clus scale="  105.506">  1  5  2 -1</clus>
</clustering>
</event>
<event>
 9    1  0.1973774E-005  0.9969592E+02  0.7546771E-02  0.1286342E+00
         -2   -1    0    0    0  501 -0.00000000000E+00  0.00000000000E+00  0.58851587547E+02  0.58851587547E+02  0.00000000000E+00 0.  1.
          1   -1    0    0  502    0  0.00000000000E+00 -0.00000000000E+00 -0.53040521610E+03  0.53040521610E+03  0.00000000000E+00 0. -1.
         23    2    1    2    0    0  0.70447652390E+01  0.67262450290E+01 -0.15074428407E+02  0.93253585224E+02  0.91510227166E+02 0.  0.
        -24    2    1    2    0    0  0.40157699435E+02 -0.20143147219E+02 -0.43080390352E+03  0.44061994665E+03  0.80842729370E+02 0.  0.
         11    1    4    4    0    0  0.52330434814E+02 -0.13049941959E+02 -0.14894110517E+03  0.15840526570E+03  0.00000000000E+00 0. -1.
        -12    1    4    4    0    0 -0.12172735378E+02 -0.70932052597E+01 -0.28186279835E+03  0.28221468095E+03  0.00000000000E+00 0.  1.
        -13    1    3    3    0    0  0.29334365329E+02 -0.33112590815E+02 -0.17418198237E+02  0.47543057218E+02  0.00000000000E+00 0. -1.
         13    1    3    3    0    0 -0.22289600090E+02  0.39838835844E+02  0.23437698299E+01  0.45710528007E+02  0.00000000000E+00 0.  1.
         21    1    1    2  502  501 -0.47202464674E+02  0.13416902190E+02 -0.25675296626E+02  0.55383271775E+02  0.00000000000E+00 0.  1.
<scales pt_clust_5="13000.00000" pt_clust_6="13000.00000" pt_clust_7="13000.00000" pt_clust_8="13000.00000" pt_clust_9="49.07225"></scales>
<clustering>
<clus scale="   49.072">  1  9  2 -1</clus>
<clus scale="   80.843">  5  6 -1 -1</clus>
<clus scale="   90.004">  2  5  1 -1</clus>
<clus scale="   91.510">  7  8 -1 -1</clus>
<clus scale="   90.004">  2  5  1 -1</clus>
</clustering>
</event>
<event>
 9    1  0.1973774E-005  0.1310355E+03  0.7546771E-02  0.1228798E+00
          3   -1    0    0  502    0  0.00000000000E+00  0.00000000000E+00  0.28039021245E+03  0.28039021245E+03  0.00000000000E+00 0. -1.
         -4   -1    0    0    0  501 -0.00000000000E+00 -0.00000000000E+00 -0.12134580378E+03  0.12134580378E+03  0.00000000000E+00 0.  1.
        -24    2    1    2    0    0 -0.45650858828E+02  0.78078052498E+02 -0.49591910612E+02  0.13141864951E+03  0.81432921158E+02 0.  0.
         23    2    1    2    0    0  0.28274639214E+02 -0.10269287309E+03  0.16231910916E+03  0.21506244517E+03  0.92515299911E+02 0.  0.
         11    1    3    3    0    0  0.22614185399E+01  0.71332405355E+02 -0.17900458073E+02  0.73578886012E+02  0.00000000000E+00 0. -1.
        -12    1    3    3    0    0 -0.47912277368E+02  0.67456471438E+01 -0.31691452539E+02  0.57839763503E+02  0.00000000000E+00 0.  1.
        -13    1    4    4    0    0  0.29292883212E+02 -0.13332003595E+02  0.29141068139E+01  0.32315744541E+02  0.00000000000E+00 0.  1.
         13    1    4    4    0    0 -0.10182439978E+01 -0.89360869494E+02  0.15940500235E+03  0.18274670063E+03  0.00000000000E+00 0. -1.
         21    1    1    2  502  501  0.17376219615E+02  0.24614820590E+02  0.46317210131E+02  0.55254921546E+02  0.00000000000E+00 0. -1.
<scales pt_clust_5="13000.00000" pt_clust_6="13000.00000" pt_clust_7="13000.00000" pt_clust_8="13000.00000" pt_clust_9="30.13009"></scales>
<clustering>
<clus scale="   30.130">  1  9  2 -1</clus>
<clus scale="   81.433">  5  6 -1 -1</clus>
<clus scale="   92.515">  7  8 -1 -1</clus>
<clus scale="  123.461">  2  5  1 -1</clus>
<clus scale="   30.130">  1  5  2 -1</clus>
</clustering>
</event>
<event>
 9    1  0.1973774E-005  0.2421772E+03  0.7546771E-02  0.1118910E+00
          1   -1    0    0  502    0  0.00000000000E+00  0.00000000000E+00  0.16974940113E+03  0.16974940113E+03  0.00000000000E+00 0. -1.
         -2   -1    0    0    0  501 -0.00000000000E+00 -0.00000000000E+00 -0.51021586606E+03  0.51021586606E+03  0.00000000000E+00 0.  1.
         23    2    1    2    0    0 -0.22552247553E+03 -0.66013000867E+02 -0.21567104138E+03  0.33162595415E+03  0.90794670128E+02 0.  0.
        -24    2    1    2    0    0  0.17128134974E+03  0.13839254282E+03 -0.91152737975E+02  0.25183683581E+03  0.81382882420E+02 0.  0.
         11    1    4    4    0    0  0.10806270864E+03  0.83659295314E+02 -0.12826543885E+02  0.13726232884E+03  0.00000000000E+00 0. -1.
        -12    1    4    4    0    0  0.63218641103E+02  0.54733247501E+02 -0.78326194091E+02  0.11457450696E+03  0.00000000000E+00 0.  1.
        -11    1    3    3    0    0 -0.59951810267E+02 -0.35646238194E+02 -0.11782527674E+03  0.13692213003E+03  0.00000000000E+00 0.  1.
         11    1    3    3    0    0 -0.16557066527E+03 -0.30366762672E+02 -0.97845764641E+02  0.19470382413E+03  0.00000000000E+00 0. -1.
         21    1    1    2  502  501  0.54241125789E+02 -0.72379541948E+02 -0.33642685569E+02  0.96502477231E+02  0.00000000000E+00 0. -1.
<scales pt_clust_5="13000.00000" pt_clust_6="13000.00000" pt_clust_7="13000.00000" pt_clust_8="13000.00000" pt_clust_9="90.44832"></scales>
<clustering>
<clus scale="   81.383">  5  6 -1 -1</clus>
<clus scale="   90.448">  1  9  2 -1</clus>
<clus scale="   90.795">  7  8 -1 -1</clus>
<clus scale="  238.808">  1  5  2 -1</clus>
<clus scale="   90.448">  1  5  2 -1</clus>
</clustering>
</event>
<event>
 9    1  0.1973774E-005  0.1080657E+03  0.7546771E-02  0.1269294E+00
          1   -1    0    0  502    0  0.00000000000E+00  0.00000000000E+00  0.97346099948E+02  0.97346099948E+02  0.00000000000E+00 0. -1.
         -2   -1    0    0    0  501 -0.00000000000E+00 -0.00000000000E+00 -0.55366688336E+03  0.55366688336E+03  0.00000000000E+00 0.  1.
         23    2    1    2    0    0  0.17934222882E+02  0.49490845837E+02 -0.50216756578E+03  0.51357445256E+03  0.93890755836E+02 0.  0.
        -24    2    1    2    0    0 -0.60144874175E+01 -0.67552984276E+02  0.45765398782E+02  0.11579765365E+03  0.81945378890E+02 0.  0.
         13    1    4    4    0    0 -0.67701380038E+01 -0.86697652544E+02  0.40485445548E+02  0.95923870994E+02  0.00000000000E+00 0. -1.
        -14    1    4    4    0    0  0.75565058637E+00  0.19144668267E+02  0.52799532336E+01  0.19873782655E+02  0.00000000000E+00 0.  1.
        -13    1    3    3    0    0 -0.17734194334E-01  0.75075695746E+02 -0.31557695621E+03  0.32438430249E+03  0.00000000000E+00 0.  1.
         13    1    3    3    0    0  0.17951957076E+02 -0.25584849908E+02 -0.18659060956E+03  0.18919015007E+03  0.00000000000E+00 0. -1.
         21    1    1    2  502  501 -0.11919735464E+02  0.18062138439E+02  0.81383579866E-01  0.21640877104E+02  0.00000000000E+00 0.  1.
<scales pt_clust_5="13000.00000" pt_clust_6="13000.00000" pt_clust_7="13000.00000" pt_clust_8="13000.00000" pt_clust_9="21.64072"></scales>
<clustering>
<clus scale="   21.641">  1  9  2 -1</clus>
<clus scale="   81.945">  5  6 -1 -1</clus>
<clus scale="   93.891">  7  8 -1 -1</clus>
<clus scale="   97.866">  1  5  2 -1</clus>
<clus scale="   21.641">  1  5  2 -1</clus>
</clustering>
</event>
<event>
 9    1  0.1973774E-005  0.2428964E+03  0.7546771E-02  0.1155256E+00
         -2   -1    0    0    0  501 -0.00000000000E+00  0.00000000000E+00  0.17564260831E+03  0.17564260831E+03  0.00000000000E+00 0.  1.
          1   -1    0    0  502    0  0.00000000000E+00 -0.00000000000E+00 -0.86003797586E+03  0.86003797586E+03  0.00000000000E+00 0. -1.
         23    2    1    2    0    0 -0.28457565997E+02 -0.28133563236E+02  0.61994499762E+02  0.11598330825E+03  0.89484520159E+02 0.  0.
        -24    2    1    2    0    0 -0.21050631625E+03 -0.60989642276E+02 -0.55059602923E+03  0.59816670224E+03  0.81331240164E+02 0.  0.
         11    1    4    4    0    0 -0.14864043341E+03 -0.32392480379E+02 -0.27506228414E+03  0.31432866777E+03  0.00000000000E+00 0. -1.
        -12    1    4    4    0    0 -0.61865882834E+02 -0.28597161896E+02 -0.27553374509E+03  0.28383803447E+03  0.00000000000E+00 0.  1.
        -11    1    3    3    0    0 -0.60235387696E+02 -0.14466744033E+02  0.49170665061E+02  0.79090725855E+02  0.00000000000E+00 0. -1.
         11    1    3    3    0    0  0.31777821698E+02 -0.13666819203E+02  0.12823834702E+02  0.36892582391E+02  0.00000000000E+00 0.  1.
         21    1    1    2  502  501  0.23896388224E+03  0.89123205512E+02 -0.19579383809E+03  0.32153057368E+03  0.00000000000E+00 0.  1.
<scales pt_clust_5="13000.00000" pt_clust_6="13000.00000" pt_clust_7="13000.00000" pt_clust_8="13000.00000" pt_clust_9="228.87526"></scales>
<clustering>
<clus scale="   81.331">  5  6 -1 -1</clus>
<clus scale="   89.485">  7  8 -1 -1</clus>
<clus scale="   98.025">  1  7  2 -1</clus>
<clus scale="  228.875">  1  9  2 -1</clus>
<clus scale="  242.896">  2  5  1 -1</clus>
</clustering>
</event>
<event>
 9    1  0.1973774E-005  0.9216601E+02  0.7546771E-02  0.1304677E+00
          1   -1    0    0  502    0  0.00000000000E+00  0.00000000000E+00  0.19106310739E+03  0.19106310739E+03  0.00000000000E+00 0. -1.
         -2   -1    0    0    0  501 -0.00000000000E+00 -0.00000000000E+00 -0.70638199768E+02  0.70638199768E+02  0.00000000000E+00 0.  1.
        -24    2    1    2    0    0 -0.58470179935E+01 -0.78041855709E+01 -0.10621082868E+02  0.80847779346E+02  0.79551637897E+02 0.  0.
         23    2    1    2    0    0  0.19606455846E+02  0.25848171615E+02  0.81244514673E+02  0.12612607075E+03  0.90854683275E+02 0.  0.
         13    1    3    3    0    0 -0.31726343422E+02  0.22910533203E+02 -0.11112408849E+02  0.40680941840E+02  0.00000000000E+00 0. -1.
        -14    1    3    3    0    0  0.25879325429E+02 -0.30714718774E+02  0.49132598161E+00  0.40166837506E+02  0.00000000000E+00 0.  1.
        -13    1    4    4    0    0 -0.25511488816E+02 -0.12899952469E+02  0.43509884291E+01  0.28916706860E+02  0.00000000000E+00 0.  1.
         13    1    4    4    0    0  0.45117944663E+02  0.38748124084E+02  0.76893526244E+02  0.97209363895E+02  0.00000000000E+00 0. -1.
         21    1    1    2  502  501 -0.13759437853E+02 -0.18043986044E+02  0.49801475819E+02  0.54727457059E+02  0.00000000000E+00 0.  1.
<scales pt_clust_5="13000.00000" pt_clust_6="13000.00000" pt_clust_7="13000.00000" pt_clust_8="13000.00000" pt_clust_9="22.69157"></scales>
<clustering>
<clus scale="   22.692">  1  9  2 -1</clus>
<clus scale="   79.552">  5  6 -1 -1</clus>
<clus scale="   81.046">  2  5  1 -1</clus>
<clus scale="   90.855">  7  8 -1 -1</clus>
<clus scale="   22.692">  1  5  2 -1</clus>
</clustering>
</event>
<event>
 9    1  0.1973774E-005  0.1801169E+03  0.7546771E-02  0.1168952E+00
          3   -1    0    0  502    0  0.00000000000E+00  0.00000000000E+00  0.20039971494E+03  0.20039971494E+03  0.00000000000E+00 0. -1.
         -4   -1    0    0    0  501 -0.00000000000E+00 -0.00000000000E+00 -0.44138011419E+03  0.44138011419E+03  0.00000000000E+00 0.  1.
        -24    2    1    2    0    0  0.66160363441E+02  0.14400014274E+03 -0.34055688055E+03  0.38425283249E+03  0.80981575606E+02 0.  0.
         23    2    1    2    0    0 -0.49151983490E+02 -0.13258135229E+03  0.13443247988E+02  0.16899108502E+03  0.91561637410E+02 0.  0.
         13    1    3    3    0    0  0.48324925951E+02  0.30960239855E+02 -0.70208828073E+02  0.90681389818E+02  0.00000000000E+00 0. -1.
        -14    1    3    3    0    0  0.17835437490E+02  0.11303990288E+03 -0.27034805248E+03  0.29357144267E+03  0.00000000000E+00 0.  1.
        -13    1    4    4    0    0 -0.29832802493E+02  0.25209491678E+01 -0.76325741166E+01  0.30896722754E+02  0.00000000000E+00 0.  1.
         13    1    4    4    0    0 -0.19319180997E+02 -0.13510230145E+03  0.21075822105E+02  0.13809436227E+03  0.00000000000E+00 0. -1.
         21    1    1    2  502  501 -0.17008379951E+02 -0.11418790452E+02  0.86133233318E+02  0.88535911616E+02  0.00000000000E+00 0. -1.
<scales pt_clust_5="13000.00000" pt_clust_6="13000.00000" pt_clust_7="13000.00000" pt_clust_8="13000.00000" pt_clust_9="20.48594"></scales>
<clustering>
<clus scale="   20.486">  1  9  2 -1</clus>
<clus scale="   80.982">  5  6 -1 -1</clus>
<clus scale="   91.562">  7  8 -1 -1</clus>
<clus scale="  174.976">  2  5  1 -1</clus>
<clus scale="   20.486">  1  5  2 -1</clus>
</clustering>
</event>
<event>
 9    1  0.1973774E-005  0.1136908E+03  0.7546771E-02  0.1256026E+00
          1   -1    0    0  502    0  0.00000000000E+00  0.00000000000E+00  0.53115534946E+03  0.53115534946E+03  0.00000000000E+00 0. -1.
         -2   -1    0    0    0  501 -0.00000000000E+00 -0.00000000000E+00 -0.79621281969E+02  0.79621281969E+02  0.00000000000E+00 0.  1.
        -24    2    1    2    0    0  0.63413319388E+02 -0.37669510848E+02 -0.17082859761E+02  0.11468390870E+03  0.86141358786E+02 0.  0.
         23    2    1    2    0    0 -0.15136570787E+02  0.18145413415E+01  0.36049677282E+03  0.37237453050E+03  0.92045963617E+02 0.  0.
         13    1    3    3    0    0  0.68975651953E+01 -0.31889538053E+02  0.27339685891E+02  0.42567328639E+02  0.00000000000E+00 0. -1.
        -14    1    3    3    0    0  0.56515754192E+02 -0.57799727951E+01 -0.44422545651E+02  0.72116580060E+02  0.00000000000E+00 0.  1.
        -11    1    4    4    0    0  0.22793595253E+02  0.35749895577E+02  0.16605378967E+03  0.17138104936E+03  0.00000000000E+00 0.  1.
         11    1    4    4    0    0 -0.37930166040E+02 -0.33935354236E+02  0.19444298316E+03  0.20099348114E+03  0.00000000000E+00 0. -1.
         21    1    1    2  502  501 -0.48276748601E+02  0.35854969506E+02  0.10812015443E+03  0.12371819223E+03  0.00000000000E+00 0. -1.
<scales pt_clust_5="13000.00000" pt_clust_6="13000.00000" pt_clust_7="13000.00000" pt_clust_8="13000.00000" pt_clust_9="60.13504"></scales>
<clustering>
<clus scale="   60.135">  1  9  2 -1</clus>
<clus scale="   86.141">  5  6 -1 -1</clus>
<clus scale="   92.046">  7  8 -1 -1</clus>
<clus scale="  108.965">  2  5  1 -1</clus>
<clus scale="   60.135">  1  5  2 -1</clus>
</clustering>
</event>
<event>
 9    1  0.1973774E-005  0.1818237E+03  0.7546771E-02  0.1167216E+00
         -2   -1    0    0    0  501 -0.00000000000E+00  0.00000000000E+00  0.43248909126E+02  0.43248909126E+02  0.00000000000E+00 0.  1.
          1   -1    0    0  502    0  0.00000000000E+00 -0.00000000000E+00 -0.15234473193E+04  0.15234473193E+04  0.00000000000E+00 0. -1.
         23    2    1    2    0    0  0.14416919793E+03  0.49565262400E+02 -0.26602161058E+03  0.31896683900E+03  0.87925390065E+02 0.  0.
        -24    2    1    2    0    0 -0.13798111708E+03 -0.12427879270E+03 -0.70823617057E+03  0.73626450886E+03  0.77478685566E+02 0.  0.
         13    1    4    4    0    0 -0.13164816989E+03 -0.75576151953E+02 -0.55190038154E+03  0.57239586522E+03  0.00000000000E+00 0. -1.
        -14    1    4    4    0    0 -0.63329471875E+01 -0.48702640746E+02 -0.15633578903E+03  0.16386864364E+03  0.00000000000E+00 0.  1.
        -13    1    3    3    0    0  0.11471059933E+03  0.50871470197E+02 -0.13355401706E+03  0.18325693316E+03  0.00000000000E+00 0.  1.
         13    1    3    3    0    0  0.29458598602E+02 -0.13062077967E+01 -0.13246759352E+03  0.13570990584E+03  0.00000000000E+00 0. -1.
         21    1    1    2  502  501 -0.61880808526E+01  0.74713530299E+02 -0.50594062898E+03  0.51146488052E+03  0.00000000000E+00 0. -1.
<scales pt_clust_5="13000.00000" pt_clust_6="13000.00000" pt_clust_7="13000.00000" pt_clust_8="13000.00000" pt_clust_9="74.96935"></scales>
<clustering>
<clus scale="   74.969">  2  9  1 -1</clus>
<clus scale="   77.479">  5  6 -1 -1</clus>
<clus scale="   87.925">  7  8 -1 -1</clus>
<clus scale="  177.008">  2  5  1 -1</clus>
<clus scale="   74.969">  2  5  1 -1</clus>
</clustering>
</event>
<event>
 9    1  0.1973774E-005  0.1088120E+03  0.7546771E-02  0.1265078E+00
         -2   -1    0    0    0  501 -0.00000000000E+00  0.00000000000E+00  0.13279686761E+03  0.13279686761E+03  0.00000000000E+00 0.  1.
          1   -1    0    0  502    0  0.00000000000E+00 -0.00000000000E+00 -0.26079337700E+03  0.26079337700E+03  0.00000000000E+00 0. -1.
        -24    2    1    2    0    0 -0.39152626157E+02  0.38851773534E+02  0.68415155003E+02  0.12268993968E+03  0.85614247777E+02 0.  0.
         23    2    1    2    0    0  0.34377771527E+02 -0.87510180779E+02 -0.17198354731E+03  0.21624527098E+03  0.91344478551E+02 0.  0.
         11    1    3    3    0    0  0.12400599753E+02  0.31216754542E+02 -0.36148323990E+01  0.33783541136E+02  0.00000000000E+00 0. -1.
        -12    1    3    3    0    0 -0.51553225910E+02  0.76350189920E+01  0.72029987402E+02  0.88906398543E+02  0.00000000000E+00 0.  1.
        -13    1    4    4    0    0 -0.23752283207E+02 -0.63151143769E+02 -0.99123200429E+02  0.11990682541E+03  0.00000000000E+00 0.  1.
         13    1    4    4    0    0  0.58130054734E+02 -0.24359037010E+02 -0.72860346881E+02  0.96338445571E+02  0.00000000000E+00 0. -1.
         21    1    1    2  502  501  0.47748546299E+01  0.48658407245E+02 -0.24428117085E+02  0.54655033955E+02  0.00000000000E+00 0. -1.
<scales pt_clust_5="13000.00000" pt_clust_6="13000.00000" pt_clust_7="13000.00000" pt_clust_8="13000.00000" pt_clust_9="48.89212"></scales>
<clustering>
<clus scale="   48.892">  2  9  1 -1</clus>
<clus scale="   85.614">  5  6 -1 -1</clus>
<clus scale="   91.344">  7  8 -1 -1</clus>
<clus scale="  104.048">  1  5  2 -1</clus>
<clus scale="   48.892">  2  5  1 -1</clus>
</clustering>
</event>
<event>
 9    1  0.1973774E-005  0.9294416E+02  0.7546771E-02  0.1299987E+00
          3   -1    0    0  502    0  0.00000000000E+00  0.00000000000E+00  0.59216860958E+03  0.59216860958E+03  0.00000000000E+00 0. -1.
         -4   -1    0    0    0  501 -0.00000000000E+00 -0.00000000000E+00 -0.10720022064E+03  0.10720022064E+03  0.00000000000E+00 0.  1.
         23    2    1    2    0    0  0.14341798011E+02  0.20292288592E+02 -0.62712827358E+02  0.11288974014E+03  0.90519227612E+02 0.  0.
        -24    2    1    2    0    0 -0.40867592723E+02  0.49793505078E+02  0.16009725947E+03  0.19171718734E+03  0.83515233046E+02 0.  0.
         11    1    4    4    0    0  0.25570265652E+02  0.14052021718E+02  0.56155932817E+02  0.63283383210E+02  0.00000000000E+00 0. -1.
        -12    1    4    4    0    0 -0.66437858376E+02  0.35741483360E+02  0.10394132665E+03  0.12843380413E+03  0.00000000000E+00 0.  1.
        -13    1    3    3    0    0 -0.37278130533E+02  0.19218525064E+02 -0.23672121312E+02  0.48159942370E+02  0.00000000000E+00 0.  1.
         13    1    3    3    0    0  0.51619928544E+02  0.10737635281E+01 -0.39040706046E+02  0.64729797772E+02  0.00000000000E+00 0. -1.
         21    1    1    2  502  501  0.26525794712E+02 -0.70085793670E+02  0.38758395683E+03  0.39476190274E+03  0.00000000000E+00 0. -1.
<scales pt_clust_5="13000.00000" pt_clust_6="13000.00000" pt_clust_7="13000.00000" pt_clust_8="13000.00000" pt_clust_9="74.93755"></scales>
<clustering>
<clus scale="   74.938">  1  9  2 -1</clus>
<clus scale="   83.515">  5  6 -1 -1</clus>
<clus scale="   86.138">  1  5  2 -1</clus>
<clus scale="   90.519">  7  8 -1 -1</clus>
<clus scale="   74.938">  1  5  2 -1</clus>
</clustering>
</event>
<event>
 9    1  0.1973774E-005  0.1365058E+03  0.7546771E-02  0.1220359E+00
          1   -1    0    0  502    0  0.00000000000E+00  0.00000000000E+00  0.90942939203E+03  0.90942939203E+03  0.00000000000E+00 0. -1.
         -2   -1    0    0    0  501 -0.00000000000E+00 -0.00000000000E+00 -0.11964791025E+03  0.11964791025E+03  0.00000000000E+00 0.  1.
         23    2    1    2    0    0  0.57690868413E+02  0.85310160718E+02 -0.61709266975E+02  0.15079754542E+03  0.91245856090E+02 0.  0.
        -24    2    1    2    0    0 -0.93851483884E+02 -0.29306625707E+02  0.71572314155E+03  0.72702887517E+03  0.81513131745E+02 0.  0.
         13    1    4    4    0    0 -0.65850970450E+02 -0.49762380363E+02  0.34711838647E+03  0.35679660737E+03  0.00000000000E+00 0. -1.
        -14    1    4    4    0    0 -0.28000513434E+02  0.20455754656E+02  0.36860475508E+03  0.37023226779E+03  0.00000000000E+00 0.  1.
        -11    1    3    3    0    0  0.33011228647E+02  0.86974378321E+02 -0.77813371065E+02  0.12128150897E+03  0.00000000000E+00 0.  1.
         11    1    3    3    0    0  0.24679639765E+02 -0.16642176028E+01  0.16104104090E+02  0.29516036450E+02  0.00000000000E+00 0. -1.
         21    1    1    2  502  501  0.36160615471E+02 -0.56003535012E+02  0.13576760721E+03  0.15125088169E+03  0.00000000000E+00 0.  1.
<scales pt_clust_5="13000.00000" pt_clust_6="13000.00000" pt_clust_7="13000.00000" pt_clust_8="13000.00000" pt_clust_9="66.66323"></scales>
<clustering>
<clus scale="   66.663">  1  9  2 -1</clus>
<clus scale="   81.513">  5  6 -1 -1</clus>
<clus scale="   91.246">  7  8 -1 -1</clus>
<clus scale="  130.201">  1  5  2 -1</clus>
<clus scale="   66.663">  1  5  2 -1</clus>
</clustering>
</event>
<event>
 9    1  0.1973774E-005  0.9097918E+02  0.7546771E-02  0.1308571E+00
          1   -1    0    0  502    0  0.00000000000E+00  0.00000000000E+00  0.29324160869E+02  0.29324160869E+02  0.00000000000E+00 0. -1.
         -2   -1    0    0    0  501 -0.00000000000E+00 -0.00000000000E+00 -0.65258931896E+03  0.65258931896E+03  0.00000000000E+00 0.  1.
        -24    2    1    2    0    0 -0.10365223778E+02  0.94388127754E+00 -0.49658891298E+03  0.50281631341E+03  0.78200816891E+02 0.  0.
         23    2    1    2    0    0 -0.11398112826E+02  0.70997287964E+01 -0.12604314122E+03  0.15588632189E+03  0.90737802373E+02 0.  0.
         11    1    3    3    0    0 -0.16521321768E+02 -0.34598445783E+02 -0.17156605649E+03  0.17579794727E+03  0.00000000000E+00 0. -1.
        -12    1    3    3    0    0  0.61560979906E+01  0.35542327061E+02 -0.32502285649E+03  0.32701836614E+03  0.00000000000E+00 0.  1.
        -11    1    4    4    0    0 -0.51622516108E+01 -0.24812149203E+02  0.38244285998E+00  0.25346357772E+02  0.00000000000E+00 0. -1.
         11    1    4    4    0    0 -0.62358612156E+01  0.31911877999E+02 -0.12642558408E+03  0.13053996412E+03  0.00000000000E+00 0.  1.
         21    1    1    2  502  501  0.21763336604E+02 -0.80436100740E+01 -0.63310389362E+00  0.23210844528E+02  0.00000000000E+00 0. -1.
<scales pt_clust_5="13000.00000" pt_clust_6="13000.00000" pt_clust_7="13000.00000" pt_clust_8="13000.00000" pt_clust_9="23.20221"></scales>
<clustering>
<clus scale="   23.202">  1  9  2 -1</clus>
<clus scale="   78.201">  5  6 -1 -1</clus>
<clus scale="   78.481">  2  5  1 -1</clus>
<clus scale="   90.738">  7  8 -1 -1</clus>
<clus scale="   23.202">  1  5  2 -1</clus>
</clustering>
</event>
<event>
 9    1  0.1973774E-005  0.8915944E+02  0.7546771E-02  0.1310620E+00
          1   -1    0    0  502    0  0.00000000000E+00  0.00000000000E+00  0.48688428555E+03  0.48688428555E+03  0.00000000000E+00 0. -1.
         -2   -1    0    0    0  501 -0.00000000000E+00 -0.00000000000E+00 -0.44257578123E+02  0.44257578123E+02  0.00000000000E+00 0.  1.
        -24    2    1    2    0    0  0.26378952326E+00 -0.10370309274E+02  0.85610687595E+01  0.80899717600E+02  0.79773802154E+02 0.  0.
         23    2    1    2    0    0  0.22884002525E+02  0.68157842166E+00  0.29334398867E+03  0.30730063860E+03  0.88650125052E+02 0.  0.
         11    1    3    3    0    0  0.23171056513E+02  0.57734837039E+01  0.35001238461E+02  0.42371189124E+02  0.00000000000E+00 0. -1.
        -12    1    3    3    0    0 -0.22907266990E+02 -0.16143792978E+02 -0.26440169701E+02  0.38528528476E+02  0.00000000000E+00 0.  1.
        -11    1    4    4    0    0 -0.31591172328E+02  0.97425041143E+01  0.72916002510E+02  0.80060364585E+02  0.00000000000E+00 0.  1.
         11    1    4    4    0    0  0.54475174853E+02 -0.90609256927E+01  0.22042798616E+03  0.22724027401E+03  0.00000000000E+00 0. -1.
         21    1    1    2  502  501 -0.23147792048E+02  0.96887308525E+01  0.14072164999E+03  0.14294150747E+03  0.00000000000E+00 0. -1.
<scales pt_clust_5="13000.00000" pt_clust_6="13000.00000" pt_clust_7="13000.00000" pt_clust_8="13000.00000" pt_clust_9="25.09366"></scales>
<clustering>
<clus scale="   25.094">  1  9  2 -1</clus>
<clus scale="   79.774">  5  6 -1 -1</clus>
<clus scale="   80.339">  2  5  1 -1</clus>
<clus scale="   88.650">  7  8 -1 -1</clus>
<clus scale="   25.094">  1  5  2 -1</clus>
</clustering>
</event>
<event>
 9    1  0.1973774E-005  0.3428752E+03  0.7546771E-02  0.1065914E+00
         -2   -1    0    0    0  501 -0.00000000000E+00  0.00000000000E+00  0.66837539671E+03  0.66837539671E+03  0.00000000000E+00 0.  1.
          1   -1    0    0  502    0  0.00000000000E+00 -0.00000000000E+00 -0.31282399176E+03  0.31282399176E+03  0.00000000000E+00 0. -1.
         23    2    1    2    0    0  0.20642610506E+03  0.27649197111E+03  0.47086392125E+03  0.59080116157E+03  0.90959514270E+02 0.  0.
        -24    2    1    2    0    0 -0.15276480592E+03 -0.24427602070E+03 -0.55122312495E+02  0.30356353843E+03  0.78131250542E+02 0.  0.
         13    1    4    4    0    0 -0.13517473456E+03 -0.23657429267E+03 -0.33301788311E+02  0.27449701988E+03  0.00000000000E+00 0. -1.
        -14    1    4    4    0    0 -0.17590071356E+02 -0.77017280296E+01 -0.21820524184E+02  0.29066518550E+02  0.00000000000E+00 0.  1.
        -13    1    3    3    0    0  0.12581582082E+03  0.18083322264E+03  0.22469634116E+03  0.31467240252E+03  0.00000000000E+00 0.  1.
         13    1    3    3    0    0  0.80610284244E+02  0.95658748472E+02  0.24616758009E+03  0.27612875905E+03  0.00000000000E+00 0. -1.
         21    1    1    2  502  501 -0.53661299147E+02 -0.32215950410E+02 -0.60190203810E+02  0.86834688470E+02  0.00000000000E+00 0. -1.
<scales pt_clust_5="13000.00000" pt_clust_6="13000.00000" pt_clust_7="13000.00000" pt_clust_8="13000.00000" pt_clust_9="62.58916"></scales>
<clustering>
<clus scale="   62.589">  2  9  1 -1</clus>
<clus scale="   78.131">  5  6 -1 -1</clus>
<clus scale="   90.960">  7  8 -1 -1</clus>
<clus scale="  339.697">  2  5  1 -1</clus>
<clus scale="   62.589">  2  5  1 -1</clus>
</clustering>
</event>
<event>
 9    1  0.1973774E-005  0.1016655E+03  0.7546771E-02  0.1283246E+00
          1   -1    0    0  502    0  0.00000000000E+00  0.00000000000E+00  0.32459597954E+03  0.32459597954E+03  0.00000000000E+00 0. -1.
         -2   -1    0    0    0  501 -0.00000000000E+00 -0.00000000000E+00 -0.89045948837E+02  0.89045948837E+02  0.00000000000E+00 0.  1.
        -24    2    1    2    0    0  0.38791326489E+02  0.48448681089E+02 -0.91483673054E+01  0.10189503313E+03  0.80292362288E+02 0.  0.
         23    2    1    2    0    0 -0.42029398561E+01 -0.38009853805E+02  0.25500075485E+03  0.27417743742E+03  0.93195861104E+02 0.  0.
         11    1    3    3    0    0 -0.10267511539E+02  0.18710873513E+02 -0.33379368765E+02  0.39619450274E+02  0.00000000000E+00 0. -1.
        -12    1    3    3    0    0  0.49058838028E+02  0.29737807576E+02  0.24231001460E+02  0.62275582854E+02  0.00000000000E+00 0.  1.
        -11    1    4    4    0    0 -0.16795736979E+02  0.27730548139E+02  0.10566403459E+03  0.11052587157E+03  0.00000000000E+00 0.  1.
         11    1    4    4    0    0  0.12592797123E+02 -0.65740401944E+02  0.14933672026E+03  0.16365156585E+03  0.00000000000E+00 0. -1.
         21    1    1    2  502  501 -0.34588386633E+02 -0.10438827284E+02 -0.10302356842E+02  0.37569457827E+02  0.00000000000E+00 0.  1.
<scales pt_clust_5="13000.00000" pt_clust_6="13000.00000" pt_clust_7="13000.00000" pt_clust_8="13000.00000" pt_clust_9="36.12929"></scales>
<clustering>
<clus scale="   36.129">  2  9  1 -1</clus>
<clus scale="   80.292">  5  6 -1 -1</clus>
<clus scale="   89.985">  2  5  1 -1</clus>
<clus scale="   93.196">  7  8 -1 -1</clus>
<clus scale="  101.665">  1  5  2 -1</clus>
</clustering>
</event>
<event>
 9    1  0.1973774E-005  0.1342483E+03  0.7546771E-02  0.1223132E+00
         -2   -1    0    0    0  501 -0.00000000000E+00  0.00000000000E+00  0.34033574186E+03  0.34033574186E+03  0.00000000000E+00 0.  1.
          1   -1    0    0  502    0  0.00000000000E+00 -0.00000000000E+00 -0.32142114834E+03  0.32142114834E+03  0.00000000000E+00 0. -1.
        -24    2    1    2    0    0  0.39684434311E+02 -0.92562955697E+02  0.29558291303E+03  0.32220715776E+03  0.79406794062E+02 0.  0.
         23    2    1    2    0    0 -0.23446073649E+02  0.12610615075E+03 -0.24780209658E+03  0.29241069217E+03  0.87439431590E+02 0.  0.
         11    1    3    3    0    0  0.26905945758E+02 -0.11836860829E+02  0.16895844857E+03  0.17149635137E+03  0.00000000000E+00 0. -1.
        -12    1    3    3    0    0  0.12778488553E+02 -0.80726094867E+02  0.12662446447E+03  0.15071080639E+03  0.00000000000E+00 0.  1.
        -13    1    4    4    0    0 -0.41429952016E+02  0.63231456222E+02 -0.19234172869E+03  0.20666397503E+03  0.00000000000E+00 0. -1.
         13    1    4    4    0    0  0.17983878367E+02  0.62874694525E+02 -0.55460367892E+02  0.85746717135E+02  0.00000000000E+00 0.  1.
         21    1    1    2  502  501 -0.16238360662E+02 -0.33543195051E+02 -0.28866222926E+02  0.47139040267E+02  0.00000000000E+00 0. -1.
<scales pt_clust_5="13000.00000" pt_clust_6="13000.00000" pt_clust_7="13000.00000" pt_clust_8="13000.00000" pt_clust_9="37.26701"></scales>
<clustering>
<clus scale="   37.267">  2  9  1 -1</clus>
<clus scale="   79.407">  5  6 -1 -1</clus>
<clus scale="   87.439">  7  8 -1 -1</clus>
<clus scale="  129.160">  1  5  2 -1</clus>
<clus scale="   37.267">  2  5  1 -1</clus>
</clustering>
</event>
<event>
 9    1  0.1973774E-005  0.1422871E+03  0.7546771E-02  0.1212400E+00
         -2   -1    0    0    0  501 -0.00000000000E+00  0.00000000000E+00  0.63963451146E+02  0.63963451146E+02  0.00000000000E+00 0.  1.
          1   -1    0    0  502    0  0.00000000000E+00 -0.00000000000E+00 -0.79304941009E+03  0.79304941009E+03  0.00000000000E+00 0. -1.
        -24    2    1    2    0    0  0.50239524300E+02  0.61502280312E+02 -0.12150491807E+03  0.16641270461E+03  0.81383062458E+02 0.  0.
         23    2    1    2    0    0 -0.15584817237E+03 -0.83652335579E+02 -0.26535296096E+03  0.33176332717E+03  0.91478660270E+02 0.  0.
         11    1    3    3    0    0 -0.87385678952E+01  0.44360254731E+02 -0.81234578964E+02  0.92969089423E+02  0.00000000000E+00 0. -1.
        -12    1    3    3    0    0  0.58978092195E+02  0.17142025581E+02 -0.40270339104E+02  0.73443615185E+02  0.00000000000E+00 0.  1.
        -11    1    4    4    0    0 -0.10605560302E+03 -0.23251519186E+02 -0.94929804825E+02  0.14422236969E+03  0.00000000000E+00 0.  1.
         11    1    4    4    0    0 -0.49792569350E+02 -0.60400816393E+02 -0.17042315614E+03  0.18754095748E+03  0.00000000000E+00 0. -1.
         21    1    1    2  502  501  0.10560864807E+03  0.22150055267E+02 -0.34222807992E+03  0.35883682946E+03  0.00000000000E+00 0. -1.
<scales pt_clust_5="13000.00000" pt_clust_6="13000.00000" pt_clust_7="13000.00000" pt_clust_8="13000.00000" pt_clust_9="107.90649"></scales>
<clustering>
<clus scale="   81.383">  5  6 -1 -1</clus>
<clus scale="   91.479">  7  8 -1 -1</clus>
<clus scale="  107.906">  2  9  1 -1</clus>
<clus scale="  136.016">  1  5  2 -1</clus>
<clus scale="  107.906">  2  5  1 -1</clus>
</clustering>
</event>
<event>
 9    1  0.2145026E-005  0.1191185E+03  0.7546771E-02  0.1249075E+00
          1   -1    0    0  502    0  0.00000000000E+00  0.00000000000E+00  0.37667979076E+03  0.37667979076E+03  0.00000000000E+00 0. -1.
         -2   -1    0    0    0  501 -0.00000000000E+00 -0.00000000000E+00 -0.13613615723E+03  0.13613615723E+03  0.00000000000E+00 0.  1.
         23    2    1    2    0    0  0.17933296881E+02 -0.77131555525E+02 -0.94390528884E+02  0.15282001893E+03  0.90407445753E+02 0.  0.
        -24    2    1    2    0    0 -0.12850836621E+00  0.61236048044E+02  0.31168748387E+03  0.32667798021E+03  0.76285942737E+02 0.  0.
         11    1    4    4    0    0 -0.23013004226E+02  0.69574783224E+02  0.22494571204E+03  0.23658153392E+03  0.00000000000E+00 0. -1.
        -12    1    4    4    0    0  0.22884495859E+02 -0.83387351795E+01  0.86741771826E+02  0.90096446293E+02  0.00000000000E+00 0.  1.
        -11    1    3    3    0    0  0.14807192750E+02 -0.31457910087E+02  0.12173686196E+02  0.36838182634E+02  0.00000000000E+00 0. -1.
         11    1    3    3    0    0  0.31261041312E+01 -0.45673645438E+02 -0.10656421508E+03  0.11598183629E+03  0.00000000000E+00 0.  1.
         21    1    1    2  502  501 -0.17804788515E+02  0.15895507481E+02  0.23246678545E+02  0.33317948849E+02  0.00000000000E+00 0. -1.
<scales pt_clust_5="13000.00000" pt_clust_6="13000.00000" pt_clust_7="13000.00000" pt_clust_8="13000.00000" pt_clust_9="23.86792"></scales>
<clustering>
<clus scale="   23.868">  1  9  2 -1</clus>
<clus scale="   76.286">  5  6 -1 -1</clus>
<clus scale="   90.407">  7  8 -1 -1</clus>
<clus scale="  108.790">  1  5  2 -1</clus>
<clus scale="   23.868">  1  5  2 -1</clus>
</clustering>
</event>
<event>
 9    1  0.2331246E-005  0.1226979E+03  0.7546771E-02  0.1244987E+00
         -2   -1    0    0    0  501 -0.00000000000E+00  0.00000000000E+00  0.44634639278E+03  0.44634639278E+03  0.00000000000E+00 0.  1.
          1   -1    0    0  502    0  0.00000000000E+00 -0.00000000000E+00 -0.16605916132E+03  0.16605916132E+03  0.00000000000E+00 0. -1.
         23    2    1    2    0    0  0.18696568930E+02  0.70254281415E+02  0.40123608705E+03  0.41950723084E+03  0.98542850747E+02 0.  0.
        -24    2    1    2    0    0 -0.53580658324E+00 -0.82120961955E+02 -0.12648080956E+03  0.17051006939E+03  0.79574801886E+02 0.  0.
         13    1    4    4    0    0  0.28224742865E+02 -0.45211810656E+02 -0.10755338003E+03  0.12003530101E+03  0.00000000000E+00 0. -1.
        -14    1    4    4    0    0 -0.28760549448E+02 -0.36909151299E+02 -0.18927429526E+02  0.50474768376E+02  0.00000000000E+00 0.  1.
        -13    1    3    3    0    0 -0.12333119825E+02 -0.20832347436E+02  0.11528022915E+03  0.11779483765E+03  0.00000000000E+00 0. -1.
         13    1    3    3    0    0  0.31029688754E+02  0.91086628851E+02  0.28595585790E+03  0.30171239319E+03  0.00000000000E+00 0.  1.
         21    1    1    2  502  501 -0.18160762346E+02  0.11866680541E+02  0.55319539735E+01  0.22388253858E+02  0.00000000000E+00 0. -1.
<scales pt_clust_5="13000.00000" pt_clust_6="13000.00000" pt_clust_7="13000.00000" pt_clust_8="13000.00000" pt_clust_9="21.69404"></scales>
<clustering>
<clus scale="   21.694">  2  9  1 -1</clus>
<clus scale="   79.575">  5  6 -1 -1</clus>
<clus scale="   98.543">  7  8 -1 -1</clus>
<clus scale="  108.057">  2  5  1 -1</clus>
<clus scale="   21.694">  2  5  1 -1</clus>
</clustering>
</event>
<event>
 9    1  0.1973774E-005  0.1048898E+03  0.7546771E-02  0.1281086E+00
          1   -1    0    0  502    0  0.00000000000E+00  0.00000000000E+00  0.47663501398E+03  0.47663501398E+03  0.00000000000E+00 0. -1.
         -2   -1    0    0    0  501 -0.00000000000E+00 -0.00000000000E+00 -0.18006297436E+03  0.18006297436E+03  0.00000000000E+00 0.  1.
         23    2    1    2    0    0 -0.28081645431E+02 -0.14374144381E+02 -0.15377300184E+03  0.18596986926E+03  0.99716905979E+02 0.  0.
        -24    2    1    2    0    0  0.54868287447E+02 -0.25349319361E+01  0.24925575433E+03  0.26715910756E+03  0.78921497945E+02 0.  0.
         13    1    4    4    0    0  0.42481650709E+02  0.34231369210E+02  0.17602856288E+03  0.18428926239E+03  0.00000000000E+00 0. -1.
        -14    1    4    4    0    0  0.12386636738E+02 -0.36766301147E+02  0.73227191454E+02  0.82869845166E+02  0.00000000000E+00 0.  1.
        -11    1    3    3    0    0  0.25109593401E+01  0.35867936173E+02 -0.23287491605E+02  0.42838312611E+02  0.00000000000E+00 0. -1.
         11    1    3    3    0    0 -0.30592604771E+02 -0.50242080554E+02 -0.13048551024E+03  0.14313155664E+03  0.00000000000E+00 0.  1.
         21    1    1    2  502  501 -0.26786642016E+02  0.16909076318E+02  0.20108928713E+03  0.20356901152E+03  0.00000000000E+00 0. -1.
<scales pt_clust_5="13000.00000" pt_clust_6="13000.00000" pt_clust_7="13000.00000" pt_clust_8="13000.00000" pt_clust_9="31.67714"></scales>
<clustering>
<clus scale="   31.677">  1  9  2 -1</clus>
<clus scale="   78.921">  5  6 -1 -1</clus>
<clus scale="   85.364">  1  5  2 -1</clus>
<clus scale="   99.717">  7  8 -1 -1</clus>
<clus scale="   31.677">  1  5  2 -1</clus>
</clustering>
</event>
<event>
 9    1  0.1973774E-005  0.1116472E+03  0.7546771E-02  0.1260849E+00
          1   -1    0    0  502    0  0.00000000000E+00  0.00000000000E+00  0.19242452787E+02  0.19242452787E+02  0.00000000000E+00 0. -1.
         -2   -1    0    0    0  501 -0.00000000000E+00 -0.00000000000E+00 -0.12373222349E+04  0.12373222349E+04  0.00000000000E+00 0.  1.
        -24    2    1    2    0    0 -0.74997906459E+02 -0.11858404497E+02 -0.82730241928E+03  0.83476947277E+03  0.81519764428E+02 0.  0.
         23    2    1    2    0    0  0.38449236225E+02  0.31864943447E+02 -0.34397961311E+03  0.35913664586E+03  0.90351744748E+02 0.  0.
         11    1    3    3    0    0 -0.30709431222E+02 -0.18305744555E+02 -0.10193658499E+03  0.10802424176E+03  0.00000000000E+00 0. -1.
        -12    1    3    3    0    0 -0.44288475237E+02  0.64473400573E+01 -0.72536583429E+03  0.72674523100E+03  0.00000000000E+00 0.  1.
        -13    1    4    4    0    0 -0.11821374865E+02  0.43957192891E+02 -0.22255094121E+03  0.22715831735E+03  0.00000000000E+00 0.  1.
         13    1    4    4    0    0  0.50270611091E+02 -0.12092249444E+02 -0.12142867191E+03  0.13197832851E+03  0.00000000000E+00 0. -1.
         21    1    1    2  502  501  0.36548670233E+02 -0.20006538950E+02 -0.46797749719E+02  0.62658569050E+02  0.00000000000E+00 0. -1.
<scales pt_clust_5="13000.00000" pt_clust_6="13000.00000" pt_clust_7="13000.00000" pt_clust_8="13000.00000" pt_clust_9="41.66614"></scales>
<clustering>
<clus scale="   41.666">  1  9  2 -1</clus>
<clus scale="   81.520">  5  6 -1 -1</clus>
<clus scale="   90.352">  7  8 -1 -1</clus>
<clus scale="  104.628">  2  5  1 -1</clus>
<clus scale="   41.666">  1  5  2 -1</clus>
</clustering>
</event>
<event>
 9    1  0.1973774E-005  0.8753485E+02  0.7546771E-02  0.1310363E+00
          1   -1    0    0  502    0  0.00000000000E+00  0.00000000000E+00  0.32701239578E+03  0.32701239578E+03  0.00000000000E+00 0. -1.
         -2   -1    0    0    0  501 -0.00000000000E+00 -0.00000000000E+00 -0.52691264538E+02  0.52691264538E+02  0.00000000000E+00 0.  1.
         23    2    1    2    0    0  0.14302290087E+02  0.12798741953E+02  0.19362822286E+02  0.88009221171E+02  0.83679990601E+02 0.  0.
        -24    2    1    2    0    0 -0.41775041866E+02 -0.10840649637E+02  0.10685003711E+03  0.14104701499E+03  0.81330536700E+02 0.  0.
         13    1    4    4    0    0 -0.15231149635E+02 -0.30424797796E+02  0.55025949016E+01  0.34466429911E+02  0.00000000000E+00 0. -1.
        -14    1    4    4    0    0 -0.26543892231E+02  0.19584148159E+02  0.10134744221E+03  0.10658058508E+03  0.00000000000E+00 0.  1.
        -11    1    3    3    0    0 -0.22731841611E+02  0.23349919073E+02  0.33737362796E+02  0.46905916388E+02  0.00000000000E+00 0.  1.
         11    1    3    3    0    0  0.37034131698E+02 -0.10551177120E+02 -0.14374540510E+02  0.41103304783E+02  0.00000000000E+00 0. -1.
         21    1    1    2  502  501  0.27472751779E+02 -0.19580923153E+01  0.14810827185E+03  0.15064742416E+03  0.00000000000E+00 0. -1.
<scales pt_clust_5="13000.00000" pt_clust_6="13000.00000" pt_clust_7="13000.00000" pt_clust_8="13000.00000" pt_clust_9="27.54244"></scales>
<clustering>
<clus scale="   27.542">  1  9  2 -1</clus>
<clus scale="   81.331">  5  6 -1 -1</clus>
<clus scale="   83.680">  7  8 -1 -1</clus>
<clus scale="   85.292">  1  5  2 -1</clus>
<clus scale="   27.542">  1  5  2 -1</clus>
</clustering>
</event>
<event>
 9    1  0.1973774E-005  0.1114893E+03  0.7546771E-02  0.1261959E+00
          3   -1    0    0  502    0  0.00000000000E+00  0.00000000000E+00  0.10037468193E+03  0.10037468193E+03  0.00000000000E+00 0. -1.
         -4   -1    0    0    0  501 -0.00000000000E+00 -0.00000000000E+00 -0.16579650689E+03  0.16579650689E+03  0.00000000000E+00 0.  1.
        -24    2    1    2    0    0 -0.70672205882E+02 -0.36742125395E+02 -0.47077424845E+02  0.12237629509E+03  0.80094501730E+02 0.  0.
         23    2    1    2    0    0  0.31114464103E+02  0.36398460741E+02 -0.93468911253E+01  0.10322534594E+03  0.90967850644E+02 0.  0.
         11    1    3    3    0    0 -0.62106389439E+02  0.67421736839E+01 -0.74318703541E+01  0.62911789135E+02  0.00000000000E+00 0. -1.
        -12    1    3    3    0    0 -0.85658164423E+01 -0.43484299079E+02 -0.39645554491E+02  0.59464505956E+02  0.00000000000E+00 0.  1.
        -13    1    4    4    0    0  0.16613119252E+02  0.55950846651E+02 -0.34842866668E+02  0.67974394664E+02  0.00000000000E+00 0.  1.
         13    1    4    4    0    0  0.14501344851E+02 -0.19552385910E+02  0.25495975543E+02  0.35250951280E+02  0.00000000000E+00 0. -1.
         21    1    1    2  502  501  0.39557741778E+02  0.34366465384E+00 -0.89975089882E+01  0.40569547791E+02  0.00000000000E+00 0. -1.
<scales pt_clust_5="13000.00000" pt_clust_6="13000.00000" pt_clust_7="13000.00000" pt_clust_8="13000.00000" pt_clust_9="39.55923"></scales>
<clustering>
<clus scale="   39.559">  1  9  2 -1</clus>
<clus scale="   80.095">  5  6 -1 -1</clus>
<clus scale="   90.968">  7  8 -1 -1</clus>
<clus scale="  102.810">  2  5  1 -1</clus>
<clus scale="   39.559">  1  5  2 -1</clus>
</clustering>
</event>
<event>
 9    1  0.1973774E-005  0.1418324E+03  0.7546771E-02  0.1211902E+00
         -2   -1    0    0    0  501 -0.00000000000E+00  0.00000000000E+00  0.65029410184E+03  0.65029410184E+03  0.00000000000E+00 0.  1.
          1   -1    0    0  502    0  0.00000000000E+00 -0.00000000000E+00 -0.74273609860E+02  0.74273609860E+02  0.00000000000E+00 0. -1.
         23    2    1    2    0    0  0.65984113803E+02 -0.91400392802E+02  0.54895676715E+03  0.56771102038E+03  0.90743238789E+02 0.  0.
        -24    2    1    2    0    0 -0.65484072640E+02  0.62472475849E+02  0.28080419029E+02  0.12790659481E+03  0.85910494445E+02 0.  0.
         13    1    4    4    0    0 -0.73235713227E+02  0.17768390266E+02  0.16085687161E+01  0.75377535631E+02  0.00000000000E+00 0. -1.
        -14    1    4    4    0    0  0.77516405870E+01  0.44704085584E+02  0.26471850313E+02  0.52529059183E+02  0.00000000000E+00 0.  1.
        -13    1    3    3    0    0  0.66921848636E+02 -0.19466403852E+02  0.21207873933E+03  0.22323724237E+03  0.00000000000E+00 0. -1.
         13    1    3    3    0    0 -0.93773483313E+00 -0.71933988950E+02  0.33687802782E+03  0.34447377802E+03  0.00000000000E+00 0.  1.
         21    1    1    2  502  501 -0.50004116300E+00  0.28927916953E+02 -0.10166941996E+01  0.28950096503E+02  0.00000000000E+00 0. -1.
<scales pt_clust_5="13000.00000" pt_clust_6="13000.00000" pt_clust_7="13000.00000" pt_clust_8="13000.00000" pt_clust_9="28.93224"></scales>
<clustering>
<clus scale="   28.932">  2  9  1 -1</clus>
<clus scale="   85.910">  5  6 -1 -1</clus>
<clus scale="   90.743">  7  8 -1 -1</clus>
<clus scale="  138.790">  2  5  1 -1</clus>
<clus scale="   28.932">  2  5  1 -1</clus>
</clustering>
</event>
<event>
 9    1  0.1973774E-005  0.9264729E+02  0.7546771E-02  0.1304172E+00
          1   -1    0    0  502    0  0.00000000000E+00  0.00000000000E+00  0.20600302092E+03  0.20600302092E+03  0.00000000000E+00 0. -1.
         -2   -1    0    0    0  501 -0.00000000000E+00 -0.00000000000E+00 -0.69619580541E+02  0.69619580541E+02  0.00000000000E+00 0.  1.
        -24    2    1    2    0    0 -0.47156249383E+01  0.20456781463E+02 -0.92690740927E+01  0.82629464050E+02  0.79378810574E+02 0.  0.
         23    2    1    2    0    0  0.20601634130E+01  0.80809292654E+01  0.82303566648E+02  0.12346226945E+03  0.91648836342E+02 0.  0.
         11    1    3    3    0    0  0.18281650285E+02  0.37228007720E+02  0.16111305895E+02  0.44494016154E+02  0.00000000000E+00 0. -1.
        -12    1    3    3    0    0 -0.22997275223E+02 -0.16771226256E+02 -0.25380379988E+02  0.38135447895E+02  0.00000000000E+00 0.  1.
        -11    1    4    4    0    0  0.46334810250E+02  0.47086821184E+01  0.32810421027E+02  0.56970255890E+02  0.00000000000E+00 0. -1.
         11    1    4    4    0    0 -0.44274646837E+02  0.33722471470E+01  0.49493145621E+02  0.66492013557E+02  0.00000000000E+00 0.  1.
         21    1    1    2  502  501  0.26554615253E+01 -0.28537710729E+02  0.63348947822E+02  0.69530867963E+02  0.00000000000E+00 0.  1.
<scales pt_clust_5="13000.00000" pt_clust_6="13000.00000" pt_clust_7="13000.00000" pt_clust_8="13000.00000" pt_clust_9="28.66099"></scales>
<clustering>
<clus scale="   28.661">  1  9  2 -1</clus>
<clus scale="   79.379">  5  6 -1 -1</clus>
<clus scale="   80.530">  2  5  1 -1</clus>
<clus scale="   91.649">  7  8 -1 -1</clus>
<clus scale="   28.661">  1  5  2 -1</clus>
</clustering>
</event>
<event>
 9    1  0.1973774E-005  0.1060422E+03  0.7546771E-02  0.1282313E+00
          1   -1    0    0  502    0  0.00000000000E+00  0.00000000000E+00  0.15424481045E+03  0.15424481045E+03  0.00000000000E+00 0. -1.
         -2   -1    0    0    0  501 -0.00000000000E+00 -0.00000000000E+00 -0.33395925907E+03  0.33395925907E+03  0.00000000000E+00 0.  1.
        -24    2    1    2    0    0 -0.21037534800E+01  0.13655561147E+02 -0.29939642729E+03  0.31013202810E+03  0.79704165816E+02 0.  0.
         23    2    1    2    0    0  0.21801994590E+01  0.11003544882E+02  0.86425408866E+02  0.13667063095E+03  0.10527905204E+03 0.  0.
         13    1    3    3    0    0  0.28112654048E+02  0.25115434858E+02 -0.80819560877E+02  0.89179077177E+02  0.00000000000E+00 0. -1.
        -14    1    3    3    0    0 -0.30216407528E+02 -0.11459873711E+02 -0.21857686641E+03  0.22095295092E+03  0.00000000000E+00 0.  1.
        -13    1    4    4    0    0 -0.60659622098E+00  0.57823107392E+02  0.37648242204E+02  0.69001955396E+02  0.00000000000E+00 0.  1.
         13    1    4    4    0    0  0.27867956800E+01 -0.46819562511E+02  0.48777166662E+02  0.67668675556E+02  0.00000000000E+00 0. -1.
         21    1    1    2  502  501 -0.76445978987E-01 -0.24659106029E+02  0.33256569797E+02  0.41401410469E+02  0.00000000000E+00 0. -1.
<scales pt_clust_5="13000.00000" pt_clust_6="13000.00000" pt_clust_7="13000.00000" pt_clust_8="13000.00000" pt_clust_9="24.65922"></scales>
<clustering>
<clus scale="   24.659">  1  9  2 -1</clus>
<clus scale="   79.704">  5  6 -1 -1</clus>
<clus scale="   80.710">  2  5  1 -1</clus>
<clus scale="  105.279">  7  8 -1 -1</clus>
<clus scale="   24.659">  1  5  2 -1</clus>
</clustering>
</event>
<event>
 9    1  0.1973774E-005  0.2008185E+03  0.7546771E-02  0.1149852E+00
         -2   -1    0    0    0  501 -0.00000000000E+00  0.00000000000E+00  0.95561028894E+03  0.95561028894E+03  0.00000000000E+00 0.  1.
          1   -1    0    0  502    0  0.00000000000E+00 -0.00000000000E+00 -0.95644350020E+02  0.95644350020E+02  0.00000000000E+00 0. -1.
        -24    2    1    2    0    0  0.10864262528E+03 -0.15259018543E+03  0.74274571864E+03  0.77026268180E+03  0.80909898705E+02 0.  0.
         23    2    1    2    0    0 -0.51137990498E+02  0.15013336132E+03  0.12765973788E+03  0.22249578178E+03  0.89734296574E+02 0.  0.
         13    1    3    3    0    0  0.22165286446E+02 -0.25540000118E+01  0.34000728451E+02  0.40667829725E+02  0.00000000000E+00 0. -1.
        -14    1    3    3    0    0  0.86477338831E+02 -0.15003618542E+03  0.70874499018E+03  0.72959485208E+03  0.00000000000E+00 0.  1.
        -13    1    4    4    0    0 -0.18981646351E+02  0.13009043793E+03  0.12952980709E+03  0.18455838064E+03  0.00000000000E+00 0.  1.
         13    1    4    4    0    0 -0.32156344147E+02  0.20042923388E+02 -0.18700692045E+01  0.37937401145E+02  0.00000000000E+00 0. -1.
         21    1    1    2  502  501 -0.57504634779E+02  0.24568241083E+01 -0.10439517597E+02  0.58496175375E+02  0.00000000000E+00 0.  1.
<scales pt_clust_5="13000.00000" pt_clust_6="13000.00000" pt_clust_7="13000.00000" pt_clust_8="13000.00000" pt_clust_9="57.55709"></scales>
<clustering>
<clus scale="   57.557">  2  9  1 -1</clus>
<clus scale="   80.910">  5  6 -1 -1</clus>
<clus scale="   89.734">  7  8 -1 -1</clus>
<clus scale="  197.034">  1  5  2 -1</clus>
<clus scale="   57.557">  2  5  1 -1</clus>
</clustering>
</event>
<event>
 9    1  0.1973774E-005  0.1097363E+03  0.7546771E-02  0.1268902E+00
         -2   -1    0    0    0  501 -0.00000000000E+00  0.00000000000E+00  0.82429889038E+02  0.82429889038E+02  0.00000000000E+00 0.  1.
          1   -1    0    0  502    0  0.00000000000E+00 -0.00000000000E+00 -0.43535632684E+03  0.43535632684E+03  0.00000000000E+00 0. -1.
        -24    2    1    2    0    0  0.11220153430E+02  0.93596691344E+01 -0.16149835899E+02  0.77616851314E+02  0.74498746023E+02 0.  0.
         23    2    1    2    0    0 -0.46962358906E+02 -0.52744167575E+02 -0.36058774894E+03  0.37912273746E+03  0.93397617795E+02 0.  0.
         11    1    3    3    0    0 -0.26627203074E+02 -0.14006298812E+02  0.58978040534E+00  0.30092061925E+02  0.00000000000E+00 0. -1.
        -12    1    3    3    0    0  0.37847356504E+02  0.23365967947E+02 -0.16739616305E+02  0.47524789389E+02  0.00000000000E+00 0.  1.
        -11    1    4    4    0    0 -0.15402013957E+02 -0.74556004970E+02 -0.27473865319E+03  0.28509147210E+03  0.00000000000E+00 0. -1.
         11    1    4    4    0    0 -0.31560344949E+02  0.21811837395E+02 -0.85849095751E+02  0.94031265360E+02  0.00000000000E+00 0.  1.
         21    1    1    2  502  501  0.35742205476E+02  0.43384498441E+02  0.23811147035E+02  0.61046627101E+02  0.00000000000E+00 0.  1.
<scales pt_clust_5="13000.00000" pt_clust_6="13000.00000" pt_clust_7="13000.00000" pt_clust_8="13000.00000" pt_clust_9="56.21139"></scales>
<clustering>
<clus scale="   56.211">  1  9  2 -1</clus>
<clus scale="   74.499">  5  6 -1 -1</clus>
<clus scale="   93.398">  7  8 -1 -1</clus>
<clus scale="   94.175">  1  5  2 -1</clus>
<clus scale="  109.736">  2  5  1 -1</clus>
</clustering>
</event>
<event>
 9    1  0.1973774E-005  0.1341298E+03  0.7546771E-02  0.1224124E+00
         -2   -1    0    0    0  501 -0.00000000000E+00  0.00000000000E+00  0.14989624830E+03  0.14989624830E+03  0.00000000000E+00 0.  1.
          1   -1    0    0  502    0  0.00000000000E+00 -0.00000000000E+00 -0.29057138524E+03  0.29057138524E+03  0.00000000000E+00 0. -1.
         23    2    1    2    0    0 -0.12435343998E+02 -0.68885352821E+02 -0.17010030333E+02  0.11583138643E+03  0.90706886925E+02 0.  0.
        -24    2    1    2    0    0 -0.58599254076E+02  0.12866872432E+03  0.92681390054E+01  0.16249059217E+03  0.79547350342E+02 0.  0.
         11    1    4    4    0    0  0.19594930178E+02  0.21005641873E+02 -0.29023681969E+01  0.28872513232E+02  0.00000000000E+00 0. -1.
        -12    1    4    4    0    0 -0.78194184254E+02  0.10766308244E+03  0.12170507202E+02  0.13361807893E+03  0.00000000000E+00 0.  1.
        -11    1    3    3    0    0 -0.44136318029E+02 -0.29626315935E+02  0.16023587584E+02  0.55520163221E+02  0.00000000000E+00 0. -1.
         11    1    3    3    0    0  0.31700974031E+02 -0.39259036887E+02 -0.33033617917E+02  0.60311223205E+02  0.00000000000E+00 0.  1.
         21    1    1    2  502  501  0.71034598073E+02 -0.59783371497E+02 -0.13293324561E+03  0.16214565495E+03  0.00000000000E+00 0.  1.
<scales pt_clust_5="13000.00000" pt_clust_6="13000.00000" pt_clust_7="13000.00000" pt_clust_8="13000.00000" pt_clust_9="92.84377"></scales>
<clustering>
<clus scale="   79.547">  5  6 -1 -1</clus>
<clus scale="   90.707">  7  8 -1 -1</clus>
<clus scale="   92.844">  2  9  1 -1</clus>
<clus scale="  126.850">  2  5  1 -1</clus>
<clus scale="   92.844">  2  5  1 -1</clus>
</clustering>
</event>
<event>
 9    1  0.1973774E-005  0.1386334E+03  0.7546771E-02  0.1220175E+00
          1   -1    0    0  502    0  0.00000000000E+00  0.00000000000E+00  0.76783641814E+03  0.76783641814E+03  0.00000000000E+00 0. -1.
         -2   -1    0    0    0  501 -0.00000000000E+00 -0.00000000000E+00 -0.51706125770E+02  0.51706125770E+02  0.00000000000E+00 0.  1.
        -24    2    1    2    0    0 -0.66418899804E+02 -0.27590061244E+02  0.55890537908E+02  0.11366320770E+03  0.67991843820E+02 0.  0.
         23    2    1    2    0    0  0.10713538909E+03  0.38534128680E+02  0.64466992093E+03  0.66093464990E+03  0.90952920901E+02 0.  0.
         11    1    3    3    0    0 -0.28856396066E+02  0.15021786793E+01  0.59366452567E+02  0.66025175691E+02  0.00000000000E+00 0. -1.
        -12    1    3    3    0    0 -0.37562503738E+02 -0.29092239923E+02 -0.34759146586E+01  0.47638032008E+02  0.00000000000E+00 0.  1.
        -11    1    4    4    0    0  0.64654324636E+01 -0.24929202644E+02  0.14661215786E+03  0.14885695077E+03  0.00000000000E+00 0.  1.
         11    1    4    4    0    0  0.10066995662E+03  0.63463331324E+02  0.49805776307E+03  0.51207769913E+03  0.00000000000E+00 0. -1.
         21    1    1    2  502  501 -0.40716489282E+02 -0.10944067436E+02  0.15569833538E+02  0.44944686315E+02  0.00000000000E+00 0.  1.
<scales pt_clust_5="13000.00000" pt_clust_6="13000.00000" pt_clust_7="13000.00000" pt_clust_8="13000.00000" pt_clust_9="42.16165"></scales>
<clustering>
<clus scale="   42.162">  2  9  1 -1</clus>
<clus scale="   67.992">  5  6 -1 -1</clus>
<clus scale="   90.953">  7  8 -1 -1</clus>
<clus scale="  124.778">  2  5  1 -1</clus>
<clus scale="  138.633">  1  5  2 -1</clus>
</clustering>
</event>
<event>
 9    1  0.1973774E-005  0.1049445E+03  0.7546771E-02  0.1270511E+00
         -2   -1    0    0    0  501 -0.00000000000E+00  0.00000000000E+00  0.54864046208E+02  0.54864046208E+02  0.00000000000E+00 0.  1.
          1   -1    0    0  502    0  0.00000000000E+00 -0.00000000000E+00 -0.60942778173E+03  0.60942778173E+03  0.00000000000E+00 0. -1.
        -24    2    1    2    0    0  0.68578353385E+02  0.36555345525E+02 -0.65844304180E+02  0.13780352746E+03  0.92817325686E+02 0.  0.
         23    2    1    2    0    0  0.78908169819E+01 -0.21585050459E+02 -0.14011492612E+03  0.16928143491E+03  0.92172839203E+02 0.  0.
         13    1    3    3    0    0 -0.21724330687E+02 -0.30869967950E+01 -0.73532257552E+01  0.23141867298E+02  0.00000000000E+00 0. -1.
        -14    1    3    3    0    0  0.90302684073E+02  0.39642342320E+02 -0.58491078425E+02  0.11466166016E+03  0.00000000000E+00 0.  1.
        -13    1    4    4    0    0 -0.30897535662E+02 -0.29985838834E+02 -0.30669548230E+02  0.52862363069E+02  0.00000000000E+00 0. -1.
         13    1    4    4    0    0  0.38788352644E+02  0.84007883754E+01 -0.10944537789E+03  0.11641907184E+03  0.00000000000E+00 0.  1.
         21    1    1    2  502  501 -0.76469170367E+02 -0.14970295066E+02 -0.34860450522E+03  0.35720686557E+03  0.00000000000E+00 0. -1.
<scales pt_clust_5="13000.00000" pt_clust_6="13000.00000" pt_clust_7="13000.00000" pt_clust_8="13000.00000" pt_clust_9="77.92075"></scales>
<clustering>
<clus scale="   77.921">  2  9  1 -1</clus>
<clus scale="   92.173">  7  8 -1 -1</clus>
<clus scale="   92.817">  5  6 -1 -1</clus>
<clus scale="  104.375">  2  7  1 -1</clus>
<clus scale="   77.921">  2  5  1 -1</clus>
</clustering>
</event>
<event>
 9    1  0.1973774E-005  0.1033241E+03  0.7546771E-02  0.1276654E+00
          1   -1    0    0  502    0  0.00000000000E+00  0.00000000000E+00  0.79368066060E+03  0.79368066060E+03  0.00000000000E+00 0. -1.
         -2   -1    0    0    0  501 -0.00000000000E+00 -0.00000000000E+00 -0.22529220676E+02  0.22529220676E+02  0.00000000000E+00 0.  1.
         23    2    1    2    0    0  0.42130794199E+02  0.40762151546E+02  0.15694736261E+03  0.19038210424E+03  0.90422973655E+02 0.  0.
        -24    2    1    2    0    0 -0.20350000360E+02 -0.22022112211E+02  0.39876262970E+03  0.40847872735E+03  0.83331506079E+02 0.  0.
         13    1    4    4    0    0 -0.25518096801E+01 -0.51771290147E+02  0.28010622112E+03  0.28486184954E+03  0.00000000000E+00 0. -1.
        -14    1    4    4    0    0 -0.17798190680E+02  0.29749177936E+02  0.11865640859E+03  0.12361687780E+03  0.00000000000E+00 0.  1.
        -11    1    3    3    0    0  0.32924730361E+02 -0.10141340249E+02  0.12001033421E+02  0.36481631743E+02  0.00000000000E+00 0.  1.
         11    1    3    3    0    0  0.92060638381E+01  0.50903491795E+02  0.14494632919E+03  0.15390047250E+03  0.00000000000E+00 0. -1.
         21    1    1    2  502  501 -0.21780793840E+02 -0.18740039335E+02  0.21544144760E+03  0.21734904969E+03  0.00000000000E+00 0. -1.
<scales pt_clust_5="13000.00000" pt_clust_6="13000.00000" pt_clust_7="13000.00000" pt_clust_8="13000.00000" pt_clust_9="28.73312"></scales>
<clustering>
<clus scale="   28.733">  1  9  2 -1</clus>
<clus scale="   83.332">  5  6 -1 -1</clus>
<clus scale="   90.423">  7  8 -1 -1</clus>
<clus scale="   97.179">  1  5  2 -1</clus>
<clus scale="   28.733">  1  5  2 -1</clus>
</clustering>
</event>
<event>
 9    1  0.1973774E-005  0.8561583E+02  0.7546771E-02  0.1318221E+00
          1   -1    0    0  502    0  0.00000000000E+00  0.00000000000E+00  0.68527142728E+02  0.68527142728E+02  0.00000000000E+00 0. -1.
         -2   -1    0    0    0  501 -0.00000000000E+00 -0.00000000000E+00 -0.18038001400E+03  0.18038001400E+03  0.00000000000E+00 0.  1.
        -24    2    1    2    0    0  0.17837949611E+02  0.25750065327E+01 -0.91260754758E+02  0.12321335079E+03  0.80797161760E+02 0.  0.
         23    2    1    2    0    0 -0.50895904659E+02 -0.21089167928E+01 -0.22709912056E+02  0.92564805210E+02  0.73875993508E+02 0.  0.
         13    1    3    3    0    0 -0.20305529878E+02  0.25198768374E+02 -0.16591448922E+02  0.36367136930E+02  0.00000000000E+00 0. -1.
        -14    1    3    3    0    0  0.38143479490E+02 -0.22623761841E+02 -0.74669305836E+02  0.86846213858E+02  0.00000000000E+00 0.  1.
        -13    1    4    4    0    0 -0.96432215231E+01 -0.28395391049E+02 -0.30796463407E+02  0.42985021956E+02  0.00000000000E+00 0.  1.
         13    1    4    4    0    0 -0.41252683136E+02  0.26286474256E+02  0.80865513514E+01  0.49579783254E+02  0.00000000000E+00 0. -1.
         21    1    1    2  502  501  0.33057955047E+02 -0.46608973991E+00  0.21177955389E+01  0.33129000732E+02  0.00000000000E+00 0.  1.
<scales pt_clust_5="13000.00000" pt_clust_6="13000.00000" pt_clust_7="13000.00000" pt_clust_8="13000.00000" pt_clust_9="33.06124"></scales>
<clustering>
<clus scale="   33.061">  1  9  2 -1</clus>
<clus scale="   73.876">  7  8 -1 -1</clus>
<clus scale="   79.117">  1  7  2 -1</clus>
<clus scale="   80.797">  5  6 -1 -1</clus>
<clus scale="   33.061">  1  5  2 -1</clus>
</clustering>
</event>
<event>
 9    1  0.1973774E-005  0.9519479E+02  0.7546771E-02  0.1295162E+00
          1   -1    0    0  502    0  0.00000000000E+00  0.00000000000E+00  0.82956193323E+02  0.82956193323E+02  0.00000000000E+00 0. -1.
         -2   -1    0    0    0  501 -0.00000000000E+00 -0.00000000000E+00 -0.28042188586E+03  0.28042188586E+03  0.00000000000E+00 0.  1.
         23    2    1    2    0    0  0.94909784845E+00  0.33912007120E+02 -0.14327525922E+03  0.17137480288E+03  0.87696055468E+02 0.  0.
        -24    2    1    2    0    0 -0.71257163485E+02 -0.21317778332E+02 -0.51811668748E+02  0.12053652030E+03  0.79451700337E+02 0.  0.
         13    1    4    4    0    0 -0.82714511769E+02 -0.50202332293E+01 -0.23899869488E+02  0.86244402488E+02  0.00000000000E+00 0. -1.
        -14    1    4    4    0    0  0.11457348285E+02 -0.16297545102E+02 -0.27911799260E+02  0.34292117812E+02  0.00000000000E+00 0.  1.
        -11    1    3    3    0    0  0.97475279556E+00  0.60915334545E+02 -0.12412514292E+03  0.13827031218E+03  0.00000000000E+00 0.  1.
         11    1    3    3    0    0 -0.25654947113E-01 -0.27003327426E+02 -0.19150116300E+02  0.33104490701E+02  0.00000000000E+00 0. -1.
         21    1    1    2  502  501  0.70308065636E+02 -0.12594228788E+02 -0.23787645676E+01  0.71466756000E+02  0.00000000000E+00 0. -1.
<scales pt_clust_5="13000.00000" pt_clust_6="13000.00000" pt_clust_7="13000.00000" pt_clust_8="13000.00000" pt_clust_9="71.42716"></scales>
<clustering>
<clus scale="   71.427">  1  9  2 -1</clus>
<clus scale="   79.452">  5  6 -1 -1</clus>
<clus scale="   87.659">  1  5  2 -1</clus>
<clus scale="   87.696">  7  8 -1 -1</clus>
<clus scale="   71.427">  1  5  2 -1</clus>
</clustering>
</event>
<event>
 9    1  0.1973774E-005  0.1079445E+03  0.7546771E-02  0.1269662E+00
          1   -1    0    0  502    0  0.00000000000E+00  0.00000000000E+00  0.28802644917E+02  0.28802644917E+02  0.00000000000E+00 0. -1.
         -2   -1    0    0    0  501 -0.00000000000E+00 -0.00000000000E+00 -0.51617019460E+03  0.51617019460E+03  0.00000000000E+00 0.  1.
        -24    2    1    2    0    0  0.58109982437E+02 -0.14032438878E+02 -0.32980708256E+03  0.34461828053E+03  0.80095993447E+02 0.  0.
         23    2    1    2    0    0 -0.40560316966E+02  0.23634569612E+02 -0.13214425437E+03  0.16800992198E+03  0.92528361743E+02 0.  0.
         13    1    3    3    0    0  0.24225137099E+02 -0.18739761553E+02 -0.30022595082E+02  0.42888135259E+02  0.00000000000E+00 0. -1.
        -14    1    3    3    0    0  0.33884845338E+02  0.47073226755E+01 -0.29978448748E+03  0.30173014527E+03  0.00000000000E+00 0.  1.
        -13    1    4    4    0    0  0.72242445949E+01  0.20901598469E+02 -0.11509653058E+03  0.11720186807E+03  0.00000000000E+00 0.  1.
         13    1    4    4    0    0 -0.47784561561E+02  0.27329711429E+01 -0.17047723786E+02  0.50808053901E+02  0.00000000000E+00 0. -1.
         21    1    1    2  502  501 -0.17549665470E+02 -0.96021307345E+01 -0.25416212754E+02  0.32344637013E+02  0.00000000000E+00 0. -1.
<scales pt_clust_5="13000.00000" pt_clust_6="13000.00000" pt_clust_7="13000.00000" pt_clust_8="13000.00000" pt_clust_9="20.00479"></scales>
<clustering>
<clus scale="   20.005">  1  9  2 -1</clus>
<clus scale="   80.096">  5  6 -1 -1</clus>
<clus scale="   92.528">  7  8 -1 -1</clus>
<clus scale="   97.498">  2  5  1 -1</clus>
<clus scale="   20.005">  1  5  2 -1</clus>
</clustering>
</event>
<event>
 9    1  0.1973774E-005  0.9673004E+02  0.7546771E-02  0.1295132E+00
         -2   -1    0    0    0  501 -0.00000000000E+00  0.00000000000E+00  0.13695545739E+03  0.13695545739E+03  0.00000000000E+00 0.  1.
          1   -1    0    0  502    0  0.00000000000E+00 -0.00000000000E+00 -0.22256525076E+03  0.22256525076E+03  0.00000000000E+00 0. -1.
        -24    2    1    2    0    0 -0.24049965977E+02 -0.89397117128E+01  0.64114851032E+02  0.10584891182E+03  0.80218194335E+02 0.  0.
         23    2    1    2    0    0  0.59470853803E+01  0.27211808830E+02  0.38600929162E+01  0.97948145718E+02  0.93824775875E+02 0.  0.
         13    1    3    3    0    0  0.11821065671E+02 -0.35650697737E+02  0.18144545400E+02  0.41712520549E+02  0.00000000000E+00 0. -1.
        -14    1    3    3    0    0 -0.35871031648E+02  0.26710986024E+02  0.45970305632E+02  0.64136391275E+02  0.00000000000E+00 0.  1.
        -11    1    4    4    0    0  0.44342378444E+02  0.34566396279E+02  0.13205065859E+02  0.57753407190E+02  0.00000000000E+00 0.  1.
         11    1    4    4    0    0 -0.38395293063E+02 -0.73545874493E+01 -0.93449729431E+01  0.40194738527E+02  0.00000000000E+00 0. -1.
         21    1    1    2  502  501  0.18102880596E+02 -0.18272097117E+02 -0.15358473732E+03  0.15572365060E+03  0.00000000000E+00 0. -1.
<scales pt_clust_5="13000.00000" pt_clust_6="13000.00000" pt_clust_7="13000.00000" pt_clust_8="13000.00000" pt_clust_9="25.72127"></scales>
<clustering>
<clus scale="   25.721">  2  9  1 -1</clus>
<clus scale="   80.218">  5  6 -1 -1</clus>
<clus scale="   83.598">  1  5  2 -1</clus>
<clus scale="   93.825">  7  8 -1 -1</clus>
<clus scale="   25.721">  2  5  1 -1</clus>
</clustering>
</event>
<event>
 9    1  0.1973774E-005  0.1030696E+03  0.7546771E-02  0.1279878E+00
          1   -1    0    0  502    0  0.00000000000E+00  0.00000000000E+00  0.17821326503E+03  0.17821326503E+03  0.00000000000E+00 0. -1.
         -2   -1    0    0    0  501 -0.00000000000E+00 -0.00000000000E+00 -0.10900846006E+03  0.10900846006E+03  0.00000000000E+00 0.  1.
         23    2    1    2    0    0  0.56424316450E+01  0.61885689074E+02 -0.48072370902E+02  0.12127274506E+03  0.92382088656E+02 0.  0.
        -24    2    1    2    0    0  0.23382905048E+01 -0.42641107053E+02  0.11272174437E+03  0.14462299073E+03  0.79911739953E+02 0.  0.
         11    1    4    4    0    0  0.23190885640E+02 -0.10998170229E+02  0.10208550496E+03  0.10526265837E+03  0.00000000000E+00 0. -1.
        -12    1    4    4    0    0 -0.20852595135E+02 -0.31642936824E+02  0.10636239409E+02  0.39360332360E+02  0.00000000000E+00 0.  1.
        -11    1    3    3    0    0  0.32935383874E+02  0.53832428297E+02  0.25945060771E+01  0.63161707616E+02  0.00000000000E+00 0. -1.
         11    1    3    3    0    0 -0.27292952229E+02  0.80532607774E+01 -0.50666876979E+02  0.58111037448E+02  0.00000000000E+00 0.  1.
         21    1    1    2  502  501 -0.79807221499E+01 -0.19244582021E+02  0.45554315049E+01  0.21325989294E+02  0.00000000000E+00 0. -1.
<scales pt_clust_5="13000.00000" pt_clust_6="13000.00000" pt_clust_7="13000.00000" pt_clust_8="13000.00000" pt_clust_9="20.83377"></scales>
<clustering>
<clus scale="   20.834">  2  9  1 -1</clus>
<clus scale="   79.912">  5  6 -1 -1</clus>
<clus scale="   92.059">  1  5  2 -1</clus>
<clus scale="   92.382">  7  8 -1 -1</clus>
<clus scale="   92.059">  1  5  2 -1</clus>
</clustering>
</event>
<event>
 9    1  0.1973774E-005  0.1135777E+03  0.7546771E-02  0.1258673E+00
         -2   -1    0    0    0  501 -0.00000000000E+00  0.00000000000E+00  0.86652487845E+02  0.86652487845E+02  0.00000000000E+00 0.  1.
          1   -1    0    0  502    0  0.00000000000E+00 -0.00000000000E+00 -0.30319844401E+03  0.30319844401E+03  0.00000000000E+00 0. -1.
        -24    2    1    2    0    0  0.75435013014E+01 -0.68020432716E+02  0.29168254574E+02  0.10961052742E+03  0.80498428351E+02 0.  0.
         23    2    1    2    0    0 -0.23090570281E+02  0.48472297784E+02 -0.17507529721E+03  0.20531579542E+03  0.92846529630E+02 0.  0.
         11    1    3    3    0    0 -0.34962577907E+02 -0.18702894586E+02  0.18028378967E+02  0.43556888869E+02  0.00000000000E+00 0. -1.
        -12    1    3    3    0    0  0.42506079208E+02 -0.49317538129E+02  0.11139875607E+02  0.66053638548E+02  0.00000000000E+00 0.  1.
        -13    1    4    4    0    0 -0.23861666813E+02 -0.70861671925E+01 -0.37088424831E+01  0.25166414547E+02  0.00000000000E+00 0.  1.
         13    1    4    4    0    0  0.77109653249E+00  0.55558464976E+02 -0.17136645473E+03  0.18014938087E+03  0.00000000000E+00 0. -1.
         21    1    1    2  502  501  0.15547068979E+02  0.19548134932E+02 -0.70638913524E+02  0.74924609021E+02  0.00000000000E+00 0. -1.
<scales pt_clust_5="13000.00000" pt_clust_6="13000.00000" pt_clust_7="13000.00000" pt_clust_8="13000.00000" pt_clust_9="24.97681"></scales>
<clustering>
<clus scale="   24.977">  2  9  1 -1</clus>
<clus scale="   80.498">  5  6 -1 -1</clus>
<clus scale="   92.847">  7  8 -1 -1</clus>
<clus scale="  103.728">  1  5  2 -1</clus>
<clus scale="   24.977">  2  5  1 -1</clus>
</clustering>
</event>
<event>
 9    1  0.1973774E-005  0.1318545E+03  0.7546771E-02  0.1226261E+00
         -2   -1    0    0    0  501 -0.00000000000E+00  0.00000000000E+00  0.18939875564E+03  0.18939875564E+03  0.00000000000E+00 0.  1.
          1   -1    0    0  502    0  0.00000000000E+00 -0.00000000000E+00 -0.15890085208E+03  0.15890085208E+03  0.00000000000E+00 0. -1.
        -24    2    1    2    0    0 -0.14432103371E+02 -0.92551180450E+02  0.52399780755E+02  0.13467849545E+03  0.81354492830E+02 0.  0.
         23    2    1    2    0    0  0.33221006232E+02  0.99588981634E+02  0.44816036068E+02  0.14395165364E+03  0.87704053377E+02 0.  0.
         11    1    3    3    0    0 -0.48270253389E+02 -0.51897106923E+02  0.25377964484E+02  0.75281924461E+02  0.00000000000E+00 0. -1.
        -12    1    3    3    0    0  0.33838150017E+02 -0.40654073527E+02  0.27021816271E+02  0.59396570991E+02  0.00000000000E+00 0.  1.
        -13    1    4    4    0    0  0.28139426977E+02  0.78783065823E+02 -0.10802225885E+02  0.84352159990E+02  0.00000000000E+00 0. -1.
         13    1    4    4    0    0  0.50815792550E+01  0.20805915811E+02  0.55618261954E+02  0.59599493649E+02  0.00000000000E+00 0.  1.
         21    1    1    2  502  501 -0.18788902860E+02 -0.70378011842E+01 -0.66717913256E+02  0.69669458627E+02  0.00000000000E+00 0. -1.
<scales pt_clust_5="13000.00000" pt_clust_6="13000.00000" pt_clust_7="13000.00000" pt_clust_8="13000.00000" pt_clust_9="20.06374"></scales>
<clustering>
<clus scale="   20.064">  2  9  1 -1</clus>
<clus scale="   81.354">  5  6 -1 -1</clus>
<clus scale="   87.704">  7  8 -1 -1</clus>
<clus scale="  127.719">  1  5  2 -1</clus>
<clus scale="   20.064">  2  5  1 -1</clus>
</clustering>
</event>
<event>
 9    1  0.1973774E-005  0.9282173E+02  0.7546771E-02  0.1302172E+00
         -2   -1    0    0    0  501 -0.00000000000E+00  0.00000000000E+00  0.30885260927E+02  0.30885260927E+02  0.00000000000E+00 0.  1.
          1   -1    0    0  502    0  0.00000000000E+00 -0.00000000000E+00 -0.81653482523E+03  0.81653482523E+03  0.00000000000E+00 0. -1.
        -24    2    1    2    0    0 -0.27431028877E+02  0.57421333692E+01 -0.61935665416E+02  0.10601831497E+03  0.81353690872E+02 0.  0.
         23    2    1    2    0    0 -0.25379123889E+02  0.24830660202E+01 -0.30767857521E+03  0.32194741528E+03  0.91289468259E+02 0.  0.
         13    1    3    3    0    0  0.10978178567E+02 -0.26735804864E+02 -0.43945867375E+02  0.52598126637E+02  0.00000000000E+00 0. -1.
        -14    1    3    3    0    0 -0.38409207444E+02  0.32477938233E+02 -0.17989798040E+02  0.53420188336E+02  0.00000000000E+00 0.  1.
        -11    1    4    4    0    0 -0.16827855692E+02  0.45899983183E+02 -0.13140362815E+03  0.14020306229E+03  0.00000000000E+00 0.  1.
         11    1    4    4    0    0 -0.85512681973E+01 -0.43416917163E+02 -0.17627494706E+03  0.18174435299E+03  0.00000000000E+00 0. -1.
         21    1    1    2  502  501  0.52810152766E+02 -0.82251993894E+01 -0.41603532367E+03  0.41945435590E+03  0.00000000000E+00 0.  1.
<scales pt_clust_5="13000.00000" pt_clust_6="13000.00000" pt_clust_7="13000.00000" pt_clust_8="13000.00000" pt_clust_9="53.44685"></scales>
<clustering>
<clus scale="   53.447">  2  9  1 -1</clus>
<clus scale="   81.354">  5  6 -1 -1</clus>
<clus scale="   83.069">  1  5  2 -1</clus>
<clus scale="   91.289">  7  8 -1 -1</clus>
<clus scale="   53.447">  2  5  1 -1</clus>
</clustering>
</event>
<event>
 9    1  0.1973774E-005  0.1198324E+03  0.7546771E-02  0.1246941E+00
          1   -1    0    0  502    0  0.00000000000E+00  0.00000000000E+00  0.54898782693E+03  0.54898782693E+03  0.00000000000E+00 0. -1.
         -2   -1    0    0    0  501 -0.00000000000E+00 -0.00000000000E+00 -0.39239724735E+02  0.39239724735E+02  0.00000000000E+00 0.  1.
         23    2    1    2    0    0 -0.26082966903E+02  0.66722881952E+02  0.10467251266E+03  0.15601869051E+03  0.90847304537E+02 0.  0.
        -24    2    1    2    0    0  0.38628086707E+02 -0.84750192000E+02  0.28608548824E+03  0.31120882751E+03  0.79569489190E+02 0.  0.
         11    1    4    4    0    0  0.39734980405E+02 -0.75378688450E+02  0.28902560731E+03  0.30132477001E+03  0.00000000000E+00 0. -1.
        -12    1    4    4    0    0 -0.11068936975E+01 -0.93715035505E+01 -0.29401190707E+01  0.98840574970E+01  0.00000000000E+00 0.  1.
        -13    1    3    3    0    0  0.32966444561E+02  0.23085742821E+02  0.23666019250E+02  0.46688525954E+02  0.00000000000E+00 0.  1.
         13    1    3    3    0    0 -0.59049411465E+02  0.43637139131E+02  0.81006493415E+02  0.10933016455E+03  0.00000000000E+00 0. -1.
         21    1    1    2  502  501 -0.12545119804E+02  0.18027310048E+02  0.11899010129E+03  0.12100003365E+03  0.00000000000E+00 0.  1.
<scales pt_clust_5="13000.00000" pt_clust_6="13000.00000" pt_clust_7="13000.00000" pt_clust_8="13000.00000" pt_clust_9="21.96279"></scales>
<clustering>
<clus scale="   21.963">  1  9  2 -1</clus>
<clus scale="   79.569">  5  6 -1 -1</clus>
<clus scale="   90.847">  7  8 -1 -1</clus>
<clus scale="  111.525">  1  5  2 -1</clus>
<clus scale="   21.963">  1  5  2 -1</clus>
</clustering>
</event>
<event>
 9    1  0.1973774E-005  0.2145537E+03  0.7546771E-02  0.1138869E+00
         -2   -1    0    0    0  501 -0.00000000000E+00  0.00000000000E+00  0.15771729391E+03  0.15771729391E+03  0.00000000000E+00 0.  1.
          1   -1    0    0  502    0  0.00000000000E+00 -0.00000000000E+00 -0.64095676468E+03  0.64095676468E+03  0.00000000000E+00 0. -1.
        -24    2    1    2    0    0  0.13827546323E+03  0.13106342763E+03  0.38409268953E+02  0.21085519121E+03  0.81773552734E+02 0.  0.
         23    2    1    2    0    0 -0.15876343016E+03 -0.13440831379E+03 -0.36770433095E+03  0.43248108690E+03  0.92531043194E+02 0.  0.
         11    1    3    3    0    0  0.50434246243E+02  0.52840055932E+02 -0.25030626314E+02  0.77215393275E+02  0.00000000000E+00 0. -1.
        -12    1    3    3    0    0  0.87841216986E+02  0.78223371700E+02  0.63439895267E+02  0.13363979794E+03  0.00000000000E+00 0.  1.
        -13    1    4    4    0    0 -0.43845253346E+02 -0.94846237176E+02 -0.14433518286E+03  0.17818770990E+03  0.00000000000E+00 0.  1.
         13    1    4    4    0    0 -0.11491817681E+03 -0.39562076611E+02 -0.22336914809E+03  0.25429337700E+03  0.00000000000E+00 0. -1.
         21    1    1    2  502  501  0.20487966930E+02  0.33448861557E+01 -0.15394440877E+03  0.15533778048E+03  0.00000000000E+00 0. -1.
<scales pt_clust_5="13000.00000" pt_clust_6="13000.00000" pt_clust_7="13000.00000" pt_clust_8="13000.00000" pt_clust_9="20.75922"></scales>
<clustering>
<clus scale="   20.759">  2  9  1 -1</clus>
<clus scale="   81.774">  5  6 -1 -1</clus>
<clus scale="   92.531">  7  8 -1 -1</clus>
<clus scale="  210.139">  1  5  2 -1</clus>
<clus scale="   20.759">  2  5  1 -1</clus>
</clustering>
</event>
<event>
 9    1  0.1973774E-005  0.1448404E+03  0.7546771E-02  0.1208731E+00
         -2   -1    0    0    0  501 -0.00000000000E+00  0.00000000000E+00  0.40369903640E+03  0.40369903640E+03  0.00000000000E+00 0.  1.
          1   -1    0    0  502    0  0.00000000000E+00 -0.00000000000E+00 -0.98289622892E+02  0.98289622892E+02  0.00000000000E+00 0. -1.
         23    2    1    2    0    0 -0.11412493684E+03  0.26771441883E+02  0.29888902044E+03  0.33358118459E+03  0.90556881914E+02 0.  0.
        -24    2    1    2    0    0  0.10219348283E+03  0.73489535222E+01  0.13094079964E+02  0.13166819958E+03  0.81655035365E+02 0.  0.
         13    1    4    4    0    0  0.68393791553E+02  0.18253506750E+02 -0.29083571395E+02  0.76529441111E+02  0.00000000000E+00 0. -1.
        -14    1    4    4    0    0  0.33799691274E+02 -0.10904553228E+02  0.42177651360E+02  0.55138758469E+02  0.00000000000E+00 0.  1.
        -13    1    3    3    0    0 -0.93905700568E+02  0.19468437333E+02  0.29688486228E+03  0.31199025962E+03  0.00000000000E+00 0.  1.
         13    1    3    3    0    0 -0.20219236271E+02  0.73030045500E+01  0.20041581639E+01  0.21590924963E+02  0.00000000000E+00 0. -1.
         21    1    1    2  502  501  0.11931454011E+02 -0.34120395405E+02 -0.65736868943E+01  0.36739275127E+02  0.00000000000E+00 0.  1.
<scales pt_clust_5="13000.00000" pt_clust_6="13000.00000" pt_clust_7="13000.00000" pt_clust_8="13000.00000" pt_clust_9="36.14638"></scales>
<clustering>
<clus scale="   36.146">  2  9  1 -1</clus>
<clus scale="   81.655">  5  6 -1 -1</clus>
<clus scale="   90.557">  7  8 -1 -1</clus>
<clus scale="  139.448">  2  5  1 -1</clus>
<clus scale="   36.146">  2  5  1 -1</clus>
</clustering>
</event>
<event>
 9    1  0.1973774E-005  0.1115674E+03  0.7546771E-02  0.1258878E+00
          1   -1    0    0  502    0  0.00000000000E+00  0.00000000000E+00  0.13962453262E+03  0.13962453262E+03  0.00000000000E+00 0. -1.
         -2   -1    0    0    0  501 -0.00000000000E+00 -0.00000000000E+00 -0.12968549096E+03  0.12968549096E+03  0.00000000000E+00 0.  1.
         23    2    1    2    0    0  0.72574288093E+02 -0.19261149459E+02 -0.40244842379E+02  0.12387636391E+03  0.89931568584E+02 0.  0.
        -24    2    1    2    0    0 -0.53012212319E+02  0.77020064334E+01  0.14256667789E+02  0.10292420821E+03  0.86720957677E+02 0.  0.
         13    1    4    4    0    0 -0.42312232610E+02  0.42274635488E+02 -0.81411179852E+01  0.60363462758E+02  0.00000000000E+00 0. -1.
        -14    1    4    4    0    0 -0.10699979709E+02 -0.34572629055E+02  0.22397785774E+02  0.42560745448E+02  0.00000000000E+00 0.  1.
        -11    1    3    3    0    0  0.53408942754E+02  0.18063720863E+02 -0.55612110662E+02  0.79192929165E+02  0.00000000000E+00 0.  1.
         11    1    3    3    0    0  0.19165345339E+02 -0.37324870322E+02  0.15367268284E+02  0.44683434750E+02  0.00000000000E+00 0. -1.
         21    1    1    2  502  501 -0.19562075774E+02  0.11559143026E+02  0.35927216251E+02  0.42509451462E+02  0.00000000000E+00 0.  1.
<scales pt_clust_5="13000.00000" pt_clust_6="13000.00000" pt_clust_7="13000.00000" pt_clust_8="13000.00000" pt_clust_9="22.72198"></scales>
<clustering>
<clus scale="   22.722">  1  9  2 -1</clus>
<clus scale="   86.721">  5  6 -1 -1</clus>
<clus scale="   89.932">  7  8 -1 -1</clus>
<clus scale="  108.996">  1  5  2 -1</clus>
<clus scale="   22.722">  1  5  2 -1</clus>
</clustering>
</event>
<event>
 9    1  0.1973774E-005  0.1031652E+03  0.7546771E-02  0.1278467E+00
          1   -1    0    0  502    0  0.00000000000E+00  0.00000000000E+00  0.15303192736E+03  0.15303192736E+03  0.00000000000E+00 0. -1.
         -2   -1    0    0    0  501 -0.00000000000E+00 -0.00000000000E+00 -0.75882070921E+03  0.75882070921E+03  0.00000000000E+00 0.  1.
        -24    2    1    2    0    0  0.49726057400E+02  0.17237574279E+02 -0.70792793699E+03  0.71440649994E+03  0.80279937925E+02 0.  0.
         23    2    1    2    0    0  0.11416713123E+02 -0.14813768474E+02  0.19253884771E+02  0.94420502603E+02  0.90524748871E+02 0.  0.
         11    1    3    3    0    0  0.18462980071E+02  0.21131677535E+02 -0.66150259783E+02  0.71856010868E+02  0.00000000000E+00 0. -1.
        -12    1    3    3    0    0  0.31263077329E+02 -0.38941032564E+01 -0.64177767721E+03  0.64255048908E+03  0.00000000000E+00 0.  1.
        -11    1    4    4    0    0 -0.24258331619E+02  0.53713464448E+00 -0.25476365438E+02  0.35182387106E+02  0.00000000000E+00 0. -1.
         11    1    4    4    0    0  0.35675044742E+02 -0.15350903118E+02  0.44730250209E+02  0.59238115497E+02  0.00000000000E+00 0.  1.
         21    1    1    2  502  501 -0.61142770524E+02 -0.24238058045E+01  0.82885270372E+02  0.10302563403E+03  0.00000000000E+00 0. -1.
<scales pt_clust_5="13000.00000" pt_clust_6="13000.00000" pt_clust_7="13000.00000" pt_clust_8="13000.00000" pt_clust_9="61.19079"></scales>
<clustering>
<clus scale="   61.191">  1  9  2 -1</clus>
<clus scale="   80.280">  5  6 -1 -1</clus>
<clus scale="   90.525">  7  8 -1 -1</clus>
<clus scale="   94.304">  2  5  1 -1</clus>
<clus scale="   61.191">  1  5  2 -1</clus>
</clustering>
</event>
<event>
 9    1  0.1973774E-005  0.1469569E+03  0.7546771E-02  0.1206719E+00
         -2   -1    0    0    0  501 -0.00000000000E+00  0.00000000000E+00  0.89143756244E+02  0.89143756244E+02  0.00000000000E+00 0.  1.
          1   -1    0    0  502    0  0.00000000000E+00 -0.00000000000E+00 -0.43844167594E+03  0.43844167594E+03  0.00000000000E+00 0. -1.
        -24    2    1    2    0    0  0.80971835684E+02 -0.73603796060E+02 -0.16101469400E+02  0.13545266139E+03  0.78193408875E+02 0.  0.
         23    2    1    2    0    0 -0.11381064564E+03  0.74575120885E+02 -0.21968917463E+03  0.27396664816E+03  0.90994940160E+02 0.  0.
         11    1    3    3    0    0  0.34755160559E+02 -0.24463824195E+02 -0.45147975173E+02  0.62005963761E+02  0.00000000000E+00 0. -1.
        -12    1    3    3    0    0  0.46216675125E+02 -0.49139971865E+02  0.29046505773E+02  0.73446697626E+02  0.00000000000E+00 0.  1.
        -13    1    4    4    0    0 -0.11951008784E+03  0.38113527437E+02 -0.15402834800E+03  0.19864549845E+03  0.00000000000E+00 0. -1.
         13    1    4    4    0    0  0.56994421960E+01  0.36461593448E+02 -0.65660826640E+02  0.75321149707E+02  0.00000000000E+00 0.  1.
         21    1    1    2  502  501  0.32838809960E+02 -0.97132482568E+00 -0.11350727566E+03  0.11816612264E+03  0.00000000000E+00 0.  1.
<scales pt_clust_5="13000.00000" pt_clust_6="13000.00000" pt_clust_7="13000.00000" pt_clust_8="13000.00000" pt_clust_9="32.85317"></scales>
<clustering>
<clus scale="   32.853">  2  9  1 -1</clus>
<clus scale="   78.193">  5  6 -1 -1</clus>
<clus scale="   90.995">  7  8 -1 -1</clus>
<clus scale="  139.393">  1  5  2 -1</clus>
<clus scale="   32.853">  2  5  1 -1</clus>
</clustering>
</event>
<event>
 9    1  0.3002143E-005  0.1647281E+03  0.7546771E-02  0.1185095E+00
         -2   -1    0    0    0  501 -0.00000000000E+00  0.00000000000E+00  0.77472731934E+03  0.77472731934E+03  0.00000000000E+00 0.  1.
          1   -1    0    0  502    0  0.00000000000E+00 -0.00000000000E+00 -0.48846183699E+03  0.48846183699E+03  0.00000000000E+00 0. -1.
         23    2    1    2    0    0 -0.10159050823E+03 -0.92856447249E+02  0.73416317027E+03  0.75250557320E+03  0.91247608005E+02 0.  0.
        -24    2    1    2    0    0  0.13537589664E+03  0.24531739034E+02 -0.36422331078E+03  0.39749736659E+03  0.80106783236E+02 0.  0.
         13    1    4    4    0    0  0.11250220059E+03  0.47927266973E+02 -0.24438107360E+03  0.27326887344E+03  0.00000000000E+00 0. -1.
        -14    1    4    4    0    0  0.22873696052E+02 -0.23395527940E+02 -0.11984223718E+03  0.12422849315E+03  0.00000000000E+00 0.  1.
        -11    1    3    3    0    0 -0.75510384498E+02 -0.91283841836E+02  0.69747732729E+03  0.70746673422E+03  0.00000000000E+00 0.  1.
         11    1    3    3    0    0 -0.26080123735E+02 -0.15726054128E+01  0.36685842976E+02  0.45038838980E+02  0.00000000000E+00 0. -1.
         21    1    1    2  502  501 -0.33785388410E+02  0.68324708216E+02 -0.83674377144E+02  0.11318621653E+03  0.00000000000E+00 0. -1.
<scales pt_clust_5="13000.00000" pt_clust_6="13000.00000" pt_clust_7="13000.00000" pt_clust_8="13000.00000" pt_clust_9="76.22151"></scales>
<clustering>
<clus scale="   76.222">  2  9  1 -1</clus>
<clus scale="   80.107">  5  6 -1 -1</clus>
<clus scale="   91.248">  7  8 -1 -1</clus>
<clus scale="  158.828">  2  5  1 -1</clus>
<clus scale="   76.222">  2  5  1 -1</clus>
</clustering>
</event>
<event>
 9    1  0.1973774E-005  0.9588686E+02  0.7546771E-02  0.1295287E+00
          1   -1    0    0  502    0  0.00000000000E+00  0.00000000000E+00  0.11875190037E+03  0.11875190037E+03  0.00000000000E+00 0. -1.
         -2   -1    0    0    0  501 -0.00000000000E+00 -0.00000000000E+00 -0.30234629184E+03  0.30234629184E+03  0.00000000000E+00 0.  1.
         23    2    1    2    0    0  0.28432793972E+02  0.63501654897E+02 -0.22148981013E+03  0.24948408398E+03  0.91343791365E+02 0.  0.
        -24    2    1    2    0    0 -0.59022473365E+01 -0.25325910696E+02  0.75599197177E+02  0.11341971080E+03  0.80452183986E+02 0.  0.
         11    1    4    4    0    0 -0.10101472787E+02 -0.48888054112E+02  0.74220024381E+02  0.89446596394E+02  0.00000000000E+00 0. -1.
        -12    1    4    4    0    0  0.41992254501E+01  0.23562143416E+02  0.13791727957E+01  0.23973114407E+02  0.00000000000E+00 0.  1.
        -13    1    3    3    0    0 -0.22035342169E+01  0.79508466025E+02 -0.14102274060E+03  0.16190696433E+03  0.00000000000E+00 0.  1.
         13    1    3    3    0    0  0.30636328189E+02 -0.16006811128E+02 -0.80467069532E+02  0.87577119652E+02  0.00000000000E+00 0. -1.
         21    1    1    2  502  501 -0.22530546636E+02 -0.38175744201E+02 -0.37703778520E+02  0.58194397426E+02  0.00000000000E+00 0. -1.
<scales pt_clust_5="13000.00000" pt_clust_6="13000.00000" pt_clust_7="13000.00000" pt_clust_8="13000.00000" pt_clust_9="44.32847"></scales>
<clustering>
<clus scale="   44.328">  2  9  1 -1</clus>
<clus scale="   80.452">  5  6 -1 -1</clus>
<clus scale="   85.575">  1  5  2 -1</clus>
<clus scale="   91.344">  7  8 -1 -1</clus>
<clus scale="   85.575">  1  5  2 -1</clus>
</clustering>
</event>
<event>
 9    1  0.4007011E-005  0.9819183E+02  0.7546771E-02  0.1288273E+00
          1   -1    0    0  502    0  0.00000000000E+00  0.00000000000E+00  0.19247569514E+03  0.19247569514E+03  0.00000000000E+00 0. -1.
         -2   -1    0    0    0  501 -0.00000000000E+00 -0.00000000000E+00 -0.26634887098E+03  0.26634887098E+03  0.00000000000E+00 0.  1.
         23    2    1    2    0    0 -0.28211108856E+02 -0.33074839078E+02 -0.23536370516E+03  0.25525355696E+03  0.88704526348E+02 0.  0.
        -24    2    1    2    0    0  0.10665235282E+02  0.15855959503E+02  0.15851790140E+03  0.17880845658E+03  0.80494598499E+02 0.  0.
         13    1    4    4    0    0  0.32456954390E+02  0.20340316300E+00  0.14533288025E+03  0.14891320070E+03  0.00000000000E+00 0. -1.
        -14    1    4    4    0    0 -0.21791719108E+02  0.15652556340E+02  0.13185021143E+02  0.29895255881E+02  0.00000000000E+00 0.  1.
        -11    1    3    3    0    0  0.12999611396E+02  0.21903361196E+02 -0.33946465107E+02  0.42439481870E+02  0.00000000000E+00 0. -1.
         11    1    3    3    0    0 -0.41210720251E+02 -0.54978200273E+02 -0.20141724005E+03  0.21281407509E+03  0.00000000000E+00 0.  1.
         21    1    1    2  502  501  0.17545873573E+02  0.17218879575E+02  0.29726279209E+01  0.24762552575E+02  0.00000000000E+00 0. -1.
<scales pt_clust_5="13000.00000" pt_clust_6="13000.00000" pt_clust_7="13000.00000" pt_clust_8="13000.00000" pt_clust_9="24.58348"></scales>
<clustering>
<clus scale="   24.583">  1  9  2 -1</clus>
<clus scale="   80.495">  5  6 -1 -1</clus>
<clus scale="   88.705">  7  8 -1 -1</clus>
<clus scale="   90.843">  1  5  2 -1</clus>
<clus scale="   24.583">  1  5  2 -1</clus>
</clustering>
</event>
<event>
 9    1  0.1973774E-005  0.1130531E+03  0.7546771E-02  0.1258705E+00
         -2   -1    0    0    0  501 -0.00000000000E+00  0.00000000000E+00  0.13713955027E+03  0.13713955027E+03  0.00000000000E+00 0.  1.
          1   -1    0    0  502    0  0.00000000000E+00 -0.00000000000E+00 -0.10716677590E+03  0.10716677590E+03  0.00000000000E+00 0. -1.
         23    2    1    2    0    0  0.60678880185E+02  0.44637627273E+02  0.31922880279E+02  0.12288014972E+03  0.91684331491E+02 0.  0.
        -24    2    1    2    0    0 -0.50679116861E+02 -0.25627994223E+02  0.23576758783E+01  0.99519136505E+02  0.81690470200E+02 0.  0.
         11    1    4    4    0    0 -0.99352750191E+01 -0.30935448844E+02 -0.32263894911E+02  0.45789415805E+02  0.00000000000E+00 0. -1.
        -12    1    4    4    0    0 -0.40743841842E+02  0.53074546216E+01  0.34621570789E+02  0.53729720700E+02  0.00000000000E+00 0.  1.
        -11    1    3    3    0    0  0.78654611712E+02  0.56295831661E+02  0.30447250193E+02  0.10140415993E+03  0.00000000000E+00 0. -1.
         11    1    3    3    0    0 -0.17975731528E+02 -0.11658204387E+02  0.14756300855E+01  0.21475989794E+02  0.00000000000E+00 0.  1.
         21    1    1    2  502  501 -0.99997633237E+01 -0.19009633051E+02 -0.43077817845E+01  0.21907039945E+02  0.00000000000E+00 0.  1.
<scales pt_clust_5="13000.00000" pt_clust_6="13000.00000" pt_clust_7="13000.00000" pt_clust_8="13000.00000" pt_clust_9="21.47933"></scales>
<clustering>
<clus scale="   21.479">  2  9  1 -1</clus>
<clus scale="   81.690">  5  6 -1 -1</clus>
<clus scale="   91.684">  7  8 -1 -1</clus>
<clus scale="  105.111">  2  5  1 -1</clus>
<clus scale="   21.479">  2  5  1 -1</clus>
</clustering>
</event>
<event>
 9    1  0.1973774E-005  0.9308459E+02  0.7546771E-02  0.1300640E+00
          1   -1    0    0  502    0  0.00000000000E+00  0.00000000000E+00  0.39211395245E+03  0.39211395245E+03  0.00000000000E+00 0. -1.
         -2   -1    0    0    0  501 -0.00000000000E+00 -0.00000000000E+00 -0.86558847317E+02  0.86558847317E+02  0.00000000000E+00 0.  1.
        -24    2    1    2    0    0 -0.45974585701E+01 -0.23548364955E+02 -0.42497358546E+02  0.96293029114E+02  0.83009998525E+02 0.  0.
         23    2    1    2    0    0 -0.11010027508E+02 -0.31726626824E+02  0.17889175047E+03  0.20373412914E+03  0.91528888528E+02 0.  0.
         11    1    3    3    0    0  0.34594485894E+02 -0.15603153499E+02 -0.15350886530E-01  0.37950455716E+02  0.00000000000E+00 0. -1.
        -12    1    3    3    0    0 -0.39191944464E+02 -0.79452114561E+01 -0.42482007659E+02  0.58342573398E+02  0.00000000000E+00 0.  1.
        -13    1    4    4    0    0 -0.45755395674E+02 -0.17928155840E+02  0.52421141871E+02  0.71853678543E+02  0.00000000000E+00 0.  1.
         13    1    4    4    0    0  0.34745368166E+02 -0.13798470984E+02  0.12647060859E+03  0.13188045059E+03  0.00000000000E+00 0. -1.
         21    1    1    2  502  501  0.15607486078E+02  0.55274991779E+02  0.16916071321E+03  0.17864564152E+03  0.00000000000E+00 0. -1.
<scales pt_clust_5="13000.00000" pt_clust_6="13000.00000" pt_clust_7="13000.00000" pt_clust_8="13000.00000" pt_clust_9="57.43621"></scales>
<clustering>
<clus scale="   57.436">  1  9  2 -1</clus>
<clus scale="   83.010">  5  6 -1 -1</clus>
<clus scale="   84.722">  2  5  1 -1</clus>
<clus scale="   91.529">  7  8 -1 -1</clus>
<clus scale="   57.436">  1  5  2 -1</clus>
</clustering>
</event>
<event>
 9    1  0.1973774E-005  0.3464830E+03  0.7546771E-02  0.1089047E+00
          1   -1    0    0  502    0  0.00000000000E+00  0.00000000000E+00  0.50285825471E+03  0.50285825471E+03  0.00000000000E+00 0. -1.
         -2   -1    0    0    0  501 -0.00000000000E+00 -0.00000000000E+00 -0.48846240905E+03  0.48846240905E+03  0.00000000000E+00 0.  1.
         23    2    1    2    0    0 -0.26938050877E+03 -0.15003181313E+03 -0.16603402647E+03  0.36399430318E+03  0.99242890643E+02 0.  0.
        -24    2    1    2    0    0 -0.12774606556E+03  0.90282020365E+02  0.13770006846E+03  0.22346327748E+03  0.80651268198E+02 0.  0.
         13    1    4    4    0    0 -0.96243128744E+02  0.10392442685E+03  0.11221965868E+03  0.18071048149E+03  0.00000000000E+00 0. -1.
        -14    1    4    4    0    0 -0.31502936816E+02 -0.13642406482E+02  0.25480409772E+02  0.42752795988E+02  0.00000000000E+00 0.  1.
        -13    1    3    3    0    0 -0.17593063393E+03 -0.85955950756E+02 -0.50590929037E+02  0.20223613803E+03  0.00000000000E+00 0. -1.
         13    1    3    3    0    0 -0.93449874844E+02 -0.64075862373E+02 -0.11544309743E+03  0.16175816515E+03  0.00000000000E+00 0.  1.
         21    1    1    2  502  501  0.39712657433E+03  0.59749792765E+02  0.42729803670E+02  0.40386308311E+03  0.00000000000E+00 0. -1.
<scales pt_clust_5="13000.00000" pt_clust_6="13000.00000" pt_clust_7="13000.00000" pt_clust_8="13000.00000" pt_clust_9="331.96588"></scales>
<clustering>
<clus scale="   80.651">  5  6 -1 -1</clus>
<clus scale="   99.243">  7  8 -1 -1</clus>
<clus scale="  175.996">  1  5  2 -1</clus>
<clus scale="  331.966">  1  9  2 -1</clus>
<clus scale="  175.996">  1  5  2 -1</clus>
</clustering>
</event>
<event>
 9    1  0.1973774E-005  0.9534130E+02  0.7546771E-02  0.1296921E+00
         -2   -1    0    0    0  501 -0.00000000000E+00  0.00000000000E+00  0.65388699327E+02  0.65388699327E+02  0.00000000000E+00 0.  1.
          1   -1    0    0  502    0  0.00000000000E+00 -0.00000000000E+00 -0.25704659514E+03  0.25704659514E+03  0.00000000000E+00 0. -1.
        -24    2    1    2    0    0 -0.30021530366E+02  0.61726489616E+01  0.13221010961E+02  0.86357690301E+02  0.79645851509E+02 0.  0.
         23    2    1    2    0    0  0.18668121131E+02  0.12957561377E+02 -0.15138428135E+03  0.17814195195E+03  0.91109589288E+02 0.  0.
         13    1    3    3    0    0 -0.25183346996E+02 -0.30240990725E+02  0.26336063385E+02  0.47353001178E+02  0.00000000000E+00 0. -1.
        -14    1    3    3    0    0 -0.48381833700E+01  0.36413639686E+02 -0.13115052424E+02  0.39004689123E+02  0.00000000000E+00 0.  1.
        -11    1    4    4    0    0 -0.29182574100E+02  0.78301634788E+01 -0.15440651782E+02  0.33931516598E+02  0.00000000000E+00 0.  1.
         11    1    4    4    0    0  0.47850695231E+02  0.51273978983E+01 -0.13594362957E+03  0.14421043535E+03  0.00000000000E+00 0. -1.
         21    1    1    2  502  501  0.11353409235E+02 -0.19130210339E+02 -0.53494625421E+02  0.57935652217E+02  0.00000000000E+00 0. -1.
<scales pt_clust_5="13000.00000" pt_clust_6="13000.00000" pt_clust_7="13000.00000" pt_clust_8="13000.00000" pt_clust_9="22.24556"></scales>
<clustering>
<clus scale="   22.246">  2  9  1 -1</clus>
<clus scale="   79.646">  5  6 -1 -1</clus>
<clus scale="   84.454">  1  5  2 -1</clus>
<clus scale="   91.110">  7  8 -1 -1</clus>
<clus scale="   22.246">  2  5  1 -1</clus>
</clustering>
</event>
<event>
 9    1  0.1973774E-005  0.1020800E+03  0.7546771E-02  0.1281239E+00
         -2   -1    0    0    0  501 -0.00000000000E+00  0.00000000000E+00  0.57993793832E+02  0.57993793832E+02  0.00000000000E+00 0.  1.
          1   -1    0    0  502    0  0.00000000000E+00 -0.00000000000E+00 -0.79178521433E+03  0.79178521433E+03  0.00000000000E+00 0. -1.
        -24    2    1    2    0    0 -0.34862492319E+02  0.34015938937E+02 -0.14106043780E+01  0.93488158360E+02  0.79784512760E+02 0.  0.
         23    2    1    2    0    0 -0.30715253188E+02 -0.63515929429E+02 -0.39978432897E+03  0.41600991673E+03  0.90879266404E+02 0.  0.
         11    1    3    3    0    0  0.87642722209E+01  0.31537878156E+02 -0.27364469322E+02  0.42664556805E+02  0.00000000000E+00 0. -1.
        -12    1    3    3    0    0 -0.43626764540E+02  0.24780607815E+01  0.25953864944E+02  0.50823601555E+02  0.00000000000E+00 0.  1.
        -13    1    4    4    0    0  0.22686873988E+02 -0.43564689642E+02 -0.26738851704E+03  0.27186245691E+03  0.00000000000E+00 0. -1.
         13    1    4    4    0    0 -0.53402127176E+02 -0.19951239788E+02 -0.13239581193E+03  0.14414745982E+03  0.00000000000E+00 0.  1.
         21    1    1    2  502  501  0.65577745508E+02  0.29499990492E+02 -0.33259648715E+03  0.34028093307E+03  0.00000000000E+00 0. -1.
<scales pt_clust_5="13000.00000" pt_clust_6="13000.00000" pt_clust_7="13000.00000" pt_clust_8="13000.00000" pt_clust_9="71.90751"></scales>
<clustering>
<clus scale="   71.908">  2  9  1 -1</clus>
<clus scale="   79.785">  5  6 -1 -1</clus>
<clus scale="   90.879">  7  8 -1 -1</clus>
<clus scale="   92.341">  1  5  2 -1</clus>
<clus scale="   71.908">  2  5  1 -1</clus>
</clustering>
</event>
<event>
 9    1  0.1973774E-005  0.1339481E+03  0.7546771E-02  0.1224006E+00
         -2   -1    0    0    0  501 -0.00000000000E+00  0.00000000000E+00  0.27440125449E+03  0.27440125449E+03  0.00000000000E+00 0.  1.
          1   -1    0    0  502    0  0.00000000000E+00 -0.00000000000E+00 -0.41696316889E+03  0.41696316889E+03  0.00000000000E+00 0. -1.
        -24    2    1    2    0    0  0.79804718253E+02  0.51269719973E+02  0.21100942932E+03  0.24501913396E+03  0.80697084828E+02 0.  0.
         23    2    1    2    0    0 -0.10917316477E+03 -0.77906941777E+02 -0.10089970232E+03  0.19058171578E+03  0.90290470019E+02 0.  0.
         11    1    3    3    0    0  0.11870959854E+02  0.54654662741E+02  0.83459904022E+02  0.10046694694E+03  0.00000000000E+00 0. -1.
        -12    1    3    3    0    0  0.67933758400E+02 -0.33849427684E+01  0.12754952530E+03  0.14455218702E+03  0.00000000000E+00 0.  1.
        -11    1    4    4    0    0 -0.73351701529E+02 -0.49431045738E+02 -0.10260523974E+02  0.89045936192E+02  0.00000000000E+00 0.  1.
         11    1    4    4    0    0 -0.35821463242E+02 -0.28475896039E+02 -0.90639178350E+02  0.10153577959E+03  0.00000000000E+00 0. -1.
         21    1    1    2  502  501  0.29368446519E+02  0.26637221804E+02 -0.25267164140E+03  0.25576357365E+03  0.00000000000E+00 0. -1.
<scales pt_clust_5="13000.00000" pt_clust_6="13000.00000" pt_clust_7="13000.00000" pt_clust_8="13000.00000" pt_clust_9="39.64905"></scales>
<clustering>
<clus scale="   39.649">  2  9  1 -1</clus>
<clus scale="   80.697">  5  6 -1 -1</clus>
<clus scale="   90.290">  7  8 -1 -1</clus>
<clus scale="  127.678">  1  5  2 -1</clus>
<clus scale="   39.649">  2  5  1 -1</clus>
</clustering>
</event>
<event>
 9    1  0.1973774E-005  0.1021477E+03  0.7546771E-02  0.1280715E+00
         -4   -1    0    0    0  501 -0.00000000000E+00  0.00000000000E+00  0.16686956805E+03  0.16686956805E+03  0.00000000000E+00 0.  1.
          3   -1    0    0  502    0  0.00000000000E+00 -0.00000000000E+00 -0.10421332874E+03  0.10421332874E+03  0.00000000000E+00 0. -1.
         23    2    1    2    0    0 -0.20330707760E+02  0.45496182860E+02  0.10903393148E+03  0.15066549508E+03  0.91260357551E+02 0.  0.
        -24    2    1    2    0    0 -0.65788740018E-01 -0.35838740449E+02 -0.37274114651E+02  0.96083096973E+02  0.80982604649E+02 0.  0.
         13    1    4    4    0    0 -0.47456652818E+01  0.24386112147E+02  0.48127680715E+00  0.24848248066E+02  0.00000000000E+00 0. -1.
        -14    1    4    4    0    0  0.46798765418E+01 -0.60224852596E+02 -0.37755391459E+02  0.71234848907E+02  0.00000000000E+00 0.  1.
        -11    1    3    3    0    0  0.35097458328E+02  0.57123437657E+01  0.41766649997E+02  0.54853582420E+02  0.00000000000E+00 0. -1.
         11    1    3    3    0    0 -0.55428166089E+02  0.39783839095E+02  0.67267281483E+02  0.95811912658E+02  0.00000000000E+00 0.  1.
         21    1    1    2  502  501  0.20396496500E+02 -0.96574424110E+01 -0.91035775250E+01  0.24334304740E+02  0.00000000000E+00 0. -1.
<scales pt_clust_5="13000.00000" pt_clust_6="13000.00000" pt_clust_7="13000.00000" pt_clust_8="13000.00000" pt_clust_9="22.56731"></scales>
<clustering>
<clus scale="   22.567">  2  9  1 -1</clus>
<clus scale="   80.983">  5  6 -1 -1</clus>
<clus scale="   91.260">  7  8 -1 -1</clus>
<clus scale="   93.080">  2  5  1 -1</clus>
<clus scale="   22.567">  2  5  1 -1</clus>
</clustering>
</event>
<event>
 9    1  0.1973774E-005  0.1525261E+03  0.7546771E-02  0.1199221E+00
          1   -1    0    0  502    0  0.00000000000E+00  0.00000000000E+00  0.62646486324E+03  0.62646486324E+03  0.00000000000E+00 0. -1.
         -2   -1    0    0    0  501 -0.00000000000E+00 -0.00000000000E+00 -0.58323796869E+02  0.58323796869E+02  0.00000000000E+00 0.  1.
         23    2    1    2    0    0 -0.85774723165E+02 -0.80986696991E+02  0.10596790256E+03  0.18307682502E+03  0.91497427626E+02 0.  0.
        -24    2    1    2    0    0  0.79185472976E+02  0.10615417248E+03  0.30388513962E+03  0.34130011905E+03  0.81243742635E+02 0.  0.
         13    1    4    4    0    0  0.49855611085E+01  0.56240363215E+02  0.17903916838E+03  0.18773081283E+03  0.00000000000E+00 0. -1.
        -14    1    4    4    0    0  0.74199911867E+02  0.49913809267E+02  0.12484597124E+03  0.15356930621E+03  0.00000000000E+00 0.  1.
        -11    1    3    3    0    0 -0.13561467373E+00 -0.34904374505E+02  0.72088191663E+02  0.80093951883E+02  0.00000000000E+00 0.  1.
         11    1    3    3    0    0 -0.85639108492E+02 -0.46082322485E+02  0.33879710899E+02  0.10298287314E+03  0.00000000000E+00 0. -1.
         21    1    1    2  502  501  0.65892501893E+01 -0.25167475491E+02  0.15828802420E+03  0.16041171604E+03  0.00000000000E+00 0. -1.
<scales pt_clust_5="13000.00000" pt_clust_6="13000.00000" pt_clust_7="13000.00000" pt_clust_8="13000.00000" pt_clust_9="26.01577"></scales>
<clustering>
<clus scale="   26.016">  1  9  2 -1</clus>
<clus scale="   81.244">  5  6 -1 -1</clus>
<clus scale="   91.497">  7  8 -1 -1</clus>
<clus scale="  146.605">  1  5  2 -1</clus>
<clus scale="   26.016">  1  5  2 -1</clus>
</clustering>
</event>
<event>
 9    1  0.1973774E-005  0.9199326E+02  0.7546771E-02  0.1306581E+00
          3   -1    0    0  502    0  0.00000000000E+00  0.00000000000E+00  0.48867499936E+02  0.48867499936E+02  0.00000000000E+00 0. -1.
         -4   -1    0    0    0  501 -0.00000000000E+00 -0.00000000000E+00 -0.59000499561E+03  0.59000499561E+03  0.00000000000E+00 0.  1.
        -24    2    1    2    0    0 -0.11435892266E+02 -0.49200225970E+01 -0.50227503165E+03  0.50843030219E+03  0.77885675887E+02 0.  0.
         23    2    1    2    0    0  0.53451068955E+01 -0.21187117606E+02 -0.16014246100E+02  0.95218316540E+02  0.91283117861E+02 0.  0.
         13    1    3    3    0    0  0.21906205316E+02 -0.25417172978E+02 -0.13634774276E+03  0.14041588753E+03  0.00000000000E+00 0. -1.
        -14    1    3    3    0    0 -0.33342097583E+02  0.20497150381E+02 -0.36592728888E+03  0.36801441466E+03  0.00000000000E+00 0.  1.
        -11    1    4    4    0    0  0.11712252629E+02 -0.56641835018E+02 -0.98806767869E+01  0.58677952501E+02  0.00000000000E+00 0. -1.
         11    1    4    4    0    0 -0.63671457338E+01  0.35454717412E+02 -0.61335693134E+01  0.36540364039E+02  0.00000000000E+00 0.  1.
         21    1    1    2  502  501  0.60907853710E+01  0.26107140203E+02 -0.22848217928E+02  0.35223876824E+02  0.00000000000E+00 0.  1.
<scales pt_clust_5="13000.00000" pt_clust_6="13000.00000" pt_clust_7="13000.00000" pt_clust_8="13000.00000" pt_clust_9="26.80822"></scales>
<clustering>
<clus scale="   26.808">  1  9  2 -1</clus>
<clus scale="   77.886">  5  6 -1 -1</clus>
<clus scale="   78.717">  2  5  1 -1</clus>
<clus scale="   91.283">  7  8 -1 -1</clus>
<clus scale="   26.808">  1  5  2 -1</clus>
</clustering>
</event>
<event>
 9    1  0.1973774E-005  0.1199828E+03  0.7546771E-02  0.1244747E+00
         -2   -1    0    0    0  501 -0.00000000000E+00  0.00000000000E+00  0.66798344625E+02  0.66798344625E+02  0.00000000000E+00 0.  1.
          1   -1    0    0  502    0  0.00000000000E+00 -0.00000000000E+00 -0.44966249730E+03  0.44966249730E+03  0.00000000000E+00 0. -1.
        -24    2    1    2    0    0  0.10269672638E+01  0.75582543103E+02 -0.22819762905E+02  0.12394076363E+03  0.95534265191E+02 0.  0.
         23    2    1    2    0    0  0.22405963641E+02 -0.63360656375E+02 -0.19433682785E+03  0.22471819260E+03  0.90635883868E+02 0.  0.
         11    1    3    3    0    0 -0.44581381975E+02  0.23849250599E+02  0.21166246523E+01  0.50604016371E+02  0.00000000000E+00 0. -1.
        -12    1    3    3    0    0  0.45608349239E+02  0.51733292504E+02 -0.24936387558E+02  0.73336747255E+02  0.00000000000E+00 0.  1.
        -13    1    4    4    0    0  0.26224472094E+02 -0.83725089562E+02 -0.17757792611E+03  0.19806951659E+03  0.00000000000E+00 0. -1.
         13    1    4    4    0    0 -0.38185084528E+01  0.20364433187E+02 -0.16758901734E+02  0.26648676011E+02  0.00000000000E+00 0.  1.
         21    1    1    2  502  501 -0.23432930905E+02 -0.12221886728E+02 -0.16570756192E+03  0.16780188570E+03  0.00000000000E+00 0. -1.
<scales pt_clust_5="13000.00000" pt_clust_6="13000.00000" pt_clust_7="13000.00000" pt_clust_8="13000.00000" pt_clust_9="26.42871"></scales>
<clustering>
<clus scale="   26.429">  2  9  1 -1</clus>
<clus scale="   90.636">  7  8 -1 -1</clus>
<clus scale="   95.534">  5  6 -1 -1</clus>
<clus scale="  116.120">  2  7  1 -1</clus>
<clus scale="   26.429">  2  5  1 -1</clus>
</clustering>
</event>
<event>
 9    1  0.1973774E-005  0.1051714E+03  0.7546771E-02  0.1270790E+00
          1   -1    0    0  502    0  0.00000000000E+00  0.00000000000E+00  0.29228298553E+03  0.29228298553E+03  0.00000000000E+00 0. -1.
         -2   -1    0    0    0  501 -0.00000000000E+00 -0.00000000000E+00 -0.79320710793E+02  0.79320710793E+02  0.00000000000E+00 0.  1.
        -24    2    1    2    0    0 -0.22919330955E+01 -0.67574256722E+02 -0.84245361334E+01  0.10817316354E+03  0.84017423022E+02 0.  0.
         23    2    1    2    0    0  0.29349976785E+01  0.41469417142E+02  0.97444553984E+02  0.13676736046E+03  0.86495913297E+02 0.  0.
         11    1    3    3    0    0 -0.36483493505E+02 -0.99590495966E+01 -0.15359420136E+02  0.40818375202E+02  0.00000000000E+00 0. -1.
        -12    1    3    3    0    0  0.34191560409E+02 -0.57615207125E+02  0.69348840027E+01  0.67354788334E+02  0.00000000000E+00 0.  1.
        -13    1    4    4    0    0  0.43115288627E+02  0.85639247713E+01  0.41970175072E+02  0.60776348332E+02  0.00000000000E+00 0.  1.
         13    1    4    4    0    0 -0.40180290949E+02  0.32905492371E+02  0.55474378912E+02  0.75991012130E+02  0.00000000000E+00 0. -1.
         21    1    1    2  502  501 -0.64306458300E+00  0.26104839580E+02  0.12394225689E+03  0.12666317233E+03  0.00000000000E+00 0. -1.
<scales pt_clust_5="13000.00000" pt_clust_6="13000.00000" pt_clust_7="13000.00000" pt_clust_8="13000.00000" pt_clust_9="26.11276"></scales>
<clustering>
<clus scale="   26.113">  1  9  2 -1</clus>
<clus scale="   84.017">  5  6 -1 -1</clus>
<clus scale="   86.496">  7  8 -1 -1</clus>
<clus scale="  103.143">  2  5  1 -1</clus>
<clus scale="   26.113">  1  5  2 -1</clus>
</clustering>
</event>
<event>
 9    1  0.1973774E-005  0.2104391E+03  0.7546771E-02  0.1142043E+00
          1   -1    0    0  502    0  0.00000000000E+00  0.00000000000E+00  0.53273437368E+03  0.53273437368E+03  0.00000000000E+00 0. -1.
         -2   -1    0    0    0  501 -0.00000000000E+00 -0.00000000000E+00 -0.12414761488E+03  0.12414761488E+03  0.00000000000E+00 0.  1.
        -24    2    1    2    0    0 -0.77992237252E+02  0.17770699842E+03  0.42442612933E+02  0.21420319864E+03  0.80119089833E+02 0.  0.
         23    2    1    2    0    0  0.10287945605E+03 -0.15902848847E+03  0.34885672948E+03  0.40708222887E+03  0.90225721022E+02 0.  0.
         11    1    3    3    0    0 -0.75995669324E+02  0.15472651291E+03  0.62772671776E+02  0.18345583631E+03  0.00000000000E+00 0. -1.
        -12    1    3    3    0    0 -0.19965679279E+01  0.22980485508E+02 -0.20330058843E+02  0.30747362330E+02  0.00000000000E+00 0.  1.
        -11    1    4    4    0    0  0.57664259923E+02 -0.19730701516E+02  0.13217584210E+03  0.14555040601E+03  0.00000000000E+00 0.  1.
         11    1    4    4    0    0  0.45215196126E+02 -0.13929778696E+03  0.21668088738E+03  0.26153182286E+03  0.00000000000E+00 0. -1.
         21    1    1    2  502  501 -0.24887218797E+02 -0.18678509948E+02  0.17287416381E+02  0.35596561048E+02  0.00000000000E+00 0. -1.
<scales pt_clust_5="13000.00000" pt_clust_6="13000.00000" pt_clust_7="13000.00000" pt_clust_8="13000.00000" pt_clust_9="31.11688"></scales>
<clustering>
<clus scale="   31.117">  2  9  1 -1</clus>
<clus scale="   80.119">  5  6 -1 -1</clus>
<clus scale="   90.226">  7  8 -1 -1</clus>
<clus scale="  206.308">  2  5  1 -1</clus>
<clus scale="  210.439">  1  5  2 -1</clus>
</clustering>
</event>
<event>
 9    1  0.1973774E-005  0.1701452E+03  0.7546771E-02  0.1179254E+00
          3   -1    0    0  502    0  0.00000000000E+00  0.00000000000E+00  0.18633931415E+03  0.18633931415E+03  0.00000000000E+00 0. -1.
         -4   -1    0    0    0  501 -0.00000000000E+00 -0.00000000000E+00 -0.30091463013E+03  0.30091463013E+03  0.00000000000E+00 0.  1.
        -24    2    1    2    0    0  0.32854942840E+02 -0.15363640778E+03 -0.19136692270E+03  0.26034322725E+03  0.80459330152E+02 0.  0.
         23    2    1    2    0    0 -0.58066922619E+02  0.86798883417E+02  0.68396550522E+02  0.15498453573E+03  0.91849357787E+02 0.  0.
         13    1    3    3    0    0  0.47824239337E+01 -0.57400069131E+02 -0.13154708328E+03  0.14360457734E+03  0.00000000000E+00 0. -1.
        -14    1    3    3    0    0  0.28072518906E+02 -0.96236338650E+02 -0.59819839420E+02  0.11673864991E+03  0.00000000000E+00 0.  1.
        -11    1    4    4    0    0  0.19295473964E+02  0.43174162012E+02  0.39411829241E+02  0.61559855954E+02  0.00000000000E+00 0.  1.
         11    1    4    4    0    0 -0.77362396583E+02  0.43624721405E+02  0.28984721281E+02  0.93424679772E+02  0.00000000000E+00 0. -1.
         21    1    1    2  502  501  0.25211979780E+02  0.66837524363E+02  0.83950562023E+01  0.71926181298E+02  0.00000000000E+00 0. -1.
<scales pt_clust_5="13000.00000" pt_clust_6="13000.00000" pt_clust_7="13000.00000" pt_clust_8="13000.00000" pt_clust_9="71.43458"></scales>
<clustering>
<clus scale="   71.435">  1  9  2 -1</clus>
<clus scale="   80.459">  5  6 -1 -1</clus>
<clus scale="   91.849">  7  8 -1 -1</clus>
<clus scale="  164.277">  2  5  1 -1</clus>
<clus scale="   71.435">  1  5  2 -1</clus>
</clustering>
</event>
<event>
 9    1  0.1973774E-005  0.1067748E+03  0.7546771E-02  0.1270541E+00
          3   -1    0    0  502    0  0.00000000000E+00  0.00000000000E+00  0.19508685016E+03  0.19508685016E+03  0.00000000000E+00 0. -1.
         -4   -1    0    0    0  501 -0.00000000000E+00 -0.00000000000E+00 -0.24243965998E+03  0.24243965998E+03  0.00000000000E+00 0.  1.
        -24    2    1    2    0    0  0.39244220809E+02 -0.36632231778E+02 -0.18090326703E+03  0.20536468433E+03  0.81034759683E+02 0.  0.
         23    2    1    2    0    0 -0.62164707573E+02  0.45344038772E+02  0.25500748386E+02  0.12136478673E+03  0.90324916663E+02 0.  0.
         11    1    3    3    0    0  0.84223598537E+01 -0.41938651513E+02 -0.32554101662E+02  0.53754592094E+02  0.00000000000E+00 0. -1.
        -12    1    3    3    0    0  0.30821860956E+02  0.53064197348E+01 -0.14834916536E+03  0.15161009223E+03  0.00000000000E+00 0.  1.
        -13    1    4    4    0    0 -0.66717553584E+02  0.67120929915E+02  0.12141366816E+02  0.95414170735E+02  0.00000000000E+00 0. -1.
         13    1    4    4    0    0  0.45528460108E+01 -0.21776891142E+02  0.13359381571E+02  0.25950615996E+02  0.00000000000E+00 0.  1.
         21    1    1    2  502  501  0.22920486764E+02 -0.87118069943E+01  0.10804970881E+03  0.11079703908E+03  0.00000000000E+00 0.  1.
<scales pt_clust_5="13000.00000" pt_clust_6="13000.00000" pt_clust_7="13000.00000" pt_clust_8="13000.00000" pt_clust_9="24.52028"></scales>
<clustering>
<clus scale="   24.520">  1  9  2 -1</clus>
<clus scale="   81.035">  5  6 -1 -1</clus>
<clus scale="   90.325">  7  8 -1 -1</clus>
<clus scale="   99.040">  2  5  1 -1</clus>
<clus scale="   24.520">  1  5  2 -1</clus>
</clustering>
</event>
<event>
 9    1  0.1973774E-005  0.1239516E+03  0.7546771E-02  0.1243844E+00
         -2   -1    0    0    0  501 -0.00000000000E+00  0.00000000000E+00  0.33031478593E+03  0.33031478593E+03  0.00000000000E+00 0.  1.
          1   -1    0    0  502    0  0.00000000000E+00 -0.00000000000E+00 -0.18939746510E+03  0.18939746510E+03  0.00000000000E+00 0. -1.
         23    2    1    2    0    0  0.31510976185E+02 -0.58145770796E+02  0.26429874604E+03  0.29123462653E+03  0.10290727988E+03 0.  0.
        -24    2    1    2    0    0 -0.27519472157E+02  0.80368340879E+02 -0.16504258095E+02  0.11924162504E+03  0.82035254887E+02 0.  0.
         11    1    4    4    0    0 -0.36039079274E+01  0.53424954612E+02 -0.47604899477E+02  0.71648031249E+02  0.00000000000E+00 0. -1.
        -12    1    4    4    0    0 -0.23915564230E+02  0.26943386267E+02  0.31100641382E+02  0.47593593795E+02  0.00000000000E+00 0.  1.
        -11    1    3    3    0    0  0.50760404865E+02 -0.78514305046E+02  0.21651698598E+03  0.23584045458E+03  0.00000000000E+00 0.  1.
         11    1    3    3    0    0 -0.19249428680E+02  0.20368534250E+02  0.47781760063E+02  0.55394171956E+02  0.00000000000E+00 0. -1.
         21    1    1    2  502  501 -0.39915040284E+01 -0.22222570083E+02 -0.10687716712E+03  0.10923599945E+03  0.00000000000E+00 0. -1.
<scales pt_clust_5="13000.00000" pt_clust_6="13000.00000" pt_clust_7="13000.00000" pt_clust_8="13000.00000" pt_clust_9="22.57819"></scales>
<clustering>
<clus scale="   22.578">  2  9  1 -1</clus>
<clus scale="   82.035">  5  6 -1 -1</clus>
<clus scale="  102.907">  7  8 -1 -1</clus>
<clus scale="  107.256">  2  5  1 -1</clus>
<clus scale="   22.578">  2  5  1 -1</clus>
</clustering>
</event>
<event>
 9    1  0.1973774E-005  0.9722288E+02  0.7546771E-02  0.1306763E+00
          1   -1    0    0  502    0  0.00000000000E+00  0.00000000000E+00  0.11843624452E+03  0.11843624452E+03  0.00000000000E+00 0. -1.
         -2   -1    0    0    0  501 -0.00000000000E+00 -0.00000000000E+00 -0.47370626672E+03  0.47370626672E+03  0.00000000000E+00 0.  1.
         23    2    1    2    0    0  0.28356528200E+02  0.72213664486E+01 -0.44401370432E+03  0.45454534126E+03  0.92774224924E+02 0.  0.
        -24    2    1    2    0    0 -0.32182339582E+02  0.24906591174E+02  0.67307306484E+02  0.98785307172E+02  0.59768069585E+02 0.  0.
         13    1    4    4    0    0  0.10602351457E+02  0.27470180870E+02  0.27486360553E+02  0.40280525194E+02  0.00000000000E+00 0. -1.
        -14    1    4    4    0    0 -0.42784691038E+02 -0.25635896957E+01  0.39820945932E+02  0.58504781978E+02  0.00000000000E+00 0.  1.
        -13    1    3    3    0    0  0.58543336774E+02 -0.86187471062E+01 -0.33932276287E+03  0.34444381615E+03  0.00000000000E+00 0.  1.
         13    1    3    3    0    0 -0.30186808575E+02  0.15840113555E+02 -0.10469094145E+03  0.11010152511E+03  0.00000000000E+00 0. -1.
         21    1    1    2  502  501  0.38258113822E+01 -0.32127957623E+02  0.21436375646E+02  0.38811862807E+02  0.00000000000E+00 0.  1.
<scales pt_clust_5="13000.00000" pt_clust_6="13000.00000" pt_clust_7="13000.00000" pt_clust_8="13000.00000" pt_clust_9="32.35495"></scales>
<clustering>
<clus scale="   32.355">  1  9  2 -1</clus>
<clus scale="   59.768">  5  6 -1 -1</clus>
<clus scale="   66.464">  1  5  2 -1</clus>
<clus scale="   92.774">  7  8 -1 -1</clus>
<clus scale="   32.355">  1  5  2 -1</clus>
</clustering>
</event>
<event>
 9    1  0.1973774E-005  0.9937094E+02  0.7546771E-02  0.1287590E+00
          1   -1    0    0  502    0  0.00000000000E+00  0.00000000000E+00  0.24660745098E+03  0.24660745098E+03  0.00000000000E+00 0. -1.
         -2   -1    0    0    0  501 -0.00000000000E+00 -0.00000000000E+00 -0.75071707032E+02  0.75071707032E+02  0.00000000000E+00 0.  1.
        -24    2    1    2    0    0 -0.24356535105E+02  0.31955241240E+02 -0.20159798107E+02  0.91036507935E+02  0.79163438986E+02 0.  0.
         23    2    1    2    0    0  0.44196997667E+02 -0.15034334103E+02  0.15354183176E+03  0.18442937642E+03  0.90882864067E+02 0.  0.
         13    1    3    3    0    0 -0.42001520210E+02 -0.14657369757E+01 -0.30413436118E+02  0.51877289650E+02  0.00000000000E+00 0. -1.
        -14    1    3    3    0    0  0.17644985105E+02  0.33420978215E+02  0.10253638011E+02  0.39159218285E+02  0.00000000000E+00 0.  1.
        -11    1    4    4    0    0  0.27488303767E+02  0.35915534048E+02  0.47416648299E+02  0.65527635131E+02  0.00000000000E+00 0.  1.
         11    1    4    4    0    0  0.16708693899E+02 -0.50949868151E+02  0.10612518346E+03  0.11890174129E+03  0.00000000000E+00 0. -1.
         21    1    1    2  502  501 -0.19840462561E+02 -0.16920907137E+02  0.38153710291E+02  0.46213273655E+02  0.00000000000E+00 0. -1.
<scales pt_clust_5="13000.00000" pt_clust_6="13000.00000" pt_clust_7="13000.00000" pt_clust_8="13000.00000" pt_clust_9="26.07606"></scales>
<clustering>
<clus scale="   26.076">  1  9  2 -1</clus>
<clus scale="   79.163">  5  6 -1 -1</clus>
<clus scale="   88.779">  2  5  1 -1</clus>
<clus scale="   90.883">  7  8 -1 -1</clus>
<clus scale="   26.076">  1  5  2 -1</clus>
</clustering>
</event>
<event>
 9    1  0.1973774E-005  0.1158916E+03  0.7546771E-02  0.1253116E+00
          1   -1    0    0  502    0  0.00000000000E+00  0.00000000000E+00  0.33636478682E+03  0.33636478682E+03  0.00000000000E+00 0. -1.
         -2   -1    0    0    0  501 -0.00000000000E+00 -0.00000000000E+00 -0.32978332079E+03  0.32978332079E+03  0.00000000000E+00 0.  1.
        -24    2    1    2    0    0  0.62793508679E+02 -0.37929939191E+02 -0.28088126009E+03  0.30145596597E+03  0.81238612301E+02 0.  0.
         23    2    1    2    0    0 -0.56203206146E+01  0.10218810922E+03  0.15251394696E+03  0.20466383525E+03  0.90292767001E+02 0.  0.
         11    1    3    3    0    0 -0.17623510512E+02 -0.20410204009E+02 -0.77230309852E+02  0.81802721900E+02  0.00000000000E+00 0. -1.
        -12    1    3    3    0    0  0.80417019192E+02 -0.17519735182E+02 -0.20365095024E+03  0.21965324407E+03  0.00000000000E+00 0.  1.
        -13    1    4    4    0    0 -0.34333609051E+02  0.34245714619E+02  0.10831423737E+03  0.11867409026E+03  0.00000000000E+00 0. -1.
         13    1    4    4    0    0  0.28713288436E+02  0.67942394599E+02  0.44199709585E+02  0.85989744993E+02  0.00000000000E+00 0.  1.
         21    1    1    2  502  501 -0.57173188065E+02 -0.64258170026E+02  0.13494877917E+03  0.16002830639E+03  0.00000000000E+00 0. -1.
<scales pt_clust_5="13000.00000" pt_clust_6="13000.00000" pt_clust_7="13000.00000" pt_clust_8="13000.00000" pt_clust_9="86.01096"></scales>
<clustering>
<clus scale="   81.239">  5  6 -1 -1</clus>
<clus scale="   86.011">  1  9  2 -1</clus>
<clus scale="   90.293">  7  8 -1 -1</clus>
<clus scale="  108.985">  2  5  1 -1</clus>
<clus scale="   86.011">  1  5  2 -1</clus>
</clustering>
</event>
<event>
 9    1  0.1973774E-005  0.2023407E+03  0.7546771E-02  0.1179740E+00
          1   -1    0    0  502    0  0.00000000000E+00  0.00000000000E+00  0.63027176816E+03  0.63027176816E+03  0.00000000000E+00 0. -1.
         -2   -1    0    0    0  501 -0.00000000000E+00 -0.00000000000E+00 -0.21850210929E+03  0.21850210929E+03  0.00000000000E+00 0.  1.
        -24    2    1    2    0    0  0.45970126440E+01  0.53583640065E+02 -0.13213033926E+03  0.16368380025E+03  0.80259709089E+02 0.  0.
         23    2    1    2    0    0 -0.16033245891E+03  0.67681573011E+02  0.38264615308E+03  0.43021445327E+03  0.91537449318E+02 0.  0.
         11    1    3    3    0    0 -0.35923285426E+02  0.37296430374E+02 -0.58956863174E+02  0.78469216064E+02  0.00000000000E+00 0. -1.
        -12    1    3    3    0    0  0.40520298070E+02  0.16287209691E+02 -0.73173476090E+02  0.85214584187E+02  0.00000000000E+00 0.  1.
        -11    1    4    4    0    0 -0.38480054270E+02  0.40324299077E+02  0.49927364447E+02  0.74829842932E+02  0.00000000000E+00 0.  1.
         11    1    4    4    0    0 -0.12185240464E+03  0.27357273934E+02  0.33271878863E+03  0.35538461033E+03  0.00000000000E+00 0. -1.
         21    1    1    2  502  501  0.15573544627E+03 -0.12126521308E+03  0.16125384506E+03  0.25487562393E+03  0.00000000000E+00 0.  1.
<scales pt_clust_5="13000.00000" pt_clust_6="13000.00000" pt_clust_7="13000.00000" pt_clust_8="13000.00000" pt_clust_9="180.45123"></scales>
<clustering>
<clus scale="   80.260">  5  6 -1 -1</clus>
<clus scale="   91.537">  7  8 -1 -1</clus>
<clus scale="   96.612">  2  5  1 -1</clus>
<clus scale="  180.451">  2  9  1 -1</clus>
<clus scale="  202.341">  1  5  2 -1</clus>
</clustering>
</event>
<event>
 9    1  0.1973774E-005  0.9724051E+02  0.7546771E-02  0.1298155E+00
         -4   -1    0    0    0  501 -0.00000000000E+00  0.00000000000E+00  0.19627334254E+03  0.19627334254E+03  0.00000000000E+00 0.  1.
          3   -1    0    0  502    0  0.00000000000E+00 -0.00000000000E+00 -0.10752639720E+03  0.10752639720E+03  0.00000000000E+00 0. -1.
        -24    2    1    2    0    0 -0.16170815727E+01 -0.48373911805E+01  0.13895855305E+03  0.15747730802E+03  0.73916221286E+02 0.  0.
         23    2    1    2    0    0  0.27338367545E+02 -0.90360899127E+01 -0.60236931646E+02  0.11542639395E+03  0.94157990768E+02 0.  0.
         11    1    3    3    0    0  0.33752560614E+02 -0.11847342389E+02  0.88530373013E+02  0.95484144314E+02  0.00000000000E+00 0. -1.
        -12    1    3    3    0    0 -0.35369642187E+02  0.70099512082E+01  0.50428180042E+02  0.61993163710E+02  0.00000000000E+00 0.  1.
        -11    1    4    4    0    0  0.51092832710E+01 -0.49541927753E+02 -0.43985389790E+02  0.66447136101E+02  0.00000000000E+00 0. -1.
         11    1    4    4    0    0  0.22229084274E+02  0.40505837840E+02 -0.16251541856E+02  0.48979257850E+02  0.00000000000E+00 0.  1.
         21    1    1    2  502  501 -0.25721285973E+02  0.13873481093E+02  0.10025323937E+02  0.30896037768E+02  0.00000000000E+00 0.  1.
<scales pt_clust_5="13000.00000" pt_clust_6="13000.00000" pt_clust_7="13000.00000" pt_clust_8="13000.00000" pt_clust_9="29.22427"></scales>
<clustering>
<clus scale="   29.224">  1  9  2 -1</clus>
<clus scale="   73.916">  5  6 -1 -1</clus>
<clus scale="   77.805">  1  5  2 -1</clus>
<clus scale="   94.158">  7  8 -1 -1</clus>
<clus scale="   97.241">  2  5  1 -1</clus>
</clustering>
</event>
<event>
 9    1  0.1973774E-005  0.1278335E+03  0.7546771E-02  0.1234034E+00
         -2   -1    0    0    0  501 -0.00000000000E+00  0.00000000000E+00  0.25230667969E+03  0.25230667969E+03  0.00000000000E+00 0.  1.
          1   -1    0    0  502    0  0.00000000000E+00 -0.00000000000E+00 -0.10409590323E+03  0.10409590323E+03  0.00000000000E+00 0. -1.
         23    2    1    2    0    0 -0.23717252961E+02 -0.97986835259E+02  0.12690696800E+03  0.18724467804E+03  0.93761735027E+02 0.  0.
        -24    2    1    2    0    0 -0.25263581525E+01  0.72572571668E+02  0.52269450559E+02  0.12126758322E+03  0.81857013345E+02 0.  0.
         13    1    4    4    0    0  0.29962811778E+01  0.57607770781E+02 -0.86175539303E+01  0.58325767813E+02  0.00000000000E+00 0. -1.
        -14    1    4    4    0    0 -0.55226393303E+01  0.14964800887E+02  0.60887004489E+02  0.62941815405E+02  0.00000000000E+00 0.  1.
        -13    1    3    3    0    0 -0.56993919434E+02 -0.52166801788E+02  0.94258905035E+02  0.12187872349E+03  0.00000000000E+00 0.  1.
         13    1    3    3    0    0  0.33276666473E+02 -0.45820033471E+02  0.32648062966E+02  0.65365954550E+02  0.00000000000E+00 0. -1.
         21    1    1    2  502  501  0.26243611113E+02  0.25414263591E+02 -0.30965642099E+02  0.47890321661E+02  0.00000000000E+00 0. -1.
<scales pt_clust_5="13000.00000" pt_clust_6="13000.00000" pt_clust_7="13000.00000" pt_clust_8="13000.00000" pt_clust_9="36.53234"></scales>
<clustering>
<clus scale="   36.532">  2  9  1 -1</clus>
<clus scale="   81.857">  5  6 -1 -1</clus>
<clus scale="   93.762">  7  8 -1 -1</clus>
<clus scale="  119.376">  2  5  1 -1</clus>
<clus scale="   36.532">  2  5  1 -1</clus>
</clustering>
</event>
<event>
 9    1  0.1973774E-005  0.2250743E+03  0.7546771E-02  0.1131084E+00
          1   -1    0    0  502    0  0.00000000000E+00  0.00000000000E+00  0.24966433212E+03  0.24966433212E+03  0.00000000000E+00 0. -1.
         -2   -1    0    0    0  501 -0.00000000000E+00 -0.00000000000E+00 -0.52289932616E+03  0.52289932616E+03  0.00000000000E+00 0.  1.
        -24    2    1    2    0    0 -0.19138426238E+03  0.73427148305E+02 -0.42450154957E+03  0.47829151831E+03  0.80880955151E+02 0.  0.
         23    2    1    2    0    0  0.19656729981E+03 -0.50939222359E+02  0.11558440631E+03  0.25177759370E+03  0.93801353819E+02 0.  0.
         13    1    3    3    0    0 -0.65490605724E+02  0.42042179483E+02 -0.87101396443E+02  0.11680418467E+03  0.00000000000E+00 0. -1.
        -14    1    3    3    0    0 -0.12589365666E+03  0.31384968823E+02 -0.33740015312E+03  0.36148733364E+03  0.00000000000E+00 0.  1.
        -11    1    4    4    0    0  0.65313616011E+02 -0.36410331864E+02 -0.22244561062E+01  0.74809951930E+02  0.00000000000E+00 0.  1.
         11    1    4    4    0    0  0.13125368380E+03 -0.14528890495E+02  0.11780886241E+03  0.17696764177E+03  0.00000000000E+00 0. -1.
         21    1    1    2  502  501 -0.51830374248E+01 -0.22487925946E+02  0.35682149223E+02  0.42494546279E+02  0.00000000000E+00 0.  1.
<scales pt_clust_5="13000.00000" pt_clust_6="13000.00000" pt_clust_7="13000.00000" pt_clust_8="13000.00000" pt_clust_9="23.07749"></scales>
<clustering>
<clus scale="   23.077">  1  9  2 -1</clus>
<clus scale="   80.881">  5  6 -1 -1</clus>
<clus scale="   93.801">  7  8 -1 -1</clus>
<clus scale="  220.003">  2  5  1 -1</clus>
<clus scale="   23.077">  1  5  2 -1</clus>
</clustering>
</event>
<event>
 9    1  0.1973774E-005  0.1031150E+03  0.7546771E-02  0.1277846E+00
         -2   -1    0    0    0  501 -0.00000000000E+00  0.00000000000E+00  0.36822667694E+02  0.36822667694E+02  0.00000000000E+00 0.  1.
          1   -1    0    0  502    0  0.00000000000E+00 -0.00000000000E+00 -0.64681607778E+03  0.64681607778E+03  0.00000000000E+00 0. -1.
         23    2    1    2    0    0 -0.60543716328E+02  0.15586807892E+02 -0.80513776360E+02  0.13522782977E+03  0.88857231517E+02 0.  0.
        -24    2    1    2    0    0  0.11685152394E+02 -0.29654425740E+01 -0.42191882316E+03  0.42960104195E+03  0.79976404467E+02 0.  0.
         11    1    4    4    0    0  0.21601306287E+02 -0.29832324829E+02 -0.10278632287E+03  0.10918613560E+03  0.00000000000E+00 0. -1.
        -12    1    4    4    0    0 -0.99161538931E+01  0.26866882255E+02 -0.31913250029E+03  0.32041490635E+03  0.00000000000E+00 0.  1.
        -11    1    3    3    0    0 -0.27432491481E+02  0.35494128589E+02  0.11627651875E+01  0.44874567141E+02  0.00000000000E+00 0.  1.
         11    1    3    3    0    0 -0.33111224847E+02 -0.19907320697E+02 -0.81676541548E+02  0.90353262627E+02  0.00000000000E+00 0. -1.
         21    1    1    2  502  501  0.48858563934E+02 -0.12621365318E+02 -0.10756081056E+03  0.11880987375E+03  0.00000000000E+00 0. -1.
<scales pt_clust_5="13000.00000" pt_clust_6="13000.00000" pt_clust_7="13000.00000" pt_clust_8="13000.00000" pt_clust_9="50.46244"></scales>
<clustering>
<clus scale="   50.462">  2  9  1 -1</clus>
<clus scale="   79.976">  5  6 -1 -1</clus>
<clus scale="   88.857">  7  8 -1 -1</clus>
<clus scale="   95.568">  2  5  1 -1</clus>
<clus scale="   50.462">  2  5  1 -1</clus>
</clustering>
</event>
<event>
 9    1  0.1973774E-005  0.1017908E+03  0.7546771E-02  0.1280666E+00
         -2   -1    0    0    0  501 -0.00000000000E+00  0.00000000000E+00  0.18339227408E+03  0.18339227408E+03  0.00000000000E+00 0.  1.
          1   -1    0    0  502    0  0.00000000000E+00 -0.00000000000E+00 -0.25570134493E+03  0.25570134493E+03  0.00000000000E+00 0. -1.
         23    2    1    2    0    0  0.47279431091E+02  0.34180098501E+02  0.10295500128E+03  0.14894937202E+03  0.90457500513E+02 0.  0.
        -24    2    1    2    0    0 -0.16499905560E+02 -0.26357669703E+02  0.22113118762E+02  0.90228452048E+02  0.81763132902E+02 0.  0.
         11    1    4    4    0    0 -0.20549897340E+02  0.23864264831E+02  0.24327520897E+02  0.39794845013E+02  0.00000000000E+00 0. -1.
        -12    1    4    4    0    0  0.40499917799E+01 -0.50221934534E+02 -0.22144021358E+01  0.50433607035E+02  0.00000000000E+00 0.  1.
        -13    1    3    3    0    0  0.29542024996E+02 -0.28701618592E+02  0.50467846573E+02  0.65142288020E+02  0.00000000000E+00 0.  1.
         13    1    3    3    0    0  0.17737406094E+02  0.62881717094E+02  0.52487154703E+02  0.83807083999E+02  0.00000000000E+00 0. -1.
         21    1    1    2  502  501 -0.30779525530E+02 -0.78224287982E+01 -0.19737719088E+03  0.19991579494E+03  0.00000000000E+00 0. -1.
<scales pt_clust_5="13000.00000" pt_clust_6="13000.00000" pt_clust_7="13000.00000" pt_clust_8="13000.00000" pt_clust_9="31.75798"></scales>
<clustering>
<clus scale="   31.758">  2  9  1 -1</clus>
<clus scale="   81.763">  5  6 -1 -1</clus>
<clus scale="   90.458">  7  8 -1 -1</clus>
<clus scale="   94.149">  2  5  1 -1</clus>
<clus scale="   31.758">  2  5  1 -1</clus>
</clustering>
</event>
<event>
 9    1  0.1973774E-005  0.1083920E+03  0.7546771E-02  0.1265406E+00
          1   -1    0    0  502    0  0.00000000000E+00  0.00000000000E+00  0.99203317007E+02  0.99203317007E+02  0.00000000000E+00 0. -1.
         -2   -1    0    0    0  501 -0.00000000000E+00 -0.00000000000E+00 -0.21894948807E+03  0.21894948807E+03  0.00000000000E+00 0.  1.
         23    2    1    2    0    0  0.66659716634E+02 -0.27910931715E+01 -0.12409674854E+03  0.16002687677E+03  0.75876809811E+02 0.  0.
        -24    2    1    2    0    0 -0.91844547745E+02 -0.18905050584E+02  0.10281746364E+02  0.12435941921E+03  0.81035356177E+02 0.  0.
         11    1    4    4    0    0 -0.82683130016E+02 -0.29220259121E+02  0.36299342210E+02  0.94910303852E+02  0.00000000000E+00 0. -1.
        -12    1    4    4    0    0 -0.91614177289E+01  0.10315208538E+02 -0.26017595846E+02  0.29449115362E+02  0.00000000000E+00 0.  1.
        -13    1    3    3    0    0 -0.67226213307E+01  0.21109663196E+02 -0.41112367520E+02  0.46701587563E+02  0.00000000000E+00 0.  1.
         13    1    3    3    0    0  0.73382337965E+02 -0.23900756367E+02 -0.82984381019E+02  0.11332528920E+03  0.00000000000E+00 0. -1.
         21    1    1    2  502  501  0.25184831111E+02  0.21696143755E+02 -0.59311688852E+01  0.33766509092E+02  0.00000000000E+00 0.  1.
<scales pt_clust_5="13000.00000" pt_clust_6="13000.00000" pt_clust_7="13000.00000" pt_clust_8="13000.00000" pt_clust_9="33.24152"></scales>
<clustering>
<clus scale="   33.242">  1  9  2 -1</clus>
<clus scale="   75.877">  7  8 -1 -1</clus>
<clus scale="   81.035">  5  6 -1 -1</clus>
<clus scale="  104.592">  2  7  1 -1</clus>
<clus scale="   33.242">  1  5  2 -1</clus>
</clustering>
</event>
<event>
 9    1  0.1973774E-005  0.1026394E+03  0.7546771E-02  0.1279578E+00
          1   -1    0    0  502    0  0.00000000000E+00  0.00000000000E+00  0.28515929305E+03  0.28515929305E+03  0.00000000000E+00 0. -1.
         -2   -1    0    0    0  501 -0.00000000000E+00 -0.00000000000E+00 -0.22784890918E+03  0.22784890918E+03  0.00000000000E+00 0.  1.
        -24    2    1    2    0    0  0.13863951985E+02  0.47570198212E+02 -0.20137027215E+03  0.22202701569E+03  0.79315044399E+02 0.  0.
         23    2    1    2    0    0 -0.34539508934E+02 -0.50790324516E+02  0.18670724285E+03  0.21602773383E+03  0.89642358889E+02 0.  0.
         11    1    3    3    0    0  0.45772729969E+02  0.15864713665E+02 -0.10937277540E+03  0.11962121863E+03  0.00000000000E+00 0. -1.
        -12    1    3    3    0    0 -0.31908777984E+02  0.31705484548E+02 -0.91997496757E+02  0.10240579706E+03  0.00000000000E+00 0.  1.
        -11    1    4    4    0    0 -0.56707271249E+02 -0.51402489827E+02  0.96674449797E+02  0.12330401379E+03  0.00000000000E+00 0.  1.
         11    1    4    4    0    0  0.22167762315E+02  0.61216531082E+00  0.90032793055E+02  0.92723720038E+02  0.00000000000E+00 0. -1.
         21    1    1    2  502  501  0.20675556950E+02  0.32201263036E+01  0.71973413175E+02  0.74953452706E+02  0.00000000000E+00 0. -1.
<scales pt_clust_5="13000.00000" pt_clust_6="13000.00000" pt_clust_7="13000.00000" pt_clust_8="13000.00000" pt_clust_9="20.92481"></scales>
<clustering>
<clus scale="   20.925">  1  9  2 -1</clus>
<clus scale="   79.315">  5  6 -1 -1</clus>
<clus scale="   89.642">  7  8 -1 -1</clus>
<clus scale="   93.755">  2  5  1 -1</clus>
<clus scale="   20.925">  1  5  2 -1</clus>
</clustering>
</event>
<event>
 9    1  0.1973774E-005  0.1642675E+03  0.7546771E-02  0.1185723E+00
         -2   -1    0    0    0  501 -0.00000000000E+00  0.00000000000E+00  0.72919365551E+02  0.72919365551E+02  0.00000000000E+00 0.  1.
          1   -1    0    0  502    0  0.00000000000E+00 -0.00000000000E+00 -0.64949033356E+03  0.64949033356E+03  0.00000000000E+00 0. -1.
         23    2    1    2    0    0  0.82316177753E+02  0.10868237605E+03 -0.71525205969E+02  0.17915620968E+03  0.91614848119E+02 0.  0.
        -24    2    1    2    0    0 -0.51501209527E+02 -0.13062464178E+03 -0.42743963245E+03  0.45691846384E+03  0.79716194045E+02 0.  0.
         13    1    4    4    0    0 -0.26688859935E+02 -0.84118635314E+02 -0.36346605010E+03  0.37402648252E+03  0.00000000000E+00 0. -1.
        -14    1    4    4    0    0 -0.24812349591E+02 -0.46506006465E+02 -0.63973582351E+02  0.82891981328E+02  0.00000000000E+00 0.  1.
        -11    1    3    3    0    0  0.50666345761E+02  0.37831786434E+02 -0.79010325032E+02  0.10119759938E+03  0.00000000000E+00 0. -1.
         11    1    3    3    0    0  0.31649831992E+02  0.70850589615E+02  0.74851190632E+01  0.77958610309E+02  0.00000000000E+00 0.  1.
         21    1    1    2  502  501 -0.30814968226E+02  0.21942265730E+02 -0.77606129596E+02  0.86335025587E+02  0.00000000000E+00 0.  1.
<scales pt_clust_5="13000.00000" pt_clust_6="13000.00000" pt_clust_7="13000.00000" pt_clust_8="13000.00000" pt_clust_9="37.82889"></scales>
<clustering>
<clus scale="   37.829">  2  9  1 -1</clus>
<clus scale="   79.716">  5  6 -1 -1</clus>
<clus scale="   91.615">  7  8 -1 -1</clus>
<clus scale="  157.941">  2  5  1 -1</clus>
<clus scale="   37.829">  2  5  1 -1</clus>
</clustering>
</event>
<event>
 9    1  0.1973774E-005  0.1203707E+03  0.7546771E-02  0.1245201E+00
         -2   -1    0    0    0  501 -0.00000000000E+00  0.00000000000E+00  0.44717749777E+03  0.44717749777E+03  0.00000000000E+00 0.  1.
          1   -1    0    0  502    0  0.00000000000E+00 -0.00000000000E+00 -0.64307616015E+02  0.64307616015E+02  0.00000000000E+00 0. -1.
        -24    2    1    2    0    0  0.62646818201E+02  0.55356630275E+02  0.33790236859E+03  0.35756105390E+03  0.81749105328E+02 0.  0.
         23    2    1    2    0    0 -0.54349737177E+02 -0.26512660057E+02  0.12230768359E+02  0.10951110421E+03  0.90478036981E+02 0.  0.
         11    1    3    3    0    0 -0.10544520859E+02  0.39119649879E+02  0.14651195455E+03  0.15201081131E+03  0.00000000000E+00 0. -1.
        -12    1    3    3    0    0  0.73191339060E+02  0.16236980396E+02  0.19139041403E+03  0.20555024259E+03  0.00000000000E+00 0.  1.
        -13    1    4    4    0    0  0.23558782251E+02 -0.15863294234E+02 -0.54375185010E+01  0.28917588636E+02  0.00000000000E+00 0.  1.
         13    1    4    4    0    0 -0.77908519427E+02 -0.10649365824E+02  0.17668286860E+02  0.80593515573E+02  0.00000000000E+00 0. -1.
         21    1    1    2  502  501 -0.82970810241E+01 -0.28843970217E+02  0.32736744808E+02  0.44412955678E+02  0.00000000000E+00 0.  1.
<scales pt_clust_5="13000.00000" pt_clust_6="13000.00000" pt_clust_7="13000.00000" pt_clust_8="13000.00000" pt_clust_9="30.01360"></scales>
<clustering>
<clus scale="   30.014">  2  9  1 -1</clus>
<clus scale="   81.749">  5  6 -1 -1</clus>
<clus scale="   90.478">  7  8 -1 -1</clus>
<clus scale="  113.955">  1  5  2 -1</clus>
<clus scale="   30.014">  2  5  1 -1</clus>
</clustering>
</event>
<event>
 9    1  0.1973774E-005  0.3124388E+03  0.7546771E-02  0.1128034E+00
         -2   -1    0    0    0  501 -0.00000000000E+00  0.00000000000E+00  0.91799129684E+02  0.91799129684E+02  0.00000000000E+00 0.  1.
          1   -1    0    0  502    0  0.00000000000E+00 -0.00000000000E+00 -0.25519139760E+04  0.25519139760E+04  0.00000000000E+00 0. -1.
        -24    2    1    2    0    0  0.15462636683E+02  0.36522159800E+02 -0.87705103774E+02  0.12470304634E+03  0.79282427108E+02 0.  0.
         23    2    1    2    0    0  0.23649636819E+03  0.13475453939E+03 -0.26605144693E+03  0.39073274722E+03  0.88314151098E+02 0.  0.
         13    1    3    3    0    0  0.38516110436E+02 -0.58020386364E+01 -0.50727477467E+02  0.63956480404E+02  0.00000000000E+00 0. -1.
        -14    1    3    3    0    0 -0.23053473754E+02  0.42324198436E+02 -0.36977626307E+02  0.60746565933E+02  0.00000000000E+00 0.  1.
        -13    1    4    4    0    0  0.12848456988E+02  0.27105827839E+02 -0.48090934655E+01  0.30379863887E+02  0.00000000000E+00 0. -1.
         13    1    4    4    0    0  0.22364791120E+03  0.10764871155E+03 -0.26124235347E+03  0.36035288333E+03  0.00000000000E+00 0.  1.
         21    1    1    2  502  501 -0.25195900487E+03 -0.17127669919E+03 -0.21063582956E+04  0.21282773121E+04  0.00000000000E+00 0. -1.
<scales pt_clust_5="13000.00000" pt_clust_6="13000.00000" pt_clust_7="13000.00000" pt_clust_8="13000.00000" pt_clust_9="299.69759"></scales>
<clustering>
<clus scale="   79.282">  5  6 -1 -1</clus>
<clus scale="   88.314">  7  8 -1 -1</clus>
<clus scale="   88.649">  1  5  2 -1</clus>
<clus scale="  299.698">  2  9  1 -1</clus>
<clus scale="  299.698">  2  5  1 -1</clus>
</clustering>
</event>
<event>
 9    1  0.1973774E-005  0.1651542E+03  0.7546771E-02  0.1184688E+00
          1   -1    0    0  502    0  0.00000000000E+00  0.00000000000E+00  0.12615673588E+04  0.12615673588E+04  0.00000000000E+00 0. -1.
         -2   -1    0    0    0  501 -0.00000000000E+00 -0.00000000000E+00 -0.61344083364E+02  0.61344083364E+02  0.00000000000E+00 0.  1.
         23    2    1    2    0    0 -0.12708571808E+02 -0.14109500300E+03  0.82304282143E+02  0.18679272369E+03  0.89711867092E+02 0.  0.
        -24    2    1    2    0    0  0.50686079191E+02  0.11220202028E+03  0.96478305258E+03  0.97572011543E+03  0.77878322709E+02 0.  0.
         13    1    4    4    0    0  0.48480099373E+01  0.94361975487E+02  0.55358585869E+03  0.56159147835E+03  0.00000000000E+00 0. -1.
        -14    1    4    4    0    0  0.45838069253E+02  0.17840044796E+02  0.41119719389E+03  0.41412863708E+03  0.00000000000E+00 0.  1.
        -11    1    3    3    0    0  0.15833391290E+02 -0.49961285403E+02 -0.10697835800E+02  0.53490840428E+02  0.00000000000E+00 0.  1.
         11    1    3    3    0    0 -0.28541963098E+02 -0.91133717595E+02  0.93002117943E+02  0.13330188327E+03  0.00000000000E+00 0. -1.
         21    1    1    2  502  501 -0.37977507382E+02  0.28892982716E+02  0.15313594077E+03  0.16039860309E+03  0.00000000000E+00 0. -1.
<scales pt_clust_5="13000.00000" pt_clust_6="13000.00000" pt_clust_7="13000.00000" pt_clust_8="13000.00000" pt_clust_9="47.71892"></scales>
<clustering>
<clus scale="   47.719">  1  9  2 -1</clus>
<clus scale="   77.878">  5  6 -1 -1</clus>
<clus scale="   89.712">  7  8 -1 -1</clus>
<clus scale="  159.037">  1  5  2 -1</clus>
<clus scale="   47.719">  1  5  2 -1</clus>
</clustering>
</event>
<event>
 9    1  0.1973774E-005  0.1025041E+03  0.7546771E-02  0.1282020E+00
          1   -1    0    0  502    0  0.00000000000E+00  0.00000000000E+00  0.63291960291E+02  0.63291960291E+02  0.00000000000E+00 0. -1.
         -2   -1    0    0    0  501 -0.00000000000E+00 -0.00000000000E+00 -0.52015148379E+03  0.52015148379E+03  0.00000000000E+00 0.  1.
        -24    2    1    2    0    0 -0.37136296444E+02  0.68425979880E+01 -0.38950960761E+03  0.39931556842E+03  0.79430869963E+02 0.  0.
         23    2    1    2    0    0  0.82023206842E+02 -0.82977845052E+01 -0.37389546293E+02  0.13014106209E+03  0.93498974226E+02 0.  0.
         11    1    3    3    0    0  0.16572180620E+02  0.25950843662E+02 -0.14802630217E+03  0.15119480676E+03  0.00000000000E+00 0. -1.
        -12    1    3    3    0    0 -0.53708477065E+02 -0.19108245674E+02 -0.24148330544E+03  0.24812076166E+03  0.00000000000E+00 0.  1.
        -11    1    4    4    0    0  0.14570889492E+02  0.39063812727E+02 -0.18343786132E+02  0.45549827387E+02  0.00000000000E+00 0.  1.
         11    1    4    4    0    0  0.67452317350E+02 -0.47361597232E+02 -0.19045760161E+02  0.84591234702E+02  0.00000000000E+00 0. -1.
         21    1    1    2  502  501 -0.44886910397E+02  0.14551865172E+01 -0.29960369589E+02  0.53986813564E+02  0.00000000000E+00 0.  1.
<scales pt_clust_5="13000.00000" pt_clust_6="13000.00000" pt_clust_7="13000.00000" pt_clust_8="13000.00000" pt_clust_9="44.91049"></scales>
<clustering>
<clus scale="   44.910">  1  9  2 -1</clus>
<clus scale="   79.431">  5  6 -1 -1</clus>
<clus scale="   89.857">  2  5  1 -1</clus>
<clus scale="   93.499">  7  8 -1 -1</clus>
<clus scale="   44.910">  1  5  2 -1</clus>
</clustering>
</event>
<event>
 9    1  0.1973774E-005  0.9047552E+02  0.7546771E-02  0.1308763E+00
          1   -1    0    0  502    0  0.00000000000E+00  0.00000000000E+00  0.64563705657E+02  0.64563705657E+02  0.00000000000E+00 0. -1.
         -2   -1    0    0    0  501 -0.00000000000E+00 -0.00000000000E+00 -0.29152513396E+03  0.29152513396E+03  0.00000000000E+00 0.  1.
        -24    2    1    2    0    0 -0.46118696787E+02 -0.27862189534E+02 -0.18172308132E+03  0.20735336783E+03  0.84076780778E+02 0.  0.
         23    2    1    2    0    0 -0.12428305911E+02 -0.58407916858E+01 -0.16273727725E+02  0.75233147761E+02  0.72156875435E+02 0.  0.
         11    1    3    3    0    0 -0.51173469717E+02 -0.35901292779E+02 -0.64770187696E+02  0.90015576654E+02  0.00000000000E+00 0. -1.
        -12    1    3    3    0    0  0.50547729299E+01  0.80391032459E+01 -0.11695289363E+03  0.11733779118E+03  0.00000000000E+00 0.  1.
        -11    1    4    4    0    0 -0.63060574485E+01  0.33255282654E+02 -0.64039585587E+01  0.34448379790E+02  0.00000000000E+00 0.  1.
         11    1    4    4    0    0 -0.61222484626E+01 -0.39096074340E+02 -0.98697691660E+01  0.40784767970E+02  0.00000000000E+00 0. -1.
         21    1    1    2  502  501  0.58547002699E+02  0.33702981219E+02 -0.28964619250E+02  0.73502324020E+02  0.00000000000E+00 0. -1.
<scales pt_clust_5="13000.00000" pt_clust_6="13000.00000" pt_clust_7="13000.00000" pt_clust_8="13000.00000" pt_clust_9="67.55474"></scales>
<clustering>
<clus scale="   67.555">  1  9  2 -1</clus>
<clus scale="   72.157">  7  8 -1 -1</clus>
<clus scale="   79.521">  1  7  2 -1</clus>
<clus scale="   84.077">  5  6 -1 -1</clus>
<clus scale="   67.555">  1  5  2 -1</clus>
</clustering>
</event>
<event>
 9    1  0.1973774E-005  0.1006229E+03  0.7546771E-02  0.1284573E+00
         -2   -1    0    0    0  501 -0.00000000000E+00  0.00000000000E+00  0.18247021632E+03  0.18247021632E+03  0.00000000000E+00 0.  1.
          1   -1    0    0  502    0  0.00000000000E+00 -0.00000000000E+00 -0.15093101424E+03  0.15093101424E+03  0.00000000000E+00 0. -1.
        -24    2    1    2    0    0  0.33570232647E+02 -0.43933422792E+02  0.10241947103E+03  0.14172050592E+03  0.80856957608E+02 0.  0.
         23    2    1    2    0    0 -0.25447208160E+02 -0.27189878943E+02 -0.14040630167E+02  0.10027365646E+03  0.92037041264E+02 0.  0.
         13    1    3    3    0    0 -0.62907814747E+01 -0.40689903719E+02  0.12055188827E+02  0.42901862126E+02  0.00000000000E+00 0. -1.
        -14    1    3    3    0    0  0.39861014122E+02 -0.32435190722E+01  0.90364282203E+02  0.98818643792E+02  0.00000000000E+00 0.  1.
        -13    1    4    4    0    0  0.27057597861E+02 -0.34917409507E+02 -0.16478106360E+02  0.47147291311E+02  0.00000000000E+00 0.  1.
         13    1    4    4    0    0 -0.52504806021E+02  0.77275305643E+01  0.24374761938E+01  0.53126365151E+02  0.00000000000E+00 0. -1.
         21    1    1    2  502  501 -0.81230244871E+01  0.71123301734E+02 -0.56839638788E+02  0.91407068184E+02  0.00000000000E+00 0. -1.
<scales pt_clust_5="13000.00000" pt_clust_6="13000.00000" pt_clust_7="13000.00000" pt_clust_8="13000.00000" pt_clust_9="71.58567"></scales>
<clustering>
<clus scale="   71.586">  2  9  1 -1</clus>
<clus scale="   80.857">  5  6 -1 -1</clus>
<clus scale="   90.510">  1  5  2 -1</clus>
<clus scale="   92.037">  7  8 -1 -1</clus>
<clus scale="   71.586">  2  5  1 -1</clus>
</clustering>
</event>
<event>
 9    1  0.1973774E-005  0.1646431E+03  0.7546771E-02  0.1185438E+00
         -2   -1    0    0    0  501 -0.00000000000E+00  0.00000000000E+00  0.16920690836E+03  0.16920690836E+03  0.00000000000E+00 0.  1.
          1   -1    0    0  502    0  0.00000000000E+00 -0.00000000000E+00 -0.37042818761E+03  0.37042818761E+03  0.00000000000E+00 0. -1.
        -24    2    1    2    0    0  0.94300717731E+02  0.90881537561E+02  0.86089546423E+02  0.17631440596E+03  0.80766828033E+02 0.  0.
         23    2    1    2    0    0 -0.11048570438E+03 -0.11995839196E+03 -0.22944706377E+03  0.29657016794E+03  0.93331681470E+02 0.  0.
         11    1    3    3    0    0  0.41670979792E+02  0.19407464330E+02  0.73463585169E+02  0.86660363341E+02  0.00000000000E+00 0. -1.
        -12    1    3    3    0    0  0.52629737939E+02  0.71474073231E+02  0.12625961255E+02  0.89654042615E+02  0.00000000000E+00 0.  1.
        -13    1    4    4    0    0 -0.70897147421E+02 -0.83770256542E+02 -0.21441316818E+03  0.24086690948E+03  0.00000000000E+00 0.  1.
         13    1    4    4    0    0 -0.39588556956E+02 -0.36188135419E+02 -0.15033895598E+02  0.55703258467E+02  0.00000000000E+00 0. -1.
         21    1    1    2  502  501  0.16184986647E+02  0.29076854401E+02 -0.57863761898E+02  0.66750522062E+02  0.00000000000E+00 0. -1.
<scales pt_clust_5="13000.00000" pt_clust_6="13000.00000" pt_clust_7="13000.00000" pt_clust_8="13000.00000" pt_clust_9="33.27788"></scales>
<clustering>
<clus scale="   33.278">  2  9  1 -1</clus>
<clus scale="   80.767">  5  6 -1 -1</clus>
<clus scale="   93.332">  7  8 -1 -1</clus>
<clus scale="  157.860">  1  5  2 -1</clus>
<clus scale="   33.278">  2  5  1 -1</clus>
</clustering>
</event>
<event>
 9    1  0.1973774E-005  0.1375227E+03  0.7546771E-02  0.1219211E+00
          1   -1    0    0  502    0  0.00000000000E+00  0.00000000000E+00  0.15364447569E+03  0.15364447569E+03  0.00000000000E+00 0. -1.
         -2   -1    0    0    0  501 -0.00000000000E+00 -0.00000000000E+00 -0.46128803358E+03  0.46128803358E+03  0.00000000000E+00 0.  1.
        -24    2    1    2    0    0  0.71768948166E+02 -0.82493215229E+02 -0.38370951679E+03  0.40708881361E+03  0.80823241746E+02 0.  0.
         23    2    1    2    0    0 -0.15452475674E+01  0.51225842404E+02  0.78044956071E+02  0.13094809658E+03  0.91814563719E+02 0.  0.
         11    1    3    3    0    0  0.61892195132E+02 -0.21598188272E+02 -0.12523059225E+03  0.14135001518E+03  0.00000000000E+00 0. -1.
        -12    1    3    3    0    0  0.98767530335E+01 -0.60895026956E+02 -0.25847892454E+03  0.26573879843E+03  0.00000000000E+00 0.  1.
        -11    1    4    4    0    0 -0.40587792977E+02  0.31598652486E+02  0.13811558018E+02  0.53259768236E+02  0.00000000000E+00 0.  1.
         11    1    4    4    0    0  0.39042545410E+02  0.19627189918E+02  0.64233398053E+02  0.77688328349E+02  0.00000000000E+00 0. -1.
         21    1    1    2  502  501 -0.70223700599E+02  0.31267372825E+02 -0.19789971681E+01  0.76895599087E+02  0.00000000000E+00 0. -1.
<scales pt_clust_5="13000.00000" pt_clust_6="13000.00000" pt_clust_7="13000.00000" pt_clust_8="13000.00000" pt_clust_9="76.87013"></scales>
<clustering>
<clus scale="   76.870">  1  9  2 -1</clus>
<clus scale="   80.823">  5  6 -1 -1</clus>
<clus scale="   91.815">  7  8 -1 -1</clus>
<clus scale="  130.441">  2  5  1 -1</clus>
<clus scale="   76.870">  1  5  2 -1</clus>
</clustering>
</event>
<event>
 9    1  0.1973774E-005  0.1798217E+03  0.7546771E-02  0.1169442E+00
          1   -1    0    0  502    0  0.00000000000E+00  0.00000000000E+00  0.57148636344E+03  0.57148636344E+03  0.00000000000E+00 0. -1.
         -2   -1    0    0    0  501 -0.00000000000E+00 -0.00000000000E+00 -0.20046958819E+03  0.20046958819E+03  0.00000000000E+00 0.  1.
         23    2    1    2    0    0 -0.15242425426E+03 -0.59453182840E+02 -0.11666308707E+03  0.22104094025E+03  0.92092275151E+02 0.  0.
        -24    2    1    2    0    0  0.54896143588E+02  0.95317087263E+02  0.36862537957E+03  0.39288994414E+03  0.79868041399E+02 0.  0.
         11    1    4    4    0    0 -0.11205043975E+02  0.57857638487E+02  0.18524173042E+03  0.19439022103E+03  0.00000000000E+00 0. -1.
        -12    1    4    4    0    0  0.66101187563E+02  0.37459448776E+02  0.18338364914E+03  0.19849972311E+03  0.00000000000E+00 0.  1.
        -11    1    3    3    0    0 -0.14082035567E+03 -0.78731151811E+02 -0.85461167138E+02  0.18257211705E+03  0.00000000000E+00 0.  1.
         11    1    3    3    0    0 -0.11603898590E+02  0.19277968971E+02 -0.31201919937E+02  0.38468823193E+02  0.00000000000E+00 0. -1.
         21    1    1    2  502  501  0.97528110673E+02 -0.35863904423E+02  0.11905448276E+03  0.15802506724E+03  0.00000000000E+00 0. -1.
<scales pt_clust_5="13000.00000" pt_clust_6="13000.00000" pt_clust_7="13000.00000" pt_clust_8="13000.00000" pt_clust_9="103.91319"></scales>
<clustering>
<clus scale="   79.868">  5  6 -1 -1</clus>
<clus scale="   92.092">  7  8 -1 -1</clus>
<clus scale="  103.913">  1  9  2 -1</clus>
<clus scale="  173.879">  1  5  2 -1</clus>
<clus scale="  103.913">  1  5  2 -1</clus>
</clustering>
</event>
<event>
 9    1  0.1973774E-005  0.2300222E+03  0.7546771E-02  0.1127163E+00
          1   -1    0    0  502    0  0.00000000000E+00  0.00000000000E+00  0.16583524077E+03  0.16583524077E+03  0.00000000000E+00 0. -1.
         -2   -1    0    0    0  501 -0.00000000000E+00 -0.00000000000E+00 -0.98301649980E+03  0.98301649980E+03  0.00000000000E+00 0.  1.
         23    2    1    2    0    0 -0.16730952153E+03  0.22565885297E+03 -0.69897868142E+03  0.75869552052E+03  0.90184820579E+02 0.  0.
        -24    2    1    2    0    0  0.73666498417E+02 -0.11729007731E+03 -0.17343041089E+03  0.23665403477E+03  0.82117656595E+02 0.  0.
         13    1    4    4    0    0  0.45547242734E+02 -0.43630429397E+02 -0.23597113623E+02  0.67342330383E+02  0.00000000000E+00 0. -1.
        -14    1    4    4    0    0  0.28119255684E+02 -0.73659647915E+02 -0.14983329727E+03  0.16931170439E+03  0.00000000000E+00 0.  1.
        -13    1    3    3    0    0 -0.63617903147E+01  0.33241879370E+02 -0.16887195334E+03  0.17223017025E+03  0.00000000000E+00 0.  1.
         13    1    3    3    0    0 -0.16094773122E+03  0.19241697360E+03 -0.53010672808E+03  0.58646535027E+03  0.00000000000E+00 0. -1.
         21    1    1    2  502  501  0.93643023115E+02 -0.10836877566E+03  0.55227833283E+02  0.15350218528E+03  0.00000000000E+00 0. -1.
<scales pt_clust_5="13000.00000" pt_clust_6="13000.00000" pt_clust_7="13000.00000" pt_clust_8="13000.00000" pt_clust_9="143.22293"></scales>
<clustering>
<clus scale="   82.118">  5  6 -1 -1</clus>
<clus scale="   90.185">  7  8 -1 -1</clus>
<clus scale="  143.223">  1  9  2 -1</clus>
<clus scale="  226.981">  1  5  2 -1</clus>
<clus scale="  143.223">  1  5  2 -1</clus>
</clustering>
</event>
<event>
 9    1  0.1973774E-005  0.1429073E+03  0.7546771E-02  0.1212414E+00
         -2   -1    0    0    0  501 -0.00000000000E+00  0.00000000000E+00  0.79512925323E+03  0.79512925323E+03  0.00000000000E+00 0.  1.
          1   -1    0    0  502    0  0.00000000000E+00 -0.00000000000E+00 -0.13225109883E+03  0.13225109883E+03  0.00000000000E+00 0. -1.
        -24    2    1    2    0    0 -0.80477340046E+02 -0.70529635583E+02  0.63292522025E+03  0.64672448151E+03  0.78785714440E+02 0.  0.
         23    2    1    2    0    0  0.75814518810E+02  0.91288587989E+02  0.11718435578E+03  0.19086724696E+03  0.92826101723E+02 0.  0.
         11    1    3    3    0    0 -0.24134085029E+02 -0.72200399381E+02  0.38783090522E+03  0.39523178361E+03  0.00000000000E+00 0. -1.
        -12    1    3    3    0    0 -0.56343255018E+02  0.16707637979E+01  0.24509431503E+03  0.25149269790E+03  0.00000000000E+00 0.  1.
        -13    1    4    4    0    0  0.16817745010E+02  0.90076443730E+02  0.69887236591E+02  0.11524247525E+03  0.00000000000E+00 0. -1.
         13    1    4    4    0    0  0.58996773801E+02  0.12121442588E+01  0.47297119193E+02  0.75624771712E+02  0.00000000000E+00 0.  1.
         21    1    1    2  502  501  0.46628212362E+01 -0.20758952406E+02 -0.87231421632E+02  0.89788623593E+02  0.00000000000E+00 0. -1.
<scales pt_clust_5="13000.00000" pt_clust_6="13000.00000" pt_clust_7="13000.00000" pt_clust_8="13000.00000" pt_clust_9="21.27618"></scales>
<clustering>
<clus scale="   21.276">  2  9  1 -1</clus>
<clus scale="   78.786">  5  6 -1 -1</clus>
<clus scale="   92.826">  7  8 -1 -1</clus>
<clus scale="  134.213">  1  5  2 -1</clus>
<clus scale="   21.276">  2  5  1 -1</clus>
</clustering>
</event>
<event>
 9    1  0.1973774E-005  0.1306562E+03  0.7546771E-02  0.1230332E+00
          1   -1    0    0  502    0  0.00000000000E+00  0.00000000000E+00  0.69878886376E+03  0.69878886376E+03  0.00000000000E+00 0. -1.
         -2   -1    0    0    0  501 -0.00000000000E+00 -0.00000000000E+00 -0.56232311338E+02  0.56232311338E+02  0.00000000000E+00 0.  1.
        -24    2    1    2    0    0 -0.89279936997E+02  0.35372751158E+02  0.35517146052E+02  0.12733424755E+03  0.75699433680E+02 0.  0.
         23    2    1    2    0    0  0.63551343481E+02 -0.57332459737E+02  0.50498000535E+03  0.52016804242E+03  0.90797589982E+02 0.  0.
         11    1    3    3    0    0 -0.27475058157E+02  0.30002840867E+02  0.49163874567E+02  0.63813288924E+02  0.00000000000E+00 0. -1.
        -12    1    3    3    0    0 -0.61804878840E+02  0.53699102909E+01 -0.13646728515E+02  0.63520958621E+02  0.00000000000E+00 0.  1.
        -11    1    4    4    0    0 -0.34364783512E+01 -0.52804798499E+02  0.15438313563E+03  0.16320021047E+03  0.00000000000E+00 0.  1.
         11    1    4    4    0    0  0.66987821832E+02 -0.45276612379E+01  0.35059686972E+03  0.35696783195E+03  0.00000000000E+00 0. -1.
         21    1    1    2  502  501  0.25728593517E+02  0.21959708579E+02  0.10205940101E+03  0.10751888513E+03  0.00000000000E+00 0.  1.
<scales pt_clust_5="13000.00000" pt_clust_6="13000.00000" pt_clust_7="13000.00000" pt_clust_8="13000.00000" pt_clust_9="33.82587"></scales>
<clustering>
<clus scale="   33.826">  1  9  2 -1</clus>
<clus scale="   75.699">  5  6 -1 -1</clus>
<clus scale="   90.798">  7  8 -1 -1</clus>
<clus scale="  120.653">  2  5  1 -1</clus>
<clus scale="   33.826">  1  5  2 -1</clus>
</clustering>
</event>
<event>
 9    1  0.1973774E-005  0.9077152E+02  0.7546771E-02  0.1302754E+00
         -4   -1    0    0    0  501 -0.00000000000E+00  0.00000000000E+00  0.19388025019E+03  0.19388025019E+03  0.00000000000E+00 0.  1.
          3   -1    0    0  502    0  0.00000000000E+00 -0.00000000000E+00 -0.41185511963E+03  0.41185511963E+03  0.00000000000E+00 0. -1.
        -24    2    1    2    0    0  0.88567930849E+01 -0.11879697248E+02  0.16962128290E+03  0.19108371897E+03  0.86729683803E+02 0.  0.
         23    2    1    2    0    0 -0.27787644011E+02 -0.20110781231E+02 -0.18242467561E+03  0.20614001402E+03  0.89656825881E+02 0.  0.
         11    1    3    3    0    0  0.32227240374E+02  0.27350293665E+02  0.84889330015E+02  0.94830543266E+02  0.00000000000E+00 0. -1.
        -12    1    3    3    0    0 -0.23370447289E+02 -0.39229990913E+02  0.84731952889E+02  0.96253175709E+02  0.00000000000E+00 0.  1.
        -13    1    4    4    0    0 -0.34772540095E+02  0.25355345688E+02 -0.50087673265E+02  0.66036339335E+02  0.00000000000E+00 0. -1.
         13    1    4    4    0    0  0.69848960846E+01 -0.45466126919E+02 -0.13233700235E+03  0.14010367468E+03  0.00000000000E+00 0.  1.
         21    1    1    2  502  501  0.18930850926E+02  0.31990478479E+02 -0.20517147673E+03  0.20851163683E+03  0.00000000000E+00 0. -1.
<scales pt_clust_5="13000.00000" pt_clust_6="13000.00000" pt_clust_7="13000.00000" pt_clust_8="13000.00000" pt_clust_9="37.17214"></scales>
<clustering>
<clus scale="   37.172">  2  9  1 -1</clus>
<clus scale="   86.730">  5  6 -1 -1</clus>
<clus scale="   87.882">  1  5  2 -1</clus>
<clus scale="   89.657">  7  8 -1 -1</clus>
<clus scale="   37.172">  2  5  1 -1</clus>
</clustering>
</event>
<event>
 9    1  0.1973774E-005  0.1015191E+03  0.7546771E-02  0.1281984E+00
         -4   -1    0    0    0  501 -0.00000000000E+00  0.00000000000E+00  0.33701342868E+03  0.33701342868E+03  0.00000000000E+00 0.  1.
          3   -1    0    0  502    0  0.00000000000E+00 -0.00000000000E+00 -0.95932190711E+02  0.95932190711E+02  0.00000000000E+00 0. -1.
        -24    2    1    2    0    0 -0.21724657082E+02 -0.41822050341E+02  0.26893329760E+03  0.28449973411E+03  0.79962088088E+02 0.  0.
         23    2    1    2    0    0  0.20940521901E+01  0.47458071368E+02  0.13020286928E+02  0.10275481292E+03  0.90179654656E+02 0.  0.
         13    1    3    3    0    0 -0.12988398392E+02 -0.30105848256E+02  0.27980625277E+02  0.43104245532E+02  0.00000000000E+00 0. -1.
        -14    1    3    3    0    0 -0.87362586903E+01 -0.11716202086E+02  0.24095267232E+03  0.24139548858E+03  0.00000000000E+00 0.  1.
        -11    1    4    4    0    0 -0.90970405680E+01  0.70313481625E+02 -0.57511536677E+01  0.71132394967E+02  0.00000000000E+00 0.  1.
         11    1    4    4    0    0  0.11191092758E+02 -0.22855410257E+02  0.18771440595E+02  0.31622417952E+02  0.00000000000E+00 0. -1.
         21    1    1    2  502  501  0.19630604892E+02 -0.56360210267E+01 -0.40872346551E+02  0.45691072367E+02  0.00000000000E+00 0. -1.
<scales pt_clust_5="13000.00000" pt_clust_6="13000.00000" pt_clust_7="13000.00000" pt_clust_8="13000.00000" pt_clust_9="20.42365"></scales>
<clustering>
<clus scale="   20.424">  2  9  1 -1</clus>
<clus scale="   79.962">  5  6 -1 -1</clus>
<clus scale="   90.180">  7  8 -1 -1</clus>
<clus scale="   92.562">  1  5  2 -1</clus>
<clus scale="   20.424">  2  5  1 -1</clus>
</clustering>
</event>
<event>
 9    1  0.1973774E-005  0.9836894E+02  0.7546771E-02  0.1289228E+00
         -2   -1    0    0    0  501 -0.00000000000E+00  0.00000000000E+00  0.29926859882E+03  0.29926859882E+03  0.00000000000E+00 0.  1.
          1   -1    0    0  502    0  0.00000000000E+00 -0.00000000000E+00 -0.41033121231E+02  0.41033121231E+02  0.00000000000E+00 0. -1.
        -24    2    1    2    0    0  0.28757083514E+02  0.25237605011E+02  0.12450364649E+03  0.15273768317E+03  0.79773023710E+02 0.  0.
         23    2    1    2    0    0 -0.10578647567E+02 -0.42545601315E+02  0.12635023872E+03  0.16140089151E+03  0.90353909608E+02 0.  0.
         13    1    3    3    0    0 -0.18414691976E+02  0.33623903855E+02  0.72608144709E+02  0.82107310692E+02  0.00000000000E+00 0. -1.
        -14    1    3    3    0    0  0.47171775490E+02 -0.83862988444E+01  0.51895501779E+02  0.70630372476E+02  0.00000000000E+00 0.  1.
        -13    1    4    4    0    0 -0.24723283002E+02 -0.58308367900E+00  0.11222915602E+03  0.11492155660E+03  0.00000000000E+00 0.  1.
         13    1    4    4    0    0  0.14144635435E+02 -0.41962517636E+02  0.14121082698E+02  0.46479334919E+02  0.00000000000E+00 0. -1.
         21    1    1    2  502  501 -0.18178435947E+02  0.17307996304E+02  0.73815923838E+01  0.26163145370E+02  0.00000000000E+00 0. -1.
<scales pt_clust_5="13000.00000" pt_clust_6="13000.00000" pt_clust_7="13000.00000" pt_clust_8="13000.00000" pt_clust_9="25.10024"></scales>
<clustering>
<clus scale="   25.100">  2  9  1 -1</clus>
<clus scale="   79.773">  5  6 -1 -1</clus>
<clus scale="   88.749">  1  5  2 -1</clus>
<clus scale="   90.354">  7  8 -1 -1</clus>
<clus scale="   25.100">  2  5  1 -1</clus>
</clustering>
</event>
<event>
 9    1  0.1973774E-005  0.9993334E+02  0.7546771E-02  0.1284635E+00
         -2   -1    0    0    0  501 -0.00000000000E+00  0.00000000000E+00  0.13955483733E+03  0.13955483733E+03  0.00000000000E+00 0.  1.
          1   -1    0    0  502    0  0.00000000000E+00 -0.00000000000E+00 -0.19344916353E+03  0.19344916353E+03  0.00000000000E+00 0. -1.
        -24    2    1    2    0    0 -0.29568161675E+02  0.36038482086E+02  0.10198231893E+03  0.13842516359E+03  0.81167014017E+02 0.  0.
         23    2    1    2    0    0  0.14436062456E+02 -0.20135510013E+02 -0.11313455117E+03  0.14652915940E+03  0.89763741137E+02 0.  0.
         11    1    3    3    0    0  0.21931978755E+02  0.27093507715E+02  0.67008503661E+02  0.75532836670E+02  0.00000000000E+00 0. -1.
        -12    1    3    3    0    0 -0.51500140431E+02  0.89449743712E+01  0.34973815267E+02  0.62892326919E+02  0.00000000000E+00 0.  1.
        -11    1    4    4    0    0 -0.63274377911E+01 -0.53224065685E+02 -0.72518746460E+02  0.90176528128E+02  0.00000000000E+00 0.  1.
         11    1    4    4    0    0  0.20763500247E+02  0.33088555671E+02 -0.40615804710E+02  0.56352631271E+02  0.00000000000E+00 0. -1.
         21    1    1    2  502  501  0.15132099219E+02 -0.15902972073E+02 -0.42742093959E+02  0.48049677871E+02  0.00000000000E+00 0. -1.
<scales pt_clust_5="13000.00000" pt_clust_6="13000.00000" pt_clust_7="13000.00000" pt_clust_8="13000.00000" pt_clust_9="21.95188"></scales>
<clustering>
<clus scale="   21.952">  2  9  1 -1</clus>
<clus scale="   81.167">  5  6 -1 -1</clus>
<clus scale="   89.764">  7  8 -1 -1</clus>
<clus scale="   92.289">  1  5  2 -1</clus>
<clus scale="   21.952">  2  5  1 -1</clus>
</clustering>
</event>
<event>
 9    1  0.1973774E-005  0.9651735E+02  0.7546771E-02  0.1292487E+00
         -2   -1    0    0    0  501 -0.00000000000E+00  0.00000000000E+00  0.98168183272E+03  0.98168183272E+03  0.00000000000E+00 0.  1.
          1   -1    0    0  502    0  0.00000000000E+00 -0.00000000000E+00 -0.24587330796E+02  0.24587330796E+02  0.00000000000E+00 0. -1.
        -24    2    1    2    0    0  0.13065412751E+02  0.29402519059E+02  0.72636162398E+03  0.73170437114E+03  0.82187984670E+02 0.  0.
         23    2    1    2    0    0 -0.36512414289E+02 -0.18712510479E+02  0.22776097970E+03  0.24862504790E+03  0.90862732313E+02 0.  0.
         11    1    3    3    0    0  0.28715168992E+02 -0.36712436335E+00  0.90349700259E+02  0.94803818739E+02  0.00000000000E+00 0. -1.
        -12    1    3    3    0    0 -0.15649756241E+02  0.29769643422E+02  0.63601192372E+03  0.63690055240E+03  0.00000000000E+00 0.  1.
        -13    1    4    4    0    0  0.14935897430E+02  0.26857388996E+02  0.62658384446E+02  0.69788777874E+02  0.00000000000E+00 0.  1.
         13    1    4    4    0    0 -0.51448311719E+02 -0.45569899476E+02  0.16510259525E+03  0.17883627002E+03  0.00000000000E+00 0. -1.
         21    1    1    2  502  501  0.23447001538E+02 -0.10690008579E+02  0.29718982550E+01  0.25939744482E+02  0.00000000000E+00 0.  1.
<scales pt_clust_5="13000.00000" pt_clust_6="13000.00000" pt_clust_7="13000.00000" pt_clust_8="13000.00000" pt_clust_9="25.76894"></scales>
<clustering>
<clus scale="   25.769">  2  9  1 -1</clus>
<clus scale="   82.188">  5  6 -1 -1</clus>
<clus scale="   88.399">  1  5  2 -1</clus>
<clus scale="   90.863">  7  8 -1 -1</clus>
<clus scale="   25.769">  2  5  1 -1</clus>
</clustering>
</event>
<event>
 9    1  0.1973774E-005  0.1546316E+03  0.7546771E-02  0.1196248E+00
          1   -1    0    0  502    0  0.00000000000E+00  0.00000000000E+00  0.77915917058E+03  0.77915917058E+03  0.00000000000E+00 0. -1.
         -2   -1    0    0    0  501 -0.00000000000E+00 -0.00000000000E+00 -0.10580450294E+03  0.10580450294E+03  0.00000000000E+00 0.  1.
        -24    2    1    2    0    0 -0.12280657269E+03  0.11462262372E+02 -0.21081778709E+02  0.14852960306E+03  0.80023520539E+02 0.  0.
         23    2    1    2    0    0  0.16503934307E+03 -0.39917397734E+01  0.64180489990E+03  0.66854080655E+03  0.88200690119E+02 0.  0.
         13    1    3    3    0    0 -0.25352722227E+02 -0.18489540722E+02 -0.33408984116E+02  0.45834308767E+02  0.00000000000E+00 0. -1.
        -14    1    3    3    0    0 -0.97453850458E+02  0.29951803095E+02  0.12327205407E+02  0.10269529430E+03  0.00000000000E+00 0.  1.
        -13    1    4    4    0    0  0.40380468045E+01 -0.23511507560E+02  0.10995716467E+03  0.11251522062E+03  0.00000000000E+00 0.  1.
         13    1    4    4    0    0  0.16100129627E+03  0.19519767787E+02  0.53184773523E+03  0.55602558592E+03  0.00000000000E+00 0. -1.
         21    1    1    2  502  501 -0.42232770387E+02 -0.74705225989E+01  0.52631546448E+02  0.67893263907E+02  0.00000000000E+00 0.  1.
<scales pt_clust_5="13000.00000" pt_clust_6="13000.00000" pt_clust_7="13000.00000" pt_clust_8="13000.00000" pt_clust_9="42.88841"></scales>
<clustering>
<clus scale="   42.888">  1  9  2 -1</clus>
<clus scale="   80.024">  5  6 -1 -1</clus>
<clus scale="   88.201">  7  8 -1 -1</clus>
<clus scale="  150.118">  2  5  1 -1</clus>
<clus scale="   42.888">  1  5  2 -1</clus>
</clustering>
</event>
<event>
 9    1  0.1973774E-005  0.1622731E+03  0.7546771E-02  0.1187835E+00
         -4   -1    0    0    0  501 -0.00000000000E+00  0.00000000000E+00  0.27035358723E+03  0.27035358723E+03  0.00000000000E+00 0.  1.
          3   -1    0    0  502    0  0.00000000000E+00 -0.00000000000E+00 -0.16915286593E+03  0.16915286593E+03  0.00000000000E+00 0. -1.
         23    2    1    2    0    0  0.14622343767E+03 -0.41155185326E+02  0.16724293556E+03  0.24331715227E+03  0.90321614753E+02 0.  0.
        -24    2    1    2    0    0 -0.93899146083E+02  0.98145173836E+01 -0.51243008499E+02  0.13342716702E+03  0.79142836651E+02 0.  0.
         13    1    4    4    0    0 -0.60954965368E+02 -0.11706008666E+01 -0.70911771382E+02  0.93516615796E+02  0.00000000000E+00 0. -1.
        -14    1    4    4    0    0 -0.32944180715E+02  0.10985118250E+02  0.19668762882E+02  0.39910551227E+02  0.00000000000E+00 0.  1.
        -13    1    3    3    0    0  0.71040742866E+02 -0.64869408438E+02  0.10847702423E+03  0.14498997235E+03  0.00000000000E+00 0.  1.
         13    1    3    3    0    0  0.75182694803E+02  0.23714223112E+02  0.58765911332E+02  0.98327179916E+02  0.00000000000E+00 0. -1.
         21    1    1    2  502  501 -0.52324291585E+02  0.31340667942E+02 -0.14799205757E+02  0.62762133871E+02  0.00000000000E+00 0.  1.
<scales pt_clust_5="13000.00000" pt_clust_6="13000.00000" pt_clust_7="13000.00000" pt_clust_8="13000.00000" pt_clust_9="60.99237"></scales>
<clustering>
<clus scale="   60.992">  2  9  1 -1</clus>
<clus scale="   79.143">  5  6 -1 -1</clus>
<clus scale="   90.322">  7  8 -1 -1</clus>
<clus scale="  156.327">  2  5  1 -1</clus>
<clus scale="   60.992">  2  5  1 -1</clus>
</clustering>
</event>
<event>
 9    1  0.1973774E-005  0.1062940E+03  0.7546771E-02  0.1271211E+00
          3   -1    0    0  502    0  0.00000000000E+00  0.00000000000E+00  0.18655436540E+03  0.18655436540E+03  0.00000000000E+00 0. -1.
         -4   -1    0    0    0  501 -0.00000000000E+00 -0.00000000000E+00 -0.89315921155E+02  0.89315921155E+02  0.00000000000E+00 0.  1.
        -24    2    1    2    0    0 -0.22907799762E+01 -0.52503848048E+02 -0.19699176004E+02  0.99654173395E+02  0.82346797188E+02 0.  0.
         23    2    1    2    0    0 -0.14820590729E+02  0.62954349974E+02  0.95204899839E+02  0.14664715757E+03  0.90876376363E+02 0.  0.
         11    1    3    3    0    0  0.23211711496E+02 -0.33652313735E+02  0.22658002264E+02  0.46740205786E+02  0.00000000000E+00 0. -1.
        -12    1    3    3    0    0 -0.25502491472E+02 -0.18851534314E+02 -0.42357178269E+02  0.52913967609E+02  0.00000000000E+00 0.  1.
        -11    1    4    4    0    0 -0.17423199562E+02  0.84856299004E+02  0.61004274853E+02  0.10595131389E+03  0.00000000000E+00 0. -1.
         11    1    4    4    0    0  0.26026088326E+01 -0.21901949030E+02  0.34200624985E+02  0.40695843688E+02  0.00000000000E+00 0.  1.
         21    1    1    2  502  501  0.17111370705E+02 -0.10450501925E+02  0.21732720406E+02  0.29568955581E+02  0.00000000000E+00 0. -1.
<scales pt_clust_5="13000.00000" pt_clust_6="13000.00000" pt_clust_7="13000.00000" pt_clust_8="13000.00000" pt_clust_9="20.05024"></scales>
<clustering>
<clus scale="   20.050">  1  9  2 -1</clus>
<clus scale="   82.347">  5  6 -1 -1</clus>
<clus scale="   90.876">  7  8 -1 -1</clus>
<clus scale="   99.100">  2  5  1 -1</clus>
<clus scale="   20.050">  1  5  2 -1</clus>
</clustering>
</event>
<event>
 9    1  0.1973774E-005  0.9436026E+02  0.7546771E-02  0.1296865E+00
          1   -1    0    0  502    0  0.00000000000E+00  0.00000000000E+00  0.92741851367E+02  0.92741851367E+02  0.00000000000E+00 0. -1.
         -2   -1    0    0    0  501 -0.00000000000E+00 -0.00000000000E+00 -0.16353187940E+03  0.16353187940E+03  0.00000000000E+00 0.  1.
        -24    2    1    2    0    0 -0.24096605133E+02 -0.25854745084E+02 -0.51597831988E+02  0.10472534088E+03  0.83999681751E+02 0.  0.
         23    2    1    2    0    0 -0.77154840895E+01  0.22108092484E+02  0.24391985631E+02  0.97459321501E+02  0.91405984139E+02 0.  0.
         13    1    3    3    0    0 -0.40869098437E+02  0.17160324244E+02 -0.31460144320E+02  0.54355318193E+02  0.00000000000E+00 0. -1.
        -14    1    3    3    0    0  0.16772493304E+02 -0.43015069328E+02 -0.20137687668E+02  0.50370022687E+02  0.00000000000E+00 0.  1.
        -11    1    4    4    0    0 -0.41697353417E+02 -0.13825844264E+02  0.18448361870E+02  0.47646251765E+02  0.00000000000E+00 0. -1.
         11    1    4    4    0    0  0.33981869328E+02  0.35933936747E+02  0.59436237615E+01  0.49813069736E+02  0.00000000000E+00 0.  1.
         21    1    1    2  502  501  0.31812089222E+02  0.37466526001E+01 -0.43584181676E+02  0.54089068385E+02  0.00000000000E+00 0.  1.
<scales pt_clust_5="13000.00000" pt_clust_6="13000.00000" pt_clust_7="13000.00000" pt_clust_8="13000.00000" pt_clust_9="32.03196"></scales>
<clustering>
<clus scale="   32.032">  2  9  1 -1</clus>
<clus scale="   84.000">  5  6 -1 -1</clus>
<clus scale="   87.205">  2  5  1 -1</clus>
<clus scale="   91.406">  7  8 -1 -1</clus>
<clus scale="   94.360">  1  5  2 -1</clus>
</clustering>
</event>
<event>
 9    1  0.1973774E-005  0.1215371E+03  0.7546771E-02  0.1245510E+00
         -2   -1    0    0    0  501 -0.00000000000E+00  0.00000000000E+00  0.13168089606E+03  0.13168089606E+03  0.00000000000E+00 0.  1.
          1   -1    0    0  502    0  0.00000000000E+00 -0.00000000000E+00 -0.14089126267E+03  0.14089126267E+03  0.00000000000E+00 0. -1.
        -24    2    1    2    0    0 -0.59053886344E+02 -0.57677739652E+02  0.37827759814E+02  0.12089574116E+03  0.79817026222E+02 0.  0.
         23    2    1    2    0    0  0.37920996625E+02  0.52975194167E+02 -0.19890360666E+02  0.11695302275E+03  0.95068448507E+02 0.  0.
         13    1    3    3    0    0 -0.56234404230E+02 -0.51445054004E+02 -0.60800100515E+01  0.76458278314E+02  0.00000000000E+00 0. -1.
        -14    1    3    3    0    0 -0.28194821138E+01 -0.62326856486E+01  0.43907769866E+02  0.44437462848E+02  0.00000000000E+00 0.  1.
        -13    1    4    4    0    0  0.65587943362E+02  0.37320632374E+02 -0.33260017547E+02  0.82467185489E+02  0.00000000000E+00 0. -1.
         13    1    4    4    0    0 -0.27666946737E+02  0.15654561793E+02  0.13369656881E+02  0.34485837264E+02  0.00000000000E+00 0.  1.
         21    1    1    2  502  501  0.21132889719E+02  0.47025454853E+01 -0.27147765758E+02  0.34723394816E+02  0.00000000000E+00 0.  1.
<scales pt_clust_5="13000.00000" pt_clust_6="13000.00000" pt_clust_7="13000.00000" pt_clust_8="13000.00000" pt_clust_9="21.64978"></scales>
<clustering>
<clus scale="   21.650">  2  9  1 -1</clus>
<clus scale="   79.817">  5  6 -1 -1</clus>
<clus scale="   95.068">  7  8 -1 -1</clus>
<clus scale="  110.018">  1  5  2 -1</clus>
<clus scale="   21.650">  2  5  1 -1</clus>
</clustering>
</event>
<event>
 9    1  0.1973774E-005  0.9202852E+02  0.7546771E-02  0.1305006E+00
         -2   -1    0    0    0  501 -0.00000000000E+00  0.00000000000E+00  0.58227993219E+02  0.58227993219E+02  0.00000000000E+00 0.  1.
          1   -1    0    0  502    0  0.00000000000E+00 -0.00000000000E+00 -0.44165630329E+03  0.44165630329E+03  0.00000000000E+00 0. -1.
        -24    2    1    2    0    0  0.45883296699E+01  0.57367867430E+01  0.12398703368E+02  0.81563334305E+02  0.80280048371E+02 0.  0.
         23    2    1    2    0    0 -0.10262390725E+02 -0.38317394293E+02 -0.32874523456E+03  0.34353021401E+03  0.91466055598E+02 0.  0.
         13    1    3    3    0    0  0.42477725955E+02  0.18691384431E+01  0.58883508786E+01  0.42924626462E+02  0.00000000000E+00 0. -1.
        -14    1    3    3    0    0 -0.37889396285E+02  0.38676482999E+01  0.65103524898E+01  0.38638707843E+02  0.00000000000E+00 0.  1.
        -11    1    4    4    0    0 -0.39429381576E+02 -0.51797681606E+02 -0.25322748271E+03  0.26146096066E+03  0.00000000000E+00 0. -1.
         11    1    4    4    0    0  0.29166990851E+02  0.13480287313E+02 -0.75517751849E+02  0.82069253351E+02  0.00000000000E+00 0.  1.
         21    1    1    2  502  501  0.56740610552E+01  0.32580607550E+02 -0.67081778886E+02  0.74790748196E+02  0.00000000000E+00 0.  1.
<scales pt_clust_5="13000.00000" pt_clust_6="13000.00000" pt_clust_7="13000.00000" pt_clust_8="13000.00000" pt_clust_9="33.07100"></scales>
<clustering>
<clus scale="   33.071">  2  9  1 -1</clus>
<clus scale="   80.280">  5  6 -1 -1</clus>
<clus scale="   80.920">  1  5  2 -1</clus>
<clus scale="   91.466">  7  8 -1 -1</clus>
<clus scale="   33.071">  2  5  1 -1</clus>
</clustering>
</event>
<event>
 9    1  0.1973774E-005  0.2254894E+03  0.7546771E-02  0.1130494E+00
         -2   -1    0    0    0  501 -0.00000000000E+00  0.00000000000E+00  0.16222432566E+03  0.16222432566E+03  0.00000000000E+00 0.  1.
          1   -1    0    0  502    0  0.00000000000E+00 -0.00000000000E+00 -0.52026240499E+03  0.52026240499E+03  0.00000000000E+00 0. -1.
        -24    2    1    2    0    0  0.14889638322E+03 -0.15652682429E+03  0.19138831038E+02  0.23230543437E+03  0.83239055298E+02 0.  0.
         23    2    1    2    0    0 -0.10357761765E+03  0.13956382155E+03 -0.31506220052E+03  0.37144267072E+03  0.92190478180E+02 0.  0.
         13    1    3    3    0    0  0.92598946516E+02 -0.90752216330E+02 -0.29544350618E+02  0.13297893938E+03  0.00000000000E+00 0. -1.
        -14    1    3    3    0    0  0.56297436707E+02 -0.65774607959E+02  0.48683181655E+02  0.99326494995E+02  0.00000000000E+00 0.  1.
        -13    1    4    4    0    0 -0.44658387276E+02  0.12496571702E+03 -0.24587875496E+03  0.27940501808E+03  0.00000000000E+00 0. -1.
         13    1    4    4    0    0 -0.58919230378E+02  0.14598104534E+02 -0.69183445555E+02  0.92037652638E+02  0.00000000000E+00 0.  1.
         21    1    1    2  502  501 -0.45318765570E+02  0.16963002738E+02 -0.62114709851E+02  0.78738625556E+02  0.00000000000E+00 0. -1.
<scales pt_clust_5="13000.00000" pt_clust_6="13000.00000" pt_clust_7="13000.00000" pt_clust_8="13000.00000" pt_clust_9="48.38940"></scales>
<clustering>
<clus scale="   48.389">  2  9  1 -1</clus>
<clus scale="   83.239">  5  6 -1 -1</clus>
<clus scale="   92.190">  7  8 -1 -1</clus>
<clus scale="  221.980">  1  5  2 -1</clus>
<clus scale="   48.389">  2  5  1 -1</clus>
</clustering>
</event>
<event>
 9    1  0.1973774E-005  0.1003707E+03  0.7546771E-02  0.1285286E+00
          1   -1    0    0  502    0  0.00000000000E+00  0.00000000000E+00  0.41149651911E+03  0.41149651911E+03  0.00000000000E+00 0. -1.
         -2   -1    0    0    0  501 -0.00000000000E+00 -0.00000000000E+00 -0.61363401258E+02  0.61363401258E+02  0.00000000000E+00 0.  1.
         23    2    1    2    0    0 -0.37741279211E+02  0.39022248645E+01  0.14584026168E+02  0.98983667429E+02  0.90252097388E+02 0.  0.
        -24    2    1    2    0    0  0.35762710908E+02 -0.28161889542E+02  0.33746711787E+03  0.34946058405E+03  0.78527578889E+02 0.  0.
         13    1    4    4    0    0 -0.82064851983E+01  0.22324903773E+02  0.84424976960E+02  0.87711598221E+02  0.00000000000E+00 0. -1.
        -14    1    4    4    0    0  0.43969196106E+02 -0.50486793315E+02  0.25304214091E+03  0.26174898583E+03  0.00000000000E+00 0.  1.
        -11    1    3    3    0    0 -0.50046777111E+02  0.26491149800E+02 -0.16170920313E+02  0.58889384278E+02  0.00000000000E+00 0. -1.
         11    1    3    3    0    0  0.12305497900E+02 -0.22588924936E+02  0.30754946481E+02  0.40094283150E+02  0.00000000000E+00 0.  1.
         21    1    1    2  502  501  0.19785683028E+01  0.24259664677E+02 -0.19180261884E+01  0.24415668888E+02  0.00000000000E+00 0. -1.
<scales pt_clust_5="13000.00000" pt_clust_6="13000.00000" pt_clust_7="13000.00000" pt_clust_8="13000.00000" pt_clust_9="24.34021"></scales>
<clustering>
<clus scale="   24.340">  2  9  1 -1</clus>
<clus scale="   78.528">  5  6 -1 -1</clus>
<clus scale="   89.975">  1  5  2 -1</clus>
<clus scale="   90.252">  7  8 -1 -1</clus>
<clus scale="   89.975">  1  5  2 -1</clus>
</clustering>
</event>
<event>
 9    1  0.1973774E-005  0.1330412E+03  0.7546771E-02  0.1227915E+00
         -2   -1    0    0    0  501 -0.00000000000E+00  0.00000000000E+00  0.10457849291E+03  0.10457849291E+03  0.00000000000E+00 0.  1.
          1   -1    0    0  502    0  0.00000000000E+00 -0.00000000000E+00 -0.31830131100E+03  0.31830131100E+03  0.00000000000E+00 0. -1.
        -24    2    1    2    0    0  0.73650591383E+02  0.60366214169E+02  0.41885872399E+02  0.12957595295E+03  0.77246435851E+02 0.  0.
         23    2    1    2    0    0 -0.56971316209E+02 -0.47245617014E+02 -0.23018920917E+03  0.26019043495E+03  0.96094282979E+02 0.  0.
         13    1    3    3    0    0  0.51735540897E+02  0.42283739503E+02 -0.12723690099E+02  0.68017447085E+02  0.00000000000E+00 0. -1.
        -14    1    3    3    0    0  0.21915050486E+02  0.18082474666E+02  0.54609562498E+02  0.61558505863E+02  0.00000000000E+00 0.  1.
        -13    1    4    4    0    0 -0.78533633229E+02 -0.57133220728E+02 -0.19343769122E+03  0.21644832372E+03  0.00000000000E+00 0. -1.
         13    1    4    4    0    0  0.21562317019E+02  0.98876037141E+01 -0.36751517959E+02  0.43742111228E+02  0.00000000000E+00 0.  1.
         21    1    1    2  502  501 -0.16679275173E+02 -0.13120597155E+02 -0.25419481318E+02  0.33113416019E+02  0.00000000000E+00 0. -1.
<scales pt_clust_5="13000.00000" pt_clust_6="13000.00000" pt_clust_7="13000.00000" pt_clust_8="13000.00000" pt_clust_9="21.22141"></scales>
<clustering>
<clus scale="   21.221">  2  9  1 -1</clus>
<clus scale="   77.246">  5  6 -1 -1</clus>
<clus scale="   96.094">  7  8 -1 -1</clus>
<clus scale="  120.137">  1  5  2 -1</clus>
<clus scale="   21.221">  2  5  1 -1</clus>
</clustering>
</event>
<event>
 9    1  0.1973774E-005  0.1179079E+03  0.7546771E-02  0.1250787E+00
          1   -1    0    0  502    0  0.00000000000E+00  0.00000000000E+00  0.35088376315E+03  0.35088376315E+03  0.00000000000E+00 0. -1.
         -2   -1    0    0    0  501 -0.00000000000E+00 -0.00000000000E+00 -0.67902437614E+02  0.67902437614E+02  0.00000000000E+00 0.  1.
        -24    2    1    2    0    0 -0.71505474994E+01  0.50599067561E+02  0.17979224635E+02  0.95911485033E+02  0.79147738282E+02 0.  0.
         23    2    1    2    0    0  0.18061924803E+02 -0.80160051468E+02  0.26403991663E+03  0.29134955558E+03  0.91736682861E+02 0.  0.
         13    1    3    3    0    0 -0.25173442916E+01  0.52919849878E+02  0.44315446882E+02  0.69070300171E+02  0.00000000000E+00 0. -1.
        -14    1    3    3    0    0 -0.46332032078E+01 -0.23207823174E+01 -0.26336222247E+02  0.26841184861E+02  0.00000000000E+00 0.  1.
        -13    1    4    4    0    0 -0.15595388306E+02 -0.72660285998E+02  0.23433453930E+03  0.24583614381E+03  0.00000000000E+00 0. -1.
         13    1    4    4    0    0  0.33657313109E+02 -0.74997654699E+01  0.29705377330E+02  0.45513411761E+02  0.00000000000E+00 0.  1.
         21    1    1    2  502  501 -0.10911377303E+02  0.29560983907E+02  0.96218427188E+00  0.31525160155E+02  0.00000000000E+00 0. -1.
<scales pt_clust_5="13000.00000" pt_clust_6="13000.00000" pt_clust_7="13000.00000" pt_clust_8="13000.00000" pt_clust_9="31.51047"></scales>
<clustering>
<clus scale="   31.510">  2  9  1 -1</clus>
<clus scale="   79.148">  5  6 -1 -1</clus>
<clus scale="   91.737">  7  8 -1 -1</clus>
<clus scale="  108.402">  2  5  1 -1</clus>
<clus scale="  117.908">  1  5  2 -1</clus>
</clustering>
</event>
<event>
 9    1  0.1973774E-005  0.1363930E+03  0.7546771E-02  0.1221000E+00
         -4   -1    0    0    0  501 -0.00000000000E+00  0.00000000000E+00  0.10348295341E+04  0.10348295341E+04  0.00000000000E+00 0.  1.
          3   -1    0    0  502    0  0.00000000000E+00 -0.00000000000E+00 -0.66852775029E+02  0.66852775029E+02  0.00000000000E+00 0. -1.
        -24    2    1    2    0    0  0.68243891028E+02  0.75694931283E+02  0.91817908672E+03  0.92722794152E+03  0.79447271581E+02 0.  0.
         23    2    1    2    0    0 -0.86379019488E+02 -0.49933886141E+02  0.45427210702E+02  0.14264846775E+03  0.91270071142E+02 0.  0.
         13    1    3    3    0    0  0.31743843014E+02  0.31142458916E+02  0.13938066794E+03  0.14630275087E+03  0.00000000000E+00 0. -1.
        -14    1    3    3    0    0  0.36500048015E+02  0.44552472367E+02  0.77879841878E+03  0.78092519065E+03  0.00000000000E+00 0.  1.
        -11    1    4    4    0    0 -0.98565304511E+01  0.19204187408E+02 -0.11907673488E+02  0.24652478464E+02  0.00000000000E+00 0.  1.
         11    1    4    4    0    0 -0.76522489036E+02 -0.69138073549E+02  0.57334884189E+02  0.11799598929E+03  0.00000000000E+00 0. -1.
         21    1    1    2  502  501  0.18135128459E+02 -0.25761045142E+02  0.43704616521E+01  0.31805899863E+02  0.00000000000E+00 0. -1.
<scales pt_clust_5="13000.00000" pt_clust_6="13000.00000" pt_clust_7="13000.00000" pt_clust_8="13000.00000" pt_clust_9="31.50420"></scales>
<clustering>
<clus scale="   31.504">  2  9  1 -1</clus>
<clus scale="   79.447">  5  6 -1 -1</clus>
<clus scale="   91.270">  7  8 -1 -1</clus>
<clus scale="  128.782">  1  5  2 -1</clus>
<clus scale="   31.504">  2  5  1 -1</clus>
</clustering>
</event>
<event>
 9    1  0.1973774E-005  0.1291716E+03  0.7546771E-02  0.1230556E+00
          1   -1    0    0  502    0  0.00000000000E+00  0.00000000000E+00  0.49805605588E+03  0.49805605588E+03  0.00000000000E+00 0. -1.
         -2   -1    0    0    0  501 -0.00000000000E+00 -0.00000000000E+00 -0.62655531326E+02  0.62655531326E+02  0.00000000000E+00 0.  1.
        -24    2    1    2    0    0  0.96699813427E+02 -0.44970108890E+01  0.29987953709E+02  0.12999804483E+03  0.81419514055E+02 0.  0.
         23    2    1    2    0    0 -0.79698756302E+02  0.21448817754E+02  0.34777058932E+03  0.36827158746E+03  0.88699694441E+02 0.  0.
         13    1    3    3    0    0  0.84722340766E+02 -0.11105932652E+02  0.54909340271E+02  0.10156895399E+03  0.00000000000E+00 0. -1.
        -14    1    3    3    0    0  0.11977472661E+02  0.66089217631E+01 -0.24921386562E+02  0.28429090847E+02  0.00000000000E+00 0.  1.
        -13    1    4    4    0    0 -0.26750281694E+02 -0.32990006064E+02  0.16439784473E+03  0.16979566962E+03  0.00000000000E+00 0. -1.
         13    1    4    4    0    0 -0.52948474608E+02  0.54438823819E+02  0.18337274459E+03  0.19847591783E+03  0.00000000000E+00 0.  1.
         21    1    1    2  502  501 -0.17001057125E+02 -0.16951806865E+02  0.57641981532E+02  0.62441954920E+02  0.00000000000E+00 0. -1.
<scales pt_clust_5="13000.00000" pt_clust_6="13000.00000" pt_clust_7="13000.00000" pt_clust_8="13000.00000" pt_clust_9="24.00833"></scales>
<clustering>
<clus scale="   24.008">  1  9  2 -1</clus>
<clus scale="   81.420">  5  6 -1 -1</clus>
<clus scale="   88.700">  7  8 -1 -1</clus>
<clus scale="  124.285">  2  5  1 -1</clus>
<clus scale="   24.008">  1  5  2 -1</clus>
</clustering>
</event>
<event>
 9    1  0.1973774E-005  0.3525478E+03  0.7546771E-02  0.1062341E+00
         -2   -1    0    0    0  501 -0.00000000000E+00  0.00000000000E+00  0.11368214488E+03  0.11368214488E+03  0.00000000000E+00 0.  1.
          1   -1    0    0  502    0  0.00000000000E+00 -0.00000000000E+00 -0.21009212641E+04  0.21009212641E+04  0.00000000000E+00 0. -1.
         23    2    1    2    0    0  0.19128211562E+03 -0.26879453222E+03 -0.24592307296E+03  0.42552552011E+03  0.10841799731E+03 0.  0.
        -24    2    1    2    0    0 -0.22284715575E+03  0.28667378489E+03 -0.16334001233E+04  0.16752276985E+04  0.80926911591E+02 0.  0.
         13    1    4    4    0    0 -0.16821507629E+03  0.24755113478E+03 -0.14310259192E+04  0.14619894178E+04  0.00000000000E+00 0. -1.
        -14    1    4    4    0    0 -0.54632079459E+02  0.39122650112E+02 -0.20237420412E+03  0.21323828069E+03  0.00000000000E+00 0.  1.
        -11    1    3    3    0    0  0.18857130741E+03 -0.18758477786E+03 -0.18608711938E+03  0.32461608534E+03  0.00000000000E+00 0. -1.
         11    1    3    3    0    0  0.27108082123E+01 -0.81209754357E+02 -0.59835953578E+02  0.10090943476E+03  0.00000000000E+00 0.  1.
         21    1    1    2  502  501  0.31565040128E+02 -0.17879252669E+02 -0.10791592289E+03  0.11385019037E+03  0.00000000000E+00 0. -1.
<scales pt_clust_5="13000.00000" pt_clust_6="13000.00000" pt_clust_7="13000.00000" pt_clust_8="13000.00000" pt_clust_9="36.27698"></scales>
<clustering>
<clus scale="   36.277">  2  9  1 -1</clus>
<clus scale="   80.927">  5  6 -1 -1</clus>
<clus scale="  108.418">  7  8 -1 -1</clus>
<clus scale="  345.086">  2  5  1 -1</clus>
<clus scale="   36.277">  2  5  1 -1</clus>
</clustering>
</event>
<event>
 9    1  0.1973774E-005  0.1267168E+03  0.7546771E-02  0.1239255E+00
         -2   -1    0    0    0  501 -0.00000000000E+00  0.00000000000E+00  0.10856557299E+03  0.10856557299E+03  0.00000000000E+00 0.  1.
          1   -1    0    0  502    0  0.00000000000E+00 -0.00000000000E+00 -0.24436436865E+03  0.24436436865E+03  0.00000000000E+00 0. -1.
        -24    2    1    2    0    0 -0.71829288824E+02 -0.17127736692E+02  0.47321376901E+02  0.12209406998E+03  0.84940232614E+02 0.  0.
         23    2    1    2    0    0  0.49710868355E+02  0.19611665965E+02 -0.15401018983E+03  0.19419183363E+03  0.10552507665E+03 0.  0.
         13    1    3    3    0    0 -0.50189297747E+02  0.91626752022E+01 -0.13157587908E+02  0.52688161334E+02  0.00000000000E+00 0. -1.
        -14    1    3    3    0    0 -0.21639991077E+02 -0.26290411894E+02  0.60478964808E+02  0.69405908651E+02  0.00000000000E+00 0.  1.
        -13    1    4    4    0    0  0.25356613308E+02 -0.35862384773E+02 -0.11244819337E+03  0.12072143419E+03  0.00000000000E+00 0. -1.
         13    1    4    4    0    0  0.24354255047E+02  0.55474050738E+02 -0.41561996458E+02  0.73470399439E+02  0.00000000000E+00 0.  1.
         21    1    1    2  502  501  0.22118420469E+02 -0.24839292728E+01 -0.29109982726E+02  0.36644038028E+02  0.00000000000E+00 0. -1.
<scales pt_clust_5="13000.00000" pt_clust_6="13000.00000" pt_clust_7="13000.00000" pt_clust_8="13000.00000" pt_clust_9="22.25746"></scales>
<clustering>
<clus scale="   22.257">  2  9  1 -1</clus>
<clus scale="   84.940">  5  6 -1 -1</clus>
<clus scale="  105.525">  7  8 -1 -1</clus>
<clus scale="  110.166">  1  5  2 -1</clus>
<clus scale="   22.257">  2  5  1 -1</clus>
</clustering>
</event>
<event>
 9    1  0.1973774E-005  0.9526911E+02  0.7546771E-02  0.1296219E+00
          1   -1    0    0  502    0  0.00000000000E+00  0.00000000000E+00  0.20144832453E+03  0.20144832453E+03  0.00000000000E+00 0. -1.
         -2   -1    0    0    0  501 -0.00000000000E+00 -0.00000000000E+00 -0.11143619160E+03  0.11143619160E+03  0.00000000000E+00 0.  1.
         23    2    1    2    0    0  0.19150323329E+02  0.93028795067E+01 -0.69510453024E+02  0.11804005894E+03  0.92997171914E+02 0.  0.
        -24    2    1    2    0    0 -0.37756709015E+01 -0.27040102542E+02  0.13477737545E+03  0.16073706120E+03  0.83222827855E+02 0.  0.
         11    1    4    4    0    0  0.30037773451E+02 -0.19004971025E+02  0.11581227178E+03  0.12114429021E+03  0.00000000000E+00 0. -1.
        -12    1    4    4    0    0 -0.33813444352E+02 -0.80351315164E+01  0.18965103669E+02  0.39592770990E+02  0.00000000000E+00 0.  1.
        -11    1    3    3    0    0 -0.22269572030E+02 -0.10429599554E+02 -0.67807052101E+02  0.72128404252E+02  0.00000000000E+00 0.  1.
         11    1    3    3    0    0  0.41419895359E+02  0.19732479061E+02 -0.17034009232E+01  0.45911654687E+02  0.00000000000E+00 0. -1.
         21    1    1    2  502  501 -0.15374652427E+02  0.17737223035E+02  0.24745210512E+02  0.34107395994E+02  0.00000000000E+00 0.  1.
<scales pt_clust_5="13000.00000" pt_clust_6="13000.00000" pt_clust_7="13000.00000" pt_clust_8="13000.00000" pt_clust_9="23.47316"></scales>
<clustering>
<clus scale="   23.473">  1  9  2 -1</clus>
<clus scale="   83.223">  5  6 -1 -1</clus>
<clus scale="   85.754">  1  5  2 -1</clus>
<clus scale="   92.997">  7  8 -1 -1</clus>
<clus scale="   23.473">  1  5  2 -1</clus>
</clustering>
</event>
<event>
 9    1  0.1973774E-005  0.9603958E+02  0.7546771E-02  0.1303720E+00
          1   -1    0    0  502    0  0.00000000000E+00  0.00000000000E+00  0.80412058844E+02  0.80412058844E+02  0.00000000000E+00 0. -1.
         -2   -1    0    0    0  501 -0.00000000000E+00 -0.00000000000E+00 -0.15856302402E+03  0.15856302402E+03  0.00000000000E+00 0.  1.
        -24    2    1    2    0    0  0.26735973953E+02  0.25239322497E+02 -0.67847147334E+02  0.10233937130E+03  0.67218121164E+02 0.  0.
         23    2    1    2    0    0  0.11726087586E+02 -0.21079019688E+02 -0.19427364353E+02  0.96888039954E+02  0.91804376799E+02 0.  0.
         11    1    3    3    0    0  0.21241193151E+02  0.45558997783E+02 -0.63252719354E+02  0.80794288605E+02  0.00000000000E+00 0. -1.
        -12    1    3    3    0    0  0.54947808016E+01 -0.20319675286E+02 -0.45944279803E+01  0.21545082693E+02  0.00000000000E+00 0.  1.
        -11    1    4    4    0    0  0.45244126141E+02 -0.26552677153E+02  0.82137217573E+01  0.53099348766E+02  0.00000000000E+00 0.  1.
         11    1    4    4    0    0 -0.33518038555E+02  0.54736574647E+01 -0.27641086110E+02  0.43788691188E+02  0.00000000000E+00 0. -1.
         21    1    1    2  502  501 -0.38462061540E+02 -0.41603028093E+01  0.91235465139E+01  0.39747671609E+02  0.00000000000E+00 0. -1.
<scales pt_clust_5="13000.00000" pt_clust_6="13000.00000" pt_clust_7="13000.00000" pt_clust_8="13000.00000" pt_clust_9="38.68641"></scales>
<clustering>
<clus scale="   38.686">  1  9  2 -1</clus>
<clus scale="   67.218">  5  6 -1 -1</clus>
<clus scale="   72.896">  2  5  1 -1</clus>
<clus scale="   91.804">  7  8 -1 -1</clus>
<clus scale="   38.686">  1  5  2 -1</clus>
</clustering>
</event>
<event>
 9    1  0.1973774E-005  0.1670479E+03  0.7546771E-02  0.1197520E+00
          1   -1    0    0  502    0  0.00000000000E+00  0.00000000000E+00  0.66796043664E+03  0.66796043664E+03  0.00000000000E+00 0. -1.
         -2   -1    0    0    0  501 -0.00000000000E+00 -0.00000000000E+00 -0.21529154795E+03  0.21529154795E+03  0.00000000000E+00 0.  1.
         23    2    1    2    0    0  0.71312780621E+02  0.28115585831E+01  0.50496288138E+02  0.12633977645E+03  0.91205517683E+02 0.  0.
        -24    2    1    2    0    0 -0.33643708026E+02 -0.14709614012E+03 -0.12406874180E+03  0.20995064651E+03  0.76922348827E+02 0.  0.
         13    1    4    4    0    0  0.10691824277E+02 -0.66129375303E+02 -0.88569581865E+02  0.11104944942E+03  0.00000000000E+00 0. -1.
        -14    1    4    4    0    0 -0.44335532303E+02 -0.80966764821E+02 -0.35499159936E+02  0.98901197092E+02  0.00000000000E+00 0.  1.
        -11    1    3    3    0    0  0.81270934248E+02 -0.20835855694E+02  0.19563200109E+02  0.86149964797E+02  0.00000000000E+00 0.  1.
         11    1    3    3    0    0 -0.99581536269E+01  0.23647414277E+02  0.30933088029E+02  0.40189811652E+02  0.00000000000E+00 0. -1.
         21    1    1    2  502  501 -0.37669072594E+02  0.14428458154E+03  0.52624134235E+03  0.54696156163E+03  0.00000000000E+00 0. -1.
<scales pt_clust_5="13000.00000" pt_clust_6="13000.00000" pt_clust_7="13000.00000" pt_clust_8="13000.00000" pt_clust_9="148.28336"></scales>
<clustering>
<clus scale="   76.922">  5  6 -1 -1</clus>
<clus scale="   91.206">  7  8 -1 -1</clus>
<clus scale="  115.810">  2  7  1 -1</clus>
<clus scale="  148.283">  1  9  2 -1</clus>
<clus scale="  148.283">  1  5  2 -1</clus>
</clustering>
</event>
<event>
 9    1  0.1973774E-005  0.9659037E+02  0.7546771E-02  0.1296303E+00
         -2   -1    0    0    0  501 -0.00000000000E+00  0.00000000000E+00  0.34633609793E+03  0.34633609793E+03  0.00000000000E+00 0.  1.
          1   -1    0    0  502    0  0.00000000000E+00 -0.00000000000E+00 -0.15467369760E+03  0.15467369760E+03  0.00000000000E+00 0. -1.
         23    2    1    2    0    0 -0.22933166345E+01 -0.19398498464E+02  0.28977430572E+03  0.30551298784E+03  0.94802301845E+02 0.  0.
        -24    2    1    2    0    0 -0.57866893057E+02  0.66094930676E+01 -0.29371241659E+02  0.10325750838E+03  0.80044865479E+02 0.  0.
         11    1    4    4    0    0  0.31467952857E+01  0.31139884925E+02 -0.19191867007E+02  0.36714064239E+02  0.00000000000E+00 0. -1.
        -12    1    4    4    0    0 -0.61013688342E+02 -0.24530391857E+02 -0.10179374652E+02  0.66543444141E+02  0.00000000000E+00 0.  1.
        -13    1    3    3    0    0  0.38811968483E+02 -0.10621092827E+02  0.62140765710E+02  0.74031420852E+02  0.00000000000E+00 0. -1.
         13    1    3    3    0    0 -0.41105285117E+02 -0.87774056371E+01  0.22763354001E+03  0.23148156698E+03  0.00000000000E+00 0.  1.
         21    1    1    2  502  501  0.60160209691E+02  0.12789005397E+02 -0.68740663730E+02  0.92239299320E+02  0.00000000000E+00 0. -1.
<scales pt_clust_5="13000.00000" pt_clust_6="13000.00000" pt_clust_7="13000.00000" pt_clust_8="13000.00000" pt_clust_9="61.50455"></scales>
<clustering>
<clus scale="   61.505">  2  9  1 -1</clus>
<clus scale="   80.045">  5  6 -1 -1</clus>
<clus scale="   82.155">  2  5  1 -1</clus>
<clus scale="   94.802">  7  8 -1 -1</clus>
<clus scale="   61.505">  2  5  1 -1</clus>
</clustering>
</event>
<event>
 9    1  0.1973774E-005  0.1447861E+03  0.7546771E-02  0.1210112E+00
         -2   -1    0    0    0  501 -0.00000000000E+00  0.00000000000E+00  0.45344122771E+03  0.45344122771E+03  0.00000000000E+00 0.  1.
          1   -1    0    0  502    0  0.00000000000E+00 -0.00000000000E+00 -0.12211785378E+03  0.12211785378E+03  0.00000000000E+00 0. -1.
        -24    2    1    2    0    0  0.89151570951E+02  0.57432847797E+02  0.36068108487E+03  0.38454062895E+03  0.80833877338E+02 0.  0.
         23    2    1    2    0    0 -0.10270886836E+03 -0.78640265839E+02 -0.13731744605E+02  0.16139201642E+03  0.95527059536E+02 0.  0.
         11    1    3    3    0    0  0.31966938051E+02 -0.18558518401E+02  0.78576192158E+02  0.86836177412E+02  0.00000000000E+00 0. -1.
        -12    1    3    3    0    0  0.57184632900E+02  0.75991366198E+02  0.28210489271E+03  0.29770445154E+03  0.00000000000E+00 0.  1.
        -11    1    4    4    0    0 -0.67551296509E+02 -0.49117744494E+02  0.38401536164E+02  0.91926103279E+02  0.00000000000E+00 0.  1.
         11    1    4    4    0    0 -0.35157571849E+02 -0.29522521345E+02 -0.52133280769E+02  0.69465913141E+02  0.00000000000E+00 0. -1.
         21    1    1    2  502  501  0.13557297407E+02  0.21207418043E+02 -0.15625966333E+02  0.29626436115E+02  0.00000000000E+00 0. -1.
<scales pt_clust_5="13000.00000" pt_clust_6="13000.00000" pt_clust_7="13000.00000" pt_clust_8="13000.00000" pt_clust_9="25.17052"></scales>
<clustering>
<clus scale="   25.171">  2  9  1 -1</clus>
<clus scale="   80.834">  5  6 -1 -1</clus>
<clus scale="   95.527">  7  8 -1 -1</clus>
<clus scale="  135.542">  1  5  2 -1</clus>
<clus scale="   25.171">  2  5  1 -1</clus>
</clustering>
</event>
<event>
 9    1  0.1973774E-005  0.1241830E+03  0.7546771E-02  0.1238540E+00
         -4   -1    0    0    0  501 -0.00000000000E+00  0.00000000000E+00  0.42549563079E+02  0.42549563079E+02  0.00000000000E+00 0.  1.
          3   -1    0    0  502    0  0.00000000000E+00 -0.00000000000E+00 -0.67165583889E+03  0.67165583889E+03  0.00000000000E+00 0. -1.
        -24    2    1    2    0    0  0.10193521542E+03 -0.74153228484E+01 -0.11070525045E+03  0.17179227519E+03  0.82529741198E+02 0.  0.
         23    2    1    2    0    0 -0.51018704619E+02 -0.47942523270E-01 -0.28068438130E+03  0.29919019557E+03  0.90156201669E+02 0.  0.
         13    1    3    3    0    0  0.39110223780E+02  0.25391459993E+02 -0.83958541036E+02  0.96038390541E+02  0.00000000000E+00 0. -1.
        -14    1    3    3    0    0  0.62824991641E+02 -0.32806782842E+02 -0.26746709414E+02  0.75753884651E+02  0.00000000000E+00 0.  1.
        -11    1    4    4    0    0 -0.49129704725E+02  0.39881660436E+02 -0.16006152766E+03  0.17211614498E+03  0.00000000000E+00 0.  1.
         11    1    4    4    0    0 -0.18889998940E+01 -0.39929602960E+02 -0.12062285364E+03  0.12707405059E+03  0.00000000000E+00 0. -1.
         21    1    1    2  502  501 -0.50916510802E+02  0.74632653717E+01 -0.23771664406E+03  0.24322293120E+03  0.00000000000E+00 0. -1.
<scales pt_clust_5="13000.00000" pt_clust_6="13000.00000" pt_clust_7="13000.00000" pt_clust_8="13000.00000" pt_clust_9="51.46058"></scales>
<clustering>
<clus scale="   51.461">  2  9  1 -1</clus>
<clus scale="   82.530">  5  6 -1 -1</clus>
<clus scale="   90.156">  7  8 -1 -1</clus>
<clus scale="  118.762">  1  5  2 -1</clus>
<clus scale="   51.461">  2  5  1 -1</clus>
</clustering>
</event>
<event>
 9    1  0.1973774E-005  0.6199977E+03  0.7546771E-02  0.9865322E-01
          3   -1    0    0  502    0  0.00000000000E+00  0.00000000000E+00  0.16463843299E+04  0.16463843299E+04  0.00000000000E+00 0. -1.
         -4   -1    0    0    0  501 -0.00000000000E+00 -0.00000000000E+00 -0.39428324865E+03  0.39428324865E+03  0.00000000000E+00 0.  1.
        -24    2    1    2    0    0  0.96432030119E+02  0.56401390703E+03  0.23082104070E+03  0.62244197241E+03  0.82126928775E+02 0.  0.
         23    2    1    2    0    0 -0.63240956832E+02 -0.66871832177E+03  0.39927480901E+03  0.78659662494E+03  0.90167980856E+02 0.  0.
         11    1    3    3    0    0 -0.91588722990E+01  0.15499947713E+03  0.52261847237E+02  0.16382925114E+03  0.00000000000E+00 0. -1.
        -12    1    3    3    0    0  0.10559090242E+03  0.40901442991E+03  0.17855919346E+03  0.45861272127E+03  0.00000000000E+00 0.  1.
        -11    1    4    4    0    0 -0.28216595858E+02 -0.59437033272E+03  0.36049614545E+03  0.69572245873E+03  0.00000000000E+00 0.  1.
         11    1    4    4    0    0 -0.35024360974E+02 -0.74347989046E+02  0.38778663568E+02  0.90874166213E+02  0.00000000000E+00 0. -1.
         21    1    1    2  502  501 -0.33191073287E+02  0.10470441473E+03  0.62200523150E+03  0.63162898114E+03  0.00000000000E+00 0. -1.
<scales pt_clust_5="13000.00000" pt_clust_6="13000.00000" pt_clust_7="13000.00000" pt_clust_8="13000.00000" pt_clust_9="109.83925"></scales>
<clustering>
<clus scale="   82.127">  5  6 -1 -1</clus>
<clus scale="   90.168">  7  8 -1 -1</clus>
<clus scale="  109.839">  1  9  2 -1</clus>
<clus scale="  618.879">  2  5  1 -1</clus>
<clus scale="  109.839">  1  5  2 -1</clus>
</clustering>
</event>
<event>
 9    1  0.1973774E-005  0.2746958E+03  0.7546771E-02  0.1098966E+00
         -2   -1    0    0    0  501 -0.00000000000E+00  0.00000000000E+00  0.50265851108E+03  0.50265851108E+03  0.00000000000E+00 0.  1.
          1   -1    0    0  502    0  0.00000000000E+00 -0.00000000000E+00 -0.91935312397E+03  0.91935312397E+03  0.00000000000E+00 0. -1.
        -24    2    1    2    0    0  0.18876448130E+03  0.18441252911E+03  0.40643659174E+03  0.49164883354E+03  0.82993145042E+02 0.  0.
         23    2    1    2    0    0 -0.62168853096E+02 -0.24073131510E+03 -0.35912715096E+03  0.44611284481E+03  0.90707372270E+02 0.  0.
         13    1    3    3    0    0  0.21882335982E+02 -0.63984943103E+01  0.27183179072E+02  0.35478198685E+02  0.00000000000E+00 0. -1.
        -14    1    3    3    0    0  0.16688214532E+03  0.19081102342E+03  0.37925341267E+03  0.45617063485E+03  0.00000000000E+00 0.  1.
        -11    1    4    4    0    0 -0.42054067057E+02 -0.27364154376E+02 -0.74590665927E+02  0.89894988426E+02  0.00000000000E+00 0.  1.
         11    1    4    4    0    0 -0.20114786040E+02 -0.21336716072E+03 -0.28453648504E+03  0.35621785639E+03  0.00000000000E+00 0. -1.
         21    1    1    2  502  501 -0.12659562820E+03  0.56318785986E+02 -0.46400405367E+03  0.48424995669E+03  0.00000000000E+00 0. -1.
<scales pt_clust_5="13000.00000" pt_clust_6="13000.00000" pt_clust_7="13000.00000" pt_clust_8="13000.00000" pt_clust_9="138.55778"></scales>
<clustering>
<clus scale="   82.993">  5  6 -1 -1</clus>
<clus scale="   90.707">  7  8 -1 -1</clus>
<clus scale="  138.558">  2  9  1 -1</clus>
<clus scale="  272.246">  1  5  2 -1</clus>
<clus scale="  138.558">  2  5  1 -1</clus>
</clustering>
</event>
<event>
 9    1  0.1973774E-005  0.1133105E+03  0.7546771E-02  0.1258197E+00
         -2   -1    0    0    0  501 -0.00000000000E+00  0.00000000000E+00  0.37974928041E+03  0.37974928041E+03  0.00000000000E+00 0.  1.
          1   -1    0    0  502    0  0.00000000000E+00 -0.00000000000E+00 -0.59671367014E+02  0.59671367014E+02  0.00000000000E+00 0. -1.
        -24    2    1    2    0    0 -0.40924178801E+01  0.72019496354E+02  0.27729972421E+03  0.29809983704E+03  0.82248526149E+02 0.  0.
         23    2    1    2    0    0 -0.11581374938E+02 -0.44493922393E+02  0.34553153383E+02  0.10859503741E+03  0.92114734787E+02 0.  0.
         13    1    3    3    0    0  0.80977280771E+00  0.86749967481E+02  0.18289671259E+03  0.20242880246E+03  0.00000000000E+00 0. -1.
        -14    1    3    3    0    0 -0.49021906878E+01 -0.14730471127E+02  0.94403011623E+02  0.95671034574E+02  0.00000000000E+00 0.  1.
        -11    1    4    4    0    0  0.33106221632E+02 -0.34695010799E+01  0.34488106341E+02  0.47932127300E+02  0.00000000000E+00 0.  1.
         11    1    4    4    0    0 -0.44687596570E+02 -0.41024421314E+02  0.65047042431E-01  0.60662910105E+02  0.00000000000E+00 0. -1.
         21    1    1    2  502  501  0.15673792818E+02 -0.27525573961E+02  0.82250357969E+01  0.32725772979E+02  0.00000000000E+00 0. -1.
<scales pt_clust_5="13000.00000" pt_clust_6="13000.00000" pt_clust_7="13000.00000" pt_clust_8="13000.00000" pt_clust_9="31.67531"></scales>
<clustering>
<clus scale="   31.675">  2  9  1 -1</clus>
<clus scale="   82.249">  5  6 -1 -1</clus>
<clus scale="   92.115">  7  8 -1 -1</clus>
<clus scale="  105.447">  1  5  2 -1</clus>
<clus scale="   31.675">  2  5  1 -1</clus>
</clustering>
</event>
<event>
 9    1  0.3454730E-005  0.1380849E+03  0.7546771E-02  0.1218604E+00
         -2   -1    0    0    0  501 -0.00000000000E+00  0.00000000000E+00  0.50420920394E+03  0.50420920394E+03  0.00000000000E+00 0.  1.
          1   -1    0    0  502    0  0.00000000000E+00 -0.00000000000E+00 -0.37333508481E+03  0.37333508481E+03  0.00000000000E+00 0. -1.
         23    2    1    2    0    0  0.74445546906E+02  0.71260185139E+02  0.47843421287E+03  0.49800163789E+03  0.92120474669E+02 0.  0.
        -24    2    1    2    0    0 -0.54659413085E+02 -0.82406200402E+02 -0.31553254676E+03  0.34028085628E+03  0.80323345200E+02 0.  0.
         11    1    4    4    0    0 -0.56500885129E+02 -0.24766330099E+02 -0.22188098011E+03  0.23029739569E+03  0.00000000000E+00 0. -1.
        -12    1    4    4    0    0  0.18414720432E+01 -0.57639870304E+02 -0.93651566642E+02  0.10998346059E+03  0.00000000000E+00 0.  1.
        -11    1    3    3    0    0  0.91143439598E+02  0.43631523727E+02  0.29704146377E+03  0.31375861365E+03  0.00000000000E+00 0.  1.
         11    1    3    3    0    0 -0.16697892692E+02  0.27628661411E+02  0.18139274910E+03  0.18424302423E+03  0.00000000000E+00 0. -1.
         21    1    1    2  502  501 -0.19786133821E+02  0.11146015264E+02 -0.32027546990E+02  0.39261794585E+02  0.00000000000E+00 0. -1.
<scales pt_clust_5="13000.00000" pt_clust_6="13000.00000" pt_clust_7="13000.00000" pt_clust_8="13000.00000" pt_clust_9="22.70957"></scales>
<clustering>
<clus scale="   22.710">  2  9  1 -1</clus>
<clus scale="   80.323">  5  6 -1 -1</clus>
<clus scale="   92.120">  7  8 -1 -1</clus>
<clus scale="  130.511">  2  5  1 -1</clus>
<clus scale="   22.710">  2  5  1 -1</clus>
</clustering>
</event>
<event>
 9    1  0.1973774E-005  0.9794674E+02  0.7546771E-02  0.1286205E+00
         -4   -1    0    0    0  501 -0.00000000000E+00  0.00000000000E+00  0.13180700442E+03  0.13180700442E+03  0.00000000000E+00 0.  1.
          3   -1    0    0  502    0  0.00000000000E+00 -0.00000000000E+00 -0.15331238706E+03  0.15331238706E+03  0.00000000000E+00 0. -1.
        -24    2    1    2    0    0  0.33417278059E+02 -0.23176754871E+02  0.79288717603E+02  0.12557455606E+03  0.88478200429E+02 0.  0.
         23    2    1    2    0    0 -0.16031169585E+02 -0.60993662554E+00 -0.65889014583E+02  0.11386717716E+03  0.91471314465E+02 0.  0.
         13    1    3    3    0    0  0.22114623687E+02 -0.57095987663E+02  0.55426875522E+02  0.82590235005E+02  0.00000000000E+00 0. -1.
        -14    1    3    3    0    0  0.11302654372E+02  0.33919232792E+02  0.23861842081E+02  0.42984321055E+02  0.00000000000E+00 0.  1.
        -13    1    4    4    0    0  0.29672177772E+02 -0.26910775319E+02 -0.26127384847E+02  0.47825392847E+02  0.00000000000E+00 0. -1.
         13    1    4    4    0    0 -0.45703347357E+02  0.26300838694E+02 -0.39761629736E+02  0.66041784310E+02  0.00000000000E+00 0.  1.
         21    1    1    2  502  501 -0.17386108474E+02  0.23786691496E+02 -0.34905085656E+02  0.45677658268E+02  0.00000000000E+00 0.  1.
<scales pt_clust_5="13000.00000" pt_clust_6="13000.00000" pt_clust_7="13000.00000" pt_clust_8="13000.00000" pt_clust_9="29.46326"></scales>
<clustering>
<clus scale="   29.463">  2  9  1 -1</clus>
<clus scale="   88.478">  5  6 -1 -1</clus>
<clus scale="   91.471">  7  8 -1 -1</clus>
<clus scale="   95.158">  1  5  2 -1</clus>
<clus scale="   29.463">  2  5  1 -1</clus>
</clustering>
</event>
<event>
 9    1  0.1973774E-005  0.1402401E+03  0.7546771E-02  0.1230847E+00
         -2   -1    0    0    0  501 -0.00000000000E+00  0.00000000000E+00  0.77618709411E+02  0.77618709411E+02  0.00000000000E+00 0.  1.
          1   -1    0    0  502    0  0.00000000000E+00 -0.00000000000E+00 -0.39963380669E+03  0.39963380669E+03  0.00000000000E+00 0. -1.
        -24    2    1    2    0    0  0.47839807153E+02  0.23891597481E+02 -0.61915858190E+02  0.11468855118E+03  0.80376829363E+02 0.  0.
         23    2    1    2    0    0  0.74276369659E+02 -0.48348413026E+02 -0.12364372505E+03  0.17781926601E+03  0.92072647871E+02 0.  0.
         13    1    3    3    0    0 -0.13102002193E+02  0.15974396442E+02 -0.47161352631E+02  0.51488221810E+02  0.00000000000E+00 0. -1.
        -14    1    3    3    0    0  0.60941809345E+02  0.79172010390E+01 -0.14754505559E+02  0.63200329373E+02  0.00000000000E+00 0.  1.
        -13    1    4    4    0    0  0.45303264255E+02 -0.63243120921E+01 -0.11788872017E+03  0.12645209773E+03  0.00000000000E+00 0.  1.
         13    1    4    4    0    0  0.28973105404E+02 -0.42024100934E+02 -0.57550048838E+01  0.51367168282E+02  0.00000000000E+00 0. -1.
         21    1    1    2  502  501 -0.12211617681E+03  0.24456815545E+02 -0.13645551404E+03  0.18474469892E+03  0.00000000000E+00 0. -1.
<scales pt_clust_5="13000.00000" pt_clust_6="13000.00000" pt_clust_7="13000.00000" pt_clust_8="13000.00000" pt_clust_9="105.78245"></scales>
<clustering>
<clus scale="   80.377">  5  6 -1 -1</clus>
<clus scale="   92.073">  7  8 -1 -1</clus>
<clus scale="   96.540">  1  5  2 -1</clus>
<clus scale="  105.782">  1  9  2 -1</clus>
<clus scale="  140.240">  2  5  1 -1</clus>
</clustering>
</event>
<event>
 9    1  0.1973774E-005  0.9485415E+02  0.7546771E-02  0.1297166E+00
          1   -1    0    0  502    0  0.00000000000E+00  0.00000000000E+00  0.65808250567E+02  0.65808250567E+02  0.00000000000E+00 0. -1.
         -2   -1    0    0    0  501 -0.00000000000E+00 -0.00000000000E+00 -0.35680235558E+03  0.35680235558E+03  0.00000000000E+00 0.  1.
         23    2    1    2    0    0 -0.14597687130E+02 -0.10204757004E+02 -0.25026181391E+03  0.26756689112E+03  0.92972233413E+02 0.  0.
        -24    2    1    2    0    0 -0.21540128000E+02  0.44373447121E+02 -0.41482555157E+02  0.10530435472E+03  0.83277997200E+02 0.  0.
         11    1    4    4    0    0 -0.14344527451E+02  0.58407953216E+02  0.82858858917E+00  0.60149322737E+02  0.00000000000E+00 0. -1.
        -12    1    4    4    0    0 -0.71956005483E+01 -0.14034506095E+02 -0.42311143746E+02  0.45155031986E+02  0.00000000000E+00 0.  1.
        -11    1    3    3    0    0 -0.44536794279E+02  0.19533002006E+02 -0.17088697707E+03  0.17767223515E+03  0.00000000000E+00 0.  1.
         11    1    3    3    0    0  0.29939107149E+02 -0.29737759010E+02 -0.79374836848E+02  0.89894655973E+02  0.00000000000E+00 0. -1.
         21    1    1    2  502  501  0.36137815129E+02 -0.34168690117E+02  0.75026406256E+00  0.49739360297E+02  0.00000000000E+00 0.  1.
<scales pt_clust_5="13000.00000" pt_clust_6="13000.00000" pt_clust_7="13000.00000" pt_clust_8="13000.00000" pt_clust_9="49.73370"></scales>
<clustering>
<clus scale="   49.734">  1  9  2 -1</clus>
<clus scale="   83.278">  5  6 -1 -1</clus>
<clus scale="   85.374">  1  5  2 -1</clus>
<clus scale="   92.972">  7  8 -1 -1</clus>
<clus scale="   49.734">  1  5  2 -1</clus>
</clustering>
</event>
<event>
 9    1  0.1973774E-005  0.1192067E+03  0.7546771E-02  0.1247539E+00
          1   -1    0    0  502    0  0.00000000000E+00  0.00000000000E+00  0.23376344894E+03  0.23376344894E+03  0.00000000000E+00 0. -1.
         -2   -1    0    0    0  501 -0.00000000000E+00 -0.00000000000E+00 -0.80504157564E+02  0.80504157564E+02  0.00000000000E+00 0.  1.
         23    2    1    2    0    0  0.23805686025E+02  0.81121922931E+02  0.29531921420E+02  0.12713833713E+03  0.90247134680E+02 0.  0.
        -24    2    1    2    0    0 -0.42766054243E+02 -0.57303985570E+02  0.81065016546E+02  0.13471871603E+03  0.80404685088E+02 0.  0.
         11    1    4    4    0    0 -0.43307477183E+02 -0.35056215631E+02  0.93783565564E+02  0.10908635572E+03  0.00000000000E+00 0. -1.
        -12    1    4    4    0    0  0.54142293988E+00 -0.22247769939E+02 -0.12718549018E+02  0.25632360312E+02  0.00000000000E+00 0.  1.
        -13    1    3    3    0    0  0.45807301438E+02  0.36641980273E+02  0.46329301629E+02  0.74748563684E+02  0.00000000000E+00 0. -1.
         13    1    3    3    0    0 -0.22001615414E+02  0.44479942658E+02 -0.16797380209E+02  0.52389773444E+02  0.00000000000E+00 0.  1.
         21    1    1    2  502  501  0.18960368219E+02 -0.23817937361E+02  0.42662353407E+02  0.52410553339E+02  0.00000000000E+00 0. -1.
<scales pt_clust_5="13000.00000" pt_clust_6="13000.00000" pt_clust_7="13000.00000" pt_clust_8="13000.00000" pt_clust_9="30.44322"></scales>
<clustering>
<clus scale="   30.443">  1  9  2 -1</clus>
<clus scale="   80.405">  5  6 -1 -1</clus>
<clus scale="   90.247">  7  8 -1 -1</clus>
<clus scale="  111.940">  1  5  2 -1</clus>
<clus scale="   30.443">  1  5  2 -1</clus>
</clustering>
</event>
<event>
 9    1  0.1973774E-005  0.1275218E+03  0.7546771E-02  0.1235029E+00
          1   -1    0    0  502    0  0.00000000000E+00  0.00000000000E+00  0.32323931939E+03  0.32323931939E+03  0.00000000000E+00 0. -1.
         -2   -1    0    0    0  501 -0.00000000000E+00 -0.00000000000E+00 -0.10800572158E+03  0.10800572158E+03  0.00000000000E+00 0.  1.
         23    2    1    2    0    0 -0.60946832004E+02 -0.63466963629E+02 -0.15828249650E+02  0.12591480362E+03  0.88664719478E+02 0.  0.
        -24    2    1    2    0    0  0.24331575491E+02  0.11247481182E+03  0.14127170642E+03  0.19668072921E+03  0.74047318287E+02 0.  0.
         11    1    4    4    0    0  0.41573205905E+02  0.95891130572E+02  0.13710420514E+03  0.17239780578E+03  0.00000000000E+00 0. -1.
        -12    1    4    4    0    0 -0.17241630414E+02  0.16583681250E+02  0.41675012846E+01  0.24282923426E+02  0.00000000000E+00 0.  1.
        -13    1    3    3    0    0 -0.56833749074E+02  0.41335504169E+01 -0.10840659865E+02  0.58005871937E+02  0.00000000000E+00 0.  1.
         13    1    3    3    0    0 -0.41130829291E+01 -0.67600514046E+02 -0.49875897854E+01  0.67908931683E+02  0.00000000000E+00 0. -1.
         21    1    1    2  502  501  0.36615256513E+02 -0.49007848193E+02  0.89790141032E+02  0.10864950815E+03  0.00000000000E+00 0.  1.
<scales pt_clust_5="13000.00000" pt_clust_6="13000.00000" pt_clust_7="13000.00000" pt_clust_8="13000.00000" pt_clust_9="61.17554"></scales>
<clustering>
<clus scale="   61.176">  1  9  2 -1</clus>
<clus scale="   74.047">  5  6 -1 -1</clus>
<clus scale="   88.665">  7  8 -1 -1</clus>
<clus scale="  117.828">  1  5  2 -1</clus>
<clus scale="   61.176">  1  5  2 -1</clus>
</clustering>
</event>
<event>
 9    1  0.1973774E-005  0.9143583E+02  0.7546771E-02  0.1300004E+00
         -4   -1    0    0    0  501 -0.00000000000E+00  0.00000000000E+00  0.42862606163E+02  0.42862606163E+02  0.00000000000E+00 0.  1.
          3   -1    0    0  502    0  0.00000000000E+00 -0.00000000000E+00 -0.29531149422E+03  0.29531149422E+03  0.00000000000E+00 0. -1.
        -24    2    1    2    0    0 -0.32107205384E+02 -0.21303909520E+02 -0.67944706490E+02  0.11197537918E+03  0.80232619323E+02 0.  0.
         23    2    1    2    0    0  0.52309080140E+02 -0.33976528322E+01 -0.11940109570E+03  0.15369565426E+03  0.81350774894E+02 0.  0.
         11    1    3    3    0    0 -0.23982231949E+02  0.21568827890E+02 -0.59281016215E+02  0.67487781630E+02  0.00000000000E+00 0. -1.
        -12    1    3    3    0    0 -0.81249734341E+01 -0.42872737410E+02 -0.86636902745E+01  0.44487597547E+02  0.00000000000E+00 0.  1.
        -13    1    4    4    0    0  0.26954071393E+02  0.66530654329E+01 -0.12308167733E+03  0.12617402482E+03  0.00000000000E+00 0. -1.
         13    1    4    4    0    0  0.25355008747E+02 -0.10050718265E+02  0.36805816325E+01  0.27521629446E+02  0.00000000000E+00 0.  1.
         21    1    1    2  502  501 -0.20201874757E+02  0.24701562352E+02 -0.65103085873E+02  0.72503066945E+02  0.00000000000E+00 0. -1.
<scales pt_clust_5="13000.00000" pt_clust_6="13000.00000" pt_clust_7="13000.00000" pt_clust_8="13000.00000" pt_clust_9="31.91055"></scales>
<clustering>
<clus scale="   31.911">  2  9  1 -1</clus>
<clus scale="   80.233">  5  6 -1 -1</clus>
<clus scale="   81.351">  7  8 -1 -1</clus>
<clus scale="   90.442">  1  5  2 -1</clus>
<clus scale="   31.911">  2  5  1 -1</clus>
</clustering>
</event>
<event>
 9    1  0.1973774E-005  0.1121741E+03  0.7546771E-02  0.1260654E+00
         -2   -1    0    0    0  501 -0.00000000000E+00  0.00000000000E+00  0.90352552560E+02  0.90352552560E+02  0.00000000000E+00 0.  1.
          1   -1    0    0  502    0  0.00000000000E+00 -0.00000000000E+00 -0.40562360042E+03  0.40562360042E+03  0.00000000000E+00 0. -1.
        -24    2    1    2    0    0 -0.66913665248E+02  0.29895530778E+02  0.28065201340E+02  0.11220147166E+03  0.80189359382E+02 0.  0.
         23    2    1    2    0    0  0.27207415713E+02  0.23153344140E+02 -0.25671207448E+03  0.27471269423E+03  0.91047539092E+02 0.  0.
         11    1    3    3    0    0 -0.49557491148E+02  0.48628392578E+02 -0.59289733190E+01  0.69683701238E+02  0.00000000000E+00 0. -1.
        -12    1    3    3    0    0 -0.17356174100E+02 -0.18732861800E+02  0.33994174659E+02  0.42517770418E+02  0.00000000000E+00 0.  1.
        -11    1    4    4    0    0 -0.16828598586E+02  0.44928309695E+02 -0.14330453454E+03  0.15112228281E+03  0.00000000000E+00 0.  1.
         11    1    4    4    0    0  0.44036014299E+02 -0.21774965555E+02 -0.11340753994E+03  0.12359041142E+03  0.00000000000E+00 0. -1.
         21    1    1    2  502  501  0.39706249536E+02 -0.53048874918E+02 -0.86624174725E+02  0.10906198709E+03  0.00000000000E+00 0. -1.
<scales pt_clust_5="13000.00000" pt_clust_6="13000.00000" pt_clust_7="13000.00000" pt_clust_8="13000.00000" pt_clust_9="66.26288"></scales>
<clustering>
<clus scale="   66.263">  2  9  1 -1</clus>
<clus scale="   80.189">  5  6 -1 -1</clus>
<clus scale="   91.048">  7  8 -1 -1</clus>
<clus scale="  103.555">  1  5  2 -1</clus>
<clus scale="   66.263">  2  5  1 -1</clus>
</clustering>
</event>
<event>
 9    1  0.1973774E-005  0.9365170E+02  0.7546771E-02  0.1302583E+00
          3   -1    0    0  502    0  0.00000000000E+00  0.00000000000E+00  0.21722451710E+03  0.21722451710E+03  0.00000000000E+00 0. -1.
         -4   -1    0    0    0  501 -0.00000000000E+00 -0.00000000000E+00 -0.74447206759E+02  0.74447206759E+02  0.00000000000E+00 0.  1.
         23    2    1    2    0    0  0.65218391680E+01 -0.11946762588E+02 -0.17138996022E+02  0.94396557272E+02  0.91824317682E+02 0.  0.
        -24    2    1    2    0    0 -0.30602133037E+02  0.17334580418E+02  0.95551707151E+02  0.12834265782E+03  0.78132777061E+02 0.  0.
         13    1    4    4    0    0  0.26464284309E+02  0.70636611114E+01  0.25687977282E+02  0.37551642163E+02  0.00000000000E+00 0. -1.
        -14    1    4    4    0    0 -0.57066417347E+02  0.10270919306E+02  0.69863729868E+02  0.90791015653E+02  0.00000000000E+00 0.  1.
        -13    1    3    3    0    0 -0.12798224109E+02 -0.30785576487E+02  0.26838533660E+02  0.42800153609E+02  0.00000000000E+00 0.  1.
         13    1    3    3    0    0  0.19320063277E+02  0.18838813898E+02 -0.43977529681E+02  0.51596403663E+02  0.00000000000E+00 0. -1.
         21    1    1    2  502  501  0.24080293869E+02 -0.53878178295E+01  0.64364599215E+02  0.68932508774E+02  0.00000000000E+00 0. -1.
<scales pt_clust_5="13000.00000" pt_clust_6="13000.00000" pt_clust_7="13000.00000" pt_clust_8="13000.00000" pt_clust_9="24.67568"></scales>
<clustering>
<clus scale="   24.676">  1  9  2 -1</clus>
<clus scale="   78.133">  5  6 -1 -1</clus>
<clus scale="   80.272">  1  5  2 -1</clus>
<clus scale="   91.824">  7  8 -1 -1</clus>
<clus scale="   24.676">  1  5  2 -1</clus>
</clustering>
</event>
<event>
 9    1  0.1973774E-005  0.1389909E+03  0.7546771E-02  0.1216508E+00
         -2   -1    0    0    0  501 -0.00000000000E+00  0.00000000000E+00  0.36119504586E+02  0.36119504586E+02  0.00000000000E+00 0.  1.
          1   -1    0    0  502    0  0.00000000000E+00 -0.00000000000E+00 -0.71717299035E+03  0.71717299035E+03  0.00000000000E+00 0. -1.
        -24    2    1    2    0    0  0.18721432475E+02  0.93015831384E+02 -0.21565973005E+03  0.24968992460E+03  0.82665000801E+02 0.  0.
         23    2    1    2    0    0  0.18460983995E+02 -0.11485076406E+03 -0.38580051686E+03  0.41307975525E+03  0.90891910852E+02 0.  0.
         11    1    3    3    0    0  0.36916459812E+02  0.36378835515E+02 -0.43907243551E+02  0.67927098530E+02  0.00000000000E+00 0. -1.
        -12    1    3    3    0    0 -0.18195027337E+02  0.56636995869E+02 -0.17175248650E+03  0.18176282607E+03  0.00000000000E+00 0.  1.
        -13    1    4    4    0    0 -0.84061693603E+01 -0.10538592503E+03 -0.35797181051E+03  0.37325684722E+03  0.00000000000E+00 0.  1.
         13    1    4    4    0    0  0.26867153355E+02 -0.94648390316E+01 -0.27828706348E+02  0.39822908034E+02  0.00000000000E+00 0. -1.
         21    1    1    2  502  501 -0.37182416469E+02  0.21834932674E+02 -0.79593238853E+02  0.90522815083E+02  0.00000000000E+00 0. -1.
<scales pt_clust_5="13000.00000" pt_clust_6="13000.00000" pt_clust_7="13000.00000" pt_clust_8="13000.00000" pt_clust_9="43.11956"></scales>
<clustering>
<clus scale="   43.120">  1  9  2 -1</clus>
<clus scale="   82.665">  5  6 -1 -1</clus>
<clus scale="   90.892">  7  8 -1 -1</clus>
<clus scale="  133.756">  1  5  2 -1</clus>
<clus scale="  138.991">  2  5  1 -1</clus>
</clustering>
</event>
<event>
 9    1  0.1973774E-005  0.1142101E+03  0.7546771E-02  0.1256418E+00
          1   -1    0    0  502    0  0.00000000000E+00  0.00000000000E+00  0.31029043128E+03  0.31029043128E+03  0.00000000000E+00 0. -1.
         -2   -1    0    0    0  501 -0.00000000000E+00 -0.00000000000E+00 -0.65926013200E+02  0.65926013200E+02  0.00000000000E+00 0.  1.
        -24    2    1    2    0    0  0.24810150021E+02  0.94002974105E+02  0.78866380246E+02  0.14873250136E+03  0.80307834875E+02 0.  0.
         23    2    1    2    0    0 -0.81102038111E+01 -0.39056959884E+02  0.10868667571E+03  0.14670347798E+03  0.90099364335E+02 0.  0.
         11    1    3    3    0    0  0.24118130966E+02  0.10501437931E+03  0.51900240948E+02  0.11959656815E+03  0.00000000000E+00 0. -1.
        -12    1    3    3    0    0  0.69201905519E+00 -0.11011405208E+02  0.26966139298E+02  0.29135933204E+02  0.00000000000E+00 0.  1.
        -11    1    4    4    0    0  0.28762635708E+02 -0.31827380988E+02  0.14474293616E+02  0.45274458242E+02  0.00000000000E+00 0.  1.
         11    1    4    4    0    0 -0.36872839519E+02 -0.72295788958E+01  0.94212382098E+02  0.10142901974E+03  0.00000000000E+00 0. -1.
         21    1    1    2  502  501 -0.16699946210E+02 -0.54946014221E+02  0.56811362124E+02  0.80780465142E+02  0.00000000000E+00 0.  1.
<scales pt_clust_5="13000.00000" pt_clust_6="13000.00000" pt_clust_7="13000.00000" pt_clust_8="13000.00000" pt_clust_9="57.42780"></scales>
<clustering>
<clus scale="   57.428">  1  9  2 -1</clus>
<clus scale="   80.308">  5  6 -1 -1</clus>
<clus scale="   90.099">  7  8 -1 -1</clus>
<clus scale="  106.656">  2  5  1 -1</clus>
<clus scale="   57.428">  1  5  2 -1</clus>
</clustering>
</event>
<event>
 9    1  0.1973774E-005  0.9482545E+02  0.7546771E-02  0.1299759E+00
          1   -1    0    0  502    0  0.00000000000E+00  0.00000000000E+00  0.56091311490E+02  0.56091311490E+02  0.00000000000E+00 0. -1.
         -2   -1    0    0    0  501 -0.00000000000E+00 -0.00000000000E+00 -0.21020403899E+03  0.21020403899E+03  0.00000000000E+00 0.  1.
        -24    2    1    2    0    0 -0.28049338710E+02  0.22138395899E+01 -0.11796840109E+03  0.14342668855E+03  0.76570260837E+02 0.  0.
         23    2    1    2    0    0  0.26340923980E+02  0.17798666729E+02 -0.36507422704E+02  0.10278008485E+03  0.90665964486E+02 0.  0.
         11    1    3    3    0    0  0.81539606664E+01  0.23289369591E+02 -0.83068098994E+01  0.26036222867E+02  0.00000000000E+00 0. -1.
        -12    1    3    3    0    0 -0.36203299377E+02 -0.21075530001E+02 -0.10966159119E+03  0.11739046568E+03  0.00000000000E+00 0.  1.
        -13    1    4    4    0    0 -0.22829061446E+02 -0.99902750098E+01 -0.38959784237E+02  0.46247555925E+02  0.00000000000E+00 0.  1.
         13    1    4    4    0    0  0.49169985426E+02  0.27788941739E+02  0.24523615323E+01  0.56532528927E+02  0.00000000000E+00 0. -1.
         21    1    1    2  502  501  0.17084147304E+01 -0.20012506319E+02  0.36309629632E+00  0.20088577077E+02  0.00000000000E+00 0. -1.
<scales pt_clust_5="13000.00000" pt_clust_6="13000.00000" pt_clust_7="13000.00000" pt_clust_8="13000.00000" pt_clust_9="20.08530"></scales>
<clustering>
<clus scale="   20.085">  1  9  2 -1</clus>
<clus scale="   76.570">  5  6 -1 -1</clus>
<clus scale="   81.453">  2  5  1 -1</clus>
<clus scale="   90.666">  7  8 -1 -1</clus>
<clus scale="   20.085">  1  5  2 -1</clus>
</clustering>
</event>
<event>
 9    1  0.1973774E-005  0.9719890E+02  0.7546771E-02  0.1291972E+00
         -2   -1    0    0    0  501 -0.00000000000E+00  0.00000000000E+00  0.38284296084E+03  0.38284296084E+03  0.00000000000E+00 0.  1.
          1   -1    0    0  502    0  0.00000000000E+00 -0.00000000000E+00 -0.52130706733E+02  0.52130706733E+02  0.00000000000E+00 0. -1.
         23    2    1    2    0    0  0.17892211520E+02  0.38171607441E+02  0.27393079764E+03  0.29182375532E+03  0.91355456465E+02 0.  0.
        -24    2    1    2    0    0  0.90989919307E+01 -0.17768521062E+02  0.67997539049E+02  0.10750427429E+03  0.80839295383E+02 0.  0.
         13    1    4    4    0    0  0.59381137027E+01 -0.43675468835E+02  0.68435390845E+02  0.81401538637E+02  0.00000000000E+00 0. -1.
        -14    1    4    4    0    0  0.31608782280E+01  0.25906947774E+02 -0.43785179611E+00  0.26102735648E+02  0.00000000000E+00 0.  1.
        -11    1    3    3    0    0 -0.26110667417E+02  0.29388986610E+01  0.23906288974E+02  0.35523439175E+02  0.00000000000E+00 0. -1.
         11    1    3    3    0    0  0.44002878937E+02  0.35232708780E+02  0.25002450866E+03  0.25630031614E+03  0.00000000000E+00 0.  1.
         21    1    1    2  502  501 -0.26991203451E+02 -0.20403086379E+02 -0.11216082583E+02  0.35645637966E+02  0.00000000000E+00 0. -1.
<scales pt_clust_5="13000.00000" pt_clust_6="13000.00000" pt_clust_7="13000.00000" pt_clust_8="13000.00000" pt_clust_9="33.83506"></scales>
<clustering>
<clus scale="   33.835">  2  9  1 -1</clus>
<clus scale="   80.839">  5  6 -1 -1</clus>
<clus scale="   87.389">  2  5  1 -1</clus>
<clus scale="   91.355">  7  8 -1 -1</clus>
<clus scale="   33.835">  2  5  1 -1</clus>
</clustering>
</event>
<event>
 9    1  0.1973774E-005  0.1126495E+03  0.7546771E-02  0.1261106E+00
          1   -1    0    0  502    0  0.00000000000E+00  0.00000000000E+00  0.56953958897E+03  0.56953958897E+03  0.00000000000E+00 0. -1.
         -2   -1    0    0    0  501 -0.00000000000E+00 -0.00000000000E+00 -0.51109417565E+02  0.51109417565E+02  0.00000000000E+00 0.  1.
        -24    2    1    2    0    0 -0.61702102663E+02  0.22645162409E+02  0.21355822219E+02  0.10621890465E+03  0.80662455380E+02 0.  0.
         23    2    1    2    0    0  0.31508632502E+02 -0.12896613678E+02  0.39301388613E+03  0.40564012158E+03  0.94471567062E+02 0.  0.
         13    1    3    3    0    0 -0.47374026660E+02 -0.13925331206E+02  0.39230786349E+02  0.63065583710E+02  0.00000000000E+00 0. -1.
        -14    1    3    3    0    0 -0.14328076003E+02  0.36570493614E+02 -0.17874964130E+02  0.43153320936E+02  0.00000000000E+00 0.  1.
        -13    1    4    4    0    0  0.60309706224E+02 -0.19464994171E+02  0.33020336996E+03  0.33622970154E+03  0.00000000000E+00 0. -1.
         13    1    4    4    0    0 -0.28801073722E+02  0.65683804931E+01  0.62810516165E+02  0.69410420045E+02  0.00000000000E+00 0.  1.
         21    1    1    2  502  501  0.30193470161E+02 -0.97485487304E+01  0.10406046306E+03  0.10878998031E+03  0.00000000000E+00 0. -1.
<scales pt_clust_5="13000.00000" pt_clust_6="13000.00000" pt_clust_7="13000.00000" pt_clust_8="13000.00000" pt_clust_9="31.72822"></scales>
<clustering>
<clus scale="   31.728">  1  9  2 -1</clus>
<clus scale="   80.662">  5  6 -1 -1</clus>
<clus scale="   94.472">  7  8 -1 -1</clus>
<clus scale="  101.348">  2  5  1 -1</clus>
<clus scale="   31.728">  1  5  2 -1</clus>
</clustering>
</event>
<event>
 9    1  0.1973774E-005  0.1096531E+03  0.7546771E-02  0.1264422E+00
         -2   -1    0    0    0  501 -0.00000000000E+00  0.00000000000E+00  0.13335624774E+03  0.13335624774E+03  0.00000000000E+00 0.  1.
          1   -1    0    0  502    0  0.00000000000E+00 -0.00000000000E+00 -0.17494211776E+03  0.17494211776E+03  0.00000000000E+00 0. -1.
        -24    2    1    2    0    0  0.74826166648E+02  0.18822728693E+02  0.52655188145E+02  0.12409351177E+03  0.81690761379E+02 0.  0.
         23    2    1    2    0    0 -0.18146854626E+02 -0.36458505246E+02 -0.54736791361E+02  0.11290161312E+03  0.89956250364E+02 0.  0.
         13    1    3    3    0    0  0.35282180501E+02  0.41189897437E+02 -0.41053961700E+00  0.54236597004E+02  0.00000000000E+00 0. -1.
        -14    1    3    3    0    0  0.39543986147E+02 -0.22367168744E+02  0.53065727762E+02  0.69856914768E+02  0.00000000000E+00 0.  1.
        -11    1    4    4    0    0  0.21013311168E+02 -0.17098107845E+02  0.14733390156E+02  0.30837920221E+02  0.00000000000E+00 0.  1.
         11    1    4    4    0    0 -0.39160165793E+02 -0.19360397402E+02 -0.69470181517E+02  0.82063692901E+02  0.00000000000E+00 0. -1.
         21    1    1    2  502  501 -0.56679312022E+02  0.17635776553E+02 -0.39504266806E+02  0.71303240612E+02  0.00000000000E+00 0. -1.
<scales pt_clust_5="13000.00000" pt_clust_6="13000.00000" pt_clust_7="13000.00000" pt_clust_8="13000.00000" pt_clust_9="59.35962"></scales>
<clustering>
<clus scale="   59.360">  2  9  1 -1</clus>
<clus scale="   81.691">  5  6 -1 -1</clus>
<clus scale="   89.956">  7  8 -1 -1</clus>
<clus scale="  102.981">  1  5  2 -1</clus>
<clus scale="   59.360">  2  5  1 -1</clus>
</clustering>
</event>
<event>
 9    1  0.1973774E-005  0.3131096E+03  0.7546771E-02  0.1079245E+00
          1   -1    0    0  502    0  0.00000000000E+00  0.00000000000E+00  0.68510652115E+03  0.68510652115E+03  0.00000000000E+00 0. -1.
         -2   -1    0    0    0  501 -0.00000000000E+00 -0.00000000000E+00 -0.20188561800E+03  0.20188561800E+03  0.00000000000E+00 0.  1.
         23    2    1    2    0    0  0.29183347419E+03  0.22645840430E+02  0.35325222610E+02  0.30851197488E+03  0.90841381227E+02 0.  0.
        -24    2    1    2    0    0 -0.31418027119E+03 -0.50491183857E+02  0.38115317923E+03  0.50278799844E+03  0.79116514615E+02 0.  0.
         13    1    4    4    0    0 -0.81641758482E+02 -0.99669120947E+01  0.15716359598E+03  0.17738408037E+03  0.00000000000E+00 0. -1.
        -14    1    4    4    0    0 -0.23253851271E+03 -0.40524271762E+02  0.22398958325E+03  0.32540391807E+03  0.00000000000E+00 0.  1.
        -13    1    3    3    0    0  0.19306962441E+03  0.32137939977E+02 -0.16778784685E+02  0.19644402427E+03  0.00000000000E+00 0.  1.
         13    1    3    3    0    0  0.98763849785E+02 -0.94920995462E+01  0.52104007295E+02  0.11206795061E+03  0.00000000000E+00 0. -1.
         21    1    1    2  502  501  0.22346797002E+02  0.27845343427E+02  0.66742501315E+02  0.75692165833E+02  0.00000000000E+00 0. -1.
<scales pt_clust_5="13000.00000" pt_clust_6="13000.00000" pt_clust_7="13000.00000" pt_clust_8="13000.00000" pt_clust_9="35.70354"></scales>
<clustering>
<clus scale="   35.704">  1  9  2 -1</clus>
<clus scale="   79.117">  5  6 -1 -1</clus>
<clus scale="   90.841">  7  8 -1 -1</clus>
<clus scale="  309.911">  1  5  2 -1</clus>
<clus scale="   35.704">  1  5  2 -1</clus>
</clustering>
</event>
<event>
 9    1  0.1973774E-005  0.1623481E+03  0.7546771E-02  0.1186614E+00
         -2   -1    0    0    0  501 -0.00000000000E+00  0.00000000000E+00  0.12757706348E+03  0.12757706348E+03  0.00000000000E+00 0.  1.
          1   -1    0    0  502    0  0.00000000000E+00 -0.00000000000E+00 -0.48325662235E+03  0.48325662235E+03  0.00000000000E+00 0. -1.
         23    2    1    2    0    0 -0.60669677931E+01 -0.14062534688E+03  0.47859477000E+02  0.17109639179E+03  0.84682639660E+02 0.  0.
        -24    2    1    2    0    0  0.23042949033E+02  0.12370453370E+03 -0.36344426169E+03  0.39302446097E+03  0.80886997743E+02 0.  0.
         11    1    4    4    0    0  0.41068269900E+02  0.85881999625E+02 -0.31452242773E+03  0.32861326540E+03  0.00000000000E+00 0. -1.
        -12    1    4    4    0    0 -0.18025320868E+02  0.37822534077E+02 -0.48921833968E+02  0.64411195573E+02  0.00000000000E+00 0.  1.
        -11    1    3    3    0    0 -0.25994015423E+02 -0.10942222914E+03  0.24331259168E+01  0.11249370280E+03  0.00000000000E+00 0. -1.
         11    1    3    3    0    0  0.19927047630E+02 -0.31203117748E+02  0.45426351083E+02  0.58602688992E+02  0.00000000000E+00 0.  1.
         21    1    1    2  502  501 -0.16975981240E+02  0.16920813182E+02 -0.40094774177E+02  0.46712833077E+02  0.00000000000E+00 0. -1.
<scales pt_clust_5="13000.00000" pt_clust_6="13000.00000" pt_clust_7="13000.00000" pt_clust_8="13000.00000" pt_clust_9="23.96868"></scales>
<clustering>
<clus scale="   23.969">  2  9  1 -1</clus>
<clus scale="   80.887">  5  6 -1 -1</clus>
<clus scale="   84.683">  7  8 -1 -1</clus>
<clus scale="  160.401">  2  5  1 -1</clus>
<clus scale="   23.969">  2  5  1 -1</clus>
</clustering>
</event>
<event>
 9    1  0.1973774E-005  0.1285178E+03  0.7546771E-02  0.1244629E+00
         -2   -1    0    0    0  501 -0.00000000000E+00  0.00000000000E+00  0.81571084839E+02  0.81571084839E+02  0.00000000000E+00 0.  1.
          1   -1    0    0  502    0  0.00000000000E+00 -0.00000000000E+00 -0.41480619810E+03  0.41480619810E+03  0.00000000000E+00 0. -1.
        -24    2    1    2    0    0  0.35444424009E+02  0.31601393960E+02 -0.36023092027E+01  0.94781166733E+02  0.81948384012E+02 0.  0.
         23    2    1    2    0    0  0.73584282507E+02 -0.14977432844E+02 -0.18777951332E+03  0.22191314255E+03  0.91352761800E+02 0.  0.
         13    1    3    3    0    0 -0.20348599990E+02  0.74455335445E+01  0.20072489679E+02  0.29536525409E+02  0.00000000000E+00 0. -1.
        -14    1    3    3    0    0  0.55793023999E+02  0.24155860415E+02 -0.23674798882E+02  0.65244641324E+02  0.00000000000E+00 0.  1.
        -13    1    4    4    0    0  0.37009059105E+02  0.37220389404E+02 -0.64733370588E+02  0.83339289119E+02  0.00000000000E+00 0.  1.
         13    1    4    4    0    0  0.36575223402E+02 -0.52197822248E+02 -0.12304614273E+03  0.13857385343E+03  0.00000000000E+00 0. -1.
         21    1    1    2  502  501 -0.10902870652E+03 -0.16623961115E+02 -0.14185329074E+03  0.17968297366E+03  0.00000000000E+00 0. -1.
<scales pt_clust_5="13000.00000" pt_clust_6="13000.00000" pt_clust_7="13000.00000" pt_clust_8="13000.00000" pt_clust_9="90.39628"></scales>
<clustering>
<clus scale="   81.948">  5  6 -1 -1</clus>
<clus scale="   91.353">  7  8 -1 -1</clus>
<clus scale="   94.713">  1  5  2 -1</clus>
<clus scale="   90.396">  1  9  2 -1</clus>
<clus scale="  128.518">  2  5  1 -1</clus>
</clustering>
</event>
<event>
 9    1  0.1973774E-005  0.9381584E+02  0.7546771E-02  0.1299174E+00
          1   -1    0    0  502    0  0.00000000000E+00  0.00000000000E+00  0.11190297040E+03  0.11190297040E+03  0.00000000000E+00 0. -1.
         -2   -1    0    0    0  501 -0.00000000000E+00 -0.00000000000E+00 -0.30257185730E+03  0.30257185730E+03  0.00000000000E+00 0.  1.
        -24    2    1    2    0    0 -0.40225396498E+01 -0.33492158254E+02 -0.22393772128E+03  0.24048581106E+03  0.80916109769E+02 0.  0.
         23    2    1    2    0    0  0.28473585179E+02 -0.17135988666E+02 -0.18214539770E+02  0.97755161287E+02  0.90110570626E+02 0.  0.
         13    1    3    3    0    0  0.62069905865E+01 -0.47054007192E+02 -0.64155354701E+02  0.79802981534E+02  0.00000000000E+00 0. -1.
        -14    1    3    3    0    0 -0.10229530236E+02  0.13561848938E+02 -0.15978236657E+03  0.16068282952E+03  0.00000000000E+00 0.  1.
        -11    1    4    4    0    0 -0.28784905320E+02  0.12135551575E+02 -0.10654915721E+02  0.33005599758E+02  0.00000000000E+00 0.  1.
         11    1    4    4    0    0  0.57258490500E+02 -0.29271540241E+02 -0.75596240487E+01  0.64749561529E+02  0.00000000000E+00 0. -1.
         21    1    1    2  502  501 -0.24451045530E+02  0.50628146920E+02  0.51483374151E+02  0.76233855353E+02  0.00000000000E+00 0.  1.
<scales pt_clust_5="13000.00000" pt_clust_6="13000.00000" pt_clust_7="13000.00000" pt_clust_8="13000.00000" pt_clust_9="56.22333"></scales>
<clustering>
<clus scale="   56.223">  1  9  2 -1</clus>
<clus scale="   80.916">  5  6 -1 -1</clus>
<clus scale="   85.023">  2  5  1 -1</clus>
<clus scale="   90.111">  7  8 -1 -1</clus>
<clus scale="   56.223">  1  5  2 -1</clus>
</clustering>
</event>
<event>
 9    1  0.1973774E-005  0.1094506E+03  0.7546771E-02  0.1266036E+00
          1   -1    0    0  502    0  0.00000000000E+00  0.00000000000E+00  0.75034412491E+03  0.75034412491E+03  0.00000000000E+00 0. -1.
         -2   -1    0    0    0  501 -0.00000000000E+00 -0.00000000000E+00 -0.24881433826E+03  0.24881433826E+03  0.00000000000E+00 0.  1.
         23    2    1    2    0    0  0.54795830033E+02  0.29917416066E+02 -0.22983547866E+03  0.25494929501E+03  0.90978904153E+02 0.  0.
        -24    2    1    2    0    0 -0.77015873350E+01 -0.21305681589E+02  0.34218919108E+03  0.35209943045E+03  0.79795488036E+02 0.  0.
         13    1    4    4    0    0 -0.43756764567E+02 -0.12863469150E+02  0.20385762896E+03  0.20889723830E+03  0.00000000000E+00 0. -1.
        -14    1    4    4    0    0  0.36055177232E+02 -0.84422124387E+01  0.13833156212E+03  0.14320219214E+03  0.00000000000E+00 0.  1.
        -11    1    3    3    0    0 -0.24433364506E+02  0.16966843928E+02 -0.53917872244E+02  0.61579217609E+02  0.00000000000E+00 0. -1.
         11    1    3    3    0    0  0.79229194539E+02  0.12950572138E+02 -0.17591760642E+03  0.19337007740E+03  0.00000000000E+00 0.  1.
         21    1    1    2  502  501 -0.47094242698E+02 -0.86117344775E+01  0.38917607422E+03  0.39210973772E+03  0.00000000000E+00 0. -1.
<scales pt_clust_5="13000.00000" pt_clust_6="13000.00000" pt_clust_7="13000.00000" pt_clust_8="13000.00000" pt_clust_9="47.87515"></scales>
<clustering>
<clus scale="   47.875">  1  9  2 -1</clus>
<clus scale="   79.795">  5  6 -1 -1</clus>
<clus scale="   90.979">  7  8 -1 -1</clus>
<clus scale="  100.347">  1  5  2 -1</clus>
<clus scale="   47.875">  1  5  2 -1</clus>
</clustering>
</event>
<event>
 9    1  0.1973774E-005  0.9759827E+02  0.7546771E-02  0.1291233E+00
          3   -1    0    0  502    0  0.00000000000E+00  0.00000000000E+00  0.10161183676E+03  0.10161183676E+03  0.00000000000E+00 0. -1.
         -4   -1    0    0    0  501 -0.00000000000E+00 -0.00000000000E+00 -0.17757341918E+03  0.17757341918E+03  0.00000000000E+00 0.  1.
        -24    2    1    2    0    0  0.23772044997E+02 -0.15136041027E+02 -0.10435906790E+03  0.13568047666E+03  0.82001017256E+02 0.  0.
         23    2    1    2    0    0 -0.12643181032E+02  0.46235295156E+02  0.79217117124E+01  0.10464255428E+03  0.92680947910E+02 0.  0.
         11    1    3    3    0    0  0.52059399064E+02 -0.36129012777E+01 -0.44930866974E+02  0.68862303865E+02  0.00000000000E+00 0. -1.
        -12    1    3    3    0    0 -0.28287354066E+02 -0.11523139750E+02 -0.59428200928E+02  0.66818172792E+02  0.00000000000E+00 0.  1.
        -11    1    4    4    0    0 -0.92264106172E+01 -0.19265550597E+02 -0.23633834943E+02  0.31856651532E+02  0.00000000000E+00 0. -1.
         11    1    4    4    0    0 -0.34167704149E+01  0.65500845753E+02  0.31555546656E+02  0.72785902751E+02  0.00000000000E+00 0.  1.
         21    1    1    2  502  501 -0.11128863965E+02 -0.31099254129E+02  0.20475773770E+02  0.38862225001E+02  0.00000000000E+00 0.  1.
<scales pt_clust_5="13000.00000" pt_clust_6="13000.00000" pt_clust_7="13000.00000" pt_clust_8="13000.00000" pt_clust_9="33.03052"></scales>
<clustering>
<clus scale="   33.031">  1  9  2 -1</clus>
<clus scale="   82.001">  5  6 -1 -1</clus>
<clus scale="   87.520">  2  5  1 -1</clus>
<clus scale="   92.681">  7  8 -1 -1</clus>
<clus scale="   33.031">  1  5  2 -1</clus>
</clustering>
</event>
<event>
 9    1  0.1973774E-005  0.1135712E+03  0.7546771E-02  0.1257751E+00
         -2   -1    0    0    0  501 -0.00000000000E+00  0.00000000000E+00  0.19318555482E+03  0.19318555482E+03  0.00000000000E+00 0.  1.
          1   -1    0    0  502    0  0.00000000000E+00 -0.00000000000E+00 -0.12897543987E+03  0.12897543987E+03  0.00000000000E+00 0. -1.
        -24    2    1    2    0    0  0.24859328618E+02  0.68692699233E+02  0.12761948337E+03  0.16769083551E+03  0.80602795428E+02 0.  0.
         23    2    1    2    0    0 -0.35221334702E+02 -0.36400027884E+02 -0.60932897623E+02  0.12046544333E+03  0.90739189859E+02 0.  0.
         11    1    3    3    0    0 -0.95783453094E+01  0.70122288165E+02  0.64411079953E+02  0.95695701142E+02  0.00000000000E+00 0. -1.
        -12    1    3    3    0    0  0.34437673927E+02 -0.14295889318E+01  0.63208403414E+02  0.71995134365E+02  0.00000000000E+00 0.  1.
        -13    1    4    4    0    0 -0.20406521293E+02 -0.15531844714E+02 -0.82876594670E+02  0.86753641166E+02  0.00000000000E+00 0. -1.
         13    1    4    4    0    0 -0.14814813409E+02 -0.20868183171E+02  0.21943697047E+02  0.33711802166E+02  0.00000000000E+00 0.  1.
         21    1    1    2  502  501  0.10362006084E+02 -0.32292671349E+02 -0.24764707968E+01  0.34004715857E+02  0.00000000000E+00 0. -1.
<scales pt_clust_5="13000.00000" pt_clust_6="13000.00000" pt_clust_7="13000.00000" pt_clust_8="13000.00000" pt_clust_9="33.91442"></scales>
<clustering>
<clus scale="   33.914">  2  9  1 -1</clus>
<clus scale="   80.603">  5  6 -1 -1</clus>
<clus scale="   90.739">  7  8 -1 -1</clus>
<clus scale="  105.649">  1  5  2 -1</clus>
<clus scale="   33.914">  2  5  1 -1</clus>
</clustering>
</event>
<event>
 9    1  0.1973774E-005  0.1317210E+03  0.7546771E-02  0.1231480E+00
         -4   -1    0    0    0  501 -0.00000000000E+00  0.00000000000E+00  0.10011623103E+03  0.10011623103E+03  0.00000000000E+00 0.  1.
          3   -1    0    0  502    0  0.00000000000E+00 -0.00000000000E+00 -0.31875539319E+03  0.31875539319E+03  0.00000000000E+00 0. -1.
        -24    2    1    2    0    0  0.28486907776E+02 -0.72733659008E+02  0.44445276815E+01  0.11273312174E+03  0.81162268593E+02 0.  0.
         23    2    1    2    0    0 -0.82950117054E+02  0.59917532168E+02 -0.11913519309E+03  0.18808857978E+03  0.10350500968E+03 0.  0.
         13    1    3    3    0    0 -0.21561308652E+01 -0.37672967399E+02  0.39364567699E+02  0.54529538445E+02  0.00000000000E+00 0. -1.
        -14    1    3    3    0    0  0.30643038641E+02 -0.35060691610E+02 -0.34920040017E+02  0.58203583293E+02  0.00000000000E+00 0.  1.
        -13    1    4    4    0    0 -0.60983754410E+01  0.33698095210E+02 -0.98533050119E+02  0.10431449453E+03  0.00000000000E+00 0. -1.
         13    1    4    4    0    0 -0.76851741613E+02  0.26219436958E+02 -0.20602142970E+02  0.83774085243E+02  0.00000000000E+00 0.  1.
         21    1    1    2  502  501  0.54463209278E+02  0.12816126841E+02 -0.10394849676E+03  0.11804992270E+03  0.00000000000E+00 0. -1.
<scales pt_clust_5="13000.00000" pt_clust_6="13000.00000" pt_clust_7="13000.00000" pt_clust_8="13000.00000" pt_clust_9="55.95082"></scales>
<clustering>
<clus scale="   55.951">  2  9  1 -1</clus>
<clus scale="   81.162">  5  6 -1 -1</clus>
<clus scale="  103.505">  7  8 -1 -1</clus>
<clus scale="  114.998">  1  5  2 -1</clus>
<clus scale="   55.951">  2  5  1 -1</clus>
</clustering>
</event>
<event>
 9    1  0.1973774E-005  0.1389561E+03  0.7546771E-02  0.1217545E+00
         -2   -1    0    0    0  501 -0.00000000000E+00  0.00000000000E+00  0.23844272371E+03  0.23844272371E+03  0.00000000000E+00 0.  1.
          1   -1    0    0  502    0  0.00000000000E+00 -0.00000000000E+00 -0.34241255240E+03  0.34241255240E+03  0.00000000000E+00 0. -1.
         23    2    1    2    0    0 -0.75484934752E+02 -0.67468779232E+02  0.18938158477E+03  0.23420685653E+03  0.93474357196E+02 0.  0.
        -24    2    1    2    0    0  0.76000661609E+02  0.99067706202E+02 -0.26607306845E+03  0.30490076974E+03  0.81111593857E+02 0.  0.
         13    1    4    4    0    0  0.34984149949E+02  0.38066662364E+02 -0.19826039075E+03  0.20489056609E+03  0.00000000000E+00 0. -1.
        -14    1    4    4    0    0  0.41016511661E+02  0.61001043838E+02 -0.67812677696E+02  0.10001020365E+03  0.00000000000E+00 0.  1.
        -11    1    3    3    0    0  0.15072775299E+02 -0.26908376519E+02  0.16768336791E+02  0.35105931135E+02  0.00000000000E+00 0. -1.
         11    1    3    3    0    0 -0.90557710051E+02 -0.40560402713E+02  0.17261324798E+03  0.19910092540E+03  0.00000000000E+00 0.  1.
         21    1    1    2  502  501 -0.51572685744E+00 -0.31598926969E+02 -0.27278345006E+02  0.41747649827E+02  0.00000000000E+00 0.  1.
<scales pt_clust_5="13000.00000" pt_clust_6="13000.00000" pt_clust_7="13000.00000" pt_clust_8="13000.00000" pt_clust_9="31.60314"></scales>
<clustering>
<clus scale="   31.603">  2  9  1 -1</clus>
<clus scale="   81.112">  5  6 -1 -1</clus>
<clus scale="   93.474">  7  8 -1 -1</clus>
<clus scale="  130.960">  2  5  1 -1</clus>
<clus scale="   31.603">  2  5  1 -1</clus>
</clustering>
</event>
<event>
 9    1  0.1973774E-005  0.1454583E+03  0.7546771E-02  0.1208007E+00
         -2   -1    0    0    0  501 -0.00000000000E+00  0.00000000000E+00  0.34212554153E+03  0.34212554153E+03  0.00000000000E+00 0.  1.
          1   -1    0    0  502    0  0.00000000000E+00 -0.00000000000E+00 -0.19491656748E+03  0.19491656748E+03  0.00000000000E+00 0. -1.
         23    2    1    2    0    0 -0.14583657061E+02  0.11702010738E+03  0.29087967907E+03  0.32682669084E+03  0.91095057836E+02 0.  0.
        -24    2    1    2    0    0  0.17438987311E+02 -0.78203221267E+02 -0.10897579682E+03  0.15807483692E+03  0.81805059004E+02 0.  0.
         13    1    4    4    0    0  0.41757230265E+01 -0.93694037127E+02 -0.84729559382E+02  0.12639267182E+03  0.00000000000E+00 0. -1.
        -14    1    4    4    0    0  0.13263264285E+02  0.15490815860E+02 -0.24246237442E+02  0.31682165103E+02  0.00000000000E+00 0.  1.
        -13    1    3    3    0    0  0.11540540960E+02  0.11682139078E+03  0.19646675140E+03  0.22886591235E+03  0.00000000000E+00 0. -1.
         13    1    3    3    0    0 -0.26124198021E+02  0.19871659996E+00  0.94412927672E+02  0.97960778488E+02  0.00000000000E+00 0.  1.
         21    1    1    2  502  501 -0.28553302502E+01 -0.38816886114E+02 -0.34694908198E+02  0.52140581252E+02  0.00000000000E+00 0.  1.
<scales pt_clust_5="13000.00000" pt_clust_6="13000.00000" pt_clust_7="13000.00000" pt_clust_8="13000.00000" pt_clust_9="38.92176"></scales>
<clustering>
<clus scale="   38.922">  2  9  1 -1</clus>
<clus scale="   81.805">  5  6 -1 -1</clus>
<clus scale="   91.095">  7  8 -1 -1</clus>
<clus scale="  139.828">  2  5  1 -1</clus>
<clus scale="   38.922">  2  5  1 -1</clus>
</clustering>
</event>
<event>
 9    1  0.1973774E-005  0.1379397E+03  0.7546771E-02  0.1218809E+00
          1   -1    0    0  502    0  0.00000000000E+00  0.00000000000E+00  0.10123568786E+03  0.10123568786E+03  0.00000000000E+00 0. -1.
         -2   -1    0    0    0  501 -0.00000000000E+00 -0.00000000000E+00 -0.65708414327E+03  0.65708414327E+03  0.00000000000E+00 0.  1.
         23    2    1    2    0    0 -0.91655191991E+02  0.44331160768E+02 -0.56294571414E+03  0.57928597857E+03  0.91095784036E+02 0.  0.
        -24    2    1    2    0    0  0.11188505865E+03 -0.50631089178E+02  0.28565352192E+02  0.14887070220E+03  0.79150066879E+02 0.  0.
         13    1    4    4    0    0  0.11642649938E+03 -0.26856498276E+02  0.33662705540E+02  0.12413532536E+03  0.00000000000E+00 0. -1.
        -14    1    4    4    0    0 -0.45414407277E+01 -0.23774590901E+02 -0.50973533473E+01  0.24735376843E+02  0.00000000000E+00 0.  1.
        -11    1    3    3    0    0 -0.15425084653E+02  0.54653113334E+02 -0.18211515941E+03  0.19076379981E+03  0.00000000000E+00 0. -1.
         11    1    3    3    0    0 -0.76230107338E+02 -0.10321952566E+02 -0.38083055473E+03  0.38852217876E+03  0.00000000000E+00 0.  1.
         21    1    1    2  502  501 -0.20229866661E+02  0.62999284097E+01 -0.21468093464E+02  0.30163150367E+02  0.00000000000E+00 0.  1.
<scales pt_clust_5="13000.00000" pt_clust_6="13000.00000" pt_clust_7="13000.00000" pt_clust_8="13000.00000" pt_clust_9="21.18812"></scales>
<clustering>
<clus scale="   21.188">  1  9  2 -1</clus>
<clus scale="   79.150">  5  6 -1 -1</clus>
<clus scale="   91.096">  7  8 -1 -1</clus>
<clus scale="  130.360">  1  5  2 -1</clus>
<clus scale="   21.188">  1  5  2 -1</clus>
</clustering>
</event>
<event>
 9    1  0.1973774E-005  0.9758609E+02  0.7546771E-02  0.1291631E+00
         -2   -1    0    0    0  501 -0.00000000000E+00  0.00000000000E+00  0.27286266014E+02  0.27286266014E+02  0.00000000000E+00 0.  1.
          1   -1    0    0  502    0  0.00000000000E+00 -0.00000000000E+00 -0.57609265425E+03  0.57609265425E+03  0.00000000000E+00 0. -1.
        -24    2    1    2    0    0 -0.32479502623E+02 -0.14192896751E+02 -0.14504453550E+03  0.17003176597E+03  0.81342041715E+02 0.  0.
         23    2    1    2    0    0  0.28313457093E+02 -0.20022664060E+02 -0.16716357069E+03  0.19425134169E+03  0.92668039021E+02 0.  0.
         13    1    3    3    0    0 -0.13308610054E+02  0.28840465736E+02 -0.99726677717E+02  0.10466280053E+03  0.00000000000E+00 0. -1.
        -14    1    3    3    0    0 -0.19170892569E+02 -0.43033362486E+02 -0.45317857784E+02  0.65368965441E+02  0.00000000000E+00 0.  1.
        -13    1    4    4    0    0  0.94030616599E+01  0.36562224936E+02 -0.48763893488E+02  0.61669531934E+02  0.00000000000E+00 0. -1.
         13    1    4    4    0    0  0.18910395433E+02 -0.56584888996E+02 -0.11839967720E+03  0.13258180976E+03  0.00000000000E+00 0.  1.
         21    1    1    2  502  501  0.41660455302E+01  0.34215560811E+02 -0.23659828205E+03  0.23909581260E+03  0.00000000000E+00 0. -1.
<scales pt_clust_5="13000.00000" pt_clust_6="13000.00000" pt_clust_7="13000.00000" pt_clust_8="13000.00000" pt_clust_9="34.46825"></scales>
<clustering>
<clus scale="   34.468">  2  9  1 -1</clus>
<clus scale="   81.342">  5  6 -1 -1</clus>
<clus scale="   86.903">  1  5  2 -1</clus>
<clus scale="   92.668">  7  8 -1 -1</clus>
<clus scale="   34.468">  2  5  1 -1</clus>
</clustering>
</event>
<event>
 9    1  0.1973774E-005  0.1701817E+03  0.7546771E-02  0.1179344E+00
          1   -1    0    0  502    0  0.00000000000E+00  0.00000000000E+00  0.44525477287E+03  0.44525477287E+03  0.00000000000E+00 0. -1.
         -2   -1    0    0    0  501 -0.00000000000E+00 -0.00000000000E+00 -0.10501693239E+03  0.10501693239E+03  0.00000000000E+00 0.  1.
        -24    2    1    2    0    0 -0.21812090172E+02 -0.15638327739E+03  0.42837410162E+02  0.18160732297E+03  0.78833237414E+02 0.  0.
         23    2    1    2    0    0  0.13913827156E+01  0.13946258555E+03  0.29875435720E+03  0.34210975513E+03  0.91286197741E+02 0.  0.
         11    1    3    3    0    0  0.70490494741E+01 -0.84796673141E+02  0.57960378160E+02  0.10295421463E+03  0.00000000000E+00 0. -1.
        -12    1    3    3    0    0 -0.28861139646E+02 -0.71586604254E+02 -0.15122967998E+02  0.78653108339E+02  0.00000000000E+00 0.  1.
        -13    1    4    4    0    0  0.11620513214E+02  0.37713363499E+02  0.18120549926E+02  0.43424514314E+02  0.00000000000E+00 0.  1.
         13    1    4    4    0    0 -0.10229130499E+02  0.10174922205E+03  0.28063380728E+03  0.29868524082E+03  0.00000000000E+00 0. -1.
         21    1    1    2  502  501  0.20420707456E+02  0.16920691848E+02 -0.13539268815E+01  0.26554627161E+02  0.00000000000E+00 0. -1.
<scales pt_clust_5="13000.00000" pt_clust_6="13000.00000" pt_clust_7="13000.00000" pt_clust_8="13000.00000" pt_clust_9="26.52009"></scales>
<clustering>
<clus scale="   26.520">  2  9  1 -1</clus>
<clus scale="   78.833">  5  6 -1 -1</clus>
<clus scale="   91.286">  7  8 -1 -1</clus>
<clus scale="  163.839">  2  5  1 -1</clus>
<clus scale="  170.182">  1  5  2 -1</clus>
</clustering>
</event>
<event>
 9    1  0.1973774E-005  0.1077720E+03  0.7546771E-02  0.1267004E+00
         -4   -1    0    0    0  501 -0.00000000000E+00  0.00000000000E+00  0.47926988038E+03  0.47926988038E+03  0.00000000000E+00 0.  1.
          3   -1    0    0  502    0  0.00000000000E+00 -0.00000000000E+00 -0.34648011790E+02  0.34648011790E+02  0.00000000000E+00 0. -1.
        -24    2    1    2    0    0 -0.51441228523E+02 -0.18905149891E+02  0.24007763853E+03  0.25927201151E+03  0.81123971464E+02 0.  0.
         23    2    1    2    0    0  0.73589765936E+02  0.27642063266E+02  0.19777621083E+03  0.22989315456E+03  0.86924654927E+02 0.  0.
         11    1    3    3    0    0 -0.29876157441E+01  0.28826218703E+02  0.56485354717E+02  0.63485998693E+02  0.00000000000E+00 0. -1.
        -12    1    3    3    0    0 -0.48453612778E+02 -0.47731368594E+02  0.18359228382E+03  0.19578601282E+03  0.00000000000E+00 0.  1.
        -11    1    4    4    0    0 -0.17757981648E+01 -0.21396415745E+02  0.14979226474E+02  0.26178947488E+02  0.00000000000E+00 0. -1.
         11    1    4    4    0    0  0.75365564101E+02  0.49038479011E+02  0.18279698435E+03  0.20371420707E+03  0.00000000000E+00 0.  1.
         21    1    1    2  502  501 -0.22148537413E+02 -0.87369133748E+01  0.67680192337E+01  0.24752726097E+02  0.00000000000E+00 0.  1.
<scales pt_clust_5="13000.00000" pt_clust_6="13000.00000" pt_clust_7="13000.00000" pt_clust_8="13000.00000" pt_clust_9="23.80948"></scales>
<clustering>
<clus scale="   23.809">  2  9  1 -1</clus>
<clus scale="   81.124">  5  6 -1 -1</clus>
<clus scale="   86.925">  7  8 -1 -1</clus>
<clus scale="  103.150">  1  5  2 -1</clus>
<clus scale="   23.809">  2  5  1 -1</clus>
</clustering>
</event>
<event>
 9    1  0.1973774E-005  0.9137564E+02  0.7546771E-02  0.1305177E+00
          1   -1    0    0  502    0  0.00000000000E+00  0.00000000000E+00  0.50203823314E+03  0.50203823314E+03  0.00000000000E+00 0. -1.
         -2   -1    0    0    0  501 -0.00000000000E+00 -0.00000000000E+00 -0.10101579740E+03  0.10101579740E+03  0.00000000000E+00 0.  1.
        -24    2    1    2    0    0 -0.10600144946E+02  0.29452541234E+02 -0.72754381577E+02  0.11015129719E+03  0.76552550420E+02 0.  0.
         23    2    1    2    0    0  0.28114765308E+02 -0.25613301605E+01  0.42470113122E+03  0.43426552567E+03  0.86130688397E+02 0.  0.
         13    1    3    3    0    0  0.26320809673E+02  0.35322406480E+02 -0.48846378705E+02  0.65775573992E+02  0.00000000000E+00 0. -1.
        -14    1    3    3    0    0 -0.36920954619E+02 -0.58698652452E+01 -0.23908002873E+02  0.44375723198E+02  0.00000000000E+00 0.  1.
        -11    1    4    4    0    0  0.16542272607E+02 -0.44307560167E+02  0.22664348508E+03  0.23152554071E+03  0.00000000000E+00 0. -1.
         11    1    4    4    0    0  0.11572492701E+02  0.41746230007E+02  0.19805764614E+03  0.20273998496E+03  0.00000000000E+00 0.  1.
         21    1    1    2  502  501 -0.17514620362E+02 -0.26891211074E+02  0.49075686095E+02  0.58637207685E+02  0.00000000000E+00 0. -1.
<scales pt_clust_5="13000.00000" pt_clust_6="13000.00000" pt_clust_7="13000.00000" pt_clust_8="13000.00000" pt_clust_9="32.09204"></scales>
<clustering>
<clus scale="   32.092">  1  9  2 -1</clus>
<clus scale="   76.553">  5  6 -1 -1</clus>
<clus scale="   82.409">  2  5  1 -1</clus>
<clus scale="   86.131">  7  8 -1 -1</clus>
<clus scale="   32.092">  1  5  2 -1</clus>
</clustering>
</event>
<event>
 9    1  0.1973774E-005  0.1049518E+03  0.7546771E-02  0.1274958E+00
         -2   -1    0    0    0  501 -0.00000000000E+00  0.00000000000E+00  0.72852091493E+03  0.72852091493E+03  0.00000000000E+00 0.  1.
          1   -1    0    0  502    0  0.00000000000E+00 -0.00000000000E+00 -0.11634730251E+03  0.11634730251E+03  0.00000000000E+00 0. -1.
        -24    2    1    2    0    0 -0.48816118922E+02 -0.20707321412E+02  0.59002010146E+03  0.59780942479E+03  0.80253234304E+02 0.  0.
         23    2    1    2    0    0  0.26916025399E+01  0.92944060081E+02  0.71203012912E+02  0.14830925560E+03  0.90994083430E+02 0.  0.
         13    1    3    3    0    0 -0.47492737911E+02 -0.45474229888E+02  0.32204431113E+03  0.32868830839E+03  0.00000000000E+00 0. -1.
        -14    1    3    3    0    0 -0.13233810114E+01  0.24766908475E+02  0.26797579033E+03  0.26912111640E+03  0.00000000000E+00 0.  1.
        -13    1    4    4    0    0  0.35185761139E+02  0.67776436100E+02  0.13632358930E+02  0.77572703236E+02  0.00000000000E+00 0.  1.
         13    1    4    4    0    0 -0.32494158599E+02  0.25167623981E+02  0.57570653982E+02  0.70736552360E+02  0.00000000000E+00 0. -1.
         21    1    1    2  502  501  0.46124516382E+02 -0.72236738669E+02 -0.49049501951E+02  0.98749537045E+02  0.00000000000E+00 0. -1.
<scales pt_clust_5="13000.00000" pt_clust_6="13000.00000" pt_clust_7="13000.00000" pt_clust_8="13000.00000" pt_clust_9="85.70658"></scales>
<clustering>
<clus scale="   80.253">  5  6 -1 -1</clus>
<clus scale="   85.707">  2  9  1 -1</clus>
<clus scale="   90.994">  7  8 -1 -1</clus>
<clus scale="   95.789">  1  5  2 -1</clus>
<clus scale="   85.707">  2  5  1 -1</clus>
</clustering>
</event>
<event>
 9    1  0.1973774E-005  0.2146266E+03  0.7546771E-02  0.1139590E+00
         -2   -1    0    0    0  501 -0.00000000000E+00  0.00000000000E+00  0.52972796026E+02  0.52972796026E+02  0.00000000000E+00 0.  1.
          1   -1    0    0  502    0  0.00000000000E+00 -0.00000000000E+00 -0.96801081606E+03  0.96801081606E+03  0.00000000000E+00 0. -1.
        -24    2    1    2    0    0  0.14227443961E+03  0.14273551678E+03 -0.37627766308E+03  0.43433809855E+03  0.80307286123E+02 0.  0.
         23    2    1    2    0    0 -0.13226245980E+03 -0.11746862115E+03 -0.44756383131E+03  0.49148532205E+03  0.99760731052E+02 0.  0.
         13    1    3    3    0    0  0.59395532346E+01  0.52391827395E+02 -0.10692844778E+03  0.11922195609E+03  0.00000000000E+00 0. -1.
        -14    1    3    3    0    0  0.13633488638E+03  0.90343689386E+02 -0.26934921530E+03  0.31511614246E+03  0.00000000000E+00 0.  1.
        -13    1    4    4    0    0 -0.39306357329E+02 -0.45859608569E+02 -0.54752384766E+02  0.81522494210E+02  0.00000000000E+00 0.  1.
         13    1    4    4    0    0 -0.92956102470E+02 -0.71609012583E+02 -0.39281144655E+03  0.40996282784E+03  0.00000000000E+00 0. -1.
         21    1    1    2  502  501 -0.10011979813E+02 -0.25266895629E+02 -0.91196525644E+02  0.95160191488E+02  0.00000000000E+00 0. -1.
<scales pt_clust_5="13000.00000" pt_clust_6="13000.00000" pt_clust_7="13000.00000" pt_clust_8="13000.00000" pt_clust_9="27.17822"></scales>
<clustering>
<clus scale="   27.178">  2  9  1 -1</clus>
<clus scale="   80.307">  5  6 -1 -1</clus>
<clus scale="   99.761">  7  8 -1 -1</clus>
<clus scale="  206.305">  1  5  2 -1</clus>
<clus scale="   27.178">  2  5  1 -1</clus>
</clustering>
</event>
<event>
 9    1  0.1973774E-005  0.1075004E+03  0.7546771E-02  0.1272394E+00
         -2   -1    0    0    0  501 -0.00000000000E+00  0.00000000000E+00  0.38021656544E+03  0.38021656544E+03  0.00000000000E+00 0.  1.
          1   -1    0    0  502    0  0.00000000000E+00 -0.00000000000E+00 -0.12072410542E+03  0.12072410542E+03  0.00000000000E+00 0. -1.
        -24    2    1    2    0    0 -0.18499006937E+01  0.51257305357E+02  0.29866605484E+03  0.31436268248E+03  0.83616686987E+02 0.  0.
         23    2    1    2    0    0  0.18866153538E+02 -0.37231909254E+02 -0.84211988392E+02  0.13643098953E+03  0.98891906133E+02 0.  0.
         11    1    3    3    0    0  0.15284870572E+02  0.15225462206E+02  0.11518457183E+02  0.24456427042E+02  0.00000000000E+00 0. -1.
        -12    1    3    3    0    0 -0.17134771265E+02  0.36031843151E+02  0.28714759765E+03  0.28990625544E+03  0.00000000000E+00 0.  1.
        -11    1    4    4    0    0 -0.25353003307E+02 -0.20934791457E+02 -0.83015022152E+02  0.89289048448E+02  0.00000000000E+00 0. -1.
         11    1    4    4    0    0  0.44219156845E+02 -0.16297117797E+02 -0.11969662409E+01  0.47141941080E+02  0.00000000000E+00 0.  1.
         21    1    1    2  502  501 -0.17016252845E+02 -0.14025396103E+02  0.45038393586E+02  0.50146998848E+02  0.00000000000E+00 0. -1.
<scales pt_clust_5="13000.00000" pt_clust_6="13000.00000" pt_clust_7="13000.00000" pt_clust_8="13000.00000" pt_clust_9="22.05141"></scales>
<clustering>
<clus scale="   22.051">  1  9  2 -1</clus>
<clus scale="   83.617">  5  6 -1 -1</clus>
<clus scale="   93.640">  1  5  2 -1</clus>
<clus scale="   98.892">  7  8 -1 -1</clus>
<clus scale="  107.500">  2  5  1 -1</clus>
</clustering>
</event>
<event>
 9    1  0.1973774E-005  0.9710317E+02  0.7546771E-02  0.1292514E+00
          1   -1    0    0  502    0  0.00000000000E+00  0.00000000000E+00  0.24860538993E+03  0.24860538993E+03  0.00000000000E+00 0. -1.
         -2   -1    0    0    0  501 -0.00000000000E+00 -0.00000000000E+00 -0.80747548707E+02  0.80747548707E+02  0.00000000000E+00 0.  1.
        -24    2    1    2    0    0  0.34989873882E+02  0.29031253401E+01 -0.35970218320E+02  0.94861695337E+02  0.80449768336E+02 0.  0.
         23    2    1    2    0    0 -0.16892037733E+02  0.98322201192E+01  0.17044792923E+03  0.19444185134E+03  0.91504772989E+02 0.  0.
         13    1    3    3    0    0 -0.25400989316E+02  0.36733772670E+00 -0.18947624113E+01  0.25474208915E+02  0.00000000000E+00 0. -1.
        -14    1    3    3    0    0  0.60390863198E+02  0.25357876134E+01 -0.34075455909E+02  0.69387486422E+02  0.00000000000E+00 0.  1.
        -11    1    4    4    0    0 -0.31031882708E+02  0.41110568339E+02  0.13762742777E+03  0.14695021418E+03  0.00000000000E+00 0. -1.
         11    1    4    4    0    0  0.14139844975E+02 -0.31278348220E+02  0.32820501464E+02  0.47491637155E+02  0.00000000000E+00 0.  1.
         21    1    1    2  502  501 -0.18097836149E+02 -0.12735345459E+02  0.33380130315E+02  0.40049391969E+02  0.00000000000E+00 0.  1.
<scales pt_clust_5="13000.00000" pt_clust_6="13000.00000" pt_clust_7="13000.00000" pt_clust_8="13000.00000" pt_clust_9="22.12963"></scales>
<clustering>
<clus scale="   22.130">  1  9  2 -1</clus>
<clus scale="   80.450">  5  6 -1 -1</clus>
<clus scale="   86.764">  2  5  1 -1</clus>
<clus scale="   91.505">  7  8 -1 -1</clus>
<clus scale="   22.130">  1  5  2 -1</clus>
</clustering>
</event>
<event>
 9    1  0.1973774E-005  0.1980811E+03  0.7546771E-02  0.1151928E+00
          1   -1    0    0  502    0  0.00000000000E+00  0.00000000000E+00  0.61545926994E+03  0.61545926994E+03  0.00000000000E+00 0. -1.
         -2   -1    0    0    0  501 -0.00000000000E+00 -0.00000000000E+00 -0.12456795560E+03  0.12456795560E+03  0.00000000000E+00 0.  1.
        -24    2    1    2    0    0  0.86105585310E+02  0.70850567528E+02  0.37690292599E+02  0.14510050598E+03  0.84850597744E+02 0.  0.
         23    2    1    2    0    0 -0.17342757043E+03 -0.11848839333E+03  0.43820502116E+03  0.49433163239E+03  0.90683519304E+02 0.  0.
         13    1    3    3    0    0  0.59735862949E+02 -0.34594945757E+01  0.26570630145E+02  0.65470144427E+02  0.00000000000E+00 0. -1.
        -14    1    3    3    0    0  0.26369722361E+02  0.74310062104E+02  0.11119662455E+02  0.79630361549E+02  0.00000000000E+00 0.  1.
        -13    1    4    4    0    0 -0.40531921736E+02 -0.72266893838E+02  0.11418381744E+03  0.14107900195E+03  0.00000000000E+00 0.  1.
         13    1    4    4    0    0 -0.13289564869E+03 -0.46221499490E+02  0.32402120371E+03  0.35325263044E+03  0.00000000000E+00 0. -1.
         21    1    1    2  502  501  0.87321985116E+02  0.47637825799E+02  0.14996000590E+02  0.10059508718E+03  0.00000000000E+00 0.  1.
<scales pt_clust_5="13000.00000" pt_clust_6="13000.00000" pt_clust_7="13000.00000" pt_clust_8="13000.00000" pt_clust_9="99.47106"></scales>
<clustering>
<clus scale="   84.851">  5  6 -1 -1</clus>
<clus scale="   90.684">  7  8 -1 -1</clus>
<clus scale="   99.471">  2  9  1 -1</clus>
<clus scale="  195.480">  2  5  1 -1</clus>
<clus scale="  198.081">  1  5  2 -1</clus>
</clustering>
</event>
<event>
 9    1  0.1973774E-005  0.1140188E+03  0.7546771E-02  0.1255485E+00
         -4   -1    0    0    0  501 -0.00000000000E+00  0.00000000000E+00  0.22964426184E+03  0.22964426184E+03  0.00000000000E+00 0.  1.
          3   -1    0    0  502    0  0.00000000000E+00 -0.00000000000E+00 -0.34350433613E+03  0.34350433613E+03  0.00000000000E+00 0. -1.
        -24    2    1    2    0    0 -0.20297969907E+01 -0.68916662430E+02  0.18939329014E+03  0.21794997286E+03  0.82938205209E+02 0.  0.
         23    2    1    2    0    0 -0.13448400181E+02  0.10911735165E+03 -0.24064286296E+03  0.27920030344E+03  0.89198464397E+02 0.  0.
         11    1    3    3    0    0 -0.78807954602E+01 -0.31033629048E+02  0.86219423944E+01  0.33159176100E+02  0.00000000000E+00 0. -1.
        -12    1    3    3    0    0  0.58509984695E+01 -0.37883033382E+02  0.18077134775E+03  0.18479079676E+03  0.00000000000E+00 0.  1.
        -11    1    4    4    0    0  0.27203221717E+02  0.42729884655E+02 -0.15685536864E+03  0.16483162617E+03  0.00000000000E+00 0.  1.
         11    1    4    4    0    0 -0.40651621898E+02  0.66387466990E+02 -0.83787494314E+02  0.11436867727E+03  0.00000000000E+00 0. -1.
         21    1    1    2  502  501  0.15478197172E+02 -0.40200689215E+02 -0.62610501478E+02  0.75998321669E+02  0.00000000000E+00 0. -1.
<scales pt_clust_5="13000.00000" pt_clust_6="13000.00000" pt_clust_7="13000.00000" pt_clust_8="13000.00000" pt_clust_9="43.07749"></scales>
<clustering>
<clus scale="   43.077">  2  9  1 -1</clus>
<clus scale="   82.938">  5  6 -1 -1</clus>
<clus scale="   89.198">  7  8 -1 -1</clus>
<clus scale="  109.191">  1  5  2 -1</clus>
<clus scale="   43.077">  2  5  1 -1</clus>
</clustering>
</event>
<event>
 9    1  0.1973774E-005  0.1067361E+03  0.7546771E-02  0.1271058E+00
         -2   -1    0    0    0  501 -0.00000000000E+00  0.00000000000E+00  0.65857509320E+02  0.65857509320E+02  0.00000000000E+00 0.  1.
          1   -1    0    0  502    0  0.00000000000E+00 -0.00000000000E+00 -0.36291713868E+03  0.36291713868E+03  0.00000000000E+00 0. -1.
        -24    2    1    2    0    0  0.24121413247E+02 -0.59916557325E+02 -0.96953268347E+01  0.10300045731E+03  0.79644575617E+02 0.  0.
         23    2    1    2    0    0 -0.32402302208E+02  0.28295435863E+02 -0.12385390705E+03  0.15902852246E+03  0.89998554351E+02 0.  0.
         13    1    3    3    0    0  0.22517030447E+02  0.99799325098E+01 -0.20764661215E+02  0.32214699570E+02  0.00000000000E+00 0. -1.
        -14    1    3    3    0    0  0.16043828006E+01 -0.69896489835E+02  0.11069334380E+02  0.70785757741E+02  0.00000000000E+00 0.  1.
        -11    1    4    4    0    0 -0.52108359630E+02  0.44708266116E+02 -0.63792087375E+02  0.93720545315E+02  0.00000000000E+00 0. -1.
         11    1    4    4    0    0  0.19706057423E+02 -0.16412830253E+02 -0.60061819678E+02  0.65307977148E+02  0.00000000000E+00 0.  1.
         21    1    1    2  502  501  0.82808889606E+01  0.31621121462E+02 -0.16351039547E+03  0.16674566823E+03  0.00000000000E+00 0. -1.
<scales pt_clust_5="13000.00000" pt_clust_6="13000.00000" pt_clust_7="13000.00000" pt_clust_8="13000.00000" pt_clust_9="32.68744"></scales>
<clustering>
<clus scale="   32.687">  2  9  1 -1</clus>
<clus scale="   79.645">  5  6 -1 -1</clus>
<clus scale="   89.999">  7  8 -1 -1</clus>
<clus scale="   98.164">  1  5  2 -1</clus>
<clus scale="   32.687">  2  5  1 -1</clus>
</clustering>
</event>
<event>
 9    1  0.1973774E-005  0.1088500E+03  0.7546771E-02  0.1268553E+00
          1   -1    0    0  502    0  0.00000000000E+00  0.00000000000E+00  0.34040151393E+03  0.34040151393E+03  0.00000000000E+00 0. -1.
         -2   -1    0    0    0  501 -0.00000000000E+00 -0.00000000000E+00 -0.10079654284E+03  0.10079654284E+03  0.00000000000E+00 0.  1.
        -24    2    1    2    0    0  0.56593656984E+02  0.56106664014E+01 -0.60695263078E+02  0.11543861283E+03  0.80048964914E+02 0.  0.
         23    2    1    2    0    0 -0.36268022068E+02 -0.37158925850E+00  0.27523610612E+03  0.29306709195E+03  0.93903667479E+02 0.  0.
         11    1    3    3    0    0  0.68754495408E+02  0.48069365759E+01 -0.71384917277E+02  0.99227484563E+02  0.00000000000E+00 0. -1.
        -12    1    3    3    0    0 -0.12160838424E+02  0.80372982550E+00  0.10689654199E+02  0.16211128268E+02  0.00000000000E+00 0.  1.
        -11    1    4    4    0    0 -0.15708004029E+02 -0.44844794973E+02  0.94029252900E+02  0.10535320321E+03  0.00000000000E+00 0.  1.
         11    1    4    4    0    0 -0.20560018040E+02  0.44473205715E+02  0.18120685322E+03  0.18771388873E+03  0.00000000000E+00 0. -1.
         21    1    1    2  502  501 -0.20325634916E+02 -0.52390771429E+01  0.25064128047E+02  0.32692351992E+02  0.00000000000E+00 0.  1.
<scales pt_clust_5="13000.00000" pt_clust_6="13000.00000" pt_clust_7="13000.00000" pt_clust_8="13000.00000" pt_clust_9="20.98998"></scales>
<clustering>
<clus scale="   20.990">  1  9  2 -1</clus>
<clus scale="   80.049">  5  6 -1 -1</clus>
<clus scale="   93.904">  7  8 -1 -1</clus>
<clus scale="   97.151">  2  5  1 -1</clus>
<clus scale="   20.990">  1  5  2 -1</clus>
</clustering>
</event>
<event>
 9    1  0.1973774E-005  0.9391056E+02  0.7546771E-02  0.1299934E+00
         -2   -1    0    0    0  501 -0.00000000000E+00  0.00000000000E+00  0.52181268654E+03  0.52181268654E+03  0.00000000000E+00 0.  1.
          1   -1    0    0  502    0  0.00000000000E+00 -0.00000000000E+00 -0.23432556458E+02  0.23432556458E+02  0.00000000000E+00 0. -1.
        -24    2    1    2    0    0 -0.16330052353E+02  0.83588681636E+01  0.30377718996E+03  0.31503593296E+03  0.81427984336E+02 0.  0.
         23    2    1    2    0    0  0.17633093598E+01 -0.29123161063E+02  0.16568529034E+03  0.19174404869E+03  0.91994005262E+02 0.  0.
         13    1    3    3    0    0  0.20509326386E+02  0.30956632120E+02  0.98702449958E+02  0.10545671704E+03  0.00000000000E+00 0. -1.
        -14    1    3    3    0    0 -0.36839378739E+02 -0.22597763956E+02  0.20507474000E+03  0.20957921592E+03  0.00000000000E+00 0.  1.
        -13    1    4    4    0    0 -0.33184534336E+01 -0.62077340006E+02  0.12046578319E+03  0.13556036734E+03  0.00000000000E+00 0.  1.
         13    1    4    4    0    0  0.50817627935E+01  0.32954178943E+02  0.45219507151E+02  0.56183681349E+02  0.00000000000E+00 0. -1.
         21    1    1    2  502  501  0.14566742993E+02  0.20764292899E+02  0.28917649790E+02  0.38465261346E+02  0.00000000000E+00 0. -1.
<scales pt_clust_5="13000.00000" pt_clust_6="13000.00000" pt_clust_7="13000.00000" pt_clust_8="13000.00000" pt_clust_9="25.36426"></scales>
<clustering>
<clus scale="   25.364">  2  9  1 -1</clus>
<clus scale="   81.428">  5  6 -1 -1</clus>
<clus scale="   83.587">  1  5  2 -1</clus>
<clus scale="   91.994">  7  8 -1 -1</clus>
<clus scale="   25.364">  2  5  1 -1</clus>
</clustering>
</event>
<event>
 9    1  0.1973774E-005  0.1320994E+03  0.7546771E-02  0.1245165E+00
          3   -1    0    0  502    0  0.00000000000E+00  0.00000000000E+00  0.37818805100E+03  0.37818805100E+03  0.00000000000E+00 0. -1.
         -4   -1    0    0    0  501 -0.00000000000E+00 -0.00000000000E+00 -0.19254147265E+03  0.19254147265E+03  0.00000000000E+00 0.  1.
         23    2    1    2    0    0  0.36816551383E+02  0.87600445272E+02 -0.14291191097E+03  0.19494527775E+03  0.92469187036E+02 0.  0.
        -24    2    1    2    0    0 -0.29792023541E+02  0.51080597932E+01  0.12372161311E+03  0.15083456984E+03  0.80810723101E+02 0.  0.
         13    1    4    4    0    0 -0.43957753126E+02 -0.29731391676E+01  0.12680146541E+03  0.13423760742E+03  0.00000000000E+00 0. -1.
        -14    1    4    4    0    0  0.14165729585E+02  0.80811989608E+01 -0.30798523034E+01  0.16596962419E+02  0.00000000000E+00 0.  1.
        -13    1    3    3    0    0  0.65578570521E+02  0.74753246857E+02 -0.94465151005E+02  0.13715779811E+03  0.00000000000E+00 0.  1.
         13    1    3    3    0    0 -0.28762019138E+02  0.12847198415E+02 -0.48446759968E+02  0.57787479642E+02  0.00000000000E+00 0. -1.
         21    1    1    2  502  501 -0.70245278420E+01 -0.92708505065E+02  0.20483687622E+03  0.22494967606E+03  0.00000000000E+00 0. -1.
<scales pt_clust_5="13000.00000" pt_clust_6="13000.00000" pt_clust_7="13000.00000" pt_clust_8="13000.00000" pt_clust_9="94.33820"></scales>
<clustering>
<clus scale="   80.811">  5  6 -1 -1</clus>
<clus scale="   86.279">  1  5  2 -1</clus>
<clus scale="   92.469">  7  8 -1 -1</clus>
<clus scale="   94.338">  1  9  2 -1</clus>
<clus scale="   86.279">  1  5  2 -1</clus>
</clustering>
</event>
<event>
 9    1  0.1973774E-005  0.9280522E+02  0.7546771E-02  0.1301237E+00
          3   -1    0    0  502    0  0.00000000000E+00  0.00000000000E+00  0.15739271878E+02  0.15739271878E+02  0.00000000000E+00 0. -1.
         -4   -1    0    0    0  501 -0.00000000000E+00 -0.00000000000E+00 -0.11228456919E+04  0.11228456919E+04  0.00000000000E+00 0.  1.
        -24    2    1    2    0    0  0.88646494322E+00  0.16627894085E+02 -0.77918387522E+03  0.78360541494E+03  0.81441158067E+02 0.  0.
         23    2    1    2    0    0 -0.26796298153E+01 -0.49240849130E+02 -0.26294367231E+03  0.28225352773E+03  0.89976871857E+02 0.  0.
         13    1    3    3    0    0 -0.23265090547E+02  0.14851087023E+02 -0.93370744459E+02  0.97364855799E+02  0.00000000000E+00 0. -1.
        -14    1    3    3    0    0  0.24151555490E+02  0.17768070616E+01 -0.68581313076E+03  0.68624055914E+03  0.00000000000E+00 0.  1.
        -11    1    4    4    0    0  0.19005291278E+02  0.21044523117E+02 -0.88657118632E+02  0.93081457519E+02  0.00000000000E+00 0.  1.
         11    1    4    4    0    0 -0.21684921094E+02 -0.70285372248E+02 -0.17428655368E+03  0.18917207021E+03  0.00000000000E+00 0. -1.
         21    1    1    2  502  501  0.17931648721E+01  0.32612955045E+02 -0.64978872496E+02  0.72726021119E+02  0.00000000000E+00 0. -1.
<scales pt_clust_5="13000.00000" pt_clust_6="13000.00000" pt_clust_7="13000.00000" pt_clust_8="13000.00000" pt_clust_9="32.66221"></scales>
<clustering>
<clus scale="   32.662">  1  9  2 -1</clus>
<clus scale="   81.441">  5  6 -1 -1</clus>
<clus scale="   84.556">  2  5  1 -1</clus>
<clus scale="   89.977">  7  8 -1 -1</clus>
<clus scale="   32.662">  1  5  2 -1</clus>
</clustering>
</event>
<event>
 9    1  0.1973774E-005  0.1604588E+03  0.7546771E-02  0.1188655E+00
         -2   -1    0    0    0  501 -0.00000000000E+00  0.00000000000E+00  0.12514311491E+03  0.12514311491E+03  0.00000000000E+00 0.  1.
          1   -1    0    0  502    0  0.00000000000E+00 -0.00000000000E+00 -0.26489391517E+03  0.26489391517E+03  0.00000000000E+00 0. -1.
         23    2    1    2    0    0 -0.12471353057E+03 -0.21173998859E+02 -0.35261716767E+02  0.15618710953E+03  0.84553069610E+02 0.  0.
        -24    2    1    2    0    0  0.15128283633E+03 -0.28194447563E+01 -0.74858639382E+02  0.18737867607E+03  0.81317319917E+02 0.  0.
         11    1    4    4    0    0  0.68644355243E+02  0.17974459306E+02 -0.73485627968E+02  0.10215315077E+03  0.00000000000E+00 0. -1.
        -12    1    4    4    0    0  0.82638481086E+02 -0.20793904062E+02 -0.13730114141E+01  0.85225525300E+02  0.00000000000E+00 0.  1.
        -13    1    3    3    0    0 -0.42561090381E+02 -0.48888155501E+02 -0.80557779615E+01  0.65317637138E+02  0.00000000000E+00 0.  1.
         13    1    3    3    0    0 -0.82152440184E+02  0.27714156642E+02 -0.27205938805E+02  0.90869472393E+02  0.00000000000E+00 0. -1.
         21    1    1    2  502  501 -0.26569305763E+02  0.23993443615E+02 -0.29630444107E+02  0.46471244477E+02  0.00000000000E+00 0. -1.
<scales pt_clust_5="13000.00000" pt_clust_6="13000.00000" pt_clust_7="13000.00000" pt_clust_8="13000.00000" pt_clust_9="35.79963"></scales>
<clustering>
<clus scale="   35.800">  2  9  1 -1</clus>
<clus scale="   81.317">  5  6 -1 -1</clus>
<clus scale="   84.553">  7  8 -1 -1</clus>
<clus scale="  158.778">  2  5  1 -1</clus>
<clus scale="   35.800">  2  5  1 -1</clus>
</clustering>
</event>
<event>
 9    1  0.1973774E-005  0.9211457E+02  0.7546771E-02  0.1305451E+00
         -2   -1    0    0    0  501 -0.00000000000E+00  0.00000000000E+00  0.96858870571E+02  0.96858870571E+02  0.00000000000E+00 0.  1.
          1   -1    0    0  502    0  0.00000000000E+00 -0.00000000000E+00 -0.11304536065E+03  0.11304536065E+03  0.00000000000E+00 0. -1.
         23    2    1    2    0    0 -0.58585925936E+01 -0.16708968415E+02  0.19672480743E+02  0.95447702607E+02  0.91704660196E+02 0.  0.
        -24    2    1    2    0    0  0.70223627338E+01 -0.10813613198E+02 -0.31617235937E+02  0.86584693826E+02  0.79567655413E+02 0.  0.
         13    1    4    4    0    0  0.87347390933E-02 -0.30668197893E+02 -0.49984410372E+02  0.58642814723E+02  0.00000000000E+00 0. -1.
        -14    1    4    4    0    0  0.70136279947E+01  0.19854584696E+02  0.18367174435E+02  0.27941879103E+02  0.00000000000E+00 0.  1.
        -13    1    3    3    0    0  0.13536298361E+02  0.25684759862E+02 -0.19149817047E+02  0.34780076990E+02  0.00000000000E+00 0.  1.
         13    1    3    3    0    0 -0.19394890954E+02 -0.42393728277E+02  0.38822297790E+02  0.60667625617E+02  0.00000000000E+00 0. -1.
         21    1    1    2  502  501 -0.11637701402E+01  0.27522581613E+02 -0.42417348849E+01  0.27871834787E+02  0.00000000000E+00 0.  1.
<scales pt_clust_5="13000.00000" pt_clust_6="13000.00000" pt_clust_7="13000.00000" pt_clust_8="13000.00000" pt_clust_9="27.54718"></scales>
<clustering>
<clus scale="   27.547">  2  9  1 -1</clus>
<clus scale="   79.568">  5  6 -1 -1</clus>
<clus scale="   80.040">  2  5  1 -1</clus>
<clus scale="   91.705">  7  8 -1 -1</clus>
<clus scale="   27.547">  2  5  1 -1</clus>
</clustering>
</event>
<event>
 9    1  0.1973774E-005  0.1134530E+03  0.7546771E-02  0.1258667E+00
         -2   -1    0    0    0  501 -0.00000000000E+00  0.00000000000E+00  0.21992755141E+03  0.21992755141E+03  0.00000000000E+00 0.  1.
          1   -1    0    0  502    0  0.00000000000E+00 -0.00000000000E+00 -0.21724521829E+03  0.21724521829E+03  0.00000000000E+00 0. -1.
         23    2    1    2    0    0  0.43604726912E+02  0.71215225291E+02  0.16075014999E+03  0.20249701590E+03  0.90506630728E+02 0.  0.
        -24    2    1    2    0    0 -0.36397282658E+02  0.90070825332E+01 -0.51352749804E+02  0.10097582312E+03  0.78441839741E+02 0.  0.
         13    1    4    4    0    0  0.24715281262E+02 -0.21916772612E+01 -0.14738582944E+02  0.28859563480E+02  0.00000000000E+00 0. -1.
        -14    1    4    4    0    0 -0.61112563920E+02  0.11198759794E+02 -0.36614166860E+02  0.72116259641E+02  0.00000000000E+00 0.  1.
        -11    1    3    3    0    0  0.59733854482E+02  0.11217095558E+02  0.85783210183E+02  0.10513189694E+03  0.00000000000E+00 0.  1.
         11    1    3    3    0    0 -0.16129127570E+02  0.59998129733E+02  0.74966939808E+02  0.97365118968E+02  0.00000000000E+00 0. -1.
         21    1    1    2  502  501 -0.72074442541E+01 -0.80222307824E+02 -0.10671506706E+03  0.13369993068E+03  0.00000000000E+00 0. -1.
<scales pt_clust_5="13000.00000" pt_clust_6="13000.00000" pt_clust_7="13000.00000" pt_clust_8="13000.00000" pt_clust_9="80.54543"></scales>
<clustering>
<clus scale="   78.442">  5  6 -1 -1</clus>
<clus scale="   80.545">  2  9  1 -1</clus>
<clus scale="   90.507">  7  8 -1 -1</clus>
<clus scale="  104.083">  2  5  1 -1</clus>
<clus scale="   80.545">  2  5  1 -1</clus>
</clustering>
</event>
<event>
 9    1  0.1973774E-005  0.9243990E+02  0.7546771E-02  0.1301532E+00
         -2   -1    0    0    0  501 -0.00000000000E+00  0.00000000000E+00  0.26804768531E+03  0.26804768531E+03  0.00000000000E+00 0.  1.
          1   -1    0    0  502    0  0.00000000000E+00 -0.00000000000E+00 -0.59748702389E+03  0.59748702389E+03  0.00000000000E+00 0. -1.
        -24    2    1    2    0    0  0.17109841955E+01 -0.29619920356E+02  0.25067912572E+03  0.26475560513E+03  0.79845095186E+02 0.  0.
         23    2    1    2    0    0  0.45373543549E+02  0.21055403775E+02 -0.29769674390E+03  0.31433132201E+03  0.87628421114E+02 0.  0.
         11    1    3    3    0    0 -0.19419373085E+02 -0.14908989606E+02  0.17341896717E+02  0.30002189984E+02  0.00000000000E+00 0. -1.
        -12    1    3    3    0    0  0.21130357280E+02 -0.14710930749E+02  0.23333722900E+03  0.23475341514E+03  0.00000000000E+00 0.  1.
        -13    1    4    4    0    0  0.38509875677E+02 -0.29126630243E+02 -0.11455761533E+03  0.12431740966E+03  0.00000000000E+00 0.  1.
         13    1    4    4    0    0  0.68636678723E+01  0.50182034017E+02 -0.18313912857E+03  0.19001391236E+03  0.00000000000E+00 0. -1.
         21    1    1    2  502  501 -0.47084527745E+02  0.85645165810E+01 -0.28242172040E+03  0.28644778207E+03  0.00000000000E+00 0. -1.
<scales pt_clust_5="13000.00000" pt_clust_6="13000.00000" pt_clust_7="13000.00000" pt_clust_8="13000.00000" pt_clust_9="47.85712"></scales>
<clustering>
<clus scale="   47.857">  2  9  1 -1</clus>
<clus scale="   79.845">  5  6 -1 -1</clus>
<clus scale="   85.098">  1  5  2 -1</clus>
<clus scale="   87.628">  7  8 -1 -1</clus>
<clus scale="   47.857">  2  5  1 -1</clus>
</clustering>
</event>
<event>
 9    1  0.1973774E-005  0.1113522E+03  0.7546771E-02  0.1261885E+00
          1   -1    0    0  502    0  0.00000000000E+00  0.00000000000E+00  0.72712593520E+02  0.72712593520E+02  0.00000000000E+00 0. -1.
         -2   -1    0    0    0  501 -0.00000000000E+00 -0.00000000000E+00 -0.52946790314E+03  0.52946790314E+03  0.00000000000E+00 0.  1.
        -24    2    1    2    0    0 -0.29058731449E+02  0.35966677040E+02 -0.37783337848E+03  0.38924561350E+03  0.81339252546E+02 0.  0.
         23    2    1    2    0    0  0.14005591250E+01 -0.67282483823E+02  0.10824855187E+02  0.11393922716E+03  0.91302112795E+02 0.  0.
         13    1    3    3    0    0 -0.45528830493E+02 -0.68954992199E+01 -0.15336376294E+03  0.16012765563E+03  0.00000000000E+00 0. -1.
        -14    1    3    3    0    0  0.16470099044E+02  0.42862176260E+02 -0.22446961555E+03  0.22911795787E+03  0.00000000000E+00 0.  1.
        -13    1    4    4    0    0  0.21473005303E+02  0.14733264678E+02  0.13757304235E+02  0.29452036681E+02  0.00000000000E+00 0.  1.
         13    1    4    4    0    0 -0.20072446178E+02 -0.82015748501E+02 -0.29324490478E+01  0.84487190480E+02  0.00000000000E+00 0. -1.
         21    1    1    2  502  501  0.27658172324E+02  0.31315806783E+02 -0.89746786322E+02  0.98995655995E+02  0.00000000000E+00 0.  1.
<scales pt_clust_5="13000.00000" pt_clust_6="13000.00000" pt_clust_7="13000.00000" pt_clust_8="13000.00000" pt_clust_9="41.78103"></scales>
<clustering>
<clus scale="   41.781">  2  9  1 -1</clus>
<clus scale="   81.339">  5  6 -1 -1</clus>
<clus scale="   91.302">  7  8 -1 -1</clus>
<clus scale="  103.341">  2  5  1 -1</clus>
<clus scale="  111.352">  1  5  2 -1</clus>
</clustering>
</event>
<event>
 9    1  0.1973774E-005  0.1449885E+03  0.7546771E-02  0.1208496E+00
         -4   -1    0    0    0  501 -0.00000000000E+00  0.00000000000E+00  0.88811023653E+02  0.88811023653E+02  0.00000000000E+00 0.  1.
          3   -1    0    0  502    0  0.00000000000E+00 -0.00000000000E+00 -0.47973306646E+03  0.47973306646E+03  0.00000000000E+00 0. -1.
         23    2    1    2    0    0 -0.12497193333E+03 -0.21707530883E+02 -0.22292727986E+02  0.15663282447E+03  0.89149733382E+02 0.  0.
        -24    2    1    2    0    0  0.89443858257E+02 -0.93036827657E+01 -0.17424147914E+03  0.21188484202E+03  0.80301500167E+02 0.  0.
         13    1    4    4    0    0  0.70665581879E+02  0.17042491120E+02 -0.63523322104E+02  0.96536435697E+02  0.00000000000E+00 0. -1.
        -14    1    4    4    0    0  0.18778276378E+02 -0.26346173886E+02 -0.11071815704E+03  0.11534840632E+03  0.00000000000E+00 0.  1.
        -11    1    3    3    0    0 -0.77445761258E+02 -0.50069693819E+02 -0.36998754543E+02  0.99366634308E+02  0.00000000000E+00 0. -1.
         11    1    3    3    0    0 -0.47526172074E+02  0.28362162935E+02  0.14706026557E+02  0.57266190160E+02  0.00000000000E+00 0.  1.
         21    1    1    2  502  501  0.35528075075E+02  0.31011213649E+02 -0.19438783568E+03  0.20002642363E+03  0.00000000000E+00 0. -1.
<scales pt_clust_5="13000.00000" pt_clust_6="13000.00000" pt_clust_7="13000.00000" pt_clust_8="13000.00000" pt_clust_9="47.15866"></scales>
<clustering>
<clus scale="   47.159">  2  9  1 -1</clus>
<clus scale="   80.302">  5  6 -1 -1</clus>
<clus scale="   89.150">  7  8 -1 -1</clus>
<clus scale="  139.722">  2  5  1 -1</clus>
<clus scale="   47.159">  2  5  1 -1</clus>
</clustering>
</event>
<event>
 9    1  0.1973774E-005  0.9916585E+02  0.7546771E-02  0.1286163E+00
          3   -1    0    0  502    0  0.00000000000E+00  0.00000000000E+00  0.61727758689E+02  0.61727758689E+02  0.00000000000E+00 0. -1.
         -4   -1    0    0    0  501 -0.00000000000E+00 -0.00000000000E+00 -0.35004649661E+03  0.35004649661E+03  0.00000000000E+00 0.  1.
         23    2    1    2    0    0 -0.42861666415E+02  0.27856456997E+02 -0.26914747689E+03  0.28778224210E+03  0.88120088003E+02 0.  0.
        -24    2    1    2    0    0  0.13455629481E+02 -0.28583372940E+02 -0.32517234538E+02  0.91690954028E+02  0.79698163938E+02 0.  0.
         11    1    4    4    0    0  0.20996775174E+02 -0.82448902744E+01  0.22921549229E+02  0.32159605134E+02  0.00000000000E+00 0. -1.
        -12    1    4    4    0    0 -0.75411456932E+01 -0.20338482665E+02 -0.55438783767E+02  0.59531348893E+02  0.00000000000E+00 0.  1.
        -13    1    3    3    0    0 -0.46853527885E+02 -0.17393797728E+02 -0.89794464256E+02  0.10276596268E+03  0.00000000000E+00 0. -1.
         13    1    3    3    0    0  0.39918614697E+01  0.45250254725E+02 -0.17935301263E+03  0.18501627942E+03  0.00000000000E+00 0.  1.
         21    1    1    2  502  501  0.29406036934E+02  0.72691594269E+00  0.13345973501E+02  0.32301059173E+02  0.00000000000E+00 0. -1.
<scales pt_clust_5="13000.00000" pt_clust_6="13000.00000" pt_clust_7="13000.00000" pt_clust_8="13000.00000" pt_clust_9="29.41502"></scales>
<clustering>
<clus scale="   29.415">  1  9  2 -1</clus>
<clus scale="   79.698">  5  6 -1 -1</clus>
<clus scale="   88.120">  7  8 -1 -1</clus>
<clus scale="   91.763">  1  5  2 -1</clus>
<clus scale="   29.415">  1  5  2 -1</clus>
</clustering>
</event>
<event>
 9    1  0.1973774E-005  0.1074392E+03  0.7546771E-02  0.1271364E+00
          1   -1    0    0  502    0  0.00000000000E+00  0.00000000000E+00  0.18129002193E+03  0.18129002193E+03  0.00000000000E+00 0. -1.
         -2   -1    0    0    0  501 -0.00000000000E+00 -0.00000000000E+00 -0.11747579782E+03  0.11747579782E+03  0.00000000000E+00 0.  1.
         23    2    1    2    0    0  0.33267275878E+02  0.45378132181E+02 -0.64079720719E+02  0.12577246964E+03  0.92447915000E+02 0.  0.
        -24    2    1    2    0    0 -0.11912981488E+02 -0.50449022535E+02  0.10959239501E+03  0.14441597192E+03  0.78475836413E+02 0.  0.
         11    1    4    4    0    0  0.28915952347E+01 -0.69668946279E+02  0.78997663991E+02  0.10536960812E+03  0.00000000000E+00 0. -1.
        -12    1    4    4    0    0 -0.14804576723E+02  0.19219923744E+02  0.30594731016E+02  0.39046363808E+02  0.00000000000E+00 0.  1.
        -13    1    3    3    0    0 -0.17437196956E+02  0.53974166482E+02 -0.35950051280E+02  0.67154096466E+02  0.00000000000E+00 0.  1.
         13    1    3    3    0    0  0.50704472834E+02 -0.85960343008E+01 -0.28129669439E+02  0.58618373176E+02  0.00000000000E+00 0. -1.
         21    1    1    2  502  501 -0.21354294390E+02  0.50708903540E+01  0.18301549823E+02  0.28577378183E+02  0.00000000000E+00 0.  1.
<scales pt_clust_5="13000.00000" pt_clust_6="13000.00000" pt_clust_7="13000.00000" pt_clust_8="13000.00000" pt_clust_9="21.94812"></scales>
<clustering>
<clus scale="   21.948">  1  9  2 -1</clus>
<clus scale="   78.476">  5  6 -1 -1</clus>
<clus scale="   92.448">  7  8 -1 -1</clus>
<clus scale="   95.682">  1  5  2 -1</clus>
<clus scale="   21.948">  1  5  2 -1</clus>
</clustering>
</event>
<event>
 9    1  0.1973774E-005  0.9244024E+02  0.7546771E-02  0.1304108E+00
         -2   -1    0    0    0  501 -0.00000000000E+00  0.00000000000E+00  0.33868086369E+03  0.33868086369E+03  0.00000000000E+00 0.  1.
          1   -1    0    0  502    0  0.00000000000E+00 -0.00000000000E+00 -0.49842112642E+02  0.49842112642E+02  0.00000000000E+00 0. -1.
        -24    2    1    2    0    0 -0.17696537867E+02  0.57000048727E+01  0.25225487797E+03  0.26516947642E+03  0.79603205043E+02 0.  0.
         23    2    1    2    0    0 -0.23937418757E+01 -0.14208913638E+02  0.41303408175E+02  0.10103098034E+03  0.91069557126E+02 0.  0.
         13    1    3    3    0    0  0.29706941131E+02  0.92934784299E+01  0.13707108162E+03  0.14056084984E+03  0.00000000000E+00 0. -1.
        -14    1    3    3    0    0 -0.47403478999E+02 -0.35934735572E+01  0.11518379636E+03  0.12460862657E+03  0.00000000000E+00 0.  1.
        -13    1    4    4    0    0 -0.33304082359E+01  0.27998822384E+02  0.50485662697E+02  0.57825840347E+02  0.00000000000E+00 0.  1.
         13    1    4    4    0    0  0.93666636017E+00 -0.42207736022E+02 -0.91822545215E+01  0.43205139996E+02  0.00000000000E+00 0. -1.
         21    1    1    2  502  501  0.20090279743E+02  0.85089087651E+01 -0.47195351009E+01  0.22322519573E+02  0.00000000000E+00 0.  1.
<scales pt_clust_5="13000.00000" pt_clust_6="13000.00000" pt_clust_7="13000.00000" pt_clust_8="13000.00000" pt_clust_9="21.81790"></scales>
<clustering>
<clus scale="   21.818">  2  9  1 -1</clus>
<clus scale="   79.603">  5  6 -1 -1</clus>
<clus scale="   81.168">  1  5  2 -1</clus>
<clus scale="   91.070">  7  8 -1 -1</clus>
<clus scale="   21.818">  2  5  1 -1</clus>
</clustering>
</event>
<event>
 9    1  0.1973774E-005  0.1154211E+03  0.7546771E-02  0.1260175E+00
         -2   -1    0    0    0  501 -0.00000000000E+00  0.00000000000E+00  0.88058882288E+02  0.88058882288E+02  0.00000000000E+00 0.  1.
          1   -1    0    0  502    0  0.00000000000E+00 -0.00000000000E+00 -0.22804313371E+03  0.22804313371E+03  0.00000000000E+00 0. -1.
         23    2    1    2    0    0 -0.18567163595E+02 -0.39265365826E+02  0.48054686118E+01  0.11231837821E+03  0.10346891822E+03 0.  0.
        -24    2    1    2    0    0  0.14196609982E+02  0.71709527604E+02 -0.12270680774E+03  0.16429464707E+03  0.81190949648E+02 0.  0.
         13    1    4    4    0    0  0.36582970447E+02  0.18660268233E+02 -0.87880055582E+02  0.97002182998E+02  0.00000000000E+00 0. -1.
        -14    1    4    4    0    0 -0.22386360464E+02  0.53049259370E+02 -0.34826752159E+02  0.67292464070E+02  0.00000000000E+00 0.  1.
        -11    1    3    3    0    0  0.29419259754E+01  0.33671586104E+02  0.12161161538E+02  0.35921086970E+02  0.00000000000E+00 0. -1.
         11    1    3    3    0    0 -0.21509089571E+02 -0.72936951929E+02 -0.73556929260E+01  0.76397291243E+02  0.00000000000E+00 0.  1.
         21    1    1    2  502  501  0.43705536131E+01 -0.32444161778E+02 -0.22082912288E+02  0.39488990712E+02  0.00000000000E+00 0.  1.
<scales pt_clust_5="13000.00000" pt_clust_6="13000.00000" pt_clust_7="13000.00000" pt_clust_8="13000.00000" pt_clust_9="32.73722"></scales>
<clustering>
<clus scale="   32.737">  2  9  1 -1</clus>
<clus scale="   81.191">  5  6 -1 -1</clus>
<clus scale="   95.959">  2  5  1 -1</clus>
<clus scale="  103.469">  7  8 -1 -1</clus>
<clus scale="   32.737">  2  5  1 -1</clus>
</clustering>
</event>
<event>
 9    1  0.1973774E-005  0.1085694E+03  0.7546771E-02  0.1266176E+00
          1   -1    0    0  502    0  0.00000000000E+00  0.00000000000E+00  0.11713691601E+03  0.11713691601E+03  0.00000000000E+00 0. -1.
         -2   -1    0    0    0  501 -0.00000000000E+00 -0.00000000000E+00 -0.27918044079E+03  0.27918044079E+03  0.00000000000E+00 0.  1.
         23    2    1    2    0    0  0.51385519445E+02  0.62374182593E+01 -0.75301881365E+02  0.12865882021E+03  0.90572300875E+02 0.  0.
        -24    2    1    2    0    0 -0.39125561388E+02  0.86755148633E+02 -0.11372515921E+03  0.17005713192E+03  0.83239118864E+02 0.  0.
         13    1    4    4    0    0 -0.22875403321E+02 -0.11099031505E+02 -0.35823857942E+02  0.43929732247E+02  0.00000000000E+00 0. -1.
        -14    1    4    4    0    0 -0.16250158067E+02  0.97854180138E+02 -0.77901301272E+02  0.12612739967E+03  0.00000000000E+00 0.  1.
        -13    1    3    3    0    0 -0.50869175219E+01  0.37462615055E+02 -0.16120611201E+02  0.41099858419E+02  0.00000000000E+00 0.  1.
         13    1    3    3    0    0  0.56472436967E+02 -0.31225196795E+02 -0.59181270163E+02  0.87558961791E+02  0.00000000000E+00 0. -1.
         21    1    1    2  502  501 -0.12259958057E+02 -0.92992566893E+02  0.26983515798E+02  0.97601404670E+02  0.00000000000E+00 0. -1.
<scales pt_clust_5="13000.00000" pt_clust_6="13000.00000" pt_clust_7="13000.00000" pt_clust_8="13000.00000" pt_clust_9="93.79725"></scales>
<clustering>
<clus scale="   83.239">  5  6 -1 -1</clus>
<clus scale="   90.572">  7  8 -1 -1</clus>
<clus scale="   93.797">  1  9  2 -1</clus>
<clus scale="  102.532">  1  5  2 -1</clus>
<clus scale="   93.797">  1  5  2 -1</clus>
</clustering>
</event>
<event>
 9    1  0.1973774E-005  0.1248826E+03  0.7546771E-02  0.1238107E+00
          1   -1    0    0  502    0  0.00000000000E+00  0.00000000000E+00  0.81281601737E+03  0.81281601737E+03  0.00000000000E+00 0. -1.
         -2   -1    0    0    0  501 -0.00000000000E+00 -0.00000000000E+00 -0.52898034362E+02  0.52898034362E+02  0.00000000000E+00 0.  1.
        -24    2    1    2    0    0 -0.13326426961E+02 -0.99004301316E+02  0.77355951870E+02  0.14975567367E+03  0.80395106652E+02 0.  0.
         23    2    1    2    0    0 -0.38784159531E+02  0.59787787885E+02  0.21520360467E+03  0.24407137152E+03  0.90440324640E+02 0.  0.
         13    1    3    3    0    0  0.25628429413E+02 -0.45377945447E+01  0.14664866560E+02  0.29874174210E+02  0.00000000000E+00 0. -1.
        -14    1    3    3    0    0 -0.38954856374E+02 -0.94466506771E+02  0.62691085310E+02  0.11988149947E+03  0.00000000000E+00 0.  1.
        -11    1    4    4    0    0 -0.51835677636E+02  0.21470488197E+02  0.54028884602E+02  0.77891204322E+02  0.00000000000E+00 0.  1.
         11    1    4    4    0    0  0.13051518105E+02  0.38317299688E+02  0.16117472007E+03  0.16618016720E+03  0.00000000000E+00 0. -1.
         21    1    1    2  502  501  0.52110586493E+02  0.39216513431E+02  0.46735842646E+03  0.47188700653E+03  0.00000000000E+00 0. -1.
<scales pt_clust_5="13000.00000" pt_clust_6="13000.00000" pt_clust_7="13000.00000" pt_clust_8="13000.00000" pt_clust_9="65.21846"></scales>
<clustering>
<clus scale="   65.218">  1  9  2 -1</clus>
<clus scale="   80.395">  5  6 -1 -1</clus>
<clus scale="   90.440">  7  8 -1 -1</clus>
<clus scale="  117.812">  2  5  1 -1</clus>
<clus scale="   65.218">  1  5  2 -1</clus>
</clustering>
</event>
<event>
 9    1  0.1973774E-005  0.1531340E+03  0.7546771E-02  0.1203817E+00
         -2   -1    0    0    0  501 -0.00000000000E+00  0.00000000000E+00  0.92073390197E+02  0.92073390197E+02  0.00000000000E+00 0.  1.
          1   -1    0    0  502    0  0.00000000000E+00 -0.00000000000E+00 -0.29873563907E+03  0.29873563907E+03  0.00000000000E+00 0. -1.
         23    2    1    2    0    0 -0.74341048638E+02 -0.52191983956E+02 -0.51672139924E+02  0.15400275916E+03  0.11312048922E+03 0.  0.
        -24    2    1    2    0    0  0.96484466407E+02  0.75556566208E+02 -0.12604276803E+03  0.19351443254E+03  0.80888869892E+02 0.  0.
         13    1    4    4    0    0  0.76195778458E+02  0.44112907522E+02 -0.12877254671E+03  0.15599395517E+03  0.00000000000E+00 0. -1.
        -14    1    4    4    0    0  0.20288687949E+02  0.31443658685E+02  0.27297786738E+01  0.37520477367E+02  0.00000000000E+00 0.  1.
        -13    1    3    3    0    0 -0.55159831520E+02  0.15363981911E+02  0.12796565090E+02  0.58672063468E+02  0.00000000000E+00 0.  1.
         13    1    3    3    0    0 -0.19181217117E+02 -0.67555965867E+02 -0.64468705014E+02  0.95330695689E+02  0.00000000000E+00 0. -1.
         21    1    1    2  502  501 -0.22143417769E+02 -0.23364582252E+02 -0.28947340919E+02  0.43291837575E+02  0.00000000000E+00 0.  1.
<scales pt_clust_5="13000.00000" pt_clust_6="13000.00000" pt_clust_7="13000.00000" pt_clust_8="13000.00000" pt_clust_9="32.19060"></scales>
<clustering>
<clus scale="   32.191">  2  9  1 -1</clus>
<clus scale="   80.889">  5  6 -1 -1</clus>
<clus scale="  113.120">  7  8 -1 -1</clus>
<clus scale="  131.136">  2  5  1 -1</clus>
<clus scale="   32.191">  2  5  1 -1</clus>
</clustering>
</event>
<event>
 9    1  0.1973774E-005  0.1012813E+03  0.7546771E-02  0.1279517E+00
          3   -1    0    0  502    0  0.00000000000E+00  0.00000000000E+00  0.27511774213E+03  0.27511774213E+03  0.00000000000E+00 0. -1.
         -4   -1    0    0    0  501 -0.00000000000E+00 -0.00000000000E+00 -0.16384262049E+03  0.16384262049E+03  0.00000000000E+00 0.  1.
         23    2    1    2    0    0 -0.60020239473E+00 -0.45546737191E+02 -0.13211441336E+03  0.16661442884E+03  0.90726424865E+02 0.  0.
        -24    2    1    2    0    0 -0.19786933709E+02  0.39264620781E+02  0.16906647617E+03  0.19502182770E+03  0.86699519744E+02 0.  0.
         11    1    4    4    0    0  0.32849220098E+02  0.14754927793E+02  0.42042473175E+02  0.55356559737E+02  0.00000000000E+00 0. -1.
        -12    1    4    4    0    0 -0.52636153808E+02  0.24509692988E+02  0.12702400300E+03  0.13966526796E+03  0.00000000000E+00 0.  1.
        -13    1    3    3    0    0 -0.35821171650E+02 -0.45075007443E+02 -0.46401611943E+02  0.73946076470E+02  0.00000000000E+00 0.  1.
         13    1    3    3    0    0  0.35220969255E+02 -0.47172974792E+00 -0.85712801420E+02  0.92668352373E+02  0.00000000000E+00 0. -1.
         21    1    1    2  502  501  0.20387136104E+02  0.62821164102E+01  0.74323058838E+02  0.77324106074E+02  0.00000000000E+00 0. -1.
<scales pt_clust_5="13000.00000" pt_clust_6="13000.00000" pt_clust_7="13000.00000" pt_clust_8="13000.00000" pt_clust_9="21.33308"></scales>
<clustering>
<clus scale="   21.333">  1  9  2 -1</clus>
<clus scale="   86.700">  5  6 -1 -1</clus>
<clus scale="   90.726">  7  8 -1 -1</clus>
<clus scale="   97.690">  1  5  2 -1</clus>
<clus scale="   21.333">  1  5  2 -1</clus>
</clustering>
</event>
<event>
 9    1  0.1973774E-005  0.1931675E+03  0.7546771E-02  0.1167772E+00
         -2   -1    0    0    0  501 -0.00000000000E+00  0.00000000000E+00  0.40401565708E+03  0.40401565708E+03  0.00000000000E+00 0.  1.
          1   -1    0    0  502    0  0.00000000000E+00 -0.00000000000E+00 -0.44410756083E+03  0.44410756083E+03  0.00000000000E+00 0. -1.
        -24    2    1    2    0    0  0.98323698524E+02  0.73322999423E+02  0.29823422636E+03  0.33194197120E+03  0.78727419192E+02 0.  0.
         23    2    1    2    0    0  0.10996083824E+03 -0.62576581956E+02 -0.54823382117E+02  0.16422707090E+03  0.89206014554E+02 0.  0.
         11    1    3    3    0    0  0.29737965171E+02  0.29294601230E+02  0.19995298584E+03  0.20426384110E+03  0.00000000000E+00 0. -1.
        -12    1    3    3    0    0  0.68585733354E+02  0.44028398192E+02  0.98281240523E+02  0.12767813010E+03  0.00000000000E+00 0.  1.
        -13    1    4    4    0    0  0.73760411616E+01  0.20691656297E+02 -0.24640466904E+01  0.22104799244E+02  0.00000000000E+00 0.  1.
         13    1    4    4    0    0  0.10258479708E+03 -0.83268238253E+02 -0.52359335427E+02  0.14212227166E+03  0.00000000000E+00 0. -1.
         21    1    1    2  502  501 -0.20828453677E+03 -0.10746417467E+02 -0.28350274800E+03  0.35195417581E+03  0.00000000000E+00 0. -1.
<scales pt_clust_5="13000.00000" pt_clust_6="13000.00000" pt_clust_7="13000.00000" pt_clust_8="13000.00000" pt_clust_9="171.33585"></scales>
<clustering>
<clus scale="   78.727">  5  6 -1 -1</clus>
<clus scale="   89.206">  7  8 -1 -1</clus>
<clus scale="  145.746">  1  5  2 -1</clus>
<clus scale="  171.336">  2  9  1 -1</clus>
<clus scale="  171.336">  2  5  1 -1</clus>
</clustering>
</event>
<event>
 9    1  0.1973774E-005  0.9611258E+02  0.7546771E-02  0.1294543E+00
         -2   -1    0    0    0  501 -0.00000000000E+00  0.00000000000E+00  0.59629454100E+02  0.59629454100E+02  0.00000000000E+00 0.  1.
          1   -1    0    0  502    0  0.00000000000E+00 -0.00000000000E+00 -0.42837657493E+03  0.42837657493E+03  0.00000000000E+00 0. -1.
         23    2    1    2    0    0 -0.24917604098E+02 -0.23504640149E+02  0.45408507631E+01  0.97686579973E+02  0.91371185166E+02 0.  0.
        -24    2    1    2    0    0  0.11198497320E+02 -0.56557225597E+00 -0.22219898456E+03  0.23671127539E+03  0.80833860116E+02 0.  0.
         11    1    4    4    0    0  0.10779980928E+01  0.33460515567E+02 -0.17200420349E+03  0.17523188694E+03  0.00000000000E+00 0. -1.
        -12    1    4    4    0    0  0.10120499228E+02 -0.34026087823E+02 -0.50194781067E+02  0.61479388445E+02  0.00000000000E+00 0.  1.
        -11    1    3    3    0    0  0.19596002787E+02 -0.42357775841E+02 -0.88983685819E+01  0.47511740263E+02  0.00000000000E+00 0.  1.
         11    1    3    3    0    0 -0.44513606885E+02  0.18853135692E+02  0.13439219345E+02  0.50174839710E+02  0.00000000000E+00 0. -1.
         21    1    1    2  502  501  0.13719106778E+02  0.24070212405E+02 -0.15108898703E+03  0.15360817367E+03  0.00000000000E+00 0. -1.
<scales pt_clust_5="13000.00000" pt_clust_6="13000.00000" pt_clust_7="13000.00000" pt_clust_8="13000.00000" pt_clust_9="27.70540"></scales>
<clustering>
<clus scale="   27.705">  2  9  1 -1</clus>
<clus scale="   80.834">  5  6 -1 -1</clus>
<clus scale="   86.157">  2  5  1 -1</clus>
<clus scale="   91.371">  7  8 -1 -1</clus>
<clus scale="   27.705">  2  5  1 -1</clus>
</clustering>
</event>
<event>
 9    1  0.1973774E-005  0.1451058E+03  0.7546771E-02  0.1208605E+00
          1   -1    0    0  502    0  0.00000000000E+00  0.00000000000E+00  0.47501313857E+03  0.47501313857E+03  0.00000000000E+00 0. -1.
         -2   -1    0    0    0  501 -0.00000000000E+00 -0.00000000000E+00 -0.92076136899E+02  0.92076136899E+02  0.00000000000E+00 0.  1.
        -24    2    1    2    0    0 -0.14493003814E+03  0.20654689909E+02  0.85044820698E+02  0.18782713113E+03  0.81333126635E+02 0.  0.
         23    2    1    2    0    0  0.50878434458E+02 -0.72549459014E+02  0.15620050300E+03  0.20145521865E+03  0.91288383095E+02 0.  0.
         13    1    3    3    0    0 -0.15399192841E+03  0.24250251326E+02  0.85988161857E+02  0.17803244840E+03  0.00000000000E+00 0. -1.
        -14    1    3    3    0    0  0.90618902662E+01 -0.35955614176E+01 -0.94334115982E+00  0.97946827232E+01  0.00000000000E+00 0.  1.
        -13    1    4    4    0    0  0.71601947633E+02 -0.30541685281E+02  0.11616691871E+03  0.13983699956E+03  0.00000000000E+00 0.  1.
         13    1    4    4    0    0 -0.20723513175E+02 -0.42007773732E+02  0.40033584289E+02  0.61618219086E+02  0.00000000000E+00 0. -1.
         21    1    1    2  502  501  0.94051603687E+02  0.51894769105E+02  0.14169167797E+03  0.17780692569E+03  0.00000000000E+00 0. -1.
<scales pt_clust_5="13000.00000" pt_clust_6="13000.00000" pt_clust_7="13000.00000" pt_clust_8="13000.00000" pt_clust_9="107.41867"></scales>
<clustering>
<clus scale="   81.333">  5  6 -1 -1</clus>
<clus scale="   91.288">  7  8 -1 -1</clus>
<clus scale="  107.419">  1  9  2 -1</clus>
<clus scale="  139.058">  2  5  1 -1</clus>
<clus scale="  107.419">  1  5  2 -1</clus>
</clustering>
</event>
<event>
 9    1  0.1973774E-005  0.1194836E+03  0.7546771E-02  0.1245382E+00
          1   -1    0    0  502    0  0.00000000000E+00  0.00000000000E+00  0.40381384074E+03  0.40381384074E+03  0.00000000000E+00 0. -1.
         -2   -1    0    0    0  501 -0.00000000000E+00 -0.00000000000E+00 -0.64457861813E+02  0.64457861813E+02  0.00000000000E+00 0.  1.
        -24    2    1    2    0    0  0.39181985678E+02 -0.94273406096E+02  0.69663468426E+02  0.15056817396E+03  0.85994610754E+02 0.  0.
         23    2    1    2    0    0 -0.29580615517E+02  0.26806125564E+02  0.17512614063E+03  0.20114101934E+03  0.90526036853E+02 0.  0.
         13    1    3    3    0    0  0.75494739071E+01 -0.52480326287E+02  0.81125524438E+02  0.96915065489E+02  0.00000000000E+00 0. -1.
        -14    1    3    3    0    0  0.31632511771E+02 -0.41793079809E+02 -0.11462056012E+02  0.53653108473E+02  0.00000000000E+00 0.  1.
        -13    1    4    4    0    0 -0.50050675400E+02  0.48079221596E+02  0.12431262484E+03  0.14237384013E+03  0.00000000000E+00 0. -1.
         13    1    4    4    0    0  0.20470059883E+02 -0.21273096031E+02  0.50813515789E+02  0.58767179217E+02  0.00000000000E+00 0.  1.
         21    1    1    2  502  501 -0.96013701615E+01  0.67467280531E+02  0.94566369872E+02  0.11656250925E+03  0.00000000000E+00 0.  1.
<scales pt_clust_5="13000.00000" pt_clust_6="13000.00000" pt_clust_7="13000.00000" pt_clust_8="13000.00000" pt_clust_9="68.14705"></scales>
<clustering>
<clus scale="   68.147">  1  9  2 -1</clus>
<clus scale="   85.995">  5  6 -1 -1</clus>
<clus scale="   90.526">  7  8 -1 -1</clus>
<clus scale="  116.088">  2  5  1 -1</clus>
<clus scale="   68.147">  1  5  2 -1</clus>
</clustering>
</event>
<event>
 9    1  0.1973774E-005  0.1074173E+03  0.7546771E-02  0.1268275E+00
         -2   -1    0    0    0  501 -0.00000000000E+00  0.00000000000E+00  0.11872532694E+03  0.11872532694E+03  0.00000000000E+00 0.  1.
          1   -1    0    0  502    0  0.00000000000E+00 -0.00000000000E+00 -0.21537880647E+03  0.21537880647E+03  0.00000000000E+00 0. -1.
        -24    2    1    2    0    0 -0.27986913182E+01  0.69490246412E+02  0.31178892261E+01  0.10722862350E+03  0.81556909246E+02 0.  0.
         23    2    1    2    0    0  0.54971570084E+02 -0.35883396785E+02 -0.11864675958E+03  0.16200864626E+03  0.88658086046E+02 0.  0.
         11    1    3    3    0    0  0.24076960557E+02  0.48134384281E+02  0.31785040400E+02  0.62505261963E+02  0.00000000000E+00 0. -1.
        -12    1    3    3    0    0 -0.26875651875E+02  0.21355862130E+02 -0.28667151174E+02  0.44723361541E+02  0.00000000000E+00 0.  1.
        -13    1    4    4    0    0  0.49122505958E+02  0.18485485925E+02 -0.77386274145E+02  0.93505984875E+02  0.00000000000E+00 0. -1.
         13    1    4    4    0    0  0.58490641260E+01 -0.54368882710E+02 -0.41260485436E+02  0.68502661384E+02  0.00000000000E+00 0.  1.
         21    1    1    2  502  501 -0.52172878766E+02 -0.33606849627E+02  0.18875390831E+02  0.64866863648E+02  0.00000000000E+00 0.  1.
<scales pt_clust_5="13000.00000" pt_clust_6="13000.00000" pt_clust_7="13000.00000" pt_clust_8="13000.00000" pt_clust_9="62.05989"></scales>
<clustering>
<clus scale="   62.060">  1  9  2 -1</clus>
<clus scale="   81.557">  5  6 -1 -1</clus>
<clus scale="   88.658">  7  8 -1 -1</clus>
<clus scale="  101.635">  1  5  2 -1</clus>
<clus scale="  107.417">  2  5  1 -1</clus>
</clustering>
</event>
<event>
 9    1  0.1973774E-005  0.2013874E+03  0.7546771E-02  0.1176428E+00
          1   -1    0    0  502    0  0.00000000000E+00  0.00000000000E+00  0.43252507548E+03  0.43252507548E+03  0.00000000000E+00 0. -1.
         -2   -1    0    0    0  501 -0.00000000000E+00 -0.00000000000E+00 -0.22839329825E+03  0.22839329825E+03  0.00000000000E+00 0.  1.
         23    2    1    2    0    0  0.26498000757E+02 -0.44065821050E+02 -0.74900981131E+02  0.12945913588E+03  0.92225648599E+02 0.  0.
        -24    2    1    2    0    0 -0.10966123924E+03 -0.14224397302E+03  0.26087906131E+03  0.32662510906E+03  0.79794373130E+02 0.  0.
         11    1    4    4    0    0 -0.72120907888E+02 -0.12674744980E+03  0.24031953506E+03  0.28110464300E+03  0.00000000000E+00 0. -1.
        -12    1    4    4    0    0 -0.37540331357E+02 -0.15496523216E+02  0.20559526251E+02  0.45520466054E+02  0.00000000000E+00 0.  1.
        -13    1    3    3    0    0  0.40576850459E+02  0.97963926775E+01 -0.57650279575E+02  0.71175872581E+02  0.00000000000E+00 0.  1.
         13    1    3    3    0    0 -0.14078849702E+02 -0.53862213728E+02 -0.17250701556E+02  0.58283263299E+02  0.00000000000E+00 0. -1.
         21    1    1    2  502  501  0.83163238487E+02  0.18630979407E+03  0.18153697050E+02  0.20483412879E+03  0.00000000000E+00 0.  1.
<scales pt_clust_5="13000.00000" pt_clust_6="13000.00000" pt_clust_7="13000.00000" pt_clust_8="13000.00000" pt_clust_9="184.90472"></scales>
<clustering>
<clus scale="   79.794">  5  6 -1 -1</clus>
<clus scale="   92.226">  7  8 -1 -1</clus>
<clus scale="  105.591">  2  7  1 -1</clus>
<clus scale="  184.905">  2  9  1 -1</clus>
<clus scale="  201.387">  1  5  2 -1</clus>
</clustering>
</event>
<event>
 9    1  0.1973774E-005  0.1037837E+03  0.7546771E-02  0.1276866E+00
          1   -1    0    0  502    0  0.00000000000E+00  0.00000000000E+00  0.21072138830E+03  0.21072138830E+03  0.00000000000E+00 0. -1.
         -2   -1    0    0    0  501 -0.00000000000E+00 -0.00000000000E+00 -0.42470951361E+03  0.42470951361E+03  0.00000000000E+00 0.  1.
        -24    2    1    2    0    0 -0.14168039556E+02  0.55102755460E+02 -0.35922069064E+03  0.37252895893E+03  0.80630475964E+02 0.  0.
         23    2    1    2    0    0  0.18585446667E+02 -0.13529263110E+02 -0.17578222659E+02  0.94809047707E+02  0.90284560292E+02 0.  0.
         13    1    3    3    0    0  0.24344439970E+02 -0.69144876618E+01 -0.10729797256E+03  0.11024208277E+03  0.00000000000E+00 0. -1.
        -14    1    3    3    0    0 -0.38512479526E+02  0.62017243122E+02 -0.25192271808E+03  0.26228687617E+03  0.00000000000E+00 0.  1.
        -11    1    4    4    0    0 -0.24656158997E+02  0.22647015043E+02  0.54302967780E+01  0.33916096325E+02  0.00000000000E+00 0. -1.
         11    1    4    4    0    0  0.43241605664E+02 -0.36176278153E+02 -0.23008519437E+02  0.60892951383E+02  0.00000000000E+00 0.  1.
         21    1    1    2  502  501 -0.44174071113E+01 -0.41573492349E+02  0.16281078800E+03  0.16809289527E+03  0.00000000000E+00 0. -1.
<scales pt_clust_5="13000.00000" pt_clust_6="13000.00000" pt_clust_7="13000.00000" pt_clust_8="13000.00000" pt_clust_9="41.80752"></scales>
<clustering>
<clus scale="   41.808">  1  9  2 -1</clus>
<clus scale="   80.630">  5  6 -1 -1</clus>
<clus scale="   90.285">  7  8 -1 -1</clus>
<clus scale="   95.504">  2  5  1 -1</clus>
<clus scale="   41.808">  1  5  2 -1</clus>
</clustering>
</event>
<event>
 9    1  0.1973774E-005  0.1028121E+03  0.7546771E-02  0.1276995E+00
         -2   -1    0    0    0  501 -0.00000000000E+00  0.00000000000E+00  0.21407264347E+03  0.21407264347E+03  0.00000000000E+00 0.  1.
          1   -1    0    0  502    0  0.00000000000E+00 -0.00000000000E+00 -0.31129801370E+03  0.31129801370E+03  0.00000000000E+00 0. -1.
        -24    2    1    2    0    0 -0.36623883843E+02 -0.34405860421E+02  0.18721256002E+03  0.21114908484E+03  0.83727661511E+02 0.  0.
         23    2    1    2    0    0  0.57321173277E+02  0.32125023743E+02 -0.21771843212E+03  0.24432828626E+03  0.89315517827E+02 0.  0.
         11    1    3    3    0    0 -0.18215273560E+02  0.27439354009E+02  0.69568962155E+02  0.76971129877E+02  0.00000000000E+00 0. -1.
        -12    1    3    3    0    0 -0.18408610283E+02 -0.61845214429E+02  0.11764359787E+03  0.13417795497E+03  0.00000000000E+00 0.  1.
        -13    1    4    4    0    0 -0.53407046936E+01  0.26385281711E+02 -0.14793539493E+03  0.15036484726E+03  0.00000000000E+00 0.  1.
         13    1    4    4    0    0  0.62661877971E+02  0.57397420315E+01 -0.69783037189E+02  0.93963439000E+02  0.00000000000E+00 0. -1.
         21    1    1    2  502  501 -0.20697289434E+02  0.22808366781E+01 -0.66719498130E+02  0.69893286063E+02  0.00000000000E+00 0. -1.
<scales pt_clust_5="13000.00000" pt_clust_6="13000.00000" pt_clust_7="13000.00000" pt_clust_8="13000.00000" pt_clust_9="20.82258"></scales>
<clustering>
<clus scale="   20.823">  2  9  1 -1</clus>
<clus scale="   83.728">  5  6 -1 -1</clus>
<clus scale="   89.316">  7  8 -1 -1</clus>
<clus scale="   97.997">  1  5  2 -1</clus>
<clus scale="   20.823">  2  5  1 -1</clus>
</clustering>
</event>
<event>
 9    1  0.1973774E-005  0.1122185E+03  0.7546771E-02  0.1260772E+00
          1   -1    0    0  502    0  0.00000000000E+00  0.00000000000E+00  0.33207196950E+03  0.33207196950E+03  0.00000000000E+00 0. -1.
         -2   -1    0    0    0  501 -0.00000000000E+00 -0.00000000000E+00 -0.53325547389E+02  0.53325547389E+02  0.00000000000E+00 0.  1.
         23    2    1    2    0    0  0.60867828037E+02 -0.33317538507E+02  0.44381087045E+02  0.12349769519E+03  0.92016568983E+02 0.  0.
        -24    2    1    2    0    0 -0.48774809418E+02  0.16957759694E+02  0.20327086587E+03  0.22474138421E+03  0.80765693322E+02 0.  0.
         13    1    4    4    0    0 -0.50095648916E+02  0.41418458080E+02  0.17822220114E+03  0.18970560269E+03  0.00000000000E+00 0. -1.
        -14    1    4    4    0    0  0.13208394982E+01 -0.24460698386E+02  0.25048664730E+02  0.35035781528E+02  0.00000000000E+00 0.  1.
        -11    1    3    3    0    0  0.27924724441E+02 -0.23065691632E+01  0.67213303116E+02  0.72819905329E+02  0.00000000000E+00 0. -1.
         11    1    3    3    0    0  0.32943103597E+02 -0.31010969344E+02 -0.22832216071E+02  0.50677789859E+02  0.00000000000E+00 0.  1.
         21    1    1    2  502  501 -0.12093018620E+02  0.16359778813E+02  0.31094469192E+02  0.37158437487E+02  0.00000000000E+00 0. -1.
<scales pt_clust_5="13000.00000" pt_clust_6="13000.00000" pt_clust_7="13000.00000" pt_clust_8="13000.00000" pt_clust_9="20.34413"></scales>
<clustering>
<clus scale="   20.344">  1  9  2 -1</clus>
<clus scale="   80.766">  5  6 -1 -1</clus>
<clus scale="   92.017">  7  8 -1 -1</clus>
<clus scale="  103.194">  1  5  2 -1</clus>
<clus scale="   20.344">  1  5  2 -1</clus>
</clustering>
</event>
<event>
 9    1  0.1973774E-005  0.1306990E+03  0.7546771E-02  0.1229220E+00
         -4   -1    0    0    0  501 -0.00000000000E+00  0.00000000000E+00  0.12847754777E+04  0.12847754777E+04  0.00000000000E+00 0.  1.
          3   -1    0    0  502    0  0.00000000000E+00 -0.00000000000E+00 -0.38429978880E+02  0.38429978880E+02  0.00000000000E+00 0. -1.
        -24    2    1    2    0    0 -0.45859509226E+01 -0.10008976999E+03  0.98626082325E+03  0.99459911914E+03  0.80486044298E+02 0.  0.
         23    2    1    2    0    0  0.47176021982E+02  0.65583577795E+02  0.24180909100E+03  0.27082581788E+03  0.91368508867E+02 0.  0.
         13    1    3    3    0    0 -0.24018354627E+02 -0.22510987649E+01  0.10631423220E+03  0.10901680959E+03  0.00000000000E+00 0. -1.
        -14    1    3    3    0    0  0.19432403705E+02 -0.97838671224E+02  0.87994659105E+03  0.88558230956E+03  0.00000000000E+00 0.  1.
        -11    1    4    4    0    0  0.38655496862E+02 -0.11923435902E+02  0.53985042763E+02  0.67459622023E+02  0.00000000000E+00 0.  1.
         11    1    4    4    0    0  0.85205251198E+01  0.77507013696E+02  0.18782404824E+03  0.20336619585E+03  0.00000000000E+00 0. -1.
         21    1    1    2  502  501 -0.42590071059E+02  0.34506192195E+02  0.18275584618E+02  0.57780519605E+02  0.00000000000E+00 0. -1.
<scales pt_clust_5="13000.00000" pt_clust_6="13000.00000" pt_clust_7="13000.00000" pt_clust_8="13000.00000" pt_clust_9="54.81415"></scales>
<clustering>
<clus scale="   54.814">  2  9  1 -1</clus>
<clus scale="   80.486">  5  6 -1 -1</clus>
<clus scale="   91.369">  7  8 -1 -1</clus>
<clus scale="  123.337">  1  5  2 -1</clus>
<clus scale="   54.814">  2  5  1 -1</clus>
</clustering>
</event>
<event>
 9    1  0.1973774E-005  0.1279973E+03  0.7546771E-02  0.1232648E+00
         -2   -1    0    0    0  501 -0.00000000000E+00  0.00000000000E+00  0.10730080667E+03  0.10730080667E+03  0.00000000000E+00 0.  1.
          1   -1    0    0  502    0  0.00000000000E+00 -0.00000000000E+00 -0.27957688113E+03  0.27957688113E+03  0.00000000000E+00 0. -1.
         23    2    1    2    0    0 -0.74604676942E+02  0.44332257304E+02  0.21868172023E+02  0.12646150043E+03  0.89348124115E+02 0.  0.
        -24    2    1    2    0    0  0.77611617918E+02 -0.74661468726E+02 -0.12082381622E+03  0.18101349061E+03  0.81053013937E+02 0.  0.
         13    1    4    4    0    0  0.66480400769E+02 -0.43125988281E+02 -0.12427889111E+03  0.14739313867E+03  0.00000000000E+00 0. -1.
        -14    1    4    4    0    0  0.11131217148E+02 -0.31535480444E+02  0.34550748885E+01  0.33620351940E+02  0.00000000000E+00 0.  1.
        -13    1    3    3    0    0 -0.29388872176E+02  0.86118790123E+01 -0.34307074154E+02  0.45987450515E+02  0.00000000000E+00 0. -1.
         13    1    3    3    0    0 -0.45215804766E+02  0.35720378291E+02  0.56175246176E+02  0.80474049910E+02  0.00000000000E+00 0.  1.
         21    1    1    2  502  501 -0.30069409759E+01  0.30329211422E+02 -0.73320430270E+02  0.79402696771E+02  0.00000000000E+00 0.  1.
<scales pt_clust_5="13000.00000" pt_clust_6="13000.00000" pt_clust_7="13000.00000" pt_clust_8="13000.00000" pt_clust_9="30.47791"></scales>
<clustering>
<clus scale="   30.478">  2  9  1 -1</clus>
<clus scale="   81.053">  5  6 -1 -1</clus>
<clus scale="   89.348">  7  8 -1 -1</clus>
<clus scale="  122.351">  2  5  1 -1</clus>
<clus scale="   30.478">  2  5  1 -1</clus>
</clustering>
</event>
<event>
 9    1  0.1973774E-005  0.1072914E+03  0.7546771E-02  0.1270921E+00
          3   -1    0    0  502    0  0.00000000000E+00  0.00000000000E+00  0.29657889766E+03  0.29657889766E+03  0.00000000000E+00 0. -1.
         -4   -1    0    0    0  501 -0.00000000000E+00 -0.00000000000E+00 -0.80241136606E+02  0.80241136606E+02  0.00000000000E+00 0.  1.
        -24    2    1    2    0    0 -0.48468661565E+02 -0.16342008614E+02 -0.97445976642E+01  0.96295589745E+02  0.81003771649E+02 0.  0.
         23    2    1    2    0    0  0.66391941602E+02 -0.20417508234E+02  0.12105014751E+03  0.16781121798E+03  0.93181017998E+02 0.  0.
         13    1    3    3    0    0 -0.60006333277E+02 -0.24447252600E+02  0.16179761169E+02  0.66784825107E+02  0.00000000000E+00 0. -1.
        -14    1    3    3    0    0  0.11537671712E+02  0.81052439865E+01 -0.25924358834E+02  0.29510764638E+02  0.00000000000E+00 0.  1.
        -13    1    4    4    0    0  0.83183320601E+02 -0.38390391803E+02  0.96345053013E+02  0.13294982606E+03  0.00000000000E+00 0. -1.
         13    1    4    4    0    0 -0.16791379000E+02  0.17972883568E+02  0.24705094493E+02  0.34861391917E+02  0.00000000000E+00 0.  1.
         21    1    1    2  502  501 -0.17923280036E+02  0.36759516848E+02  0.10503221121E+03  0.11271322655E+03  0.00000000000E+00 0. -1.
<scales pt_clust_5="13000.00000" pt_clust_6="13000.00000" pt_clust_7="13000.00000" pt_clust_8="13000.00000" pt_clust_9="40.89628"></scales>
<clustering>
<clus scale="   40.896">  1  9  2 -1</clus>
<clus scale="   81.004">  5  6 -1 -1</clus>
<clus scale="   93.181">  7  8 -1 -1</clus>
<clus scale="   96.904">  2  5  1 -1</clus>
<clus scale="   40.896">  1  5  2 -1</clus>
</clustering>
</event>
<event>
 9    1  0.1973774E-005  0.9876557E+02  0.7546771E-02  0.1287788E+00
          1   -1    0    0  502    0  0.00000000000E+00  0.00000000000E+00  0.33954084048E+03  0.33954084048E+03  0.00000000000E+00 0. -1.
         -2   -1    0    0    0  501 -0.00000000000E+00 -0.00000000000E+00 -0.67919410472E+02  0.67919410472E+02  0.00000000000E+00 0.  1.
         23    2    1    2    0    0 -0.97011349359E+01 -0.91931325484E+01  0.64397425020E+02  0.11060639960E+03  0.88927619881E+02 0.  0.
        -24    2    1    2    0    0  0.18147059023E+02 -0.79027663254E+02  0.16103364303E+03  0.19691491008E+03  0.79176766242E+02 0.  0.
         13    1    4    4    0    0 -0.14398919641E+01 -0.65641676819E+02  0.47778210246E+02  0.81201357124E+02  0.00000000000E+00 0. -1.
        -14    1    4    4    0    0  0.19586950987E+02 -0.13385986435E+02  0.11325543279E+03  0.11571355296E+03  0.00000000000E+00 0.  1.
        -13    1    3    3    0    0  0.39764452995E+02 -0.54612307846E+01  0.25313795355E+02  0.47453398182E+02  0.00000000000E+00 0. -1.
         13    1    3    3    0    0 -0.49465587931E+02 -0.37319017639E+01  0.39083629665E+02  0.63153001416E+02  0.00000000000E+00 0.  1.
         21    1    1    2  502  501 -0.84459240872E+01  0.88220795802E+02  0.46190361958E+02  0.99938941276E+02  0.00000000000E+00 0.  1.
<scales pt_clust_5="13000.00000" pt_clust_6="13000.00000" pt_clust_7="13000.00000" pt_clust_8="13000.00000" pt_clust_9="88.62416"></scales>
<clustering>
<clus scale="   79.177">  5  6 -1 -1</clus>
<clus scale="   88.624">  2  9  1 -1</clus>
<clus scale="   88.928">  7  8 -1 -1</clus>
<clus scale="   90.086">  1  5  2 -1</clus>
<clus scale="   90.086">  1  5  2 -1</clus>
</clustering>
</event>
<event>
 9    1  0.1973774E-005  0.1369899E+03  0.7546771E-02  0.1219682E+00
          1   -1    0    0  502    0  0.00000000000E+00  0.00000000000E+00  0.50959984076E+02  0.50959984076E+02  0.00000000000E+00 0. -1.
         -2   -1    0    0    0  501 -0.00000000000E+00 -0.00000000000E+00 -0.58156399905E+03  0.58156399905E+03  0.00000000000E+00 0.  1.
        -24    2    1    2    0    0 -0.15078633424E+02 -0.10837385587E+03 -0.42061661468E+03  0.44205029403E+03  0.80733314596E+02 0.  0.
         23    2    1    2    0    0  0.80245531049E+01  0.80108059243E+02 -0.66852871617E+02  0.13842272492E+03  0.90608221048E+02 0.  0.
         13    1    3    3    0    0 -0.32223255704E+02 -0.17818113605E+02 -0.65206794923E+02  0.74884908257E+02  0.00000000000E+00 0. -1.
        -14    1    3    3    0    0  0.17144622280E+02 -0.90555742260E+02 -0.35540981976E+03  0.36716538578E+03  0.00000000000E+00 0.  1.
        -11    1    4    4    0    0 -0.28018199061E+02 -0.26998820565E+00 -0.34811692564E+02  0.44687205232E+02  0.00000000000E+00 0.  1.
         11    1    4    4    0    0  0.36042752166E+02  0.80378047449E+02 -0.32041179053E+02  0.93735519684E+02  0.00000000000E+00 0. -1.
         21    1    1    2  502  501  0.70540803189E+01  0.28265796622E+02 -0.43134528670E+02  0.52050964174E+02  0.00000000000E+00 0. -1.
<scales pt_clust_5="13000.00000" pt_clust_6="13000.00000" pt_clust_7="13000.00000" pt_clust_8="13000.00000" pt_clust_9="29.13272"></scales>
<clustering>
<clus scale="   29.133">  1  9  2 -1</clus>
<clus scale="   80.733">  5  6 -1 -1</clus>
<clus scale="   90.608">  7  8 -1 -1</clus>
<clus scale="  130.668">  2  5  1 -1</clus>
<clus scale="   29.133">  1  5  2 -1</clus>
</clustering>
</event>
<event>
 9    1  0.1973774E-005  0.1196623E+03  0.7546771E-02  0.1246792E+00
         -2   -1    0    0    0  501 -0.00000000000E+00  0.00000000000E+00  0.43970770241E+03  0.43970770241E+03  0.00000000000E+00 0.  1.
          1   -1    0    0  502    0  0.00000000000E+00 -0.00000000000E+00 -0.50180754630E+02  0.50180754630E+02  0.00000000000E+00 0. -1.
         23    2    1    2    0    0 -0.31135020217E+02  0.61585034380E+02  0.24428869344E+03  0.26960946233E+03  0.90830559230E+02 0.  0.
        -24    2    1    2    0    0  0.32227620088E+02 -0.88454917377E+02  0.14807789835E+03  0.19323739778E+03  0.80936617265E+02 0.  0.
         11    1    4    4    0    0  0.46833105955E+02 -0.30998833925E+02  0.36777552692E+02  0.67133120739E+02  0.00000000000E+00 0. -1.
        -12    1    4    4    0    0 -0.14605485867E+02 -0.57456083452E+02  0.11130034566E+03  0.12610427704E+03  0.00000000000E+00 0.  1.
        -13    1    3    3    0    0 -0.44796917030E+02  0.79569031470E+02  0.20156529372E+03  0.22128389498E+03  0.00000000000E+00 0.  1.
         13    1    3    3    0    0  0.13661896813E+02 -0.17983997090E+02  0.42723399719E+02  0.48325567348E+02  0.00000000000E+00 0. -1.
         21    1    1    2  502  501 -0.10925998709E+01  0.26869882997E+02 -0.28396440130E+01  0.27041596937E+02  0.00000000000E+00 0. -1.
<scales pt_clust_5="13000.00000" pt_clust_6="13000.00000" pt_clust_7="13000.00000" pt_clust_8="13000.00000" pt_clust_9="26.89209"></scales>
<clustering>
<clus scale="   26.892">  2  9  1 -1</clus>
<clus scale="   80.937">  5  6 -1 -1</clus>
<clus scale="   90.831">  7  8 -1 -1</clus>
<clus scale="  112.337">  2  5  1 -1</clus>
<clus scale="   26.892">  2  5  1 -1</clus>
</clustering>
</event>
<event>
 9    1  0.1973774E-005  0.2169977E+03  0.7546771E-02  0.1162133E+00
         -2   -1    0    0    0  501 -0.00000000000E+00  0.00000000000E+00  0.44484375349E+03  0.44484375349E+03  0.00000000000E+00 0.  1.
          1   -1    0    0  502    0  0.00000000000E+00 -0.00000000000E+00 -0.47187917685E+03  0.47187917685E+03  0.00000000000E+00 0. -1.
         23    2    1    2    0    0  0.67812004108E+02  0.14055554198E+02  0.29721987803E+02  0.12081166389E+03  0.94424758770E+02 0.  0.
        -24    2    1    2    0    0  0.98377558541E+02 -0.13255720044E+03  0.31890690000E+03  0.36837730805E+03  0.82162490251E+02 0.  0.
         11    1    4    4    0    0  0.45132814007E+02 -0.59989001714E+01  0.10149469832E+03  0.11123907358E+03  0.00000000000E+00 0. -1.
        -12    1    4    4    0    0  0.53244744535E+02 -0.12655830026E+03  0.21741220168E+03  0.25713823447E+03  0.00000000000E+00 0.  1.
        -11    1    3    3    0    0  0.15035671515E+02  0.14044758514E+02  0.57571850956E+02  0.61137915259E+02  0.00000000000E+00 0. -1.
         11    1    3    3    0    0  0.52776332593E+02  0.10795684527E-01 -0.27849863153E+02  0.59673748635E+02  0.00000000000E+00 0.  1.
         21    1    1    2  502  501 -0.16618956265E+03  0.11850164624E+03 -0.37566431117E+03  0.42753395840E+03  0.00000000000E+00 0. -1.
<scales pt_clust_5="13000.00000" pt_clust_6="13000.00000" pt_clust_7="13000.00000" pt_clust_8="13000.00000" pt_clust_9="200.84151"></scales>
<clustering>
<clus scale="   82.162">  5  6 -1 -1</clus>
<clus scale="   94.425">  7  8 -1 -1</clus>
<clus scale="  117.099">  1  7  2 -1</clus>
<clus scale="  200.842">  2  9  1 -1</clus>
<clus scale="  200.842">  2  5  1 -1</clus>
</clustering>
</event>
<event>
 9    1  0.1973774E-005  0.1185118E+03  0.7546771E-02  0.1250258E+00
          3   -1    0    0  502    0  0.00000000000E+00  0.00000000000E+00  0.14690284421E+03  0.14690284421E+03  0.00000000000E+00 0. -1.
         -4   -1    0    0    0  501 -0.00000000000E+00 -0.00000000000E+00 -0.26199135399E+03  0.26199135399E+03  0.00000000000E+00 0.  1.
         23    2    1    2    0    0 -0.79992713068E+02  0.20919828577E+02 -0.20573293037E+03  0.24064306913E+03  0.93523123932E+02 0.  0.
        -24    2    1    2    0    0  0.26936540406E+02  0.31211884923E+00  0.61070379493E+02  0.10390536810E+03  0.79630770691E+02 0.  0.
         13    1    4    4    0    0  0.50278346045E+02  0.52022751267E+00  0.15351820496E+02  0.52572436791E+02  0.00000000000E+00 0. -1.
        -14    1    4    4    0    0 -0.23341805639E+02 -0.20810866344E+00  0.45718558998E+02  0.51332931307E+02  0.00000000000E+00 0.  1.
        -11    1    3    3    0    0 -0.23645703302E+02 -0.22991545395E+02 -0.13909187275E+03  0.14294852049E+03  0.00000000000E+00 0.  1.
         11    1    3    3    0    0 -0.56347009766E+02  0.43911373973E+02 -0.66641057618E+02  0.97694548641E+02  0.00000000000E+00 0. -1.
         21    1    1    2  502  501  0.53056172662E+02 -0.21231947427E+02  0.29574041100E+02  0.64345760979E+02  0.00000000000E+00 0. -1.
<scales pt_clust_5="13000.00000" pt_clust_6="13000.00000" pt_clust_7="13000.00000" pt_clust_8="13000.00000" pt_clust_9="57.14677"></scales>
<clustering>
<clus scale="   57.147">  1  9  2 -1</clus>
<clus scale="   79.631">  5  6 -1 -1</clus>
<clus scale="   93.523">  7  8 -1 -1</clus>
<clus scale="  107.887">  1  5  2 -1</clus>
<clus scale="   57.147">  1  5  2 -1</clus>
</clustering>
</event>
<event>
 9    1  0.1973774E-005  0.9623849E+02  0.7546771E-02  0.1290602E+00
          1   -1    0    0  502    0  0.00000000000E+00  0.00000000000E+00  0.22713743063E+03  0.22713743063E+03  0.00000000000E+00 0. -1.
         -2   -1    0    0    0  501 -0.00000000000E+00 -0.00000000000E+00 -0.31342343580E+03  0.31342343580E+03  0.00000000000E+00 0.  1.
         23    2    1    2    0    0  0.45587965046E+02 -0.23692229133E+02 -0.26634837759E+03  0.28416740142E+03  0.84676262943E+02 0.  0.
        -24    2    1    2    0    0 -0.22190797798E+02 -0.30735293780E+02  0.27785883801E+02  0.92998508919E+02  0.80246978335E+02 0.  0.
         11    1    4    4    0    0 -0.43704466369E+02  0.14367580918E+01 -0.25818338056E+01  0.43804229479E+02  0.00000000000E+00 0. -1.
        -12    1    4    4    0    0  0.21513668571E+02 -0.32172051872E+02  0.30367717607E+02  0.49194279440E+02  0.00000000000E+00 0.  1.
        -11    1    3    3    0    0 -0.21633688040E+02 -0.36694158525E+01 -0.27211107960E+02  0.34956050511E+02  0.00000000000E+00 0. -1.
         11    1    3    3    0    0  0.67221653086E+02 -0.20022813281E+02 -0.23913726963E+03  0.24921135091E+03  0.00000000000E+00 0.  1.
         21    1    1    2  502  501 -0.23397167247E+02  0.54427522913E+02  0.15227648863E+03  0.16339495609E+03  0.00000000000E+00 0. -1.
<scales pt_clust_5="13000.00000" pt_clust_6="13000.00000" pt_clust_7="13000.00000" pt_clust_8="13000.00000" pt_clust_9="59.24342"></scales>
<clustering>
<clus scale="   59.243">  1  9  2 -1</clus>
<clus scale="   80.247">  5  6 -1 -1</clus>
<clus scale="   84.676">  7  8 -1 -1</clus>
<clus scale="   92.365">  1  5  2 -1</clus>
<clus scale="   59.243">  1  5  2 -1</clus>
</clustering>
</event>
<event>
 9    1  0.1973774E-005  0.1525388E+03  0.7546771E-02  0.1199366E+00
          1   -1    0    0  502    0  0.00000000000E+00  0.00000000000E+00  0.34761422140E+03  0.34761422140E+03  0.00000000000E+00 0. -1.
         -2   -1    0    0    0  501 -0.00000000000E+00 -0.00000000000E+00 -0.17360003159E+03  0.17360003159E+03  0.00000000000E+00 0.  1.
         23    2    1    2    0    0  0.86925385664E+02  0.81036592557E+02 -0.91270062711E+02  0.17526116479E+03  0.90902692641E+02 0.  0.
        -24    2    1    2    0    0 -0.10652283551E+03 -0.85328422399E+02  0.11776176032E+03  0.19707271492E+03  0.79635222232E+02 0.  0.
         11    1    4    4    0    0 -0.11931141141E+03 -0.81657840794E+02  0.11001381855E+03  0.18167623986E+03  0.00000000000E+00 0. -1.
        -12    1    4    4    0    0  0.12788575900E+02 -0.36705816048E+01  0.77479417658E+01  0.15396475067E+02  0.00000000000E+00 0.  1.
        -11    1    3    3    0    0  0.83648585048E+02  0.40788594345E+02 -0.97059745853E+02  0.13446705721E+03  0.00000000000E+00 0.  1.
         11    1    3    3    0    0  0.32768006168E+01  0.40247998211E+02  0.57896831423E+01  0.40794107579E+02  0.00000000000E+00 0. -1.
         21    1    1    2  502  501  0.19597449849E+02  0.42918298419E+01  0.14752249220E+03  0.14888037329E+03  0.00000000000E+00 0.  1.
<scales pt_clust_5="13000.00000" pt_clust_6="13000.00000" pt_clust_7="13000.00000" pt_clust_8="13000.00000" pt_clust_9="20.06190"></scales>
<clustering>
<clus scale="   20.062">  1  9  2 -1</clus>
<clus scale="   79.635">  5  6 -1 -1</clus>
<clus scale="   90.903">  7  8 -1 -1</clus>
<clus scale="  146.105">  1  5  2 -1</clus>
<clus scale="   20.062">  1  5  2 -1</clus>
</clustering>
</event>
<event>
 9    1  0.1973774E-005  0.9795783E+02  0.7546771E-02  0.1293717E+00
          1   -1    0    0  502    0  0.00000000000E+00  0.00000000000E+00  0.39301249635E+03  0.39301249635E+03  0.00000000000E+00 0. -1.
         -2   -1    0    0    0  501 -0.00000000000E+00 -0.00000000000E+00 -0.30268802768E+02  0.30268802768E+02  0.00000000000E+00 0.  1.
         23    2    1    2    0    0  0.20304055846E+02 -0.62393144139E+01  0.11059810258E+03  0.14595860937E+03  0.92848218210E+02 0.  0.
        -24    2    1    2    0    0 -0.42794902700E+02  0.16429927116E+02  0.17663693531E+03  0.19787935232E+03  0.76513299199E+02 0.  0.
         11    1    4    4    0    0  0.27662974192E+01  0.35593827864E+02  0.10452559564E+03  0.11045439388E+03  0.00000000000E+00 0. -1.
        -12    1    4    4    0    0 -0.45561200119E+02 -0.19163900749E+02  0.72111339672E+02  0.87424958435E+02  0.00000000000E+00 0.  1.
        -11    1    3    3    0    0  0.19458040417E+02  0.15968039291E+02  0.11942313319E+03  0.12204703338E+03  0.00000000000E+00 0. -1.
         11    1    3    3    0    0  0.84601542902E+00 -0.22207353705E+02 -0.88250306111E+01  0.23911575982E+02  0.00000000000E+00 0.  1.
         21    1    1    2  502  501  0.22490846854E+02 -0.10190612702E+02  0.75508655684E+02  0.79443337434E+02  0.00000000000E+00 0. -1.
<scales pt_clust_5="13000.00000" pt_clust_6="13000.00000" pt_clust_7="13000.00000" pt_clust_8="13000.00000" pt_clust_9="24.69184"></scales>
<clustering>
<clus scale="   24.692">  1  9  2 -1</clus>
<clus scale="   76.513">  5  6 -1 -1</clus>
<clus scale="   82.639">  1  5  2 -1</clus>
<clus scale="   92.848">  7  8 -1 -1</clus>
<clus scale="   24.692">  1  5  2 -1</clus>
</clustering>
</event>
<event>
 9    1  0.1973774E-005  0.1365048E+03  0.7546771E-02  0.1228365E+00
         -2   -1    0    0    0  501 -0.00000000000E+00  0.00000000000E+00  0.27592273393E+03  0.27592273393E+03  0.00000000000E+00 0.  1.
          1   -1    0    0  502    0  0.00000000000E+00 -0.00000000000E+00 -0.16976958879E+03  0.16976958879E+03  0.00000000000E+00 0. -1.
         23    2    1    2    0    0 -0.24090786407E+02 -0.62002800518E+02  0.47009472190E+02  0.11979921410E+03  0.87847868278E+02 0.  0.
        -24    2    1    2    0    0 -0.89013327282E+02 -0.43268447190E+02 -0.49860115594E+02  0.13679947561E+03  0.80203082511E+02 0.  0.
         11    1    4    4    0    0 -0.29979347086E+02 -0.23719141280E+02  0.20105045072E+02  0.43192264957E+02  0.00000000000E+00 0. -1.
        -12    1    4    4    0    0 -0.59033980195E+02 -0.19549305910E+02 -0.69965160666E+02  0.93607210653E+02  0.00000000000E+00 0.  1.
        -11    1    3    3    0    0 -0.46635689819E+02 -0.35305871572E+01  0.27056271768E+02  0.54031420974E+02  0.00000000000E+00 0.  1.
         11    1    3    3    0    0  0.22544903412E+02 -0.58472213360E+02  0.19953200423E+02  0.65767793123E+02  0.00000000000E+00 0. -1.
         21    1    1    2  502  501  0.11310411369E+03  0.10527124771E+03  0.10900378854E+03  0.18909363301E+03  0.00000000000E+00 0. -1.
<scales pt_clust_5="13000.00000" pt_clust_6="13000.00000" pt_clust_7="13000.00000" pt_clust_8="13000.00000" pt_clust_9="110.45821"></scales>
<clustering>
<clus scale="   80.203">  5  6 -1 -1</clus>
<clus scale="   87.848">  7  8 -1 -1</clus>
<clus scale="  110.191">  1  7  2 -1</clus>
<clus scale="  110.458">  1  9  2 -1</clus>
<clus scale="  136.505">  2  5  1 -1</clus>
</clustering>
</event>
<event>
 9    1  0.1973774E-005  0.1145972E+03  0.7546771E-02  0.1255957E+00
         -2   -1    0    0    0  501 -0.00000000000E+00  0.00000000000E+00  0.61330610087E+02  0.61330610087E+02  0.00000000000E+00 0.  1.
          1   -1    0    0  502    0  0.00000000000E+00 -0.00000000000E+00 -0.40760412899E+03  0.40760412899E+03  0.00000000000E+00 0. -1.
         23    2    1    2    0    0  0.26473163175E+02  0.58494167509E+02 -0.29152096432E+02  0.11529947122E+03  0.91223502101E+02 0.  0.
        -24    2    1    2    0    0 -0.18134037297E+02 -0.89623068352E+02 -0.27249059692E+03  0.29858565317E+03  0.80877247599E+02 0.  0.
         11    1    4    4    0    0 -0.24895753013E+02 -0.81466952656E+02 -0.27483562586E+03  0.28773474614E+03  0.00000000000E+00 0. -1.
        -12    1    4    4    0    0  0.67617157164E+01 -0.81561156957E+01  0.23450289403E+01  0.10850907031E+02  0.00000000000E+00 0.  1.
        -11    1    3    3    0    0  0.38672319327E+02  0.77322737556E+02 -0.32996902821E+02  0.92537287733E+02  0.00000000000E+00 0.  1.
         11    1    3    3    0    0 -0.12199156152E+02 -0.18828570047E+02  0.38448063889E+01  0.22762183485E+02  0.00000000000E+00 0. -1.
         21    1    1    2  502  501 -0.83391258782E+01  0.31128900843E+02 -0.44630825556E+02  0.55049614694E+02  0.00000000000E+00 0. -1.
<scales pt_clust_5="13000.00000" pt_clust_6="13000.00000" pt_clust_7="13000.00000" pt_clust_8="13000.00000" pt_clust_9="32.22653"></scales>
<clustering>
<clus scale="   32.227">  2  9  1 -1</clus>
<clus scale="   80.877">  5  6 -1 -1</clus>
<clus scale="   91.224">  7  8 -1 -1</clus>
<clus scale="  106.545">  2  5  1 -1</clus>
<clus scale="   32.227">  2  5  1 -1</clus>
</clustering>
</event>
<event>
 9    1  0.1973774E-005  0.9118735E+02  0.7546771E-02  0.1306748E+00
         -4   -1    0    0    0  501 -0.00000000000E+00  0.00000000000E+00  0.11021371119E+03  0.11021371119E+03  0.00000000000E+00 0.  1.
          3   -1    0    0  502    0  0.00000000000E+00 -0.00000000000E+00 -0.55770305105E+03  0.55770305105E+03  0.00000000000E+00 0. -1.
         23    2    1    2    0    0 -0.13735709692E+02 -0.84436693661E+01  0.74909079200E+02  0.11813297397E+03  0.89911423747E+02 0.  0.
        -24    2    1    2    0    0  0.24640352863E+02 -0.42413846394E+02 -0.17231002630E+03  0.19585260724E+03  0.79129117544E+02 0.  0.
         11    1    4    4    0    0 -0.12205099323E+02  0.18044164565E+02 -0.32306728872E+02  0.38965126136E+02  0.00000000000E+00 0. -1.
        -12    1    4    4    0    0  0.36845452186E+02 -0.60458010960E+02 -0.14000329743E+03  0.15688748110E+03  0.00000000000E+00 0.  1.
        -13    1    3    3    0    0 -0.43981043138E+02  0.12458601479E+02  0.15500106786E+02  0.48268024785E+02  0.00000000000E+00 0.  1.
         13    1    3    3    0    0  0.30245333446E+02 -0.20902270845E+02  0.59408972415E+02  0.69864949188E+02  0.00000000000E+00 0. -1.
         21    1    1    2  502  501 -0.10904643171E+02  0.50857515760E+02 -0.35008839276E+03  0.35393118102E+03  0.00000000000E+00 0. -1.
<scales pt_clust_5="13000.00000" pt_clust_6="13000.00000" pt_clust_7="13000.00000" pt_clust_8="13000.00000" pt_clust_9="52.01344"></scales>
<clustering>
<clus scale="   52.013">  2  9  1 -1</clus>
<clus scale="   79.129">  5  6 -1 -1</clus>
<clus scale="   80.576">  2  5  1 -1</clus>
<clus scale="   89.911">  7  8 -1 -1</clus>
<clus scale="   52.013">  2  5  1 -1</clus>
</clustering>
</event>
<event>
 9    1  0.1973774E-005  0.1002316E+03  0.7546771E-02  0.1283195E+00
          3   -1    0    0  502    0  0.00000000000E+00  0.00000000000E+00  0.18302197058E+03  0.18302197058E+03  0.00000000000E+00 0. -1.
         -4   -1    0    0    0  501 -0.00000000000E+00 -0.00000000000E+00 -0.32473077403E+03  0.32473077403E+03  0.00000000000E+00 0.  1.
        -24    2    1    2    0    0 -0.19410115495E+02  0.41162704635E+02 -0.28011514718E+03  0.29604969629E+03  0.84319666475E+02 0.  0.
         23    2    1    2    0    0 -0.27416020532E+02  0.30255797623E+01  0.90785263953E+02  0.13162147283E+03  0.91222012939E+02 0.  0.
         11    1    3    3    0    0 -0.37758810249E+02 -0.14131403066E+01 -0.19956375080E+03  0.20310936796E+03  0.00000000000E+00 0. -1.
        -12    1    3    3    0    0  0.18348694753E+02  0.42575844942E+02 -0.80551396379E+02  0.92940328331E+02  0.00000000000E+00 0.  1.
        -11    1    4    4    0    0  0.93271688759E+01  0.27574619424E+02 -0.16609767470E+01  0.29156724085E+02  0.00000000000E+00 0.  1.
         11    1    4    4    0    0 -0.36743189408E+02 -0.24549039662E+02  0.92446240700E+02  0.10246474875E+03  0.00000000000E+00 0. -1.
         21    1    1    2  502  501  0.46826136027E+02 -0.44188284397E+02  0.47621079781E+02  0.80081575489E+02  0.00000000000E+00 0.  1.
<scales pt_clust_5="13000.00000" pt_clust_6="13000.00000" pt_clust_7="13000.00000" pt_clust_8="13000.00000" pt_clust_9="64.38394"></scales>
<clustering>
<clus scale="   64.384">  1  9  2 -1</clus>
<clus scale="   84.320">  5  6 -1 -1</clus>
<clus scale="   91.222">  7  8 -1 -1</clus>
<clus scale="   93.993">  2  5  1 -1</clus>
<clus scale="   64.384">  1  5  2 -1</clus>
</clustering>
</event>
